Protein in INSANE! Membrane UpperLeaflet>POPC=1.0 LowerLeaflet>POPC=1.0
243957
   22AUC    AUC    1  17.932  17.676   7.500
   23AUC    AUC    2  18.178  17.676   7.348
   24AUC    AUC    3  18.178  17.676   7.651
   25AUC    AUC    4  17.687  17.676   7.348
   26AUC    AUC    5  17.687  17.676   7.651
   27AUC    AUC    6  17.781  17.921   7.500
   28AUC    AUC    7  18.084  17.921   7.500
   29AUC    AUC    8  17.781  17.430   7.500
   30AUC    AUC    9  18.084  17.430   7.500
   31AUC    AUC   10  17.932  17.524   7.745
   32AUC    AUC   11  17.932  17.827   7.745
   33AUC    AUC   12  17.932  17.524   7.254
   34AUC    AUC   13  17.932  17.827   7.254
   35AUC    AUC   14  18.423  17.676   7.196
   36AUC    AUC   15  18.423  17.676   7.500
   37AUC    AUC   16  18.423  17.676   7.803
   38AUC    AUC   17  17.441  17.676   7.196
   39AUC    AUC   18  17.441  17.676   7.500
   40AUC    AUC   19  17.441  17.676   7.803
   41AUC    AUC   20  17.629  18.166   7.500
   42AUC    AUC   21  17.932  18.166   7.500
   43AUC    AUC   22  18.236  18.166   7.500
   44AUC    AUC   23  17.629  17.185   7.500
   45AUC    AUC   24  17.932  17.185   7.500
   46AUC    AUC   25  18.236  17.185   7.500
   47AUC    AUC   26  17.932  17.372   7.991
   48AUC    AUC   27  17.932  17.676   7.991
   49AUC    AUC   28  17.932  17.979   7.991
   50AUC    AUC   29  17.932  17.372   7.009
   51AUC    AUC   30  17.932  17.676   7.009
   52AUC    AUC   31  17.932  17.979   7.009
   53AUC    AUC   32  18.178  17.524   7.897
   54AUC    AUC   33  18.178  17.827   7.897
   55AUC    AUC   34  18.178  17.524   7.103
   56AUC    AUC   35  18.178  17.827   7.103
   57AUC    AUC   36  17.687  17.524   7.897
   58AUC    AUC   37  17.687  17.827   7.897
   59AUC    AUC   38  17.687  17.524   7.103
   60AUC    AUC   39  17.687  17.827   7.103
   61AUC    AUC   40  18.329  17.921   7.348
   62AUC    AUC   41  18.329  17.921   7.651
   63AUC    AUC   42  17.535  17.921   7.348
   64AUC    AUC   43  17.535  17.921   7.651
   65AUC    AUC   44  18.329  17.430   7.348
   66AUC    AUC   45  18.329  17.430   7.651
   67AUC    AUC   46  17.535  17.430   7.348
   68AUC    AUC   47  17.535  17.430   7.651
   69AUC    AUC   48  17.781  18.073   7.745
   70AUC    AUC   49  18.084  18.073   7.745
   71AUC    AUC   50  17.781  17.278   7.745
   72AUC    AUC   51  18.084  17.278   7.745
   73AUC    AUC   52  17.781  18.073   7.254
   74AUC    AUC   53  18.084  18.073   7.254
   75AUC    AUC   54  17.781  17.278   7.254
   76AUC    AUC   55  18.084  17.278   7.254
   77AUSL   AUS   56  18.341  17.676   8.080
   78AUSL   AUS   57  18.197  17.259   8.011
   79AUL    AUL   58  18.423  17.372   8.294
   80THSLK    S   59  18.315  17.071   8.156
   81ETHY    C1   60  18.411  16.703   8.412
   82ETHY    C1   61  18.589  16.320   8.753
   83ETHY    C1   62  18.831  16.020   9.130
   84ETHY    C1   63  19.127  15.801   9.534
   85THSLK    S   64  18.440  17.629   8.327
   86ETHY    C1   65  18.667  17.479   8.694
   87ETHY    C1   66  18.951  17.391   9.148
   88ETHY    C1   67  19.235  17.413   9.607
   89ETHY    C1   68  19.512  17.535  10.061
   90AUSL   AUS   69  18.096  17.524   8.173
   91AUSL   AUS   70  17.769  17.827   8.173
   92AUL    AUL   71  17.932  17.676   8.482
   93THSLK    S   72  18.177  17.473   8.418
   94ETHY    C1   73  18.267  17.255   8.810
   95ETHY    C1   74  18.395  17.081   9.308
   96ETHY    C1   75  18.541  17.016   9.823
   97ETHY    C1   76  18.698  17.050  10.346
   98THSLK    S   77  17.682  17.787   8.432
   99ETHY    C1   78  17.593  17.713   8.874
  100ETHY    C1   79  17.469  17.715   9.403
  101ETHY    C1   80  17.324  17.824   9.912
  102ETHY    C1   81  17.161  18.028  10.392
  103AUSL   AUS   82  18.096  17.827   8.173
  104AUSL   AUS   83  18.442  17.940   7.916
  105AUL    AUL   84  18.423  17.979   8.294
  106THSLK    S   85  18.183  17.879   8.416
  107ETHY    C1   86  18.271  18.096   8.809
  108ETHY    C1   87  18.396  18.269   9.308
  109ETHY    C1   88  18.541  18.335   9.823
  110ETHY    C1   89  18.704  18.302  10.345
  111THSLK    S   90  18.618  18.046   8.079
  112ETHY    C1   91  18.980  18.096   8.355
  113ETHY    C1   92  19.387  18.245   8.681
  114ETHY    C1   93  19.749  18.494   8.995
  115ETHY    C1   94  20.061  18.830   9.293
  116AUSL   AUS   95  18.341  17.676   6.920
  117AUSL   AUS   96  18.197  18.092   6.990
  118AUL    AUL   97  18.423  17.979   6.706
  119THSLK    S   98  18.445  17.629   6.676
  120ETHY    C1   99  18.672  17.479   6.308
  121ETHY    C1  100  18.951  17.391   5.851
  122ETHY    C1  101  19.235  17.413   5.393
  123ETHY    C1  102  19.517  17.535   4.941
  124THSLK    S  103  18.374  18.211   6.820
  125ETHY    C1  104  18.646  18.352   6.480
  126ETHY    C1  105  18.924  18.599   6.085
  127ETHY    C1  106  19.140  18.932   5.720
  128ETHY    C1  107  19.297  19.339   5.391
  129AUSL   AUS  108  18.096  17.524   6.826
  130AUSL   AUS  109  18.442  17.411   7.083
  131AUL    AUL  110  18.423  17.372   6.706
  132THSLK    S  111  18.582  17.220   6.939
  133ETHY    C1  112  18.815  16.903   6.707
  134ETHY    C1  113  19.145  16.596   6.403
  135ETHY    C1  114  19.525  16.387   6.083
  136ETHY    C1  115  19.946  16.270   5.754
  137THSLK    S  116  18.183  17.472   6.583
  138ETHY    C1  117  18.271  17.255   6.191
  139ETHY    C1  118  18.396  17.082   5.692
  140ETHY    C1  119  18.541  17.016   5.176
  141ETHY    C1  120  18.704  17.049   4.656
  142AUSL   AUS  121  18.096  17.827   6.826
  143AUSL   AUS  122  17.769  17.524   6.826
  144AUL    AUL  123  17.932  17.676   6.518
  145THSLK    S  124  17.673  17.472   6.586
  146ETHY    C1  125  17.534  17.257   6.206
  147ETHY    C1  126  17.377  17.086   5.717
  148ETHY    C1  127  17.238  17.020   5.199
  149ETHY    C1  128  17.122  17.051   4.666
  150THSLK    S  129  18.198  17.788   6.572
  151ETHY    C1  130  18.335  17.711   6.142
  152ETHY    C1  131  18.488  17.711   5.622
  153ETHY    C1  132  18.626  17.820   5.112
  154ETHY    C1  133  18.749  18.027   4.621
  155AUSL   AUS  134  17.523  17.676   8.080
  156AUSL   AUS  135  17.668  18.092   8.011
  157AUL    AUL  136  17.441  17.979   8.294
  158THSLK    S  137  17.419  17.629   8.325
  159ETHY    C1  138  17.193  17.479   8.691
  160ETHY    C1  139  16.913  17.391   9.148
  161ETHY    C1  140  16.630  17.413   9.607
  162ETHY    C1  141  16.347  17.535  10.058
  163THSLK    S  142  17.545  18.225   8.201
  164ETHY    C1  143  17.449  18.420   8.604
  165ETHY    C1  144  17.276  18.701   9.034
  166ETHY    C1  145  17.033  19.027   9.390
  167ETHY    C1  146  16.732  19.386   9.671
  168AUSL   AUS  147  17.769  17.524   8.173
  169AUSL   AUS  148  17.422  17.411   7.916
  170AUL    AUL  149  17.441  17.372   8.294
  171THSLK    S  150  17.243  17.245   8.032
  172ETHY    C1  151  16.882  16.998   8.166
  173ETHY    C1  152  16.477  16.732   8.410
  174ETHY    C1  153  16.116  16.512   8.745
  175ETHY    C1  154  15.800  16.339   9.156
  176THSLK    S  155  17.667  17.474   8.413
  177ETHY    C1  156  17.529  17.259   8.793
  178ETHY    C1  157  17.376  17.086   9.284
  179ETHY    C1  158  17.239  17.020   9.800
  180ETHY    C1  159  17.115  17.052  10.332
  181AUSL   AUS  160  17.523  17.676   6.920
  182AUSL   AUS  161  17.668  17.259   6.990
  183AUL    AUL  162  17.441  17.372   6.706
  184THSLK    S  163  17.424  17.629   6.673
  185ETHY    C1  164  17.197  17.479   6.305
  186ETHY    C1  165  16.914  17.391   5.851
  187ETHY    C1  166  16.630  17.413   5.393
  188ETHY    C1  167  16.353  17.535   4.938
  189THSLK    S  168  17.494  17.084   6.865
  190ETHY    C1  169  17.222  16.771   6.673
  191ETHY    C1  170  16.941  16.423   6.367
  192ETHY    C1  171  16.724  16.115   5.980
  193ETHY    C1  172  16.572  15.848   5.528
  194AUSL   AUS  173  17.769  17.827   6.826
  195AUSL   AUS  174  17.422  17.940   7.083
  196AUL    AUL  175  17.441  17.979   6.706
  197THSLK    S  176  17.286  18.071   6.893
  198ETHY    C1  177  17.052  18.192   6.518
  199ETHY    C1  178  16.720  18.380   6.132
  200ETHY    C1  179  16.340  18.619   5.833
  201ETHY    C1  180  15.923  18.899   5.618
  202THSLK    S  181  17.688  17.789   6.566
  203ETHY    C1  182  17.598  17.714   6.124
  204ETHY    C1  183  17.470  17.715   5.597
  205ETHY    C1  184  17.324  17.824   5.089
  206ETHY    C1  185  17.167  18.030   4.608
  207AUSL   AUS  186  18.512  18.085   7.500
  208AUSL   AUS  187  18.442  17.940   7.083
  209AUL    AUL  188  18.726  18.166   7.196
  210THSLK    S  189  18.622  18.047   6.925
  211ETHY    C1  190  18.983  18.097   6.648
  212ETHY    C1  191  19.387  18.245   6.319
  213ETHY    C1  192  19.749  18.494   6.005
  214ETHY    C1  193  20.065  18.831   5.713
  215THSLK    S  194  18.782  18.146   7.503
  216ETHY    C1  195  19.229  18.246   7.502
  217ETHY    C1  196  19.731  18.452   7.500
  218ETHY    C1  197  20.178  18.754   7.500
  219ETHY    C1  198  20.566  19.138   7.503
  220AUSL   AUS  199  18.606  17.839   7.348
  221AUSL   AUS  200  18.606  17.512   7.651
  222AUL    AUL  201  18.914  17.676   7.500
  223THSLK    S  202  18.868  17.886   7.345
  224ETHY    C1  203  19.318  17.855   7.270
  225ETHY    C1  204  19.850  17.910   7.179
  226ETHY    C1  205  20.357  18.073   7.091
  227ETHY    C1  206  20.832  18.331   7.011
  228THSLK    S  207  18.843  17.375   7.659
  229ETHY    C1  208  19.214  17.117   7.726
  230ETHY    C1  209  19.700  16.891   7.808
  231ETHY    C1  210  20.219  16.771   7.896
  232ETHY    C1  211  20.757  16.749   7.989
  233AUSL   AUS  212  18.606  17.839   7.651
  234AUSL   AUS  213  18.349  18.186   7.764
  235AUL    AUL  214  18.726  18.166   7.803
  236THSLK    S  215  18.534  18.310   7.924
  237ETHY    C1  216  18.891  18.502   8.136
  238ETHY    C1  217  19.268  18.809   8.377
  239ETHY    C1  218  19.569  19.196   8.602
  240ETHY    C1  219  19.796  19.647   8.809
  241THSLK    S  220  18.867  17.885   7.661
  242ETHY    C1  221  19.318  17.855   7.734
  243ETHY    C1  222  19.851  17.910   7.821
  244ETHY    C1  223  20.357  18.073   7.908
  245ETHY    C1  224  20.831  18.331   7.995
  246AUSL   AUS  225  17.352  18.085   7.500
  247AUSL   AUS  226  17.422  17.940   7.916
  248AUL    AUL  227  17.138  18.166   7.803
  249THSLK    S  228  17.282  18.066   8.107
  250ETHY    C1  229  17.049  18.187   8.482
  251ETHY    C1  230  16.720  18.380   8.868
  252ETHY    C1  231  16.340  18.619   9.166
  253ETHY    C1  232  15.919  18.894   9.381
  254THSLK    S  233  17.131  18.225   7.503
  255ETHY    C1  234  16.842  18.580   7.502
  256ETHY    C1  235  16.434  18.937   7.500
  257ETHY    C1  236  15.964  19.201   7.500
  258ETHY    C1  237  15.446  19.377   7.503
  259AUSL   AUS  238  17.259  17.839   7.348
  260AUSL   AUS  239  17.516  18.186   7.236
  261AUL    AUL  240  17.138  18.166   7.196
  262THSLK    S  241  17.022  17.953   7.303
  263ETHY    C1  242  16.650  18.127   7.101
  264ETHY    C1  243  16.164  18.303   6.936
  265ETHY    C1  244  15.646  18.435   6.868
  266ETHY    C1  245  15.108  18.527   6.890
  267THSLK    S  246  17.396  18.353   7.056
  268ETHY    C1  247  17.244  18.672   6.765
  269ETHY    C1  248  16.990  19.052   6.473
  270ETHY    C1  249  16.657  19.420   6.260
  271ETHY    C1  250  16.261  19.770   6.122
  272AUSL   AUS  251  17.259  17.839   7.651
  273AUSL   AUS  252  17.259  17.512   7.348
  274AUL    AUL  253  16.951  17.676   7.500
  275THSLK    S  254  16.997  17.437   7.384
  276ETHY    C1  255  16.547  17.386   7.446
  277ETHY    C1  256  16.014  17.283   7.434
  278ETHY    C1  257  15.507  17.133   7.327
  279ETHY    C1  258  15.034  16.940   7.135
  280THSLK    S  259  17.021  17.947   7.699
  281ETHY    C1  260  16.650  18.123   7.901
  282ETHY    C1  261  16.164  18.302   8.063
  283ETHY    C1  262  15.646  18.435   8.133
  284ETHY    C1  263  15.107  18.521   8.114
  285AUSL   AUS  264  18.512  17.266   7.500
  286AUSL   AUS  265  18.442  17.411   7.916
  287AUL    AUL  266  18.726  17.185   7.803
  288THSLK    S  267  18.733  17.126   7.503
  289ETHY    C1  268  19.022  16.771   7.502
  290ETHY    C1  269  19.431  16.414   7.500
  291ETHY    C1  270  19.901  16.150   7.500
  292ETHY    C1  271  20.418  15.974   7.503
  293THSLK    S  272  18.579  17.221   8.066
  294ETHY    C1  273  18.812  16.904   8.297
  295ETHY    C1  274  19.145  16.597   8.598
  296ETHY    C1  275  19.525  16.387   8.918
  297ETHY    C1  276  19.942  16.271   9.250
  298AUSL   AUS  277  18.606  17.512   7.348
  299AUSL   AUS  278  18.349  17.165   7.236
  300AUL    AUL  279  18.726  17.185   7.196
  301THSLK    S  280  18.844  17.375   7.346
  302ETHY    C1  281  19.215  17.117   7.279
  303ETHY    C1  282  19.700  16.891   7.192
  304ETHY    C1  283  20.219  16.771   7.103
  305ETHY    C1  284  20.758  16.749   7.018
  306THSLK    S  285  18.472  16.974   7.099
  307ETHY    C1  286  18.622  16.572   6.942
  308ETHY    C1  287  18.875  16.142   6.728
  309ETHY    C1  288  19.207  15.786   6.495
  310ETHY    C1  289  19.606  15.505   6.249
  311AUSL   AUS  290  17.352  17.266   7.500
  312AUSL   AUS  291  17.422  17.411   7.083
  313AUL    AUL  292  17.138  17.185   7.196
  314THSLK    S  293  17.247  17.240   6.966
  315ETHY    C1  294  16.885  16.994   6.833
  316ETHY    C1  295  16.477  16.731   6.589
  317ETHY    C1  296  16.116  16.512   6.255
  318ETHY    C1  297  15.804  16.334   5.843
  319THSLK    S  298  17.082  17.205   7.503
  320ETHY    C1  299  16.636  17.105   7.502
  321ETHY    C1  300  16.134  16.899   7.500
  322ETHY    C1  301  15.687  16.597   7.500
  323ETHY    C1  302  15.299  16.213   7.503
  324AUSL   AUS  303  17.259  17.512   7.651
  325AUSL   AUS  304  17.516  17.165   7.764
  326AUL    AUL  305  17.138  17.185   7.803
  327THSLK    S  306  17.328  17.017   7.881
  328ETHY    C1  307  16.972  16.741   7.958
  329ETHY    C1  308  16.597  16.384   8.122
  330ETHY    C1  309  16.296  16.010   8.367
  331ETHY    C1  310  16.065  15.628   8.682
  332THSLK    S  311  16.996  17.442   7.618
  333ETHY    C1  312  16.546  17.390   7.557
  334ETHY    C1  313  16.014  17.284   7.566
  335ETHY    C1  314  15.507  17.133   7.673
  336ETHY    C1  315  15.033  16.945   7.867
  337AUSL   AUS  316  17.932  18.256   7.909
  338AUSL   AUS  317  17.516  18.186   7.764
  339AUL    AUL  318  17.629  18.470   7.991
  340THSLK    S  319  17.393  18.348   7.948
  341ETHY    C1  320  17.242  18.668   8.237
  342ETHY    C1  321  16.989  19.051   8.527
  343ETHY    C1  322  16.657  19.419   8.740
  344ETHY    C1  323  16.258  19.765   8.881
  345THSLK    S  324  17.970  18.487   8.034
  346ETHY    C1  325  18.098  18.813   8.327
  347ETHY    C1  326  18.175  19.245   8.646
  348ETHY    C1  327  18.156  19.710   8.920
  349ETHY    C1  328  18.050  20.195   9.147
  350AUSL   AUS  329  17.781  18.349   7.663
  351AUSL   AUS  330  18.084  18.349   7.336
  352AUL    AUL  331  17.932  18.657   7.500
  353THSLK    S  332  17.818  18.601   7.772
  354ETHY    C1  333  17.891  19.025   7.929
  355ETHY    C1  334  17.888  19.541   8.095
  356ETHY    C1  335  17.780  20.052   8.229
  357ETHY    C1  336  17.576  20.548   8.336
  358THSLK    S  337  18.135  18.589   7.237
  359ETHY    C1  338  18.348  18.966   7.091
  360ETHY    C1  339  18.518  19.455   6.929
  361ETHY    C1  340  18.585  19.973   6.792
  362ETHY    C1  341  18.556  20.507   6.682
  363AUSL   AUS  342  18.084  18.349   7.663
  364AUSL   AUS  343  18.197  18.092   8.011
  365AUL    AUL  344  18.236  18.470   7.991
  366THSLK    S  345  18.370  18.209   8.184
  367ETHY    C1  346  18.643  18.350   8.522
  368ETHY    C1  347  18.924  18.599   8.915
  369ETHY    C1  348  19.140  18.932   9.279
  370ETHY    C1  349  19.292  19.337   9.614
  371THSLK    S  350  18.134  18.587   7.768
  372ETHY    C1  351  18.347  18.966   7.913
  373ETHY    C1  352  18.518  19.455   8.072
  374ETHY    C1  353  18.585  19.973   8.207
  375ETHY    C1  354  18.554  20.506   8.325
  376AUSL   AUS  355  17.932  17.095   7.909
  377AUSL   AUS  356  18.349  17.165   7.764
  378AUL    AUL  357  18.236  16.881   7.991
  379THSLK    S  358  17.891  16.838   7.992
  380ETHY    C1  359  17.764  16.429   8.152
  381ETHY    C1  360  17.690  15.948   8.391
  382ETHY    C1  361  17.709  15.496   8.684
  383ETHY    C1  362  17.811  15.078   9.021
  384THSLK    S  363  18.469  16.975   7.907
  385ETHY    C1  364  18.620  16.573   8.062
  386ETHY    C1  365  18.875  16.142   8.272
  387ETHY    C1  366  19.207  15.786   8.505
  388ETHY    C1  367  19.603  15.507   8.758
  389AUSL   AUS  368  17.781  17.002   7.663
  390AUSL   AUS  369  17.668  17.259   8.011
  391AUL    AUL  370  17.629  16.881   7.991
  392THSLK    S  371  17.730  16.757   7.744
  393ETHY    C1  372  17.517  16.358   7.812
  394ETHY    C1  373  17.346  15.855   7.925
  395ETHY    C1  374  17.280  15.341   8.072
  396ETHY    C1  375  17.309  14.826   8.252
  397THSLK    S  376  17.490  17.089   8.136
  398ETHY    C1  377  17.218  16.774   8.327
  399ETHY    C1  378  16.940  16.423   8.633
  400ETHY    C1  379  16.724  16.115   9.019
  401ETHY    C1  380  16.568  15.853   9.473
  402AUSL   AUS  381  18.084  17.002   7.663
  403AUSL   AUS  382  17.781  17.002   7.336
  404AUL    AUL  383  17.932  16.694   7.500
  405THSLK    S  384  17.731  16.755   7.261
  406ETHY    C1  385  17.518  16.357   7.192
  407ETHY    C1  386  17.346  15.855   7.076
  408ETHY    C1  387  17.280  15.341   6.927
  409ETHY    C1  388  17.311  14.824   6.754
  410THSLK    S  389  18.045  16.743   7.748
  411ETHY    C1  390  17.973  16.298   7.829
  412ETHY    C1  391  17.976  15.769   7.948
  413ETHY    C1  392  18.085  15.261   8.095
  414ETHY    C1  393  18.287  14.783   8.264
  415AUSL   AUS  394  17.932  18.256   7.091
  416AUSL   AUS  395  18.349  18.186   7.236
  417AUL    AUL  396  18.236  18.470   7.009
  418THSLK    S  397  17.974  18.490   6.971
  419ETHY    C1  398  18.101  18.815   6.676
  420ETHY    C1  399  18.175  19.245   6.353
  421ETHY    C1  400  18.156  19.710   6.080
  422ETHY    C1  401  18.053  20.198   5.857
  423THSLK    S  402  18.536  18.311   7.081
  424ETHY    C1  403  18.893  18.503   6.869
  425ETHY    C1  404  19.268  18.809   6.623
  426ETHY    C1  405  19.569  19.196   6.398
  427ETHY    C1  406  19.799  19.648   6.197
  428AUSL   AUS  407  17.781  18.349   7.336
  429AUSL   AUS  408  17.668  18.092   6.990
  430AUL    AUL  409  17.629  18.470   7.009
  431THSLK    S  410  17.820  18.603   7.233
  432ETHY    C1  411  17.892  19.026   7.074
  433ETHY    C1  412  17.889  19.542   6.906
  434ETHY    C1  413  17.780  20.052   6.770
  435ETHY    C1  414  17.578  20.550   6.670
  436THSLK    S  415  17.549  18.229   6.800
  437ETHY    C1  416  17.453  18.423   6.396
  438ETHY    C1  417  17.276  18.701   5.966
  439ETHY    C1  418  17.033  19.026   5.611
  440ETHY    C1  419  16.737  19.391   5.330
  441AUSL   AUS  420  17.932  17.095   7.091
  442AUSL   AUS  421  17.516  17.165   7.236
  443AUL    AUL  422  17.629  16.881   7.009
  444THSLK    S  423  17.331  17.012   7.122
  445ETHY    C1  424  16.974  16.738   7.044
  446ETHY    C1  425  16.597  16.384   6.878
  447ETHY    C1  426  16.295  16.010   6.633
  448ETHY    C1  427  16.068  15.623   6.321
  449THSLK    S  428  17.894  16.835   7.013
  450ETHY    C1  429  17.766  16.427   6.852
  451ETHY    C1  430  17.690  15.948   6.609
  452ETHY    C1  431  17.709  15.496   6.315
  453ETHY    C1  432  17.815  15.075   5.983
  454AUSL   AUS  433  18.084  17.002   7.336
  455AUSL   AUS  434  18.197  17.259   6.990
  456AUL    AUL  435  18.236  16.881   7.009
  457THSLK    S  436  18.047  16.742   7.258
  458ETHY    C1  437  17.974  16.297   7.175
  459ETHY    C1  438  17.976  15.769   7.052
  460ETHY    C1  439  18.084  15.261   6.905
  461ETHY    C1  440  18.289  14.782   6.742
  462THSLK    S  441  18.320  17.069   6.847
  463ETHY    C1  442  18.415  16.701   6.592
  464ETHY    C1  443  18.589  16.320   6.247
  465ETHY    C1  444  18.831  16.020   5.870
  466ETHY    C1  445  19.132  15.799   5.471
  467AUC    AUC  446   6.332   3.920   7.500
  468AUC    AUC  447   6.578   3.920   7.348
  469AUC    AUC  448   6.578   3.920   7.651
  470AUC    AUC  449   6.087   3.920   7.348
  471AUC    AUC  450   6.087   3.920   7.651
  472AUC    AUC  451   6.181   4.165   7.500
  473AUC    AUC  452   6.484   4.165   7.500
  474AUC    AUC  453   6.181   3.674   7.500
  475AUC    AUC  454   6.484   3.674   7.500
  476AUC    AUC  455   6.332   3.768   7.745
  477AUC    AUC  456   6.332   4.071   7.745
  478AUC    AUC  457   6.332   3.768   7.254
  479AUC    AUC  458   6.332   4.071   7.254
  480AUC    AUC  459   6.823   3.920   7.196
  481AUC    AUC  460   6.823   3.920   7.500
  482AUC    AUC  461   6.823   3.920   7.803
  483AUC    AUC  462   5.841   3.920   7.196
  484AUC    AUC  463   5.841   3.920   7.500
  485AUC    AUC  464   5.841   3.920   7.803
  486AUC    AUC  465   6.029   4.410   7.500
  487AUC    AUC  466   6.332   4.410   7.500
  488AUC    AUC  467   6.636   4.410   7.500
  489AUC    AUC  468   6.029   3.429   7.500
  490AUC    AUC  469   6.332   3.429   7.500
  491AUC    AUC  470   6.636   3.429   7.500
  492AUC    AUC  471   6.332   3.616   7.991
  493AUC    AUC  472   6.332   3.920   7.991
  494AUC    AUC  473   6.332   4.223   7.991
  495AUC    AUC  474   6.332   3.616   7.009
  496AUC    AUC  475   6.332   3.920   7.009
  497AUC    AUC  476   6.332   4.223   7.009
  498AUC    AUC  477   6.578   3.768   7.897
  499AUC    AUC  478   6.578   4.071   7.897
  500AUC    AUC  479   6.578   3.768   7.103
  501AUC    AUC  480   6.578   4.071   7.103
  502AUC    AUC  481   6.087   3.768   7.897
  503AUC    AUC  482   6.087   4.071   7.897
  504AUC    AUC  483   6.087   3.768   7.103
  505AUC    AUC  484   6.087   4.071   7.103
  506AUC    AUC  485   6.729   4.165   7.348
  507AUC    AUC  486   6.729   4.165   7.651
  508AUC    AUC  487   5.935   4.165   7.348
  509AUC    AUC  488   5.935   4.165   7.651
  510AUC    AUC  489   6.729   3.674   7.348
  511AUC    AUC  490   6.729   3.674   7.651
  512AUC    AUC  491   5.935   3.674   7.348
  513AUC    AUC  492   5.935   3.674   7.651
  514AUC    AUC  493   6.181   4.317   7.745
  515AUC    AUC  494   6.484   4.317   7.745
  516AUC    AUC  495   6.181   3.522   7.745
  517AUC    AUC  496   6.484   3.522   7.745
  518AUC    AUC  497   6.181   4.317   7.254
  519AUC    AUC  498   6.484   4.317   7.254
  520AUC    AUC  499   6.181   3.522   7.254
  521AUC    AUC  500   6.484   3.522   7.254
  522AUSL   AUS  501   6.741   3.920   8.080
  523AUSL   AUS  502   6.597   3.503   8.011
  524AUL    AUL  503   6.823   3.616   8.294
  525THSLK    S  504   6.715   3.315   8.156
  526ETHY    C1  505   6.811   2.947   8.412
  527ETHY    C1  506   6.989   2.564   8.753
  528ETHY    C1  507   7.231   2.264   9.130
  529ETHY    C1  508   7.527   2.045   9.534
  530THSLK    S  509   6.840   3.873   8.327
  531ETHY    C1  510   7.067   3.723   8.694
  532ETHY    C1  511   7.351   3.635   9.148
  533ETHY    C1  512   7.635   3.657   9.607
  534ETHY    C1  513   7.912   3.779  10.061
  535AUSL   AUS  514   6.496   3.768   8.173
  536AUSL   AUS  515   6.169   4.071   8.173
  537AUL    AUL  516   6.332   3.920   8.482
  538THSLK    S  517   6.577   3.717   8.418
  539ETHY    C1  518   6.667   3.499   8.810
  540ETHY    C1  519   6.795   3.325   9.308
  541ETHY    C1  520   6.941   3.260   9.823
  542ETHY    C1  521   7.098   3.294  10.346
  543THSLK    S  522   6.082   4.031   8.432
  544ETHY    C1  523   5.993   3.957   8.874
  545ETHY    C1  524   5.869   3.959   9.403
  546ETHY    C1  525   5.724   4.068   9.912
  547ETHY    C1  526   5.561   4.272  10.392
  548AUSL   AUS  527   6.496   4.071   8.173
  549AUSL   AUS  528   6.842   4.184   7.916
  550AUL    AUL  529   6.823   4.223   8.294
  551THSLK    S  530   6.583   4.123   8.416
  552ETHY    C1  531   6.671   4.340   8.809
  553ETHY    C1  532   6.796   4.513   9.308
  554ETHY    C1  533   6.941   4.579   9.823
  555ETHY    C1  534   7.104   4.546  10.345
  556THSLK    S  535   7.018   4.290   8.079
  557ETHY    C1  536   7.380   4.340   8.355
  558ETHY    C1  537   7.787   4.489   8.681
  559ETHY    C1  538   8.149   4.738   8.995
  560ETHY    C1  539   8.461   5.074   9.293
  561AUSL   AUS  540   6.741   3.920   6.920
  562AUSL   AUS  541   6.597   4.336   6.990
  563AUL    AUL  542   6.823   4.223   6.706
  564THSLK    S  543   6.845   3.873   6.676
  565ETHY    C1  544   7.072   3.723   6.308
  566ETHY    C1  545   7.351   3.635   5.851
  567ETHY    C1  546   7.635   3.657   5.393
  568ETHY    C1  547   7.917   3.779   4.941
  569THSLK    S  548   6.774   4.455   6.820
  570ETHY    C1  549   7.046   4.596   6.480
  571ETHY    C1  550   7.324   4.843   6.085
  572ETHY    C1  551   7.540   5.176   5.720
  573ETHY    C1  552   7.697   5.583   5.391
  574AUSL   AUS  553   6.496   3.768   6.826
  575AUSL   AUS  554   6.842   3.655   7.083
  576AUL    AUL  555   6.823   3.616   6.706
  577THSLK    S  556   6.982   3.464   6.939
  578ETHY    C1  557   7.215   3.147   6.707
  579ETHY    C1  558   7.545   2.840   6.403
  580ETHY    C1  559   7.925   2.631   6.083
  581ETHY    C1  560   8.346   2.514   5.754
  582THSLK    S  561   6.583   3.716   6.583
  583ETHY    C1  562   6.671   3.499   6.191
  584ETHY    C1  563   6.796   3.326   5.692
  585ETHY    C1  564   6.941   3.260   5.176
  586ETHY    C1  565   7.104   3.293   4.656
  587AUSL   AUS  566   6.496   4.071   6.826
  588AUSL   AUS  567   6.169   3.768   6.826
  589AUL    AUL  568   6.332   3.920   6.518
  590THSLK    S  569   6.073   3.716   6.586
  591ETHY    C1  570   5.934   3.501   6.206
  592ETHY    C1  571   5.777   3.330   5.717
  593ETHY    C1  572   5.638   3.264   5.199
  594ETHY    C1  573   5.522   3.295   4.666
  595THSLK    S  574   6.598   4.032   6.572
  596ETHY    C1  575   6.735   3.955   6.142
  597ETHY    C1  576   6.888   3.955   5.622
  598ETHY    C1  577   7.026   4.064   5.112
  599ETHY    C1  578   7.149   4.271   4.621
  600AUSL   AUS  579   5.923   3.920   8.080
  601AUSL   AUS  580   6.068   4.336   8.011
  602AUL    AUL  581   5.841   4.223   8.294
  603THSLK    S  582   5.819   3.873   8.325
  604ETHY    C1  583   5.593   3.723   8.691
  605ETHY    C1  584   5.313   3.635   9.148
  606ETHY    C1  585   5.030   3.657   9.607
  607ETHY    C1  586   4.747   3.779  10.058
  608THSLK    S  587   5.945   4.469   8.201
  609ETHY    C1  588   5.849   4.664   8.604
  610ETHY    C1  589   5.676   4.945   9.034
  611ETHY    C1  590   5.433   5.271   9.390
  612ETHY    C1  591   5.132   5.630   9.671
  613AUSL   AUS  592   6.169   3.768   8.173
  614AUSL   AUS  593   5.822   3.655   7.916
  615AUL    AUL  594   5.841   3.616   8.294
  616THSLK    S  595   5.643   3.489   8.032
  617ETHY    C1  596   5.282   3.242   8.166
  618ETHY    C1  597   4.877   2.976   8.410
  619ETHY    C1  598   4.516   2.756   8.745
  620ETHY    C1  599   4.200   2.583   9.156
  621THSLK    S  600   6.067   3.718   8.413
  622ETHY    C1  601   5.929   3.503   8.793
  623ETHY    C1  602   5.776   3.330   9.284
  624ETHY    C1  603   5.639   3.264   9.800
  625ETHY    C1  604   5.515   3.296  10.332
  626AUSL   AUS  605   5.923   3.920   6.920
  627AUSL   AUS  606   6.068   3.503   6.990
  628AUL    AUL  607   5.841   3.616   6.706
  629THSLK    S  608   5.824   3.873   6.673
  630ETHY    C1  609   5.597   3.723   6.305
  631ETHY    C1  610   5.314   3.635   5.851
  632ETHY    C1  611   5.030   3.657   5.393
  633ETHY    C1  612   4.753   3.779   4.938
  634THSLK    S  613   5.894   3.328   6.865
  635ETHY    C1  614   5.622   3.015   6.673
  636ETHY    C1  615   5.341   2.667   6.367
  637ETHY    C1  616   5.124   2.359   5.980
  638ETHY    C1  617   4.972   2.092   5.528
  639AUSL   AUS  618   6.169   4.071   6.826
  640AUSL   AUS  619   5.822   4.184   7.083
  641AUL    AUL  620   5.841   4.223   6.706
  642THSLK    S  621   5.686   4.315   6.893
  643ETHY    C1  622   5.452   4.436   6.518
  644ETHY    C1  623   5.120   4.624   6.132
  645ETHY    C1  624   4.740   4.863   5.833
  646ETHY    C1  625   4.323   5.143   5.618
  647THSLK    S  626   6.088   4.033   6.566
  648ETHY    C1  627   5.998   3.958   6.124
  649ETHY    C1  628   5.870   3.959   5.597
  650ETHY    C1  629   5.724   4.068   5.089
  651ETHY    C1  630   5.567   4.274   4.608
  652AUSL   AUS  631   6.912   4.329   7.500
  653AUSL   AUS  632   6.842   4.184   7.083
  654AUL    AUL  633   7.126   4.410   7.196
  655THSLK    S  634   7.022   4.291   6.925
  656ETHY    C1  635   7.383   4.341   6.648
  657ETHY    C1  636   7.787   4.489   6.319
  658ETHY    C1  637   8.149   4.738   6.005
  659ETHY    C1  638   8.465   5.075   5.713
  660THSLK    S  639   7.182   4.390   7.503
  661ETHY    C1  640   7.629   4.490   7.502
  662ETHY    C1  641   8.131   4.696   7.500
  663ETHY    C1  642   8.578   4.998   7.500
  664ETHY    C1  643   8.966   5.382   7.503
  665AUSL   AUS  644   7.006   4.083   7.348
  666AUSL   AUS  645   7.006   3.756   7.651
  667AUL    AUL  646   7.314   3.920   7.500
  668THSLK    S  647   7.268   4.130   7.345
  669ETHY    C1  648   7.718   4.099   7.270
  670ETHY    C1  649   8.250   4.154   7.179
  671ETHY    C1  650   8.757   4.317   7.091
  672ETHY    C1  651   9.232   4.575   7.011
  673THSLK    S  652   7.243   3.619   7.659
  674ETHY    C1  653   7.614   3.361   7.726
  675ETHY    C1  654   8.100   3.135   7.808
  676ETHY    C1  655   8.619   3.015   7.896
  677ETHY    C1  656   9.157   2.993   7.989
  678AUSL   AUS  657   7.006   4.083   7.651
  679AUSL   AUS  658   6.749   4.430   7.764
  680AUL    AUL  659   7.126   4.410   7.803
  681THSLK    S  660   6.934   4.554   7.924
  682ETHY    C1  661   7.291   4.746   8.136
  683ETHY    C1  662   7.668   5.053   8.377
  684ETHY    C1  663   7.969   5.440   8.602
  685ETHY    C1  664   8.196   5.891   8.809
  686THSLK    S  665   7.267   4.129   7.661
  687ETHY    C1  666   7.718   4.099   7.734
  688ETHY    C1  667   8.251   4.154   7.821
  689ETHY    C1  668   8.757   4.317   7.908
  690ETHY    C1  669   9.231   4.575   7.995
  691AUSL   AUS  670   5.752   4.329   7.500
  692AUSL   AUS  671   5.822   4.184   7.916
  693AUL    AUL  672   5.538   4.410   7.803
  694THSLK    S  673   5.682   4.310   8.107
  695ETHY    C1  674   5.449   4.431   8.482
  696ETHY    C1  675   5.120   4.624   8.868
  697ETHY    C1  676   4.740   4.863   9.166
  698ETHY    C1  677   4.319   5.138   9.381
  699THSLK    S  678   5.531   4.469   7.503
  700ETHY    C1  679   5.242   4.824   7.502
  701ETHY    C1  680   4.834   5.181   7.500
  702ETHY    C1  681   4.364   5.445   7.500
  703ETHY    C1  682   3.846   5.621   7.503
  704AUSL   AUS  683   5.659   4.083   7.348
  705AUSL   AUS  684   5.916   4.430   7.236
  706AUL    AUL  685   5.538   4.410   7.196
  707THSLK    S  686   5.422   4.197   7.303
  708ETHY    C1  687   5.050   4.371   7.101
  709ETHY    C1  688   4.564   4.547   6.936
  710ETHY    C1  689   4.046   4.679   6.868
  711ETHY    C1  690   3.508   4.771   6.890
  712THSLK    S  691   5.796   4.597   7.056
  713ETHY    C1  692   5.644   4.916   6.765
  714ETHY    C1  693   5.390   5.296   6.473
  715ETHY    C1  694   5.057   5.664   6.260
  716ETHY    C1  695   4.661   6.014   6.122
  717AUSL   AUS  696   5.659   4.083   7.651
  718AUSL   AUS  697   5.659   3.756   7.348
  719AUL    AUL  698   5.351   3.920   7.500
  720THSLK    S  699   5.397   3.681   7.384
  721ETHY    C1  700   4.947   3.630   7.446
  722ETHY    C1  701   4.414   3.527   7.434
  723ETHY    C1  702   3.907   3.377   7.327
  724ETHY    C1  703   3.434   3.184   7.135
  725THSLK    S  704   5.421   4.191   7.699
  726ETHY    C1  705   5.050   4.367   7.901
  727ETHY    C1  706   4.564   4.546   8.063
  728ETHY    C1  707   4.046   4.679   8.133
  729ETHY    C1  708   3.507   4.765   8.114
  730AUSL   AUS  709   6.912   3.510   7.500
  731AUSL   AUS  710   6.842   3.655   7.916
  732AUL    AUL  711   7.126   3.429   7.803
  733THSLK    S  712   7.133   3.370   7.503
  734ETHY    C1  713   7.422   3.015   7.502
  735ETHY    C1  714   7.831   2.658   7.500
  736ETHY    C1  715   8.301   2.394   7.500
  737ETHY    C1  716   8.818   2.218   7.503
  738THSLK    S  717   6.979   3.465   8.066
  739ETHY    C1  718   7.212   3.148   8.297
  740ETHY    C1  719   7.545   2.841   8.598
  741ETHY    C1  720   7.925   2.631   8.918
  742ETHY    C1  721   8.342   2.515   9.250
  743AUSL   AUS  722   7.006   3.756   7.348
  744AUSL   AUS  723   6.749   3.409   7.236
  745AUL    AUL  724   7.126   3.429   7.196
  746THSLK    S  725   7.244   3.619   7.346
  747ETHY    C1  726   7.615   3.361   7.279
  748ETHY    C1  727   8.100   3.135   7.192
  749ETHY    C1  728   8.619   3.015   7.103
  750ETHY    C1  729   9.158   2.993   7.018
  751THSLK    S  730   6.872   3.218   7.099
  752ETHY    C1  731   7.022   2.816   6.942
  753ETHY    C1  732   7.275   2.386   6.728
  754ETHY    C1  733   7.607   2.030   6.495
  755ETHY    C1  734   8.006   1.749   6.249
  756AUSL   AUS  735   5.752   3.510   7.500
  757AUSL   AUS  736   5.822   3.655   7.083
  758AUL    AUL  737   5.538   3.429   7.196
  759THSLK    S  738   5.647   3.484   6.966
  760ETHY    C1  739   5.285   3.238   6.833
  761ETHY    C1  740   4.877   2.975   6.589
  762ETHY    C1  741   4.516   2.756   6.255
  763ETHY    C1  742   4.204   2.578   5.843
  764THSLK    S  743   5.482   3.449   7.503
  765ETHY    C1  744   5.036   3.349   7.502
  766ETHY    C1  745   4.534   3.143   7.500
  767ETHY    C1  746   4.087   2.841   7.500
  768ETHY    C1  747   3.699   2.457   7.503
  769AUSL   AUS  748   5.659   3.756   7.651
  770AUSL   AUS  749   5.916   3.409   7.764
  771AUL    AUL  750   5.538   3.429   7.803
  772THSLK    S  751   5.728   3.261   7.881
  773ETHY    C1  752   5.372   2.985   7.958
  774ETHY    C1  753   4.997   2.628   8.122
  775ETHY    C1  754   4.696   2.254   8.367
  776ETHY    C1  755   4.465   1.872   8.682
  777THSLK    S  756   5.396   3.686   7.618
  778ETHY    C1  757   4.946   3.634   7.557
  779ETHY    C1  758   4.414   3.528   7.566
  780ETHY    C1  759   3.907   3.377   7.673
  781ETHY    C1  760   3.433   3.189   7.867
  782AUSL   AUS  761   6.332   4.500   7.909
  783AUSL   AUS  762   5.916   4.430   7.764
  784AUL    AUL  763   6.029   4.714   7.991
  785THSLK    S  764   5.793   4.592   7.948
  786ETHY    C1  765   5.642   4.912   8.237
  787ETHY    C1  766   5.389   5.295   8.527
  788ETHY    C1  767   5.057   5.663   8.740
  789ETHY    C1  768   4.658   6.009   8.881
  790THSLK    S  769   6.370   4.731   8.034
  791ETHY    C1  770   6.498   5.057   8.327
  792ETHY    C1  771   6.575   5.489   8.646
  793ETHY    C1  772   6.556   5.954   8.920
  794ETHY    C1  773   6.450   6.439   9.147
  795AUSL   AUS  774   6.181   4.593   7.663
  796AUSL   AUS  775   6.484   4.593   7.336
  797AUL    AUL  776   6.332   4.901   7.500
  798THSLK    S  777   6.218   4.845   7.772
  799ETHY    C1  778   6.291   5.269   7.929
  800ETHY    C1  779   6.288   5.785   8.095
  801ETHY    C1  780   6.180   6.296   8.229
  802ETHY    C1  781   5.976   6.792   8.336
  803THSLK    S  782   6.535   4.833   7.237
  804ETHY    C1  783   6.748   5.210   7.091
  805ETHY    C1  784   6.918   5.699   6.929
  806ETHY    C1  785   6.985   6.217   6.792
  807ETHY    C1  786   6.956   6.751   6.682
  808AUSL   AUS  787   6.484   4.593   7.663
  809AUSL   AUS  788   6.597   4.336   8.011
  810AUL    AUL  789   6.636   4.714   7.991
  811THSLK    S  790   6.770   4.453   8.184
  812ETHY    C1  791   7.043   4.594   8.522
  813ETHY    C1  792   7.324   4.843   8.915
  814ETHY    C1  793   7.540   5.176   9.279
  815ETHY    C1  794   7.692   5.581   9.614
  816THSLK    S  795   6.534   4.831   7.768
  817ETHY    C1  796   6.747   5.210   7.913
  818ETHY    C1  797   6.918   5.699   8.072
  819ETHY    C1  798   6.985   6.217   8.207
  820ETHY    C1  799   6.954   6.750   8.325
  821AUSL   AUS  800   6.332   3.339   7.909
  822AUSL   AUS  801   6.749   3.409   7.764
  823AUL    AUL  802   6.636   3.125   7.991
  824THSLK    S  803   6.291   3.082   7.992
  825ETHY    C1  804   6.164   2.673   8.152
  826ETHY    C1  805   6.090   2.192   8.391
  827ETHY    C1  806   6.109   1.740   8.684
  828ETHY    C1  807   6.211   1.322   9.021
  829THSLK    S  808   6.869   3.219   7.907
  830ETHY    C1  809   7.020   2.817   8.062
  831ETHY    C1  810   7.275   2.386   8.272
  832ETHY    C1  811   7.607   2.030   8.505
  833ETHY    C1  812   8.003   1.751   8.758
  834AUSL   AUS  813   6.181   3.246   7.663
  835AUSL   AUS  814   6.068   3.503   8.011
  836AUL    AUL  815   6.029   3.125   7.991
  837THSLK    S  816   6.130   3.001   7.744
  838ETHY    C1  817   5.917   2.602   7.812
  839ETHY    C1  818   5.746   2.099   7.925
  840ETHY    C1  819   5.680   1.585   8.072
  841ETHY    C1  820   5.709   1.070   8.252
  842THSLK    S  821   5.890   3.333   8.136
  843ETHY    C1  822   5.618   3.018   8.327
  844ETHY    C1  823   5.340   2.667   8.633
  845ETHY    C1  824   5.124   2.359   9.019
  846ETHY    C1  825   4.968   2.097   9.473
  847AUSL   AUS  826   6.484   3.246   7.663
  848AUSL   AUS  827   6.181   3.246   7.336
  849AUL    AUL  828   6.332   2.938   7.500
  850THSLK    S  829   6.131   2.999   7.261
  851ETHY    C1  830   5.918   2.601   7.192
  852ETHY    C1  831   5.746   2.099   7.076
  853ETHY    C1  832   5.680   1.585   6.927
  854ETHY    C1  833   5.711   1.068   6.754
  855THSLK    S  834   6.445   2.987   7.748
  856ETHY    C1  835   6.373   2.542   7.829
  857ETHY    C1  836   6.376   2.013   7.948
  858ETHY    C1  837   6.485   1.505   8.095
  859ETHY    C1  838   6.687   1.027   8.264
  860AUSL   AUS  839   6.332   4.500   7.091
  861AUSL   AUS  840   6.749   4.430   7.236
  862AUL    AUL  841   6.636   4.714   7.009
  863THSLK    S  842   6.374   4.734   6.971
  864ETHY    C1  843   6.501   5.059   6.676
  865ETHY    C1  844   6.575   5.489   6.353
  866ETHY    C1  845   6.556   5.954   6.080
  867ETHY    C1  846   6.453   6.442   5.857
  868THSLK    S  847   6.936   4.555   7.081
  869ETHY    C1  848   7.293   4.747   6.869
  870ETHY    C1  849   7.668   5.053   6.623
  871ETHY    C1  850   7.969   5.440   6.398
  872ETHY    C1  851   8.199   5.892   6.197
  873AUSL   AUS  852   6.181   4.593   7.336
  874AUSL   AUS  853   6.068   4.336   6.990
  875AUL    AUL  854   6.029   4.714   7.009
  876THSLK    S  855   6.220   4.847   7.233
  877ETHY    C1  856   6.292   5.270   7.074
  878ETHY    C1  857   6.289   5.786   6.906
  879ETHY    C1  858   6.180   6.296   6.770
  880ETHY    C1  859   5.978   6.794   6.670
  881THSLK    S  860   5.949   4.473   6.800
  882ETHY    C1  861   5.853   4.667   6.396
  883ETHY    C1  862   5.676   4.945   5.966
  884ETHY    C1  863   5.433   5.270   5.611
  885ETHY    C1  864   5.137   5.635   5.330
  886AUSL   AUS  865   6.332   3.339   7.091
  887AUSL   AUS  866   5.916   3.409   7.236
  888AUL    AUL  867   6.029   3.125   7.009
  889THSLK    S  868   5.731   3.256   7.122
  890ETHY    C1  869   5.374   2.982   7.044
  891ETHY    C1  870   4.997   2.628   6.878
  892ETHY    C1  871   4.695   2.254   6.633
  893ETHY    C1  872   4.468   1.867   6.321
  894THSLK    S  873   6.294   3.079   7.013
  895ETHY    C1  874   6.166   2.671   6.852
  896ETHY    C1  875   6.090   2.192   6.609
  897ETHY    C1  876   6.109   1.740   6.315
  898ETHY    C1  877   6.215   1.319   5.983
  899AUSL   AUS  878   6.484   3.246   7.336
  900AUSL   AUS  879   6.597   3.503   6.990
  901AUL    AUL  880   6.636   3.125   7.009
  902THSLK    S  881   6.447   2.986   7.258
  903ETHY    C1  882   6.374   2.541   7.175
  904ETHY    C1  883   6.376   2.013   7.052
  905ETHY    C1  884   6.484   1.505   6.905
  906ETHY    C1  885   6.689   1.026   6.742
  907THSLK    S  886   6.720   3.313   6.847
  908ETHY    C1  887   6.815   2.945   6.592
  909ETHY    C1  888   6.989   2.564   6.247
  910ETHY    C1  889   7.231   2.264   5.870
  911ETHY    C1  890   7.532   2.043   5.471
  912AUC    AUC  891   4.072  14.173   7.500
  913AUC    AUC  892   4.318  14.173   7.348
  914AUC    AUC  893   4.318  14.173   7.651
  915AUC    AUC  894   3.827  14.173   7.348
  916AUC    AUC  895   3.827  14.173   7.651
  917AUC    AUC  896   3.921  14.418   7.500
  918AUC    AUC  897   4.224  14.418   7.500
  919AUC    AUC  898   3.921  13.927   7.500
  920AUC    AUC  899   4.224  13.927   7.500
  921AUC    AUC  900   4.072  14.021   7.745
  922AUC    AUC  901   4.072  14.324   7.745
  923AUC    AUC  902   4.072  14.021   7.254
  924AUC    AUC  903   4.072  14.324   7.254
  925AUC    AUC  904   4.563  14.173   7.196
  926AUC    AUC  905   4.563  14.173   7.500
  927AUC    AUC  906   4.563  14.173   7.803
  928AUC    AUC  907   3.581  14.173   7.196
  929AUC    AUC  908   3.581  14.173   7.500
  930AUC    AUC  909   3.581  14.173   7.803
  931AUC    AUC  910   3.769  14.663   7.500
  932AUC    AUC  911   4.072  14.663   7.500
  933AUC    AUC  912   4.376  14.663   7.500
  934AUC    AUC  913   3.769  13.682   7.500
  935AUC    AUC  914   4.072  13.682   7.500
  936AUC    AUC  915   4.376  13.682   7.500
  937AUC    AUC  916   4.072  13.869   7.991
  938AUC    AUC  917   4.072  14.173   7.991
  939AUC    AUC  918   4.072  14.476   7.991
  940AUC    AUC  919   4.072  13.869   7.009
  941AUC    AUC  920   4.072  14.173   7.009
  942AUC    AUC  921   4.072  14.476   7.009
  943AUC    AUC  922   4.318  14.021   7.897
  944AUC    AUC  923   4.318  14.324   7.897
  945AUC    AUC  924   4.318  14.021   7.103
  946AUC    AUC  925   4.318  14.324   7.103
  947AUC    AUC  926   3.827  14.021   7.897
  948AUC    AUC  927   3.827  14.324   7.897
  949AUC    AUC  928   3.827  14.021   7.103
  950AUC    AUC  929   3.827  14.324   7.103
  951AUC    AUC  930   4.469  14.418   7.348
  952AUC    AUC  931   4.469  14.418   7.651
  953AUC    AUC  932   3.675  14.418   7.348
  954AUC    AUC  933   3.675  14.418   7.651
  955AUC    AUC  934   4.469  13.927   7.348
  956AUC    AUC  935   4.469  13.927   7.651
  957AUC    AUC  936   3.675  13.927   7.348
  958AUC    AUC  937   3.675  13.927   7.651
  959AUC    AUC  938   3.921  14.570   7.745
  960AUC    AUC  939   4.224  14.570   7.745
  961AUC    AUC  940   3.921  13.775   7.745
  962AUC    AUC  941   4.224  13.775   7.745
  963AUC    AUC  942   3.921  14.570   7.254
  964AUC    AUC  943   4.224  14.570   7.254
  965AUC    AUC  944   3.921  13.775   7.254
  966AUC    AUC  945   4.224  13.775   7.254
  967AUSL   AUS  946   4.481  14.173   8.080
  968AUSL   AUS  947   4.337  13.756   8.011
  969AUL    AUL  948   4.563  13.869   8.294
  970THSLK    S  949   4.455  13.568   8.156
  971ETHY    C1  950   4.551  13.200   8.412
  972ETHY    C1  951   4.729  12.817   8.753
  973ETHY    C1  952   4.971  12.517   9.130
  974ETHY    C1  953   5.267  12.298   9.534
  975THSLK    S  954   4.580  14.126   8.327
  976ETHY    C1  955   4.807  13.976   8.694
  977ETHY    C1  956   5.091  13.888   9.148
  978ETHY    C1  957   5.375  13.910   9.607
  979ETHY    C1  958   5.652  14.032  10.061
  980AUSL   AUS  959   4.236  14.021   8.173
  981AUSL   AUS  960   3.909  14.324   8.173
  982AUL    AUL  961   4.072  14.173   8.482
  983THSLK    S  962   4.317  13.970   8.418
  984ETHY    C1  963   4.407  13.752   8.810
  985ETHY    C1  964   4.535  13.578   9.308
  986ETHY    C1  965   4.681  13.513   9.823
  987ETHY    C1  966   4.838  13.547  10.346
  988THSLK    S  967   3.822  14.284   8.432
  989ETHY    C1  968   3.733  14.210   8.874
  990ETHY    C1  969   3.609  14.212   9.403
  991ETHY    C1  970   3.464  14.321   9.912
  992ETHY    C1  971   3.301  14.525  10.392
  993AUSL   AUS  972   4.236  14.324   8.173
  994AUSL   AUS  973   4.582  14.437   7.916
  995AUL    AUL  974   4.563  14.476   8.294
  996THSLK    S  975   4.323  14.376   8.416
  997ETHY    C1  976   4.411  14.593   8.809
  998ETHY    C1  977   4.536  14.766   9.308
  999ETHY    C1  978   4.681  14.832   9.823
 1000ETHY    C1  979   4.844  14.799  10.345
 1001THSLK    S  980   4.758  14.543   8.079
 1002ETHY    C1  981   5.120  14.593   8.355
 1003ETHY    C1  982   5.527  14.742   8.681
 1004ETHY    C1  983   5.889  14.991   8.995
 1005ETHY    C1  984   6.201  15.327   9.293
 1006AUSL   AUS  985   4.481  14.173   6.920
 1007AUSL   AUS  986   4.337  14.589   6.990
 1008AUL    AUL  987   4.563  14.476   6.706
 1009THSLK    S  988   4.585  14.126   6.676
 1010ETHY    C1  989   4.812  13.976   6.308
 1011ETHY    C1  990   5.091  13.888   5.851
 1012ETHY    C1  991   5.375  13.910   5.393
 1013ETHY    C1  992   5.657  14.032   4.941
 1014THSLK    S  993   4.514  14.708   6.820
 1015ETHY    C1  994   4.786  14.849   6.480
 1016ETHY    C1  995   5.064  15.096   6.085
 1017ETHY    C1  996   5.280  15.429   5.720
 1018ETHY    C1  997   5.437  15.836   5.391
 1019AUSL   AUS  998   4.236  14.021   6.826
 1020AUSL   AUS  999   4.582  13.908   7.083
 1021AUL    AUL 1000   4.563  13.869   6.706
 1022THSLK    S 1001   4.722  13.717   6.939
 1023ETHY    C1 1002   4.955  13.400   6.707
 1024ETHY    C1 1003   5.285  13.093   6.403
 1025ETHY    C1 1004   5.665  12.884   6.083
 1026ETHY    C1 1005   6.086  12.767   5.754
 1027THSLK    S 1006   4.323  13.969   6.583
 1028ETHY    C1 1007   4.411  13.752   6.191
 1029ETHY    C1 1008   4.536  13.579   5.692
 1030ETHY    C1 1009   4.681  13.513   5.176
 1031ETHY    C1 1010   4.844  13.546   4.656
 1032AUSL   AUS 1011   4.236  14.324   6.826
 1033AUSL   AUS 1012   3.909  14.021   6.826
 1034AUL    AUL 1013   4.072  14.173   6.518
 1035THSLK    S 1014   3.813  13.969   6.586
 1036ETHY    C1 1015   3.674  13.754   6.206
 1037ETHY    C1 1016   3.517  13.583   5.717
 1038ETHY    C1 1017   3.378  13.517   5.199
 1039ETHY    C1 1018   3.262  13.548   4.666
 1040THSLK    S 1019   4.338  14.285   6.572
 1041ETHY    C1 1020   4.475  14.208   6.142
 1042ETHY    C1 1021   4.628  14.208   5.622
 1043ETHY    C1 1022   4.766  14.317   5.112
 1044ETHY    C1 1023   4.889  14.524   4.621
 1045AUSL   AUS 1024   3.663  14.173   8.080
 1046AUSL   AUS 1025   3.808  14.589   8.011
 1047AUL    AUL 1026   3.581  14.476   8.294
 1048THSLK    S 1027   3.559  14.126   8.325
 1049ETHY    C1 1028   3.333  13.976   8.691
 1050ETHY    C1 1029   3.053  13.888   9.148
 1051ETHY    C1 1030   2.770  13.910   9.607
 1052ETHY    C1 1031   2.487  14.032  10.058
 1053THSLK    S 1032   3.685  14.722   8.201
 1054ETHY    C1 1033   3.589  14.917   8.604
 1055ETHY    C1 1034   3.416  15.198   9.034
 1056ETHY    C1 1035   3.173  15.524   9.390
 1057ETHY    C1 1036   2.872  15.883   9.671
 1058AUSL   AUS 1037   3.909  14.021   8.173
 1059AUSL   AUS 1038   3.562  13.908   7.916
 1060AUL    AUL 1039   3.581  13.869   8.294
 1061THSLK    S 1040   3.383  13.742   8.032
 1062ETHY    C1 1041   3.022  13.495   8.166
 1063ETHY    C1 1042   2.617  13.229   8.410
 1064ETHY    C1 1043   2.256  13.009   8.745
 1065ETHY    C1 1044   1.940  12.836   9.156
 1066THSLK    S 1045   3.807  13.971   8.413
 1067ETHY    C1 1046   3.669  13.756   8.793
 1068ETHY    C1 1047   3.516  13.583   9.284
 1069ETHY    C1 1048   3.379  13.517   9.800
 1070ETHY    C1 1049   3.255  13.549  10.332
 1071AUSL   AUS 1050   3.663  14.173   6.920
 1072AUSL   AUS 1051   3.808  13.756   6.990
 1073AUL    AUL 1052   3.581  13.869   6.706
 1074THSLK    S 1053   3.564  14.126   6.673
 1075ETHY    C1 1054   3.337  13.976   6.305
 1076ETHY    C1 1055   3.054  13.888   5.851
 1077ETHY    C1 1056   2.770  13.910   5.393
 1078ETHY    C1 1057   2.493  14.032   4.938
 1079THSLK    S 1058   3.634  13.581   6.865
 1080ETHY    C1 1059   3.362  13.268   6.673
 1081ETHY    C1 1060   3.081  12.920   6.367
 1082ETHY    C1 1061   2.864  12.612   5.980
 1083ETHY    C1 1062   2.712  12.345   5.528
 1084AUSL   AUS 1063   3.909  14.324   6.826
 1085AUSL   AUS 1064   3.562  14.437   7.083
 1086AUL    AUL 1065   3.581  14.476   6.706
 1087THSLK    S 1066   3.426  14.568   6.893
 1088ETHY    C1 1067   3.192  14.689   6.518
 1089ETHY    C1 1068   2.860  14.877   6.132
 1090ETHY    C1 1069   2.480  15.116   5.833
 1091ETHY    C1 1070   2.063  15.396   5.618
 1092THSLK    S 1071   3.828  14.286   6.566
 1093ETHY    C1 1072   3.738  14.211   6.124
 1094ETHY    C1 1073   3.610  14.212   5.597
 1095ETHY    C1 1074   3.464  14.321   5.089
 1096ETHY    C1 1075   3.307  14.527   4.608
 1097AUSL   AUS 1076   4.652  14.582   7.500
 1098AUSL   AUS 1077   4.582  14.437   7.083
 1099AUL    AUL 1078   4.866  14.663   7.196
 1100THSLK    S 1079   4.762  14.544   6.925
 1101ETHY    C1 1080   5.123  14.594   6.648
 1102ETHY    C1 1081   5.527  14.742   6.319
 1103ETHY    C1 1082   5.889  14.991   6.005
 1104ETHY    C1 1083   6.205  15.328   5.713
 1105THSLK    S 1084   4.922  14.643   7.503
 1106ETHY    C1 1085   5.369  14.743   7.502
 1107ETHY    C1 1086   5.871  14.949   7.500
 1108ETHY    C1 1087   6.318  15.251   7.500
 1109ETHY    C1 1088   6.706  15.635   7.503
 1110AUSL   AUS 1089   4.746  14.336   7.348
 1111AUSL   AUS 1090   4.746  14.009   7.651
 1112AUL    AUL 1091   5.054  14.173   7.500
 1113THSLK    S 1092   5.008  14.383   7.345
 1114ETHY    C1 1093   5.458  14.352   7.270
 1115ETHY    C1 1094   5.990  14.407   7.179
 1116ETHY    C1 1095   6.497  14.570   7.091
 1117ETHY    C1 1096   6.972  14.828   7.011
 1118THSLK    S 1097   4.983  13.872   7.659
 1119ETHY    C1 1098   5.354  13.614   7.726
 1120ETHY    C1 1099   5.840  13.388   7.808
 1121ETHY    C1 1100   6.359  13.268   7.896
 1122ETHY    C1 1101   6.897  13.246   7.989
 1123AUSL   AUS 1102   4.746  14.336   7.651
 1124AUSL   AUS 1103   4.489  14.683   7.764
 1125AUL    AUL 1104   4.866  14.663   7.803
 1126THSLK    S 1105   4.674  14.807   7.924
 1127ETHY    C1 1106   5.031  14.999   8.136
 1128ETHY    C1 1107   5.408  15.306   8.377
 1129ETHY    C1 1108   5.709  15.693   8.602
 1130ETHY    C1 1109   5.936  16.144   8.809
 1131THSLK    S 1110   5.007  14.382   7.661
 1132ETHY    C1 1111   5.458  14.352   7.734
 1133ETHY    C1 1112   5.991  14.407   7.821
 1134ETHY    C1 1113   6.497  14.570   7.908
 1135ETHY    C1 1114   6.971  14.828   7.995
 1136AUSL   AUS 1115   3.492  14.582   7.500
 1137AUSL   AUS 1116   3.562  14.437   7.916
 1138AUL    AUL 1117   3.278  14.663   7.803
 1139THSLK    S 1118   3.422  14.563   8.107
 1140ETHY    C1 1119   3.189  14.684   8.482
 1141ETHY    C1 1120   2.860  14.877   8.868
 1142ETHY    C1 1121   2.480  15.116   9.166
 1143ETHY    C1 1122   2.059  15.391   9.381
 1144THSLK    S 1123   3.271  14.722   7.503
 1145ETHY    C1 1124   2.982  15.077   7.502
 1146ETHY    C1 1125   2.574  15.434   7.500
 1147ETHY    C1 1126   2.104  15.698   7.500
 1148ETHY    C1 1127   1.586  15.874   7.503
 1149AUSL   AUS 1128   3.399  14.336   7.348
 1150AUSL   AUS 1129   3.656  14.683   7.236
 1151AUL    AUL 1130   3.278  14.663   7.196
 1152THSLK    S 1131   3.162  14.450   7.303
 1153ETHY    C1 1132   2.790  14.624   7.101
 1154ETHY    C1 1133   2.304  14.800   6.936
 1155ETHY    C1 1134   1.786  14.932   6.868
 1156ETHY    C1 1135   1.248  15.024   6.890
 1157THSLK    S 1136   3.536  14.850   7.056
 1158ETHY    C1 1137   3.384  15.169   6.765
 1159ETHY    C1 1138   3.130  15.549   6.473
 1160ETHY    C1 1139   2.797  15.917   6.260
 1161ETHY    C1 1140   2.401  16.267   6.122
 1162AUSL   AUS 1141   3.399  14.336   7.651
 1163AUSL   AUS 1142   3.399  14.009   7.348
 1164AUL    AUL 1143   3.091  14.173   7.500
 1165THSLK    S 1144   3.137  13.934   7.384
 1166ETHY    C1 1145   2.687  13.883   7.446
 1167ETHY    C1 1146   2.154  13.780   7.434
 1168ETHY    C1 1147   1.647  13.630   7.327
 1169ETHY    C1 1148   1.174  13.437   7.135
 1170THSLK    S 1149   3.161  14.444   7.699
 1171ETHY    C1 1150   2.790  14.620   7.901
 1172ETHY    C1 1151   2.304  14.799   8.063
 1173ETHY    C1 1152   1.786  14.932   8.133
 1174ETHY    C1 1153   1.247  15.018   8.114
 1175AUSL   AUS 1154   4.652  13.763   7.500
 1176AUSL   AUS 1155   4.582  13.908   7.916
 1177AUL    AUL 1156   4.866  13.682   7.803
 1178THSLK    S 1157   4.873  13.623   7.503
 1179ETHY    C1 1158   5.162  13.268   7.502
 1180ETHY    C1 1159   5.571  12.911   7.500
 1181ETHY    C1 1160   6.041  12.647   7.500
 1182ETHY    C1 1161   6.558  12.471   7.503
 1183THSLK    S 1162   4.719  13.718   8.066
 1184ETHY    C1 1163   4.952  13.401   8.297
 1185ETHY    C1 1164   5.285  13.094   8.598
 1186ETHY    C1 1165   5.665  12.884   8.918
 1187ETHY    C1 1166   6.082  12.768   9.250
 1188AUSL   AUS 1167   4.746  14.009   7.348
 1189AUSL   AUS 1168   4.489  13.662   7.236
 1190AUL    AUL 1169   4.866  13.682   7.196
 1191THSLK    S 1170   4.984  13.872   7.346
 1192ETHY    C1 1171   5.355  13.614   7.279
 1193ETHY    C1 1172   5.840  13.388   7.192
 1194ETHY    C1 1173   6.359  13.268   7.103
 1195ETHY    C1 1174   6.898  13.246   7.018
 1196THSLK    S 1175   4.612  13.471   7.099
 1197ETHY    C1 1176   4.762  13.069   6.942
 1198ETHY    C1 1177   5.015  12.639   6.728
 1199ETHY    C1 1178   5.347  12.283   6.495
 1200ETHY    C1 1179   5.746  12.002   6.249
 1201AUSL   AUS 1180   3.492  13.763   7.500
 1202AUSL   AUS 1181   3.562  13.908   7.083
 1203AUL    AUL 1182   3.278  13.682   7.196
 1204THSLK    S 1183   3.387  13.737   6.966
 1205ETHY    C1 1184   3.025  13.491   6.833
 1206ETHY    C1 1185   2.617  13.228   6.589
 1207ETHY    C1 1186   2.256  13.009   6.255
 1208ETHY    C1 1187   1.944  12.831   5.843
 1209THSLK    S 1188   3.222  13.702   7.503
 1210ETHY    C1 1189   2.776  13.602   7.502
 1211ETHY    C1 1190   2.274  13.396   7.500
 1212ETHY    C1 1191   1.827  13.094   7.500
 1213ETHY    C1 1192   1.439  12.710   7.503
 1214AUSL   AUS 1193   3.399  14.009   7.651
 1215AUSL   AUS 1194   3.656  13.662   7.764
 1216AUL    AUL 1195   3.278  13.682   7.803
 1217THSLK    S 1196   3.468  13.514   7.881
 1218ETHY    C1 1197   3.112  13.238   7.958
 1219ETHY    C1 1198   2.737  12.881   8.122
 1220ETHY    C1 1199   2.436  12.507   8.367
 1221ETHY    C1 1200   2.205  12.125   8.682
 1222THSLK    S 1201   3.136  13.939   7.618
 1223ETHY    C1 1202   2.686  13.887   7.557
 1224ETHY    C1 1203   2.154  13.781   7.566
 1225ETHY    C1 1204   1.647  13.630   7.673
 1226ETHY    C1 1205   1.173  13.442   7.867
 1227AUSL   AUS 1206   4.072  14.753   7.909
 1228AUSL   AUS 1207   3.656  14.683   7.764
 1229AUL    AUL 1208   3.769  14.967   7.991
 1230THSLK    S 1209   3.533  14.845   7.948
 1231ETHY    C1 1210   3.382  15.165   8.237
 1232ETHY    C1 1211   3.129  15.548   8.527
 1233ETHY    C1 1212   2.797  15.916   8.740
 1234ETHY    C1 1213   2.398  16.262   8.881
 1235THSLK    S 1214   4.110  14.984   8.034
 1236ETHY    C1 1215   4.238  15.310   8.327
 1237ETHY    C1 1216   4.315  15.742   8.646
 1238ETHY    C1 1217   4.296  16.207   8.920
 1239ETHY    C1 1218   4.190  16.692   9.147
 1240AUSL   AUS 1219   3.921  14.846   7.663
 1241AUSL   AUS 1220   4.224  14.846   7.336
 1242AUL    AUL 1221   4.072  15.154   7.500
 1243THSLK    S 1222   3.958  15.098   7.772
 1244ETHY    C1 1223   4.031  15.522   7.929
 1245ETHY    C1 1224   4.028  16.038   8.095
 1246ETHY    C1 1225   3.920  16.549   8.229
 1247ETHY    C1 1226   3.716  17.045   8.336
 1248THSLK    S 1227   4.275  15.086   7.237
 1249ETHY    C1 1228   4.488  15.463   7.091
 1250ETHY    C1 1229   4.658  15.952   6.929
 1251ETHY    C1 1230   4.725  16.470   6.792
 1252ETHY    C1 1231   4.696  17.004   6.682
 1253AUSL   AUS 1232   4.224  14.846   7.663
 1254AUSL   AUS 1233   4.337  14.589   8.011
 1255AUL    AUL 1234   4.376  14.967   7.991
 1256THSLK    S 1235   4.510  14.706   8.184
 1257ETHY    C1 1236   4.783  14.847   8.522
 1258ETHY    C1 1237   5.064  15.096   8.915
 1259ETHY    C1 1238   5.280  15.429   9.279
 1260ETHY    C1 1239   5.432  15.834   9.614
 1261THSLK    S 1240   4.274  15.084   7.768
 1262ETHY    C1 1241   4.487  15.463   7.913
 1263ETHY    C1 1242   4.658  15.952   8.072
 1264ETHY    C1 1243   4.725  16.470   8.207
 1265ETHY    C1 1244   4.694  17.003   8.325
 1266AUSL   AUS 1245   4.072  13.592   7.909
 1267AUSL   AUS 1246   4.489  13.662   7.764
 1268AUL    AUL 1247   4.376  13.378   7.991
 1269THSLK    S 1248   4.031  13.335   7.992
 1270ETHY    C1 1249   3.904  12.926   8.152
 1271ETHY    C1 1250   3.830  12.445   8.391
 1272ETHY    C1 1251   3.849  11.993   8.684
 1273ETHY    C1 1252   3.951  11.575   9.021
 1274THSLK    S 1253   4.609  13.472   7.907
 1275ETHY    C1 1254   4.760  13.070   8.062
 1276ETHY    C1 1255   5.015  12.639   8.272
 1277ETHY    C1 1256   5.347  12.283   8.505
 1278ETHY    C1 1257   5.743  12.004   8.758
 1279AUSL   AUS 1258   3.921  13.499   7.663
 1280AUSL   AUS 1259   3.808  13.756   8.011
 1281AUL    AUL 1260   3.769  13.378   7.991
 1282THSLK    S 1261   3.870  13.254   7.744
 1283ETHY    C1 1262   3.657  12.855   7.812
 1284ETHY    C1 1263   3.486  12.352   7.925
 1285ETHY    C1 1264   3.420  11.838   8.072
 1286ETHY    C1 1265   3.449  11.323   8.252
 1287THSLK    S 1266   3.630  13.586   8.136
 1288ETHY    C1 1267   3.358  13.271   8.327
 1289ETHY    C1 1268   3.080  12.920   8.633
 1290ETHY    C1 1269   2.864  12.612   9.019
 1291ETHY    C1 1270   2.708  12.350   9.473
 1292AUSL   AUS 1271   4.224  13.499   7.663
 1293AUSL   AUS 1272   3.921  13.499   7.336
 1294AUL    AUL 1273   4.072  13.191   7.500
 1295THSLK    S 1274   3.871  13.252   7.261
 1296ETHY    C1 1275   3.658  12.854   7.192
 1297ETHY    C1 1276   3.486  12.352   7.076
 1298ETHY    C1 1277   3.420  11.838   6.927
 1299ETHY    C1 1278   3.451  11.321   6.754
 1300THSLK    S 1279   4.185  13.240   7.748
 1301ETHY    C1 1280   4.113  12.795   7.829
 1302ETHY    C1 1281   4.116  12.266   7.948
 1303ETHY    C1 1282   4.225  11.758   8.095
 1304ETHY    C1 1283   4.427  11.280   8.264
 1305AUSL   AUS 1284   4.072  14.753   7.091
 1306AUSL   AUS 1285   4.489  14.683   7.236
 1307AUL    AUL 1286   4.376  14.967   7.009
 1308THSLK    S 1287   4.114  14.987   6.971
 1309ETHY    C1 1288   4.241  15.312   6.676
 1310ETHY    C1 1289   4.315  15.742   6.353
 1311ETHY    C1 1290   4.296  16.207   6.080
 1312ETHY    C1 1291   4.193  16.695   5.857
 1313THSLK    S 1292   4.676  14.808   7.081
 1314ETHY    C1 1293   5.033  15.000   6.869
 1315ETHY    C1 1294   5.408  15.306   6.623
 1316ETHY    C1 1295   5.709  15.693   6.398
 1317ETHY    C1 1296   5.939  16.145   6.197
 1318AUSL   AUS 1297   3.921  14.846   7.336
 1319AUSL   AUS 1298   3.808  14.589   6.990
 1320AUL    AUL 1299   3.769  14.967   7.009
 1321THSLK    S 1300   3.960  15.100   7.233
 1322ETHY    C1 1301   4.032  15.523   7.074
 1323ETHY    C1 1302   4.029  16.039   6.906
 1324ETHY    C1 1303   3.920  16.549   6.770
 1325ETHY    C1 1304   3.718  17.047   6.670
 1326THSLK    S 1305   3.689  14.726   6.800
 1327ETHY    C1 1306   3.593  14.920   6.396
 1328ETHY    C1 1307   3.416  15.198   5.966
 1329ETHY    C1 1308   3.173  15.523   5.611
 1330ETHY    C1 1309   2.877  15.888   5.330
 1331AUSL   AUS 1310   4.072  13.592   7.091
 1332AUSL   AUS 1311   3.656  13.662   7.236
 1333AUL    AUL 1312   3.769  13.378   7.009
 1334THSLK    S 1313   3.471  13.509   7.122
 1335ETHY    C1 1314   3.114  13.235   7.044
 1336ETHY    C1 1315   2.737  12.881   6.878
 1337ETHY    C1 1316   2.435  12.507   6.633
 1338ETHY    C1 1317   2.208  12.120   6.321
 1339THSLK    S 1318   4.034  13.332   7.013
 1340ETHY    C1 1319   3.906  12.924   6.852
 1341ETHY    C1 1320   3.830  12.445   6.609
 1342ETHY    C1 1321   3.849  11.993   6.315
 1343ETHY    C1 1322   3.955  11.572   5.983
 1344AUSL   AUS 1323   4.224  13.499   7.336
 1345AUSL   AUS 1324   4.337  13.756   6.990
 1346AUL    AUL 1325   4.376  13.378   7.009
 1347THSLK    S 1326   4.187  13.239   7.258
 1348ETHY    C1 1327   4.114  12.794   7.175
 1349ETHY    C1 1328   4.116  12.266   7.052
 1350ETHY    C1 1329   4.224  11.758   6.905
 1351ETHY    C1 1330   4.429  11.279   6.742
 1352THSLK    S 1331   4.460  13.566   6.847
 1353ETHY    C1 1332   4.555  13.198   6.592
 1354ETHY    C1 1333   4.729  12.817   6.247
 1355ETHY    C1 1334   4.971  12.517   5.870
 1356ETHY    C1 1335   5.272  12.296   5.471
 1357AUC    AUC 1336  51.888  24.804   7.500
 1358AUC    AUC 1337  52.134  24.804   7.348
 1359AUC    AUC 1338  52.134  24.804   7.651
 1360AUC    AUC 1339  51.643  24.804   7.348
 1361AUC    AUC 1340  51.643  24.804   7.651
 1362AUC    AUC 1341  51.737  25.049   7.500
 1363AUC    AUC 1342  52.040  25.049   7.500
 1364AUC    AUC 1343  51.737  24.558   7.500
 1365AUC    AUC 1344  52.040  24.558   7.500
 1366AUC    AUC 1345  51.888  24.652   7.745
 1367AUC    AUC 1346  51.888  24.955   7.745
 1368AUC    AUC 1347  51.888  24.652   7.254
 1369AUC    AUC 1348  51.888  24.955   7.254
 1370AUC    AUC 1349  52.379  24.804   7.196
 1371AUC    AUC 1350  52.379  24.804   7.500
 1372AUC    AUC 1351  52.379  24.804   7.803
 1373AUC    AUC 1352  51.397  24.804   7.196
 1374AUC    AUC 1353  51.397  24.804   7.500
 1375AUC    AUC 1354  51.397  24.804   7.803
 1376AUC    AUC 1355  51.585  25.294   7.500
 1377AUC    AUC 1356  51.888  25.294   7.500
 1378AUC    AUC 1357  52.192  25.294   7.500
 1379AUC    AUC 1358  51.585  24.313   7.500
 1380AUC    AUC 1359  51.888  24.313   7.500
 1381AUC    AUC 1360  52.192  24.313   7.500
 1382AUC    AUC 1361  51.888  24.500   7.991
 1383AUC    AUC 1362  51.888  24.804   7.991
 1384AUC    AUC 1363  51.888  25.107   7.991
 1385AUC    AUC 1364  51.888  24.500   7.009
 1386AUC    AUC 1365  51.888  24.804   7.009
 1387AUC    AUC 1366  51.888  25.107   7.009
 1388AUC    AUC 1367  52.134  24.652   7.897
 1389AUC    AUC 1368  52.134  24.955   7.897
 1390AUC    AUC 1369  52.134  24.652   7.103
 1391AUC    AUC 1370  52.134  24.955   7.103
 1392AUC    AUC 1371  51.643  24.652   7.897
 1393AUC    AUC 1372  51.643  24.955   7.897
 1394AUC    AUC 1373  51.643  24.652   7.103
 1395AUC    AUC 1374  51.643  24.955   7.103
 1396AUC    AUC 1375  52.285  25.049   7.348
 1397AUC    AUC 1376  52.285  25.049   7.651
 1398AUC    AUC 1377  51.491  25.049   7.348
 1399AUC    AUC 1378  51.491  25.049   7.651
 1400AUC    AUC 1379  52.285  24.558   7.348
 1401AUC    AUC 1380  52.285  24.558   7.651
 1402AUC    AUC 1381  51.491  24.558   7.348
 1403AUC    AUC 1382  51.491  24.558   7.651
 1404AUC    AUC 1383  51.737  25.201   7.745
 1405AUC    AUC 1384  52.040  25.201   7.745
 1406AUC    AUC 1385  51.737  24.406   7.745
 1407AUC    AUC 1386  52.040  24.406   7.745
 1408AUC    AUC 1387  51.737  25.201   7.254
 1409AUC    AUC 1388  52.040  25.201   7.254
 1410AUC    AUC 1389  51.737  24.406   7.254
 1411AUC    AUC 1390  52.040  24.406   7.254
 1412AUSL   AUS 1391  52.297  24.804   8.080
 1413AUSL   AUS 1392  52.153  24.387   8.011
 1414AUL    AUL 1393  52.379  24.500   8.294
 1415THSLK    S 1394  52.271  24.199   8.156
 1416ETHY    C1 1395  52.367  23.831   8.412
 1417ETHY    C1 1396  52.545  23.448   8.753
 1418ETHY    C1 1397  52.787  23.148   9.130
 1419ETHY    C1 1398  53.083  22.929   9.534
 1420THSLK    S 1399  52.396  24.757   8.327
 1421ETHY    C1 1400  52.623  24.607   8.694
 1422ETHY    C1 1401  52.907  24.519   9.148
 1423ETHY    C1 1402  53.191  24.541   9.607
 1424ETHY    C1 1403  53.468  24.663  10.061
 1425AUSL   AUS 1404  52.052  24.652   8.173
 1426AUSL   AUS 1405  51.725  24.955   8.173
 1427AUL    AUL 1406  51.888  24.804   8.482
 1428THSLK    S 1407  52.133  24.601   8.418
 1429ETHY    C1 1408  52.223  24.383   8.810
 1430ETHY    C1 1409  52.351  24.209   9.308
 1431ETHY    C1 1410  52.497  24.144   9.823
 1432ETHY    C1 1411  52.654  24.178  10.346
 1433THSLK    S 1412  51.638  24.915   8.432
 1434ETHY    C1 1413  51.549  24.841   8.874
 1435ETHY    C1 1414  51.425  24.843   9.403
 1436ETHY    C1 1415  51.280  24.952   9.912
 1437ETHY    C1 1416  51.117  25.156  10.392
 1438AUSL   AUS 1417  52.052  24.955   8.173
 1439AUSL   AUS 1418  52.398  25.068   7.916
 1440AUL    AUL 1419  52.379  25.107   8.294
 1441THSLK    S 1420  52.139  25.007   8.416
 1442ETHY    C1 1421  52.227  25.224   8.809
 1443ETHY    C1 1422  52.352  25.397   9.308
 1444ETHY    C1 1423  52.497  25.463   9.823
 1445ETHY    C1 1424  52.660  25.430  10.345
 1446THSLK    S 1425  52.574  25.174   8.079
 1447ETHY    C1 1426  52.936  25.224   8.355
 1448ETHY    C1 1427  53.343  25.373   8.681
 1449ETHY    C1 1428  53.705  25.622   8.995
 1450ETHY    C1 1429  54.017  25.958   9.293
 1451AUSL   AUS 1430  52.297  24.804   6.920
 1452AUSL   AUS 1431  52.153  25.220   6.990
 1453AUL    AUL 1432  52.379  25.107   6.706
 1454THSLK    S 1433  52.401  24.757   6.676
 1455ETHY    C1 1434  52.628  24.607   6.308
 1456ETHY    C1 1435  52.907  24.519   5.851
 1457ETHY    C1 1436  53.191  24.541   5.393
 1458ETHY    C1 1437  53.473  24.663   4.941
 1459THSLK    S 1438  52.330  25.339   6.820
 1460ETHY    C1 1439  52.602  25.480   6.480
 1461ETHY    C1 1440  52.880  25.727   6.085
 1462ETHY    C1 1441  53.096  26.060   5.720
 1463ETHY    C1 1442  53.253  26.467   5.391
 1464AUSL   AUS 1443  52.052  24.652   6.826
 1465AUSL   AUS 1444  52.398  24.539   7.083
 1466AUL    AUL 1445  52.379  24.500   6.706
 1467THSLK    S 1446  52.538  24.348   6.939
 1468ETHY    C1 1447  52.771  24.031   6.707
 1469ETHY    C1 1448  53.101  23.724   6.403
 1470ETHY    C1 1449  53.481  23.515   6.083
 1471ETHY    C1 1450  53.902  23.398   5.754
 1472THSLK    S 1451  52.139  24.600   6.583
 1473ETHY    C1 1452  52.227  24.383   6.191
 1474ETHY    C1 1453  52.352  24.210   5.692
 1475ETHY    C1 1454  52.497  24.144   5.176
 1476ETHY    C1 1455  52.660  24.177   4.656
 1477AUSL   AUS 1456  52.052  24.955   6.826
 1478AUSL   AUS 1457  51.725  24.652   6.826
 1479AUL    AUL 1458  51.888  24.804   6.518
 1480THSLK    S 1459  51.629  24.600   6.586
 1481ETHY    C1 1460  51.490  24.385   6.206
 1482ETHY    C1 1461  51.333  24.214   5.717
 1483ETHY    C1 1462  51.194  24.148   5.199
 1484ETHY    C1 1463  51.078  24.179   4.666
 1485THSLK    S 1464  52.154  24.916   6.572
 1486ETHY    C1 1465  52.291  24.839   6.142
 1487ETHY    C1 1466  52.444  24.839   5.622
 1488ETHY    C1 1467  52.582  24.948   5.112
 1489ETHY    C1 1468  52.705  25.155   4.621
 1490AUSL   AUS 1469  51.479  24.804   8.080
 1491AUSL   AUS 1470  51.624  25.220   8.011
 1492AUL    AUL 1471  51.397  25.107   8.294
 1493THSLK    S 1472  51.375  24.757   8.325
 1494ETHY    C1 1473  51.149  24.607   8.691
 1495ETHY    C1 1474  50.869  24.519   9.148
 1496ETHY    C1 1475  50.586  24.541   9.607
 1497ETHY    C1 1476  50.303  24.663  10.058
 1498THSLK    S 1477  51.501  25.353   8.201
 1499ETHY    C1 1478  51.405  25.548   8.604
 1500ETHY    C1 1479  51.232  25.829   9.034
 1501ETHY    C1 1480  50.989  26.155   9.390
 1502ETHY    C1 1481  50.688  26.514   9.671
 1503AUSL   AUS 1482  51.725  24.652   8.173
 1504AUSL   AUS 1483  51.378  24.539   7.916
 1505AUL    AUL 1484  51.397  24.500   8.294
 1506THSLK    S 1485  51.199  24.373   8.032
 1507ETHY    C1 1486  50.838  24.126   8.166
 1508ETHY    C1 1487  50.433  23.860   8.410
 1509ETHY    C1 1488  50.072  23.640   8.745
 1510ETHY    C1 1489  49.756  23.467   9.156
 1511THSLK    S 1490  51.623  24.602   8.413
 1512ETHY    C1 1491  51.485  24.387   8.793
 1513ETHY    C1 1492  51.332  24.214   9.284
 1514ETHY    C1 1493  51.195  24.148   9.800
 1515ETHY    C1 1494  51.071  24.180  10.332
 1516AUSL   AUS 1495  51.479  24.804   6.920
 1517AUSL   AUS 1496  51.624  24.387   6.990
 1518AUL    AUL 1497  51.397  24.500   6.706
 1519THSLK    S 1498  51.380  24.757   6.673
 1520ETHY    C1 1499  51.153  24.607   6.305
 1521ETHY    C1 1500  50.870  24.519   5.851
 1522ETHY    C1 1501  50.586  24.541   5.393
 1523ETHY    C1 1502  50.309  24.663   4.938
 1524THSLK    S 1503  51.450  24.212   6.865
 1525ETHY    C1 1504  51.178  23.899   6.673
 1526ETHY    C1 1505  50.897  23.551   6.367
 1527ETHY    C1 1506  50.680  23.243   5.980
 1528ETHY    C1 1507  50.528  22.976   5.528
 1529AUSL   AUS 1508  51.725  24.955   6.826
 1530AUSL   AUS 1509  51.378  25.068   7.083
 1531AUL    AUL 1510  51.397  25.107   6.706
 1532THSLK    S 1511  51.242  25.199   6.893
 1533ETHY    C1 1512  51.008  25.320   6.518
 1534ETHY    C1 1513  50.676  25.508   6.132
 1535ETHY    C1 1514  50.296  25.747   5.833
 1536ETHY    C1 1515  49.879  26.027   5.618
 1537THSLK    S 1516  51.644  24.917   6.566
 1538ETHY    C1 1517  51.554  24.842   6.124
 1539ETHY    C1 1518  51.426  24.843   5.597
 1540ETHY    C1 1519  51.280  24.952   5.089
 1541ETHY    C1 1520  51.123  25.158   4.608
 1542AUSL   AUS 1521  52.468  25.213   7.500
 1543AUSL   AUS 1522  52.398  25.068   7.083
 1544AUL    AUL 1523  52.682  25.294   7.196
 1545THSLK    S 1524  52.578  25.175   6.925
 1546ETHY    C1 1525  52.939  25.225   6.648
 1547ETHY    C1 1526  53.343  25.373   6.319
 1548ETHY    C1 1527  53.705  25.622   6.005
 1549ETHY    C1 1528  54.021  25.959   5.713
 1550THSLK    S 1529  52.738  25.274   7.503
 1551ETHY    C1 1530  53.185  25.374   7.502
 1552ETHY    C1 1531  53.687  25.580   7.500
 1553ETHY    C1 1532  54.134  25.882   7.500
 1554ETHY    C1 1533  54.522  26.266   7.503
 1555AUSL   AUS 1534  52.562  24.967   7.348
 1556AUSL   AUS 1535  52.562  24.640   7.651
 1557AUL    AUL 1536  52.870  24.804   7.500
 1558THSLK    S 1537  52.824  25.014   7.345
 1559ETHY    C1 1538  53.274  24.983   7.270
 1560ETHY    C1 1539  53.806  25.038   7.179
 1561ETHY    C1 1540  54.313  25.201   7.091
 1562ETHY    C1 1541  54.788  25.459   7.011
 1563THSLK    S 1542  52.799  24.503   7.659
 1564ETHY    C1 1543  53.170  24.245   7.726
 1565ETHY    C1 1544  53.656  24.019   7.808
 1566ETHY    C1 1545  54.175  23.899   7.896
 1567ETHY    C1 1546  54.713  23.877   7.989
 1568AUSL   AUS 1547  52.562  24.967   7.651
 1569AUSL   AUS 1548  52.305  25.314   7.764
 1570AUL    AUL 1549  52.682  25.294   7.803
 1571THSLK    S 1550  52.490  25.438   7.924
 1572ETHY    C1 1551  52.847  25.630   8.136
 1573ETHY    C1 1552  53.224  25.937   8.377
 1574ETHY    C1 1553  53.525  26.324   8.602
 1575ETHY    C1 1554  53.752  26.775   8.809
 1576THSLK    S 1555  52.823  25.013   7.661
 1577ETHY    C1 1556  53.274  24.983   7.734
 1578ETHY    C1 1557  53.807  25.038   7.821
 1579ETHY    C1 1558  54.313  25.201   7.908
 1580ETHY    C1 1559  54.787  25.459   7.995
 1581AUSL   AUS 1560  51.308  25.213   7.500
 1582AUSL   AUS 1561  51.378  25.068   7.916
 1583AUL    AUL 1562  51.094  25.294   7.803
 1584THSLK    S 1563  51.238  25.194   8.107
 1585ETHY    C1 1564  51.005  25.315   8.482
 1586ETHY    C1 1565  50.676  25.508   8.868
 1587ETHY    C1 1566  50.296  25.747   9.166
 1588ETHY    C1 1567  49.875  26.022   9.381
 1589THSLK    S 1568  51.087  25.353   7.503
 1590ETHY    C1 1569  50.798  25.708   7.502
 1591ETHY    C1 1570  50.390  26.065   7.500
 1592ETHY    C1 1571  49.920  26.329   7.500
 1593ETHY    C1 1572  49.402  26.505   7.503
 1594AUSL   AUS 1573  51.215  24.967   7.348
 1595AUSL   AUS 1574  51.472  25.314   7.236
 1596AUL    AUL 1575  51.094  25.294   7.196
 1597THSLK    S 1576  50.978  25.081   7.303
 1598ETHY    C1 1577  50.606  25.255   7.101
 1599ETHY    C1 1578  50.120  25.431   6.936
 1600ETHY    C1 1579  49.602  25.563   6.868
 1601ETHY    C1 1580  49.064  25.655   6.890
 1602THSLK    S 1581  51.352  25.481   7.056
 1603ETHY    C1 1582  51.200  25.800   6.765
 1604ETHY    C1 1583  50.946  26.180   6.473
 1605ETHY    C1 1584  50.613  26.548   6.260
 1606ETHY    C1 1585  50.217  26.898   6.122
 1607AUSL   AUS 1586  51.215  24.967   7.651
 1608AUSL   AUS 1587  51.215  24.640   7.348
 1609AUL    AUL 1588  50.907  24.804   7.500
 1610THSLK    S 1589  50.953  24.565   7.384
 1611ETHY    C1 1590  50.503  24.514   7.446
 1612ETHY    C1 1591  49.970  24.411   7.434
 1613ETHY    C1 1592  49.463  24.261   7.327
 1614ETHY    C1 1593  48.990  24.068   7.135
 1615THSLK    S 1594  50.977  25.075   7.699
 1616ETHY    C1 1595  50.606  25.251   7.901
 1617ETHY    C1 1596  50.120  25.430   8.063
 1618ETHY    C1 1597  49.602  25.563   8.133
 1619ETHY    C1 1598  49.063  25.649   8.114
 1620AUSL   AUS 1599  52.468  24.394   7.500
 1621AUSL   AUS 1600  52.398  24.539   7.916
 1622AUL    AUL 1601  52.682  24.313   7.803
 1623THSLK    S 1602  52.689  24.254   7.503
 1624ETHY    C1 1603  52.978  23.899   7.502
 1625ETHY    C1 1604  53.387  23.542   7.500
 1626ETHY    C1 1605  53.857  23.278   7.500
 1627ETHY    C1 1606  54.374  23.102   7.503
 1628THSLK    S 1607  52.535  24.349   8.066
 1629ETHY    C1 1608  52.768  24.032   8.297
 1630ETHY    C1 1609  53.101  23.725   8.598
 1631ETHY    C1 1610  53.481  23.515   8.918
 1632ETHY    C1 1611  53.898  23.399   9.250
 1633AUSL   AUS 1612  52.562  24.640   7.348
 1634AUSL   AUS 1613  52.305  24.293   7.236
 1635AUL    AUL 1614  52.682  24.313   7.196
 1636THSLK    S 1615  52.800  24.503   7.346
 1637ETHY    C1 1616  53.171  24.245   7.279
 1638ETHY    C1 1617  53.656  24.019   7.192
 1639ETHY    C1 1618  54.175  23.899   7.103
 1640ETHY    C1 1619  54.714  23.877   7.018
 1641THSLK    S 1620  52.428  24.102   7.099
 1642ETHY    C1 1621  52.578  23.700   6.942
 1643ETHY    C1 1622  52.831  23.270   6.728
 1644ETHY    C1 1623  53.163  22.914   6.495
 1645ETHY    C1 1624  53.562  22.633   6.249
 1646AUSL   AUS 1625  51.308  24.394   7.500
 1647AUSL   AUS 1626  51.378  24.539   7.083
 1648AUL    AUL 1627  51.094  24.313   7.196
 1649THSLK    S 1628  51.203  24.368   6.966
 1650ETHY    C1 1629  50.841  24.122   6.833
 1651ETHY    C1 1630  50.433  23.859   6.589
 1652ETHY    C1 1631  50.072  23.640   6.255
 1653ETHY    C1 1632  49.760  23.462   5.843
 1654THSLK    S 1633  51.038  24.333   7.503
 1655ETHY    C1 1634  50.592  24.233   7.502
 1656ETHY    C1 1635  50.090  24.027   7.500
 1657ETHY    C1 1636  49.643  23.725   7.500
 1658ETHY    C1 1637  49.255  23.341   7.503
 1659AUSL   AUS 1638  51.215  24.640   7.651
 1660AUSL   AUS 1639  51.472  24.293   7.764
 1661AUL    AUL 1640  51.094  24.313   7.803
 1662THSLK    S 1641  51.284  24.145   7.881
 1663ETHY    C1 1642  50.928  23.869   7.958
 1664ETHY    C1 1643  50.553  23.512   8.122
 1665ETHY    C1 1644  50.252  23.138   8.367
 1666ETHY    C1 1645  50.021  22.756   8.682
 1667THSLK    S 1646  50.952  24.570   7.618
 1668ETHY    C1 1647  50.502  24.518   7.557
 1669ETHY    C1 1648  49.970  24.412   7.566
 1670ETHY    C1 1649  49.463  24.261   7.673
 1671ETHY    C1 1650  48.989  24.073   7.867
 1672AUSL   AUS 1651  51.888  25.384   7.909
 1673AUSL   AUS 1652  51.472  25.314   7.764
 1674AUL    AUL 1653  51.585  25.598   7.991
 1675THSLK    S 1654  51.349  25.476   7.948
 1676ETHY    C1 1655  51.198  25.796   8.237
 1677ETHY    C1 1656  50.945  26.179   8.527
 1678ETHY    C1 1657  50.613  26.547   8.740
 1679ETHY    C1 1658  50.214  26.893   8.881
 1680THSLK    S 1659  51.926  25.615   8.034
 1681ETHY    C1 1660  52.054  25.941   8.327
 1682ETHY    C1 1661  52.131  26.373   8.646
 1683ETHY    C1 1662  52.112  26.838   8.920
 1684ETHY    C1 1663  52.006  27.323   9.147
 1685AUSL   AUS 1664  51.737  25.477   7.663
 1686AUSL   AUS 1665  52.040  25.477   7.336
 1687AUL    AUL 1666  51.888  25.785   7.500
 1688THSLK    S 1667  51.774  25.729   7.772
 1689ETHY    C1 1668  51.847  26.153   7.929
 1690ETHY    C1 1669  51.844  26.669   8.095
 1691ETHY    C1 1670  51.736  27.180   8.229
 1692ETHY    C1 1671  51.532  27.676   8.336
 1693THSLK    S 1672  52.091  25.717   7.237
 1694ETHY    C1 1673  52.304  26.094   7.091
 1695ETHY    C1 1674  52.474  26.583   6.929
 1696ETHY    C1 1675  52.541  27.101   6.792
 1697ETHY    C1 1676  52.512  27.635   6.682
 1698AUSL   AUS 1677  52.040  25.477   7.663
 1699AUSL   AUS 1678  52.153  25.220   8.011
 1700AUL    AUL 1679  52.192  25.598   7.991
 1701THSLK    S 1680  52.326  25.337   8.184
 1702ETHY    C1 1681  52.599  25.478   8.522
 1703ETHY    C1 1682  52.880  25.727   8.915
 1704ETHY    C1 1683  53.096  26.060   9.279
 1705ETHY    C1 1684  53.248  26.465   9.614
 1706THSLK    S 1685  52.090  25.715   7.768
 1707ETHY    C1 1686  52.303  26.094   7.913
 1708ETHY    C1 1687  52.474  26.583   8.072
 1709ETHY    C1 1688  52.541  27.101   8.207
 1710ETHY    C1 1689  52.510  27.634   8.325
 1711AUSL   AUS 1690  51.888  24.223   7.909
 1712AUSL   AUS 1691  52.305  24.293   7.764
 1713AUL    AUL 1692  52.192  24.009   7.991
 1714THSLK    S 1693  51.847  23.966   7.992
 1715ETHY    C1 1694  51.720  23.557   8.152
 1716ETHY    C1 1695  51.646  23.076   8.391
 1717ETHY    C1 1696  51.665  22.624   8.684
 1718ETHY    C1 1697  51.767  22.206   9.021
 1719THSLK    S 1698  52.425  24.103   7.907
 1720ETHY    C1 1699  52.576  23.701   8.062
 1721ETHY    C1 1700  52.831  23.270   8.272
 1722ETHY    C1 1701  53.163  22.914   8.505
 1723ETHY    C1 1702  53.559  22.635   8.758
 1724AUSL   AUS 1703  51.737  24.130   7.663
 1725AUSL   AUS 1704  51.624  24.387   8.011
 1726AUL    AUL 1705  51.585  24.009   7.991
 1727THSLK    S 1706  51.686  23.885   7.744
 1728ETHY    C1 1707  51.473  23.486   7.812
 1729ETHY    C1 1708  51.302  22.983   7.925
 1730ETHY    C1 1709  51.236  22.469   8.072
 1731ETHY    C1 1710  51.265  21.954   8.252
 1732THSLK    S 1711  51.446  24.217   8.136
 1733ETHY    C1 1712  51.174  23.902   8.327
 1734ETHY    C1 1713  50.896  23.551   8.633
 1735ETHY    C1 1714  50.680  23.243   9.019
 1736ETHY    C1 1715  50.524  22.981   9.473
 1737AUSL   AUS 1716  52.040  24.130   7.663
 1738AUSL   AUS 1717  51.737  24.130   7.336
 1739AUL    AUL 1718  51.888  23.822   7.500
 1740THSLK    S 1719  51.687  23.883   7.261
 1741ETHY    C1 1720  51.474  23.485   7.192
 1742ETHY    C1 1721  51.302  22.983   7.076
 1743ETHY    C1 1722  51.236  22.469   6.927
 1744ETHY    C1 1723  51.267  21.952   6.754
 1745THSLK    S 1724  52.001  23.871   7.748
 1746ETHY    C1 1725  51.929  23.426   7.829
 1747ETHY    C1 1726  51.932  22.897   7.948
 1748ETHY    C1 1727  52.041  22.389   8.095
 1749ETHY    C1 1728  52.243  21.911   8.264
 1750AUSL   AUS 1729  51.888  25.384   7.091
 1751AUSL   AUS 1730  52.305  25.314   7.236
 1752AUL    AUL 1731  52.192  25.598   7.009
 1753THSLK    S 1732  51.930  25.618   6.971
 1754ETHY    C1 1733  52.057  25.943   6.676
 1755ETHY    C1 1734  52.131  26.373   6.353
 1756ETHY    C1 1735  52.112  26.838   6.080
 1757ETHY    C1 1736  52.009  27.326   5.857
 1758THSLK    S 1737  52.492  25.439   7.081
 1759ETHY    C1 1738  52.849  25.631   6.869
 1760ETHY    C1 1739  53.224  25.937   6.623
 1761ETHY    C1 1740  53.525  26.324   6.398
 1762ETHY    C1 1741  53.755  26.776   6.197
 1763AUSL   AUS 1742  51.737  25.477   7.336
 1764AUSL   AUS 1743  51.624  25.220   6.990
 1765AUL    AUL 1744  51.585  25.598   7.009
 1766THSLK    S 1745  51.776  25.731   7.233
 1767ETHY    C1 1746  51.848  26.154   7.074
 1768ETHY    C1 1747  51.845  26.670   6.906
 1769ETHY    C1 1748  51.736  27.180   6.770
 1770ETHY    C1 1749  51.534  27.678   6.670
 1771THSLK    S 1750  51.505  25.357   6.800
 1772ETHY    C1 1751  51.409  25.551   6.396
 1773ETHY    C1 1752  51.232  25.829   5.966
 1774ETHY    C1 1753  50.989  26.154   5.611
 1775ETHY    C1 1754  50.693  26.519   5.330
 1776AUSL   AUS 1755  51.888  24.223   7.091
 1777AUSL   AUS 1756  51.472  24.293   7.236
 1778AUL    AUL 1757  51.585  24.009   7.009
 1779THSLK    S 1758  51.287  24.140   7.122
 1780ETHY    C1 1759  50.930  23.866   7.044
 1781ETHY    C1 1760  50.553  23.512   6.878
 1782ETHY    C1 1761  50.251  23.138   6.633
 1783ETHY    C1 1762  50.024  22.751   6.321
 1784THSLK    S 1763  51.850  23.963   7.013
 1785ETHY    C1 1764  51.722  23.555   6.852
 1786ETHY    C1 1765  51.646  23.076   6.609
 1787ETHY    C1 1766  51.665  22.624   6.315
 1788ETHY    C1 1767  51.771  22.203   5.983
 1789AUSL   AUS 1768  52.040  24.130   7.336
 1790AUSL   AUS 1769  52.153  24.387   6.990
 1791AUL    AUL 1770  52.192  24.009   7.009
 1792THSLK    S 1771  52.003  23.870   7.258
 1793ETHY    C1 1772  51.930  23.425   7.175
 1794ETHY    C1 1773  51.932  22.897   7.052
 1795ETHY    C1 1774  52.040  22.389   6.905
 1796ETHY    C1 1775  52.245  21.910   6.742
 1797THSLK    S 1776  52.276  24.197   6.847
 1798ETHY    C1 1777  52.371  23.829   6.592
 1799ETHY    C1 1778  52.545  23.448   6.247
 1800ETHY    C1 1779  52.787  23.148   5.870
 1801ETHY    C1 1780  53.088  22.927   5.471
 1802AUC    AUC 1781  17.249  38.602   7.500
 1803AUC    AUC 1782  17.495  38.602   7.348
 1804AUC    AUC 1783  17.495  38.602   7.651
 1805AUC    AUC 1784  17.004  38.602   7.348
 1806AUC    AUC 1785  17.004  38.602   7.651
 1807AUC    AUC 1786  17.098  38.847   7.500
 1808AUC    AUC 1787  17.401  38.847   7.500
 1809AUC    AUC 1788  17.098  38.356   7.500
 1810AUC    AUC 1789  17.401  38.356   7.500
 1811AUC    AUC 1790  17.249  38.450   7.745
 1812AUC    AUC 1791  17.249  38.753   7.745
 1813AUC    AUC 1792  17.249  38.450   7.254
 1814AUC    AUC 1793  17.249  38.753   7.254
 1815AUC    AUC 1794  17.740  38.602   7.196
 1816AUC    AUC 1795  17.740  38.602   7.500
 1817AUC    AUC 1796  17.740  38.602   7.803
 1818AUC    AUC 1797  16.758  38.602   7.196
 1819AUC    AUC 1798  16.758  38.602   7.500
 1820AUC    AUC 1799  16.758  38.602   7.803
 1821AUC    AUC 1800  16.946  39.092   7.500
 1822AUC    AUC 1801  17.249  39.092   7.500
 1823AUC    AUC 1802  17.553  39.092   7.500
 1824AUC    AUC 1803  16.946  38.111   7.500
 1825AUC    AUC 1804  17.249  38.111   7.500
 1826AUC    AUC 1805  17.553  38.111   7.500
 1827AUC    AUC 1806  17.249  38.298   7.991
 1828AUC    AUC 1807  17.249  38.602   7.991
 1829AUC    AUC 1808  17.249  38.905   7.991
 1830AUC    AUC 1809  17.249  38.298   7.009
 1831AUC    AUC 1810  17.249  38.602   7.009
 1832AUC    AUC 1811  17.249  38.905   7.009
 1833AUC    AUC 1812  17.495  38.450   7.897
 1834AUC    AUC 1813  17.495  38.753   7.897
 1835AUC    AUC 1814  17.495  38.450   7.103
 1836AUC    AUC 1815  17.495  38.753   7.103
 1837AUC    AUC 1816  17.004  38.450   7.897
 1838AUC    AUC 1817  17.004  38.753   7.897
 1839AUC    AUC 1818  17.004  38.450   7.103
 1840AUC    AUC 1819  17.004  38.753   7.103
 1841AUC    AUC 1820  17.646  38.847   7.348
 1842AUC    AUC 1821  17.646  38.847   7.651
 1843AUC    AUC 1822  16.852  38.847   7.348
 1844AUC    AUC 1823  16.852  38.847   7.651
 1845AUC    AUC 1824  17.646  38.356   7.348
 1846AUC    AUC 1825  17.646  38.356   7.651
 1847AUC    AUC 1826  16.852  38.356   7.348
 1848AUC    AUC 1827  16.852  38.356   7.651
 1849AUC    AUC 1828  17.098  38.999   7.745
 1850AUC    AUC 1829  17.401  38.999   7.745
 1851AUC    AUC 1830  17.098  38.204   7.745
 1852AUC    AUC 1831  17.401  38.204   7.745
 1853AUC    AUC 1832  17.098  38.999   7.254
 1854AUC    AUC 1833  17.401  38.999   7.254
 1855AUC    AUC 1834  17.098  38.204   7.254
 1856AUC    AUC 1835  17.401  38.204   7.254
 1857AUSL   AUS 1836  17.658  38.602   8.080
 1858AUSL   AUS 1837  17.514  38.185   8.011
 1859AUL    AUL 1838  17.740  38.298   8.294
 1860THSLK    S 1839  17.632  37.997   8.156
 1861ETHY    C1 1840  17.728  37.629   8.412
 1862ETHY    C1 1841  17.906  37.246   8.753
 1863ETHY    C1 1842  18.148  36.946   9.130
 1864ETHY    C1 1843  18.444  36.727   9.534
 1865THSLK    S 1844  17.757  38.555   8.327
 1866ETHY    C1 1845  17.984  38.405   8.694
 1867ETHY    C1 1846  18.268  38.317   9.148
 1868ETHY    C1 1847  18.552  38.339   9.607
 1869ETHY    C1 1848  18.829  38.461  10.061
 1870AUSL   AUS 1849  17.413  38.450   8.173
 1871AUSL   AUS 1850  17.086  38.753   8.173
 1872AUL    AUL 1851  17.249  38.602   8.482
 1873THSLK    S 1852  17.494  38.399   8.418
 1874ETHY    C1 1853  17.584  38.181   8.810
 1875ETHY    C1 1854  17.712  38.007   9.308
 1876ETHY    C1 1855  17.858  37.942   9.823
 1877ETHY    C1 1856  18.015  37.976  10.346
 1878THSLK    S 1857  16.999  38.713   8.432
 1879ETHY    C1 1858  16.910  38.639   8.874
 1880ETHY    C1 1859  16.786  38.641   9.403
 1881ETHY    C1 1860  16.641  38.750   9.912
 1882ETHY    C1 1861  16.478  38.954  10.392
 1883AUSL   AUS 1862  17.413  38.753   8.173
 1884AUSL   AUS 1863  17.759  38.866   7.916
 1885AUL    AUL 1864  17.740  38.905   8.294
 1886THSLK    S 1865  17.500  38.805   8.416
 1887ETHY    C1 1866  17.588  39.022   8.809
 1888ETHY    C1 1867  17.713  39.195   9.308
 1889ETHY    C1 1868  17.858  39.261   9.823
 1890ETHY    C1 1869  18.021  39.228  10.345
 1891THSLK    S 1870  17.935  38.972   8.079
 1892ETHY    C1 1871  18.297  39.022   8.355
 1893ETHY    C1 1872  18.704  39.171   8.681
 1894ETHY    C1 1873  19.066  39.420   8.995
 1895ETHY    C1 1874  19.378  39.756   9.293
 1896AUSL   AUS 1875  17.658  38.602   6.920
 1897AUSL   AUS 1876  17.514  39.018   6.990
 1898AUL    AUL 1877  17.740  38.905   6.706
 1899THSLK    S 1878  17.762  38.555   6.676
 1900ETHY    C1 1879  17.989  38.405   6.308
 1901ETHY    C1 1880  18.268  38.317   5.851
 1902ETHY    C1 1881  18.552  38.339   5.393
 1903ETHY    C1 1882  18.834  38.461   4.941
 1904THSLK    S 1883  17.691  39.137   6.820
 1905ETHY    C1 1884  17.963  39.278   6.480
 1906ETHY    C1 1885  18.241  39.525   6.085
 1907ETHY    C1 1886  18.457  39.858   5.720
 1908ETHY    C1 1887  18.614  40.265   5.391
 1909AUSL   AUS 1888  17.413  38.450   6.826
 1910AUSL   AUS 1889  17.759  38.337   7.083
 1911AUL    AUL 1890  17.740  38.298   6.706
 1912THSLK    S 1891  17.899  38.146   6.939
 1913ETHY    C1 1892  18.132  37.829   6.707
 1914ETHY    C1 1893  18.462  37.522   6.403
 1915ETHY    C1 1894  18.842  37.313   6.083
 1916ETHY    C1 1895  19.263  37.196   5.754
 1917THSLK    S 1896  17.500  38.398   6.583
 1918ETHY    C1 1897  17.588  38.181   6.191
 1919ETHY    C1 1898  17.713  38.008   5.692
 1920ETHY    C1 1899  17.858  37.942   5.176
 1921ETHY    C1 1900  18.021  37.975   4.656
 1922AUSL   AUS 1901  17.413  38.753   6.826
 1923AUSL   AUS 1902  17.086  38.450   6.826
 1924AUL    AUL 1903  17.249  38.602   6.518
 1925THSLK    S 1904  16.990  38.398   6.586
 1926ETHY    C1 1905  16.851  38.183   6.206
 1927ETHY    C1 1906  16.694  38.012   5.717
 1928ETHY    C1 1907  16.555  37.946   5.199
 1929ETHY    C1 1908  16.439  37.977   4.666
 1930THSLK    S 1909  17.515  38.714   6.572
 1931ETHY    C1 1910  17.652  38.637   6.142
 1932ETHY    C1 1911  17.805  38.637   5.622
 1933ETHY    C1 1912  17.943  38.746   5.112
 1934ETHY    C1 1913  18.066  38.953   4.621
 1935AUSL   AUS 1914  16.840  38.602   8.080
 1936AUSL   AUS 1915  16.985  39.018   8.011
 1937AUL    AUL 1916  16.758  38.905   8.294
 1938THSLK    S 1917  16.736  38.555   8.325
 1939ETHY    C1 1918  16.510  38.405   8.691
 1940ETHY    C1 1919  16.230  38.317   9.148
 1941ETHY    C1 1920  15.947  38.339   9.607
 1942ETHY    C1 1921  15.664  38.461  10.058
 1943THSLK    S 1922  16.862  39.151   8.201
 1944ETHY    C1 1923  16.766  39.346   8.604
 1945ETHY    C1 1924  16.593  39.627   9.034
 1946ETHY    C1 1925  16.350  39.953   9.390
 1947ETHY    C1 1926  16.049  40.312   9.671
 1948AUSL   AUS 1927  17.086  38.450   8.173
 1949AUSL   AUS 1928  16.739  38.337   7.916
 1950AUL    AUL 1929  16.758  38.298   8.294
 1951THSLK    S 1930  16.560  38.171   8.032
 1952ETHY    C1 1931  16.199  37.924   8.166
 1953ETHY    C1 1932  15.794  37.658   8.410
 1954ETHY    C1 1933  15.433  37.438   8.745
 1955ETHY    C1 1934  15.117  37.265   9.156
 1956THSLK    S 1935  16.984  38.400   8.413
 1957ETHY    C1 1936  16.846  38.185   8.793
 1958ETHY    C1 1937  16.693  38.012   9.284
 1959ETHY    C1 1938  16.556  37.946   9.800
 1960ETHY    C1 1939  16.432  37.978  10.332
 1961AUSL   AUS 1940  16.840  38.602   6.920
 1962AUSL   AUS 1941  16.985  38.185   6.990
 1963AUL    AUL 1942  16.758  38.298   6.706
 1964THSLK    S 1943  16.741  38.555   6.673
 1965ETHY    C1 1944  16.514  38.405   6.305
 1966ETHY    C1 1945  16.231  38.317   5.851
 1967ETHY    C1 1946  15.947  38.339   5.393
 1968ETHY    C1 1947  15.670  38.461   4.938
 1969THSLK    S 1948  16.811  38.010   6.865
 1970ETHY    C1 1949  16.539  37.697   6.673
 1971ETHY    C1 1950  16.258  37.349   6.367
 1972ETHY    C1 1951  16.041  37.041   5.980
 1973ETHY    C1 1952  15.889  36.774   5.528
 1974AUSL   AUS 1953  17.086  38.753   6.826
 1975AUSL   AUS 1954  16.739  38.866   7.083
 1976AUL    AUL 1955  16.758  38.905   6.706
 1977THSLK    S 1956  16.603  38.997   6.893
 1978ETHY    C1 1957  16.369  39.118   6.518
 1979ETHY    C1 1958  16.037  39.306   6.132
 1980ETHY    C1 1959  15.657  39.545   5.833
 1981ETHY    C1 1960  15.240  39.825   5.618
 1982THSLK    S 1961  17.005  38.715   6.566
 1983ETHY    C1 1962  16.915  38.640   6.124
 1984ETHY    C1 1963  16.787  38.641   5.597
 1985ETHY    C1 1964  16.641  38.750   5.089
 1986ETHY    C1 1965  16.484  38.956   4.608
 1987AUSL   AUS 1966  17.829  39.011   7.500
 1988AUSL   AUS 1967  17.759  38.866   7.083
 1989AUL    AUL 1968  18.043  39.092   7.196
 1990THSLK    S 1969  17.939  38.973   6.925
 1991ETHY    C1 1970  18.300  39.023   6.648
 1992ETHY    C1 1971  18.704  39.171   6.319
 1993ETHY    C1 1972  19.066  39.420   6.005
 1994ETHY    C1 1973  19.382  39.757   5.713
 1995THSLK    S 1974  18.099  39.072   7.503
 1996ETHY    C1 1975  18.546  39.172   7.502
 1997ETHY    C1 1976  19.048  39.378   7.500
 1998ETHY    C1 1977  19.495  39.680   7.500
 1999ETHY    C1 1978  19.883  40.064   7.503
 2000AUSL   AUS 1979  17.923  38.765   7.348
 2001AUSL   AUS 1980  17.923  38.438   7.651
 2002AUL    AUL 1981  18.231  38.602   7.500
 2003THSLK    S 1982  18.185  38.812   7.345
 2004ETHY    C1 1983  18.635  38.781   7.270
 2005ETHY    C1 1984  19.167  38.836   7.179
 2006ETHY    C1 1985  19.674  38.999   7.091
 2007ETHY    C1 1986  20.149  39.257   7.011
 2008THSLK    S 1987  18.160  38.301   7.659
 2009ETHY    C1 1988  18.531  38.043   7.726
 2010ETHY    C1 1989  19.017  37.817   7.808
 2011ETHY    C1 1990  19.536  37.697   7.896
 2012ETHY    C1 1991  20.074  37.675   7.989
 2013AUSL   AUS 1992  17.923  38.765   7.651
 2014AUSL   AUS 1993  17.666  39.112   7.764
 2015AUL    AUL 1994  18.043  39.092   7.803
 2016THSLK    S 1995  17.851  39.236   7.924
 2017ETHY    C1 1996  18.208  39.428   8.136
 2018ETHY    C1 1997  18.585  39.735   8.377
 2019ETHY    C1 1998  18.886  40.122   8.602
 2020ETHY    C1 1999  19.113  40.573   8.809
 2021THSLK    S 2000  18.184  38.811   7.661
 2022ETHY    C1 2001  18.635  38.781   7.734
 2023ETHY    C1 2002  19.168  38.836   7.821
 2024ETHY    C1 2003  19.674  38.999   7.908
 2025ETHY    C1 2004  20.148  39.257   7.995
 2026AUSL   AUS 2005  16.669  39.011   7.500
 2027AUSL   AUS 2006  16.739  38.866   7.916
 2028AUL    AUL 2007  16.455  39.092   7.803
 2029THSLK    S 2008  16.599  38.992   8.107
 2030ETHY    C1 2009  16.366  39.113   8.482
 2031ETHY    C1 2010  16.037  39.306   8.868
 2032ETHY    C1 2011  15.657  39.545   9.166
 2033ETHY    C1 2012  15.236  39.820   9.381
 2034THSLK    S 2013  16.448  39.151   7.503
 2035ETHY    C1 2014  16.159  39.506   7.502
 2036ETHY    C1 2015  15.751  39.863   7.500
 2037ETHY    C1 2016  15.281  40.127   7.500
 2038ETHY    C1 2017  14.763  40.303   7.503
 2039AUSL   AUS 2018  16.576  38.765   7.348
 2040AUSL   AUS 2019  16.833  39.112   7.236
 2041AUL    AUL 2020  16.455  39.092   7.196
 2042THSLK    S 2021  16.339  38.879   7.303
 2043ETHY    C1 2022  15.967  39.053   7.101
 2044ETHY    C1 2023  15.481  39.229   6.936
 2045ETHY    C1 2024  14.963  39.361   6.868
 2046ETHY    C1 2025  14.425  39.453   6.890
 2047THSLK    S 2026  16.713  39.279   7.056
 2048ETHY    C1 2027  16.561  39.598   6.765
 2049ETHY    C1 2028  16.307  39.978   6.473
 2050ETHY    C1 2029  15.974  40.346   6.260
 2051ETHY    C1 2030  15.578  40.696   6.122
 2052AUSL   AUS 2031  16.576  38.765   7.651
 2053AUSL   AUS 2032  16.576  38.438   7.348
 2054AUL    AUL 2033  16.268  38.602   7.500
 2055THSLK    S 2034  16.314  38.363   7.384
 2056ETHY    C1 2035  15.864  38.312   7.446
 2057ETHY    C1 2036  15.331  38.209   7.434
 2058ETHY    C1 2037  14.824  38.059   7.327
 2059ETHY    C1 2038  14.351  37.866   7.135
 2060THSLK    S 2039  16.338  38.873   7.699
 2061ETHY    C1 2040  15.967  39.049   7.901
 2062ETHY    C1 2041  15.481  39.228   8.063
 2063ETHY    C1 2042  14.963  39.361   8.133
 2064ETHY    C1 2043  14.424  39.447   8.114
 2065AUSL   AUS 2044  17.829  38.192   7.500
 2066AUSL   AUS 2045  17.759  38.337   7.916
 2067AUL    AUL 2046  18.043  38.111   7.803
 2068THSLK    S 2047  18.050  38.052   7.503
 2069ETHY    C1 2048  18.339  37.697   7.502
 2070ETHY    C1 2049  18.748  37.340   7.500
 2071ETHY    C1 2050  19.218  37.076   7.500
 2072ETHY    C1 2051  19.735  36.900   7.503
 2073THSLK    S 2052  17.896  38.147   8.066
 2074ETHY    C1 2053  18.129  37.830   8.297
 2075ETHY    C1 2054  18.462  37.523   8.598
 2076ETHY    C1 2055  18.842  37.313   8.918
 2077ETHY    C1 2056  19.259  37.197   9.250
 2078AUSL   AUS 2057  17.923  38.438   7.348
 2079AUSL   AUS 2058  17.666  38.091   7.236
 2080AUL    AUL 2059  18.043  38.111   7.196
 2081THSLK    S 2060  18.161  38.301   7.346
 2082ETHY    C1 2061  18.532  38.043   7.279
 2083ETHY    C1 2062  19.017  37.817   7.192
 2084ETHY    C1 2063  19.536  37.697   7.103
 2085ETHY    C1 2064  20.075  37.675   7.018
 2086THSLK    S 2065  17.789  37.900   7.099
 2087ETHY    C1 2066  17.939  37.498   6.942
 2088ETHY    C1 2067  18.192  37.068   6.728
 2089ETHY    C1 2068  18.524  36.712   6.495
 2090ETHY    C1 2069  18.923  36.431   6.249
 2091AUSL   AUS 2070  16.669  38.192   7.500
 2092AUSL   AUS 2071  16.739  38.337   7.083
 2093AUL    AUL 2072  16.455  38.111   7.196
 2094THSLK    S 2073  16.564  38.166   6.966
 2095ETHY    C1 2074  16.202  37.920   6.833
 2096ETHY    C1 2075  15.794  37.657   6.589
 2097ETHY    C1 2076  15.433  37.438   6.255
 2098ETHY    C1 2077  15.121  37.260   5.843
 2099THSLK    S 2078  16.399  38.131   7.503
 2100ETHY    C1 2079  15.953  38.031   7.502
 2101ETHY    C1 2080  15.451  37.825   7.500
 2102ETHY    C1 2081  15.004  37.523   7.500
 2103ETHY    C1 2082  14.616  37.139   7.503
 2104AUSL   AUS 2083  16.576  38.438   7.651
 2105AUSL   AUS 2084  16.833  38.091   7.764
 2106AUL    AUL 2085  16.455  38.111   7.803
 2107THSLK    S 2086  16.645  37.943   7.881
 2108ETHY    C1 2087  16.289  37.667   7.958
 2109ETHY    C1 2088  15.914  37.310   8.122
 2110ETHY    C1 2089  15.613  36.936   8.367
 2111ETHY    C1 2090  15.382  36.554   8.682
 2112THSLK    S 2091  16.313  38.368   7.618
 2113ETHY    C1 2092  15.863  38.316   7.557
 2114ETHY    C1 2093  15.331  38.210   7.566
 2115ETHY    C1 2094  14.824  38.059   7.673
 2116ETHY    C1 2095  14.350  37.871   7.867
 2117AUSL   AUS 2096  17.249  39.182   7.909
 2118AUSL   AUS 2097  16.833  39.112   7.764
 2119AUL    AUL 2098  16.946  39.396   7.991
 2120THSLK    S 2099  16.710  39.274   7.948
 2121ETHY    C1 2100  16.559  39.594   8.237
 2122ETHY    C1 2101  16.306  39.977   8.527
 2123ETHY    C1 2102  15.974  40.345   8.740
 2124ETHY    C1 2103  15.575  40.691   8.881
 2125THSLK    S 2104  17.287  39.413   8.034
 2126ETHY    C1 2105  17.415  39.739   8.327
 2127ETHY    C1 2106  17.492  40.171   8.646
 2128ETHY    C1 2107  17.473  40.636   8.920
 2129ETHY    C1 2108  17.367  41.121   9.147
 2130AUSL   AUS 2109  17.098  39.275   7.663
 2131AUSL   AUS 2110  17.401  39.275   7.336
 2132AUL    AUL 2111  17.249  39.583   7.500
 2133THSLK    S 2112  17.135  39.527   7.772
 2134ETHY    C1 2113  17.208  39.951   7.929
 2135ETHY    C1 2114  17.205  40.467   8.095
 2136ETHY    C1 2115  17.097  40.978   8.229
 2137ETHY    C1 2116  16.893  41.474   8.336
 2138THSLK    S 2117  17.452  39.515   7.237
 2139ETHY    C1 2118  17.665  39.892   7.091
 2140ETHY    C1 2119  17.835  40.381   6.929
 2141ETHY    C1 2120  17.902  40.899   6.792
 2142ETHY    C1 2121  17.873  41.433   6.682
 2143AUSL   AUS 2122  17.401  39.275   7.663
 2144AUSL   AUS 2123  17.514  39.018   8.011
 2145AUL    AUL 2124  17.553  39.396   7.991
 2146THSLK    S 2125  17.687  39.135   8.184
 2147ETHY    C1 2126  17.960  39.276   8.522
 2148ETHY    C1 2127  18.241  39.525   8.915
 2149ETHY    C1 2128  18.457  39.858   9.279
 2150ETHY    C1 2129  18.609  40.263   9.614
 2151THSLK    S 2130  17.451  39.513   7.768
 2152ETHY    C1 2131  17.664  39.892   7.913
 2153ETHY    C1 2132  17.835  40.381   8.072
 2154ETHY    C1 2133  17.902  40.899   8.207
 2155ETHY    C1 2134  17.871  41.432   8.325
 2156AUSL   AUS 2135  17.249  38.021   7.909
 2157AUSL   AUS 2136  17.666  38.091   7.764
 2158AUL    AUL 2137  17.553  37.807   7.991
 2159THSLK    S 2138  17.208  37.764   7.992
 2160ETHY    C1 2139  17.081  37.355   8.152
 2161ETHY    C1 2140  17.007  36.874   8.391
 2162ETHY    C1 2141  17.026  36.422   8.684
 2163ETHY    C1 2142  17.128  36.004   9.021
 2164THSLK    S 2143  17.786  37.901   7.907
 2165ETHY    C1 2144  17.937  37.499   8.062
 2166ETHY    C1 2145  18.192  37.068   8.272
 2167ETHY    C1 2146  18.524  36.712   8.505
 2168ETHY    C1 2147  18.920  36.433   8.758
 2169AUSL   AUS 2148  17.098  37.928   7.663
 2170AUSL   AUS 2149  16.985  38.185   8.011
 2171AUL    AUL 2150  16.946  37.807   7.991
 2172THSLK    S 2151  17.047  37.683   7.744
 2173ETHY    C1 2152  16.834  37.284   7.812
 2174ETHY    C1 2153  16.663  36.781   7.925
 2175ETHY    C1 2154  16.597  36.267   8.072
 2176ETHY    C1 2155  16.626  35.752   8.252
 2177THSLK    S 2156  16.807  38.015   8.136
 2178ETHY    C1 2157  16.535  37.700   8.327
 2179ETHY    C1 2158  16.257  37.349   8.633
 2180ETHY    C1 2159  16.041  37.041   9.019
 2181ETHY    C1 2160  15.885  36.779   9.473
 2182AUSL   AUS 2161  17.401  37.928   7.663
 2183AUSL   AUS 2162  17.098  37.928   7.336
 2184AUL    AUL 2163  17.249  37.620   7.500
 2185THSLK    S 2164  17.048  37.681   7.261
 2186ETHY    C1 2165  16.835  37.283   7.192
 2187ETHY    C1 2166  16.663  36.781   7.076
 2188ETHY    C1 2167  16.597  36.267   6.927
 2189ETHY    C1 2168  16.628  35.750   6.754
 2190THSLK    S 2169  17.362  37.669   7.748
 2191ETHY    C1 2170  17.290  37.224   7.829
 2192ETHY    C1 2171  17.293  36.695   7.948
 2193ETHY    C1 2172  17.402  36.187   8.095
 2194ETHY    C1 2173  17.604  35.709   8.264
 2195AUSL   AUS 2174  17.249  39.182   7.091
 2196AUSL   AUS 2175  17.666  39.112   7.236
 2197AUL    AUL 2176  17.553  39.396   7.009
 2198THSLK    S 2177  17.291  39.416   6.971
 2199ETHY    C1 2178  17.418  39.741   6.676
 2200ETHY    C1 2179  17.492  40.171   6.353
 2201ETHY    C1 2180  17.473  40.636   6.080
 2202ETHY    C1 2181  17.370  41.124   5.857
 2203THSLK    S 2182  17.853  39.237   7.081
 2204ETHY    C1 2183  18.210  39.429   6.869
 2205ETHY    C1 2184  18.585  39.735   6.623
 2206ETHY    C1 2185  18.886  40.122   6.398
 2207ETHY    C1 2186  19.116  40.574   6.197
 2208AUSL   AUS 2187  17.098  39.275   7.336
 2209AUSL   AUS 2188  16.985  39.018   6.990
 2210AUL    AUL 2189  16.946  39.396   7.009
 2211THSLK    S 2190  17.137  39.529   7.233
 2212ETHY    C1 2191  17.209  39.952   7.074
 2213ETHY    C1 2192  17.206  40.468   6.906
 2214ETHY    C1 2193  17.097  40.978   6.770
 2215ETHY    C1 2194  16.895  41.476   6.670
 2216THSLK    S 2195  16.866  39.155   6.800
 2217ETHY    C1 2196  16.770  39.349   6.396
 2218ETHY    C1 2197  16.593  39.627   5.966
 2219ETHY    C1 2198  16.350  39.952   5.611
 2220ETHY    C1 2199  16.054  40.317   5.330
 2221AUSL   AUS 2200  17.249  38.021   7.091
 2222AUSL   AUS 2201  16.833  38.091   7.236
 2223AUL    AUL 2202  16.946  37.807   7.009
 2224THSLK    S 2203  16.648  37.938   7.122
 2225ETHY    C1 2204  16.291  37.664   7.044
 2226ETHY    C1 2205  15.914  37.310   6.878
 2227ETHY    C1 2206  15.612  36.936   6.633
 2228ETHY    C1 2207  15.385  36.549   6.321
 2229THSLK    S 2208  17.211  37.761   7.013
 2230ETHY    C1 2209  17.083  37.353   6.852
 2231ETHY    C1 2210  17.007  36.874   6.609
 2232ETHY    C1 2211  17.026  36.422   6.315
 2233ETHY    C1 2212  17.132  36.001   5.983
 2234AUSL   AUS 2213  17.401  37.928   7.336
 2235AUSL   AUS 2214  17.514  38.185   6.990
 2236AUL    AUL 2215  17.553  37.807   7.009
 2237THSLK    S 2216  17.364  37.668   7.258
 2238ETHY    C1 2217  17.291  37.223   7.175
 2239ETHY    C1 2218  17.293  36.695   7.052
 2240ETHY    C1 2219  17.401  36.187   6.905
 2241ETHY    C1 2220  17.606  35.708   6.742
 2242THSLK    S 2221  17.637  37.995   6.847
 2243ETHY    C1 2222  17.732  37.627   6.592
 2244ETHY    C1 2223  17.906  37.246   6.247
 2245ETHY    C1 2224  18.148  36.946   5.870
 2246ETHY    C1 2225  18.449  36.725   5.471
 2247AUC    AUC 2226  24.121  10.906   7.500
 2248AUC    AUC 2227  24.367  10.906   7.348
 2249AUC    AUC 2228  24.367  10.906   7.651
 2250AUC    AUC 2229  23.876  10.906   7.348
 2251AUC    AUC 2230  23.876  10.906   7.651
 2252AUC    AUC 2231  23.970  11.151   7.500
 2253AUC    AUC 2232  24.273  11.151   7.500
 2254AUC    AUC 2233  23.970  10.660   7.500
 2255AUC    AUC 2234  24.273  10.660   7.500
 2256AUC    AUC 2235  24.121  10.754   7.745
 2257AUC    AUC 2236  24.121  11.057   7.745
 2258AUC    AUC 2237  24.121  10.754   7.254
 2259AUC    AUC 2238  24.121  11.057   7.254
 2260AUC    AUC 2239  24.612  10.906   7.196
 2261AUC    AUC 2240  24.612  10.906   7.500
 2262AUC    AUC 2241  24.612  10.906   7.803
 2263AUC    AUC 2242  23.630  10.906   7.196
 2264AUC    AUC 2243  23.630  10.906   7.500
 2265AUC    AUC 2244  23.630  10.906   7.803
 2266AUC    AUC 2245  23.818  11.396   7.500
 2267AUC    AUC 2246  24.121  11.396   7.500
 2268AUC    AUC 2247  24.425  11.396   7.500
 2269AUC    AUC 2248  23.818  10.415   7.500
 2270AUC    AUC 2249  24.121  10.415   7.500
 2271AUC    AUC 2250  24.425  10.415   7.500
 2272AUC    AUC 2251  24.121  10.602   7.991
 2273AUC    AUC 2252  24.121  10.906   7.991
 2274AUC    AUC 2253  24.121  11.209   7.991
 2275AUC    AUC 2254  24.121  10.602   7.009
 2276AUC    AUC 2255  24.121  10.906   7.009
 2277AUC    AUC 2256  24.121  11.209   7.009
 2278AUC    AUC 2257  24.367  10.754   7.897
 2279AUC    AUC 2258  24.367  11.057   7.897
 2280AUC    AUC 2259  24.367  10.754   7.103
 2281AUC    AUC 2260  24.367  11.057   7.103
 2282AUC    AUC 2261  23.876  10.754   7.897
 2283AUC    AUC 2262  23.876  11.057   7.897
 2284AUC    AUC 2263  23.876  10.754   7.103
 2285AUC    AUC 2264  23.876  11.057   7.103
 2286AUC    AUC 2265  24.518  11.151   7.348
 2287AUC    AUC 2266  24.518  11.151   7.651
 2288AUC    AUC 2267  23.724  11.151   7.348
 2289AUC    AUC 2268  23.724  11.151   7.651
 2290AUC    AUC 2269  24.518  10.660   7.348
 2291AUC    AUC 2270  24.518  10.660   7.651
 2292AUC    AUC 2271  23.724  10.660   7.348
 2293AUC    AUC 2272  23.724  10.660   7.651
 2294AUC    AUC 2273  23.970  11.303   7.745
 2295AUC    AUC 2274  24.273  11.303   7.745
 2296AUC    AUC 2275  23.970  10.508   7.745
 2297AUC    AUC 2276  24.273  10.508   7.745
 2298AUC    AUC 2277  23.970  11.303   7.254
 2299AUC    AUC 2278  24.273  11.303   7.254
 2300AUC    AUC 2279  23.970  10.508   7.254
 2301AUC    AUC 2280  24.273  10.508   7.254
 2302AUSL   AUS 2281  24.530  10.906   8.080
 2303AUSL   AUS 2282  24.386  10.489   8.011
 2304AUL    AUL 2283  24.612  10.602   8.294
 2305THSLK    S 2284  24.504  10.301   8.156
 2306ETHY    C1 2285  24.600   9.933   8.412
 2307ETHY    C1 2286  24.778   9.550   8.753
 2308ETHY    C1 2287  25.020   9.250   9.130
 2309ETHY    C1 2288  25.316   9.031   9.534
 2310THSLK    S 2289  24.629  10.859   8.327
 2311ETHY    C1 2290  24.856  10.709   8.694
 2312ETHY    C1 2291  25.140  10.621   9.148
 2313ETHY    C1 2292  25.424  10.643   9.607
 2314ETHY    C1 2293  25.701  10.765  10.061
 2315AUSL   AUS 2294  24.285  10.754   8.173
 2316AUSL   AUS 2295  23.958  11.057   8.173
 2317AUL    AUL 2296  24.121  10.906   8.482
 2318THSLK    S 2297  24.366  10.703   8.418
 2319ETHY    C1 2298  24.456  10.485   8.810
 2320ETHY    C1 2299  24.584  10.311   9.308
 2321ETHY    C1 2300  24.730  10.246   9.823
 2322ETHY    C1 2301  24.887  10.280  10.346
 2323THSLK    S 2302  23.871  11.017   8.432
 2324ETHY    C1 2303  23.782  10.943   8.874
 2325ETHY    C1 2304  23.658  10.945   9.403
 2326ETHY    C1 2305  23.513  11.054   9.912
 2327ETHY    C1 2306  23.350  11.258  10.392
 2328AUSL   AUS 2307  24.285  11.057   8.173
 2329AUSL   AUS 2308  24.631  11.170   7.916
 2330AUL    AUL 2309  24.612  11.209   8.294
 2331THSLK    S 2310  24.372  11.109   8.416
 2332ETHY    C1 2311  24.460  11.326   8.809
 2333ETHY    C1 2312  24.585  11.499   9.308
 2334ETHY    C1 2313  24.730  11.565   9.823
 2335ETHY    C1 2314  24.893  11.532  10.345
 2336THSLK    S 2315  24.807  11.276   8.079
 2337ETHY    C1 2316  25.169  11.326   8.355
 2338ETHY    C1 2317  25.576  11.475   8.681
 2339ETHY    C1 2318  25.938  11.724   8.995
 2340ETHY    C1 2319  26.250  12.060   9.293
 2341AUSL   AUS 2320  24.530  10.906   6.920
 2342AUSL   AUS 2321  24.386  11.322   6.990
 2343AUL    AUL 2322  24.612  11.209   6.706
 2344THSLK    S 2323  24.634  10.859   6.676
 2345ETHY    C1 2324  24.861  10.709   6.308
 2346ETHY    C1 2325  25.140  10.621   5.851
 2347ETHY    C1 2326  25.424  10.643   5.393
 2348ETHY    C1 2327  25.706  10.765   4.941
 2349THSLK    S 2328  24.563  11.441   6.820
 2350ETHY    C1 2329  24.835  11.582   6.480
 2351ETHY    C1 2330  25.113  11.829   6.085
 2352ETHY    C1 2331  25.329  12.162   5.720
 2353ETHY    C1 2332  25.486  12.569   5.391
 2354AUSL   AUS 2333  24.285  10.754   6.826
 2355AUSL   AUS 2334  24.631  10.641   7.083
 2356AUL    AUL 2335  24.612  10.602   6.706
 2357THSLK    S 2336  24.771  10.450   6.939
 2358ETHY    C1 2337  25.004  10.133   6.707
 2359ETHY    C1 2338  25.334   9.826   6.403
 2360ETHY    C1 2339  25.714   9.617   6.083
 2361ETHY    C1 2340  26.135   9.500   5.754
 2362THSLK    S 2341  24.372  10.702   6.583
 2363ETHY    C1 2342  24.460  10.485   6.191
 2364ETHY    C1 2343  24.585  10.312   5.692
 2365ETHY    C1 2344  24.730  10.246   5.176
 2366ETHY    C1 2345  24.893  10.279   4.656
 2367AUSL   AUS 2346  24.285  11.057   6.826
 2368AUSL   AUS 2347  23.958  10.754   6.826
 2369AUL    AUL 2348  24.121  10.906   6.518
 2370THSLK    S 2349  23.862  10.702   6.586
 2371ETHY    C1 2350  23.723  10.487   6.206
 2372ETHY    C1 2351  23.566  10.316   5.717
 2373ETHY    C1 2352  23.427  10.250   5.199
 2374ETHY    C1 2353  23.311  10.281   4.666
 2375THSLK    S 2354  24.387  11.018   6.572
 2376ETHY    C1 2355  24.524  10.941   6.142
 2377ETHY    C1 2356  24.677  10.941   5.622
 2378ETHY    C1 2357  24.815  11.050   5.112
 2379ETHY    C1 2358  24.938  11.257   4.621
 2380AUSL   AUS 2359  23.712  10.906   8.080
 2381AUSL   AUS 2360  23.857  11.322   8.011
 2382AUL    AUL 2361  23.630  11.209   8.294
 2383THSLK    S 2362  23.608  10.859   8.325
 2384ETHY    C1 2363  23.382  10.709   8.691
 2385ETHY    C1 2364  23.102  10.621   9.148
 2386ETHY    C1 2365  22.819  10.643   9.607
 2387ETHY    C1 2366  22.536  10.765  10.058
 2388THSLK    S 2367  23.734  11.455   8.201
 2389ETHY    C1 2368  23.638  11.650   8.604
 2390ETHY    C1 2369  23.465  11.931   9.034
 2391ETHY    C1 2370  23.222  12.257   9.390
 2392ETHY    C1 2371  22.921  12.616   9.671
 2393AUSL   AUS 2372  23.958  10.754   8.173
 2394AUSL   AUS 2373  23.611  10.641   7.916
 2395AUL    AUL 2374  23.630  10.602   8.294
 2396THSLK    S 2375  23.432  10.475   8.032
 2397ETHY    C1 2376  23.071  10.228   8.166
 2398ETHY    C1 2377  22.666   9.962   8.410
 2399ETHY    C1 2378  22.305   9.742   8.745
 2400ETHY    C1 2379  21.989   9.569   9.156
 2401THSLK    S 2380  23.856  10.704   8.413
 2402ETHY    C1 2381  23.718  10.489   8.793
 2403ETHY    C1 2382  23.565  10.316   9.284
 2404ETHY    C1 2383  23.428  10.250   9.800
 2405ETHY    C1 2384  23.304  10.282  10.332
 2406AUSL   AUS 2385  23.712  10.906   6.920
 2407AUSL   AUS 2386  23.857  10.489   6.990
 2408AUL    AUL 2387  23.630  10.602   6.706
 2409THSLK    S 2388  23.613  10.859   6.673
 2410ETHY    C1 2389  23.386  10.709   6.305
 2411ETHY    C1 2390  23.103  10.621   5.851
 2412ETHY    C1 2391  22.819  10.643   5.393
 2413ETHY    C1 2392  22.542  10.765   4.938
 2414THSLK    S 2393  23.683  10.314   6.865
 2415ETHY    C1 2394  23.411  10.001   6.673
 2416ETHY    C1 2395  23.130   9.653   6.367
 2417ETHY    C1 2396  22.913   9.345   5.980
 2418ETHY    C1 2397  22.761   9.078   5.528
 2419AUSL   AUS 2398  23.958  11.057   6.826
 2420AUSL   AUS 2399  23.611  11.170   7.083
 2421AUL    AUL 2400  23.630  11.209   6.706
 2422THSLK    S 2401  23.475  11.301   6.893
 2423ETHY    C1 2402  23.241  11.422   6.518
 2424ETHY    C1 2403  22.909  11.610   6.132
 2425ETHY    C1 2404  22.529  11.849   5.833
 2426ETHY    C1 2405  22.112  12.129   5.618
 2427THSLK    S 2406  23.877  11.019   6.566
 2428ETHY    C1 2407  23.787  10.944   6.124
 2429ETHY    C1 2408  23.659  10.945   5.597
 2430ETHY    C1 2409  23.513  11.054   5.089
 2431ETHY    C1 2410  23.356  11.260   4.608
 2432AUSL   AUS 2411  24.701  11.315   7.500
 2433AUSL   AUS 2412  24.631  11.170   7.083
 2434AUL    AUL 2413  24.915  11.396   7.196
 2435THSLK    S 2414  24.811  11.277   6.925
 2436ETHY    C1 2415  25.172  11.327   6.648
 2437ETHY    C1 2416  25.576  11.475   6.319
 2438ETHY    C1 2417  25.938  11.724   6.005
 2439ETHY    C1 2418  26.254  12.061   5.713
 2440THSLK    S 2419  24.971  11.376   7.503
 2441ETHY    C1 2420  25.418  11.476   7.502
 2442ETHY    C1 2421  25.920  11.682   7.500
 2443ETHY    C1 2422  26.367  11.984   7.500
 2444ETHY    C1 2423  26.755  12.368   7.503
 2445AUSL   AUS 2424  24.795  11.069   7.348
 2446AUSL   AUS 2425  24.795  10.742   7.651
 2447AUL    AUL 2426  25.103  10.906   7.500
 2448THSLK    S 2427  25.057  11.116   7.345
 2449ETHY    C1 2428  25.507  11.085   7.270
 2450ETHY    C1 2429  26.039  11.140   7.179
 2451ETHY    C1 2430  26.546  11.303   7.091
 2452ETHY    C1 2431  27.021  11.561   7.011
 2453THSLK    S 2432  25.032  10.605   7.659
 2454ETHY    C1 2433  25.403  10.347   7.726
 2455ETHY    C1 2434  25.889  10.121   7.808
 2456ETHY    C1 2435  26.408  10.001   7.896
 2457ETHY    C1 2436  26.946   9.979   7.989
 2458AUSL   AUS 2437  24.795  11.069   7.651
 2459AUSL   AUS 2438  24.538  11.416   7.764
 2460AUL    AUL 2439  24.915  11.396   7.803
 2461THSLK    S 2440  24.723  11.540   7.924
 2462ETHY    C1 2441  25.080  11.732   8.136
 2463ETHY    C1 2442  25.457  12.039   8.377
 2464ETHY    C1 2443  25.758  12.426   8.602
 2465ETHY    C1 2444  25.985  12.877   8.809
 2466THSLK    S 2445  25.056  11.115   7.661
 2467ETHY    C1 2446  25.507  11.085   7.734
 2468ETHY    C1 2447  26.040  11.140   7.821
 2469ETHY    C1 2448  26.546  11.303   7.908
 2470ETHY    C1 2449  27.020  11.561   7.995
 2471AUSL   AUS 2450  23.541  11.315   7.500
 2472AUSL   AUS 2451  23.611  11.170   7.916
 2473AUL    AUL 2452  23.327  11.396   7.803
 2474THSLK    S 2453  23.471  11.296   8.107
 2475ETHY    C1 2454  23.238  11.417   8.482
 2476ETHY    C1 2455  22.909  11.610   8.868
 2477ETHY    C1 2456  22.529  11.849   9.166
 2478ETHY    C1 2457  22.108  12.124   9.381
 2479THSLK    S 2458  23.320  11.455   7.503
 2480ETHY    C1 2459  23.031  11.810   7.502
 2481ETHY    C1 2460  22.623  12.167   7.500
 2482ETHY    C1 2461  22.153  12.431   7.500
 2483ETHY    C1 2462  21.635  12.607   7.503
 2484AUSL   AUS 2463  23.448  11.069   7.348
 2485AUSL   AUS 2464  23.705  11.416   7.236
 2486AUL    AUL 2465  23.327  11.396   7.196
 2487THSLK    S 2466  23.211  11.183   7.303
 2488ETHY    C1 2467  22.839  11.357   7.101
 2489ETHY    C1 2468  22.353  11.533   6.936
 2490ETHY    C1 2469  21.835  11.665   6.868
 2491ETHY    C1 2470  21.297  11.757   6.890
 2492THSLK    S 2471  23.585  11.583   7.056
 2493ETHY    C1 2472  23.433  11.902   6.765
 2494ETHY    C1 2473  23.179  12.282   6.473
 2495ETHY    C1 2474  22.846  12.650   6.260
 2496ETHY    C1 2475  22.450  13.000   6.122
 2497AUSL   AUS 2476  23.448  11.069   7.651
 2498AUSL   AUS 2477  23.448  10.742   7.348
 2499AUL    AUL 2478  23.140  10.906   7.500
 2500THSLK    S 2479  23.186  10.667   7.384
 2501ETHY    C1 2480  22.736  10.616   7.446
 2502ETHY    C1 2481  22.203  10.513   7.434
 2503ETHY    C1 2482  21.696  10.363   7.327
 2504ETHY    C1 2483  21.223  10.170   7.135
 2505THSLK    S 2484  23.210  11.177   7.699
 2506ETHY    C1 2485  22.839  11.353   7.901
 2507ETHY    C1 2486  22.353  11.532   8.063
 2508ETHY    C1 2487  21.835  11.665   8.133
 2509ETHY    C1 2488  21.296  11.751   8.114
 2510AUSL   AUS 2489  24.701  10.496   7.500
 2511AUSL   AUS 2490  24.631  10.641   7.916
 2512AUL    AUL 2491  24.915  10.415   7.803
 2513THSLK    S 2492  24.922  10.356   7.503
 2514ETHY    C1 2493  25.211  10.001   7.502
 2515ETHY    C1 2494  25.620   9.644   7.500
 2516ETHY    C1 2495  26.090   9.380   7.500
 2517ETHY    C1 2496  26.607   9.204   7.503
 2518THSLK    S 2497  24.768  10.451   8.066
 2519ETHY    C1 2498  25.001  10.134   8.297
 2520ETHY    C1 2499  25.334   9.827   8.598
 2521ETHY    C1 2500  25.714   9.617   8.918
 2522ETHY    C1 2501  26.131   9.501   9.250
 2523AUSL   AUS 2502  24.795  10.742   7.348
 2524AUSL   AUS 2503  24.538  10.395   7.236
 2525AUL    AUL 2504  24.915  10.415   7.196
 2526THSLK    S 2505  25.033  10.605   7.346
 2527ETHY    C1 2506  25.404  10.347   7.279
 2528ETHY    C1 2507  25.889  10.121   7.192
 2529ETHY    C1 2508  26.408  10.001   7.103
 2530ETHY    C1 2509  26.947   9.979   7.018
 2531THSLK    S 2510  24.661  10.204   7.099
 2532ETHY    C1 2511  24.811   9.802   6.942
 2533ETHY    C1 2512  25.064   9.372   6.728
 2534ETHY    C1 2513  25.396   9.016   6.495
 2535ETHY    C1 2514  25.795   8.735   6.249
 2536AUSL   AUS 2515  23.541  10.496   7.500
 2537AUSL   AUS 2516  23.611  10.641   7.083
 2538AUL    AUL 2517  23.327  10.415   7.196
 2539THSLK    S 2518  23.436  10.470   6.966
 2540ETHY    C1 2519  23.074  10.224   6.833
 2541ETHY    C1 2520  22.666   9.961   6.589
 2542ETHY    C1 2521  22.305   9.742   6.255
 2543ETHY    C1 2522  21.993   9.564   5.843
 2544THSLK    S 2523  23.271  10.435   7.503
 2545ETHY    C1 2524  22.825  10.335   7.502
 2546ETHY    C1 2525  22.323  10.129   7.500
 2547ETHY    C1 2526  21.876   9.827   7.500
 2548ETHY    C1 2527  21.488   9.443   7.503
 2549AUSL   AUS 2528  23.448  10.742   7.651
 2550AUSL   AUS 2529  23.705  10.395   7.764
 2551AUL    AUL 2530  23.327  10.415   7.803
 2552THSLK    S 2531  23.517  10.247   7.881
 2553ETHY    C1 2532  23.161   9.971   7.958
 2554ETHY    C1 2533  22.786   9.614   8.122
 2555ETHY    C1 2534  22.485   9.240   8.367
 2556ETHY    C1 2535  22.254   8.858   8.682
 2557THSLK    S 2536  23.185  10.672   7.618
 2558ETHY    C1 2537  22.735  10.620   7.557
 2559ETHY    C1 2538  22.203  10.514   7.566
 2560ETHY    C1 2539  21.696  10.363   7.673
 2561ETHY    C1 2540  21.222  10.175   7.867
 2562AUSL   AUS 2541  24.121  11.486   7.909
 2563AUSL   AUS 2542  23.705  11.416   7.764
 2564AUL    AUL 2543  23.818  11.700   7.991
 2565THSLK    S 2544  23.582  11.578   7.948
 2566ETHY    C1 2545  23.431  11.898   8.237
 2567ETHY    C1 2546  23.178  12.281   8.527
 2568ETHY    C1 2547  22.846  12.649   8.740
 2569ETHY    C1 2548  22.447  12.995   8.881
 2570THSLK    S 2549  24.159  11.717   8.034
 2571ETHY    C1 2550  24.287  12.043   8.327
 2572ETHY    C1 2551  24.364  12.475   8.646
 2573ETHY    C1 2552  24.345  12.940   8.920
 2574ETHY    C1 2553  24.239  13.425   9.147
 2575AUSL   AUS 2554  23.970  11.579   7.663
 2576AUSL   AUS 2555  24.273  11.579   7.336
 2577AUL    AUL 2556  24.121  11.887   7.500
 2578THSLK    S 2557  24.007  11.831   7.772
 2579ETHY    C1 2558  24.080  12.255   7.929
 2580ETHY    C1 2559  24.077  12.771   8.095
 2581ETHY    C1 2560  23.969  13.282   8.229
 2582ETHY    C1 2561  23.765  13.778   8.336
 2583THSLK    S 2562  24.324  11.819   7.237
 2584ETHY    C1 2563  24.537  12.196   7.091
 2585ETHY    C1 2564  24.707  12.685   6.929
 2586ETHY    C1 2565  24.774  13.203   6.792
 2587ETHY    C1 2566  24.745  13.737   6.682
 2588AUSL   AUS 2567  24.273  11.579   7.663
 2589AUSL   AUS 2568  24.386  11.322   8.011
 2590AUL    AUL 2569  24.425  11.700   7.991
 2591THSLK    S 2570  24.559  11.439   8.184
 2592ETHY    C1 2571  24.832  11.580   8.522
 2593ETHY    C1 2572  25.113  11.829   8.915
 2594ETHY    C1 2573  25.329  12.162   9.279
 2595ETHY    C1 2574  25.481  12.567   9.614
 2596THSLK    S 2575  24.323  11.817   7.768
 2597ETHY    C1 2576  24.536  12.196   7.913
 2598ETHY    C1 2577  24.707  12.685   8.072
 2599ETHY    C1 2578  24.774  13.203   8.207
 2600ETHY    C1 2579  24.743  13.736   8.325
 2601AUSL   AUS 2580  24.121  10.325   7.909
 2602AUSL   AUS 2581  24.538  10.395   7.764
 2603AUL    AUL 2582  24.425  10.111   7.991
 2604THSLK    S 2583  24.080  10.068   7.992
 2605ETHY    C1 2584  23.953   9.659   8.152
 2606ETHY    C1 2585  23.879   9.178   8.391
 2607ETHY    C1 2586  23.898   8.726   8.684
 2608ETHY    C1 2587  24.000   8.308   9.021
 2609THSLK    S 2588  24.658  10.205   7.907
 2610ETHY    C1 2589  24.809   9.803   8.062
 2611ETHY    C1 2590  25.064   9.372   8.272
 2612ETHY    C1 2591  25.396   9.016   8.505
 2613ETHY    C1 2592  25.792   8.737   8.758
 2614AUSL   AUS 2593  23.970  10.232   7.663
 2615AUSL   AUS 2594  23.857  10.489   8.011
 2616AUL    AUL 2595  23.818  10.111   7.991
 2617THSLK    S 2596  23.919   9.987   7.744
 2618ETHY    C1 2597  23.706   9.588   7.812
 2619ETHY    C1 2598  23.535   9.085   7.925
 2620ETHY    C1 2599  23.469   8.571   8.072
 2621ETHY    C1 2600  23.498   8.056   8.252
 2622THSLK    S 2601  23.679  10.319   8.136
 2623ETHY    C1 2602  23.407  10.004   8.327
 2624ETHY    C1 2603  23.129   9.653   8.633
 2625ETHY    C1 2604  22.913   9.345   9.019
 2626ETHY    C1 2605  22.757   9.083   9.473
 2627AUSL   AUS 2606  24.273  10.232   7.663
 2628AUSL   AUS 2607  23.970  10.232   7.336
 2629AUL    AUL 2608  24.121   9.924   7.500
 2630THSLK    S 2609  23.920   9.985   7.261
 2631ETHY    C1 2610  23.707   9.587   7.192
 2632ETHY    C1 2611  23.535   9.085   7.076
 2633ETHY    C1 2612  23.469   8.571   6.927
 2634ETHY    C1 2613  23.500   8.054   6.754
 2635THSLK    S 2614  24.234   9.973   7.748
 2636ETHY    C1 2615  24.162   9.528   7.829
 2637ETHY    C1 2616  24.165   8.999   7.948
 2638ETHY    C1 2617  24.274   8.491   8.095
 2639ETHY    C1 2618  24.476   8.013   8.264
 2640AUSL   AUS 2619  24.121  11.486   7.091
 2641AUSL   AUS 2620  24.538  11.416   7.236
 2642AUL    AUL 2621  24.425  11.700   7.009
 2643THSLK    S 2622  24.163  11.720   6.971
 2644ETHY    C1 2623  24.290  12.045   6.676
 2645ETHY    C1 2624  24.364  12.475   6.353
 2646ETHY    C1 2625  24.345  12.940   6.080
 2647ETHY    C1 2626  24.242  13.428   5.857
 2648THSLK    S 2627  24.725  11.541   7.081
 2649ETHY    C1 2628  25.082  11.733   6.869
 2650ETHY    C1 2629  25.457  12.039   6.623
 2651ETHY    C1 2630  25.758  12.426   6.398
 2652ETHY    C1 2631  25.988  12.878   6.197
 2653AUSL   AUS 2632  23.970  11.579   7.336
 2654AUSL   AUS 2633  23.857  11.322   6.990
 2655AUL    AUL 2634  23.818  11.700   7.009
 2656THSLK    S 2635  24.009  11.833   7.233
 2657ETHY    C1 2636  24.081  12.256   7.074
 2658ETHY    C1 2637  24.078  12.772   6.906
 2659ETHY    C1 2638  23.969  13.282   6.770
 2660ETHY    C1 2639  23.767  13.780   6.670
 2661THSLK    S 2640  23.738  11.459   6.800
 2662ETHY    C1 2641  23.642  11.653   6.396
 2663ETHY    C1 2642  23.465  11.931   5.966
 2664ETHY    C1 2643  23.222  12.256   5.611
 2665ETHY    C1 2644  22.926  12.621   5.330
 2666AUSL   AUS 2645  24.121  10.325   7.091
 2667AUSL   AUS 2646  23.705  10.395   7.236
 2668AUL    AUL 2647  23.818  10.111   7.009
 2669THSLK    S 2648  23.520  10.242   7.122
 2670ETHY    C1 2649  23.163   9.968   7.044
 2671ETHY    C1 2650  22.786   9.614   6.878
 2672ETHY    C1 2651  22.484   9.240   6.633
 2673ETHY    C1 2652  22.257   8.853   6.321
 2674THSLK    S 2653  24.083  10.065   7.013
 2675ETHY    C1 2654  23.955   9.657   6.852
 2676ETHY    C1 2655  23.879   9.178   6.609
 2677ETHY    C1 2656  23.898   8.726   6.315
 2678ETHY    C1 2657  24.004   8.305   5.983
 2679AUSL   AUS 2658  24.273  10.232   7.336
 2680AUSL   AUS 2659  24.386  10.489   6.990
 2681AUL    AUL 2660  24.425  10.111   7.009
 2682THSLK    S 2661  24.236   9.972   7.258
 2683ETHY    C1 2662  24.163   9.527   7.175
 2684ETHY    C1 2663  24.165   8.999   7.052
 2685ETHY    C1 2664  24.273   8.491   6.905
 2686ETHY    C1 2665  24.478   8.012   6.742
 2687THSLK    S 2666  24.509  10.299   6.847
 2688ETHY    C1 2667  24.604   9.931   6.592
 2689ETHY    C1 2668  24.778   9.550   6.247
 2690ETHY    C1 2669  25.020   9.250   5.870
 2691ETHY    C1 2670  25.321   9.029   5.471
 2692AUC    AUC 2671  19.266  27.292   7.500
 2693AUC    AUC 2672  19.512  27.292   7.348
 2694AUC    AUC 2673  19.512  27.292   7.651
 2695AUC    AUC 2674  19.021  27.292   7.348
 2696AUC    AUC 2675  19.021  27.292   7.651
 2697AUC    AUC 2676  19.115  27.537   7.500
 2698AUC    AUC 2677  19.418  27.537   7.500
 2699AUC    AUC 2678  19.115  27.046   7.500
 2700AUC    AUC 2679  19.418  27.046   7.500
 2701AUC    AUC 2680  19.266  27.140   7.745
 2702AUC    AUC 2681  19.266  27.443   7.745
 2703AUC    AUC 2682  19.266  27.140   7.254
 2704AUC    AUC 2683  19.266  27.443   7.254
 2705AUC    AUC 2684  19.757  27.292   7.196
 2706AUC    AUC 2685  19.757  27.292   7.500
 2707AUC    AUC 2686  19.757  27.292   7.803
 2708AUC    AUC 2687  18.775  27.292   7.196
 2709AUC    AUC 2688  18.775  27.292   7.500
 2710AUC    AUC 2689  18.775  27.292   7.803
 2711AUC    AUC 2690  18.963  27.782   7.500
 2712AUC    AUC 2691  19.266  27.782   7.500
 2713AUC    AUC 2692  19.570  27.782   7.500
 2714AUC    AUC 2693  18.963  26.801   7.500
 2715AUC    AUC 2694  19.266  26.801   7.500
 2716AUC    AUC 2695  19.570  26.801   7.500
 2717AUC    AUC 2696  19.266  26.988   7.991
 2718AUC    AUC 2697  19.266  27.292   7.991
 2719AUC    AUC 2698  19.266  27.595   7.991
 2720AUC    AUC 2699  19.266  26.988   7.009
 2721AUC    AUC 2700  19.266  27.292   7.009
 2722AUC    AUC 2701  19.266  27.595   7.009
 2723AUC    AUC 2702  19.512  27.140   7.897
 2724AUC    AUC 2703  19.512  27.443   7.897
 2725AUC    AUC 2704  19.512  27.140   7.103
 2726AUC    AUC 2705  19.512  27.443   7.103
 2727AUC    AUC 2706  19.021  27.140   7.897
 2728AUC    AUC 2707  19.021  27.443   7.897
 2729AUC    AUC 2708  19.021  27.140   7.103
 2730AUC    AUC 2709  19.021  27.443   7.103
 2731AUC    AUC 2710  19.663  27.537   7.348
 2732AUC    AUC 2711  19.663  27.537   7.651
 2733AUC    AUC 2712  18.869  27.537   7.348
 2734AUC    AUC 2713  18.869  27.537   7.651
 2735AUC    AUC 2714  19.663  27.046   7.348
 2736AUC    AUC 2715  19.663  27.046   7.651
 2737AUC    AUC 2716  18.869  27.046   7.348
 2738AUC    AUC 2717  18.869  27.046   7.651
 2739AUC    AUC 2718  19.115  27.689   7.745
 2740AUC    AUC 2719  19.418  27.689   7.745
 2741AUC    AUC 2720  19.115  26.894   7.745
 2742AUC    AUC 2721  19.418  26.894   7.745
 2743AUC    AUC 2722  19.115  27.689   7.254
 2744AUC    AUC 2723  19.418  27.689   7.254
 2745AUC    AUC 2724  19.115  26.894   7.254
 2746AUC    AUC 2725  19.418  26.894   7.254
 2747AUSL   AUS 2726  19.675  27.292   8.080
 2748AUSL   AUS 2727  19.531  26.875   8.011
 2749AUL    AUL 2728  19.757  26.988   8.294
 2750THSLK    S 2729  19.649  26.687   8.156
 2751ETHY    C1 2730  19.745  26.319   8.412
 2752ETHY    C1 2731  19.923  25.936   8.753
 2753ETHY    C1 2732  20.165  25.636   9.130
 2754ETHY    C1 2733  20.461  25.417   9.534
 2755THSLK    S 2734  19.774  27.245   8.327
 2756ETHY    C1 2735  20.001  27.095   8.694
 2757ETHY    C1 2736  20.285  27.007   9.148
 2758ETHY    C1 2737  20.569  27.029   9.607
 2759ETHY    C1 2738  20.846  27.151  10.061
 2760AUSL   AUS 2739  19.430  27.140   8.173
 2761AUSL   AUS 2740  19.103  27.443   8.173
 2762AUL    AUL 2741  19.266  27.292   8.482
 2763THSLK    S 2742  19.511  27.089   8.418
 2764ETHY    C1 2743  19.601  26.871   8.810
 2765ETHY    C1 2744  19.729  26.697   9.308
 2766ETHY    C1 2745  19.875  26.632   9.823
 2767ETHY    C1 2746  20.032  26.666  10.346
 2768THSLK    S 2747  19.016  27.403   8.432
 2769ETHY    C1 2748  18.927  27.329   8.874
 2770ETHY    C1 2749  18.803  27.331   9.403
 2771ETHY    C1 2750  18.658  27.440   9.912
 2772ETHY    C1 2751  18.495  27.644  10.392
 2773AUSL   AUS 2752  19.430  27.443   8.173
 2774AUSL   AUS 2753  19.776  27.556   7.916
 2775AUL    AUL 2754  19.757  27.595   8.294
 2776THSLK    S 2755  19.517  27.495   8.416
 2777ETHY    C1 2756  19.605  27.712   8.809
 2778ETHY    C1 2757  19.730  27.885   9.308
 2779ETHY    C1 2758  19.875  27.951   9.823
 2780ETHY    C1 2759  20.038  27.918  10.345
 2781THSLK    S 2760  19.952  27.662   8.079
 2782ETHY    C1 2761  20.314  27.712   8.355
 2783ETHY    C1 2762  20.721  27.861   8.681
 2784ETHY    C1 2763  21.083  28.110   8.995
 2785ETHY    C1 2764  21.395  28.446   9.293
 2786AUSL   AUS 2765  19.675  27.292   6.920
 2787AUSL   AUS 2766  19.531  27.708   6.990
 2788AUL    AUL 2767  19.757  27.595   6.706
 2789THSLK    S 2768  19.779  27.245   6.676
 2790ETHY    C1 2769  20.006  27.095   6.308
 2791ETHY    C1 2770  20.285  27.007   5.851
 2792ETHY    C1 2771  20.569  27.029   5.393
 2793ETHY    C1 2772  20.851  27.151   4.941
 2794THSLK    S 2773  19.708  27.827   6.820
 2795ETHY    C1 2774  19.980  27.968   6.480
 2796ETHY    C1 2775  20.258  28.215   6.085
 2797ETHY    C1 2776  20.474  28.548   5.720
 2798ETHY    C1 2777  20.631  28.955   5.391
 2799AUSL   AUS 2778  19.430  27.140   6.826
 2800AUSL   AUS 2779  19.776  27.027   7.083
 2801AUL    AUL 2780  19.757  26.988   6.706
 2802THSLK    S 2781  19.916  26.836   6.939
 2803ETHY    C1 2782  20.149  26.519   6.707
 2804ETHY    C1 2783  20.479  26.212   6.403
 2805ETHY    C1 2784  20.859  26.003   6.083
 2806ETHY    C1 2785  21.280  25.886   5.754
 2807THSLK    S 2786  19.517  27.088   6.583
 2808ETHY    C1 2787  19.605  26.871   6.191
 2809ETHY    C1 2788  19.730  26.698   5.692
 2810ETHY    C1 2789  19.875  26.632   5.176
 2811ETHY    C1 2790  20.038  26.665   4.656
 2812AUSL   AUS 2791  19.430  27.443   6.826
 2813AUSL   AUS 2792  19.103  27.140   6.826
 2814AUL    AUL 2793  19.266  27.292   6.518
 2815THSLK    S 2794  19.007  27.088   6.586
 2816ETHY    C1 2795  18.868  26.873   6.206
 2817ETHY    C1 2796  18.711  26.702   5.717
 2818ETHY    C1 2797  18.572  26.636   5.199
 2819ETHY    C1 2798  18.456  26.667   4.666
 2820THSLK    S 2799  19.532  27.404   6.572
 2821ETHY    C1 2800  19.669  27.327   6.142
 2822ETHY    C1 2801  19.822  27.327   5.622
 2823ETHY    C1 2802  19.960  27.436   5.112
 2824ETHY    C1 2803  20.083  27.643   4.621
 2825AUSL   AUS 2804  18.857  27.292   8.080
 2826AUSL   AUS 2805  19.002  27.708   8.011
 2827AUL    AUL 2806  18.775  27.595   8.294
 2828THSLK    S 2807  18.753  27.245   8.325
 2829ETHY    C1 2808  18.527  27.095   8.691
 2830ETHY    C1 2809  18.247  27.007   9.148
 2831ETHY    C1 2810  17.964  27.029   9.607
 2832ETHY    C1 2811  17.681  27.151  10.058
 2833THSLK    S 2812  18.879  27.841   8.201
 2834ETHY    C1 2813  18.783  28.036   8.604
 2835ETHY    C1 2814  18.610  28.317   9.034
 2836ETHY    C1 2815  18.367  28.643   9.390
 2837ETHY    C1 2816  18.066  29.002   9.671
 2838AUSL   AUS 2817  19.103  27.140   8.173
 2839AUSL   AUS 2818  18.756  27.027   7.916
 2840AUL    AUL 2819  18.775  26.988   8.294
 2841THSLK    S 2820  18.577  26.861   8.032
 2842ETHY    C1 2821  18.216  26.614   8.166
 2843ETHY    C1 2822  17.811  26.348   8.410
 2844ETHY    C1 2823  17.450  26.128   8.745
 2845ETHY    C1 2824  17.134  25.955   9.156
 2846THSLK    S 2825  19.001  27.090   8.413
 2847ETHY    C1 2826  18.863  26.875   8.793
 2848ETHY    C1 2827  18.710  26.702   9.284
 2849ETHY    C1 2828  18.573  26.636   9.800
 2850ETHY    C1 2829  18.449  26.668  10.332
 2851AUSL   AUS 2830  18.857  27.292   6.920
 2852AUSL   AUS 2831  19.002  26.875   6.990
 2853AUL    AUL 2832  18.775  26.988   6.706
 2854THSLK    S 2833  18.758  27.245   6.673
 2855ETHY    C1 2834  18.531  27.095   6.305
 2856ETHY    C1 2835  18.248  27.007   5.851
 2857ETHY    C1 2836  17.964  27.029   5.393
 2858ETHY    C1 2837  17.687  27.151   4.938
 2859THSLK    S 2838  18.828  26.700   6.865
 2860ETHY    C1 2839  18.556  26.387   6.673
 2861ETHY    C1 2840  18.275  26.039   6.367
 2862ETHY    C1 2841  18.058  25.731   5.980
 2863ETHY    C1 2842  17.906  25.464   5.528
 2864AUSL   AUS 2843  19.103  27.443   6.826
 2865AUSL   AUS 2844  18.756  27.556   7.083
 2866AUL    AUL 2845  18.775  27.595   6.706
 2867THSLK    S 2846  18.620  27.687   6.893
 2868ETHY    C1 2847  18.386  27.808   6.518
 2869ETHY    C1 2848  18.054  27.996   6.132
 2870ETHY    C1 2849  17.674  28.235   5.833
 2871ETHY    C1 2850  17.257  28.515   5.618
 2872THSLK    S 2851  19.022  27.405   6.566
 2873ETHY    C1 2852  18.932  27.330   6.124
 2874ETHY    C1 2853  18.804  27.331   5.597
 2875ETHY    C1 2854  18.658  27.440   5.089
 2876ETHY    C1 2855  18.501  27.646   4.608
 2877AUSL   AUS 2856  19.846  27.701   7.500
 2878AUSL   AUS 2857  19.776  27.556   7.083
 2879AUL    AUL 2858  20.060  27.782   7.196
 2880THSLK    S 2859  19.956  27.663   6.925
 2881ETHY    C1 2860  20.317  27.713   6.648
 2882ETHY    C1 2861  20.721  27.861   6.319
 2883ETHY    C1 2862  21.083  28.110   6.005
 2884ETHY    C1 2863  21.399  28.447   5.713
 2885THSLK    S 2864  20.116  27.762   7.503
 2886ETHY    C1 2865  20.563  27.862   7.502
 2887ETHY    C1 2866  21.065  28.068   7.500
 2888ETHY    C1 2867  21.512  28.370   7.500
 2889ETHY    C1 2868  21.900  28.754   7.503
 2890AUSL   AUS 2869  19.940  27.455   7.348
 2891AUSL   AUS 2870  19.940  27.128   7.651
 2892AUL    AUL 2871  20.248  27.292   7.500
 2893THSLK    S 2872  20.202  27.502   7.345
 2894ETHY    C1 2873  20.652  27.471   7.270
 2895ETHY    C1 2874  21.184  27.526   7.179
 2896ETHY    C1 2875  21.691  27.689   7.091
 2897ETHY    C1 2876  22.166  27.947   7.011
 2898THSLK    S 2877  20.177  26.991   7.659
 2899ETHY    C1 2878  20.548  26.733   7.726
 2900ETHY    C1 2879  21.034  26.507   7.808
 2901ETHY    C1 2880  21.553  26.387   7.896
 2902ETHY    C1 2881  22.091  26.365   7.989
 2903AUSL   AUS 2882  19.940  27.455   7.651
 2904AUSL   AUS 2883  19.683  27.802   7.764
 2905AUL    AUL 2884  20.060  27.782   7.803
 2906THSLK    S 2885  19.868  27.926   7.924
 2907ETHY    C1 2886  20.225  28.118   8.136
 2908ETHY    C1 2887  20.602  28.425   8.377
 2909ETHY    C1 2888  20.903  28.812   8.602
 2910ETHY    C1 2889  21.130  29.263   8.809
 2911THSLK    S 2890  20.201  27.501   7.661
 2912ETHY    C1 2891  20.652  27.471   7.734
 2913ETHY    C1 2892  21.185  27.526   7.821
 2914ETHY    C1 2893  21.691  27.689   7.908
 2915ETHY    C1 2894  22.165  27.947   7.995
 2916AUSL   AUS 2895  18.686  27.701   7.500
 2917AUSL   AUS 2896  18.756  27.556   7.916
 2918AUL    AUL 2897  18.472  27.782   7.803
 2919THSLK    S 2898  18.616  27.682   8.107
 2920ETHY    C1 2899  18.383  27.803   8.482
 2921ETHY    C1 2900  18.054  27.996   8.868
 2922ETHY    C1 2901  17.674  28.235   9.166
 2923ETHY    C1 2902  17.253  28.510   9.381
 2924THSLK    S 2903  18.465  27.841   7.503
 2925ETHY    C1 2904  18.176  28.196   7.502
 2926ETHY    C1 2905  17.768  28.553   7.500
 2927ETHY    C1 2906  17.298  28.817   7.500
 2928ETHY    C1 2907  16.780  28.993   7.503
 2929AUSL   AUS 2908  18.593  27.455   7.348
 2930AUSL   AUS 2909  18.850  27.802   7.236
 2931AUL    AUL 2910  18.472  27.782   7.196
 2932THSLK    S 2911  18.356  27.569   7.303
 2933ETHY    C1 2912  17.984  27.743   7.101
 2934ETHY    C1 2913  17.498  27.919   6.936
 2935ETHY    C1 2914  16.980  28.051   6.868
 2936ETHY    C1 2915  16.442  28.143   6.890
 2937THSLK    S 2916  18.730  27.969   7.056
 2938ETHY    C1 2917  18.578  28.288   6.765
 2939ETHY    C1 2918  18.324  28.668   6.473
 2940ETHY    C1 2919  17.991  29.036   6.260
 2941ETHY    C1 2920  17.595  29.386   6.122
 2942AUSL   AUS 2921  18.593  27.455   7.651
 2943AUSL   AUS 2922  18.593  27.128   7.348
 2944AUL    AUL 2923  18.285  27.292   7.500
 2945THSLK    S 2924  18.331  27.053   7.384
 2946ETHY    C1 2925  17.881  27.002   7.446
 2947ETHY    C1 2926  17.348  26.899   7.434
 2948ETHY    C1 2927  16.841  26.749   7.327
 2949ETHY    C1 2928  16.368  26.556   7.135
 2950THSLK    S 2929  18.355  27.563   7.699
 2951ETHY    C1 2930  17.984  27.739   7.901
 2952ETHY    C1 2931  17.498  27.918   8.063
 2953ETHY    C1 2932  16.980  28.051   8.133
 2954ETHY    C1 2933  16.441  28.137   8.114
 2955AUSL   AUS 2934  19.846  26.882   7.500
 2956AUSL   AUS 2935  19.776  27.027   7.916
 2957AUL    AUL 2936  20.060  26.801   7.803
 2958THSLK    S 2937  20.067  26.742   7.503
 2959ETHY    C1 2938  20.356  26.387   7.502
 2960ETHY    C1 2939  20.765  26.030   7.500
 2961ETHY    C1 2940  21.235  25.766   7.500
 2962ETHY    C1 2941  21.752  25.590   7.503
 2963THSLK    S 2942  19.913  26.837   8.066
 2964ETHY    C1 2943  20.146  26.520   8.297
 2965ETHY    C1 2944  20.479  26.213   8.598
 2966ETHY    C1 2945  20.859  26.003   8.918
 2967ETHY    C1 2946  21.276  25.887   9.250
 2968AUSL   AUS 2947  19.940  27.128   7.348
 2969AUSL   AUS 2948  19.683  26.781   7.236
 2970AUL    AUL 2949  20.060  26.801   7.196
 2971THSLK    S 2950  20.178  26.991   7.346
 2972ETHY    C1 2951  20.549  26.733   7.279
 2973ETHY    C1 2952  21.034  26.507   7.192
 2974ETHY    C1 2953  21.553  26.387   7.103
 2975ETHY    C1 2954  22.092  26.365   7.018
 2976THSLK    S 2955  19.806  26.590   7.099
 2977ETHY    C1 2956  19.956  26.188   6.942
 2978ETHY    C1 2957  20.209  25.758   6.728
 2979ETHY    C1 2958  20.541  25.402   6.495
 2980ETHY    C1 2959  20.940  25.121   6.249
 2981AUSL   AUS 2960  18.686  26.882   7.500
 2982AUSL   AUS 2961  18.756  27.027   7.083
 2983AUL    AUL 2962  18.472  26.801   7.196
 2984THSLK    S 2963  18.581  26.856   6.966
 2985ETHY    C1 2964  18.219  26.610   6.833
 2986ETHY    C1 2965  17.811  26.347   6.589
 2987ETHY    C1 2966  17.450  26.128   6.255
 2988ETHY    C1 2967  17.138  25.950   5.843
 2989THSLK    S 2968  18.416  26.821   7.503
 2990ETHY    C1 2969  17.970  26.721   7.502
 2991ETHY    C1 2970  17.468  26.515   7.500
 2992ETHY    C1 2971  17.021  26.213   7.500
 2993ETHY    C1 2972  16.633  25.829   7.503
 2994AUSL   AUS 2973  18.593  27.128   7.651
 2995AUSL   AUS 2974  18.850  26.781   7.764
 2996AUL    AUL 2975  18.472  26.801   7.803
 2997THSLK    S 2976  18.662  26.633   7.881
 2998ETHY    C1 2977  18.306  26.357   7.958
 2999ETHY    C1 2978  17.931  26.000   8.122
 3000ETHY    C1 2979  17.630  25.626   8.367
 3001ETHY    C1 2980  17.399  25.244   8.682
 3002THSLK    S 2981  18.330  27.058   7.618
 3003ETHY    C1 2982  17.880  27.006   7.557
 3004ETHY    C1 2983  17.348  26.900   7.566
 3005ETHY    C1 2984  16.841  26.749   7.673
 3006ETHY    C1 2985  16.367  26.561   7.867
 3007AUSL   AUS 2986  19.266  27.872   7.909
 3008AUSL   AUS 2987  18.850  27.802   7.764
 3009AUL    AUL 2988  18.963  28.086   7.991
 3010THSLK    S 2989  18.727  27.964   7.948
 3011ETHY    C1 2990  18.576  28.284   8.237
 3012ETHY    C1 2991  18.323  28.667   8.527
 3013ETHY    C1 2992  17.991  29.035   8.740
 3014ETHY    C1 2993  17.592  29.381   8.881
 3015THSLK    S 2994  19.304  28.103   8.034
 3016ETHY    C1 2995  19.432  28.429   8.327
 3017ETHY    C1 2996  19.509  28.861   8.646
 3018ETHY    C1 2997  19.490  29.326   8.920
 3019ETHY    C1 2998  19.384  29.811   9.147
 3020AUSL   AUS 2999  19.115  27.965   7.663
 3021AUSL   AUS 3000  19.418  27.965   7.336
 3022AUL    AUL 3001  19.266  28.273   7.500
 3023THSLK    S 3002  19.152  28.217   7.772
 3024ETHY    C1 3003  19.225  28.641   7.929
 3025ETHY    C1 3004  19.222  29.157   8.095
 3026ETHY    C1 3005  19.114  29.668   8.229
 3027ETHY    C1 3006  18.910  30.164   8.336
 3028THSLK    S 3007  19.469  28.205   7.237
 3029ETHY    C1 3008  19.682  28.582   7.091
 3030ETHY    C1 3009  19.852  29.071   6.929
 3031ETHY    C1 3010  19.919  29.589   6.792
 3032ETHY    C1 3011  19.890  30.123   6.682
 3033AUSL   AUS 3012  19.418  27.965   7.663
 3034AUSL   AUS 3013  19.531  27.708   8.011
 3035AUL    AUL 3014  19.570  28.086   7.991
 3036THSLK    S 3015  19.704  27.825   8.184
 3037ETHY    C1 3016  19.977  27.966   8.522
 3038ETHY    C1 3017  20.258  28.215   8.915
 3039ETHY    C1 3018  20.474  28.548   9.279
 3040ETHY    C1 3019  20.626  28.953   9.614
 3041THSLK    S 3020  19.468  28.203   7.768
 3042ETHY    C1 3021  19.681  28.582   7.913
 3043ETHY    C1 3022  19.852  29.071   8.072
 3044ETHY    C1 3023  19.919  29.589   8.207
 3045ETHY    C1 3024  19.888  30.122   8.325
 3046AUSL   AUS 3025  19.266  26.711   7.909
 3047AUSL   AUS 3026  19.683  26.781   7.764
 3048AUL    AUL 3027  19.570  26.497   7.991
 3049THSLK    S 3028  19.225  26.454   7.992
 3050ETHY    C1 3029  19.098  26.045   8.152
 3051ETHY    C1 3030  19.024  25.564   8.391
 3052ETHY    C1 3031  19.043  25.112   8.684
 3053ETHY    C1 3032  19.145  24.694   9.021
 3054THSLK    S 3033  19.803  26.591   7.907
 3055ETHY    C1 3034  19.954  26.189   8.062
 3056ETHY    C1 3035  20.209  25.758   8.272
 3057ETHY    C1 3036  20.541  25.402   8.505
 3058ETHY    C1 3037  20.937  25.123   8.758
 3059AUSL   AUS 3038  19.115  26.618   7.663
 3060AUSL   AUS 3039  19.002  26.875   8.011
 3061AUL    AUL 3040  18.963  26.497   7.991
 3062THSLK    S 3041  19.064  26.373   7.744
 3063ETHY    C1 3042  18.851  25.974   7.812
 3064ETHY    C1 3043  18.680  25.471   7.925
 3065ETHY    C1 3044  18.614  24.957   8.072
 3066ETHY    C1 3045  18.643  24.442   8.252
 3067THSLK    S 3046  18.824  26.705   8.136
 3068ETHY    C1 3047  18.552  26.390   8.327
 3069ETHY    C1 3048  18.274  26.039   8.633
 3070ETHY    C1 3049  18.058  25.731   9.019
 3071ETHY    C1 3050  17.902  25.469   9.473
 3072AUSL   AUS 3051  19.418  26.618   7.663
 3073AUSL   AUS 3052  19.115  26.618   7.336
 3074AUL    AUL 3053  19.266  26.310   7.500
 3075THSLK    S 3054  19.065  26.371   7.261
 3076ETHY    C1 3055  18.852  25.973   7.192
 3077ETHY    C1 3056  18.680  25.471   7.076
 3078ETHY    C1 3057  18.614  24.957   6.927
 3079ETHY    C1 3058  18.645  24.440   6.754
 3080THSLK    S 3059  19.379  26.359   7.748
 3081ETHY    C1 3060  19.307  25.914   7.829
 3082ETHY    C1 3061  19.310  25.385   7.948
 3083ETHY    C1 3062  19.419  24.877   8.095
 3084ETHY    C1 3063  19.621  24.399   8.264
 3085AUSL   AUS 3064  19.266  27.872   7.091
 3086AUSL   AUS 3065  19.683  27.802   7.236
 3087AUL    AUL 3066  19.570  28.086   7.009
 3088THSLK    S 3067  19.308  28.106   6.971
 3089ETHY    C1 3068  19.435  28.431   6.676
 3090ETHY    C1 3069  19.509  28.861   6.353
 3091ETHY    C1 3070  19.490  29.326   6.080
 3092ETHY    C1 3071  19.387  29.814   5.857
 3093THSLK    S 3072  19.870  27.927   7.081
 3094ETHY    C1 3073  20.227  28.119   6.869
 3095ETHY    C1 3074  20.602  28.425   6.623
 3096ETHY    C1 3075  20.903  28.812   6.398
 3097ETHY    C1 3076  21.133  29.264   6.197
 3098AUSL   AUS 3077  19.115  27.965   7.336
 3099AUSL   AUS 3078  19.002  27.708   6.990
 3100AUL    AUL 3079  18.963  28.086   7.009
 3101THSLK    S 3080  19.154  28.219   7.233
 3102ETHY    C1 3081  19.226  28.642   7.074
 3103ETHY    C1 3082  19.223  29.158   6.906
 3104ETHY    C1 3083  19.114  29.668   6.770
 3105ETHY    C1 3084  18.912  30.166   6.670
 3106THSLK    S 3085  18.883  27.845   6.800
 3107ETHY    C1 3086  18.787  28.039   6.396
 3108ETHY    C1 3087  18.610  28.317   5.966
 3109ETHY    C1 3088  18.367  28.642   5.611
 3110ETHY    C1 3089  18.071  29.007   5.330
 3111AUSL   AUS 3090  19.266  26.711   7.091
 3112AUSL   AUS 3091  18.850  26.781   7.236
 3113AUL    AUL 3092  18.963  26.497   7.009
 3114THSLK    S 3093  18.665  26.628   7.122
 3115ETHY    C1 3094  18.308  26.354   7.044
 3116ETHY    C1 3095  17.931  26.000   6.878
 3117ETHY    C1 3096  17.629  25.626   6.633
 3118ETHY    C1 3097  17.402  25.239   6.321
 3119THSLK    S 3098  19.228  26.451   7.013
 3120ETHY    C1 3099  19.100  26.043   6.852
 3121ETHY    C1 3100  19.024  25.564   6.609
 3122ETHY    C1 3101  19.043  25.112   6.315
 3123ETHY    C1 3102  19.149  24.691   5.983
 3124AUSL   AUS 3103  19.418  26.618   7.336
 3125AUSL   AUS 3104  19.531  26.875   6.990
 3126AUL    AUL 3105  19.570  26.497   7.009
 3127THSLK    S 3106  19.381  26.358   7.258
 3128ETHY    C1 3107  19.308  25.913   7.175
 3129ETHY    C1 3108  19.310  25.385   7.052
 3130ETHY    C1 3109  19.418  24.877   6.905
 3131ETHY    C1 3110  19.623  24.398   6.742
 3132THSLK    S 3111  19.654  26.685   6.847
 3133ETHY    C1 3112  19.749  26.317   6.592
 3134ETHY    C1 3113  19.923  25.936   6.247
 3135ETHY    C1 3114  20.165  25.636   5.870
 3136ETHY    C1 3115  20.466  25.415   5.471
 3137AUC    AUC 3116  42.630  37.450   7.500
 3138AUC    AUC 3117  42.876  37.450   7.348
 3139AUC    AUC 3118  42.876  37.450   7.651
 3140AUC    AUC 3119  42.385  37.450   7.348
 3141AUC    AUC 3120  42.385  37.450   7.651
 3142AUC    AUC 3121  42.479  37.695   7.500
 3143AUC    AUC 3122  42.782  37.695   7.500
 3144AUC    AUC 3123  42.479  37.204   7.500
 3145AUC    AUC 3124  42.782  37.204   7.500
 3146AUC    AUC 3125  42.630  37.298   7.745
 3147AUC    AUC 3126  42.630  37.601   7.745
 3148AUC    AUC 3127  42.630  37.298   7.254
 3149AUC    AUC 3128  42.630  37.601   7.254
 3150AUC    AUC 3129  43.121  37.450   7.196
 3151AUC    AUC 3130  43.121  37.450   7.500
 3152AUC    AUC 3131  43.121  37.450   7.803
 3153AUC    AUC 3132  42.139  37.450   7.196
 3154AUC    AUC 3133  42.139  37.450   7.500
 3155AUC    AUC 3134  42.139  37.450   7.803
 3156AUC    AUC 3135  42.327  37.940   7.500
 3157AUC    AUC 3136  42.630  37.940   7.500
 3158AUC    AUC 3137  42.934  37.940   7.500
 3159AUC    AUC 3138  42.327  36.959   7.500
 3160AUC    AUC 3139  42.630  36.959   7.500
 3161AUC    AUC 3140  42.934  36.959   7.500
 3162AUC    AUC 3141  42.630  37.146   7.991
 3163AUC    AUC 3142  42.630  37.450   7.991
 3164AUC    AUC 3143  42.630  37.753   7.991
 3165AUC    AUC 3144  42.630  37.146   7.009
 3166AUC    AUC 3145  42.630  37.450   7.009
 3167AUC    AUC 3146  42.630  37.753   7.009
 3168AUC    AUC 3147  42.876  37.298   7.897
 3169AUC    AUC 3148  42.876  37.601   7.897
 3170AUC    AUC 3149  42.876  37.298   7.103
 3171AUC    AUC 3150  42.876  37.601   7.103
 3172AUC    AUC 3151  42.385  37.298   7.897
 3173AUC    AUC 3152  42.385  37.601   7.897
 3174AUC    AUC 3153  42.385  37.298   7.103
 3175AUC    AUC 3154  42.385  37.601   7.103
 3176AUC    AUC 3155  43.027  37.695   7.348
 3177AUC    AUC 3156  43.027  37.695   7.651
 3178AUC    AUC 3157  42.233  37.695   7.348
 3179AUC    AUC 3158  42.233  37.695   7.651
 3180AUC    AUC 3159  43.027  37.204   7.348
 3181AUC    AUC 3160  43.027  37.204   7.651
 3182AUC    AUC 3161  42.233  37.204   7.348
 3183AUC    AUC 3162  42.233  37.204   7.651
 3184AUC    AUC 3163  42.479  37.847   7.745
 3185AUC    AUC 3164  42.782  37.847   7.745
 3186AUC    AUC 3165  42.479  37.052   7.745
 3187AUC    AUC 3166  42.782  37.052   7.745
 3188AUC    AUC 3167  42.479  37.847   7.254
 3189AUC    AUC 3168  42.782  37.847   7.254
 3190AUC    AUC 3169  42.479  37.052   7.254
 3191AUC    AUC 3170  42.782  37.052   7.254
 3192AUSL   AUS 3171  43.039  37.450   8.080
 3193AUSL   AUS 3172  42.895  37.033   8.011
 3194AUL    AUL 3173  43.121  37.146   8.294
 3195THSLK    S 3174  43.013  36.845   8.156
 3196ETHY    C1 3175  43.109  36.477   8.412
 3197ETHY    C1 3176  43.287  36.094   8.753
 3198ETHY    C1 3177  43.529  35.794   9.130
 3199ETHY    C1 3178  43.825  35.575   9.534
 3200THSLK    S 3179  43.138  37.403   8.327
 3201ETHY    C1 3180  43.365  37.253   8.694
 3202ETHY    C1 3181  43.649  37.165   9.148
 3203ETHY    C1 3182  43.933  37.187   9.607
 3204ETHY    C1 3183  44.210  37.309  10.061
 3205AUSL   AUS 3184  42.794  37.298   8.173
 3206AUSL   AUS 3185  42.467  37.601   8.173
 3207AUL    AUL 3186  42.630  37.450   8.482
 3208THSLK    S 3187  42.875  37.247   8.418
 3209ETHY    C1 3188  42.965  37.029   8.810
 3210ETHY    C1 3189  43.093  36.855   9.308
 3211ETHY    C1 3190  43.239  36.790   9.823
 3212ETHY    C1 3191  43.396  36.824  10.346
 3213THSLK    S 3192  42.380  37.561   8.432
 3214ETHY    C1 3193  42.291  37.487   8.874
 3215ETHY    C1 3194  42.167  37.489   9.403
 3216ETHY    C1 3195  42.022  37.598   9.912
 3217ETHY    C1 3196  41.859  37.802  10.392
 3218AUSL   AUS 3197  42.794  37.601   8.173
 3219AUSL   AUS 3198  43.140  37.714   7.916
 3220AUL    AUL 3199  43.121  37.753   8.294
 3221THSLK    S 3200  42.881  37.653   8.416
 3222ETHY    C1 3201  42.969  37.870   8.809
 3223ETHY    C1 3202  43.094  38.043   9.308
 3224ETHY    C1 3203  43.239  38.109   9.823
 3225ETHY    C1 3204  43.402  38.076  10.345
 3226THSLK    S 3205  43.316  37.820   8.079
 3227ETHY    C1 3206  43.678  37.870   8.355
 3228ETHY    C1 3207  44.085  38.019   8.681
 3229ETHY    C1 3208  44.447  38.268   8.995
 3230ETHY    C1 3209  44.759  38.604   9.293
 3231AUSL   AUS 3210  43.039  37.450   6.920
 3232AUSL   AUS 3211  42.895  37.866   6.990
 3233AUL    AUL 3212  43.121  37.753   6.706
 3234THSLK    S 3213  43.143  37.403   6.676
 3235ETHY    C1 3214  43.370  37.253   6.308
 3236ETHY    C1 3215  43.649  37.165   5.851
 3237ETHY    C1 3216  43.933  37.187   5.393
 3238ETHY    C1 3217  44.215  37.309   4.941
 3239THSLK    S 3218  43.072  37.985   6.820
 3240ETHY    C1 3219  43.344  38.126   6.480
 3241ETHY    C1 3220  43.622  38.373   6.085
 3242ETHY    C1 3221  43.838  38.706   5.720
 3243ETHY    C1 3222  43.995  39.113   5.391
 3244AUSL   AUS 3223  42.794  37.298   6.826
 3245AUSL   AUS 3224  43.140  37.185   7.083
 3246AUL    AUL 3225  43.121  37.146   6.706
 3247THSLK    S 3226  43.280  36.994   6.939
 3248ETHY    C1 3227  43.513  36.677   6.707
 3249ETHY    C1 3228  43.843  36.370   6.403
 3250ETHY    C1 3229  44.223  36.161   6.083
 3251ETHY    C1 3230  44.644  36.044   5.754
 3252THSLK    S 3231  42.881  37.246   6.583
 3253ETHY    C1 3232  42.969  37.029   6.191
 3254ETHY    C1 3233  43.094  36.856   5.692
 3255ETHY    C1 3234  43.239  36.790   5.176
 3256ETHY    C1 3235  43.402  36.823   4.656
 3257AUSL   AUS 3236  42.794  37.601   6.826
 3258AUSL   AUS 3237  42.467  37.298   6.826
 3259AUL    AUL 3238  42.630  37.450   6.518
 3260THSLK    S 3239  42.371  37.246   6.586
 3261ETHY    C1 3240  42.232  37.031   6.206
 3262ETHY    C1 3241  42.075  36.860   5.717
 3263ETHY    C1 3242  41.936  36.794   5.199
 3264ETHY    C1 3243  41.820  36.825   4.666
 3265THSLK    S 3244  42.896  37.562   6.572
 3266ETHY    C1 3245  43.033  37.485   6.142
 3267ETHY    C1 3246  43.186  37.485   5.622
 3268ETHY    C1 3247  43.324  37.594   5.112
 3269ETHY    C1 3248  43.447  37.801   4.621
 3270AUSL   AUS 3249  42.221  37.450   8.080
 3271AUSL   AUS 3250  42.366  37.866   8.011
 3272AUL    AUL 3251  42.139  37.753   8.294
 3273THSLK    S 3252  42.117  37.403   8.325
 3274ETHY    C1 3253  41.891  37.253   8.691
 3275ETHY    C1 3254  41.611  37.165   9.148
 3276ETHY    C1 3255  41.328  37.187   9.607
 3277ETHY    C1 3256  41.045  37.309  10.058
 3278THSLK    S 3257  42.243  37.999   8.201
 3279ETHY    C1 3258  42.147  38.194   8.604
 3280ETHY    C1 3259  41.974  38.475   9.034
 3281ETHY    C1 3260  41.731  38.801   9.390
 3282ETHY    C1 3261  41.430  39.160   9.671
 3283AUSL   AUS 3262  42.467  37.298   8.173
 3284AUSL   AUS 3263  42.120  37.185   7.916
 3285AUL    AUL 3264  42.139  37.146   8.294
 3286THSLK    S 3265  41.941  37.019   8.032
 3287ETHY    C1 3266  41.580  36.772   8.166
 3288ETHY    C1 3267  41.175  36.506   8.410
 3289ETHY    C1 3268  40.814  36.286   8.745
 3290ETHY    C1 3269  40.498  36.113   9.156
 3291THSLK    S 3270  42.365  37.248   8.413
 3292ETHY    C1 3271  42.227  37.033   8.793
 3293ETHY    C1 3272  42.074  36.860   9.284
 3294ETHY    C1 3273  41.937  36.794   9.800
 3295ETHY    C1 3274  41.813  36.826  10.332
 3296AUSL   AUS 3275  42.221  37.450   6.920
 3297AUSL   AUS 3276  42.366  37.033   6.990
 3298AUL    AUL 3277  42.139  37.146   6.706
 3299THSLK    S 3278  42.122  37.403   6.673
 3300ETHY    C1 3279  41.895  37.253   6.305
 3301ETHY    C1 3280  41.612  37.165   5.851
 3302ETHY    C1 3281  41.328  37.187   5.393
 3303ETHY    C1 3282  41.051  37.309   4.938
 3304THSLK    S 3283  42.192  36.858   6.865
 3305ETHY    C1 3284  41.920  36.545   6.673
 3306ETHY    C1 3285  41.639  36.197   6.367
 3307ETHY    C1 3286  41.422  35.889   5.980
 3308ETHY    C1 3287  41.270  35.622   5.528
 3309AUSL   AUS 3288  42.467  37.601   6.826
 3310AUSL   AUS 3289  42.120  37.714   7.083
 3311AUL    AUL 3290  42.139  37.753   6.706
 3312THSLK    S 3291  41.984  37.845   6.893
 3313ETHY    C1 3292  41.750  37.966   6.518
 3314ETHY    C1 3293  41.418  38.154   6.132
 3315ETHY    C1 3294  41.038  38.393   5.833
 3316ETHY    C1 3295  40.621  38.673   5.618
 3317THSLK    S 3296  42.386  37.563   6.566
 3318ETHY    C1 3297  42.296  37.488   6.124
 3319ETHY    C1 3298  42.168  37.489   5.597
 3320ETHY    C1 3299  42.022  37.598   5.089
 3321ETHY    C1 3300  41.865  37.804   4.608
 3322AUSL   AUS 3301  43.210  37.859   7.500
 3323AUSL   AUS 3302  43.140  37.714   7.083
 3324AUL    AUL 3303  43.424  37.940   7.196
 3325THSLK    S 3304  43.320  37.821   6.925
 3326ETHY    C1 3305  43.681  37.871   6.648
 3327ETHY    C1 3306  44.085  38.019   6.319
 3328ETHY    C1 3307  44.447  38.268   6.005
 3329ETHY    C1 3308  44.763  38.605   5.713
 3330THSLK    S 3309  43.480  37.920   7.503
 3331ETHY    C1 3310  43.927  38.020   7.502
 3332ETHY    C1 3311  44.429  38.226   7.500
 3333ETHY    C1 3312  44.876  38.528   7.500
 3334ETHY    C1 3313  45.264  38.912   7.503
 3335AUSL   AUS 3314  43.304  37.613   7.348
 3336AUSL   AUS 3315  43.304  37.286   7.651
 3337AUL    AUL 3316  43.612  37.450   7.500
 3338THSLK    S 3317  43.566  37.660   7.345
 3339ETHY    C1 3318  44.016  37.629   7.270
 3340ETHY    C1 3319  44.548  37.684   7.179
 3341ETHY    C1 3320  45.055  37.847   7.091
 3342ETHY    C1 3321  45.530  38.105   7.011
 3343THSLK    S 3322  43.541  37.149   7.659
 3344ETHY    C1 3323  43.912  36.891   7.726
 3345ETHY    C1 3324  44.398  36.665   7.808
 3346ETHY    C1 3325  44.917  36.545   7.896
 3347ETHY    C1 3326  45.455  36.523   7.989
 3348AUSL   AUS 3327  43.304  37.613   7.651
 3349AUSL   AUS 3328  43.047  37.960   7.764
 3350AUL    AUL 3329  43.424  37.940   7.803
 3351THSLK    S 3330  43.232  38.084   7.924
 3352ETHY    C1 3331  43.589  38.276   8.136
 3353ETHY    C1 3332  43.966  38.583   8.377
 3354ETHY    C1 3333  44.267  38.970   8.602
 3355ETHY    C1 3334  44.494  39.421   8.809
 3356THSLK    S 3335  43.565  37.659   7.661
 3357ETHY    C1 3336  44.016  37.629   7.734
 3358ETHY    C1 3337  44.549  37.684   7.821
 3359ETHY    C1 3338  45.055  37.847   7.908
 3360ETHY    C1 3339  45.529  38.105   7.995
 3361AUSL   AUS 3340  42.050  37.859   7.500
 3362AUSL   AUS 3341  42.120  37.714   7.916
 3363AUL    AUL 3342  41.836  37.940   7.803
 3364THSLK    S 3343  41.980  37.840   8.107
 3365ETHY    C1 3344  41.747  37.961   8.482
 3366ETHY    C1 3345  41.418  38.154   8.868
 3367ETHY    C1 3346  41.038  38.393   9.166
 3368ETHY    C1 3347  40.617  38.668   9.381
 3369THSLK    S 3348  41.829  37.999   7.503
 3370ETHY    C1 3349  41.540  38.354   7.502
 3371ETHY    C1 3350  41.132  38.711   7.500
 3372ETHY    C1 3351  40.662  38.975   7.500
 3373ETHY    C1 3352  40.144  39.151   7.503
 3374AUSL   AUS 3353  41.957  37.613   7.348
 3375AUSL   AUS 3354  42.214  37.960   7.236
 3376AUL    AUL 3355  41.836  37.940   7.196
 3377THSLK    S 3356  41.720  37.727   7.303
 3378ETHY    C1 3357  41.348  37.901   7.101
 3379ETHY    C1 3358  40.862  38.077   6.936
 3380ETHY    C1 3359  40.344  38.209   6.868
 3381ETHY    C1 3360  39.806  38.301   6.890
 3382THSLK    S 3361  42.094  38.127   7.056
 3383ETHY    C1 3362  41.942  38.446   6.765
 3384ETHY    C1 3363  41.688  38.826   6.473
 3385ETHY    C1 3364  41.355  39.194   6.260
 3386ETHY    C1 3365  40.959  39.544   6.122
 3387AUSL   AUS 3366  41.957  37.613   7.651
 3388AUSL   AUS 3367  41.957  37.286   7.348
 3389AUL    AUL 3368  41.649  37.450   7.500
 3390THSLK    S 3369  41.695  37.211   7.384
 3391ETHY    C1 3370  41.245  37.160   7.446
 3392ETHY    C1 3371  40.712  37.057   7.434
 3393ETHY    C1 3372  40.205  36.907   7.327
 3394ETHY    C1 3373  39.732  36.714   7.135
 3395THSLK    S 3374  41.719  37.721   7.699
 3396ETHY    C1 3375  41.348  37.897   7.901
 3397ETHY    C1 3376  40.862  38.076   8.063
 3398ETHY    C1 3377  40.344  38.209   8.133
 3399ETHY    C1 3378  39.805  38.295   8.114
 3400AUSL   AUS 3379  43.210  37.040   7.500
 3401AUSL   AUS 3380  43.140  37.185   7.916
 3402AUL    AUL 3381  43.424  36.959   7.803
 3403THSLK    S 3382  43.431  36.900   7.503
 3404ETHY    C1 3383  43.720  36.545   7.502
 3405ETHY    C1 3384  44.129  36.188   7.500
 3406ETHY    C1 3385  44.599  35.924   7.500
 3407ETHY    C1 3386  45.116  35.748   7.503
 3408THSLK    S 3387  43.277  36.995   8.066
 3409ETHY    C1 3388  43.510  36.678   8.297
 3410ETHY    C1 3389  43.843  36.371   8.598
 3411ETHY    C1 3390  44.223  36.161   8.918
 3412ETHY    C1 3391  44.640  36.045   9.250
 3413AUSL   AUS 3392  43.304  37.286   7.348
 3414AUSL   AUS 3393  43.047  36.939   7.236
 3415AUL    AUL 3394  43.424  36.959   7.196
 3416THSLK    S 3395  43.542  37.149   7.346
 3417ETHY    C1 3396  43.913  36.891   7.279
 3418ETHY    C1 3397  44.398  36.665   7.192
 3419ETHY    C1 3398  44.917  36.545   7.103
 3420ETHY    C1 3399  45.456  36.523   7.018
 3421THSLK    S 3400  43.170  36.748   7.099
 3422ETHY    C1 3401  43.320  36.346   6.942
 3423ETHY    C1 3402  43.573  35.916   6.728
 3424ETHY    C1 3403  43.905  35.560   6.495
 3425ETHY    C1 3404  44.304  35.279   6.249
 3426AUSL   AUS 3405  42.050  37.040   7.500
 3427AUSL   AUS 3406  42.120  37.185   7.083
 3428AUL    AUL 3407  41.836  36.959   7.196
 3429THSLK    S 3408  41.945  37.014   6.966
 3430ETHY    C1 3409  41.583  36.768   6.833
 3431ETHY    C1 3410  41.175  36.505   6.589
 3432ETHY    C1 3411  40.814  36.286   6.255
 3433ETHY    C1 3412  40.502  36.108   5.843
 3434THSLK    S 3413  41.780  36.979   7.503
 3435ETHY    C1 3414  41.334  36.879   7.502
 3436ETHY    C1 3415  40.832  36.673   7.500
 3437ETHY    C1 3416  40.385  36.371   7.500
 3438ETHY    C1 3417  39.997  35.987   7.503
 3439AUSL   AUS 3418  41.957  37.286   7.651
 3440AUSL   AUS 3419  42.214  36.939   7.764
 3441AUL    AUL 3420  41.836  36.959   7.803
 3442THSLK    S 3421  42.026  36.791   7.881
 3443ETHY    C1 3422  41.670  36.515   7.958
 3444ETHY    C1 3423  41.295  36.158   8.122
 3445ETHY    C1 3424  40.994  35.784   8.367
 3446ETHY    C1 3425  40.763  35.402   8.682
 3447THSLK    S 3426  41.694  37.216   7.618
 3448ETHY    C1 3427  41.244  37.164   7.557
 3449ETHY    C1 3428  40.712  37.058   7.566
 3450ETHY    C1 3429  40.205  36.907   7.673
 3451ETHY    C1 3430  39.731  36.719   7.867
 3452AUSL   AUS 3431  42.630  38.030   7.909
 3453AUSL   AUS 3432  42.214  37.960   7.764
 3454AUL    AUL 3433  42.327  38.244   7.991
 3455THSLK    S 3434  42.091  38.122   7.948
 3456ETHY    C1 3435  41.940  38.442   8.237
 3457ETHY    C1 3436  41.687  38.825   8.527
 3458ETHY    C1 3437  41.355  39.193   8.740
 3459ETHY    C1 3438  40.956  39.539   8.881
 3460THSLK    S 3439  42.668  38.261   8.034
 3461ETHY    C1 3440  42.796  38.587   8.327
 3462ETHY    C1 3441  42.873  39.019   8.646
 3463ETHY    C1 3442  42.854  39.484   8.920
 3464ETHY    C1 3443  42.748  39.969   9.147
 3465AUSL   AUS 3444  42.479  38.123   7.663
 3466AUSL   AUS 3445  42.782  38.123   7.336
 3467AUL    AUL 3446  42.630  38.431   7.500
 3468THSLK    S 3447  42.516  38.375   7.772
 3469ETHY    C1 3448  42.589  38.799   7.929
 3470ETHY    C1 3449  42.586  39.315   8.095
 3471ETHY    C1 3450  42.478  39.826   8.229
 3472ETHY    C1 3451  42.274  40.322   8.336
 3473THSLK    S 3452  42.833  38.363   7.237
 3474ETHY    C1 3453  43.046  38.740   7.091
 3475ETHY    C1 3454  43.216  39.229   6.929
 3476ETHY    C1 3455  43.283  39.747   6.792
 3477ETHY    C1 3456  43.254  40.281   6.682
 3478AUSL   AUS 3457  42.782  38.123   7.663
 3479AUSL   AUS 3458  42.895  37.866   8.011
 3480AUL    AUL 3459  42.934  38.244   7.991
 3481THSLK    S 3460  43.068  37.983   8.184
 3482ETHY    C1 3461  43.341  38.124   8.522
 3483ETHY    C1 3462  43.622  38.373   8.915
 3484ETHY    C1 3463  43.838  38.706   9.279
 3485ETHY    C1 3464  43.990  39.111   9.614
 3486THSLK    S 3465  42.832  38.361   7.768
 3487ETHY    C1 3466  43.045  38.740   7.913
 3488ETHY    C1 3467  43.216  39.229   8.072
 3489ETHY    C1 3468  43.283  39.747   8.207
 3490ETHY    C1 3469  43.252  40.280   8.325
 3491AUSL   AUS 3470  42.630  36.869   7.909
 3492AUSL   AUS 3471  43.047  36.939   7.764
 3493AUL    AUL 3472  42.934  36.655   7.991
 3494THSLK    S 3473  42.589  36.612   7.992
 3495ETHY    C1 3474  42.462  36.203   8.152
 3496ETHY    C1 3475  42.388  35.722   8.391
 3497ETHY    C1 3476  42.407  35.270   8.684
 3498ETHY    C1 3477  42.509  34.852   9.021
 3499THSLK    S 3478  43.167  36.749   7.907
 3500ETHY    C1 3479  43.318  36.347   8.062
 3501ETHY    C1 3480  43.573  35.916   8.272
 3502ETHY    C1 3481  43.905  35.560   8.505
 3503ETHY    C1 3482  44.301  35.281   8.758
 3504AUSL   AUS 3483  42.479  36.776   7.663
 3505AUSL   AUS 3484  42.366  37.033   8.011
 3506AUL    AUL 3485  42.327  36.655   7.991
 3507THSLK    S 3486  42.428  36.531   7.744
 3508ETHY    C1 3487  42.215  36.132   7.812
 3509ETHY    C1 3488  42.044  35.629   7.925
 3510ETHY    C1 3489  41.978  35.115   8.072
 3511ETHY    C1 3490  42.007  34.600   8.252
 3512THSLK    S 3491  42.188  36.863   8.136
 3513ETHY    C1 3492  41.916  36.548   8.327
 3514ETHY    C1 3493  41.638  36.197   8.633
 3515ETHY    C1 3494  41.422  35.889   9.019
 3516ETHY    C1 3495  41.266  35.627   9.473
 3517AUSL   AUS 3496  42.782  36.776   7.663
 3518AUSL   AUS 3497  42.479  36.776   7.336
 3519AUL    AUL 3498  42.630  36.468   7.500
 3520THSLK    S 3499  42.429  36.529   7.261
 3521ETHY    C1 3500  42.216  36.131   7.192
 3522ETHY    C1 3501  42.044  35.629   7.076
 3523ETHY    C1 3502  41.978  35.115   6.927
 3524ETHY    C1 3503  42.009  34.598   6.754
 3525THSLK    S 3504  42.743  36.517   7.748
 3526ETHY    C1 3505  42.671  36.072   7.829
 3527ETHY    C1 3506  42.674  35.543   7.948
 3528ETHY    C1 3507  42.783  35.035   8.095
 3529ETHY    C1 3508  42.985  34.557   8.264
 3530AUSL   AUS 3509  42.630  38.030   7.091
 3531AUSL   AUS 3510  43.047  37.960   7.236
 3532AUL    AUL 3511  42.934  38.244   7.009
 3533THSLK    S 3512  42.672  38.264   6.971
 3534ETHY    C1 3513  42.799  38.589   6.676
 3535ETHY    C1 3514  42.873  39.019   6.353
 3536ETHY    C1 3515  42.854  39.484   6.080
 3537ETHY    C1 3516  42.751  39.972   5.857
 3538THSLK    S 3517  43.234  38.085   7.081
 3539ETHY    C1 3518  43.591  38.277   6.869
 3540ETHY    C1 3519  43.966  38.583   6.623
 3541ETHY    C1 3520  44.267  38.970   6.398
 3542ETHY    C1 3521  44.497  39.422   6.197
 3543AUSL   AUS 3522  42.479  38.123   7.336
 3544AUSL   AUS 3523  42.366  37.866   6.990
 3545AUL    AUL 3524  42.327  38.244   7.009
 3546THSLK    S 3525  42.518  38.377   7.233
 3547ETHY    C1 3526  42.590  38.800   7.074
 3548ETHY    C1 3527  42.587  39.316   6.906
 3549ETHY    C1 3528  42.478  39.826   6.770
 3550ETHY    C1 3529  42.276  40.324   6.670
 3551THSLK    S 3530  42.247  38.003   6.800
 3552ETHY    C1 3531  42.151  38.197   6.396
 3553ETHY    C1 3532  41.974  38.475   5.966
 3554ETHY    C1 3533  41.731  38.800   5.611
 3555ETHY    C1 3534  41.435  39.165   5.330
 3556AUSL   AUS 3535  42.630  36.869   7.091
 3557AUSL   AUS 3536  42.214  36.939   7.236
 3558AUL    AUL 3537  42.327  36.655   7.009
 3559THSLK    S 3538  42.029  36.786   7.122
 3560ETHY    C1 3539  41.672  36.512   7.044
 3561ETHY    C1 3540  41.295  36.158   6.878
 3562ETHY    C1 3541  40.993  35.784   6.633
 3563ETHY    C1 3542  40.766  35.397   6.321
 3564THSLK    S 3543  42.592  36.609   7.013
 3565ETHY    C1 3544  42.464  36.201   6.852
 3566ETHY    C1 3545  42.388  35.722   6.609
 3567ETHY    C1 3546  42.407  35.270   6.315
 3568ETHY    C1 3547  42.513  34.849   5.983
 3569AUSL   AUS 3548  42.782  36.776   7.336
 3570AUSL   AUS 3549  42.895  37.033   6.990
 3571AUL    AUL 3550  42.934  36.655   7.009
 3572THSLK    S 3551  42.745  36.516   7.258
 3573ETHY    C1 3552  42.672  36.071   7.175
 3574ETHY    C1 3553  42.674  35.543   7.052
 3575ETHY    C1 3554  42.782  35.035   6.905
 3576ETHY    C1 3555  42.987  34.556   6.742
 3577THSLK    S 3556  43.018  36.843   6.847
 3578ETHY    C1 3557  43.113  36.475   6.592
 3579ETHY    C1 3558  43.287  36.094   6.247
 3580ETHY    C1 3559  43.529  35.794   5.870
 3581ETHY    C1 3560  43.830  35.573   5.471
 3582AUC    AUC 3561  14.967   6.612   7.500
 3583AUC    AUC 3562  15.213   6.612   7.348
 3584AUC    AUC 3563  15.213   6.612   7.651
 3585AUC    AUC 3564  14.722   6.612   7.348
 3586AUC    AUC 3565  14.722   6.612   7.651
 3587AUC    AUC 3566  14.816   6.857   7.500
 3588AUC    AUC 3567  15.119   6.857   7.500
 3589AUC    AUC 3568  14.816   6.366   7.500
 3590AUC    AUC 3569  15.119   6.366   7.500
 3591AUC    AUC 3570  14.967   6.460   7.745
 3592AUC    AUC 3571  14.967   6.763   7.745
 3593AUC    AUC 3572  14.967   6.460   7.254
 3594AUC    AUC 3573  14.967   6.763   7.254
 3595AUC    AUC 3574  15.458   6.612   7.196
 3596AUC    AUC 3575  15.458   6.612   7.500
 3597AUC    AUC 3576  15.458   6.612   7.803
 3598AUC    AUC 3577  14.476   6.612   7.196
 3599AUC    AUC 3578  14.476   6.612   7.500
 3600AUC    AUC 3579  14.476   6.612   7.803
 3601AUC    AUC 3580  14.664   7.102   7.500
 3602AUC    AUC 3581  14.967   7.102   7.500
 3603AUC    AUC 3582  15.271   7.102   7.500
 3604AUC    AUC 3583  14.664   6.121   7.500
 3605AUC    AUC 3584  14.967   6.121   7.500
 3606AUC    AUC 3585  15.271   6.121   7.500
 3607AUC    AUC 3586  14.967   6.308   7.991
 3608AUC    AUC 3587  14.967   6.612   7.991
 3609AUC    AUC 3588  14.967   6.915   7.991
 3610AUC    AUC 3589  14.967   6.308   7.009
 3611AUC    AUC 3590  14.967   6.612   7.009
 3612AUC    AUC 3591  14.967   6.915   7.009
 3613AUC    AUC 3592  15.213   6.460   7.897
 3614AUC    AUC 3593  15.213   6.763   7.897
 3615AUC    AUC 3594  15.213   6.460   7.103
 3616AUC    AUC 3595  15.213   6.763   7.103
 3617AUC    AUC 3596  14.722   6.460   7.897
 3618AUC    AUC 3597  14.722   6.763   7.897
 3619AUC    AUC 3598  14.722   6.460   7.103
 3620AUC    AUC 3599  14.722   6.763   7.103
 3621AUC    AUC 3600  15.364   6.857   7.348
 3622AUC    AUC 3601  15.364   6.857   7.651
 3623AUC    AUC 3602  14.570   6.857   7.348
 3624AUC    AUC 3603  14.570   6.857   7.651
 3625AUC    AUC 3604  15.364   6.366   7.348
 3626AUC    AUC 3605  15.364   6.366   7.651
 3627AUC    AUC 3606  14.570   6.366   7.348
 3628AUC    AUC 3607  14.570   6.366   7.651
 3629AUC    AUC 3608  14.816   7.009   7.745
 3630AUC    AUC 3609  15.119   7.009   7.745
 3631AUC    AUC 3610  14.816   6.214   7.745
 3632AUC    AUC 3611  15.119   6.214   7.745
 3633AUC    AUC 3612  14.816   7.009   7.254
 3634AUC    AUC 3613  15.119   7.009   7.254
 3635AUC    AUC 3614  14.816   6.214   7.254
 3636AUC    AUC 3615  15.119   6.214   7.254
 3637AUSL   AUS 3616  15.376   6.612   8.080
 3638AUSL   AUS 3617  15.232   6.195   8.011
 3639AUL    AUL 3618  15.458   6.308   8.294
 3640THSLK    S 3619  15.350   6.007   8.156
 3641ETHY    C1 3620  15.446   5.639   8.412
 3642ETHY    C1 3621  15.624   5.256   8.753
 3643ETHY    C1 3622  15.866   4.956   9.130
 3644ETHY    C1 3623  16.162   4.737   9.534
 3645THSLK    S 3624  15.475   6.565   8.327
 3646ETHY    C1 3625  15.702   6.415   8.694
 3647ETHY    C1 3626  15.986   6.327   9.148
 3648ETHY    C1 3627  16.270   6.349   9.607
 3649ETHY    C1 3628  16.547   6.471  10.061
 3650AUSL   AUS 3629  15.131   6.460   8.173
 3651AUSL   AUS 3630  14.804   6.763   8.173
 3652AUL    AUL 3631  14.967   6.612   8.482
 3653THSLK    S 3632  15.212   6.409   8.418
 3654ETHY    C1 3633  15.302   6.191   8.810
 3655ETHY    C1 3634  15.430   6.017   9.308
 3656ETHY    C1 3635  15.576   5.952   9.823
 3657ETHY    C1 3636  15.733   5.986  10.346
 3658THSLK    S 3637  14.717   6.723   8.432
 3659ETHY    C1 3638  14.628   6.649   8.874
 3660ETHY    C1 3639  14.504   6.651   9.403
 3661ETHY    C1 3640  14.359   6.760   9.912
 3662ETHY    C1 3641  14.196   6.964  10.392
 3663AUSL   AUS 3642  15.131   6.763   8.173
 3664AUSL   AUS 3643  15.477   6.876   7.916
 3665AUL    AUL 3644  15.458   6.915   8.294
 3666THSLK    S 3645  15.218   6.815   8.416
 3667ETHY    C1 3646  15.306   7.032   8.809
 3668ETHY    C1 3647  15.431   7.205   9.308
 3669ETHY    C1 3648  15.576   7.271   9.823
 3670ETHY    C1 3649  15.739   7.238  10.345
 3671THSLK    S 3650  15.653   6.982   8.079
 3672ETHY    C1 3651  16.015   7.032   8.355
 3673ETHY    C1 3652  16.422   7.181   8.681
 3674ETHY    C1 3653  16.784   7.430   8.995
 3675ETHY    C1 3654  17.096   7.766   9.293
 3676AUSL   AUS 3655  15.376   6.612   6.920
 3677AUSL   AUS 3656  15.232   7.028   6.990
 3678AUL    AUL 3657  15.458   6.915   6.706
 3679THSLK    S 3658  15.480   6.565   6.676
 3680ETHY    C1 3659  15.707   6.415   6.308
 3681ETHY    C1 3660  15.986   6.327   5.851
 3682ETHY    C1 3661  16.270   6.349   5.393
 3683ETHY    C1 3662  16.552   6.471   4.941
 3684THSLK    S 3663  15.409   7.147   6.820
 3685ETHY    C1 3664  15.681   7.288   6.480
 3686ETHY    C1 3665  15.959   7.535   6.085
 3687ETHY    C1 3666  16.175   7.868   5.720
 3688ETHY    C1 3667  16.332   8.275   5.391
 3689AUSL   AUS 3668  15.131   6.460   6.826
 3690AUSL   AUS 3669  15.477   6.347   7.083
 3691AUL    AUL 3670  15.458   6.308   6.706
 3692THSLK    S 3671  15.617   6.156   6.939
 3693ETHY    C1 3672  15.850   5.839   6.707
 3694ETHY    C1 3673  16.180   5.532   6.403
 3695ETHY    C1 3674  16.560   5.323   6.083
 3696ETHY    C1 3675  16.981   5.206   5.754
 3697THSLK    S 3676  15.218   6.408   6.583
 3698ETHY    C1 3677  15.306   6.191   6.191
 3699ETHY    C1 3678  15.431   6.018   5.692
 3700ETHY    C1 3679  15.576   5.952   5.176
 3701ETHY    C1 3680  15.739   5.985   4.656
 3702AUSL   AUS 3681  15.131   6.763   6.826
 3703AUSL   AUS 3682  14.804   6.460   6.826
 3704AUL    AUL 3683  14.967   6.612   6.518
 3705THSLK    S 3684  14.708   6.408   6.586
 3706ETHY    C1 3685  14.569   6.193   6.206
 3707ETHY    C1 3686  14.412   6.022   5.717
 3708ETHY    C1 3687  14.273   5.956   5.199
 3709ETHY    C1 3688  14.157   5.987   4.666
 3710THSLK    S 3689  15.233   6.724   6.572
 3711ETHY    C1 3690  15.370   6.647   6.142
 3712ETHY    C1 3691  15.523   6.647   5.622
 3713ETHY    C1 3692  15.661   6.756   5.112
 3714ETHY    C1 3693  15.784   6.963   4.621
 3715AUSL   AUS 3694  14.558   6.612   8.080
 3716AUSL   AUS 3695  14.703   7.028   8.011
 3717AUL    AUL 3696  14.476   6.915   8.294
 3718THSLK    S 3697  14.454   6.565   8.325
 3719ETHY    C1 3698  14.228   6.415   8.691
 3720ETHY    C1 3699  13.948   6.327   9.148
 3721ETHY    C1 3700  13.665   6.349   9.607
 3722ETHY    C1 3701  13.382   6.471  10.058
 3723THSLK    S 3702  14.580   7.161   8.201
 3724ETHY    C1 3703  14.484   7.356   8.604
 3725ETHY    C1 3704  14.311   7.637   9.034
 3726ETHY    C1 3705  14.068   7.963   9.390
 3727ETHY    C1 3706  13.767   8.322   9.671
 3728AUSL   AUS 3707  14.804   6.460   8.173
 3729AUSL   AUS 3708  14.457   6.347   7.916
 3730AUL    AUL 3709  14.476   6.308   8.294
 3731THSLK    S 3710  14.278   6.181   8.032
 3732ETHY    C1 3711  13.917   5.934   8.166
 3733ETHY    C1 3712  13.512   5.668   8.410
 3734ETHY    C1 3713  13.151   5.448   8.745
 3735ETHY    C1 3714  12.835   5.275   9.156
 3736THSLK    S 3715  14.702   6.410   8.413
 3737ETHY    C1 3716  14.564   6.195   8.793
 3738ETHY    C1 3717  14.411   6.022   9.284
 3739ETHY    C1 3718  14.274   5.956   9.800
 3740ETHY    C1 3719  14.150   5.988  10.332
 3741AUSL   AUS 3720  14.558   6.612   6.920
 3742AUSL   AUS 3721  14.703   6.195   6.990
 3743AUL    AUL 3722  14.476   6.308   6.706
 3744THSLK    S 3723  14.459   6.565   6.673
 3745ETHY    C1 3724  14.232   6.415   6.305
 3746ETHY    C1 3725  13.949   6.327   5.851
 3747ETHY    C1 3726  13.665   6.349   5.393
 3748ETHY    C1 3727  13.388   6.471   4.938
 3749THSLK    S 3728  14.529   6.020   6.865
 3750ETHY    C1 3729  14.257   5.707   6.673
 3751ETHY    C1 3730  13.976   5.359   6.367
 3752ETHY    C1 3731  13.759   5.051   5.980
 3753ETHY    C1 3732  13.607   4.784   5.528
 3754AUSL   AUS 3733  14.804   6.763   6.826
 3755AUSL   AUS 3734  14.457   6.876   7.083
 3756AUL    AUL 3735  14.476   6.915   6.706
 3757THSLK    S 3736  14.321   7.007   6.893
 3758ETHY    C1 3737  14.087   7.128   6.518
 3759ETHY    C1 3738  13.755   7.316   6.132
 3760ETHY    C1 3739  13.375   7.555   5.833
 3761ETHY    C1 3740  12.958   7.835   5.618
 3762THSLK    S 3741  14.723   6.725   6.566
 3763ETHY    C1 3742  14.633   6.650   6.124
 3764ETHY    C1 3743  14.505   6.651   5.597
 3765ETHY    C1 3744  14.359   6.760   5.089
 3766ETHY    C1 3745  14.202   6.966   4.608
 3767AUSL   AUS 3746  15.547   7.021   7.500
 3768AUSL   AUS 3747  15.477   6.876   7.083
 3769AUL    AUL 3748  15.761   7.102   7.196
 3770THSLK    S 3749  15.657   6.983   6.925
 3771ETHY    C1 3750  16.018   7.033   6.648
 3772ETHY    C1 3751  16.422   7.181   6.319
 3773ETHY    C1 3752  16.784   7.430   6.005
 3774ETHY    C1 3753  17.100   7.767   5.713
 3775THSLK    S 3754  15.817   7.082   7.503
 3776ETHY    C1 3755  16.264   7.182   7.502
 3777ETHY    C1 3756  16.766   7.388   7.500
 3778ETHY    C1 3757  17.213   7.690   7.500
 3779ETHY    C1 3758  17.601   8.074   7.503
 3780AUSL   AUS 3759  15.641   6.775   7.348
 3781AUSL   AUS 3760  15.641   6.448   7.651
 3782AUL    AUL 3761  15.949   6.612   7.500
 3783THSLK    S 3762  15.903   6.822   7.345
 3784ETHY    C1 3763  16.353   6.791   7.270
 3785ETHY    C1 3764  16.885   6.846   7.179
 3786ETHY    C1 3765  17.392   7.009   7.091
 3787ETHY    C1 3766  17.867   7.267   7.011
 3788THSLK    S 3767  15.878   6.311   7.659
 3789ETHY    C1 3768  16.249   6.053   7.726
 3790ETHY    C1 3769  16.735   5.827   7.808
 3791ETHY    C1 3770  17.254   5.707   7.896
 3792ETHY    C1 3771  17.792   5.685   7.989
 3793AUSL   AUS 3772  15.641   6.775   7.651
 3794AUSL   AUS 3773  15.384   7.122   7.764
 3795AUL    AUL 3774  15.761   7.102   7.803
 3796THSLK    S 3775  15.569   7.246   7.924
 3797ETHY    C1 3776  15.926   7.438   8.136
 3798ETHY    C1 3777  16.303   7.745   8.377
 3799ETHY    C1 3778  16.604   8.132   8.602
 3800ETHY    C1 3779  16.831   8.583   8.809
 3801THSLK    S 3780  15.902   6.821   7.661
 3802ETHY    C1 3781  16.353   6.791   7.734
 3803ETHY    C1 3782  16.886   6.846   7.821
 3804ETHY    C1 3783  17.392   7.009   7.908
 3805ETHY    C1 3784  17.866   7.267   7.995
 3806AUSL   AUS 3785  14.387   7.021   7.500
 3807AUSL   AUS 3786  14.457   6.876   7.916
 3808AUL    AUL 3787  14.173   7.102   7.803
 3809THSLK    S 3788  14.317   7.002   8.107
 3810ETHY    C1 3789  14.084   7.123   8.482
 3811ETHY    C1 3790  13.755   7.316   8.868
 3812ETHY    C1 3791  13.375   7.555   9.166
 3813ETHY    C1 3792  12.954   7.830   9.381
 3814THSLK    S 3793  14.166   7.161   7.503
 3815ETHY    C1 3794  13.877   7.516   7.502
 3816ETHY    C1 3795  13.469   7.873   7.500
 3817ETHY    C1 3796  12.999   8.137   7.500
 3818ETHY    C1 3797  12.481   8.313   7.503
 3819AUSL   AUS 3798  14.294   6.775   7.348
 3820AUSL   AUS 3799  14.551   7.122   7.236
 3821AUL    AUL 3800  14.173   7.102   7.196
 3822THSLK    S 3801  14.057   6.889   7.303
 3823ETHY    C1 3802  13.685   7.063   7.101
 3824ETHY    C1 3803  13.199   7.239   6.936
 3825ETHY    C1 3804  12.681   7.371   6.868
 3826ETHY    C1 3805  12.143   7.463   6.890
 3827THSLK    S 3806  14.431   7.289   7.056
 3828ETHY    C1 3807  14.279   7.608   6.765
 3829ETHY    C1 3808  14.025   7.988   6.473
 3830ETHY    C1 3809  13.692   8.356   6.260
 3831ETHY    C1 3810  13.296   8.706   6.122
 3832AUSL   AUS 3811  14.294   6.775   7.651
 3833AUSL   AUS 3812  14.294   6.448   7.348
 3834AUL    AUL 3813  13.986   6.612   7.500
 3835THSLK    S 3814  14.032   6.373   7.384
 3836ETHY    C1 3815  13.582   6.322   7.446
 3837ETHY    C1 3816  13.049   6.219   7.434
 3838ETHY    C1 3817  12.542   6.069   7.327
 3839ETHY    C1 3818  12.069   5.876   7.135
 3840THSLK    S 3819  14.056   6.883   7.699
 3841ETHY    C1 3820  13.685   7.059   7.901
 3842ETHY    C1 3821  13.199   7.238   8.063
 3843ETHY    C1 3822  12.681   7.371   8.133
 3844ETHY    C1 3823  12.142   7.457   8.114
 3845AUSL   AUS 3824  15.547   6.202   7.500
 3846AUSL   AUS 3825  15.477   6.347   7.916
 3847AUL    AUL 3826  15.761   6.121   7.803
 3848THSLK    S 3827  15.768   6.062   7.503
 3849ETHY    C1 3828  16.057   5.707   7.502
 3850ETHY    C1 3829  16.466   5.350   7.500
 3851ETHY    C1 3830  16.936   5.086   7.500
 3852ETHY    C1 3831  17.453   4.910   7.503
 3853THSLK    S 3832  15.614   6.157   8.066
 3854ETHY    C1 3833  15.847   5.840   8.297
 3855ETHY    C1 3834  16.180   5.533   8.598
 3856ETHY    C1 3835  16.560   5.323   8.918
 3857ETHY    C1 3836  16.977   5.207   9.250
 3858AUSL   AUS 3837  15.641   6.448   7.348
 3859AUSL   AUS 3838  15.384   6.101   7.236
 3860AUL    AUL 3839  15.761   6.121   7.196
 3861THSLK    S 3840  15.879   6.311   7.346
 3862ETHY    C1 3841  16.250   6.053   7.279
 3863ETHY    C1 3842  16.735   5.827   7.192
 3864ETHY    C1 3843  17.254   5.707   7.103
 3865ETHY    C1 3844  17.793   5.685   7.018
 3866THSLK    S 3845  15.507   5.910   7.099
 3867ETHY    C1 3846  15.657   5.508   6.942
 3868ETHY    C1 3847  15.910   5.078   6.728
 3869ETHY    C1 3848  16.242   4.722   6.495
 3870ETHY    C1 3849  16.641   4.441   6.249
 3871AUSL   AUS 3850  14.387   6.202   7.500
 3872AUSL   AUS 3851  14.457   6.347   7.083
 3873AUL    AUL 3852  14.173   6.121   7.196
 3874THSLK    S 3853  14.282   6.176   6.966
 3875ETHY    C1 3854  13.920   5.930   6.833
 3876ETHY    C1 3855  13.512   5.667   6.589
 3877ETHY    C1 3856  13.151   5.448   6.255
 3878ETHY    C1 3857  12.839   5.270   5.843
 3879THSLK    S 3858  14.117   6.141   7.503
 3880ETHY    C1 3859  13.671   6.041   7.502
 3881ETHY    C1 3860  13.169   5.835   7.500
 3882ETHY    C1 3861  12.722   5.533   7.500
 3883ETHY    C1 3862  12.334   5.149   7.503
 3884AUSL   AUS 3863  14.294   6.448   7.651
 3885AUSL   AUS 3864  14.551   6.101   7.764
 3886AUL    AUL 3865  14.173   6.121   7.803
 3887THSLK    S 3866  14.363   5.953   7.881
 3888ETHY    C1 3867  14.007   5.677   7.958
 3889ETHY    C1 3868  13.632   5.320   8.122
 3890ETHY    C1 3869  13.331   4.946   8.367
 3891ETHY    C1 3870  13.100   4.564   8.682
 3892THSLK    S 3871  14.031   6.378   7.618
 3893ETHY    C1 3872  13.581   6.326   7.557
 3894ETHY    C1 3873  13.049   6.220   7.566
 3895ETHY    C1 3874  12.542   6.069   7.673
 3896ETHY    C1 3875  12.068   5.881   7.867
 3897AUSL   AUS 3876  14.967   7.192   7.909
 3898AUSL   AUS 3877  14.551   7.122   7.764
 3899AUL    AUL 3878  14.664   7.406   7.991
 3900THSLK    S 3879  14.428   7.284   7.948
 3901ETHY    C1 3880  14.277   7.604   8.237
 3902ETHY    C1 3881  14.024   7.987   8.527
 3903ETHY    C1 3882  13.692   8.355   8.740
 3904ETHY    C1 3883  13.293   8.701   8.881
 3905THSLK    S 3884  15.005   7.423   8.034
 3906ETHY    C1 3885  15.133   7.749   8.327
 3907ETHY    C1 3886  15.210   8.181   8.646
 3908ETHY    C1 3887  15.191   8.646   8.920
 3909ETHY    C1 3888  15.085   9.131   9.147
 3910AUSL   AUS 3889  14.816   7.285   7.663
 3911AUSL   AUS 3890  15.119   7.285   7.336
 3912AUL    AUL 3891  14.967   7.593   7.500
 3913THSLK    S 3892  14.853   7.537   7.772
 3914ETHY    C1 3893  14.926   7.961   7.929
 3915ETHY    C1 3894  14.923   8.477   8.095
 3916ETHY    C1 3895  14.815   8.988   8.229
 3917ETHY    C1 3896  14.611   9.484   8.336
 3918THSLK    S 3897  15.170   7.525   7.237
 3919ETHY    C1 3898  15.383   7.902   7.091
 3920ETHY    C1 3899  15.553   8.391   6.929
 3921ETHY    C1 3900  15.620   8.909   6.792
 3922ETHY    C1 3901  15.591   9.443   6.682
 3923AUSL   AUS 3902  15.119   7.285   7.663
 3924AUSL   AUS 3903  15.232   7.028   8.011
 3925AUL    AUL 3904  15.271   7.406   7.991
 3926THSLK    S 3905  15.405   7.145   8.184
 3927ETHY    C1 3906  15.678   7.286   8.522
 3928ETHY    C1 3907  15.959   7.535   8.915
 3929ETHY    C1 3908  16.175   7.868   9.279
 3930ETHY    C1 3909  16.327   8.273   9.614
 3931THSLK    S 3910  15.169   7.523   7.768
 3932ETHY    C1 3911  15.382   7.902   7.913
 3933ETHY    C1 3912  15.553   8.391   8.072
 3934ETHY    C1 3913  15.620   8.909   8.207
 3935ETHY    C1 3914  15.589   9.442   8.325
 3936AUSL   AUS 3915  14.967   6.031   7.909
 3937AUSL   AUS 3916  15.384   6.101   7.764
 3938AUL    AUL 3917  15.271   5.817   7.991
 3939THSLK    S 3918  14.926   5.774   7.992
 3940ETHY    C1 3919  14.799   5.365   8.152
 3941ETHY    C1 3920  14.725   4.884   8.391
 3942ETHY    C1 3921  14.744   4.432   8.684
 3943ETHY    C1 3922  14.846   4.014   9.021
 3944THSLK    S 3923  15.504   5.911   7.907
 3945ETHY    C1 3924  15.655   5.509   8.062
 3946ETHY    C1 3925  15.910   5.078   8.272
 3947ETHY    C1 3926  16.242   4.722   8.505
 3948ETHY    C1 3927  16.638   4.443   8.758
 3949AUSL   AUS 3928  14.816   5.938   7.663
 3950AUSL   AUS 3929  14.703   6.195   8.011
 3951AUL    AUL 3930  14.664   5.817   7.991
 3952THSLK    S 3931  14.765   5.693   7.744
 3953ETHY    C1 3932  14.552   5.294   7.812
 3954ETHY    C1 3933  14.381   4.791   7.925
 3955ETHY    C1 3934  14.315   4.277   8.072
 3956ETHY    C1 3935  14.344   3.762   8.252
 3957THSLK    S 3936  14.525   6.025   8.136
 3958ETHY    C1 3937  14.253   5.710   8.327
 3959ETHY    C1 3938  13.975   5.359   8.633
 3960ETHY    C1 3939  13.759   5.051   9.019
 3961ETHY    C1 3940  13.603   4.789   9.473
 3962AUSL   AUS 3941  15.119   5.938   7.663
 3963AUSL   AUS 3942  14.816   5.938   7.336
 3964AUL    AUL 3943  14.967   5.630   7.500
 3965THSLK    S 3944  14.766   5.691   7.261
 3966ETHY    C1 3945  14.553   5.293   7.192
 3967ETHY    C1 3946  14.381   4.791   7.076
 3968ETHY    C1 3947  14.315   4.277   6.927
 3969ETHY    C1 3948  14.346   3.760   6.754
 3970THSLK    S 3949  15.080   5.679   7.748
 3971ETHY    C1 3950  15.008   5.234   7.829
 3972ETHY    C1 3951  15.011   4.705   7.948
 3973ETHY    C1 3952  15.120   4.197   8.095
 3974ETHY    C1 3953  15.322   3.719   8.264
 3975AUSL   AUS 3954  14.967   7.192   7.091
 3976AUSL   AUS 3955  15.384   7.122   7.236
 3977AUL    AUL 3956  15.271   7.406   7.009
 3978THSLK    S 3957  15.009   7.426   6.971
 3979ETHY    C1 3958  15.136   7.751   6.676
 3980ETHY    C1 3959  15.210   8.181   6.353
 3981ETHY    C1 3960  15.191   8.646   6.080
 3982ETHY    C1 3961  15.088   9.134   5.857
 3983THSLK    S 3962  15.571   7.247   7.081
 3984ETHY    C1 3963  15.928   7.439   6.869
 3985ETHY    C1 3964  16.303   7.745   6.623
 3986ETHY    C1 3965  16.604   8.132   6.398
 3987ETHY    C1 3966  16.834   8.584   6.197
 3988AUSL   AUS 3967  14.816   7.285   7.336
 3989AUSL   AUS 3968  14.703   7.028   6.990
 3990AUL    AUL 3969  14.664   7.406   7.009
 3991THSLK    S 3970  14.855   7.539   7.233
 3992ETHY    C1 3971  14.927   7.962   7.074
 3993ETHY    C1 3972  14.924   8.478   6.906
 3994ETHY    C1 3973  14.815   8.988   6.770
 3995ETHY    C1 3974  14.613   9.486   6.670
 3996THSLK    S 3975  14.584   7.165   6.800
 3997ETHY    C1 3976  14.488   7.359   6.396
 3998ETHY    C1 3977  14.311   7.637   5.966
 3999ETHY    C1 3978  14.068   7.962   5.611
 4000ETHY    C1 3979  13.772   8.327   5.330
 4001AUSL   AUS 3980  14.967   6.031   7.091
 4002AUSL   AUS 3981  14.551   6.101   7.236
 4003AUL    AUL 3982  14.664   5.817   7.009
 4004THSLK    S 3983  14.366   5.948   7.122
 4005ETHY    C1 3984  14.009   5.674   7.044
 4006ETHY    C1 3985  13.632   5.320   6.878
 4007ETHY    C1 3986  13.330   4.946   6.633
 4008ETHY    C1 3987  13.103   4.559   6.321
 4009THSLK    S 3988  14.929   5.771   7.013
 4010ETHY    C1 3989  14.801   5.363   6.852
 4011ETHY    C1 3990  14.725   4.884   6.609
 4012ETHY    C1 3991  14.744   4.432   6.315
 4013ETHY    C1 3992  14.850   4.011   5.983
 4014AUSL   AUS 3993  15.119   5.938   7.336
 4015AUSL   AUS 3994  15.232   6.195   6.990
 4016AUL    AUL 3995  15.271   5.817   7.009
 4017THSLK    S 3996  15.082   5.678   7.258
 4018ETHY    C1 3997  15.009   5.233   7.175
 4019ETHY    C1 3998  15.011   4.705   7.052
 4020ETHY    C1 3999  15.119   4.197   6.905
 4021ETHY    C1 4000  15.324   3.718   6.742
 4022THSLK    S 4001  15.355   6.005   6.847
 4023ETHY    C1 4002  15.450   5.637   6.592
 4024ETHY    C1 4003  15.624   5.256   6.247
 4025ETHY    C1 4004  15.866   4.956   5.870
 4026ETHY    C1 4005  16.167   4.735   5.471
 4027AUC    AUC 4006  26.549  44.108   7.500
 4028AUC    AUC 4007  26.795  44.108   7.348
 4029AUC    AUC 4008  26.795  44.108   7.651
 4030AUC    AUC 4009  26.304  44.108   7.348
 4031AUC    AUC 4010  26.304  44.108   7.651
 4032AUC    AUC 4011  26.398  44.353   7.500
 4033AUC    AUC 4012  26.701  44.353   7.500
 4034AUC    AUC 4013  26.398  43.862   7.500
 4035AUC    AUC 4014  26.701  43.862   7.500
 4036AUC    AUC 4015  26.549  43.956   7.745
 4037AUC    AUC 4016  26.549  44.259   7.745
 4038AUC    AUC 4017  26.549  43.956   7.254
 4039AUC    AUC 4018  26.549  44.259   7.254
 4040AUC    AUC 4019  27.040  44.108   7.196
 4041AUC    AUC 4020  27.040  44.108   7.500
 4042AUC    AUC 4021  27.040  44.108   7.803
 4043AUC    AUC 4022  26.058  44.108   7.196
 4044AUC    AUC 4023  26.058  44.108   7.500
 4045AUC    AUC 4024  26.058  44.108   7.803
 4046AUC    AUC 4025  26.246  44.598   7.500
 4047AUC    AUC 4026  26.549  44.598   7.500
 4048AUC    AUC 4027  26.853  44.598   7.500
 4049AUC    AUC 4028  26.246  43.617   7.500
 4050AUC    AUC 4029  26.549  43.617   7.500
 4051AUC    AUC 4030  26.853  43.617   7.500
 4052AUC    AUC 4031  26.549  43.804   7.991
 4053AUC    AUC 4032  26.549  44.108   7.991
 4054AUC    AUC 4033  26.549  44.411   7.991
 4055AUC    AUC 4034  26.549  43.804   7.009
 4056AUC    AUC 4035  26.549  44.108   7.009
 4057AUC    AUC 4036  26.549  44.411   7.009
 4058AUC    AUC 4037  26.795  43.956   7.897
 4059AUC    AUC 4038  26.795  44.259   7.897
 4060AUC    AUC 4039  26.795  43.956   7.103
 4061AUC    AUC 4040  26.795  44.259   7.103
 4062AUC    AUC 4041  26.304  43.956   7.897
 4063AUC    AUC 4042  26.304  44.259   7.897
 4064AUC    AUC 4043  26.304  43.956   7.103
 4065AUC    AUC 4044  26.304  44.259   7.103
 4066AUC    AUC 4045  26.946  44.353   7.348
 4067AUC    AUC 4046  26.946  44.353   7.651
 4068AUC    AUC 4047  26.152  44.353   7.348
 4069AUC    AUC 4048  26.152  44.353   7.651
 4070AUC    AUC 4049  26.946  43.862   7.348
 4071AUC    AUC 4050  26.946  43.862   7.651
 4072AUC    AUC 4051  26.152  43.862   7.348
 4073AUC    AUC 4052  26.152  43.862   7.651
 4074AUC    AUC 4053  26.398  44.505   7.745
 4075AUC    AUC 4054  26.701  44.505   7.745
 4076AUC    AUC 4055  26.398  43.710   7.745
 4077AUC    AUC 4056  26.701  43.710   7.745
 4078AUC    AUC 4057  26.398  44.505   7.254
 4079AUC    AUC 4058  26.701  44.505   7.254
 4080AUC    AUC 4059  26.398  43.710   7.254
 4081AUC    AUC 4060  26.701  43.710   7.254
 4082AUSL   AUS 4061  26.958  44.108   8.080
 4083AUSL   AUS 4062  26.814  43.691   8.011
 4084AUL    AUL 4063  27.040  43.804   8.294
 4085THSLK    S 4064  26.932  43.503   8.156
 4086ETHY    C1 4065  27.028  43.135   8.412
 4087ETHY    C1 4066  27.206  42.752   8.753
 4088ETHY    C1 4067  27.448  42.452   9.130
 4089ETHY    C1 4068  27.744  42.233   9.534
 4090THSLK    S 4069  27.057  44.061   8.327
 4091ETHY    C1 4070  27.284  43.911   8.694
 4092ETHY    C1 4071  27.568  43.823   9.148
 4093ETHY    C1 4072  27.852  43.845   9.607
 4094ETHY    C1 4073  28.129  43.967  10.061
 4095AUSL   AUS 4074  26.713  43.956   8.173
 4096AUSL   AUS 4075  26.386  44.259   8.173
 4097AUL    AUL 4076  26.549  44.108   8.482
 4098THSLK    S 4077  26.794  43.905   8.418
 4099ETHY    C1 4078  26.884  43.687   8.810
 4100ETHY    C1 4079  27.012  43.513   9.308
 4101ETHY    C1 4080  27.158  43.448   9.823
 4102ETHY    C1 4081  27.315  43.482  10.346
 4103THSLK    S 4082  26.299  44.219   8.432
 4104ETHY    C1 4083  26.210  44.145   8.874
 4105ETHY    C1 4084  26.086  44.147   9.403
 4106ETHY    C1 4085  25.941  44.256   9.912
 4107ETHY    C1 4086  25.778  44.460  10.392
 4108AUSL   AUS 4087  26.713  44.259   8.173
 4109AUSL   AUS 4088  27.059  44.372   7.916
 4110AUL    AUL 4089  27.040  44.411   8.294
 4111THSLK    S 4090  26.800  44.311   8.416
 4112ETHY    C1 4091  26.888  44.528   8.809
 4113ETHY    C1 4092  27.013  44.701   9.308
 4114ETHY    C1 4093  27.158  44.767   9.823
 4115ETHY    C1 4094  27.321  44.734  10.345
 4116THSLK    S 4095  27.235  44.478   8.079
 4117ETHY    C1 4096  27.597  44.528   8.355
 4118ETHY    C1 4097  28.004  44.677   8.681
 4119ETHY    C1 4098  28.366  44.926   8.995
 4120ETHY    C1 4099  28.678  45.262   9.293
 4121AUSL   AUS 4100  26.958  44.108   6.920
 4122AUSL   AUS 4101  26.814  44.524   6.990
 4123AUL    AUL 4102  27.040  44.411   6.706
 4124THSLK    S 4103  27.062  44.061   6.676
 4125ETHY    C1 4104  27.289  43.911   6.308
 4126ETHY    C1 4105  27.568  43.823   5.851
 4127ETHY    C1 4106  27.852  43.845   5.393
 4128ETHY    C1 4107  28.134  43.967   4.941
 4129THSLK    S 4108  26.991  44.643   6.820
 4130ETHY    C1 4109  27.263  44.784   6.480
 4131ETHY    C1 4110  27.541  45.031   6.085
 4132ETHY    C1 4111  27.757  45.364   5.720
 4133ETHY    C1 4112  27.914  45.771   5.391
 4134AUSL   AUS 4113  26.713  43.956   6.826
 4135AUSL   AUS 4114  27.059  43.843   7.083
 4136AUL    AUL 4115  27.040  43.804   6.706
 4137THSLK    S 4116  27.199  43.652   6.939
 4138ETHY    C1 4117  27.432  43.335   6.707
 4139ETHY    C1 4118  27.762  43.028   6.403
 4140ETHY    C1 4119  28.142  42.819   6.083
 4141ETHY    C1 4120  28.563  42.702   5.754
 4142THSLK    S 4121  26.800  43.904   6.583
 4143ETHY    C1 4122  26.888  43.687   6.191
 4144ETHY    C1 4123  27.013  43.514   5.692
 4145ETHY    C1 4124  27.158  43.448   5.176
 4146ETHY    C1 4125  27.321  43.481   4.656
 4147AUSL   AUS 4126  26.713  44.259   6.826
 4148AUSL   AUS 4127  26.386  43.956   6.826
 4149AUL    AUL 4128  26.549  44.108   6.518
 4150THSLK    S 4129  26.290  43.904   6.586
 4151ETHY    C1 4130  26.151  43.689   6.206
 4152ETHY    C1 4131  25.994  43.518   5.717
 4153ETHY    C1 4132  25.855  43.452   5.199
 4154ETHY    C1 4133  25.739  43.483   4.666
 4155THSLK    S 4134  26.815  44.220   6.572
 4156ETHY    C1 4135  26.952  44.143   6.142
 4157ETHY    C1 4136  27.105  44.143   5.622
 4158ETHY    C1 4137  27.243  44.252   5.112
 4159ETHY    C1 4138  27.366  44.459   4.621
 4160AUSL   AUS 4139  26.140  44.108   8.080
 4161AUSL   AUS 4140  26.285  44.524   8.011
 4162AUL    AUL 4141  26.058  44.411   8.294
 4163THSLK    S 4142  26.036  44.061   8.325
 4164ETHY    C1 4143  25.810  43.911   8.691
 4165ETHY    C1 4144  25.530  43.823   9.148
 4166ETHY    C1 4145  25.247  43.845   9.607
 4167ETHY    C1 4146  24.964  43.967  10.058
 4168THSLK    S 4147  26.162  44.657   8.201
 4169ETHY    C1 4148  26.066  44.852   8.604
 4170ETHY    C1 4149  25.893  45.133   9.034
 4171ETHY    C1 4150  25.650  45.459   9.390
 4172ETHY    C1 4151  25.349  45.818   9.671
 4173AUSL   AUS 4152  26.386  43.956   8.173
 4174AUSL   AUS 4153  26.039  43.843   7.916
 4175AUL    AUL 4154  26.058  43.804   8.294
 4176THSLK    S 4155  25.860  43.677   8.032
 4177ETHY    C1 4156  25.499  43.430   8.166
 4178ETHY    C1 4157  25.094  43.164   8.410
 4179ETHY    C1 4158  24.733  42.944   8.745
 4180ETHY    C1 4159  24.417  42.771   9.156
 4181THSLK    S 4160  26.284  43.906   8.413
 4182ETHY    C1 4161  26.146  43.691   8.793
 4183ETHY    C1 4162  25.993  43.518   9.284
 4184ETHY    C1 4163  25.856  43.452   9.800
 4185ETHY    C1 4164  25.732  43.484  10.332
 4186AUSL   AUS 4165  26.140  44.108   6.920
 4187AUSL   AUS 4166  26.285  43.691   6.990
 4188AUL    AUL 4167  26.058  43.804   6.706
 4189THSLK    S 4168  26.041  44.061   6.673
 4190ETHY    C1 4169  25.814  43.911   6.305
 4191ETHY    C1 4170  25.531  43.823   5.851
 4192ETHY    C1 4171  25.247  43.845   5.393
 4193ETHY    C1 4172  24.970  43.967   4.938
 4194THSLK    S 4173  26.111  43.516   6.865
 4195ETHY    C1 4174  25.839  43.203   6.673
 4196ETHY    C1 4175  25.558  42.855   6.367
 4197ETHY    C1 4176  25.341  42.547   5.980
 4198ETHY    C1 4177  25.189  42.280   5.528
 4199AUSL   AUS 4178  26.386  44.259   6.826
 4200AUSL   AUS 4179  26.039  44.372   7.083
 4201AUL    AUL 4180  26.058  44.411   6.706
 4202THSLK    S 4181  25.903  44.503   6.893
 4203ETHY    C1 4182  25.669  44.624   6.518
 4204ETHY    C1 4183  25.337  44.812   6.132
 4205ETHY    C1 4184  24.957  45.051   5.833
 4206ETHY    C1 4185  24.540  45.331   5.618
 4207THSLK    S 4186  26.305  44.221   6.566
 4208ETHY    C1 4187  26.215  44.146   6.124
 4209ETHY    C1 4188  26.087  44.147   5.597
 4210ETHY    C1 4189  25.941  44.256   5.089
 4211ETHY    C1 4190  25.784  44.462   4.608
 4212AUSL   AUS 4191  27.129  44.517   7.500
 4213AUSL   AUS 4192  27.059  44.372   7.083
 4214AUL    AUL 4193  27.343  44.598   7.196
 4215THSLK    S 4194  27.239  44.479   6.925
 4216ETHY    C1 4195  27.600  44.529   6.648
 4217ETHY    C1 4196  28.004  44.677   6.319
 4218ETHY    C1 4197  28.366  44.926   6.005
 4219ETHY    C1 4198  28.682  45.263   5.713
 4220THSLK    S 4199  27.399  44.578   7.503
 4221ETHY    C1 4200  27.846  44.678   7.502
 4222ETHY    C1 4201  28.348  44.884   7.500
 4223ETHY    C1 4202  28.795  45.186   7.500
 4224ETHY    C1 4203  29.183  45.570   7.503
 4225AUSL   AUS 4204  27.223  44.271   7.348
 4226AUSL   AUS 4205  27.223  43.944   7.651
 4227AUL    AUL 4206  27.531  44.108   7.500
 4228THSLK    S 4207  27.485  44.318   7.345
 4229ETHY    C1 4208  27.935  44.287   7.270
 4230ETHY    C1 4209  28.467  44.342   7.179
 4231ETHY    C1 4210  28.974  44.505   7.091
 4232ETHY    C1 4211  29.449  44.763   7.011
 4233THSLK    S 4212  27.460  43.807   7.659
 4234ETHY    C1 4213  27.831  43.549   7.726
 4235ETHY    C1 4214  28.317  43.323   7.808
 4236ETHY    C1 4215  28.836  43.203   7.896
 4237ETHY    C1 4216  29.374  43.181   7.989
 4238AUSL   AUS 4217  27.223  44.271   7.651
 4239AUSL   AUS 4218  26.966  44.618   7.764
 4240AUL    AUL 4219  27.343  44.598   7.803
 4241THSLK    S 4220  27.151  44.742   7.924
 4242ETHY    C1 4221  27.508  44.934   8.136
 4243ETHY    C1 4222  27.885  45.241   8.377
 4244ETHY    C1 4223  28.186  45.628   8.602
 4245ETHY    C1 4224  28.413  46.079   8.809
 4246THSLK    S 4225  27.484  44.317   7.661
 4247ETHY    C1 4226  27.935  44.287   7.734
 4248ETHY    C1 4227  28.468  44.342   7.821
 4249ETHY    C1 4228  28.974  44.505   7.908
 4250ETHY    C1 4229  29.448  44.763   7.995
 4251AUSL   AUS 4230  25.969  44.517   7.500
 4252AUSL   AUS 4231  26.039  44.372   7.916
 4253AUL    AUL 4232  25.755  44.598   7.803
 4254THSLK    S 4233  25.899  44.498   8.107
 4255ETHY    C1 4234  25.666  44.619   8.482
 4256ETHY    C1 4235  25.337  44.812   8.868
 4257ETHY    C1 4236  24.957  45.051   9.166
 4258ETHY    C1 4237  24.536  45.326   9.381
 4259THSLK    S 4238  25.748  44.657   7.503
 4260ETHY    C1 4239  25.459  45.012   7.502
 4261ETHY    C1 4240  25.051  45.369   7.500
 4262ETHY    C1 4241  24.581  45.633   7.500
 4263ETHY    C1 4242  24.063  45.809   7.503
 4264AUSL   AUS 4243  25.876  44.271   7.348
 4265AUSL   AUS 4244  26.133  44.618   7.236
 4266AUL    AUL 4245  25.755  44.598   7.196
 4267THSLK    S 4246  25.639  44.385   7.303
 4268ETHY    C1 4247  25.267  44.559   7.101
 4269ETHY    C1 4248  24.781  44.735   6.936
 4270ETHY    C1 4249  24.263  44.867   6.868
 4271ETHY    C1 4250  23.725  44.959   6.890
 4272THSLK    S 4251  26.013  44.785   7.056
 4273ETHY    C1 4252  25.861  45.104   6.765
 4274ETHY    C1 4253  25.607  45.484   6.473
 4275ETHY    C1 4254  25.274  45.852   6.260
 4276ETHY    C1 4255  24.878  46.202   6.122
 4277AUSL   AUS 4256  25.876  44.271   7.651
 4278AUSL   AUS 4257  25.876  43.944   7.348
 4279AUL    AUL 4258  25.568  44.108   7.500
 4280THSLK    S 4259  25.614  43.869   7.384
 4281ETHY    C1 4260  25.164  43.818   7.446
 4282ETHY    C1 4261  24.631  43.715   7.434
 4283ETHY    C1 4262  24.124  43.565   7.327
 4284ETHY    C1 4263  23.651  43.372   7.135
 4285THSLK    S 4264  25.638  44.379   7.699
 4286ETHY    C1 4265  25.267  44.555   7.901
 4287ETHY    C1 4266  24.781  44.734   8.063
 4288ETHY    C1 4267  24.263  44.867   8.133
 4289ETHY    C1 4268  23.724  44.953   8.114
 4290AUSL   AUS 4269  27.129  43.698   7.500
 4291AUSL   AUS 4270  27.059  43.843   7.916
 4292AUL    AUL 4271  27.343  43.617   7.803
 4293THSLK    S 4272  27.350  43.558   7.503
 4294ETHY    C1 4273  27.639  43.203   7.502
 4295ETHY    C1 4274  28.048  42.846   7.500
 4296ETHY    C1 4275  28.518  42.582   7.500
 4297ETHY    C1 4276  29.035  42.406   7.503
 4298THSLK    S 4277  27.196  43.653   8.066
 4299ETHY    C1 4278  27.429  43.336   8.297
 4300ETHY    C1 4279  27.762  43.029   8.598
 4301ETHY    C1 4280  28.142  42.819   8.918
 4302ETHY    C1 4281  28.559  42.703   9.250
 4303AUSL   AUS 4282  27.223  43.944   7.348
 4304AUSL   AUS 4283  26.966  43.597   7.236
 4305AUL    AUL 4284  27.343  43.617   7.196
 4306THSLK    S 4285  27.461  43.807   7.346
 4307ETHY    C1 4286  27.832  43.549   7.279
 4308ETHY    C1 4287  28.317  43.323   7.192
 4309ETHY    C1 4288  28.836  43.203   7.103
 4310ETHY    C1 4289  29.375  43.181   7.018
 4311THSLK    S 4290  27.089  43.406   7.099
 4312ETHY    C1 4291  27.239  43.004   6.942
 4313ETHY    C1 4292  27.492  42.574   6.728
 4314ETHY    C1 4293  27.824  42.218   6.495
 4315ETHY    C1 4294  28.223  41.937   6.249
 4316AUSL   AUS 4295  25.969  43.698   7.500
 4317AUSL   AUS 4296  26.039  43.843   7.083
 4318AUL    AUL 4297  25.755  43.617   7.196
 4319THSLK    S 4298  25.864  43.672   6.966
 4320ETHY    C1 4299  25.502  43.426   6.833
 4321ETHY    C1 4300  25.094  43.163   6.589
 4322ETHY    C1 4301  24.733  42.944   6.255
 4323ETHY    C1 4302  24.421  42.766   5.843
 4324THSLK    S 4303  25.699  43.637   7.503
 4325ETHY    C1 4304  25.253  43.537   7.502
 4326ETHY    C1 4305  24.751  43.331   7.500
 4327ETHY    C1 4306  24.304  43.029   7.500
 4328ETHY    C1 4307  23.916  42.645   7.503
 4329AUSL   AUS 4308  25.876  43.944   7.651
 4330AUSL   AUS 4309  26.133  43.597   7.764
 4331AUL    AUL 4310  25.755  43.617   7.803
 4332THSLK    S 4311  25.945  43.449   7.881
 4333ETHY    C1 4312  25.589  43.173   7.958
 4334ETHY    C1 4313  25.214  42.816   8.122
 4335ETHY    C1 4314  24.913  42.442   8.367
 4336ETHY    C1 4315  24.682  42.060   8.682
 4337THSLK    S 4316  25.613  43.874   7.618
 4338ETHY    C1 4317  25.163  43.822   7.557
 4339ETHY    C1 4318  24.631  43.716   7.566
 4340ETHY    C1 4319  24.124  43.565   7.673
 4341ETHY    C1 4320  23.650  43.377   7.867
 4342AUSL   AUS 4321  26.549  44.688   7.909
 4343AUSL   AUS 4322  26.133  44.618   7.764
 4344AUL    AUL 4323  26.246  44.902   7.991
 4345THSLK    S 4324  26.010  44.780   7.948
 4346ETHY    C1 4325  25.859  45.100   8.237
 4347ETHY    C1 4326  25.606  45.483   8.527
 4348ETHY    C1 4327  25.274  45.851   8.740
 4349ETHY    C1 4328  24.875  46.197   8.881
 4350THSLK    S 4329  26.587  44.919   8.034
 4351ETHY    C1 4330  26.715  45.245   8.327
 4352ETHY    C1 4331  26.792  45.677   8.646
 4353ETHY    C1 4332  26.773  46.142   8.920
 4354ETHY    C1 4333  26.667  46.627   9.147
 4355AUSL   AUS 4334  26.398  44.781   7.663
 4356AUSL   AUS 4335  26.701  44.781   7.336
 4357AUL    AUL 4336  26.549  45.089   7.500
 4358THSLK    S 4337  26.435  45.033   7.772
 4359ETHY    C1 4338  26.508  45.457   7.929
 4360ETHY    C1 4339  26.505  45.973   8.095
 4361ETHY    C1 4340  26.397  46.484   8.229
 4362ETHY    C1 4341  26.193  46.980   8.336
 4363THSLK    S 4342  26.752  45.021   7.237
 4364ETHY    C1 4343  26.965  45.398   7.091
 4365ETHY    C1 4344  27.135  45.887   6.929
 4366ETHY    C1 4345  27.202  46.405   6.792
 4367ETHY    C1 4346  27.173  46.939   6.682
 4368AUSL   AUS 4347  26.701  44.781   7.663
 4369AUSL   AUS 4348  26.814  44.524   8.011
 4370AUL    AUL 4349  26.853  44.902   7.991
 4371THSLK    S 4350  26.987  44.641   8.184
 4372ETHY    C1 4351  27.260  44.782   8.522
 4373ETHY    C1 4352  27.541  45.031   8.915
 4374ETHY    C1 4353  27.757  45.364   9.279
 4375ETHY    C1 4354  27.909  45.769   9.614
 4376THSLK    S 4355  26.751  45.019   7.768
 4377ETHY    C1 4356  26.964  45.398   7.913
 4378ETHY    C1 4357  27.135  45.887   8.072
 4379ETHY    C1 4358  27.202  46.405   8.207
 4380ETHY    C1 4359  27.171  46.938   8.325
 4381AUSL   AUS 4360  26.549  43.527   7.909
 4382AUSL   AUS 4361  26.966  43.597   7.764
 4383AUL    AUL 4362  26.853  43.313   7.991
 4384THSLK    S 4363  26.508  43.270   7.992
 4385ETHY    C1 4364  26.381  42.861   8.152
 4386ETHY    C1 4365  26.307  42.380   8.391
 4387ETHY    C1 4366  26.326  41.928   8.684
 4388ETHY    C1 4367  26.428  41.510   9.021
 4389THSLK    S 4368  27.086  43.407   7.907
 4390ETHY    C1 4369  27.237  43.005   8.062
 4391ETHY    C1 4370  27.492  42.574   8.272
 4392ETHY    C1 4371  27.824  42.218   8.505
 4393ETHY    C1 4372  28.220  41.939   8.758
 4394AUSL   AUS 4373  26.398  43.434   7.663
 4395AUSL   AUS 4374  26.285  43.691   8.011
 4396AUL    AUL 4375  26.246  43.313   7.991
 4397THSLK    S 4376  26.347  43.189   7.744
 4398ETHY    C1 4377  26.134  42.790   7.812
 4399ETHY    C1 4378  25.963  42.287   7.925
 4400ETHY    C1 4379  25.897  41.773   8.072
 4401ETHY    C1 4380  25.926  41.258   8.252
 4402THSLK    S 4381  26.107  43.521   8.136
 4403ETHY    C1 4382  25.835  43.206   8.327
 4404ETHY    C1 4383  25.557  42.855   8.633
 4405ETHY    C1 4384  25.341  42.547   9.019
 4406ETHY    C1 4385  25.185  42.285   9.473
 4407AUSL   AUS 4386  26.701  43.434   7.663
 4408AUSL   AUS 4387  26.398  43.434   7.336
 4409AUL    AUL 4388  26.549  43.126   7.500
 4410THSLK    S 4389  26.348  43.187   7.261
 4411ETHY    C1 4390  26.135  42.789   7.192
 4412ETHY    C1 4391  25.963  42.287   7.076
 4413ETHY    C1 4392  25.897  41.773   6.927
 4414ETHY    C1 4393  25.928  41.256   6.754
 4415THSLK    S 4394  26.662  43.175   7.748
 4416ETHY    C1 4395  26.590  42.730   7.829
 4417ETHY    C1 4396  26.593  42.201   7.948
 4418ETHY    C1 4397  26.702  41.693   8.095
 4419ETHY    C1 4398  26.904  41.215   8.264
 4420AUSL   AUS 4399  26.549  44.688   7.091
 4421AUSL   AUS 4400  26.966  44.618   7.236
 4422AUL    AUL 4401  26.853  44.902   7.009
 4423THSLK    S 4402  26.591  44.922   6.971
 4424ETHY    C1 4403  26.718  45.247   6.676
 4425ETHY    C1 4404  26.792  45.677   6.353
 4426ETHY    C1 4405  26.773  46.142   6.080
 4427ETHY    C1 4406  26.670  46.630   5.857
 4428THSLK    S 4407  27.153  44.743   7.081
 4429ETHY    C1 4408  27.510  44.935   6.869
 4430ETHY    C1 4409  27.885  45.241   6.623
 4431ETHY    C1 4410  28.186  45.628   6.398
 4432ETHY    C1 4411  28.416  46.080   6.197
 4433AUSL   AUS 4412  26.398  44.781   7.336
 4434AUSL   AUS 4413  26.285  44.524   6.990
 4435AUL    AUL 4414  26.246  44.902   7.009
 4436THSLK    S 4415  26.437  45.035   7.233
 4437ETHY    C1 4416  26.509  45.458   7.074
 4438ETHY    C1 4417  26.506  45.974   6.906
 4439ETHY    C1 4418  26.397  46.484   6.770
 4440ETHY    C1 4419  26.195  46.982   6.670
 4441THSLK    S 4420  26.166  44.661   6.800
 4442ETHY    C1 4421  26.070  44.855   6.396
 4443ETHY    C1 4422  25.893  45.133   5.966
 4444ETHY    C1 4423  25.650  45.458   5.611
 4445ETHY    C1 4424  25.354  45.823   5.330
 4446AUSL   AUS 4425  26.549  43.527   7.091
 4447AUSL   AUS 4426  26.133  43.597   7.236
 4448AUL    AUL 4427  26.246  43.313   7.009
 4449THSLK    S 4428  25.948  43.444   7.122
 4450ETHY    C1 4429  25.591  43.170   7.044
 4451ETHY    C1 4430  25.214  42.816   6.878
 4452ETHY    C1 4431  24.912  42.442   6.633
 4453ETHY    C1 4432  24.685  42.055   6.321
 4454THSLK    S 4433  26.511  43.267   7.013
 4455ETHY    C1 4434  26.383  42.859   6.852
 4456ETHY    C1 4435  26.307  42.380   6.609
 4457ETHY    C1 4436  26.326  41.928   6.315
 4458ETHY    C1 4437  26.432  41.507   5.983
 4459AUSL   AUS 4438  26.701  43.434   7.336
 4460AUSL   AUS 4439  26.814  43.691   6.990
 4461AUL    AUL 4440  26.853  43.313   7.009
 4462THSLK    S 4441  26.664  43.174   7.258
 4463ETHY    C1 4442  26.591  42.729   7.175
 4464ETHY    C1 4443  26.593  42.201   7.052
 4465ETHY    C1 4444  26.701  41.693   6.905
 4466ETHY    C1 4445  26.906  41.214   6.742
 4467THSLK    S 4446  26.937  43.501   6.847
 4468ETHY    C1 4447  27.032  43.133   6.592
 4469ETHY    C1 4448  27.206  42.752   6.247
 4470ETHY    C1 4449  27.448  42.452   5.870
 4471ETHY    C1 4450  27.749  42.231   5.471
 4472POPC   NC3 4451  12.106  13.618   9.450
 4472POPC   PO4 4452  12.082  13.668   9.150
 4472POPC   GL1 4453  12.107  13.616   8.850
 4472POPC   GL2 4454  12.017  13.751   8.850
 4472POPC   C1A 4455  12.080  13.587   8.550
 4472POPC   D2A 4456  12.033  13.669   8.250
 4472POPC   C3A 4457  12.051  13.638   7.950
 4472POPC   C4A 4458  12.047  13.648   7.650
 4472POPC   C1B 4459  11.855  13.840   8.550
 4472POPC   C2B 4460  11.872  13.811   8.250
 4472POPC   C3B 4461  11.860  13.804   7.950
 4472POPC   C4B 4462  11.921  13.823   7.650
 4473POPC   NC3 4463  22.154  13.663   9.450
 4473POPC   PO4 4464  22.172  13.607   9.150
 4473POPC   GL1 4465  22.191  13.585   8.850
 4473POPC   GL2 4466  22.245  13.565   8.850
 4473POPC   C1A 4467  22.176  13.597   8.550
 4473POPC   D2A 4468  22.116  13.617   8.250
 4473POPC   C3A 4469  22.121  13.615   7.950
 4473POPC   C4A 4470  22.185  13.650   7.650
 4473POPC   C1B 4471  22.335  13.484   8.550
 4473POPC   C2B 4472  22.323  13.416   8.250
 4473POPC   C3B 4473  22.320  13.443   7.950
 4473POPC   C4B 4474  22.376  13.430   7.650
 4474POPC   NC3 4475  38.455  18.326   9.450
 4474POPC   PO4 4476  38.464  18.327   9.150
 4474POPC   GL1 4477  38.497  18.266   8.850
 4474POPC   GL2 4478  38.349  18.373   8.850
 4474POPC   C1A 4479  38.472  18.273   8.550
 4474POPC   D2A 4480  38.418  18.291   8.250
 4474POPC   C3A 4481  38.473  18.245   7.950
 4474POPC   C4A 4482  38.405  18.267   7.650
 4474POPC   C1B 4483  38.235  18.401   8.550
 4474POPC   C2B 4484  38.181  18.388   8.250
 4474POPC   C3B 4485  38.213  18.353   7.950
 4474POPC   C4B 4486  38.172  18.321   7.650
 4475POPC   NC3 4487  32.976  39.242   9.450
 4475POPC   PO4 4488  33.027  39.221   9.150
 4475POPC   GL1 4489  33.012  39.225   8.850
 4475POPC   GL2 4490  33.002  39.094   8.850
 4475POPC   C1A 4491  33.008  39.209   8.550
 4475POPC   D2A 4492  33.013  39.276   8.250
 4475POPC   C3A 4493  33.015  39.263   7.950
 4475POPC   C4A 4494  33.065  39.243   7.650
 4475POPC   C1B 4495  33.107  39.023   8.550
 4475POPC   C2B 4496  33.026  38.948   8.250
 4475POPC   C3B 4497  33.057  38.967   7.950
 4475POPC   C4B 4498  33.118  38.958   7.650
 4476POPC   NC3 4499  29.111   1.220   9.450
 4476POPC   PO4 4500  29.106   1.165   9.150
 4476POPC   GL1 4501  29.175   1.208   8.850
 4476POPC   GL2 4502  29.178   1.126   8.850
 4476POPC   C1A 4503  29.116   1.233   8.550
 4476POPC   D2A 4504  29.189   1.208   8.250
 4476POPC   C3A 4505  29.174   1.171   7.950
 4476POPC   C4A 4506  29.154   1.236   7.650
 4476POPC   C1B 4507  29.333   1.050   8.550
 4476POPC   C2B 4508  29.287   0.970   8.250
 4476POPC   C3B 4509  29.305   0.967   7.950
 4476POPC   C4B 4510  29.289   1.056   7.650
 4477POPC   NC3 4511  12.835  38.466   9.450
 4477POPC   PO4 4512  12.878  38.428   9.150
 4477POPC   GL1 4513  12.829  38.429   8.850
 4477POPC   GL2 4514  12.932  38.459   8.850
 4477POPC   C1A 4515  12.818  38.409   8.550
 4477POPC   D2A 4516  12.860  38.476   8.250
 4477POPC   C3A 4517  12.884  38.437   7.950
 4477POPC   C4A 4518  12.846  38.451   7.650
 4477POPC   C1B 4519  13.134  38.369   8.550
 4477POPC   C2B 4520  13.095  38.359   8.250
 4477POPC   C3B 4521  13.088  38.390   7.950
 4477POPC   C4B 4522  13.080  38.382   7.650
 4478POPC   NC3 4523  16.706  42.342   9.450
 4478POPC   PO4 4524  16.751  42.342   9.150
 4478POPC   GL1 4525  16.713  42.338   8.850
 4478POPC   GL2 4526  16.573  42.326   8.850
 4478POPC   C1A 4527  16.767  42.380   8.550
 4478POPC   D2A 4528  16.726  42.306   8.250
 4478POPC   C3A 4529  16.751  42.370   7.950
 4478POPC   C4A 4530  16.715  42.319   7.650
 4478POPC   C1B 4531  16.483  42.304   8.550
 4478POPC   C2B 4532  16.497  42.330   8.250
 4478POPC   C3B 4533  16.523  42.296   7.950
 4478POPC   C4B 4534  16.519  42.239   7.650
 4479POPC   NC3 4535  31.434  39.969   9.450
 4479POPC   PO4 4536  31.496  40.039   9.150
 4479POPC   GL1 4537  31.433  39.988   8.850
 4479POPC   GL2 4538  31.447  39.902   8.850
 4479POPC   C1A 4539  31.467  39.967   8.550
 4479POPC   D2A 4540  31.483  40.046   8.250
 4479POPC   C3A 4541  31.453  40.041   7.950
 4479POPC   C4A 4542  31.457  39.984   7.650
 4479POPC   C1B 4543  31.353  39.738   8.550
 4479POPC   C2B 4544  31.369  39.805   8.250
 4479POPC   C3B 4545  31.319  39.761   7.950
 4479POPC   C4B 4546  31.337  39.761   7.650
 4480POPC   NC3 4547  26.835  22.961   9.450
 4480POPC   PO4 4548  26.825  22.988   9.150
 4480POPC   GL1 4549  26.861  22.890   8.850
 4480POPC   GL2 4550  26.821  23.052   8.850
 4480POPC   C1A 4551  26.805  22.891   8.550
 4480POPC   D2A 4552  26.826  22.900   8.250
 4480POPC   C3A 4553  26.867  22.942   7.950
 4480POPC   C4A 4554  26.768  22.957   7.650
 4480POPC   C1B 4555  26.754  23.166   8.550
 4480POPC   C2B 4556  26.793  23.179   8.250
 4480POPC   C3B 4557  26.718  23.209   7.950
 4480POPC   C4B 4558  26.773  23.178   7.650
 4481POPC   NC3 4559  10.529  26.836   9.450
 4481POPC   PO4 4560  10.519  26.860   9.150
 4481POPC   GL1 4561  10.501  26.811   8.850
 4481POPC   GL2 4562  10.479  26.726   8.850
 4481POPC   C1A 4563  10.501  26.783   8.550
 4481POPC   D2A 4564  10.546  26.827   8.250
 4481POPC   C3A 4565  10.482  26.799   7.950
 4481POPC   C4A 4566  10.555  26.827   7.650
 4481POPC   C1B 4567  10.492  26.530   8.550
 4481POPC   C2B 4568  10.496  26.574   8.250
 4481POPC   C3B 4569  10.507  26.555   7.950
 4481POPC   C4B 4570  10.532  26.552   7.650
 4482POPC   NC3 4571  22.148  41.518   9.450
 4482POPC   PO4 4572  22.167  41.560   9.150
 4482POPC   GL1 4573  22.116  41.553   8.850
 4482POPC   GL2 4574  22.305  41.514   8.850
 4482POPC   C1A 4575  22.156  41.560   8.550
 4482POPC   D2A 4576  22.194  41.526   8.250
 4482POPC   C3A 4577  22.205  41.568   7.950
 4482POPC   C4A 4578  22.129  41.574   7.650
 4482POPC   C1B 4579  22.365  41.452   8.550
 4482POPC   C2B 4580  22.359  41.463   8.250
 4482POPC   C3B 4581  22.441  41.533   7.950
 4482POPC   C4B 4582  22.378  41.458   7.650
 4483POPC   NC3 4583  24.511  31.448   9.450
 4483POPC   PO4 4584  24.445  31.434   9.150
 4483POPC   GL1 4585  24.465  31.441   8.850
 4483POPC   GL2 4586  24.428  31.614   8.850
 4483POPC   C1A 4587  24.457  31.430   8.550
 4483POPC   D2A 4588  24.519  31.428   8.250
 4483POPC   C3A 4589  24.538  31.465   7.950
 4483POPC   C4A 4590  24.445  31.486   7.650
 4483POPC   C1B 4591  24.306  31.657   8.550
 4483POPC   C2B 4592  24.296  31.664   8.250
 4483POPC   C3B 4593  24.360  31.690   7.950
 4483POPC   C4B 4594  24.345  31.717   7.650
 4484POPC   NC3 4595   2.773  21.410   9.450
 4484POPC   PO4 4596   2.739  21.385   9.150
 4484POPC   GL1 4597   2.756  21.415   8.850
 4484POPC   GL2 4598   2.830  21.260   8.850
 4484POPC   C1A 4599   2.778  21.378   8.550
 4484POPC   D2A 4600   2.755  21.384   8.250
 4484POPC   C3A 4601   2.766  21.434   7.950
 4484POPC   C4A 4602   2.741  21.423   7.650
 4484POPC   C1B 4603   2.855  21.127   8.550
 4484POPC   C2B 4604   2.915  21.113   8.250
 4484POPC   C3B 4605   2.893  21.163   7.950
 4484POPC   C4B 4606   2.853  21.124   7.650
 4485POPC   NC3 4607  35.380   6.694   9.450
 4485POPC   PO4 4608  35.345   6.611   9.150
 4485POPC   GL1 4609  35.364   6.617   8.850
 4485POPC   GL2 4610  35.236   6.605   8.850
 4485POPC   C1A 4611  35.350   6.650   8.550
 4485POPC   D2A 4612  35.333   6.677   8.250
 4485POPC   C3A 4613  35.348   6.675   7.950
 4485POPC   C4A 4614  35.396   6.629   7.650
 4485POPC   C1B 4615  35.132   6.564   8.550
 4485POPC   C2B 4616  35.140   6.506   8.250
 4485POPC   C3B 4617  35.119   6.477   7.950
 4485POPC   C4B 4618  35.160   6.522   7.650
 4486POPC   NC3 4619  21.396  17.472   9.450
 4486POPC   PO4 4620  21.374  17.510   9.150
 4486POPC   GL1 4621  21.369  17.536   8.850
 4486POPC   GL2 4622  21.477  17.544   8.850
 4486POPC   C1A 4623  21.360  17.514   8.550
 4486POPC   D2A 4624  21.430  17.474   8.250
 4486POPC   C3A 4625  21.349  17.516   7.950
 4486POPC   C4A 4626  21.403  17.543   7.650
 4486POPC   C1B 4627  21.583  17.506   8.550
 4486POPC   C2B 4628  21.637  17.502   8.250
 4486POPC   C3B 4629  21.682  17.560   7.950
 4486POPC   C4B 4630  21.599  17.519   7.650
 4487POPC   NC3 4631  12.101  10.480   9.450
 4487POPC   PO4 4632  12.078  10.569   9.150
 4487POPC   GL1 4633  12.124  10.542   8.850
 4487POPC   GL2 4634  12.032  10.407   8.850
 4487POPC   C1A 4635  12.041  10.484   8.550
 4487POPC   D2A 4636  12.056  10.525   8.250
 4487POPC   C3A 4637  12.126  10.535   7.950
 4487POPC   C4A 4638  12.125  10.550   7.650
 4487POPC   C1B 4639  11.919  10.269   8.550
 4487POPC   C2B 4640  11.980  10.350   8.250
 4487POPC   C3B 4641  11.970  10.269   7.950
 4487POPC   C4B 4642  11.961  10.286   7.650
 4488POPC   NC3 4643   4.274  20.564   9.450
 4488POPC   PO4 4644   4.335  20.598   9.150
 4488POPC   GL1 4645   4.272  20.656   8.850
 4488POPC   GL2 4646   4.470  20.640   8.850
 4488POPC   C1A 4647   4.337  20.604   8.550
 4488POPC   D2A 4648   4.312  20.608   8.250
 4488POPC   C3A 4649   4.364  20.634   7.950
 4488POPC   C4A 4650   4.309  20.641   7.650
 4488POPC   C1B 4651   4.529  20.715   8.550
 4488POPC   C2B 4652   4.566  20.713   8.250
 4488POPC   C3B 4653   4.499  20.762   7.950
 4488POPC   C4B 4654   4.563  20.705   7.650
 4489POPC   NC3 4655  16.698  34.584   9.450
 4489POPC   PO4 4656  16.712  34.608   9.150
 4489POPC   GL1 4657  16.776  34.561   8.850
 4489POPC   GL2 4658  16.663  34.447   8.850
 4489POPC   C1A 4659  16.772  34.570   8.550
 4489POPC   D2A 4660  16.749  34.548   8.250
 4489POPC   C3A 4661  16.761  34.589   7.950
 4489POPC   C4A 4662  16.684  34.552   7.650
 4489POPC   C1B 4663  16.645  34.328   8.550
 4489POPC   C2B 4664  16.667  34.355   8.250
 4489POPC   C3B 4665  16.586  34.319   7.950
 4489POPC   C4B 4666  16.586  34.364   7.650
 4490POPC   NC3 4667  22.200  42.324   9.450
 4490POPC   PO4 4668  22.175  42.340   9.150
 4490POPC   GL1 4669  22.209  42.342   8.850
 4490POPC   GL2 4670  22.268  42.251   8.850
 4490POPC   C1A 4671  22.129  42.351   8.550
 4490POPC   D2A 4672  22.207  42.352   8.250
 4490POPC   C3A 4673  22.161  42.304   7.950
 4490POPC   C4A 4674  22.160  42.337   7.650
 4490POPC   C1B 4675  22.248  42.088   8.550
 4490POPC   C2B 4676  22.283  42.145   8.250
 4490POPC   C3B 4677  22.301  42.135   7.950
 4490POPC   C4B 4678  22.261  42.131   7.650
 4491POPC   NC3 4679  40.734  27.577   9.450
 4491POPC   PO4 4680  40.758  27.580   9.150
 4491POPC   GL1 4681  40.741  27.586   8.850
 4491POPC   GL2 4682  40.862  27.638   8.850
 4491POPC   C1A 4683  40.819  27.562   8.550
 4491POPC   D2A 4684  40.808  27.607   8.250
 4491POPC   C3A 4685  40.815  27.606   7.950
 4491POPC   C4A 4686  40.761  27.595   7.650
 4491POPC   C1B 4687  41.024  27.550   8.550
 4491POPC   C2B 4688  40.992  27.567   8.250
 4491POPC   C3B 4689  41.060  27.559   7.950
 4491POPC   C4B 4690  41.038  27.646   7.650
 4492POPC   NC3 4691   2.787   0.458   9.450
 4492POPC   PO4 4692   2.731   0.471   9.150
 4492POPC   GL1 4693   2.804   0.408   8.850
 4492POPC   GL2 4694   2.682   0.380   8.850
 4492POPC   C1A 4695   2.796   0.398   8.550
 4492POPC   D2A 4696   2.748   0.444   8.250
 4492POPC   C3A 4697   2.788   0.410   7.950
 4492POPC   C4A 4698   2.765   0.482   7.650
 4492POPC   C1B 4699   2.547   0.284   8.550
 4492POPC   C2B 4700   2.588   0.272   8.250
 4492POPC   C3B 4701   2.589   0.254   7.950
 4492POPC   C4B 4702   2.574   0.256   7.650
 4493POPC   NC3 4703  26.846   4.321   9.450
 4493POPC   PO4 4704  26.823   4.346   9.150
 4493POPC   GL1 4705  26.810   4.285   8.850
 4493POPC   GL2 4706  26.735   4.297   8.850
 4493POPC   C1A 4707  26.833   4.300   8.550
 4493POPC   D2A 4708  26.782   4.365   8.250
 4493POPC   C3A 4709  26.844   4.293   7.950
 4493POPC   C4A 4710  26.839   4.267   7.650
 4493POPC   C1B 4711  26.578   4.316   8.550
 4493POPC   C2B 4712  26.615   4.285   8.250
 4493POPC   C3B 4713  26.534   4.301   7.950
 4493POPC   C4B 4714  26.579   4.266   7.650
 4494POPC   NC3 4715  41.545  26.779   9.450
 4494POPC   PO4 4716  41.596  26.797   9.150
 4494POPC   GL1 4717  41.509  26.822   8.850
 4494POPC   GL2 4718  41.447  26.741   8.850
 4494POPC   C1A 4719  41.559  26.847   8.550
 4494POPC   D2A 4720  41.580  26.810   8.250
 4494POPC   C3A 4721  41.551  26.769   7.950
 4494POPC   C4A 4722  41.512  26.862   7.650
 4494POPC   C1B 4723  41.303  26.730   8.550
 4494POPC   C2B 4724  41.295  26.773   8.250
 4494POPC   C3B 4725  41.323  26.739   7.950
 4494POPC   C4B 4726  41.323  26.772   7.650
 4495POPC   NC3 4727  26.028  29.182   9.450
 4495POPC   PO4 4728  26.037  29.159   9.150
 4495POPC   GL1 4729  26.018  29.141   8.850
 4495POPC   GL2 4730  26.015  29.229   8.850
 4495POPC   C1A 4731  26.010  29.131   8.550
 4495POPC   D2A 4732  26.069  29.100   8.250
 4495POPC   C3A 4733  25.998  29.103   7.950
 4495POPC   C4A 4734  26.071  29.171   7.650
 4495POPC   C1B 4735  26.033  29.397   8.550
 4495POPC   C2B 4736  25.988  29.357   8.250
 4495POPC   C3B 4737  25.976  29.350   7.950
 4495POPC   C4B 4738  26.032  29.415   7.650
 4496POPC   NC3 4739  34.617  36.909   9.450
 4496POPC   PO4 4740  34.558  36.922   9.150
 4496POPC   GL1 4741  34.589  36.927   8.850
 4496POPC   GL2 4742  34.484  36.861   8.850
 4496POPC   C1A 4743  34.584  36.941   8.550
 4496POPC   D2A 4744  34.569  36.867   8.250
 4496POPC   C3A 4745  34.597  36.886   7.950
 4496POPC   C4A 4746  34.556  36.942   7.650
 4496POPC   C1B 4747  34.334  36.848   8.550
 4496POPC   C2B 4748  34.357  36.777   8.250
 4496POPC   C3B 4749  34.372  36.828   7.950
 4496POPC   C4B 4750  34.395  36.769   7.650
 4497POPC   NC3 4751  22.975   3.570   9.450
 4497POPC   PO4 4752  22.902   3.551   9.150
 4497POPC   GL1 4753  22.967   3.554   8.850
 4497POPC   GL2 4754  22.904   3.461   8.850
 4497POPC   C1A 4755  22.937   3.517   8.550
 4497POPC   D2A 4756  22.978   3.588   8.250
 4497POPC   C3A 4757  22.924   3.531   7.950
 4497POPC   C4A 4758  22.954   3.545   7.650
 4497POPC   C1B 4759  22.838   3.348   8.550
 4497POPC   C2B 4760  22.841   3.300   8.250
 4497POPC   C3B 4761  22.861   3.309   7.950
 4497POPC   C4B 4762  22.835   3.333   7.650
 4498POPC   NC3 4763  34.562  16.730   9.450
 4498POPC   PO4 4764  34.605  16.749   9.150
 4498POPC   GL1 4765  34.589  16.732   8.850
 4498POPC   GL2 4766  34.561  16.863   8.850
 4498POPC   C1A 4767  34.615  16.769   8.550
 4498POPC   D2A 4768  34.580  16.744   8.250
 4498POPC   C3A 4769  34.603  16.780   7.950
 4498POPC   C4A 4770  34.567  16.779   7.650
 4498POPC   C1B 4771  34.666  16.937   8.550
 4498POPC   C2B 4772  34.679  16.945   8.250
 4498POPC   C3B 4773  34.640  17.003   7.950
 4498POPC   C4B 4774  34.598  16.953   7.650
 4499POPC   NC3 4775   5.127  43.930   9.450
 4499POPC   PO4 4776   5.083  43.891   9.150
 4499POPC   GL1 4777   5.131  43.872   8.850
 4499POPC   GL2 4778   4.988  43.979   8.850
 4499POPC   C1A 4779   5.123  43.854   8.550
 4499POPC   D2A 4780   5.083  43.842   8.250
 4499POPC   C3A 4781   5.047  43.889   7.950
 4499POPC   C4A 4782   5.118  43.854   7.650
 4499POPC   C1B 4783   4.959  44.115   8.550
 4499POPC   C2B 4784   4.955  44.058   8.250
 4499POPC   C3B 4785   4.969  44.055   7.950
 4499POPC   C4B 4786   4.945  44.079   7.650
 4500POPC   NC3 4787  27.630  36.128   9.450
 4500POPC   PO4 4788  27.602  36.171   9.150
 4500POPC   GL1 4789  27.569  36.101   8.850
 4500POPC   GL2 4790  27.755  36.183   8.850
 4500POPC   C1A 4791  27.592  36.152   8.550
 4500POPC   D2A 4792  27.625  36.150   8.250
 4500POPC   C3A 4793  27.571  36.157   7.950
 4500POPC   C4A 4794  27.574  36.096   7.650
 4500POPC   C1B 4795  27.817  36.271   8.550
 4500POPC   C2B 4796  27.841  36.235   8.250
 4500POPC   C3B 4797  27.790  36.251   7.950
 4500POPC   C4B 4798  27.777  36.189   7.650
 4501POPC   NC3 4799  36.925  30.679   9.450
 4501POPC   PO4 4800  36.882  30.740   9.150
 4501POPC   GL1 4801  36.921  30.679   8.850
 4501POPC   GL2 4802  36.842  30.578   8.850
 4501POPC   C1A 4803  36.861  30.733   8.550
 4501POPC   D2A 4804  36.929  30.736   8.250
 4501POPC   C3A 4805  36.916  30.718   7.950
 4501POPC   C4A 4806  36.936  30.648   7.650
 4501POPC   C1B 4807  36.865  30.469   8.550
 4501POPC   C2B 4808  36.864  30.413   8.250
 4501POPC   C3B 4809  36.868  30.453   7.950
 4501POPC   C4B 4810  36.832  30.453   7.650
 4502POPC   NC3 4811  37.633  43.071   9.450
 4502POPC   PO4 4812  37.703  43.103   9.150
 4502POPC   GL1 4813  37.678  43.138   8.850
 4502POPC   GL2 4814  37.605  43.210   8.850
 4502POPC   C1A 4815  37.667  43.138   8.550
 4502POPC   D2A 4816  37.714  43.152   8.250
 4502POPC   C3A 4817  37.645  43.123   7.950
 4502POPC   C4A 4818  37.685  43.110   7.650
 4502POPC   C1B 4819  37.479  43.259   8.550
 4502POPC   C2B 4820  37.489  43.264   8.250
 4502POPC   C3B 4821  37.497  43.336   7.950
 4502POPC   C4B 4822  37.514  43.294   7.650
 4503POPC   NC3 4823  22.133  27.636   9.450
 4503POPC   PO4 4824  22.150  27.615   9.150
 4503POPC   GL1 4825  22.174  27.596   8.850
 4503POPC   GL2 4826  22.105  27.508   8.850
 4503POPC   C1A 4827  22.168  27.548   8.550
 4503POPC   D2A 4828  22.165  27.586   8.250
 4503POPC   C3A 4829  22.117  27.582   7.950
 4503POPC   C4A 4830  22.122  27.627   7.650
 4503POPC   C1B 4831  22.121  27.369   8.550
 4503POPC   C2B 4832  22.108  27.338   8.250
 4503POPC   C3B 4833  22.080  27.323   7.950
 4503POPC   C4B 4834  22.089  27.325   7.650
 4504POPC   NC3 4835  30.678  35.390   9.450
 4504POPC   PO4 4836  30.666  35.375   9.150
 4504POPC   GL1 4837  30.725  35.396   8.850
 4504POPC   GL2 4838  30.624  35.235   8.850
 4504POPC   C1A 4839  30.683  35.391   8.550
 4504POPC   D2A 4840  30.717  35.340   8.250
 4504POPC   C3A 4841  30.709  35.385   7.950
 4504POPC   C4A 4842  30.732  35.317   7.650
 4504POPC   C1B 4843  30.469  35.202   8.550
 4504POPC   C2B 4844  30.481  35.162   8.250
 4504POPC   C3B 4845  30.453  35.158   7.950
 4504POPC   C4B 4846  30.469  35.200   7.650
 4505POPC   NC3 4847  42.331  17.524   9.450
 4505POPC   PO4 4848  42.380  17.552   9.150
 4505POPC   GL1 4849  42.339  17.482   8.850
 4505POPC   GL2 4850  42.273  17.361   8.850
 4505POPC   C1A 4851  42.341  17.470   8.550
 4505POPC   D2A 4852  42.287  17.556   8.250
 4505POPC   C3A 4853  42.299  17.461   7.950
 4505POPC   C4A 4854  42.328  17.543   7.650
 4505POPC   C1B 4855  42.314  17.252   8.550
 4505POPC   C2B 4856  42.255  17.229   8.250
 4505POPC   C3B 4857  42.247  17.231   7.950
 4505POPC   C4B 4858  42.309  17.297   7.650
 4506POPC   NC3 4859  33.808  25.309   9.450
 4506POPC   PO4 4860  33.839  25.293   9.150
 4506POPC   GL1 4861  33.819  25.230   8.850
 4506POPC   GL2 4862  33.932  25.224   8.850
 4506POPC   C1A 4863  33.777  25.238   8.550
 4506POPC   D2A 4864  33.807  25.271   8.250
 4506POPC   C3A 4865  33.825  25.288   7.950
 4506POPC   C4A 4866  33.763  25.274   7.650
 4506POPC   C1B 4867  34.084  25.187   8.550
 4506POPC   C2B 4868  34.014  25.190   8.250
 4506POPC   C3B 4869  34.037  25.194   7.950
 4506POPC   C4B 4870  34.008  25.173   7.650
 4507POPC   NC3 4871   4.362  40.050   9.450
 4507POPC   PO4 4872   4.282  39.985   9.150
 4507POPC   GL1 4873   4.334  40.003   8.850
 4507POPC   GL2 4874   4.223  40.024   8.850
 4507POPC   C1A 4875   4.270  39.993   8.550
 4507POPC   D2A 4876   4.344  40.043   8.250
 4507POPC   C3A 4877   4.269  40.056   7.950
 4507POPC   C4A 4878   4.361  39.980   7.650
 4507POPC   C1B 4879   4.103  39.979   8.550
 4507POPC   C2B 4880   4.109  39.976   8.250
 4507POPC   C3B 4881   4.059  39.912   7.950
 4507POPC   C4B 4882   4.096  39.985   7.650
 4508POPC   NC3 4883  30.687   8.154   9.450
 4508POPC   PO4 4884  30.652   8.232   9.150
 4508POPC   GL1 4885  30.682   8.195   8.850
 4508POPC   GL2 4886  30.738   8.078   8.850
 4508POPC   C1A 4887  30.649   8.176   8.550
 4508POPC   D2A 4888  30.717   8.182   8.250
 4508POPC   C3A 4889  30.664   8.177   7.950
 4508POPC   C4A 4890  30.656   8.165   7.650
 4508POPC   C1B 4891  30.730   7.932   8.550
 4508POPC   C2B 4892  30.668   7.981   8.250
 4508POPC   C3B 4893  30.675   7.926   7.950
 4508POPC   C4B 4894  30.720   7.951   7.650
 4509POPC   NC3 4895  26.089  33.013   9.450
 4509POPC   PO4 4896  26.028  33.016   9.150
 4509POPC   GL1 4897  26.040  32.974   8.850
 4509POPC   GL2 4898  26.196  33.001   8.850
 4509POPC   C1A 4899  26.025  33.046   8.550
 4509POPC   D2A 4900  26.045  33.018   8.250
 4509POPC   C3A 4901  26.042  33.067   7.950
 4509POPC   C4A 4902  26.059  33.020   7.650
 4509POPC   C1B 4903  26.242  32.891   8.550
 4509POPC   C2B 4904  26.229  32.947   8.250
 4509POPC   C3B 4905  26.278  32.892   7.950
 4509POPC   C4B 4906  26.278  32.859   7.650
 4510POPC   NC3 4907  28.399  15.149   9.450
 4510POPC   PO4 4908  28.402  15.170   9.150
 4510POPC   GL1 4909  28.335  15.228   8.850
 4510POPC   GL2 4910  28.512  15.217   8.850
 4510POPC   C1A 4911  28.370  15.166   8.550
 4510POPC   D2A 4912  28.402  15.199   8.250
 4510POPC   C3A 4913  28.361  15.187   7.950
 4510POPC   C4A 4914  28.353  15.158   7.650
 4510POPC   C1B 4915  28.591  15.249   8.550
 4510POPC   C2B 4916  28.632  15.163   8.250
 4510POPC   C3B 4917  28.618  15.195   7.950
 4510POPC   C4B 4918  28.589  15.238   7.650
 4511POPC   NC3 4919  21.401  40.057   9.450
 4511POPC   PO4 4920  21.342  40.009   9.150
 4511POPC   GL1 4921  21.356  40.054   8.850
 4511POPC   GL2 4922  21.490  40.099   8.850
 4511POPC   C1A 4923  21.380  40.034   8.550
 4511POPC   D2A 4924  21.392  40.017   8.250
 4511POPC   C3A 4925  21.361  39.976   7.950
 4511POPC   C4A 4926  21.408  39.993   7.650
 4511POPC   C1B 4927  21.518  40.201   8.550
 4511POPC   C2B 4928  21.526  40.222   8.250
 4511POPC   C3B 4929  21.469  40.248   7.950
 4511POPC   C4B 4930  21.523  40.277   7.650
 4512POPC   NC3 4931  42.344   7.377   9.450
 4512POPC   PO4 4932  42.374   7.435   9.150
 4512POPC   GL1 4933  42.324   7.431   8.850
 4512POPC   GL2 4934  42.329   7.528   8.850
 4512POPC   C1A 4935  42.313   7.383   8.550
 4512POPC   D2A 4936  42.341   7.452   8.250
 4512POPC   C3A 4937  42.296   7.448   7.950
 4512POPC   C4A 4938  42.324   7.417   7.650
 4512POPC   C1B 4939  42.239   7.666   8.550
 4512POPC   C2B 4940  42.223   7.678   8.250
 4512POPC   C3B 4941  42.275   7.602   7.950
 4512POPC   C4B 4942  42.260   7.662   7.650
 4513POPC   NC3 4943  26.770  37.675   9.450
 4513POPC   PO4 4944  26.785  37.642   9.150
 4513POPC   GL1 4945  26.799  37.649   8.850
 4513POPC   GL2 4946  26.843  37.764   8.850
 4513POPC   C1A 4947  26.828  37.642   8.550
 4513POPC   D2A 4948  26.827  37.714   8.250
 4513POPC   C3A 4949  26.856  37.721   7.950
 4513POPC   C4A 4950  26.788  37.705   7.650
 4513POPC   C1B 4951  26.928  37.914   8.550
 4513POPC   C2B 4952  26.913  37.952   8.250
 4513POPC   C3B 4953  26.953  37.940   7.950
 4513POPC   C4B 4954  26.897  37.925   7.650
 4514POPC   NC3 4955  43.879  11.316   9.450
 4514POPC   PO4 4956  43.912  11.291   9.150
 4514POPC   GL1 4957  43.907  11.310   8.850
 4514POPC   GL2 4958  43.835  11.386   8.850
 4514POPC   C1A 4959  43.905  11.330   8.550
 4514POPC   D2A 4960  43.844  11.268   8.250
 4514POPC   C3A 4961  43.931  11.278   7.950
 4514POPC   C4A 4962  43.875  11.266   7.650
 4514POPC   C1B 4963  43.822  11.504   8.550
 4514POPC   C2B 4964  43.794  11.490   8.250
 4514POPC   C3B 4965  43.745  11.500   7.950
 4514POPC   C4B 4966  43.815  11.523   7.650
 4515POPC   NC3 4967  41.554   6.646   9.450
 4515POPC   PO4 4968  41.581   6.650   9.150
 4515POPC   GL1 4969  41.595   6.668   8.850
 4515POPC   GL2 4970  41.428   6.709   8.850
 4515POPC   C1A 4971  41.576   6.653   8.550
 4515POPC   D2A 4972  41.567   6.619   8.250
 4515POPC   C3A 4973  41.572   6.683   7.950
 4515POPC   C4A 4974  41.607   6.620   7.650
 4515POPC   C1B 4975  41.346   6.732   8.550
 4515POPC   C2B 4976  41.269   6.649   8.250
 4515POPC   C3B 4977  41.265   6.708   7.950
 4515POPC   C4B 4978  41.281   6.721   7.650
 4516POPC   NC3 4979  28.347   1.994   9.450
 4516POPC   PO4 4980  28.346   2.039   9.150
 4516POPC   GL1 4981  28.402   2.005   8.850
 4516POPC   GL2 4982  28.301   1.920   8.850
 4516POPC   C1A 4983  28.404   1.943   8.550
 4516POPC   D2A 4984  28.400   2.031   8.250
 4516POPC   C3A 4985  28.381   1.990   7.950
 4516POPC   C4A 4986  28.384   1.990   7.650
 4516POPC   C1B 4987  28.185   1.817   8.550
 4516POPC   C2B 4988  28.235   1.804   8.250
 4516POPC   C3B 4989  28.206   1.809   7.950
 4516POPC   C4B 4990  28.222   1.805   7.650
 4517POPC   NC3 4991  32.228   2.028   9.450
 4517POPC   PO4 4992  32.222   1.997   9.150
 4517POPC   GL1 4993  32.286   1.989   8.850
 4517POPC   GL2 4994  32.303   2.129   8.850
 4517POPC   C1A 4995  32.245   1.941   8.550
 4517POPC   D2A 4996  32.249   2.024   8.250
 4517POPC   C3A 4997  32.229   1.978   7.950
 4517POPC   C4A 4998  32.214   1.977   7.650
 4517POPC   C1B 4999  32.318   2.194   8.550
 4517POPC   C2B 5000  32.393   2.217   8.250
 4517POPC   C3B 5001  32.356   2.175   7.950
 4517POPC   C4B 5002  32.317   2.169   7.650
 4518POPC   NC3 5003   4.318   7.403   9.450
 4518POPC   PO4 5004   4.296   7.455   9.150
 4518POPC   GL1 5005   4.337   7.417   8.850
 4518POPC   GL2 5006   4.294   7.276   8.850
 4518POPC   C1A 5007   4.270   7.400   8.550
 4518POPC   D2A 5008   4.337   7.380   8.250
 4518POPC   C3A 5009   4.327   7.400   7.950
 4518POPC   C4A 5010   4.307   7.442   7.650
 4518POPC   C1B 5011   4.229   7.160   8.550
 4518POPC   C2B 5012   4.258   7.193   8.250
 4518POPC   C3B 5013   4.209   7.193   7.950
 4518POPC   C4B 5014   4.258   7.164   7.650
 4519POPC   NC3 5015   2.758  19.038   9.450
 4519POPC   PO4 5016   2.730  19.055   9.150
 4519POPC   GL1 5017   2.753  19.019   8.850
 4519POPC   GL2 5018   2.695  19.140   8.850
 4519POPC   C1A 5019   2.807  19.093   8.550
 4519POPC   D2A 5020   2.785  19.063   8.250
 4519POPC   C3A 5021   2.755  19.088   7.950
 4519POPC   C4A 5022   2.785  19.083   7.650
 4519POPC   C1B 5023   2.581  19.148   8.550
 4519POPC   C2B 5024   2.509  19.135   8.250
 4519POPC   C3B 5025   2.497  19.181   7.950
 4519POPC   C4B 5026   2.527  19.197   7.650
 4520POPC   NC3 5027  35.343  19.816   9.450
 4520POPC   PO4 5028  35.389  19.802   9.150
 4520POPC   GL1 5029  35.361  19.856   8.850
 4520POPC   GL2 5030  35.437  19.900   8.850
 4520POPC   C1A 5031  35.401  19.787   8.550
 4520POPC   D2A 5032  35.337  19.822   8.250
 4520POPC   C3A 5033  35.355  19.820   7.950
 4520POPC   C4A 5034  35.384  19.861   7.650
 4520POPC   C1B 5035  35.443  20.065   8.550
 4520POPC   C2B 5036  35.463  20.029   8.250
 4520POPC   C3B 5037  35.520  20.007   7.950
 4520POPC   C4B 5038  35.497  20.006   7.650
 4521POPC   NC3 5039  24.528  36.103   9.450
 4521POPC   PO4 5040  24.492  36.116   9.150
 4521POPC   GL1 5041  24.524  36.129   8.850
 4521POPC   GL2 5042  24.331  36.170   8.850
 4521POPC   C1A 5043  24.463  36.091   8.550
 4521POPC   D2A 5044  24.531  36.101   8.250
 4521POPC   C3A 5045  24.490  36.097   7.950
 4521POPC   C4A 5046  24.500  36.172   7.650
 4521POPC   C1B 5047  24.226  36.098   8.550
 4521POPC   C2B 5048  24.273  36.149   8.250
 4521POPC   C3B 5049  24.209  36.094   7.950
 4521POPC   C4B 5050  24.230  36.110   7.650
 4522POPC   NC3 5051  32.257   9.009   9.450
 4522POPC   PO4 5052  32.246   8.996   9.150
 4522POPC   GL1 5053  32.202   9.014   8.850
 4522POPC   GL2 5054  32.133   8.927   8.850
 4522POPC   C1A 5055  32.265   8.984   8.550
 4522POPC   D2A 5056  32.278   8.939   8.250
 4522POPC   C3A 5057  32.246   9.011   7.950
 4522POPC   C4A 5058  32.278   8.968   7.650
 4522POPC   C1B 5059  32.013   8.914   8.550
 4522POPC   C2B 5060  32.040   8.899   8.250
 4522POPC   C3B 5061  32.028   8.969   7.950
 4522POPC   C4B 5062  31.996   8.989   7.650
 4523POPC   NC3 5063  34.596  26.832   9.450
 4523POPC   PO4 5064  34.536  26.780   9.150
 4523POPC   GL1 5065  34.563  26.802   8.850
 4523POPC   GL2 5066  34.506  26.788   8.850
 4523POPC   C1A 5067  34.548  26.818   8.550
 4523POPC   D2A 5068  34.578  26.818   8.250
 4523POPC   C3A 5069  34.575  26.860   7.950
 4523POPC   C4A 5070  34.546  26.801   7.650
 4523POPC   C1B 5071  34.374  26.685   8.550
 4523POPC   C2B 5072  34.382  26.715   8.250
 4523POPC   C3B 5073  34.327  26.728   7.950
 4523POPC   C4B 5074  34.373  26.709   7.650
 4524POPC   NC3 5075  30.738  37.644   9.450
 4524POPC   PO4 5076  30.711  37.643   9.150
 4524POPC   GL1 5077  30.681  37.653   8.850
 4524POPC   GL2 5078  30.627  37.767   8.850
 4524POPC   C1A 5079  30.653  37.695   8.550
 4524POPC   D2A 5080  30.685  37.643   8.250
 4524POPC   C3A 5081  30.673  37.693   7.950
 4524POPC   C4A 5082  30.719  37.639   7.650
 4524POPC   C1B 5083  30.549  37.866   8.550
 4524POPC   C2B 5084  30.470  37.829   8.250
 4524POPC   C3B 5085  30.510  37.804   7.950
 4524POPC   C4B 5086  30.544  37.807   7.650
 4525POPC   NC3 5087  17.466  12.863   9.450
 4525POPC   PO4 5088  17.488  12.843   9.150
 4525POPC   GL1 5089  17.480  12.899   8.850
 4525POPC   GL2 5090  17.490  12.928   8.850
 4525POPC   C1A 5091  17.491  12.828   8.550
 4525POPC   D2A 5092  17.482  12.892   8.250
 4525POPC   C3A 5093  17.485  12.835   7.950
 4525POPC   C4A 5094  17.501  12.872   7.650
 4525POPC   C1B 5095  17.433  13.042   8.550
 4525POPC   C2B 5096  17.372  13.026   8.250
 4525POPC   C3B 5097  17.383  13.040   7.950
 4525POPC   C4B 5098  17.427  13.088   7.650
 4526POPC   NC3 5099  42.319  29.148   9.450
 4526POPC   PO4 5100  42.363  29.105   9.150
 4526POPC   GL1 5101  42.357  29.113   8.850
 4526POPC   GL2 5102  42.397  29.112   8.850
 4526POPC   C1A 5103  42.360  29.098   8.550
 4526POPC   D2A 5104  42.363  29.117   8.250
 4526POPC   C3A 5105  42.345  29.136   7.950
 4526POPC   C4A 5106  42.346  29.150   7.650
 4526POPC   C1B 5107  42.600  28.984   8.550
 4526POPC   C2B 5108  42.532  29.062   8.250
 4526POPC   C3B 5109  42.551  28.980   7.950
 4526POPC   C4B 5110  42.587  29.066   7.650
 4527POPC   NC3 5111   5.052   9.021   9.450
 4527POPC   PO4 5112   5.123   8.937   9.150
 4527POPC   GL1 5113   5.109   8.925   8.850
 4527POPC   GL2 5114   5.022   9.047   8.850
 4527POPC   C1A 5115   5.105   8.982   8.550
 4527POPC   D2A 5116   5.071   9.021   8.250
 4527POPC   C3A 5117   5.138   9.019   7.950
 4527POPC   C4A 5118   5.051   8.928   7.650
 4527POPC   C1B 5119   4.873   9.027   8.550
 4527POPC   C2B 5120   4.896   9.104   8.250
 4527POPC   C3B 5121   4.851   9.086   7.950
 4527POPC   C4B 5122   4.910   9.119   7.650
 4528POPC   NC3 5123   2.717   3.567   9.450
 4528POPC   PO4 5124   2.793   3.497   9.150
 4528POPC   GL1 5125   2.742   3.522   8.850
 4528POPC   GL2 5126   2.697   3.596   8.850
 4528POPC   C1A 5127   2.723   3.580   8.550
 4528POPC   D2A 5128   2.746   3.562   8.250
 4528POPC   C3A 5129   2.719   3.583   7.950
 4528POPC   C4A 5130   2.741   3.515   7.650
 4528POPC   C1B 5131   2.575   3.689   8.550
 4528POPC   C2B 5132   2.552   3.679   8.250
 4528POPC   C3B 5133   2.531   3.670   7.950
 4528POPC   C4B 5134   2.577   3.628   7.650
 4529POPC   NC3 5135  33.783  18.332   9.450
 4529POPC   PO4 5136  33.818  18.264   9.150
 4529POPC   GL1 5137  33.849  18.297   8.850
 4529POPC   GL2 5138  33.837  18.186   8.850
 4529POPC   C1A 5139  33.849  18.287   8.550
 4529POPC   D2A 5140  33.751  18.317   8.250
 4529POPC   C3A 5141  33.835  18.275   7.950
 4529POPC   C4A 5142  33.821  18.275   7.650
 4529POPC   C1B 5143  33.880  18.021   8.550
 4529POPC   C2B 5144  33.928  18.046   8.250
 4529POPC   C3B 5145  33.877  18.046   7.950
 4529POPC   C4B 5146  33.940  18.044   7.650
 4530POPC   NC3 5147  39.187  17.541   9.450
 4530POPC   PO4 5148  39.260  17.465   9.150
 4530POPC   GL1 5149  39.182  17.470   8.850
 4530POPC   GL2 5150  39.356  17.521   8.850
 4530POPC   C1A 5151  39.257  17.496   8.550
 4530POPC   D2A 5152  39.272  17.458   8.250
 4530POPC   C3A 5153  39.197  17.540   7.950
 4530POPC   C4A 5154  39.257  17.504   7.650
 4530POPC   C1B 5155  39.501  17.589   8.550
 4530POPC   C2B 5156  39.436  17.591   8.250
 4530POPC   C3B 5157  39.523  17.559   7.950
 4530POPC   C4B 5158  39.478  17.555   7.650
 4531POPC   NC3 5159  43.126  22.908   9.450
 4531POPC   PO4 5160  43.159  22.921   9.150
 4531POPC   GL1 5161  43.141  22.974   8.850
 4531POPC   GL2 5162  42.996  23.018   8.850
 4531POPC   C1A 5163  43.068  22.964   8.550
 4531POPC   D2A 5164  43.134  22.939   8.250
 4531POPC   C3A 5165  43.083  22.895   7.950
 4531POPC   C4A 5166  43.142  22.888   7.650
 4531POPC   C1B 5167  42.896  23.121   8.550
 4531POPC   C2B 5168  42.932  23.142   8.250
 4531POPC   C3B 5169  42.984  23.128   7.950
 4531POPC   C4B 5170  42.976  23.085   7.650
 4532POPC   NC3 5171  36.929  16.760   9.450
 4532POPC   PO4 5172  36.871  16.744   9.150
 4532POPC   GL1 5173  36.896  16.729   8.850
 4532POPC   GL2 5174  36.974  16.811   8.850
 4532POPC   C1A 5175  36.880  16.752   8.550
 4532POPC   D2A 5176  36.950  16.757   8.250
 4532POPC   C3A 5177  36.870  16.726   7.950
 4532POPC   C4A 5178  36.894  16.764   7.650
 4532POPC   C1B 5179  37.109  16.915   8.550
 4532POPC   C2B 5180  37.105  16.935   8.250
 4532POPC   C3B 5181  37.118  16.857   7.950
 4532POPC   C4B 5182  37.097  16.919   7.650
 4533POPC   NC3 5183  30.734  29.881   9.450
 4533POPC   PO4 5184  30.678  29.951   9.150
 4533POPC   GL1 5185  30.697  29.890   8.850
 4533POPC   GL2 5186  30.632  30.002   8.850
 4533POPC   C1A 5187  30.664  29.885   8.550
 4533POPC   D2A 5188  30.681  29.919   8.250
 4533POPC   C3A 5189  30.701  29.951   7.950
 4533POPC   C4A 5190  30.738  29.883   7.650
 4533POPC   C1B 5191  30.515  30.072   8.550
 4533POPC   C2B 5192  30.443  30.068   8.250
 4533POPC   C3B 5193  30.507  30.056   7.950
 4533POPC   C4B 5194  30.474  30.026   7.650
 4534POPC   NC3 5195  20.606  40.771   9.450
 4534POPC   PO4 5196  20.644  40.769   9.150
 4534POPC   GL1 5197  20.588  40.771   8.850
 4534POPC   GL2 5198  20.681  40.701   8.850
 4534POPC   C1A 5199  20.632  40.778   8.550
 4534POPC   D2A 5200  20.587  40.737   8.250
 4534POPC   C3A 5201  20.657  40.781   7.950
 4534POPC   C4A 5202  20.629  40.786   7.650
 4534POPC   C1B 5203  20.746  40.601   8.550
 4534POPC   C2B 5204  20.813  40.552   8.250
 4534POPC   C3B 5205  20.769  40.605   7.950
 4534POPC   C4B 5206  20.741  40.645   7.650
 4535POPC   NC3 5207  10.540  22.920   9.450
 4535POPC   PO4 5208  10.518  22.979   9.150
 4535POPC   GL1 5209  10.549  22.960   8.850
 4535POPC   GL2 5210  10.650  22.802   8.850
 4535POPC   C1A 5211  10.488  22.951   8.550
 4535POPC   D2A 5212  10.475  22.907   8.250
 4535POPC   C3A 5213  10.475  22.899   7.950
 4535POPC   C4A 5214  10.497  22.967   7.650
 4535POPC   C1B 5215  10.659  22.717   8.550
 4535POPC   C2B 5216  10.725  22.760   8.250
 4535POPC   C3B 5217  10.681  22.706   7.950
 4535POPC   C4B 5218  10.723  22.766   7.650
 4536POPC   NC3 5219  36.097  26.054   9.450
 4536POPC   PO4 5220  36.084  26.053   9.150
 4536POPC   GL1 5221  36.085  26.018   8.850
 4536POPC   GL2 5222  35.975  26.072   8.850
 4536POPC   C1A 5223  36.128  26.035   8.550
 4536POPC   D2A 5224  36.166  26.080   8.250
 4536POPC   C3A 5225  36.138  26.024   7.950
 4536POPC   C4A 5226  36.091  26.060   7.650
 4536POPC   C1B 5227  35.933  26.091   8.550
 4536POPC   C2B 5228  35.864  26.125   8.250
 4536POPC   C3B 5229  35.867  26.114   7.950
 4536POPC   C4B 5230  35.843  26.111   7.650
 4537POPC   NC3 5231  44.663  40.812   9.450
 4537POPC   PO4 5232  44.680  40.773   9.150
 4537POPC   GL1 5233  44.705  40.766   8.850
 4537POPC   GL2 5234  44.521  40.731   8.850
 4537POPC   C1A 5235  44.709  40.814   8.550
 4537POPC   D2A 5236  44.627  40.816   8.250
 4537POPC   C3A 5237  44.650  40.748   7.950
 4537POPC   C4A 5238  44.688  40.791   7.650
 4537POPC   C1B 5239  44.408  40.745   8.550
 4537POPC   C2B 5240  44.392  40.707   8.250
 4537POPC   C3B 5241  44.459  40.703   7.950
 4537POPC   C4B 5242  44.462  40.778   7.650
 4538POPC   NC3 5243  44.704  23.714   9.450
 4538POPC   PO4 5244  44.650  23.748   9.150
 4538POPC   GL1 5245  44.670  23.701   8.850
 4538POPC   GL2 5246  44.590  23.798   8.850
 4538POPC   C1A 5247  44.682  23.706   8.550
 4538POPC   D2A 5248  44.631  23.758   8.250
 4538POPC   C3A 5249  44.612  23.750   7.950
 4538POPC   C4A 5250  44.696  23.761   7.650
 4538POPC   C1B 5251  44.419  23.868   8.550
 4538POPC   C2B 5252  44.425  23.805   8.250
 4538POPC   C3B 5253  44.433  23.833   7.950
 4538POPC   C4B 5254  44.389  23.850   7.650
 4539POPC   NC3 5255  26.090  15.195   9.450
 4539POPC   PO4 5256  26.005  15.226   9.150
 4539POPC   GL1 5257  26.015  15.155   8.850
 4539POPC   GL2 5258  26.139  15.246   8.850
 4539POPC   C1A 5259  26.058  15.144   8.550
 4539POPC   D2A 5260  26.051  15.200   8.250
 4539POPC   C3A 5261  26.067  15.151   7.950
 4539POPC   C4A 5262  26.001  15.176   7.650
 4539POPC   C1B 5263  26.245  15.349   8.550
 4539POPC   C2B 5264  26.172  15.380   8.250
 4539POPC   C3B 5265  26.174  15.400   7.950
 4539POPC   C4B 5266  26.222  15.392   7.650
 4540POPC   NC3 5267  25.312  22.944   9.450
 4540POPC   PO4 5268  25.251  22.927   9.150
 4540POPC   GL1 5269  25.263  22.898   8.850
 4540POPC   GL2 5270  25.145  22.930   8.850
 4540POPC   C1A 5271  25.301  22.924   8.550
 4540POPC   D2A 5272  25.249  22.961   8.250
 4540POPC   C3A 5273  25.240  22.944   7.950
 4540POPC   C4A 5274  25.223  22.941   7.650
 4540POPC   C1B 5275  24.989  22.989   8.550
 4540POPC   C2B 5276  24.981  23.003   8.250
 4540POPC   C3B 5277  25.050  22.979   7.950
 4540POPC   C4B 5278  25.056  22.962   7.650
 4541POPC   NC3 5279   2.751   1.182   9.450
 4541POPC   PO4 5280   2.732   1.230   9.150
 4541POPC   GL1 5281   2.775   1.174   8.850
 4541POPC   GL2 5282   2.622   1.196   8.850
 4541POPC   C1A 5283   2.765   1.235   8.550
 4541POPC   D2A 5284   2.759   1.186   8.250
 4541POPC   C3A 5285   2.762   1.188   7.950
 4541POPC   C4A 5286   2.751   1.229   7.650
 4541POPC   C1B 5287   2.520   1.106   8.550
 4541POPC   C2B 5288   2.556   1.112   8.250
 4541POPC   C3B 5289   2.498   1.104   7.950
 4541POPC   C4B 5290   2.476   1.159   7.650
 4542POPC   NC3 5291   3.567  32.249   9.450
 4542POPC   PO4 5292   3.527  32.220   9.150
 4542POPC   GL1 5293   3.584  32.206   8.850
 4542POPC   GL2 5294   3.658  32.120   8.850
 4542POPC   C1A 5295   3.590  32.236   8.550
 4542POPC   D2A 5296   3.545  32.226   8.250
 4542POPC   C3A 5297   3.548  32.276   7.950
 4542POPC   C4A 5298   3.519  32.279   7.650
 4542POPC   C1B 5299   3.720  32.069   8.550
 4542POPC   C2B 5300   3.652  32.059   8.250
 4542POPC   C3B 5301   3.698  32.039   7.950
 4542POPC   C4B 5302   3.736  32.053   7.650
 4543POPC   NC3 5303  38.428  23.691   9.450
 4543POPC   PO4 5304  38.435  23.750   9.150
 4543POPC   GL1 5305  38.407  23.683   8.850
 4543POPC   GL2 5306  38.320  23.768   8.850
 4543POPC   C1A 5307  38.431  23.676   8.550
 4543POPC   D2A 5308  38.428  23.681   8.250
 4543POPC   C3A 5309  38.434  23.714   7.950
 4543POPC   C4A 5310  38.488  23.750   7.650
 4543POPC   C1B 5311  38.229  23.697   8.550
 4543POPC   C2B 5312  38.189  23.703   8.250
 4543POPC   C3B 5313  38.159  23.728   7.950
 4543POPC   C4B 5314  38.209  23.727   7.650
 4544POPC   NC3 5315  14.420  43.891   9.450
 4544POPC   PO4 5316  14.362  43.920   9.150
 4544POPC   GL1 5317  14.388  43.926   8.850
 4544POPC   GL2 5318  14.437  43.999   8.850
 4544POPC   C1A 5319  14.367  43.842   8.550
 4544POPC   D2A 5320  14.372  43.866   8.250
 4544POPC   C3A 5321  14.386  43.910   7.950
 4544POPC   C4A 5322  14.395  43.889   7.650
 4544POPC   C1B 5323  14.514  44.086   8.550
 4544POPC   C2B 5324  14.573  44.107   8.250
 4544POPC   C3B 5325  14.497  44.082   7.950
 4544POPC   C4B 5326  14.503  44.142   7.650
 4545POPC   NC3 5327  36.864  40.831   9.450
 4545POPC   PO4 5328  36.926  40.800   9.150
 4545POPC   GL1 5329  36.857  40.803   8.850
 4545POPC   GL2 5330  36.844  40.729   8.850
 4545POPC   C1A 5331  36.866  40.755   8.550
 4545POPC   D2A 5332  36.880  40.760   8.250
 4545POPC   C3A 5333  36.902  40.801   7.950
 4545POPC   C4A 5334  36.945  40.824   7.650
 4545POPC   C1B 5335  36.711  40.621   8.550
 4545POPC   C2B 5336  36.749  40.578   8.250
 4545POPC   C3B 5337  36.691  40.592   7.950
 4545POPC   C4B 5338  36.706  40.584   7.650
 4546POPC   NC3 5339  20.590   4.297   9.450
 4546POPC   PO4 5340  20.656   4.342   9.150
 4546POPC   GL1 5341  20.591   4.296   8.850
 4546POPC   GL2 5342  20.580   4.423   8.850
 4546POPC   C1A 5343  20.634   4.297   8.550
 4546POPC   D2A 5344  20.619   4.273   8.250
 4546POPC   C3A 5345  20.654   4.280   7.950
 4546POPC   C4A 5346  20.604   4.301   7.650
 4546POPC   C1B 5347  20.427   4.529   8.550
 4546POPC   C2B 5348  20.460   4.520   8.250
 4546POPC   C3B 5349  20.480   4.489   7.950
 4546POPC   C4B 5350  20.495   4.478   7.650
 4547POPC   NC3 5351  22.154  43.840   9.450
 4547POPC   PO4 5352  22.152  43.884   9.150
 4547POPC   GL1 5353  22.192  43.934   8.850
 4547POPC   GL2 5354  22.181  44.043   8.850
 4547POPC   C1A 5355  22.150  43.851   8.550
 4547POPC   D2A 5356  22.135  43.893   8.250
 4547POPC   C3A 5357  22.163  43.866   7.950
 4547POPC   C4A 5358  22.155  43.921   7.650
 4547POPC   C1B 5359  22.198  44.103   8.550
 4547POPC   C2B 5360  22.176  44.168   8.250
 4547POPC   C3B 5361  22.214  44.160   7.950
 4547POPC   C4B 5362  22.178  44.127   7.650
 4548POPC   NC3 5363   2.029   9.782   9.450
 4548POPC   PO4 5364   2.008   9.760   9.150
 4548POPC   GL1 5365   1.981   9.740   8.850
 4548POPC   GL2 5366   2.152   9.715   8.850
 4548POPC   C1A 5367   2.000   9.797   8.550
 4548POPC   D2A 5368   1.942   9.717   8.250
 4548POPC   C3A 5369   2.037   9.769   7.950
 4548POPC   C4A 5370   2.025   9.739   7.650
 4548POPC   C1B 5371   2.279   9.730   8.550
 4548POPC   C2B 5372   2.259   9.726   8.250
 4548POPC   C3B 5373   2.240   9.728   7.950
 4548POPC   C4B 5374   2.225   9.722   7.650
 4549POPC   NC3 5375  13.676  12.125   9.450
 4549POPC   PO4 5376  13.636  12.073   9.150
 4549POPC   GL1 5377  13.607  12.094   8.850
 4549POPC   GL2 5378  13.709  12.086   8.850
 4549POPC   C1A 5379  13.611  12.084   8.550
 4549POPC   D2A 5380  13.611  12.062   8.250
 4549POPC   C3A 5381  13.593  12.096   7.950
 4549POPC   C4A 5382  13.674  12.039   7.650
 4549POPC   C1B 5383  13.827  12.174   8.550
 4549POPC   C2B 5384  13.885  12.131   8.250
 4549POPC   C3B 5385  13.815  12.167   7.950
 4549POPC   C4B 5386  13.908  12.171   7.650
 4550POPC   NC3 5387  29.132   7.371   9.450
 4550POPC   PO4 5388  29.182   7.426   9.150
 4550POPC   GL1 5389  29.137   7.455   8.850
 4550POPC   GL2 5390  28.983   7.439   8.850
 4550POPC   C1A 5391  29.135   7.410   8.550
 4550POPC   D2A 5392  29.133   7.393   8.250
 4550POPC   C3A 5393  29.176   7.469   7.950
 4550POPC   C4A 5394  29.167   7.439   7.650
 4550POPC   C1B 5395  28.926   7.446   8.550
 4550POPC   C2B 5396  28.940   7.472   8.250
 4550POPC   C3B 5397  28.902   7.493   7.950
 4550POPC   C4B 5398  28.883   7.444   7.650
 4551POPC   NC3 5399   9.732  28.388   9.450
 4551POPC   PO4 5400   9.743  28.388   9.150
 4551POPC   GL1 5401   9.788  28.388   8.850
 4551POPC   GL2 5402   9.851  28.365   8.850
 4551POPC   C1A 5403   9.795  28.412   8.550
 4551POPC   D2A 5404   9.731  28.383   8.250
 4551POPC   C3A 5405   9.735  28.392   7.950
 4551POPC   C4A 5406   9.775  28.409   7.650
 4551POPC   C1B 5407   9.955  28.295   8.550
 4551POPC   C2B 5408   9.961  28.269   8.250
 4551POPC   C3B 5409   9.971  28.263   7.950
 4551POPC   C4B 5410   9.993  28.305   7.650
 4552POPC   NC3 5411  36.874  19.844   9.450
 4552POPC   PO4 5412  36.930  19.879   9.150
 4552POPC   GL1 5413  36.914  19.795   8.850
 4552POPC   GL2 5414  36.824  19.829   8.850
 4552POPC   C1A 5415  36.938  19.819   8.550
 4552POPC   D2A 5416  36.933  19.821   8.250
 4552POPC   C3A 5417  36.869  19.878   7.950
 4552POPC   C4A 5418  36.932  19.806   7.650
 4552POPC   C1B 5419  36.700  19.892   8.550
 4552POPC   C2B 5420  36.687  19.839   8.250
 4552POPC   C3B 5421  36.640  19.915   7.950
 4552POPC   C4B 5422  36.687  19.869   7.650
 4553POPC   NC3 5423  13.648  21.401   9.450
 4553POPC   PO4 5424  13.656  21.430   9.150
 4553POPC   GL1 5425  13.659  21.380   8.850
 4553POPC   GL2 5426  13.591  21.297   8.850
 4553POPC   C1A 5427  13.628  21.409   8.550
 4553POPC   D2A 5428  13.643  21.369   8.250
 4553POPC   C3A 5429  13.610  21.400   7.950
 4553POPC   C4A 5430  13.617  21.337   7.650
 4553POPC   C1B 5431  13.636  21.139   8.550
 4553POPC   C2B 5432  13.661  21.176   8.250
 4553POPC   C3B 5433  13.667  21.183   7.950
 4553POPC   C4B 5434  13.645  21.150   7.650
 4554POPC   NC3 5435  28.351  11.346   9.450
 4554POPC   PO4 5436  28.386  11.280   9.150
 4554POPC   GL1 5437  28.321  11.321   8.850
 4554POPC   GL2 5438  28.441  11.254   8.850
 4554POPC   C1A 5439  28.344  11.308   8.550
 4554POPC   D2A 5440  28.388  11.338   8.250
 4554POPC   C3A 5441  28.338  11.339   7.950
 4554POPC   C4A 5442  28.409  11.280   7.650
 4554POPC   C1B 5443  28.582  11.099   8.550
 4554POPC   C2B 5444  28.515  11.175   8.250
 4554POPC   C3B 5445  28.597  11.145   7.950
 4554POPC   C4B 5446  28.551  11.190   7.650
 4555POPC   NC3 5447   2.029  19.088   9.450
 4555POPC   PO4 5448   1.996  19.094   9.150
 4555POPC   GL1 5449   2.020  19.106   8.850
 4555POPC   GL2 5450   1.823  19.052   8.850
 4555POPC   C1A 5451   2.035  19.089   8.550
 4555POPC   D2A 5452   1.955  19.099   8.250
 4555POPC   C3A 5453   1.951  19.022   7.950
 4555POPC   C4A 5454   2.025  19.098   7.650
 4555POPC   C1B 5455   1.730  18.962   8.550
 4555POPC   C2B 5456   1.763  18.946   8.250
 4555POPC   C3B 5457   1.723  19.000   7.950
 4555POPC   C4B 5458   1.713  18.970   7.650
 4556POPC   NC3 5459  22.193  19.044   9.450
 4556POPC   PO4 5460  22.129  19.062   9.150
 4556POPC   GL1 5461  22.148  19.034   8.850
 4556POPC   GL2 5462  22.102  18.941   8.850
 4556POPC   C1A 5463  22.179  19.021   8.550
 4556POPC   D2A 5464  22.207  19.029   8.250
 4556POPC   C3A 5465  22.171  19.084   7.950
 4556POPC   C4A 5466  22.133  19.026   7.650
 4556POPC   C1B 5467  22.040  18.874   8.550
 4556POPC   C2B 5468  22.092  18.871   8.250
 4556POPC   C3B 5469  22.039  18.850   7.950
 4556POPC   C4B 5470  22.012  18.845   7.650
 4557POPC   NC3 5471  34.566   3.573   9.450
 4557POPC   PO4 5472  34.568   3.552   9.150
 4557POPC   GL1 5473  34.567   3.516   8.850
 4557POPC   GL2 5474  34.624   3.484   8.850
 4557POPC   C1A 5475  34.625   3.525   8.550
 4557POPC   D2A 5476  34.568   3.572   8.250
 4557POPC   C3A 5477  34.579   3.580   7.950
 4557POPC   C4A 5478  34.601   3.561   7.650
 4557POPC   C1B 5479  34.772   3.304   8.550
 4557POPC   C2B 5480  34.750   3.359   8.250
 4557POPC   C3B 5481  34.760   3.385   7.950
 4557POPC   C4B 5482  34.771   3.357   7.650
 4558POPC   NC3 5483  44.711  14.379   9.450
 4558POPC   PO4 5484  44.640  14.416   9.150
 4558POPC   GL1 5485  44.635  14.365   8.850
 4558POPC   GL2 5486  44.712  14.540   8.850
 4558POPC   C1A 5487  44.630  14.413   8.550
 4558POPC   D2A 5488  44.667  14.404   8.250
 4558POPC   C3A 5489  44.649  14.378   7.950
 4558POPC   C4A 5490  44.636  14.390   7.650
 4558POPC   C1B 5491  44.842  14.603   8.550
 4558POPC   C2B 5492  44.881  14.615   8.250
 4558POPC   C3B 5493  44.847  14.588   7.950
 4558POPC   C4B 5494  44.822  14.581   7.650
 4559POPC   NC3 5495  39.280  30.741   9.450
 4559POPC   PO4 5496  39.204  30.705   9.150
 4559POPC   GL1 5497  39.212  30.656   8.850
 4559POPC   GL2 5498  39.168  30.560   8.850
 4559POPC   C1A 5499  39.250  30.662   8.550
 4559POPC   D2A 5500  39.198  30.736   8.250
 4559POPC   C3A 5501  39.236  30.693   7.950
 4559POPC   C4A 5502  39.209  30.735   7.650
 4559POPC   C1B 5503  39.147  30.489   8.550
 4559POPC   C2B 5504  39.179  30.459   8.250
 4559POPC   C3B 5505  39.175  30.504   7.950
 4559POPC   C4B 5506  39.196  30.471   7.650
 4560POPC   NC3 5507   6.684  43.865   9.450
 4560POPC   PO4 5508   6.607  43.895   9.150
 4560POPC   GL1 5509   6.626  43.859   8.850
 4560POPC   GL2 5510   6.722  43.971   8.850
 4560POPC   C1A 5511   6.656  43.858   8.550
 4560POPC   D2A 5512   6.660  43.903   8.250
 4560POPC   C3A 5513   6.615  43.877   7.950
 4560POPC   C4A 5514   6.638  43.864   7.650
 4560POPC   C1B 5515   6.818  44.094   8.550
 4560POPC   C2B 5516   6.827  44.051   8.250
 4560POPC   C3B 5517   6.799  44.065   7.950
 4560POPC   C4B 5518   6.784  44.103   7.650
 4561POPC   NC3 5519  11.296  40.757   9.450
 4561POPC   PO4 5520  11.279  40.748   9.150
 4561POPC   GL1 5521  11.280  40.820   8.850
 4561POPC   GL2 5522  11.258  40.651   8.850
 4561POPC   C1A 5523  11.295  40.787   8.550
 4561POPC   D2A 5524  11.315  40.734   8.250
 4561POPC   C3A 5525  11.254  40.751   7.950
 4561POPC   C4A 5526  11.331  40.755   7.650
 4561POPC   C1B 5527  11.211  40.552   8.550
 4561POPC   C2B 5528  11.197  40.518   8.250
 4561POPC   C3B 5529  11.209  40.598   7.950
 4561POPC   C4B 5530  11.243  40.519   7.650
 4562POPC   NC3 5531  37.664  19.884   9.450
 4562POPC   PO4 5532  37.719  19.878   9.150
 4562POPC   GL1 5533  37.690  19.850   8.850
 4562POPC   GL2 5534  37.645  19.933   8.850
 4562POPC   C1A 5535  37.632  19.804   8.550
 4562POPC   D2A 5536  37.660  19.838   8.250
 4562POPC   C3A 5537  37.721  19.876   7.950
 4562POPC   C4A 5538  37.708  19.848   7.650
 4562POPC   C1B 5539  37.618  20.018   8.550
 4562POPC   C2B 5540  37.605  20.037   8.250
 4562POPC   C3B 5541  37.572  20.089   7.950
 4562POPC   C4B 5542  37.598  20.042   7.650
 4563POPC   NC3 5543  40.035  43.918   9.450
 4563POPC   PO4 5544  39.964  43.902   9.150
 4563POPC   GL1 5545  40.006  43.893   8.850
 4563POPC   GL2 5546  39.923  43.932   8.850
 4563POPC   C1A 5547  39.990  43.914   8.550
 4563POPC   D2A 5548  39.981  43.893   8.250
 4563POPC   C3A 5549  40.016  43.870   7.950
 4563POPC   C4A 5550  40.033  43.895   7.650
 4563POPC   C1B 5551  39.843  44.091   8.550
 4563POPC   C2B 5552  39.795  44.068   8.250
 4563POPC   C3B 5553  39.836  44.096   7.950
 4563POPC   C4B 5554  39.824  44.013   7.650
 4564POPC   NC3 5555  41.551  33.805   9.450
 4564POPC   PO4 5556  41.604  33.759   9.150
 4564POPC   GL1 5557  41.530  33.765   8.850
 4564POPC   GL2 5558  41.500  33.884   8.850
 4564POPC   C1A 5559  41.560  33.760   8.550
 4564POPC   D2A 5560  41.564  33.819   8.250
 4564POPC   C3A 5561  41.550  33.754   7.950
 4564POPC   C4A 5562  41.581  33.772   7.650
 4564POPC   C1B 5563  41.463  34.011   8.550
 4564POPC   C2B 5564  41.447  34.004   8.250
 4564POPC   C3B 5565  41.498  34.056   7.950
 4564POPC   C4B 5566  41.458  34.058   7.650
 4565POPC   NC3 5567   1.170  40.810   9.450
 4565POPC   PO4 5568   1.213  40.763   9.150
 4565POPC   GL1 5569   1.174  40.788   8.850
 4565POPC   GL2 5570   1.051  40.838   8.850
 4565POPC   C1A 5571   1.263  40.802   8.550
 4565POPC   D2A 5572   1.175  40.832   8.250
 4565POPC   C3A 5573   1.178  40.741   7.950
 4565POPC   C4A 5574   1.200  40.817   7.650
 4565POPC   C1B 5575   0.942  40.839   8.550
 4565POPC   C2B 5576   0.986  40.836   8.250
 4565POPC   C3B 5577   1.012  40.817   7.950
 4565POPC   C4B 5578   0.990  40.753   7.650
 4566POPC   NC3 5579  22.925  32.293   9.450
 4566POPC   PO4 5580  22.912  32.225   9.150
 4566POPC   GL1 5581  22.980  32.292   8.850
 4566POPC   GL2 5582  22.978  32.133   8.850
 4566POPC   C1A 5583  22.957  32.250   8.550
 4566POPC   D2A 5584  22.903  32.211   8.250
 4566POPC   C3A 5585  22.910  32.263   7.950
 4566POPC   C4A 5586  22.981  32.282   7.650
 4566POPC   C1B 5587  22.997  32.039   8.550
 4566POPC   C2B 5588  22.978  32.049   8.250
 4566POPC   C3B 5589  23.025  31.992   7.950
 4566POPC   C4B 5590  23.013  31.963   7.650
 4567POPC   NC3 5591  14.426  23.725   9.450
 4567POPC   PO4 5592  14.354  23.688   9.150
 4567POPC   GL1 5593  14.377  23.701   8.850
 4567POPC   GL2 5594  14.304  23.691   8.850
 4567POPC   C1A 5595  14.405  23.666   8.550
 4567POPC   D2A 5596  14.411  23.751   8.250
 4567POPC   C3A 5597  14.420  23.759   7.950
 4567POPC   C4A 5598  14.399  23.757   7.650
 4567POPC   C1B 5599  14.213  23.657   8.550
 4567POPC   C2B 5600  14.167  23.652   8.250
 4567POPC   C3B 5601  14.143  23.601   7.950
 4567POPC   C4B 5602  14.214  23.642   7.650
 4568POPC   NC3 5603  24.500  21.399   9.450
 4568POPC   PO4 5604  24.468  21.367   9.150
 4568POPC   GL1 5605  24.477  21.373   8.850
 4568POPC   GL2 5606  24.515  21.218   8.850
 4568POPC   C1A 5607  24.460  21.418   8.550
 4568POPC   D2A 5608  24.462  21.389   8.250
 4568POPC   C3A 5609  24.525  21.383   7.950
 4568POPC   C4A 5610  24.518  21.358   7.650
 4568POPC   C1B 5611  24.569  21.110   8.550
 4568POPC   C2B 5612  24.492  21.127   8.250
 4568POPC   C3B 5613  24.491  21.110   7.950
 4568POPC   C4B 5614  24.505  21.154   7.650
 4569POPC   NC3 5615   8.200  27.578   9.450
 4569POPC   PO4 5616   8.196  27.601   9.150
 4569POPC   GL1 5617   8.198  27.562   8.850
 4569POPC   GL2 5618   8.137  27.519   8.850
 4569POPC   C1A 5619   8.163  27.570   8.550
 4569POPC   D2A 5620   8.166  27.573   8.250
 4569POPC   C3A 5621   8.185  27.558   7.950
 4569POPC   C4A 5622   8.235  27.603   7.650
 4569POPC   C1B 5623   8.045  27.400   8.550
 4569POPC   C2B 5624   8.018  27.379   8.250
 4569POPC   C3B 5625   8.029  27.415   7.950
 4569POPC   C4B 5626   8.022  27.444   7.650
 4570POPC   NC3 5627   2.013  33.815   9.450
 4570POPC   PO4 5628   2.033  33.754   9.150
 4570POPC   GL1 5629   1.952  33.780   8.850
 4570POPC   GL2 5630   2.026  33.928   8.850
 4570POPC   C1A 5631   2.016  33.822   8.550
 4570POPC   D2A 5632   1.957  33.770   8.250
 4570POPC   C3A 5633   1.997  33.836   7.950
 4570POPC   C4A 5634   1.981  33.840   7.650
 4570POPC   C1B 5635   2.097  34.037   8.550
 4570POPC   C2B 5636   2.161  34.025   8.250
 4570POPC   C3B 5637   2.112  34.029   7.950
 4570POPC   C4B 5638   2.144  34.011   7.650
 4571POPC   NC3 5639  27.555   5.127   9.450
 4571POPC   PO4 5640  27.594   5.087   9.150
 4571POPC   GL1 5641  27.580   5.128   8.850
 4571POPC   GL2 5642  27.499   5.180   8.850
 4571POPC   C1A 5643  27.585   5.078   8.550
 4571POPC   D2A 5644  27.601   5.050   8.250
 4571POPC   C3A 5645  27.582   5.064   7.950
 4571POPC   C4A 5646  27.560   5.065   7.650
 4571POPC   C1B 5647  27.424   5.328   8.550
 4571POPC   C2B 5648  27.493   5.330   8.250
 4571POPC   C3B 5649  27.463   5.341   7.950
 4571POPC   C4B 5650  27.409   5.276   7.650
 4572POPC   NC3 5651  22.982  26.855   9.450
 4572POPC   PO4 5652  22.917  26.769   9.150
 4572POPC   GL1 5653  22.940  26.803   8.850
 4572POPC   GL2 5654  22.826  26.792   8.850
 4572POPC   C1A 5655  22.900  26.849   8.550
 4572POPC   D2A 5656  22.956  26.784   8.250
 4572POPC   C3A 5657  22.894  26.849   7.950
 4572POPC   C4A 5658  22.944  26.767   7.650
 4572POPC   C1B 5659  22.746  26.705   8.550
 4572POPC   C2B 5660  22.689  26.730   8.250
 4572POPC   C3B 5661  22.690  26.744   7.950
 4572POPC   C4B 5662  22.706  26.725   7.650
 4573POPC   NC3 5663  37.710  41.583   9.450
 4573POPC   PO4 5664  37.705  41.518   9.150
 4573POPC   GL1 5665  37.721  41.580   8.850
 4573POPC   GL2 5666  37.513  41.543   8.850
 4573POPC   C1A 5667  37.672  41.559   8.550
 4573POPC   D2A 5668  37.679  41.546   8.250
 4573POPC   C3A 5669  37.704  41.541   7.950
 4573POPC   C4A 5670  37.692  41.606   7.650
 4573POPC   C1B 5671  37.453  41.464   8.550
 4573POPC   C2B 5672  37.423  41.497   8.250
 4573POPC   C3B 5673  37.456  41.443   7.950
 4573POPC   C4B 5674  37.411  41.511   7.650
 4574POPC   NC3 5675  12.830  29.932   9.450
 4574POPC   PO4 5676  12.819  29.893   9.150
 4574POPC   GL1 5677  12.830  29.899   8.850
 4574POPC   GL2 5678  12.887  29.779   8.850
 4574POPC   C1A 5679  12.897  29.960   8.550
 4574POPC   D2A 5680  12.883  29.914   8.250
 4574POPC   C3A 5681  12.861  29.911   7.950
 4574POPC   C4A 5682  12.811  29.916   7.650
 4574POPC   C1B 5683  13.000  29.746   8.550
 4574POPC   C2B 5684  12.964  29.695   8.250
 4574POPC   C3B 5685  12.972  29.748   7.950
 4574POPC   C4B 5686  13.050  29.708   7.650
 4575POPC   NC3 5687  20.605  35.325   9.450
 4575POPC   PO4 5688  20.659  35.395   9.150
 4575POPC   GL1 5689  20.634  35.329   8.850
 4575POPC   GL2 5690  20.722  35.289   8.850
 4575POPC   C1A 5691  20.643  35.380   8.550
 4575POPC   D2A 5692  20.574  35.333   8.250
 4575POPC   C3A 5693  20.572  35.313   7.950
 4575POPC   C4A 5694  20.629  35.316   7.650
 4575POPC   C1B 5695  20.769  35.102   8.550
 4575POPC   C2B 5696  20.710  35.147   8.250
 4575POPC   C3B 5697  20.778  35.131   7.950
 4575POPC   C4B 5698  20.699  35.101   7.650
 4576POPC   NC3 5699   0.419  22.970   9.450
 4576POPC   PO4 5700   0.459  22.977   9.150
 4576POPC   GL1 5701   0.478  22.907   8.850
 4576POPC   GL2 5702   0.392  22.823   8.850
 4576POPC   C1A 5703   0.479  22.977   8.550
 4576POPC   D2A 5704   0.450  22.969   8.250
 4576POPC   C3A 5705   0.483  22.948   7.950
 4576POPC   C4A 5706   0.476  22.977   7.650
 4576POPC   C1B 5707   0.323  22.723   8.550
 4576POPC   C2B 5708   0.346  22.731   8.250
 4576POPC   C3B 5709   0.355  22.721   7.950
 4576POPC   C4B 5710   0.294  22.751   7.650
 4577POPC   NC3 5711  37.641  20.629   9.450
 4577POPC   PO4 5712  37.657  20.588   9.150
 4577POPC   GL1 5713  37.639  20.569   8.850
 4577POPC   GL2 5714  37.799  20.750   8.850
 4577POPC   C1A 5715  37.709  20.594   8.550
 4577POPC   D2A 5716  37.711  20.612   8.250
 4577POPC   C3A 5717  37.711  20.568   7.950
 4577POPC   C4A 5718  37.662  20.565   7.650
 4577POPC   C1B 5719  37.839  20.776   8.550
 4577POPC   C2B 5720  37.822  20.772   8.250
 4577POPC   C3B 5721  37.779  20.773   7.950
 4577POPC   C4B 5722  37.809  20.806   7.650
 4578POPC   NC3 5723  20.593  29.954   9.450
 4578POPC   PO4 5724  20.567  29.877   9.150
 4578POPC   GL1 5725  20.657  29.961   8.850
 4578POPC   GL2 5726  20.587  30.029   8.850
 4578POPC   C1A 5727  20.633  29.930   8.550
 4578POPC   D2A 5728  20.638  29.942   8.250
 4578POPC   C3A 5729  20.613  29.924   7.950
 4578POPC   C4A 5730  20.587  29.887   7.650
 4578POPC   C1B 5731  20.638  30.155   8.550
 4578POPC   C2B 5732  20.602  30.203   8.250
 4578POPC   C3B 5733  20.619  30.194   7.950
 4578POPC   C4B 5734  20.630  30.173   7.650
 4579POPC   NC3 5735  31.506  31.519   9.450
 4579POPC   PO4 5736  31.503  31.425   9.150
 4579POPC   GL1 5737  31.456  31.459   8.850
 4579POPC   GL2 5738  31.490  31.568   8.850
 4579POPC   C1A 5739  31.513  31.510   8.550
 4579POPC   D2A 5740  31.443  31.518   8.250
 4579POPC   C3A 5741  31.426  31.504   7.950
 4579POPC   C4A 5742  31.510  31.433   7.650
 4579POPC   C1B 5743  31.492  31.713   8.550
 4579POPC   C2B 5744  31.495  31.730   8.250
 4579POPC   C3B 5745  31.490  31.717   7.950
 4579POPC   C4B 5746  31.428  31.748   7.650
 4580POPC   NC3 5747   6.613  41.575   9.450
 4580POPC   PO4 5748   6.686  41.570   9.150
 4580POPC   GL1 5749   6.595  41.577   8.850
 4580POPC   GL2 5750   6.664  41.700   8.850
 4580POPC   C1A 5751   6.674  41.542   8.550
 4580POPC   D2A 5752   6.674  41.574   8.250
 4580POPC   C3A 5753   6.689  41.516   7.950
 4580POPC   C4A 5754   6.609  41.538   7.650
 4580POPC   C1B 5755   6.683  41.778   8.550
 4580POPC   C2B 5756   6.667  41.771   8.250
 4580POPC   C3B 5757   6.684  41.823   7.950
 4580POPC   C4B 5758   6.625  41.820   7.650
 4581POPC   NC3 5759  26.011  19.786   9.450
 4581POPC   PO4 5760  26.007  19.865   9.150
 4581POPC   GL1 5761  26.051  19.832   8.850
 4581POPC   GL2 5762  26.138  19.806   8.850
 4581POPC   C1A 5763  26.041  19.810   8.550
 4581POPC   D2A 5764  26.004  19.874   8.250
 4581POPC   C3A 5765  26.037  19.821   7.950
 4581POPC   C4A 5766  26.024  19.835   7.650
 4581POPC   C1B 5767  26.239  19.829   8.550
 4581POPC   C2B 5768  26.270  19.832   8.250
 4581POPC   C3B 5769  26.258  19.824   7.950
 4581POPC   C4B 5770  26.309  19.752   7.650
 4582POPC   NC3 5771  14.384  26.088   9.450
 4582POPC   PO4 5772  14.441  26.022   9.150
 4582POPC   GL1 5773  14.409  26.001   8.850
 4582POPC   GL2 5774  14.503  26.040   8.850
 4582POPC   C1A 5775  14.427  26.015   8.550
 4582POPC   D2A 5776  14.377  26.010   8.250
 4582POPC   C3A 5777  14.438  26.033   7.950
 4582POPC   C4A 5778  14.380  26.066   7.650
 4582POPC   C1B 5779  14.625  26.030   8.550
 4582POPC   C2B 5780  14.629  26.061   8.250
 4582POPC   C3B 5781  14.654  26.036   7.950
 4582POPC   C4B 5782  14.670  26.075   7.650
 4583POPC   NC3 5783  31.435  13.581   9.450
 4583POPC   PO4 5784  31.481  13.635   9.150
 4583POPC   GL1 5785  31.482  13.617   8.850
 4583POPC   GL2 5786  31.516  13.519   8.850
 4583POPC   C1A 5787  31.503  13.601   8.550
 4583POPC   D2A 5788  31.499  13.614   8.250
 4583POPC   C3A 5789  31.467  13.660   7.950
 4583POPC   C4A 5790  31.483  13.646   7.650
 4583POPC   C1B 5791  31.542  13.374   8.550
 4583POPC   C2B 5792  31.591  13.388   8.250
 4583POPC   C3B 5793  31.592  13.395   7.950
 4583POPC   C4B 5794  31.528  13.395   7.650
 4584POPC   NC3 5795   1.173  30.718   9.450
 4584POPC   PO4 5796   1.230  30.729   9.150
 4584POPC   GL1 5797   1.192  30.705   8.850
 4584POPC   GL2 5798   1.187  30.842   8.850
 4584POPC   C1A 5799   1.165  30.682   8.550
 4584POPC   D2A 5800   1.178  30.648   8.250
 4584POPC   C3A 5801   1.192  30.658   7.950
 4584POPC   C4A 5802   1.165  30.660   7.650
 4584POPC   C1B 5803   1.132  30.955   8.550
 4584POPC   C2B 5804   1.155  30.885   8.250
 4584POPC   C3B 5805   1.102  30.958   7.950
 4584POPC   C4B 5806   1.171  30.914   7.650
 4585POPC   NC3 5807  11.337  17.485   9.450
 4585POPC   PO4 5808  11.280  17.480   9.150
 4585POPC   GL1 5809  11.336  17.495   8.850
 4585POPC   GL2 5810  11.369  17.362   8.850
 4585POPC   C1A 5811  11.268  17.514   8.550
 4585POPC   D2A 5812  11.251  17.521   8.250
 4585POPC   C3A 5813  11.253  17.555   7.950
 4585POPC   C4A 5814  11.278  17.481   7.650
 4585POPC   C1B 5815  11.419  17.329   8.550
 4585POPC   C2B 5816  11.476  17.255   8.250
 4585POPC   C3B 5817  11.437  17.256   7.950
 4585POPC   C4B 5818  11.469  17.338   7.650
 4586POPC   NC3 5819  22.133  15.210   9.450
 4586POPC   PO4 5820  22.142  15.151   9.150
 4586POPC   GL1 5821  22.172  15.211   8.850
 4586POPC   GL2 5822  22.205  15.327   8.850
 4586POPC   C1A 5823  22.185  15.154   8.550
 4586POPC   D2A 5824  22.115  15.141   8.250
 4586POPC   C3A 5825  22.205  15.163   7.950
 4586POPC   C4A 5826  22.130  15.207   7.650
 4586POPC   C1B 5827  22.192  15.453   8.550
 4586POPC   C2B 5828  22.201  15.429   8.250
 4586POPC   C3B 5829  22.237  15.380   7.950
 4586POPC   C4B 5830  22.201  15.469   7.650
 4587POPC   NC3 5831  43.924  13.581   9.450
 4587POPC   PO4 5832  43.871  13.653   9.150
 4587POPC   GL1 5833  43.884  13.651   8.850
 4587POPC   GL2 5834  43.975  13.669   8.850
 4587POPC   C1A 5835  43.915  13.588   8.550
 4587POPC   D2A 5836  43.858  13.666   8.250
 4587POPC   C3A 5837  43.886  13.613   7.950
 4587POPC   C4A 5838  43.901  13.656   7.650
 4587POPC   C1B 5839  44.105  13.707   8.550
 4587POPC   C2B 5840  44.121  13.732   8.250
 4587POPC   C3B 5841  44.149  13.726   7.950
 4587POPC   C4B 5842  44.140  13.694   7.650
 4588POPC   NC3 5843  24.466  40.757   9.450
 4588POPC   PO4 5844  24.463  40.813   9.150
 4588POPC   GL1 5845  24.503  40.826   8.850
 4588POPC   GL2 5846  24.455  40.630   8.850
 4588POPC   C1A 5847  24.492  40.771   8.550
 4588POPC   D2A 5848  24.498  40.826   8.250
 4588POPC   C3A 5849  24.462  40.757   7.950
 4588POPC   C4A 5850  24.465  40.766   7.650
 4588POPC   C1B 5851  24.475  40.571   8.550
 4588POPC   C2B 5852  24.423  40.571   8.250
 4588POPC   C3B 5853  24.467  40.588   7.950
 4588POPC   C4B 5854  24.469  40.558   7.650
 4589POPC   NC3 5855   1.195   1.259   9.450
 4589POPC   PO4 5856   1.246   1.243   9.150
 4589POPC   GL1 5857   1.249   1.193   8.850
 4589POPC   GL2 5858   1.276   1.284   8.850
 4589POPC   C1A 5859   1.189   1.227   8.550
 4589POPC   D2A 5860   1.184   1.210   8.250
 4589POPC   C3A 5861   1.247   1.264   7.950
 4589POPC   C4A 5862   1.168   1.187   7.650
 4589POPC   C1B 5863   1.380   1.396   8.550
 4589POPC   C2B 5864   1.352   1.395   8.250
 4589POPC   C3B 5865   1.340   1.476   7.950
 4589POPC   C4B 5866   1.346   1.395   7.650
 4590POPC   NC3 5867  28.387  30.659   9.450
 4590POPC   PO4 5868  28.324  30.743   9.150
 4590POPC   GL1 5869  28.373  30.662   8.850
 4590POPC   GL2 5870  28.289  30.697   8.850
 4590POPC   C1A 5871  28.385  30.685   8.550
 4590POPC   D2A 5872  28.339  30.688   8.250
 4590POPC   C3A 5873  28.391  30.658   7.950
 4590POPC   C4A 5874  28.325  30.704   7.650
 4590POPC   C1B 5875  28.133  30.782   8.550
 4590POPC   C2B 5876  28.105  30.734   8.250
 4590POPC   C3B 5877  28.149  30.740   7.950
 4590POPC   C4B 5878  28.124  30.731   7.650
 4591POPC   NC3 5879   1.180  29.177   9.450
 4591POPC   PO4 5880   1.171  29.152   9.150
 4591POPC   GL1 5881   1.175  29.134   8.850
 4591POPC   GL2 5882   1.225  29.043   8.850
 4591POPC   C1A 5883   1.231  29.188   8.550
 4591POPC   D2A 5884   1.256  29.097   8.250
 4591POPC   C3A 5885   1.254  29.152   7.950
 4591POPC   C4A 5886   1.170  29.151   7.650
 4591POPC   C1B 5887   1.354  28.921   8.550
 4591POPC   C2B 5888   1.293  28.873   8.250
 4591POPC   C3B 5889   1.276  28.924   7.950
 4591POPC   C4B 5890   1.319  28.896   7.650
 4592POPC   NC3 5891   9.749  22.163   9.450
 4592POPC   PO4 5892   9.779  22.149   9.150
 4592POPC   GL1 5893   9.708  22.147   8.850
 4592POPC   GL2 5894   9.662  22.006   8.850
 4592POPC   C1A 5895   9.738  22.198   8.550
 4592POPC   D2A 5896   9.699  22.200   8.250
 4592POPC   C3A 5897   9.796  22.143   7.950
 4592POPC   C4A 5898   9.741  22.204   7.650
 4592POPC   C1B 5899   9.715  21.952   8.550
 4592POPC   C2B 5900   9.711  21.909   8.250
 4592POPC   C3B 5901   9.715  21.881   7.950
 4592POPC   C4B 5902   9.709  21.947   7.650
 4593POPC   NC3 5903  26.019  14.395   9.450
 4593POPC   PO4 5904  25.993  14.391   9.150
 4593POPC   GL1 5905  25.994  14.354   8.850
 4593POPC   GL2 5906  26.112  14.348   8.850
 4593POPC   C1A 5907  26.079  14.382   8.550
 4593POPC   D2A 5908  26.044  14.439   8.250
 4593POPC   C3A 5909  26.009  14.429   7.950
 4593POPC   C4A 5910  26.006  14.394   7.650
 4593POPC   C1B 5911  26.181  14.164   8.550
 4593POPC   C2B 5912  26.171  14.215   8.250
 4593POPC   C3B 5913  26.187  14.208   7.950
 4593POPC   C4B 5914  26.174  14.168   7.650
 4594POPC   NC3 5915  38.502   3.588   9.450
 4594POPC   PO4 5916  38.439   3.546   9.150
 4594POPC   GL1 5917  38.472   3.591   8.850
 4594POPC   GL2 5918  38.542   3.607   8.850
 4594POPC   C1A 5919  38.488   3.576   8.550
 4594POPC   D2A 5920  38.428   3.501   8.250
 4594POPC   C3A 5921  38.436   3.505   7.950
 4594POPC   C4A 5922  38.434   3.505   7.650
 4594POPC   C1B 5923  38.703   3.655   8.550
 4594POPC   C2B 5924  38.664   3.658   8.250
 4594POPC   C3B 5925  38.645   3.671   7.950
 4594POPC   C4B 5926  38.687   3.657   7.650
 4595POPC   NC3 5927  12.861  22.898   9.450
 4595POPC   PO4 5928  12.857  22.931   9.150
 4595POPC   GL1 5929  12.843  22.898   8.850
 4595POPC   GL2 5930  13.009  22.984   8.850
 4595POPC   C1A 5931  12.847  22.950   8.550
 4595POPC   D2A 5932  12.829  22.950   8.250
 4595POPC   C3A 5933  12.856  22.891   7.950
 4595POPC   C4A 5934  12.813  22.956   7.650
 4595POPC   C1B 5935  13.076  23.015   8.550
 4595POPC   C2B 5936  13.127  23.067   8.250
 4595POPC   C3B 5937  13.093  23.027   7.950
 4595POPC   C4B 5938  13.085  23.037   7.650
 4596POPC   NC3 5939  34.568  40.826   9.450
 4596POPC   PO4 5940  34.614  40.782   9.150
 4596POPC   GL1 5941  34.571  40.750   8.850
 4596POPC   GL2 5942  34.470  40.774   8.850
 4596POPC   C1A 5943  34.543  40.830   8.550
 4596POPC   D2A 5944  34.602  40.736   8.250
 4596POPC   C3A 5945  34.562  40.771   7.950
 4596POPC   C4A 5946  34.588  40.776   7.650
 4596POPC   C1B 5947  34.340  40.740   8.550
 4596POPC   C2B 5948  34.371  40.711   8.250
 4596POPC   C3B 5949  34.310  40.747   7.950
 4596POPC   C4B 5950  34.319  40.699   7.650
 4597POPC   NC3 5951  24.499  36.868   9.450
 4597POPC   PO4 5952  24.467  36.865   9.150
 4597POPC   GL1 5953  24.475  36.916   8.850
 4597POPC   GL2 5954  24.529  37.005   8.850
 4597POPC   C1A 5955  24.470  36.919   8.550
 4597POPC   D2A 5956  24.446  36.880   8.250
 4597POPC   C3A 5957  24.487  36.952   7.950
 4597POPC   C4A 5958  24.527  36.906   7.650
 4597POPC   C1B 5959  24.509  37.116   8.550
 4597POPC   C2B 5960  24.460  37.160   8.250
 4597POPC   C3B 5961  24.505  37.196   7.950
 4597POPC   C4B 5962  24.479  37.107   7.650
 4598POPC   NC3 5963  32.999  22.159   9.450
 4598POPC   PO4 5964  33.021  22.187   9.150
 4598POPC   GL1 5965  33.035  22.159   8.850
 4598POPC   GL2 5966  33.108  22.047   8.850
 4598POPC   C1A 5967  33.025  22.211   8.550
 4598POPC   D2A 5968  33.063  22.138   8.250
 4598POPC   C3A 5969  33.071  22.131   7.950
 4598POPC   C4A 5970  33.044  22.193   7.650
 4598POPC   C1B 5971  33.254  21.979   8.550
 4598POPC   C2B 5972  33.201  21.991   8.250
 4598POPC   C3B 5973  33.252  22.067   7.950
 4598POPC   C4B 5974  33.203  22.051   7.650
 4599POPC   NC3 5975   4.305  31.454   9.450
 4599POPC   PO4 5976   4.287  31.460   9.150
 4599POPC   GL1 5977   4.323  31.472   8.850
 4599POPC   GL2 5978   4.183  31.582   8.850
 4599POPC   C1A 5979   4.281  31.435   8.550
 4599POPC   D2A 5980   4.348  31.488   8.250
 4599POPC   C3A 5981   4.361  31.485   7.950
 4599POPC   C4A 5982   4.308  31.439   7.650
 4599POPC   C1B 5983   4.085  31.614   8.550
 4599POPC   C2B 5984   4.139  31.611   8.250
 4599POPC   C3B 5985   4.122  31.672   7.950
 4599POPC   C4B 5986   4.095  31.618   7.650
 4600POPC   NC3 5987  11.330   2.806   9.450
 4600POPC   PO4 5988  11.260   2.769   9.150
 4600POPC   GL1 5989  11.346   2.805   8.850
 4600POPC   GL2 5990  11.379   2.757   8.850
 4600POPC   C1A 5991  11.350   2.739   8.550
 4600POPC   D2A 5992  11.265   2.716   8.250
 4600POPC   C3A 5993  11.283   2.772   7.950
 4600POPC   C4A 5994  11.340   2.803   7.650
 4600POPC   C1B 5995  11.530   2.656   8.550
 4600POPC   C2B 5996  11.511   2.644   8.250
 4600POPC   C3B 5997  11.523   2.672   7.950
 4600POPC   C4B 5998  11.502   2.632   7.650
 4601POPC   NC3 5999  32.220  30.695   9.450
 4601POPC   PO4 6000  32.231  30.707   9.150
 4601POPC   GL1 6001  32.238  30.718   8.850
 4601POPC   GL2 6002  32.360  30.731   8.850
 4601POPC   C1A 6003  32.267  30.683   8.550
 4601POPC   D2A 6004  32.291  30.675   8.250
 4601POPC   C3A 6005  32.265  30.668   7.950
 4601POPC   C4A 6006  32.217  30.699   7.650
 4601POPC   C1B 6007  32.514  30.720   8.550
 4601POPC   C2B 6008  32.471  30.664   8.250
 4601POPC   C3B 6009  32.487  30.686   7.950
 4601POPC   C4B 6010  32.449  30.700   7.650
 4602POPC   NC3 6011  30.663  22.981   9.450
 4602POPC   PO4 6012  30.649  22.891   9.150
 4602POPC   GL1 6013  30.687  22.958   8.850
 4602POPC   GL2 6014  30.670  22.794   8.850
 4602POPC   C1A 6015  30.734  22.931   8.550
 4602POPC   D2A 6016  30.715  22.916   8.250
 4602POPC   C3A 6017  30.651  22.979   7.950
 4602POPC   C4A 6018  30.709  22.982   7.650
 4602POPC   C1B 6019  30.526  22.696   8.550
 4602POPC   C2B 6020  30.520  22.765   8.250
 4602POPC   C3B 6021  30.548  22.719   7.950
 4602POPC   C4B 6022  30.566  22.692   7.650
 4603POPC   NC3 6023  12.836  15.953   9.450
 4603POPC   PO4 6024  12.852  15.961   9.150
 4603POPC   GL1 6025  12.871  15.972   8.850
 4603POPC   GL2 6026  12.831  15.858   8.850
 4603POPC   C1A 6027  12.823  15.911   8.550
 4603POPC   D2A 6028  12.861  15.973   8.250
 4603POPC   C3A 6029  12.840  15.999   7.950
 4603POPC   C4A 6030  12.847  15.981   7.650
 4603POPC   C1B 6031  12.814  15.749   8.550
 4603POPC   C2B 6032  12.810  15.752   8.250
 4603POPC   C3B 6033  12.805  15.688   7.950
 4603POPC   C4B 6034  12.829  15.685   7.650
 4604POPC   NC3 6035  22.905  44.624   9.450
 4604POPC   PO4 6036  22.959  44.655   9.150
 4604POPC   GL1 6037  22.893  44.700   8.850
 4604POPC   GL2 6038  22.910  44.581   8.850
 4604POPC   C1A 6039  22.939  44.698   8.550
 4604POPC   D2A 6040  22.977  44.701   8.250
 4604POPC   C3A 6041  22.961  44.649   7.950
 4604POPC   C4A 6042  22.908  44.706   7.650
 4604POPC   C1B 6043  22.964  44.376   8.550
 4604POPC   C2B 6044  22.935  44.401   8.250
 4604POPC   C3B 6045  22.870  44.415   7.950
 4604POPC   C4B 6046  22.917  44.438   7.650
 4605POPC   NC3 6047  15.976  12.822   9.450
 4605POPC   PO4 6048  15.907  12.874   9.150
 4605POPC   GL1 6049  15.928  12.808   8.850
 4605POPC   GL2 6050  15.989  12.920   8.850
 4605POPC   C1A 6051  15.936  12.824   8.550
 4605POPC   D2A 6052  15.918  12.854   8.250
 4605POPC   C3A 6053  15.930  12.890   7.950
 4605POPC   C4A 6054  15.964  12.837   7.650
 4605POPC   C1B 6055  16.088  13.097   8.550
 4605POPC   C2B 6056  16.087  13.105   8.250
 4605POPC   C3B 6057  16.095  13.052   7.950
 4605POPC   C4B 6058  16.069  13.097   7.650
 4606POPC   NC3 6059  33.018  33.843   9.450
 4606POPC   PO4 6060  33.053  33.808   9.150
 4606POPC   GL1 6061  33.005  33.847   8.850
 4606POPC   GL2 6062  33.059  33.698   8.850
 4606POPC   C1A 6063  33.009  33.761   8.550
 4606POPC   D2A 6064  33.019  33.809   8.250
 4606POPC   C3A 6065  33.026  33.776   7.950
 4606POPC   C4A 6066  33.042  33.815   7.650
 4606POPC   C1B 6067  33.228  33.586   8.550
 4606POPC   C2B 6068  33.171  33.642   8.250
 4606POPC   C3B 6069  33.222  33.644   7.950
 4606POPC   C4B 6070  33.196  33.641   7.650
 4607POPC   NC3 6071   2.746  41.571   9.450
 4607POPC   PO4 6072   2.744  41.599   9.150
 4607POPC   GL1 6073   2.785  41.553   8.850
 4607POPC   GL2 6074   2.667  41.523   8.850
 4607POPC   C1A 6075   2.770  41.589   8.550
 4607POPC   D2A 6076   2.814  41.509   8.250
 4607POPC   C3A 6077   2.775  41.550   7.950
 4607POPC   C4A 6078   2.795  41.542   7.650
 4607POPC   C1B 6079   2.575  41.447   8.550
 4607POPC   C2B 6080   2.601  41.368   8.250
 4607POPC   C3B 6081   2.606  41.357   7.950
 4607POPC   C4B 6082   2.607  41.406   7.650
 4608POPC   NC3 6083   5.868  38.492   9.450
 4608POPC   PO4 6084   5.837  38.466   9.150
 4608POPC   GL1 6085   5.868  38.486   8.850
 4608POPC   GL2 6086   5.844  38.584   8.850
 4608POPC   C1A 6087   5.821  38.470   8.550
 4608POPC   D2A 6088   5.873  38.438   8.250
 4608POPC   C3A 6089   5.834  38.477   7.950
 4608POPC   C4A 6090   5.895  38.490   7.650
 4608POPC   C1B 6091   5.959  38.698   8.550
 4608POPC   C2B 6092   5.879  38.735   8.250
 4608POPC   C3B 6093   5.897  38.735   7.950
 4608POPC   C4B 6094   5.954  38.666   7.650
 4609POPC   NC3 6095  38.486  36.156   9.450
 4609POPC   PO4 6096  38.482  36.081   9.150
 4609POPC   GL1 6097  38.448  36.175   8.850
 4609POPC   GL2 6098  38.536  36.032   8.850
 4609POPC   C1A 6099  38.456  36.160   8.550
 4609POPC   D2A 6100  38.480  36.110   8.250
 4609POPC   C3A 6101  38.445  36.134   7.950
 4609POPC   C4A 6102  38.489  36.128   7.650
 4609POPC   C1B 6103  38.593  35.848   8.550
 4609POPC   C2B 6104  38.568  35.857   8.250
 4609POPC   C3B 6105  38.580  35.869   7.950
 4609POPC   C4B 6106  38.518  35.867   7.650
 4610POPC   NC3 6107  36.897  11.314   9.450
 4610POPC   PO4 6108  36.872  11.318   9.150
 4610POPC   GL1 6109  36.857  11.305   8.850
 4610POPC   GL2 6110  36.856  11.408   8.850
 4610POPC   C1A 6111  36.908  11.327   8.550
 4610POPC   D2A 6112  36.947  11.309   8.250
 4610POPC   C3A 6113  36.877  11.326   7.950
 4610POPC   C4A 6114  36.921  11.280   7.650
 4610POPC   C1B 6115  36.811  11.572   8.550
 4610POPC   C2B 6116  36.782  11.552   8.250
 4610POPC   C3B 6117  36.839  11.559   7.950
 4610POPC   C4B 6118  36.814  11.525   7.650
 4611POPC   NC3 6119   8.236  19.066   9.450
 4611POPC   PO4 6120   8.174  19.078   9.150
 4611POPC   GL1 6121   8.212  19.052   8.850
 4611POPC   GL2 6122   8.200  18.918   8.850
 4611POPC   C1A 6123   8.196  19.045   8.550
 4611POPC   D2A 6124   8.187  19.047   8.250
 4611POPC   C3A 6125   8.155  19.057   7.950
 4611POPC   C4A 6126   8.210  19.090   7.650
 4611POPC   C1B 6127   8.165  18.803   8.550
 4611POPC   C2B 6128   8.121  18.837   8.250
 4611POPC   C3B 6129   8.081  18.838   7.950
 4611POPC   C4B 6130   8.128  18.769   7.650
 4612POPC   NC3 6131  42.296  40.821   9.450
 4612POPC   PO4 6132  42.334  40.824   9.150
 4612POPC   GL1 6133  42.380  40.787   8.850
 4612POPC   GL2 6134  42.211  40.832   8.850
 4612POPC   C1A 6135  42.296  40.832   8.550
 4612POPC   D2A 6136  42.359  40.803   8.250
 4612POPC   C3A 6137  42.311  40.779   7.950
 4612POPC   C4A 6138  42.298  40.750   7.650
 4612POPC   C1B 6139  42.148  40.957   8.550
 4612POPC   C2B 6140  42.142  40.919   8.250
 4612POPC   C3B 6141  42.124  40.945   7.950
 4612POPC   C4B 6142  42.095  40.938   7.650
 4613POPC   NC3 6143  27.630  15.137   9.450
 4613POPC   PO4 6144  27.560  15.130   9.150
 4613POPC   GL1 6145  27.638  15.182   8.850
 4613POPC   GL2 6146  27.676  15.128   8.850
 4613POPC   C1A 6147  27.563  15.151   8.550
 4613POPC   D2A 6148  27.543  15.133   8.250
 4613POPC   C3A 6149  27.627  15.154   7.950
 4613POPC   C4A 6150  27.571  15.228   7.650
 4613POPC   C1B 6151  27.761  14.996   8.550
 4613POPC   C2B 6152  27.745  15.045   8.250
 4613POPC   C3B 6153  27.743  15.035   7.950
 4613POPC   C4B 6154  27.806  15.043   7.650
 4614POPC   NC3 6155  22.117  33.813   9.450
 4614POPC   PO4 6156  22.132  33.778   9.150
 4614POPC   GL1 6157  22.139  33.795   8.850
 4614POPC   GL2 6158  22.130  33.886   8.850
 4614POPC   C1A 6159  22.156  33.783   8.550
 4614POPC   D2A 6160  22.193  33.824   8.250
 4614POPC   C3A 6161  22.189  33.778   7.950
 4614POPC   C4A 6162  22.175  33.778   7.650
 4614POPC   C1B 6163  22.174  34.074   8.550
 4614POPC   C2B 6164  22.158  34.021   8.250
 4614POPC   C3B 6165  22.193  34.044   7.950
 4614POPC   C4B 6166  22.178  34.082   7.650
 4615POPC   NC3 6167  22.170  40.804   9.450
 4615POPC   PO4 6168  22.137  40.746   9.150
 4615POPC   GL1 6169  22.136  40.758   8.850
 4615POPC   GL2 6170  22.101  40.658   8.850
 4615POPC   C1A 6171  22.195  40.798   8.550
 4615POPC   D2A 6172  22.169  40.782   8.250
 4615POPC   C3A 6173  22.150  40.748   7.950
 4615POPC   C4A 6174  22.150  40.793   7.650
 4615POPC   C1B 6175  21.983  40.596   8.550
 4615POPC   C2B 6176  21.956  40.638   8.250
 4615POPC   C3B 6177  22.025  40.574   7.950
 4615POPC   C4B 6178  22.012  40.598   7.650
 4616POPC   NC3 6179  23.730  36.867   9.450
 4616POPC   PO4 6180  23.698  36.923   9.150
 4616POPC   GL1 6181  23.668  36.860   8.850
 4616POPC   GL2 6182  23.717  36.813   8.850
 4616POPC   C1A 6183  23.742  36.885   8.550
 4616POPC   D2A 6184  23.712  36.868   8.250
 4616POPC   C3A 6185  23.674  36.856   7.950
 4616POPC   C4A 6186  23.740  36.873   7.650
 4616POPC   C1B 6187  23.760  36.674   8.550
 4616POPC   C2B 6188  23.770  36.662   8.250
 4616POPC   C3B 6189  23.797  36.665   7.950
 4616POPC   C4B 6190  23.747  36.616   7.650
 4617POPC   NC3 6191  43.125  12.806   9.450
 4617POPC   PO4 6192  43.078  12.827   9.150
 4617POPC   GL1 6193  43.126  12.845   8.850
 4617POPC   GL2 6194  43.064  12.934   8.850
 4617POPC   C1A 6195  43.104  12.833   8.550
 4617POPC   D2A 6196  43.121  12.878   8.250
 4617POPC   C3A 6197  43.135  12.882   7.950
 4617POPC   C4A 6198  43.080  12.820   7.650
 4617POPC   C1B 6199  43.021  13.015   8.550
 4617POPC   C2B 6200  42.970  13.075   8.250
 4617POPC   C3B 6201  42.931  13.026   7.950
 4617POPC   C4B 6202  42.975  13.085   7.650
 4618POPC   NC3 6203  40.801  34.556   9.450
 4618POPC   PO4 6204  40.813  34.618   9.150
 4618POPC   GL1 6205  40.734  34.615   8.850
 4618POPC   GL2 6206  40.674  34.513   8.850
 4618POPC   C1A 6207  40.802  34.580   8.550
 4618POPC   D2A 6208  40.765  34.548   8.250
 4618POPC   C3A 6209  40.812  34.579   7.950
 4618POPC   C4A 6210  40.788  34.602   7.650
 4618POPC   C1B 6211  40.534  34.436   8.550
 4618POPC   C2B 6212  40.593  34.390   8.250
 4618POPC   C3B 6213  40.619  34.437   7.950
 4618POPC   C4B 6214  40.596  34.467   7.650
 4619POPC   NC3 6215  27.560   9.783   9.450
 4619POPC   PO4 6216  27.550   9.722   9.150
 4619POPC   GL1 6217  27.558   9.714   8.850
 4619POPC   GL2 6218  27.546   9.627   8.850
 4619POPC   C1A 6219  27.570   9.713   8.550
 4619POPC   D2A 6220  27.545   9.757   8.250
 4619POPC   C3A 6221  27.582   9.700   7.950
 4619POPC   C4A 6222  27.593   9.725   7.650
 4619POPC   C1B 6223  27.500   9.570   8.550
 4619POPC   C2B 6224  27.460   9.503   8.250
 4619POPC   C3B 6225  27.518   9.496   7.950
 4619POPC   C4B 6226  27.447   9.533   7.650
 4620POPC   NC3 6227  30.720  43.902   9.450
 4620POPC   PO4 6228  30.685  43.932   9.150
 4620POPC   GL1 6229  30.687  43.838   8.850
 4620POPC   GL2 6230  30.775  43.876   8.850
 4620POPC   C1A 6231  30.739  43.881   8.550
 4620POPC   D2A 6232  30.728  43.846   8.250
 4620POPC   C3A 6233  30.673  43.852   7.950
 4620POPC   C4A 6234  30.694  43.865   7.650
 4620POPC   C1B 6235  30.962  43.872   8.550
 4620POPC   C2B 6236  30.952  43.871   8.250
 4620POPC   C3B 6237  30.963  43.858   7.950
 4620POPC   C4B 6238  30.940  43.907   7.650
 4621POPC   NC3 6239  27.545  26.054   9.450
 4621POPC   PO4 6240  27.608  26.050   9.150
 4621POPC   GL1 6241  27.562  26.056   8.850
 4621POPC   GL2 6242  27.662  26.000   8.850
 4621POPC   C1A 6243  27.571  26.073   8.550
 4621POPC   D2A 6244  27.569  26.082   8.250
 4621POPC   C3A 6245  27.625  26.028   7.950
 4621POPC   C4A 6246  27.598  26.027   7.650
 4621POPC   C1B 6247  27.825  25.924   8.550
 4621POPC   C2B 6248  27.801  25.913   8.250
 4621POPC   C3B 6249  27.774  25.920   7.950
 4621POPC   C4B 6250  27.832  25.905   7.650
 4622POPC   NC3 6251  25.225  37.727   9.450
 4622POPC   PO4 6252  25.283  37.682   9.150
 4622POPC   GL1 6253  25.296  37.702   8.850
 4622POPC   GL2 6254  25.411  37.722   8.850
 4622POPC   C1A 6255  25.249  37.634   8.550
 4622POPC   D2A 6256  25.291  37.685   8.250
 4622POPC   C3A 6257  25.286  37.702   7.950
 4622POPC   C4A 6258  25.292  37.667   7.650
 4622POPC   C1B 6259  25.500  37.662   8.550
 4622POPC   C2B 6260  25.496  37.636   8.250
 4622POPC   C3B 6261  25.554  37.659   7.950
 4622POPC   C4B 6262  25.469  37.630   7.650
 4623POPC   NC3 6263  12.104   8.176   9.450
 4623POPC   PO4 6264  12.104   8.190   9.150
 4623POPC   GL1 6265  12.031   8.149   8.850
 4623POPC   GL2 6266  12.202   8.195   8.850
 4623POPC   C1A 6267  12.070   8.155   8.550
 4623POPC   D2A 6268  12.083   8.175   8.250
 4623POPC   C3A 6269  12.057   8.226   7.950
 4623POPC   C4A 6270  12.072   8.173   7.650
 4623POPC   C1B 6271  12.331   8.254   8.550
 4623POPC   C2B 6272  12.280   8.200   8.250
 4623POPC   C3B 6273  12.312   8.235   7.950
 4623POPC   C4B 6274  12.284   8.192   7.650
 4624POPC   NC3 6275   1.167  34.551   9.450
 4624POPC   PO4 6276   1.202  34.617   9.150
 4624POPC   GL1 6277   1.193  34.552   8.850
 4624POPC   GL2 6278   1.053  34.585   8.850
 4624POPC   C1A 6279   1.220  34.594   8.550
 4624POPC   D2A 6280   1.254  34.600   8.250
 4624POPC   C3A 6281   1.195  34.581   7.950
 4624POPC   C4A 6282   1.246  34.568   7.650
 4624POPC   C1B 6283   0.942  34.641   8.550
 4624POPC   C2B 6284   0.948  34.655   8.250
 4624POPC   C3B 6285   0.944  34.600   7.950
 4624POPC   C4B 6286   0.948  34.650   7.650
 4625POPC   NC3 6287  31.476  20.590   9.450
 4625POPC   PO4 6288  31.509  20.599   9.150
 4625POPC   GL1 6289  31.511  20.638   8.850
 4625POPC   GL2 6290  31.420  20.578   8.850
 4625POPC   C1A 6291  31.494  20.560   8.550
 4625POPC   D2A 6292  31.495  20.604   8.250
 4625POPC   C3A 6293  31.450  20.624   7.950
 4625POPC   C4A 6294  31.441  20.650   7.650
 4625POPC   C1B 6295  31.254  20.482   8.550
 4625POPC   C2B 6296  31.264  20.455   8.250
 4625POPC   C3B 6297  31.250  20.489   7.950
 4625POPC   C4B 6298  31.246  20.474   7.650
 4626POPC   NC3 6299   8.989  41.550   9.450
 4626POPC   PO4 6300   8.994  41.578   9.150
 4626POPC   GL1 6301   8.991  41.575   8.850
 4626POPC   GL2 6302   8.984  41.450   8.850
 4626POPC   C1A 6303   8.978  41.573   8.550
 4626POPC   D2A 6304   8.931  41.569   8.250
 4626POPC   C3A 6305   8.985  41.539   7.950
 4626POPC   C4A 6306   8.953  41.525   7.650
 4626POPC   C1B 6307   8.966  41.315   8.550
 4626POPC   C2B 6308   8.957  41.273   8.250
 4626POPC   C3B 6309   8.962  41.342   7.950
 4626POPC   C4B 6310   8.987  41.266   7.650
 4627POPC   NC3 6311  21.349   1.964   9.450
 4627POPC   PO4 6312  21.350   1.943   9.150
 4627POPC   GL1 6313  21.337   1.971   8.850
 4627POPC   GL2 6314  21.396   2.085   8.850
 4627POPC   C1A 6315  21.358   2.012   8.550
 4627POPC   D2A 6316  21.422   1.958   8.250
 4627POPC   C3A 6317  21.421   1.968   7.950
 4627POPC   C4A 6318  21.400   1.978   7.650
 4627POPC   C1B 6319  21.539   2.182   8.550
 4627POPC   C2B 6320  21.513   2.252   8.250
 4627POPC   C3B 6321  21.529   2.197   7.950
 4627POPC   C4B 6322  21.536   2.165   7.650
 4628POPC   NC3 6323  29.178  40.795   9.450
 4628POPC   PO4 6324  29.145  40.779   9.150
 4628POPC   GL1 6325  29.097  40.799   8.850
 4628POPC   GL2 6326  29.287  40.764   8.850
 4628POPC   C1A 6327  29.181  40.773   8.550
 4628POPC   D2A 6328  29.112  40.784   8.250
 4628POPC   C3A 6329  29.192  40.831   7.950
 4628POPC   C4A 6330  29.141  40.769   7.650
 4628POPC   C1B 6331  29.325  40.660   8.550
 4628POPC   C2B 6332  29.387  40.688   8.250
 4628POPC   C3B 6333  29.420  40.698   7.950
 4628POPC   C4B 6334  29.336  40.679   7.650
 4629POPC   NC3 6335  23.757  12.885   9.450
 4629POPC   PO4 6336  23.677  12.815   9.150
 4629POPC   GL1 6337  23.688  12.810   8.850
 4629POPC   GL2 6338  23.696  12.979   8.850
 4629POPC   C1A 6339  23.691  12.823   8.550
 4629POPC   D2A 6340  23.717  12.823   8.250
 4629POPC   C3A 6341  23.719  12.844   7.950
 4629POPC   C4A 6342  23.735  12.833   7.650
 4629POPC   C1B 6343  23.625  13.126   8.550
 4629POPC   C2B 6344  23.579  13.110   8.250
 4629POPC   C3B 6345  23.617  13.040   7.950
 4629POPC   C4B 6346  23.664  13.038   7.650
 4630POPC   NC3 6347  35.364   5.847   9.450
 4630POPC   PO4 6348  35.394   5.864   9.150
 4630POPC   GL1 6349  35.362   5.824   8.850
 4630POPC   GL2 6350  35.213   5.861   8.850
 4630POPC   C1A 6351  35.398   5.884   8.550
 4630POPC   D2A 6352  35.338   5.839   8.250
 4630POPC   C3A 6353  35.394   5.829   7.950
 4630POPC   C4A 6354  35.386   5.874   7.650
 4630POPC   C1B 6355  35.075   5.761   8.550
 4630POPC   C2B 6356  35.134   5.824   8.250
 4630POPC   C3B 6357  35.150   5.818   7.950
 4630POPC   C4B 6358  35.166   5.791   7.650
 4631POPC   NC3 6359   1.191  20.580   9.450
 4631POPC   PO4 6360   1.189  20.597   9.150
 4631POPC   GL1 6361   1.164  20.655   8.850
 4631POPC   GL2 6362   1.109  20.564   8.850
 4631POPC   C1A 6363   1.199  20.606   8.550
 4631POPC   D2A 6364   1.250  20.580   8.250
 4631POPC   C3A 6365   1.174  20.598   7.950
 4631POPC   C4A 6366   1.219  20.607   7.650
 4631POPC   C1B 6367   1.011  20.581   8.550
 4631POPC   C2B 6368   0.985  20.608   8.250
 4631POPC   C3B 6369   0.965  20.566   7.950
 4631POPC   C4B 6370   0.950  20.589   7.650
 4632POPC   NC3 6371  27.606   7.443   9.450
 4632POPC   PO4 6372  27.633   7.445   9.150
 4632POPC   GL1 6373  27.632   7.421   8.850
 4632POPC   GL2 6374  27.620   7.549   8.850
 4632POPC   C1A 6375  27.581   7.375   8.550
 4632POPC   D2A 6376  27.599   7.403   8.250
 4632POPC   C3A 6377  27.579   7.412   7.950
 4632POPC   C4A 6378  27.616   7.390   7.650
 4632POPC   C1B 6379  27.686   7.680   8.550
 4632POPC   C2B 6380  27.683   7.629   8.250
 4632POPC   C3B 6381  27.674   7.663   7.950
 4632POPC   C4B 6382  27.675   7.670   7.650
 4633POPC   NC3 6383  18.276   2.024   9.450
 4633POPC   PO4 6384  18.328   2.026   9.150
 4633POPC   GL1 6385  18.325   2.032   8.850
 4633POPC   GL2 6386  18.363   1.944   8.850
 4633POPC   C1A 6387  18.309   1.952   8.550
 4633POPC   D2A 6388  18.276   2.008   8.250
 4633POPC   C3A 6389  18.246   1.998   7.950
 4633POPC   C4A 6390  18.306   2.009   7.650
 4633POPC   C1B 6391  18.424   1.806   8.550
 4633POPC   C2B 6392  18.490   1.835   8.250
 4633POPC   C3B 6393  18.465   1.757   7.950
 4633POPC   C4B 6394  18.430   1.817   7.650
 4634POPC   NC3 6395  41.547  29.941   9.450
 4634POPC   PO4 6396  41.607  29.938   9.150
 4634POPC   GL1 6397  41.595  29.941   8.850
 4634POPC   GL2 6398  41.474  30.044   8.850
 4634POPC   C1A 6399  41.512  29.949   8.550
 4634POPC   D2A 6400  41.510  29.930   8.250
 4634POPC   C3A 6401  41.581  29.961   7.950
 4634POPC   C4A 6402  41.519  29.962   7.650
 4634POPC   C1B 6403  41.446  30.173   8.550
 4634POPC   C2B 6404  41.439  30.150   8.250
 4634POPC   C3B 6405  41.461  30.160   7.950
 4634POPC   C4B 6406  41.397  30.159   7.650
 4635POPC   NC3 6407  16.695  44.695   9.450
 4635POPC   PO4 6408  16.773  44.697   9.150
 4635POPC   GL1 6409  16.730  44.661   8.850
 4635POPC   GL2 6410  16.682  44.796   8.850
 4635POPC   C1A 6411  16.737  44.620   8.550
 4635POPC   D2A 6412  16.682  44.622   8.250
 4635POPC   C3A 6413  16.726  44.672   7.950
 4635POPC   C4A 6414  16.779  44.666   7.650
 4635POPC   C1B 6415  16.712  44.931   8.550
 4635POPC   C2B 6416  16.658  44.917   8.250
 4635POPC   C3B 6417  16.676  44.940   7.950
 4635POPC   C4B 6418  16.627  44.917   7.650
 4636POPC   NC3 6419   7.450  41.529   9.450
 4636POPC   PO4 6420   7.388  41.516   9.150
 4636POPC   GL1 6421   7.398  41.587   8.850
 4636POPC   GL2 6422   7.582  41.557   8.850
 4636POPC   C1A 6423   7.398  41.587   8.550
 4636POPC   D2A 6424   7.436  41.573   8.250
 4636POPC   C3A 6425   7.468  41.586   7.950
 4636POPC   C4A 6426   7.422  41.587   7.650
 4636POPC   C1B 6427   7.674  41.575   8.550
 4636POPC   C2B 6428   7.706  41.544   8.250
 4636POPC   C3B 6429   7.710  41.489   7.950
 4636POPC   C4B 6430   7.690  41.545   7.650
 4637POPC   NC3 6431   5.868  28.382   9.450
 4637POPC   PO4 6432   5.851  28.408   9.150
 4637POPC   GL1 6433   5.912  28.411   8.850
 4637POPC   GL2 6434   5.807  28.293   8.850
 4637POPC   C1A 6435   5.857  28.321   8.550
 4637POPC   D2A 6436   5.826  28.381   8.250
 4637POPC   C3A 6437   5.831  28.384   7.950
 4637POPC   C4A 6438   5.899  28.345   7.650
 4637POPC   C1B 6439   5.784  28.124   8.550
 4637POPC   C2B 6440   5.770  28.157   8.250
 4637POPC   C3B 6441   5.804  28.141   7.950
 4637POPC   C4B 6442   5.738  28.137   7.650
 4638POPC   NC3 6443   8.956  17.546   9.450
 4638POPC   PO4 6444   8.970  17.538   9.150
 4638POPC   GL1 6445   8.935  17.504   8.850
 4638POPC   GL2 6446   8.982  17.664   8.850
 4638POPC   C1A 6447   8.966  17.516   8.550
 4638POPC   D2A 6448   9.012  17.545   8.250
 4638POPC   C3A 6449   9.015  17.498   7.950
 4638POPC   C4A 6450   8.959  17.516   7.650
 4638POPC   C1B 6451   9.030  17.754   8.550
 4638POPC   C2B 6452   9.000  17.745   8.250
 4638POPC   C3B 6453   8.939  17.748   7.950
 4638POPC   C4B 6454   9.031  17.707   7.650
 4639POPC   NC3 6455  12.027  39.986   9.450
 4639POPC   PO4 6456  12.067  39.957   9.150
 4639POPC   GL1 6457  12.114  40.017   8.850
 4639POPC   GL2 6458  11.997  39.860   8.850
 4639POPC   C1A 6459  12.068  40.008   8.550
 4639POPC   D2A 6460  12.046  40.001   8.250
 4639POPC   C3A 6461  12.030  40.037   7.950
 4639POPC   C4A 6462  12.061  39.959   7.650
 4639POPC   C1B 6463  11.987  39.767   8.550
 4639POPC   C2B 6464  11.945  39.811   8.250
 4639POPC   C3B 6465  11.944  39.812   7.950
 4639POPC   C4B 6466  12.005  39.795   7.650
 4640POPC   NC3 6467  29.162  18.266   9.450
 4640POPC   PO4 6468  29.111  18.305   9.150
 4640POPC   GL1 6469  29.142  18.288   8.850
 4640POPC   GL2 6470  29.099  18.417   8.850
 4640POPC   C1A 6471  29.183  18.233   8.550
 4640POPC   D2A 6472  29.095  18.304   8.250
 4640POPC   C3A 6473  29.166  18.332   7.950
 4640POPC   C4A 6474  29.172  18.237   7.650
 4640POPC   C1B 6475  29.033  18.464   8.550
 4640POPC   C2B 6476  28.977  18.490   8.250
 4640POPC   C3B 6477  29.047  18.454   7.950
 4640POPC   C4B 6478  28.970  18.490   7.650
 4641POPC   NC3 6479  38.445  19.817   9.450
 4641POPC   PO4 6480  38.501  19.815   9.150
 4641POPC   GL1 6481  38.480  19.869   8.850
 4641POPC   GL2 6482  38.606  19.893   8.850
 4641POPC   C1A 6483  38.446  19.847   8.550
 4641POPC   D2A 6484  38.448  19.838   8.250
 4641POPC   C3A 6485  38.502  19.791   7.950
 4641POPC   C4A 6486  38.410  19.866   7.650
 4641POPC   C1B 6487  38.672  19.897   8.550
 4641POPC   C2B 6488  38.653  19.870   8.250
 4641POPC   C3B 6489  38.738  19.833   7.950
 4641POPC   C4B 6490  38.686  19.842   7.650
 4642POPC   NC3 6491  19.850  23.720   9.450
 4642POPC   PO4 6492  19.863  23.666   9.150
 4642POPC   GL1 6493  19.847  23.674   8.850
 4642POPC   GL2 6494  19.745  23.766   8.850
 4642POPC   C1A 6495  19.798  23.681   8.550
 4642POPC   D2A 6496  19.863  23.735   8.250
 4642POPC   C3A 6497  19.788  23.703   7.950
 4642POPC   C4A 6498  19.825  23.719   7.650
 4642POPC   C1B 6499  19.598  23.765   8.550
 4642POPC   C2B 6500  19.610  23.812   8.250
 4642POPC   C3B 6501  19.646  23.848   7.950
 4642POPC   C4B 6502  19.615  23.808   7.650
 4643POPC   NC3 6503  36.866   8.209   9.450
 4643POPC   PO4 6504  36.891   8.183   9.150
 4643POPC   GL1 6505  36.916   8.149   8.850
 4643POPC   GL2 6506  36.836   8.119   8.850
 4643POPC   C1A 6507  36.876   8.226   8.550
 4643POPC   D2A 6508  36.926   8.147   8.250
 4643POPC   C3A 6509  36.938   8.211   7.950
 4643POPC   C4A 6510  36.882   8.246   7.650
 4643POPC   C1B 6511  36.820   7.929   8.550
 4643POPC   C2B 6512  36.852   7.949   8.250
 4643POPC   C3B 6513  36.765   7.959   7.950
 4643POPC   C4B 6514  36.817   8.011   7.650
 4644POPC   NC3 6515   7.425  14.395   9.450
 4644POPC   PO4 6516   7.449  14.429   9.150
 4644POPC   GL1 6517   7.405  14.358   8.850
 4644POPC   GL2 6518   7.473  14.284   8.850
 4644POPC   C1A 6519   7.442  14.360   8.550
 4644POPC   D2A 6520   7.438  14.365   8.250
 4644POPC   C3A 6521   7.433  14.438   7.950
 4644POPC   C4A 6522   7.386  14.404   7.650
 4644POPC   C1B 6523   7.545  14.144   8.550
 4644POPC   C2B 6524   7.592  14.236   8.250
 4644POPC   C3B 6525   7.516  14.235   7.950
 4644POPC   C4B 6526   7.546  14.233   7.650
 4645POPC   NC3 6527  21.434  38.448   9.450
 4645POPC   PO4 6528  21.427  38.423   9.150
 4645POPC   GL1 6529  21.404  38.478   8.850
 4645POPC   GL2 6530  21.304  38.378   8.850
 4645POPC   C1A 6531  21.399  38.486   8.550
 4645POPC   D2A 6532  21.345  38.475   8.250
 4645POPC   C3A 6533  21.409  38.501   7.950
 4645POPC   C4A 6534  21.435  38.414   7.650
 4645POPC   C1B 6535  21.255  38.273   8.550
 4645POPC   C2B 6536  21.241  38.207   8.250
 4645POPC   C3B 6537  21.278  38.218   7.950
 4645POPC   C4B 6538  21.223  38.254   7.650
 4646POPC   NC3 6539   5.898   7.395   9.450
 4646POPC   PO4 6540   5.838   7.434   9.150
 4646POPC   GL1 6541   5.907   7.404   8.850
 4646POPC   GL2 6542   5.729   7.368   8.850
 4646POPC   C1A 6543   5.909   7.450   8.550
 4646POPC   D2A 6544   5.885   7.373   8.250
 4646POPC   C3A 6545   5.915   7.443   7.950
 4646POPC   C4A 6546   5.859   7.381   7.650
 4646POPC   C1B 6547   5.665   7.398   8.550
 4646POPC   C2B 6548   5.638   7.417   8.250
 4646POPC   C3B 6549   5.615   7.344   7.950
 4646POPC   C4B 6550   5.656   7.406   7.650
 4647POPC   NC3 6551   6.636  43.069   9.450
 4647POPC   PO4 6552   6.618  43.126   9.150
 4647POPC   GL1 6553   6.615  43.096   8.850
 4647POPC   GL2 6554   6.762  42.977   8.850
 4647POPC   C1A 6555   6.692  43.088   8.550
 4647POPC   D2A 6556   6.623  43.110   8.250
 4647POPC   C3A 6557   6.601  43.072   7.950
 4647POPC   C4A 6558   6.610  43.105   7.650
 4647POPC   C1B 6559   6.863  42.952   8.550
 4647POPC   C2B 6560   6.806  42.919   8.250
 4647POPC   C3B 6561   6.832  42.967   7.950
 4647POPC   C4B 6562   6.864  42.976   7.650
 4648POPC   NC3 6563  22.969  13.646   9.450
 4648POPC   PO4 6564  22.980  13.644   9.150
 4648POPC   GL1 6565  22.909  13.588   8.850
 4648POPC   GL2 6566  22.923  13.739   8.850
 4648POPC   C1A 6567  22.959  13.639   8.550
 4648POPC   D2A 6568  22.927  13.626   8.250
 4648POPC   C3A 6569  22.928  13.619   7.950
 4648POPC   C4A 6570  22.983  13.599   7.650
 4648POPC   C1B 6571  23.037  13.829   8.550
 4648POPC   C2B 6572  23.032  13.872   8.250
 4648POPC   C3B 6573  22.997  13.892   7.950
 4648POPC   C4B 6574  22.973  13.874   7.650
 4649POPC   NC3 6575  22.924  23.711   9.450
 4649POPC   PO4 6576  22.950  23.690   9.150
 4649POPC   GL1 6577  22.901  23.691   8.850
 4649POPC   GL2 6578  22.785  23.692   8.850
 4649POPC   C1A 6579  22.908  23.715   8.550
 4649POPC   D2A 6580  22.982  23.745   8.250
 4649POPC   C3A 6581  22.963  23.732   7.950
 4649POPC   C4A 6582  22.925  23.708   7.650
 4649POPC   C1B 6583  22.676  23.636   8.550
 4649POPC   C2B 6584  22.699  23.620   8.250
 4649POPC   C3B 6585  22.687  23.564   7.950
 4649POPC   C4B 6586  22.712  23.580   7.650
 4650POPC   NC3 6587  36.929  36.176   9.450
 4650POPC   PO4 6588  36.914  36.162   9.150
 4650POPC   GL1 6589  36.917  36.112   8.850
 4650POPC   GL2 6590  36.812  36.112   8.850
 4650POPC   C1A 6591  36.856  36.088   8.550
 4650POPC   D2A 6592  36.892  36.156   8.250
 4650POPC   C3A 6593  36.888  36.107   7.950
 4650POPC   C4A 6594  36.877  36.102   7.650
 4650POPC   C1B 6595  36.672  36.023   8.550
 4650POPC   C2B 6596  36.715  36.007   8.250
 4650POPC   C3B 6597  36.686  36.010   7.950
 4650POPC   C4B 6598  36.682  35.997   7.650
 4651POPC   NC3 6599  29.915  31.464   9.450
 4651POPC   PO4 6600  29.916  31.490   9.150
 4651POPC   GL1 6601  29.960  31.504   8.850
 4651POPC   GL2 6602  30.014  31.609   8.850
 4651POPC   C1A 6603  29.876  31.438   8.550
 4651POPC   D2A 6604  29.907  31.499   8.250
 4651POPC   C3A 6605  29.884  31.440   7.950
 4651POPC   C4A 6606  29.939  31.461   7.650
 4651POPC   C1B 6607  30.061  31.639   8.550
 4651POPC   C2B 6608  30.085  31.652   8.250
 4651POPC   C3B 6609  30.074  31.700   7.950
 4651POPC   C4B 6610  29.999  31.714   7.650
 4652POPC   NC3 6611  22.936  22.891   9.450
 4652POPC   PO4 6612  22.933  22.979   9.150
 4652POPC   GL1 6613  22.976  22.914   8.850
 4652POPC   GL2 6614  22.948  23.047   8.850
 4652POPC   C1A 6615  22.895  22.973   8.550
 4652POPC   D2A 6616  22.898  22.935   8.250
 4652POPC   C3A 6617  22.956  22.902   7.950
 4652POPC   C4A 6618  22.975  22.947   7.650
 4652POPC   C1B 6619  22.943  23.194   8.550
 4652POPC   C2B 6620  22.936  23.146   8.250
 4652POPC   C3B 6621  22.888  23.179   7.950
 4652POPC   C4B 6622  22.853  23.173   7.650
 4653POPC   NC3 6623  20.635   3.577   9.450
 4653POPC   PO4 6624  20.608   3.517   9.150
 4653POPC   GL1 6625  20.618   3.553   8.850
 4653POPC   GL2 6626  20.503   3.557   8.850
 4653POPC   C1A 6627  20.634   3.536   8.550
 4653POPC   D2A 6628  20.565   3.515   8.250
 4653POPC   C3A 6629  20.615   3.526   7.950
 4653POPC   C4A 6630  20.633   3.517   7.650
 4653POPC   C1B 6631  20.408   3.577   8.550
 4653POPC   C2B 6632  20.347   3.517   8.250
 4653POPC   C3B 6633  20.401   3.537   7.950
 4653POPC   C4B 6634  20.354   3.574   7.650
 4654POPC   NC3 6635   3.516  38.415   9.450
 4654POPC   PO4 6636   3.539  38.501   9.150
 4654POPC   GL1 6637   3.534  38.485   8.850
 4654POPC   GL2 6638   3.570  38.307   8.850
 4654POPC   C1A 6639   3.518  38.407   8.550
 4654POPC   D2A 6640   3.557  38.422   8.250
 4654POPC   C3A 6641   3.528  38.417   7.950
 4654POPC   C4A 6642   3.545  38.436   7.650
 4654POPC   C1B 6643   3.463  38.244   8.550
 4654POPC   C2B 6644   3.488  38.222   8.250
 4654POPC   C3B 6645   3.486  38.227   7.950
 4654POPC   C4B 6646   3.511  38.226   7.650
 4655POPC   NC3 6647  44.615   6.634   9.450
 4655POPC   PO4 6648  44.633   6.641   9.150
 4655POPC   GL1 6649  44.670   6.673   8.850
 4655POPC   GL2 6650  44.520   6.671   8.850
 4655POPC   C1A 6651  44.666   6.658   8.550
 4655POPC   D2A 6652  44.613   6.644   8.250
 4655POPC   C3A 6653  44.704   6.665   7.950
 4655POPC   C4A 6654  44.629   6.606   7.650
 4655POPC   C1B 6655  44.481   6.775   8.550
 4655POPC   C2B 6656  44.412   6.806   8.250
 4655POPC   C3B 6657  44.407   6.830   7.950
 4655POPC   C4B 6658  44.479   6.741   7.650
 4656POPC   NC3 6659  43.112  18.303   9.450
 4656POPC   PO4 6660  43.149  18.330   9.150
 4656POPC   GL1 6661  43.153  18.244   8.850
 4656POPC   GL2 6662  43.250  18.233   8.850
 4656POPC   C1A 6663  43.094  18.307   8.550
 4656POPC   D2A 6664  43.063  18.320   8.250
 4656POPC   C3A 6665  43.135  18.286   7.950
 4656POPC   C4A 6666  43.128  18.331   7.650
 4656POPC   C1B 6667  43.313  18.145   8.550
 4656POPC   C2B 6668  43.268  18.121   8.250
 4656POPC   C3B 6669  43.278  18.154   7.950
 4656POPC   C4B 6670  43.262  18.131   7.650
 4657POPC   NC3 6671  36.125  29.119   9.450
 4657POPC   PO4 6672  36.169  29.181   9.150
 4657POPC   GL1 6673  36.146  29.190   8.850
 4657POPC   GL2 6674  36.281  29.138   8.850
 4657POPC   C1A 6675  36.113  29.111   8.550
 4657POPC   D2A 6676  36.133  29.124   8.250
 4657POPC   C3A 6677  36.130  29.184   7.950
 4657POPC   C4A 6678  36.168  29.162   7.650
 4657POPC   C1B 6679  36.360  29.268   8.550
 4657POPC   C2B 6680  36.408  29.194   8.250
 4657POPC   C3B 6681  36.395  29.268   7.950
 4657POPC   C4B 6682  36.392  29.190   7.650
 4658POPC   NC3 6683  14.357   2.028   9.450
 4658POPC   PO4 6684  14.430   1.976   9.150
 4658POPC   GL1 6685  14.392   1.973   8.850
 4658POPC   GL2 6686  14.505   1.994   8.850
 4658POPC   C1A 6687  14.427   1.996   8.550
 4658POPC   D2A 6688  14.452   1.993   8.250
 4658POPC   C3A 6689  14.443   1.973   7.950
 4658POPC   C4A 6690  14.431   1.995   7.650
 4658POPC   C1B 6691  14.679   2.079   8.550
 4658POPC   C2B 6692  14.652   2.075   8.250
 4658POPC   C3B 6693  14.642   2.053   7.950
 4658POPC   C4B 6694  14.593   2.117   7.650
 4659POPC   NC3 6695  25.999  15.998   9.450
 4659POPC   PO4 6696  26.012  15.978   9.150
 4659POPC   GL1 6697  26.070  15.971   8.850
 4659POPC   GL2 6698  26.005  16.019   8.850
 4659POPC   C1A 6699  25.994  15.925   8.550
 4659POPC   D2A 6700  26.067  15.975   8.250
 4659POPC   C3A 6701  26.086  15.931   7.950
 4659POPC   C4A 6702  26.082  15.998   7.650
 4659POPC   C1B 6703  25.908  16.134   8.550
 4659POPC   C2B 6704  25.913  16.188   8.250
 4659POPC   C3B 6705  25.925  16.132   7.950
 4659POPC   C4B 6706  25.865  16.160   7.650
 4660POPC   NC3 6707  36.861  39.214   9.450
 4660POPC   PO4 6708  36.943  39.207   9.150
 4660POPC   GL1 6709  36.903  39.221   8.850
 4660POPC   GL2 6710  36.786  39.168   8.850
 4660POPC   C1A 6711  36.947  39.190   8.550
 4660POPC   D2A 6712  36.914  39.263   8.250
 4660POPC   C3A 6713  36.893  39.254   7.950
 4660POPC   C4A 6714  36.903  39.264   7.650
 4660POPC   C1B 6715  36.643  39.136   8.550
 4660POPC   C2B 6716  36.693  39.146   8.250
 4660POPC   C3B 6717  36.669  39.101   7.950
 4660POPC   C4B 6718  36.653  39.054   7.650
 4661POPC   NC3 6719  41.587  27.624   9.450
 4661POPC   PO4 6720  41.578  27.553   9.150
 4661POPC   GL1 6721  41.586  27.547   8.850
 4661POPC   GL2 6722  41.675  27.487   8.850
 4661POPC   C1A 6723  41.519  27.619   8.550
 4661POPC   D2A 6724  41.515  27.604   8.250
 4661POPC   C3A 6725  41.596  27.554   7.950
 4661POPC   C4A 6726  41.576  27.577   7.650
 4661POPC   C1B 6727  41.746  27.449   8.550
 4661POPC   C2B 6728  41.762  27.465   8.250
 4661POPC   C3B 6729  41.788  27.391   7.950
 4661POPC   C4B 6730  41.755  27.388   7.650
 4662POPC   NC3 6731  32.996  36.084   9.450
 4662POPC   PO4 6732  32.995  36.081   9.150
 4662POPC   GL1 6733  33.046  36.142   8.850
 4662POPC   GL2 6734  32.897  36.081   8.850
 4662POPC   C1A 6735  32.981  36.140   8.550
 4662POPC   D2A 6736  33.006  36.149   8.250
 4662POPC   C3A 6737  33.057  36.125   7.950
 4662POPC   C4A 6738  33.010  36.166   7.650
 4662POPC   C1B 6739  32.762  36.010   8.550
 4662POPC   C2B 6740  32.758  36.034   8.250
 4662POPC   C3B 6741  32.772  36.034   7.950
 4662POPC   C4B 6742  32.759  36.075   7.650
 4663POPC   NC3 6743  33.015  40.024   9.450
 4663POPC   PO4 6744  33.024  40.001   9.150
 4663POPC   GL1 6745  32.995  40.007   8.850
 4663POPC   GL2 6746  32.994  39.926   8.850
 4663POPC   C1A 6747  33.005  39.996   8.550
 4663POPC   D2A 6748  33.066  40.052   8.250
 4663POPC   C3A 6749  32.978  39.998   7.950
 4663POPC   C4A 6750  33.056  40.056   7.650
 4663POPC   C1B 6751  32.942  39.800   8.550
 4663POPC   C2B 6752  32.862  39.798   8.250
 4663POPC   C3B 6753  32.908  39.797   7.950
 4663POPC   C4B 6754  32.923  39.840   7.650
 4664POPC   NC3 6755  43.862   2.772   9.450
 4664POPC   PO4 6756  43.928   2.795   9.150
 4664POPC   GL1 6757  43.898   2.806   8.850
 4664POPC   GL2 6758  43.926   2.892   8.850
 4664POPC   C1A 6759  43.858   2.791   8.550
 4664POPC   D2A 6760  43.897   2.741   8.250
 4664POPC   C3A 6761  43.868   2.733   7.950
 4664POPC   C4A 6762  43.877   2.748   7.650
 4664POPC   C1B 6763  44.063   2.940   8.550
 4664POPC   C2B 6764  44.011   2.962   8.250
 4664POPC   C3B 6765  44.007   2.991   7.950
 4664POPC   C4B 6766  44.092   2.966   7.650
 4665POPC   NC3 6767  29.938  19.823   9.450
 4665POPC   PO4 6768  29.954  19.820   9.150
 4665POPC   GL1 6769  29.883  19.853   8.850
 4665POPC   GL2 6770  29.796  19.902   8.850
 4665POPC   C1A 6771  29.874  19.834   8.550
 4665POPC   D2A 6772  29.928  19.823   8.250
 4665POPC   C3A 6773  29.915  19.876   7.950
 4665POPC   C4A 6774  29.882  19.801   7.650
 4665POPC   C1B 6775  29.644  19.891   8.550
 4665POPC   C2B 6776  29.657  19.892   8.250
 4665POPC   C3B 6777  29.662  19.918   7.950
 4665POPC   C4B 6778  29.716  19.944   7.650
 4666POPC   NC3 6779  23.713  37.700   9.450
 4666POPC   PO4 6780  23.681  37.670   9.150
 4666POPC   GL1 6781  23.733  37.665   8.850
 4666POPC   GL2 6782  23.628  37.818   8.850
 4666POPC   C1A 6783  23.724  37.670   8.550
 4666POPC   D2A 6784  23.666  37.707   8.250
 4666POPC   C3A 6785  23.683  37.710   7.950
 4666POPC   C4A 6786  23.697  37.638   7.650
 4666POPC   C1B 6787  23.627  37.950   8.550
 4666POPC   C2B 6788  23.604  37.959   8.250
 4666POPC   C3B 6789  23.611  37.956   7.950
 4666POPC   C4B 6790  23.653  37.891   7.650
 4667POPC   NC3 6791  29.921  10.504   9.450
 4667POPC   PO4 6792  29.919  10.506   9.150
 4667POPC   GL1 6793  29.917  10.547   8.850
 4667POPC   GL2 6794  29.989  10.460   8.850
 4667POPC   C1A 6795  29.941  10.479   8.550
 4667POPC   D2A 6796  29.941  10.478   8.250
 4667POPC   C3A 6797  29.895  10.509   7.950
 4667POPC   C4A 6798  29.967  10.508   7.650
 4667POPC   C1B 6799  30.130  10.409   8.550
 4667POPC   C2B 6800  30.089  10.371   8.250
 4667POPC   C3B 6801  30.176  10.373   7.950
 4667POPC   C4B 6802  30.101  10.352   7.650
 4668POPC   NC3 6803   1.946  43.100   9.450
 4668POPC   PO4 6804   2.028  43.126   9.150
 4668POPC   GL1 6805   1.994  43.121   8.850
 4668POPC   GL2 6806   1.959  43.205   8.850
 4668POPC   C1A 6807   2.022  43.126   8.550
 4668POPC   D2A 6808   2.039  43.123   8.250
 4668POPC   C3A 6809   1.945  43.134   7.950
 4668POPC   C4A 6810   1.977  43.079   7.650
 4668POPC   C1B 6811   1.847  43.310   8.550
 4668POPC   C2B 6812   1.837  43.298   8.250
 4668POPC   C3B 6813   1.838  43.327   7.950
 4668POPC   C4B 6814   1.854  43.295   7.650
 4669POPC   NC3 6815   9.766  33.018   9.450
 4669POPC   PO4 6816   9.712  32.984   9.150
 4669POPC   GL1 6817   9.787  33.027   8.850
 4669POPC   GL2 6818   9.706  32.873   8.850
 4669POPC   C1A 6819   9.700  32.983   8.550
 4669POPC   D2A 6820   9.785  32.988   8.250
 4669POPC   C3A 6821   9.729  33.045   7.950
 4669POPC   C4A 6822   9.752  32.977   7.650
 4669POPC   C1B 6823   9.609  32.848   8.550
 4669POPC   C2B 6824   9.623  32.796   8.250
 4669POPC   C3B 6825   9.611  32.840   7.950
 4669POPC   C4B 6826   9.649  32.839   7.650
 4670POPC   NC3 6827   3.548  26.769   9.450
 4670POPC   PO4 6828   3.559  26.803   9.150
 4670POPC   GL1 6829   3.540  26.804   8.850
 4670POPC   GL2 6830   3.511  26.676   8.850
 4670POPC   C1A 6831   3.502  26.789   8.550
 4670POPC   D2A 6832   3.497  26.847   8.250
 4670POPC   C3A 6833   3.536  26.849   7.950
 4670POPC   C4A 6834   3.571  26.787   7.650
 4670POPC   C1B 6835   3.402  26.558   8.550
 4670POPC   C2B 6836   3.406  26.574   8.250
 4670POPC   C3B 6837   3.458  26.592   7.950
 4670POPC   C4B 6838   3.379  26.600   7.650
 4671POPC   NC3 6839  29.920   5.890   9.450
 4671POPC   PO4 6840  29.963   5.915   9.150
 4671POPC   GL1 6841  29.968   5.849   8.850
 4671POPC   GL2 6842  29.955   5.774   8.850
 4671POPC   C1A 6843  29.899   5.821   8.550
 4671POPC   D2A 6844  29.882   5.891   8.250
 4671POPC   C3A 6845  29.955   5.887   7.950
 4671POPC   C4A 6846  29.967   5.879   7.650
 4671POPC   C1B 6847  29.923   5.651   8.550
 4671POPC   C2B 6848  29.928   5.605   8.250
 4671POPC   C3B 6849  29.907   5.588   7.950
 4671POPC   C4B 6850  29.970   5.644   7.650
 4672POPC   NC3 6851   7.443  32.255   9.450
 4672POPC   PO4 6852   7.412  32.283   9.150
 4672POPC   GL1 6853   7.446  32.274   8.850
 4672POPC   GL2 6854   7.399  32.385   8.850
 4672POPC   C1A 6855   7.441  32.238   8.550
 4672POPC   D2A 6856   7.396  32.229   8.250
 4672POPC   C3A 6857   7.376  32.204   7.950
 4672POPC   C4A 6858   7.433  32.199   7.650
 4672POPC   C1B 6859   7.325  32.480   8.550
 4672POPC   C2B 6860   7.369  32.446   8.250
 4672POPC   C3B 6861   7.342  32.535   7.950
 4672POPC   C4B 6862   7.386  32.452   7.650
 4673POPC   NC3 6863  12.075  14.428   9.450
 4673POPC   PO4 6864  12.071  14.441   9.150
 4673POPC   GL1 6865  12.113  14.363   8.850
 4673POPC   GL2 6866  11.934  14.488   8.850
 4673POPC   C1A 6867  12.088  14.387   8.550
 4673POPC   D2A 6868  12.101  14.363   8.250
 4673POPC   C3A 6869  12.093  14.446   7.950
 4673POPC   C4A 6870  12.043  14.408   7.650
 4673POPC   C1B 6871  11.857  14.535   8.550
 4673POPC   C2B 6872  11.840  14.581   8.250
 4673POPC   C3B 6873  11.855  14.597   7.950
 4673POPC   C4B 6874  11.857  14.531   7.650
 4674POPC   NC3 6875   1.217   8.173   9.450
 4674POPC   PO4 6876   1.168   8.197   9.150
 4674POPC   GL1 6877   1.223   8.153   8.850
 4674POPC   GL2 6878   1.141   8.074   8.850
 4674POPC   C1A 6879   1.203   8.243   8.550
 4674POPC   D2A 6880   1.204   8.152   8.250
 4674POPC   C3A 6881   1.228   8.230   7.950
 4674POPC   C4A 6882   1.172   8.157   7.650
 4674POPC   C1B 6883   1.056   8.014   8.550
 4674POPC   C2B 6884   1.021   8.043   8.250
 4674POPC   C3B 6885   1.069   8.063   7.950
 4674POPC   C4B 6886   1.043   8.027   7.650
 4675POPC   NC3 6887  19.034  43.089   9.450
 4675POPC   PO4 6888  19.028  43.117   9.150
 4675POPC   GL1 6889  19.032  43.094   8.850
 4675POPC   GL2 6890  19.031  42.940   8.850
 4675POPC   C1A 6891  19.086  43.154   8.550
 4675POPC   D2A 6892  19.073  43.117   8.250
 4675POPC   C3A 6893  19.013  43.146   7.950
 4675POPC   C4A 6894  19.098  43.134   7.650
 4675POPC   C1B 6895  19.067  42.870   8.550
 4675POPC   C2B 6896  19.108  42.829   8.250
 4675POPC   C3B 6897  19.064  42.835   7.950
 4675POPC   C4B 6898  19.110  42.897   7.650
 4676POPC   NC3 6899  35.351  22.138   9.450
 4676POPC   PO4 6900  35.339  22.191   9.150
 4676POPC   GL1 6901  35.338  22.131   8.850
 4676POPC   GL2 6902  35.526  22.222   8.850
 4676POPC   C1A 6903  35.363  22.182   8.550
 4676POPC   D2A 6904  35.360  22.175   8.250
 4676POPC   C3A 6905  35.359  22.169   7.950
 4676POPC   C4A 6906  35.395  22.200   7.650
 4676POPC   C1B 6907  35.617  22.147   8.550
 4676POPC   C2B 6908  35.644  22.230   8.250
 4676POPC   C3B 6909  35.609  22.218   7.950
 4676POPC   C4B 6910  35.552  22.194   7.650
 4677POPC   NC3 6911  33.766  14.356   9.450
 4677POPC   PO4 6912  33.827  14.377   9.150
 4677POPC   GL1 6913  33.796  14.387   8.850
 4677POPC   GL2 6914  33.813  14.248   8.850
 4677POPC   C1A 6915  33.752  14.423   8.550
 4677POPC   D2A 6916  33.807  14.421   8.250
 4677POPC   C3A 6917  33.798  14.384   7.950
 4677POPC   C4A 6918  33.808  14.364   7.650
 4677POPC   C1B 6919  33.781  14.140   8.550
 4677POPC   C2B 6920  33.709  14.207   8.250
 4677POPC   C3B 6921  33.788  14.183   7.950
 4677POPC   C4B 6922  33.780  14.141   7.650
 4678POPC   NC3 6923  39.213  18.287   9.450
 4678POPC   PO4 6924  39.198  18.311   9.150
 4678POPC   GL1 6925  39.263  18.279   8.850
 4678POPC   GL2 6926  39.216  18.199   8.850
 4678POPC   C1A 6927  39.217  18.327   8.550
 4678POPC   D2A 6928  39.252  18.305   8.250
 4678POPC   C3A 6929  39.276  18.324   7.950
 4678POPC   C4A 6930  39.223  18.308   7.650
 4678POPC   C1B 6931  39.205  18.056   8.550
 4678POPC   C2B 6932  39.170  18.024   8.250
 4678POPC   C3B 6933  39.202  18.074   7.950
 4678POPC   C4B 6934  39.146  18.055   7.650
 4679POPC   NC3 6935  31.518  28.411   9.450
 4679POPC   PO4 6936  31.432  28.324   9.150
 4679POPC   GL1 6937  31.486  28.401   8.850
 4679POPC   GL2 6938  31.335  28.445   8.850
 4679POPC   C1A 6939  31.457  28.409   8.550
 4679POPC   D2A 6940  31.500  28.418   8.250
 4679POPC   C3A 6941  31.505  28.346   7.950
 4679POPC   C4A 6942  31.514  28.357   7.650
 4679POPC   C1B 6943  31.319  28.524   8.550
 4679POPC   C2B 6944  31.266  28.521   8.250
 4679POPC   C3B 6945  31.256  28.528   7.950
 4679POPC   C4B 6946  31.253  28.528   7.650
 4680POPC   NC3 6947  20.576  34.552   9.450
 4680POPC   PO4 6948  20.617  34.528   9.150
 4680POPC   GL1 6949  20.623  34.581   8.850
 4680POPC   GL2 6950  20.672  34.645   8.850
 4680POPC   C1A 6951  20.642  34.574   8.550
 4680POPC   D2A 6952  20.643  34.608   8.250
 4680POPC   C3A 6953  20.597  34.595   7.950
 4680POPC   C4A 6954  20.622  34.615   7.650
 4680POPC   C1B 6955  20.794  34.699   8.550
 4680POPC   C2B 6956  20.811  34.746   8.250
 4680POPC   C3B 6957  20.826  34.724   7.950
 4680POPC   C4B 6958  20.847  34.744   7.650
 4681POPC   NC3 6959  19.857  22.920   9.450
 4681POPC   PO4 6960  19.818  22.969   9.150
 4681POPC   GL1 6961  19.883  22.980   8.850
 4681POPC   GL2 6962  19.919  22.961   8.850
 4681POPC   C1A 6963  19.864  22.900   8.550
 4681POPC   D2A 6964  19.850  22.966   8.250
 4681POPC   C3A 6965  19.865  22.972   7.950
 4681POPC   C4A 6966  19.884  22.925   7.650
 4681POPC   C1B 6967  20.112  22.923   8.550
 4681POPC   C2B 6968  20.084  22.891   8.250
 4681POPC   C3B 6969  20.108  22.907   7.950
 4681POPC   C4B 6970  20.067  22.936   7.650
 4682POPC   NC3 6971   8.982  36.858   9.450
 4682POPC   PO4 6972   8.996  36.861   9.150
 4682POPC   GL1 6973   8.989  36.930   8.850
 4682POPC   GL2 6974   9.047  36.861   8.850
 4682POPC   C1A 6975   8.959  36.952   8.550
 4682POPC   D2A 6976   8.975  36.892   8.250
 4682POPC   C3A 6977   8.978  36.912   7.950
 4682POPC   C4A 6978   9.006  36.888   7.650
 4682POPC   C1B 6979   9.152  36.790   8.550
 4682POPC   C2B 6980   9.202  36.830   8.250
 4682POPC   C3B 6981   9.216  36.823   7.950
 4682POPC   C4B 6982   9.167  36.801   7.650
 4683POPC   NC3 6983  22.902  39.981   9.450
 4683POPC   PO4 6984  22.912  40.020   9.150
 4683POPC   GL1 6985  22.898  40.026   8.850
 4683POPC   GL2 6986  22.976  40.139   8.850
 4683POPC   C1A 6987  22.945  40.011   8.550
 4683POPC   D2A 6988  22.968  40.034   8.250
 4683POPC   C3A 6989  22.981  40.009   7.950
 4683POPC   C4A 6990  22.899  40.013   7.650
 4683POPC   C1B 6991  23.041  40.259   8.550
 4683POPC   C2B 6992  23.048  40.202   8.250
 4683POPC   C3B 6993  23.086  40.193   7.950
 4683POPC   C4B 6994  23.025  40.238   7.650
 4684POPC   NC3 6995   6.639  18.258   9.450
 4684POPC   PO4 6996   6.619  18.302   9.150
 4684POPC   GL1 6997   6.622  18.267   8.850
 4684POPC   GL2 6998   6.584  18.211   8.850
 4684POPC   C1A 6999   6.647  18.327   8.550
 4684POPC   D2A 7000   6.686  18.274   8.250
 4684POPC   C3A 7001   6.665  18.277   7.950
 4684POPC   C4A 7002   6.680  18.264   7.650
 4684POPC   C1B 7003   6.564  18.080   8.550
 4684POPC   C2B 7004   6.548  18.074   8.250
 4684POPC   C3B 7005   6.621  18.049   7.950
 4684POPC   C4B 7006   6.603  17.996   7.650
 4685POPC   NC3 7007  15.933  27.590   9.450
 4685POPC   PO4 7008  15.963  27.614   9.150
 4685POPC   GL1 7009  15.974  27.606   8.850
 4685POPC   GL2 7010  15.915  27.487   8.850
 4685POPC   C1A 7011  15.966  27.586   8.550
 4685POPC   D2A 7012  15.964  27.559   8.250
 4685POPC   C3A 7013  15.933  27.556   7.950
 4685POPC   C4A 7014  15.998  27.545   7.650
 4685POPC   C1B 7015  15.857  27.374   8.550
 4685POPC   C2B 7016  15.780  27.409   8.250
 4685POPC   C3B 7017  15.785  27.415   7.950
 4685POPC   C4B 7018  15.854  27.354   7.650
 4686POPC   NC3 7019  18.323  23.675   9.450
 4686POPC   PO4 7020  18.302  23.749   9.150
 4686POPC   GL1 7021  18.241  23.761   8.850
 4686POPC   GL2 7022  18.258  23.573   8.850
 4686POPC   C1A 7023  18.323  23.675   8.550
 4686POPC   D2A 7024  18.242  23.702   8.250
 4686POPC   C3A 7025  18.284  23.727   7.950
 4686POPC   C4A 7026  18.234  23.664   7.650
 4686POPC   C1B 7027  18.319  23.429   8.550
 4686POPC   C2B 7028  18.268  23.463   8.250
 4686POPC   C3B 7029  18.318  23.500   7.950
 4686POPC   C4B 7030  18.271  23.418   7.650
 4687POPC   NC3 7031  15.180  43.073   9.450
 4687POPC   PO4 7032  15.194  43.110   9.150
 4687POPC   GL1 7033  15.189  43.063   8.850
 4687POPC   GL2 7034  15.336  43.174   8.850
 4687POPC   C1A 7035  15.181  43.097   8.550
 4687POPC   D2A 7036  15.202  43.119   8.250
 4687POPC   C3A 7037  15.146  43.098   7.950
 4687POPC   C4A 7038  15.176  43.110   7.650
 4687POPC   C1B 7039  15.386  43.151   8.550
 4687POPC   C2B 7040  15.418  43.181   8.250
 4687POPC   C3B 7041  15.430  43.145   7.950
 4687POPC   C4B 7042  15.392  43.155   7.650
 4688POPC   NC3 7043  31.461  25.290   9.450
 4688POPC   PO4 7044  31.521  25.251   9.150
 4688POPC   GL1 7045  31.511  25.315   8.850
 4688POPC   GL2 7046  31.305  25.297   8.850
 4688POPC   C1A 7047  31.517  25.257   8.550
 4688POPC   D2A 7048  31.434  25.225   8.250
 4688POPC   C3A 7049  31.471  25.242   7.950
 4688POPC   C4A 7050  31.461  25.234   7.650
 4688POPC   C1B 7051  31.264  25.297   8.550
 4688POPC   C2B 7052  31.199  25.370   8.250
 4688POPC   C3B 7053  31.272  25.311   7.950
 4688POPC   C4B 7054  31.228  25.357   7.650
 4689POPC   NC3 7055   8.174  41.528   9.450
 4689POPC   PO4 7056   8.153  41.576   9.150
 4689POPC   GL1 7057   8.240  41.510   8.850
 4689POPC   GL2 7058   8.088  41.605   8.850
 4689POPC   C1A 7059   8.183  41.597   8.550
 4689POPC   D2A 7060   8.241  41.564   8.250
 4689POPC   C3A 7061   8.229  41.602   7.950
 4689POPC   C4A 7062   8.183  41.543   7.650
 4689POPC   C1B 7063   7.996  41.670   8.550
 4689POPC   C2B 7064   8.033  41.741   8.250
 4689POPC   C3B 7065   7.950  41.680   7.950
 4689POPC   C4B 7066   8.006  41.655   7.650
 4690POPC   NC3 7067  34.568  15.974   9.450
 4690POPC   PO4 7068  34.527  15.938   9.150
 4690POPC   GL1 7069  34.612  15.971   8.850
 4690POPC   GL2 7070  34.496  15.827   8.850
 4690POPC   C1A 7071  34.619  15.947   8.550
 4690POPC   D2A 7072  34.549  15.923   8.250
 4690POPC   C3A 7073  34.624  15.997   7.950
 4690POPC   C4A 7074  34.554  15.972   7.650
 4690POPC   C1B 7075  34.490  15.749   8.550
 4690POPC   C2B 7076  34.432  15.771   8.250
 4690POPC   C3B 7077  34.507  15.692   7.950
 4690POPC   C4B 7078  34.513  15.719   7.650
 4691POPC   NC3 7079  26.832  29.927   9.450
 4691POPC   PO4 7080  26.814  29.885   9.150
 4691POPC   GL1 7081  26.804  29.880   8.850
 4691POPC   GL2 7082  26.662  29.931   8.850
 4691POPC   C1A 7083  26.804  29.960   8.550
 4691POPC   D2A 7084  26.824  29.900   8.250
 4691POPC   C3A 7085  26.841  29.917   7.950
 4691POPC   C4A 7086  26.864  29.963   7.650
 4691POPC   C1B 7087  26.544  29.916   8.550
 4691POPC   C2B 7088  26.551  29.936   8.250
 4691POPC   C3B 7089  26.614  29.883   7.950
 4691POPC   C4B 7090  26.617  29.854   7.650
 4692POPC   NC3 7091   0.452   6.628   9.450
 4692POPC   PO4 7092   0.420   6.616   9.150
 4692POPC   GL1 7093   0.413   6.687   8.850
 4692POPC   GL2 7094   0.456   6.523   8.850
 4692POPC   C1A 7095   0.434   6.605   8.550
 4692POPC   D2A 7096   0.416   6.683   8.250
 4692POPC   C3A 7097   0.470   6.646   7.950
 4692POPC   C4A 7098   0.388   6.631   7.650
 4692POPC   C1B 7099   0.502   6.382   8.550
 4692POPC   C2B 7100   0.505   6.374   8.250
 4692POPC   C3B 7101   0.509   6.440   7.950
 4692POPC   C4B 7102   0.487   6.376   7.650
 4693POPC   NC3 7103  31.432  43.858   9.450
 4693POPC   PO4 7104  31.439  43.915   9.150
 4693POPC   GL1 7105  31.453  43.926   8.850
 4693POPC   GL2 7106  31.495  43.762   8.850
 4693POPC   C1A 7107  31.429  43.889   8.550
 4693POPC   D2A 7108  31.517  43.842   8.250
 4693POPC   C3A 7109  31.495  43.874   7.950
 4693POPC   C4A 7110  31.427  43.863   7.650
 4693POPC   C1B 7111  31.495  43.615   8.550
 4693POPC   C2B 7112  31.460  43.625   8.250
 4693POPC   C3B 7113  31.505  43.619   7.950
 4693POPC   C4B 7114  31.446  43.652   7.650
 4694POPC   NC3 7115  21.360  15.969   9.450
 4694POPC   PO4 7116  21.414  15.971   9.150
 4694POPC   GL1 7117  21.425  15.975   8.850
 4694POPC   GL2 7118  21.472  15.832   8.850
 4694POPC   C1A 7119  21.408  15.914   8.550
 4694POPC   D2A 7120  21.423  15.914   8.250
 4694POPC   C3A 7121  21.363  15.947   7.950
 4694POPC   C4A 7122  21.380  15.960   7.650
 4694POPC   C1B 7123  21.426  15.690   8.550
 4694POPC   C2B 7124  21.509  15.707   8.250
 4694POPC   C3B 7125  21.482  15.756   7.950
 4694POPC   C4B 7126  21.468  15.720   7.650
 4695POPC   NC3 7127  25.278   3.571   9.450
 4695POPC   PO4 7128  25.303   3.503   9.150
 4695POPC   GL1 7129  25.285   3.503   8.850
 4695POPC   GL2 7130  25.236   3.380   8.850
 4695POPC   C1A 7131  25.274   3.578   8.550
 4695POPC   D2A 7132  25.315   3.502   8.250
 4695POPC   C3A 7133  25.272   3.567   7.950
 4695POPC   C4A 7134  25.227   3.556   7.650
 4695POPC   C1B 7135  25.267   3.281   8.550
 4695POPC   C2B 7136  25.260   3.284   8.250
 4695POPC   C3B 7137  25.236   3.300   7.950
 4695POPC   C4B 7138  25.273   3.341   7.650
 4696POPC   NC3 7139  44.629   9.754   9.450
 4696POPC   PO4 7140  44.662   9.771   9.150
 4696POPC   GL1 7141  44.680   9.736   8.850
 4696POPC   GL2 7142  44.706   9.661   8.850
 4696POPC   C1A 7143  44.660   9.780   8.550
 4696POPC   D2A 7144  44.676   9.777   8.250
 4696POPC   C3A 7145  44.667   9.713   7.950
 4696POPC   C4A 7146  44.628   9.709   7.650
 4696POPC   C1B 7147  44.766   9.513   8.550
 4696POPC   C2B 7148  44.847   9.573   8.250
 4696POPC   C3B 7149  44.826   9.535   7.950
 4696POPC   C4B 7150  44.805   9.525   7.650
 4697POPC   NC3 7151  12.050  15.938   9.450
 4697POPC   PO4 7152  12.100  15.992   9.150
 4697POPC   GL1 7153  12.089  15.982   8.850
 4697POPC   GL2 7154  12.118  16.083   8.850
 4697POPC   C1A 7155  12.095  15.916   8.550
 4697POPC   D2A 7156  12.091  15.937   8.250
 4697POPC   C3A 7157  12.090  15.946   7.950
 4697POPC   C4A 7158  12.055  15.966   7.650
 4697POPC   C1B 7159  12.260  16.138   8.550
 4697POPC   C2B 7160  12.223  16.131   8.250
 4697POPC   C3B 7161  12.210  16.157   7.950
 4697POPC   C4B 7162  12.299  16.131   7.650
 4698POPC   NC3 7163  21.414  43.935   9.450
 4698POPC   PO4 7164  21.402  43.846   9.150
 4698POPC   GL1 7165  21.384  43.849   8.850
 4698POPC   GL2 7166  21.322  43.965   8.850
 4698POPC   C1A 7167  21.361  43.901   8.550
 4698POPC   D2A 7168  21.345  43.894   8.250
 4698POPC   C3A 7169  21.337  43.921   7.950
 4698POPC   C4A 7170  21.431  43.901   7.650
 4698POPC   C1B 7171  21.218  44.070   8.550
 4698POPC   C2B 7172  21.277  44.054   8.250
 4698POPC   C3B 7173  21.237  44.042   7.950
 4698POPC   C4B 7174  21.238  44.091   7.650
 4699POPC   NC3 7175  44.651  33.025   9.450
 4699POPC   PO4 7176  44.624  33.059   9.150
 4699POPC   GL1 7177  44.642  33.028   8.850
 4699POPC   GL2 7178  44.650  33.130   8.850
 4699POPC   C1A 7179  44.618  33.034   8.550
 4699POPC   D2A 7180  44.647  33.050   8.250
 4699POPC   C3A 7181  44.673  32.980   7.950
 4699POPC   C4A 7182  44.693  33.028   7.650
 4699POPC   C1B 7183  44.613  33.281   8.550
 4699POPC   C2B 7184  44.555  33.212   8.250
 4699POPC   C3B 7185  44.569  33.285   7.950
 4699POPC   C4B 7186  44.532  33.293   7.650
 4700POPC   NC3 7187  10.477  38.487   9.450
 4700POPC   PO4 7188  10.491  38.499   9.150
 4700POPC   GL1 7189  10.569  38.434   8.850
 4700POPC   GL2 7190  10.405  38.441   8.850
 4700POPC   C1A 7191  10.527  38.442   8.550
 4700POPC   D2A 7192  10.492  38.500   8.250
 4700POPC   C3A 7193  10.523  38.441   7.950
 4700POPC   C4A 7194  10.546  38.425   7.650
 4700POPC   C1B 7195  10.266  38.350   8.550
 4700POPC   C2B 7196  10.248  38.394   8.250
 4700POPC   C3B 7197  10.305  38.374   7.950
 4700POPC   C4B 7198  10.243  38.348   7.650
 4701POPC   NC3 7199  33.772  21.427   9.450
 4701POPC   PO4 7200  33.847  21.399   9.150
 4701POPC   GL1 7201  33.835  21.391   8.850
 4701POPC   GL2 7202  33.651  21.367   8.850
 4701POPC   C1A 7203  33.800  21.391   8.550
 4701POPC   D2A 7204  33.831  21.378   8.250
 4701POPC   C3A 7205  33.779  21.341   7.950
 4701POPC   C4A 7206  33.847  21.399   7.650
 4701POPC   C1B 7207  33.538  21.332   8.550
 4701POPC   C2B 7208  33.590  21.370   8.250
 4701POPC   C3B 7209  33.518  21.319   7.950
 4701POPC   C4B 7210  33.537  21.330   7.650
 4702POPC   NC3 7211  15.145  31.504   9.450
 4702POPC   PO4 7212  15.224  31.443   9.150
 4702POPC   GL1 7213  15.178  31.496   8.850
 4702POPC   GL2 7214  15.243  31.365   8.850
 4702POPC   C1A 7215  15.157  31.424   8.550
 4702POPC   D2A 7216  15.169  31.491   8.250
 4702POPC   C3A 7217  15.203  31.471   7.950
 4702POPC   C4A 7218  15.182  31.512   7.650
 4702POPC   C1B 7219  15.439  31.363   8.550
 4702POPC   C2B 7220  15.377  31.379   8.250
 4702POPC   C3B 7221  15.405  31.311   7.950
 4702POPC   C4B 7222  15.406  31.368   7.650
 4703POPC   NC3 7223  12.859  43.911   9.450
 4703POPC   PO4 7224  12.861  43.842   9.150
 4703POPC   GL1 7225  12.807  43.933   8.850
 4703POPC   GL2 7226  12.835  44.024   8.850
 4703POPC   C1A 7227  12.854  43.882   8.550
 4703POPC   D2A 7228  12.867  43.841   8.250
 4703POPC   C3A 7229  12.843  43.923   7.950
 4703POPC   C4A 7230  12.873  43.900   7.650
 4703POPC   C1B 7231  12.708  44.134   8.550
 4703POPC   C2B 7232  12.716  44.128   8.250
 4703POPC   C3B 7233  12.721  44.114   7.950
 4703POPC   C4B 7234  12.795  44.132   7.650
 4704POPC   NC3 7235  37.677   5.134   9.450
 4704POPC   PO4 7236  37.706   5.092   9.150
 4704POPC   GL1 7237  37.669   5.046   8.850
 4704POPC   GL2 7238  37.832   5.085   8.850
 4704POPC   C1A 7239  37.705   5.131   8.550
 4704POPC   D2A 7240  37.724   5.049   8.250
 4704POPC   C3A 7241  37.700   5.139   7.950
 4704POPC   C4A 7242  37.726   5.066   7.650
 4704POPC   C1B 7243  37.905   5.111   8.550
 4704POPC   C2B 7244  37.904   5.107   8.250
 4704POPC   C3B 7245  37.927   5.106   7.950
 4704POPC   C4B 7246  37.898   5.146   7.650
 4705POPC   NC3 7247  24.522  15.136   9.450
 4705POPC   PO4 7248  24.502  15.186   9.150
 4705POPC   GL1 7249  24.527  15.147   8.850
 4705POPC   GL2 7250  24.404  15.229   8.850
 4705POPC   C1A 7251  24.446  15.147   8.550
 4705POPC   D2A 7252  24.481  15.138   8.250
 4705POPC   C3A 7253  24.530  15.201   7.950
 4705POPC   C4A 7254  24.453  15.227   7.650
 4705POPC   C1B 7255  24.289  15.311   8.550
 4705POPC   C2B 7256  24.327  15.323   8.250
 4705POPC   C3B 7257  24.244  15.310   7.950
 4705POPC   C4B 7258  24.288  15.369   7.650
 4706POPC   NC3 7259  40.772  23.708   9.450
 4706POPC   PO4 7260  40.776  23.757   9.150
 4706POPC   GL1 7261  40.753  23.716   8.850
 4706POPC   GL2 7262  40.625  23.742   8.850
 4706POPC   C1A 7263  40.741  23.715   8.550
 4706POPC   D2A 7264  40.818  23.664   8.250
 4706POPC   C3A 7265  40.827  23.695   7.950
 4706POPC   C4A 7266  40.765  23.690   7.650
 4706POPC   C1B 7267  40.495  23.751   8.550
 4706POPC   C2B 7268  40.528  23.709   8.250
 4706POPC   C3B 7269  40.533  23.689   7.950
 4706POPC   C4B 7270  40.564  23.700   7.650
 4707POPC   NC3 7271  11.336  26.086   9.450
 4707POPC   PO4 7272  11.281  26.033   9.150
 4707POPC   GL1 7273  11.298  26.044   8.850
 4707POPC   GL2 7274  11.171  26.132   8.850
 4707POPC   C1A 7275  11.318  26.017   8.550
 4707POPC   D2A 7276  11.317  26.065   8.250
 4707POPC   C3A 7277  11.313  26.039   7.950
 4707POPC   C4A 7278  11.265  26.047   7.650
 4707POPC   C1B 7279  11.136  26.240   8.550
 4707POPC   C2B 7280  11.082  26.193   8.250
 4707POPC   C3B 7281  11.068  26.203   7.950
 4707POPC   C4B 7282  11.146  26.243   7.650
 4708POPC   NC3 7283  27.592  21.423   9.450
 4708POPC   PO4 7284  27.551  21.408   9.150
 4708POPC   GL1 7285  27.606  21.372   8.850
 4708POPC   GL2 7286  27.678  21.471   8.850
 4708POPC   C1A 7287  27.606  21.426   8.550
 4708POPC   D2A 7288  27.621  21.387   8.250
 4708POPC   C3A 7289  27.638  21.376   7.950
 4708POPC   C4A 7290  27.611  21.387   7.650
 4708POPC   C1B 7291  27.679  21.578   8.550
 4708POPC   C2B 7292  27.732  21.611   8.250
 4708POPC   C3B 7293  27.703  21.593   7.950
 4708POPC   C4B 7294  27.721  21.609   7.650
 4709POPC   NC3 7295  20.578  37.650   9.450
 4709POPC   PO4 7296  20.623  37.728   9.150
 4709POPC   GL1 7297  20.578  37.697   8.850
 4709POPC   GL2 7298  20.689  37.576   8.850
 4709POPC   C1A 7299  20.622  37.727   8.550
 4709POPC   D2A 7300  20.654  37.722   8.250
 4709POPC   C3A 7301  20.650  37.673   7.950
 4709POPC   C4A 7302  20.655  37.698   7.650
 4709POPC   C1B 7303  20.639  37.399   8.550
 4709POPC   C2B 7304  20.692  37.424   8.250
 4709POPC   C3B 7305  20.702  37.408   7.950
 4709POPC   C4B 7306  20.699  37.447   7.650
 4710POPC   NC3 7307   5.884  37.686   9.450
 4710POPC   PO4 7308   5.915  37.632   9.150
 4710POPC   GL1 7309   5.905  37.655   8.850
 4710POPC   GL2 7310   5.778  37.615   8.850
 4710POPC   C1A 7311   5.913  37.683   8.550
 4710POPC   D2A 7312   5.860  37.699   8.250
 4710POPC   C3A 7313   5.892  37.706   7.950
 4710POPC   C4A 7314   5.881  37.632   7.650
 4710POPC   C1B 7315   5.614  37.643   8.550
 4710POPC   C2B 7316   5.620  37.582   8.250
 4710POPC   C3B 7317   5.640  37.657   7.950
 4710POPC   C4B 7318   5.675  37.571   7.650
 4711POPC   NC3 7319  44.704  17.486   9.450
 4711POPC   PO4 7320  44.677  17.505   9.150
 4711POPC   GL1 7321  44.631  17.490   8.850
 4711POPC   GL2 7322  44.746  17.457   8.850
 4711POPC   C1A 7323  44.685  17.543   8.550
 4711POPC   D2A 7324  44.636  17.539   8.250
 4711POPC   C3A 7325  44.613  17.506   7.950
 4711POPC   C4A 7326  44.664  17.493   7.650
 4711POPC   C1B 7327  44.808  17.288   8.550
 4711POPC   C2B 7328  44.829  17.363   8.250
 4711POPC   C3B 7329  44.830  17.274   7.950
 4711POPC   C4B 7330  44.794  17.340   7.650
 4712POPC   NC3 7331  26.017   5.077   9.450
 4712POPC   PO4 7332  26.011   5.093   9.150
 4712POPC   GL1 7333  26.034   5.059   8.850
 4712POPC   GL2 7334  26.154   5.023   8.850
 4712POPC   C1A 7335  26.014   5.058   8.550
 4712POPC   D2A 7336  26.089   5.143   8.250
 4712POPC   C3A 7337  26.083   5.084   7.950
 4712POPC   C4A 7338  26.007   5.142   7.650
 4712POPC   C1B 7339  26.313   4.992   8.550
 4712POPC   C2B 7340  26.247   5.005   8.250
 4712POPC   C3B 7341  26.294   4.969   7.950
 4712POPC   C4B 7342  26.277   5.044   7.650
 4713POPC   NC3 7343  16.753  13.596   9.450
 4713POPC   PO4 7344  16.682  13.589   9.150
 4713POPC   GL1 7345  16.738  13.653   8.850
 4713POPC   GL2 7346  16.661  13.531   8.850
 4713POPC   C1A 7347  16.741  13.625   8.550
 4713POPC   D2A 7348  16.705  13.658   8.250
 4713POPC   C3A 7349  16.725  13.641   7.950
 4713POPC   C4A 7350  16.735  13.588   7.650
 4713POPC   C1B 7351  16.594  13.357   8.550
 4713POPC   C2B 7352  16.641  13.419   8.250
 4713POPC   C3B 7353  16.670  13.404   7.950
 4713POPC   C4B 7354  16.676  13.369   7.650
 4714POPC   NC3 7355  15.988  43.120   9.450
 4714POPC   PO4 7356  15.966  43.124   9.150
 4714POPC   GL1 7357  15.950  43.154   8.850
 4714POPC   GL2 7358  16.049  43.182   8.850
 4714POPC   C1A 7359  15.957  43.141   8.550
 4714POPC   D2A 7360  15.935  43.079   8.250
 4714POPC   C3A 7361  15.921  43.114   7.950
 4714POPC   C4A 7362  15.946  43.095   7.650
 4714POPC   C1B 7363  16.143  43.166   8.550
 4714POPC   C2B 7364  16.139  43.188   8.250
 4714POPC   C3B 7365  16.214  43.176   7.950
 4714POPC   C4B 7366  16.152  43.202   7.650
 4715POPC   NC3 7367  34.617   9.794   9.450
 4715POPC   PO4 7368  34.595   9.721   9.150
 4715POPC   GL1 7369  34.567   9.713   8.850
 4715POPC   GL2 7370  34.578   9.591   8.850
 4715POPC   C1A 7371  34.588   9.716   8.550
 4715POPC   D2A 7372  34.589   9.725   8.250
 4715POPC   C3A 7373  34.580   9.768   7.950
 4715POPC   C4A 7374  34.560   9.706   7.650
 4715POPC   C1B 7375  34.544   9.464   8.550
 4715POPC   C2B 7376  34.531   9.551   8.250
 4715POPC   C3B 7377  34.552   9.483   7.950
 4715POPC   C4B 7378  34.565   9.518   7.650
 4716POPC   NC3 7379   6.597  29.912   9.450
 4716POPC   PO4 7380   6.677  29.935   9.150
 4716POPC   GL1 7381   6.609  29.879   8.850
 4716POPC   GL2 7382   6.696  30.006   8.850
 4716POPC   C1A 7383   6.693  29.911   8.550
 4716POPC   D2A 7384   6.609  29.936   8.250
 4716POPC   C3A 7385   6.614  29.904   7.950
 4716POPC   C4A 7386   6.661  29.883   7.650
 4716POPC   C1B 7387   6.826  30.151   8.550
 4716POPC   C2B 7388   6.788  30.081   8.250
 4716POPC   C3B 7389   6.832  30.129   7.950
 4716POPC   C4B 7390   6.849  30.066   7.650
 4717POPC   NC3 7391  32.282  21.358   9.450
 4717POPC   PO4 7392  32.244  21.394   9.150
 4717POPC   GL1 7393  32.244  21.341   8.850
 4717POPC   GL2 7394  32.284  21.310   8.850
 4717POPC   C1A 7395  32.291  21.396   8.550
 4717POPC   D2A 7396  32.218  21.424   8.250
 4717POPC   C3A 7397  32.282  21.384   7.950
 4717POPC   C4A 7398  32.272  21.358   7.650
 4717POPC   C1B 7399  32.411  21.176   8.550
 4717POPC   C2B 7400  32.357  21.221   8.250
 4717POPC   C3B 7401  32.410  21.178   7.950
 4717POPC   C4B 7402  32.399  21.194   7.650
 4718POPC   NC3 7403  13.580  14.419   9.450
 4718POPC   PO4 7404  13.646  14.415   9.150
 4718POPC   GL1 7405  13.620  14.359   8.850
 4718POPC   GL2 7406  13.711  14.338   8.850
 4718POPC   C1A 7407  13.615  14.369   8.550
 4718POPC   D2A 7408  13.606  14.376   8.250
 4718POPC   C3A 7409  13.583  14.373   7.950
 4718POPC   C4A 7410  13.583  14.389   7.650
 4718POPC   C1B 7411  13.814  14.301   8.550
 4718POPC   C2B 7412  13.886  14.246   8.250
 4718POPC   C3B 7413  13.829  14.311   7.950
 4718POPC   C4B 7414  13.860  14.341   7.650
 4719POPC   NC3 7415  36.871  27.545   9.450
 4719POPC   PO4 7416  36.945  27.607   9.150
 4719POPC   GL1 7417  36.899  27.641   8.850
 4719POPC   GL2 7418  36.993  27.529   8.850
 4719POPC   C1A 7419  36.893  27.568   8.550
 4719POPC   D2A 7420  36.904  27.588   8.250
 4719POPC   C3A 7421  36.930  27.586   7.950
 4719POPC   C4A 7422  36.951  27.567   7.650
 4719POPC   C1B 7423  37.119  27.468   8.550
 4719POPC   C2B 7424  37.115  27.528   8.250
 4719POPC   C3B 7425  37.145  27.513   7.950
 4719POPC   C4B 7426  37.109  27.483   7.650
 4720POPC   NC3 7427   2.034   0.488   9.450
 4720POPC   PO4 7428   1.982   0.423   9.150
 4720POPC   GL1 7429   1.959   0.423   8.850
 4720POPC   GL2 7430   1.884   0.418   8.850
 4720POPC   C1A 7431   1.974   0.432   8.550
 4720POPC   D2A 7432   1.985   0.391   8.250
 4720POPC   C3A 7433   2.004   0.439   7.950
 4720POPC   C4A 7434   1.970   0.472   7.650
 4720POPC   C1B 7435   1.788   0.325   8.550
 4720POPC   C2B 7436   1.801   0.338   8.250
 4720POPC   C3B 7437   1.728   0.405   7.950
 4720POPC   C4B 7438   1.765   0.363   7.650
 4721POPC   NC3 7439  40.764  29.884   9.450
 4721POPC   PO4 7440  40.829  29.967   9.150
 4721POPC   GL1 7441  40.804  29.935   8.850
 4721POPC   GL2 7442  40.682  29.873   8.850
 4721POPC   C1A 7443  40.822  29.930   8.550
 4721POPC   D2A 7444  40.816  29.948   8.250
 4721POPC   C3A 7445  40.743  29.887   7.950
 4721POPC   C4A 7446  40.831  29.922   7.650
 4721POPC   C1B 7447  40.532  29.816   8.550
 4721POPC   C2B 7448  40.522  29.759   8.250
 4721POPC   C3B 7449  40.521  29.832   7.950
 4721POPC   C4B 7450  40.551  29.827   7.650
 4722POPC   NC3 7451  29.876  12.110   9.450
 4722POPC   PO4 7452  29.916  12.080   9.150
 4722POPC   GL1 7453  29.878  12.052   8.850
 4722POPC   GL2 7454  29.805  12.070   8.850
 4722POPC   C1A 7455  29.918  12.125   8.550
 4722POPC   D2A 7456  29.875  12.083   8.250
 4722POPC   C3A 7457  29.904  12.064   7.950
 4722POPC   C4A 7458  29.964  12.100   7.650
 4722POPC   C1B 7459  29.629  12.051   8.550
 4722POPC   C2B 7460  29.687  12.064   8.250
 4722POPC   C3B 7461  29.705  12.035   7.950
 4722POPC   C4B 7462  29.649  11.995   7.650
 4723POPC   NC3 7463  41.524  40.011   9.450
 4723POPC   PO4 7464  41.551  40.006   9.150
 4723POPC   GL1 7465  41.585  40.033   8.850
 4723POPC   GL2 7466  41.658  39.964   8.850
 4723POPC   C1A 7467  41.574  39.963   8.550
 4723POPC   D2A 7468  41.570  39.992   8.250
 4723POPC   C3A 7469  41.540  40.052   7.950
 4723POPC   C4A 7470  41.606  40.003   7.650
 4723POPC   C1B 7471  41.708  39.882   8.550
 4723POPC   C2B 7472  41.775  39.812   8.250
 4723POPC   C3B 7473  41.731  39.804   7.950
 4723POPC   C4B 7474  41.705  39.838   7.650
 4724POPC   NC3 7475   4.294   1.177   9.450
 4724POPC   PO4 7476   4.277   1.171   9.150
 4724POPC   GL1 7477   4.274   1.233   8.850
 4724POPC   GL2 7478   4.278   1.167   8.850
 4724POPC   C1A 7479   4.282   1.202   8.550
 4724POPC   D2A 7480   4.341   1.262   8.250
 4724POPC   C3A 7481   4.363   1.262   7.950
 4724POPC   C4A 7482   4.303   1.255   7.650
 4724POPC   C1B 7483   4.166   1.066   8.550
 4724POPC   C2B 7484   4.146   1.080   8.250
 4724POPC   C3B 7485   4.132   1.065   7.950
 4724POPC   C4B 7486   4.146   0.994   7.650
 4725POPC   NC3 7487  43.885  40.829   9.450
 4725POPC   PO4 7488  43.855  40.770   9.150
 4725POPC   GL1 7489  43.874  40.743   8.850
 4725POPC   GL2 7490  43.871  40.712   8.850
 4725POPC   C1A 7491  43.886  40.833   8.550
 4725POPC   D2A 7492  43.894  40.742   8.250
 4725POPC   C3A 7493  43.873  40.820   7.950
 4725POPC   C4A 7494  43.915  40.795   7.650
 4725POPC   C1B 7495  43.838  40.530   8.550
 4725POPC   C2B 7496  43.775  40.551   8.250
 4725POPC   C3B 7497  43.764  40.582   7.950
 4725POPC   C4B 7498  43.763  40.516   7.650
 4726POPC   NC3 7499  26.031  32.236   9.450
 4726POPC   PO4 7500  26.062  32.208   9.150
 4726POPC   GL1 7501  26.046  32.279   8.850
 4726POPC   GL2 7502  26.081  32.342   8.850
 4726POPC   C1A 7503  26.018  32.240   8.550
 4726POPC   D2A 7504  26.029  32.296   8.250
 4726POPC   C3A 7505  26.061  32.256   7.950
 4726POPC   C4A 7506  26.078  32.272   7.650
 4726POPC   C1B 7507  26.173  32.436   8.550
 4726POPC   C2B 7508  26.235  32.423   8.250
 4726POPC   C3B 7509  26.213  32.416   7.950
 4726POPC   C4B 7510  26.239  32.455   7.650
 4727POPC   NC3 7511   1.961  34.612   9.450
 4727POPC   PO4 7512   1.951  34.601   9.150
 4727POPC   GL1 7513   2.015  34.548   8.850
 4727POPC   GL2 7514   1.996  34.452   8.850
 4727POPC   C1A 7515   1.991  34.565   8.550
 4727POPC   D2A 7516   1.951  34.611   8.250
 4727POPC   C3A 7517   2.034  34.575   7.950
 4727POPC   C4A 7518   1.997  34.540   7.650
 4727POPC   C1B 7519   2.051  34.346   8.550
 4727POPC   C2B 7520   2.080  34.370   8.250
 4727POPC   C3B 7521   2.073  34.377   7.950
 4727POPC   C4B 7522   2.046  34.286   7.650
 4728POPC   NC3 7523  43.897   5.910   9.450
 4728POPC   PO4 7524  43.846   5.866   9.150
 4728POPC   GL1 7525  43.885   5.883   8.850
 4728POPC   GL2 7526  43.946   5.928   8.850
 4728POPC   C1A 7527  43.911   5.878   8.550
 4728POPC   D2A 7528  43.930   5.901   8.250
 4728POPC   C3A 7529  43.930   5.826   7.950
 4728POPC   C4A 7530  43.859   5.845   7.650
 4728POPC   C1B 7531  44.087   5.998   8.550
 4728POPC   C2B 7532  44.061   6.002   8.250
 4728POPC   C3B 7533  44.062   6.074   7.950
 4728POPC   C4B 7534  44.036   6.043   7.650
 4729POPC   NC3 7535  33.772   3.570   9.450
 4729POPC   PO4 7536  33.812   3.544   9.150
 4729POPC   GL1 7537  33.792   3.546   8.850
 4729POPC   GL2 7538  33.768   3.601   8.850
 4729POPC   C1A 7539  33.815   3.561   8.550
 4729POPC   D2A 7540  33.841   3.559   8.250
 4729POPC   C3A 7541  33.828   3.519   7.950
 4729POPC   C4A 7542  33.817   3.571   7.650
 4729POPC   C1B 7543  33.647   3.756   8.550
 4729POPC   C2B 7544  33.682   3.730   8.250
 4729POPC   C3B 7545  33.669   3.769   7.950
 4729POPC   C4B 7546  33.597   3.773   7.650
 4730POPC   NC3 7547   6.606  38.473   9.450
 4730POPC   PO4 7548   6.598  38.463   9.150
 4730POPC   GL1 7549   6.610  38.479   8.850
 4730POPC   GL2 7550   6.542  38.517   8.850
 4730POPC   C1A 7551   6.665  38.420   8.550
 4730POPC   D2A 7552   6.635  38.430   8.250
 4730POPC   C3A 7553   6.629  38.465   7.950
 4730POPC   C4A 7554   6.610  38.497   7.650
 4730POPC   C1B 7555   6.535  38.692   8.550
 4730POPC   C2B 7556   6.482  38.658   8.250
 4730POPC   C3B 7557   6.473  38.631   7.950
 4730POPC   C4B 7558   6.516  38.653   7.650
 4731POPC   NC3 7559  17.520   2.021   9.450
 4731POPC   PO4 7560  17.458   1.949   9.150
 4731POPC   GL1 7561  17.534   1.996   8.850
 4731POPC   GL2 7562  17.585   1.887   8.850
 4731POPC   C1A 7563  17.547   1.977   8.550
 4731POPC   D2A 7564  17.473   2.028   8.250
 4731POPC   C3A 7565  17.505   1.959   7.950
 4731POPC   C4A 7566  17.477   2.024   7.650
 4731POPC   C1B 7567  17.743   1.865   8.550
 4731POPC   C2B 7568  17.697   1.880   8.250
 4731POPC   C3B 7569  17.723   1.890   7.950
 4731POPC   C4B 7570  17.697   1.864   7.650
 4732POPC   NC3 7571  32.231  24.474   9.450
 4732POPC   PO4 7572  32.224  24.479   9.150
 4732POPC   GL1 7573  32.268  24.512   8.850
 4732POPC   GL2 7574  32.414  24.424   8.850
 4732POPC   C1A 7575  32.219  24.498   8.550
 4732POPC   D2A 7576  32.252  24.490   8.250
 4732POPC   C3A 7577  32.219  24.447   7.950
 4732POPC   C4A 7578  32.223  24.516   7.650
 4732POPC   C1B 7579  32.487  24.439   8.550
 4732POPC   C2B 7580  32.504  24.408   8.250
 4732POPC   C3B 7581  32.528  24.411   7.950
 4732POPC   C4B 7582  32.473  24.441   7.650
 4733POPC   NC3 7583  39.260  26.069   9.450
 4733POPC   PO4 7584  39.276  26.027   9.150
 4733POPC   GL1 7585  39.193  26.049   8.850
 4733POPC   GL2 7586  39.327  25.991   8.850
 4733POPC   C1A 7587  39.210  26.002   8.550
 4733POPC   D2A 7588  39.281  26.076   8.250
 4733POPC   C3A 7589  39.232  26.076   7.950
 4733POPC   C4A 7590  39.183  26.081   7.650
 4733POPC   C1B 7591  39.422  25.875   8.550
 4733POPC   C2B 7592  39.496  25.942   8.250
 4733POPC   C3B 7593  39.428  25.917   7.950
 4733POPC   C4B 7594  39.495  25.889   7.650
 4734POPC   NC3 7595  37.699   1.196   9.450
 4734POPC   PO4 7596  37.667   1.184   9.150
 4734POPC   GL1 7597  37.678   1.217   8.850
 4734POPC   GL2 7598  37.556   1.302   8.850
 4734POPC   C1A 7599  37.712   1.168   8.550
 4734POPC   D2A 7600  37.692   1.167   8.250
 4734POPC   C3A 7601  37.729   1.250   7.950
 4734POPC   C4A 7602  37.668   1.175   7.650
 4734POPC   C1B 7603  37.469   1.307   8.550
 4734POPC   C2B 7604  37.407   1.277   8.250
 4734POPC   C3B 7605  37.414   1.315   7.950
 4734POPC   C4B 7606  37.442   1.309   7.650
 4735POPC   NC3 7607   8.244   1.230   9.450
 4735POPC   PO4 7608   8.214   1.199   9.150
 4735POPC   GL1 7609   8.150   1.166   8.850
 4735POPC   GL2 7610   8.324   1.328   8.850
 4735POPC   C1A 7611   8.196   1.180   8.550
 4735POPC   D2A 7612   8.181   1.253   8.250
 4735POPC   C3A 7613   8.228   1.214   7.950
 4735POPC   C4A 7614   8.208   1.167   7.650
 4735POPC   C1B 7615   8.367   1.410   8.550
 4735POPC   C2B 7616   8.347   1.359   8.250
 4735POPC   C3B 7617   8.366   1.445   7.950
 4735POPC   C4B 7618   8.363   1.444   7.650
 4736POPC   NC3 7619  15.964   1.175   9.450
 4736POPC   PO4 7620  15.969   1.234   9.150
 4736POPC   GL1 7621  15.921   1.168   8.850
 4736POPC   GL2 7622  15.945   1.133   8.850
 4736POPC   C1A 7623  15.980   1.176   8.550
 4736POPC   D2A 7624  15.989   1.167   8.250
 4736POPC   C3A 7625  15.916   1.237   7.950
 4736POPC   C4A 7626  16.002   1.230   7.650
 4736POPC   C1B 7627  15.861   0.982   8.550
 4736POPC   C2B 7628  15.833   0.985   8.250
 4736POPC   C3B 7629  15.862   0.994   7.950
 4736POPC   C4B 7630  15.848   0.978   7.650
 4737POPC   NC3 7631   5.105  21.427   9.450
 4737POPC   PO4 7632   5.115  21.380   9.150
 4737POPC   GL1 7633   5.129  21.398   8.850
 4737POPC   GL2 7634   4.987  21.497   8.850
 4737POPC   C1A 7635   5.117  21.339   8.550
 4737POPC   D2A 7636   5.061  21.374   8.250
 4737POPC   C3A 7637   5.050  21.423   7.950
 4737POPC   C4A 7638   5.065  21.379   7.650
 4737POPC   C1B 7639   4.927  21.503   8.550
 4737POPC   C2B 7640   4.851  21.574   8.250
 4737POPC   C3B 7641   4.860  21.535   7.950
 4737POPC   C4B 7642   4.917  21.573   7.650
 4738POPC   NC3 7643  22.186  18.324   9.450
 4738POPC   PO4 7644  22.157  18.240   9.150
 4738POPC   GL1 7645  22.180  18.297   8.850
 4738POPC   GL2 7646  22.107  18.382   8.850
 4738POPC   C1A 7647  22.181  18.261   8.550
 4738POPC   D2A 7648  22.169  18.295   8.250
 4738POPC   C3A 7649  22.208  18.252   7.950
 4738POPC   C4A 7650  22.186  18.270   7.650
 4738POPC   C1B 7651  22.123  18.485   8.550
 4738POPC   C2B 7652  22.176  18.532   8.250
 4738POPC   C3B 7653  22.181  18.565   7.950
 4738POPC   C4B 7654  22.174  18.506   7.650
 4739POPC   NC3 7655  32.226  40.010   9.450
 4739POPC   PO4 7656  32.282  39.976   9.150
 4739POPC   GL1 7657  32.272  40.016   8.850
 4739POPC   GL2 7658  32.218  39.884   8.850
 4739POPC   C1A 7659  32.205  40.003   8.550
 4739POPC   D2A 7660  32.214  40.040   8.250
 4739POPC   C3A 7661  32.270  40.031   7.950
 4739POPC   C4A 7662  32.227  40.046   7.650
 4739POPC   C1B 7663  32.183  39.799   8.550
 4739POPC   C2B 7664  32.179  39.742   8.250
 4739POPC   C3B 7665  32.189  39.818   7.950
 4739POPC   C4B 7666  32.198  39.754   7.650
 4740POPC   NC3 7667  16.705  27.559   9.450
 4740POPC   PO4 7668  16.732  27.561   9.150
 4740POPC   GL1 7669  16.693  27.571   8.850
 4740POPC   GL2 7670  16.764  27.751   8.850
 4740POPC   C1A 7671  16.746  27.574   8.550
 4740POPC   D2A 7672  16.737  27.576   8.250
 4740POPC   C3A 7673  16.758  27.601   7.950
 4740POPC   C4A 7674  16.765  27.554   7.650
 4740POPC   C1B 7675  16.785  27.875   8.550
 4740POPC   C2B 7676  16.703  27.870   8.250
 4740POPC   C3B 7677  16.772  27.817   7.950
 4740POPC   C4B 7678  16.722  27.834   7.650
 4741POPC   NC3 7679  37.686   4.285   9.450
 4741POPC   PO4 7680  37.722   4.306   9.150
 4741POPC   GL1 7681  37.727   4.284   8.850
 4741POPC   GL2 7682  37.649   4.393   8.850
 4741POPC   C1A 7683  37.686   4.288   8.550
 4741POPC   D2A 7684  37.670   4.289   8.250
 4741POPC   C3A 7685  37.713   4.328   7.950
 4741POPC   C4A 7686  37.655   4.364   7.650
 4741POPC   C1B 7687  37.590   4.543   8.550
 4741POPC   C2B 7688  37.563   4.493   8.250
 4741POPC   C3B 7689  37.608   4.586   7.950
 4741POPC   C4B 7690  37.587   4.532   7.650
 4742POPC   NC3 7691  42.342   3.547   9.450
 4742POPC   PO4 7692  42.350   3.587   9.150
 4742POPC   GL1 7693  42.312   3.518   8.850
 4742POPC   GL2 7694  42.351   3.684   8.850
 4742POPC   C1A 7695  42.305   3.556   8.550
 4742POPC   D2A 7696  42.384   3.547   8.250
 4742POPC   C3A 7697  42.358   3.521   7.950
 4742POPC   C4A 7698  42.370   3.531   7.650
 4742POPC   C1B 7699  42.418   3.797   8.550
 4742POPC   C2B 7700  42.470   3.727   8.250
 4742POPC   C3B 7701  42.472   3.749   7.950
 4742POPC   C4B 7702  42.438   3.747   7.650
 4743POPC   NC3 7703  24.485  25.311   9.450
 4743POPC   PO4 7704  24.526  25.266   9.150
 4743POPC   GL1 7705  24.506  25.226   8.850
 4743POPC   GL2 7706  24.514  25.172   8.850
 4743POPC   C1A 7707  24.474  25.297   8.550
 4743POPC   D2A 7708  24.503  25.259   8.250
 4743POPC   C3A 7709  24.489  25.225   7.950
 4743POPC   C4A 7710  24.493  25.314   7.650
 4743POPC   C1B 7711  24.498  24.971   8.550
 4743POPC   C2B 7712  24.489  25.051   8.250
 4743POPC   C3B 7713  24.536  25.021   7.950
 4743POPC   C4B 7714  24.550  25.042   7.650
 4744POPC   NC3 7715  11.281  33.000   9.450
 4744POPC   PO4 7716  11.330  32.984   9.150
 4744POPC   GL1 7717  11.252  33.036   8.850
 4744POPC   GL2 7718  11.153  33.085   8.850
 4744POPC   C1A 7719  11.301  33.047   8.550
 4744POPC   D2A 7720  11.313  33.072   8.250
 4744POPC   C3A 7721  11.318  32.999   7.950
 4744POPC   C4A 7722  11.271  33.016   7.650
 4744POPC   C1B 7723  11.106  33.128   8.550
 4744POPC   C2B 7724  11.011  33.094   8.250
 4744POPC   C3B 7725  11.040  33.062   7.950
 4744POPC   C4B 7726  11.046  33.100   7.650
 4745POPC   NC3 7727  37.665  26.796   9.450
 4745POPC   PO4 7728  37.663  26.776   9.150
 4745POPC   GL1 7729  37.712  26.810   8.850
 4745POPC   GL2 7730  37.805  26.725   8.850
 4745POPC   C1A 7731  37.656  26.808   8.550
 4745POPC   D2A 7732  37.661  26.830   8.250
 4745POPC   C3A 7733  37.681  26.812   7.950
 4745POPC   C4A 7734  37.639  26.781   7.650
 4745POPC   C1B 7735  37.883  26.677   8.550
 4745POPC   C2B 7736  37.868  26.715   8.250
 4745POPC   C3B 7737  37.940  26.657   7.950
 4745POPC   C4B 7738  37.925  26.673   7.650
 4746POPC   NC3 7739  42.294  20.614   9.450
 4746POPC   PO4 7740  42.298  20.643   9.150
 4746POPC   GL1 7741  42.287  20.590   8.850
 4746POPC   GL2 7742  42.494  20.557   8.850
 4746POPC   C1A 7743  42.351  20.654   8.550
 4746POPC   D2A 7744  42.328  20.624   8.250
 4746POPC   C3A 7745  42.332  20.611   7.950
 4746POPC   C4A 7746  42.328  20.599   7.650
 4746POPC   C1B 7747  42.599  20.566   8.550
 4746POPC   C2B 7748  42.602  20.560   8.250
 4746POPC   C3B 7749  42.585  20.616   7.950
 4746POPC   C4B 7750  42.550  20.618   7.650
 4747POPC   NC3 7751  20.646  20.572   9.450
 4747POPC   PO4 7752  20.617  20.583   9.150
 4747POPC   GL1 7753  20.565  20.586   8.850
 4747POPC   GL2 7754  20.679  20.739   8.850
 4747POPC   C1A 7755  20.562  20.656   8.550
 4747POPC   D2A 7756  20.633  20.636   8.250
 4747POPC   C3A 7757  20.626  20.619   7.950
 4747POPC   C4A 7758  20.623  20.658   7.650
 4747POPC   C1B 7759  20.818  20.813   8.550
 4747POPC   C2B 7760  20.746  20.780   8.250
 4747POPC   C3B 7761  20.783  20.802   7.950
 4747POPC   C4B 7762  20.825  20.824   7.650
 4748POPC   NC3 7763   5.909  35.372   9.450
 4748POPC   PO4 7764   5.851  35.307   9.150
 4748POPC   GL1 7765   5.883  35.342   8.850
 4748POPC   GL2 7766   5.809  35.424   8.850
 4748POPC   C1A 7767   5.868  35.370   8.550
 4748POPC   D2A 7768   5.858  35.328   8.250
 4748POPC   C3A 7769   5.823  35.335   7.950
 4748POPC   C4A 7770   5.854  35.334   7.650
 4748POPC   C1B 7771   5.708  35.540   8.550
 4748POPC   C2B 7772   5.756  35.601   8.250
 4748POPC   C3B 7773   5.765  35.590   7.950
 4748POPC   C4B 7774   5.697  35.582   7.650
 4749POPC   NC3 7775   3.513  10.529   9.450
 4749POPC   PO4 7776   3.553  10.532   9.150
 4749POPC   GL1 7777   3.515  10.565   8.850
 4749POPC   GL2 7778   3.633  10.628   8.850
 4749POPC   C1A 7779   3.515  10.531   8.550
 4749POPC   D2A 7780   3.524  10.475   8.250
 4749POPC   C3A 7781   3.522  10.481   7.950
 4749POPC   C4A 7782   3.503  10.538   7.650
 4749POPC   C1B 7783   3.759  10.687   8.550
 4749POPC   C2B 7784   3.743  10.596   8.250
 4749POPC   C3B 7785   3.793  10.655   7.950
 4749POPC   C4B 7786   3.768  10.693   7.650
 4750POPC   NC3 7787  10.527  12.089   9.450
 4750POPC   PO4 7788  10.527  12.099   9.150
 4750POPC   GL1 7789  10.481  12.082   8.850
 4750POPC   GL2 7790  10.423  11.985   8.850
 4750POPC   C1A 7791  10.532  12.119   8.550
 4750POPC   D2A 7792  10.515  12.099   8.250
 4750POPC   C3A 7793  10.569  12.074   7.950
 4750POPC   C4A 7794  10.510  12.126   7.650
 4750POPC   C1B 7795  10.336  11.929   8.550
 4750POPC   C2B 7796  10.308  11.981   8.250
 4750POPC   C3B 7797  10.256  11.950   7.950
 4750POPC   C4B 7798  10.261  12.000   7.650
 4751POPC   NC3 7799  36.901  26.017   9.450
 4751POPC   PO4 7800  36.854  26.010   9.150
 4751POPC   GL1 7801  36.885  26.049   8.850
 4751POPC   GL2 7802  37.043  26.080   8.850
 4751POPC   C1A 7803  36.938  26.008   8.550
 4751POPC   D2A 7804  36.862  26.078   8.250
 4751POPC   C3A 7805  36.918  26.037   7.950
 4751POPC   C4A 7806  36.947  26.012   7.650
 4751POPC   C1B 7807  37.130  26.058   8.550
 4751POPC   C2B 7808  37.163  26.052   8.250
 4751POPC   C3B 7809  37.158  26.026   7.950
 4751POPC   C4B 7810  37.176  25.998   7.650
 4752POPC   NC3 7811  30.704  41.563   9.450
 4752POPC   PO4 7812  30.724  41.572   9.150
 4752POPC   GL1 7813  30.650  41.548   8.850
 4752POPC   GL2 7814  30.680  41.630   8.850
 4752POPC   C1A 7815  30.721  41.572   8.550
 4752POPC   D2A 7816  30.724  41.591   8.250
 4752POPC   C3A 7817  30.705  41.582   7.950
 4752POPC   C4A 7818  30.728  41.575   7.650
 4752POPC   C1B 7819  30.572  41.788   8.550
 4752POPC   C2B 7820  30.560  41.756   8.250
 4752POPC   C3B 7821  30.614  41.770   7.950
 4752POPC   C4B 7822  30.532  41.785   7.650
 4753POPC   NC3 7823  41.509   1.983   9.450
 4753POPC   PO4 7824  41.512   2.012   9.150
 4753POPC   GL1 7825  41.563   1.973   8.850
 4753POPC   GL2 7826  41.694   1.941   8.850
 4753POPC   C1A 7827  41.603   2.039   8.550
 4753POPC   D2A 7828  41.526   1.940   8.250
 4753POPC   C3A 7829  41.565   1.964   7.950
 4753POPC   C4A 7830  41.571   1.970   7.650
 4753POPC   C1B 7831  41.761   1.768   8.550
 4753POPC   C2B 7832  41.735   1.768   8.250
 4753POPC   C3B 7833  41.710   1.814   7.950
 4753POPC   C4B 7834  41.778   1.780   7.650
 4754POPC   NC3 7835  33.042   5.907   9.450
 4754POPC   PO4 7836  33.068   5.843   9.150
 4754POPC   GL1 7837  33.052   5.906   8.850
 4754POPC   GL2 7838  32.909   5.821   8.850
 4754POPC   C1A 7839  33.022   5.912   8.550
 4754POPC   D2A 7840  33.016   5.832   8.250
 4754POPC   C3A 7841  33.028   5.868   7.950
 4754POPC   C4A 7842  33.011   5.872   7.650
 4754POPC   C1B 7843  32.806   5.759   8.550
 4754POPC   C2B 7844  32.774   5.744   8.250
 4754POPC   C3B 7845  32.824   5.739   7.950
 4754POPC   C4B 7846  32.843   5.778   7.650
 4755POPC   NC3 7847  12.081  37.652   9.450
 4755POPC   PO4 7848  12.074  37.689   9.150
 4755POPC   GL1 7849  12.039  37.692   8.850
 4755POPC   GL2 7850  11.990  37.677   8.850
 4755POPC   C1A 7851  12.067  37.645   8.550
 4755POPC   D2A 7852  12.068  37.724   8.250
 4755POPC   C3A 7853  12.038  37.644   7.950
 4755POPC   C4A 7854  12.052  37.639   7.650
 4755POPC   C1B 7855  11.808  37.594   8.550
 4755POPC   C2B 7856  11.842  37.558   8.250
 4755POPC   C3B 7857  11.849  37.646   7.950
 4755POPC   C4B 7858  11.800  37.589   7.650
 4756POPC   NC3 7859  14.366  34.618   9.450
 4756POPC   PO4 7860  14.452  34.546   9.150
 4756POPC   GL1 7861  14.375  34.545   8.850
 4756POPC   GL2 7862  14.481  34.511   8.850
 4756POPC   C1A 7863  14.400  34.609   8.550
 4756POPC   D2A 7864  14.392  34.569   8.250
 4756POPC   C3A 7865  14.410  34.622   7.950
 4756POPC   C4A 7866  14.372  34.596   7.650
 4756POPC   C1B 7867  14.595  34.375   8.550
 4756POPC   C2B 7868  14.570  34.391   8.250
 4756POPC   C3B 7869  14.560  34.368   7.950
 4756POPC   C4B 7870  14.521  34.398   7.650
 4757POPC   NC3 7871  17.490   6.666   9.450
 4757POPC   PO4 7872  17.508   6.626   9.150
 4757POPC   GL1 7873  17.516   6.633   8.850
 4757POPC   GL2 7874  17.644   6.714   8.850
 4757POPC   C1A 7875  17.459   6.633   8.550
 4757POPC   D2A 7876  17.512   6.692   8.250
 4757POPC   C3A 7877  17.522   6.654   7.950
 4757POPC   C4A 7878  17.531   6.633   7.650
 4757POPC   C1B 7879  17.722   6.746   8.550
 4757POPC   C2B 7880  17.738   6.742   8.250
 4757POPC   C3B 7881  17.730   6.751   7.950
 4757POPC   C4B 7882  17.765   6.672   7.650
 4758POPC   NC3 7883  21.364   4.341   9.450
 4758POPC   PO4 7884  21.417   4.347   9.150
 4758POPC   GL1 7885  21.343   4.296   8.850
 4758POPC   GL2 7886  21.222   4.348   8.850
 4758POPC   C1A 7887  21.435   4.321   8.550
 4758POPC   D2A 7888  21.420   4.297   8.250
 4758POPC   C3A 7889  21.372   4.287   7.950
 4758POPC   C4A 7890  21.402   4.301   7.650
 4758POPC   C1B 7891  21.111   4.374   8.550
 4758POPC   C2B 7892  21.128   4.374   8.250
 4758POPC   C3B 7893  21.140   4.368   7.950
 4758POPC   C4B 7894  21.131   4.347   7.650
 4759POPC   NC3 7895  28.356  18.317   9.450
 4759POPC   PO4 7896  28.417  18.333   9.150
 4759POPC   GL1 7897  28.364  18.293   8.850
 4759POPC   GL2 7898  28.474  18.373   8.850
 4759POPC   C1A 7899  28.366  18.333   8.550
 4759POPC   D2A 7900  28.362  18.305   8.250
 4759POPC   C3A 7901  28.335  18.314   7.950
 4759POPC   C4A 7902  28.322  18.242   7.650
 4759POPC   C1B 7903  28.572  18.415   8.550
 4759POPC   C2B 7904  28.583  18.385   8.250
 4759POPC   C3B 7905  28.616  18.348   7.950
 4759POPC   C4B 7906  28.570  18.365   7.650
 4760POPC   NC3 7907  33.812  40.056   9.450
 4760POPC   PO4 7908  33.775  40.010   9.150
 4760POPC   GL1 7909  33.795  40.018   8.850
 4760POPC   GL2 7910  33.878  39.910   8.850
 4760POPC   C1A 7911  33.815  39.972   8.550
 4760POPC   D2A 7912  33.827  39.958   8.250
 4760POPC   C3A 7913  33.813  40.052   7.950
 4760POPC   C4A 7914  33.845  40.027   7.650
 4760POPC   C1B 7915  34.058  39.932   8.550
 4760POPC   C2B 7916  33.998  39.904   8.250
 4760POPC   C3B 7917  33.975  39.872   7.950
 4760POPC   C4B 7918  33.988  39.892   7.650
 4761POPC   NC3 7919  23.762  18.254   9.450
 4761POPC   PO4 7920  23.730  18.255   9.150
 4761POPC   GL1 7921  23.752  18.313   8.850
 4761POPC   GL2 7922  23.586  18.280   8.850
 4761POPC   C1A 7923  23.670  18.311   8.550
 4761POPC   D2A 7924  23.729  18.238   8.250
 4761POPC   C3A 7925  23.727  18.325   7.950
 4761POPC   C4A 7926  23.717  18.296   7.650
 4761POPC   C1B 7927  23.424  18.265   8.550
 4761POPC   C2B 7928  23.442  18.226   8.250
 4761POPC   C3B 7929  23.462  18.211   7.950
 4761POPC   C4B 7930  23.453  18.226   7.650
 4762POPC   NC3 7931  15.964  11.327   9.450
 4762POPC   PO4 7932  15.958  11.268   9.150
 4762POPC   GL1 7933  15.949  11.273   8.850
 4762POPC   GL2 7934  15.801  11.358   8.850
 4762POPC   C1A 7935  15.999  11.287   8.550
 4762POPC   D2A 7936  16.000  11.292   8.250
 4762POPC   C3A 7937  15.966  11.348   7.950
 4762POPC   C4A 7938  15.988  11.318   7.650
 4762POPC   C1B 7939  15.677  11.336   8.550
 4762POPC   C2B 7940  15.718  11.371   8.250
 4762POPC   C3B 7941  15.706  11.327   7.950
 4762POPC   C4B 7942  15.693  11.331   7.650
 4763POPC   NC3 7943  32.264   1.258   9.450
 4763POPC   PO4 7944  32.285   1.250   9.150
 4763POPC   GL1 7945  32.204   1.227   8.850
 4763POPC   GL2 7946  32.319   1.363   8.850
 4763POPC   C1A 7947  32.239   1.231   8.550
 4763POPC   D2A 7948  32.276   1.262   8.250
 4763POPC   C3A 7949  32.260   1.165   7.950
 4763POPC   C4A 7950  32.203   1.242   7.650
 4763POPC   C1B 7951  32.335   1.459   8.550
 4763POPC   C2B 7952  32.316   1.441   8.250
 4763POPC   C3B 7953  32.305   1.458   7.950
 4763POPC   C4B 7954  32.284   1.460   7.650
 4764POPC   NC3 7955  12.104  12.839   9.450
 4764POPC   PO4 7956  12.073  12.877   9.150
 4764POPC   GL1 7957  12.028  12.814   8.850
 4764POPC   GL2 7958  12.154  12.785   8.850
 4764POPC   C1A 7959  12.119  12.807   8.550
 4764POPC   D2A 7960  12.104  12.847   8.250
 4764POPC   C3A 7961  12.073  12.854   7.950
 4764POPC   C4A 7962  12.061  12.825   7.650
 4764POPC   C1B 7963  12.330  12.748   8.550
 4764POPC   C2B 7964  12.242  12.709   8.250
 4764POPC   C3B 7965  12.245  12.707   7.950
 4764POPC   C4B 7966  12.256  12.746   7.650
 4765POPC   NC3 7967  38.446  44.679   9.450
 4765POPC   PO4 7968  38.431  44.616   9.150
 4765POPC   GL1 7969  38.406  44.692   8.850
 4765POPC   GL2 7970  38.386  44.716   8.850
 4765POPC   C1A 7971  38.412  44.709   8.550
 4765POPC   D2A 7972  38.445  44.638   8.250
 4765POPC   C3A 7973  38.475  44.673   7.950
 4765POPC   C4A 7974  38.492  44.664   7.650
 4765POPC   C1B 7975  38.237  44.881   8.550
 4765POPC   C2B 7976  38.233  44.808   8.250
 4765POPC   C3B 7977  38.279  44.864   7.950
 4765POPC   C4B 7978  38.244  44.824   7.650
 4766POPC   NC3 7979  19.084  42.354   9.450
 4766POPC   PO4 7980  19.083  42.361   9.150
 4766POPC   GL1 7981  19.037  42.376   8.850
 4766POPC   GL2 7982  19.231  42.314   8.850
 4766POPC   C1A 7983  19.020  42.340   8.550
 4766POPC   D2A 7984  19.102  42.324   8.250
 4766POPC   C3A 7985  19.023  42.358   7.950
 4766POPC   C4A 7986  19.097  42.377   7.650
 4766POPC   C1B 7987  19.338  42.315   8.550
 4766POPC   C2B 7988  19.260  42.313   8.250
 4766POPC   C3B 7989  19.300  42.302   7.950
 4766POPC   C4B 7990  19.331  42.302   7.650
 4767POPC   NC3 7991  24.521  29.117   9.450
 4767POPC   PO4 7992  24.480  29.124   9.150
 4767POPC   GL1 7993  24.453  29.097   8.850
 4767POPC   GL2 7994  24.587  29.275   8.850
 4767POPC   C1A 7995  24.497  29.162   8.550
 4767POPC   D2A 7996  24.467  29.141   8.250
 4767POPC   C3A 7997  24.498  29.122   7.950
 4767POPC   C4A 7998  24.452  29.095   7.650
 4767POPC   C1B 7999  24.681  29.371   8.550
 4767POPC   C2B 8000  24.699  29.371   8.250
 4767POPC   C3B 8001  24.648  29.323   7.950
 4767POPC   C4B 8002  24.662  29.359   7.650
 4768POPC   NC3 8003  31.467  12.839   9.450
 4768POPC   PO4 8004  31.451  12.850   9.150
 4768POPC   GL1 8005  31.493  12.861   8.850
 4768POPC   GL2 8006  31.632  12.880   8.850
 4768POPC   C1A 8007  31.492  12.814   8.550
 4768POPC   D2A 8008  31.518  12.807   8.250
 4768POPC   C3A 8009  31.490  12.811   7.950
 4768POPC   C4A 8010  31.481  12.861   7.650
 4768POPC   C1B 8011  31.664  12.983   8.550
 4768POPC   C2B 8012  31.737  12.949   8.250
 4768POPC   C3B 8013  31.654  12.969   7.950
 4768POPC   C4B 8014  31.707  12.983   7.650
 4769POPC   NC3 8015  19.083   5.846   9.450
 4769POPC   PO4 8016  19.047   5.833   9.150
 4769POPC   GL1 8017  19.046   5.907   8.850
 4769POPC   GL2 8018  18.950   5.900   8.850
 4769POPC   C1A 8019  19.057   5.910   8.550
 4769POPC   D2A 8020  19.091   5.834   8.250
 4769POPC   C3A 8021  19.056   5.871   7.950
 4769POPC   C4A 8022  19.086   5.899   7.650
 4769POPC   C1B 8023  18.805   5.890   8.550
 4769POPC   C2B 8024  18.806   5.930   8.250
 4769POPC   C3B 8025  18.854   5.939   7.950
 4769POPC   C4B 8026  18.837   5.884   7.650
 4770POPC   NC3 8027  37.726   3.507   9.450
 4770POPC   PO4 8028  37.691   3.493   9.150
 4770POPC   GL1 8029  37.654   3.508   8.850
 4770POPC   GL2 8030  37.777   3.625   8.850
 4770POPC   C1A 8031  37.632   3.550   8.550
 4770POPC   D2A 8032  37.722   3.569   8.250
 4770POPC   C3A 8033  37.669   3.556   7.950
 4770POPC   C4A 8034  37.687   3.502   7.650
 4770POPC   C1B 8035  37.865   3.670   8.550
 4770POPC   C2B 8036  37.918   3.596   8.250
 4770POPC   C3B 8037  37.891   3.682   7.950
 4770POPC   C4B 8038  37.944   3.622   7.650
 4771POPC   NC3 8039   8.175  29.877   9.450
 4771POPC   PO4 8040   8.151  29.883   9.150
 4771POPC   GL1 8041   8.173  29.934   8.850
 4771POPC   GL2 8042   8.270  29.855   8.850
 4771POPC   C1A 8043   8.161  29.892   8.550
 4771POPC   D2A 8044   8.243  29.871   8.250
 4771POPC   C3A 8045   8.236  29.905   7.950
 4771POPC   C4A 8046   8.209  29.920   7.650
 4771POPC   C1B 8047   8.307  29.730   8.550
 4771POPC   C2B 8048   8.324  29.687   8.250
 4771POPC   C3B 8049   8.340  29.644   7.950
 4771POPC   C4B 8050   8.295  29.724   7.650
 4772POPC   NC3 8051   1.211   7.451   9.450
 4772POPC   PO4 8052   1.214   7.447   9.150
 4772POPC   GL1 8053   1.216   7.442   8.850
 4772POPC   GL2 8054   1.162   7.329   8.850
 4772POPC   C1A 8055   1.197   7.426   8.550
 4772POPC   D2A 8056   1.259   7.386   8.250
 4772POPC   C3A 8057   1.169   7.372   7.950
 4772POPC   C4A 8058   1.176   7.377   7.650
 4772POPC   C1B 8059   1.167   7.165   8.550
 4772POPC   C2B 8060   1.248   7.188   8.250
 4772POPC   C3B 8061   1.212   7.140   7.950
 4772POPC   C4B 8062   1.155   7.205   7.650
 4773POPC   NC3 8063  28.393  31.493   9.450
 4773POPC   PO4 8064  28.349  31.466   9.150
 4773POPC   GL1 8065  28.404  31.483   8.850
 4773POPC   GL2 8066  28.269  31.562   8.850
 4773POPC   C1A 8067  28.391  31.436   8.550
 4773POPC   D2A 8068  28.366  31.446   8.250
 4773POPC   C3A 8069  28.393  31.473   7.950
 4773POPC   C4A 8070  28.335  31.488   7.650
 4773POPC   C1B 8071  28.095  31.582   8.550
 4773POPC   C2B 8072  28.175  31.592   8.250
 4773POPC   C3B 8073  28.182  31.554   7.950
 4773POPC   C4B 8074  28.094  31.535   7.650
 4774POPC   NC3 8075  31.520  33.766   9.450
 4774POPC   PO4 8076  31.489  33.793   9.150
 4774POPC   GL1 8077  31.441  33.779   8.850
 4774POPC   GL2 8078  31.545  33.913   8.850
 4774POPC   C1A 8079  31.455  33.762   8.550
 4774POPC   D2A 8080  31.459  33.804   8.250
 4774POPC   C3A 8081  31.484  33.842   7.950
 4774POPC   C4A 8082  31.474  33.838   7.650
 4774POPC   C1B 8083  31.671  34.019   8.550
 4774POPC   C2B 8084  31.598  33.946   8.250
 4774POPC   C3B 8085  31.599  34.016   7.950
 4774POPC   C4B 8086  31.670  33.967   7.650
 4775POPC   NC3 8087  29.154   5.838   9.450
 4775POPC   PO4 8088  29.119   5.897   9.150
 4775POPC   GL1 8089  29.151   5.918   8.850
 4775POPC   GL2 8090  29.118   5.707   8.850
 4775POPC   C1A 8091  29.112   5.848   8.550
 4775POPC   D2A 8092  29.188   5.883   8.250
 4775POPC   C3A 8093  29.152   5.861   7.950
 4775POPC   C4A 8094  29.106   5.824   7.650
 4775POPC   C1B 8095  29.055   5.604   8.550
 4775POPC   C2B 8096  29.045   5.645   8.250
 4775POPC   C3B 8097  29.021   5.651   7.950
 4775POPC   C4B 8098  29.027   5.630   7.650
 4776POPC   NC3 8099   1.970  21.375   9.450
 4776POPC   PO4 8100   2.033  21.396   9.150
 4776POPC   GL1 8101   1.991  21.421   8.850
 4776POPC   GL2 8102   2.008  21.477   8.850
 4776POPC   C1A 8103   1.942  21.376   8.550
 4776POPC   D2A 8104   1.971  21.414   8.250
 4776POPC   C3A 8105   1.940  21.402   7.950
 4776POPC   C4A 8106   2.008  21.395   7.650
 4776POPC   C1B 8107   2.046  21.640   8.550
 4776POPC   C2B 8108   2.079  21.634   8.250
 4776POPC   C3B 8109   2.034  21.594   7.950
 4776POPC   C4B 8110   2.125  21.660   7.650
 4777POPC   NC3 8111  29.150  25.220   9.450
 4777POPC   PO4 8112  29.109  25.239   9.150
 4777POPC   GL1 8113  29.156  25.286   8.850
 4777POPC   GL2 8114  29.062  25.392   8.850
 4777POPC   C1A 8115  29.130  25.297   8.550
 4777POPC   D2A 8116  29.144  25.293   8.250
 4777POPC   C3A 8117  29.134  25.262   7.950
 4777POPC   C4A 8118  29.121  25.221   7.650
 4777POPC   C1B 8119  28.946  25.416   8.550
 4777POPC   C2B 8120  28.941  25.488   8.250
 4777POPC   C3B 8121  28.986  25.474   7.950
 4777POPC   C4B 8122  29.012  25.470   7.650
 4778POPC   NC3 8123  15.139  44.684   9.450
 4778POPC   PO4 8124  15.162  44.698   9.150
 4778POPC   GL1 8125  15.194  44.658   8.850
 4778POPC   GL2 8126  15.163  44.586   8.850
 4778POPC   C1A 8127  15.186  44.650   8.550
 4778POPC   D2A 8128  15.154  44.639   8.250
 4778POPC   C3A 8129  15.162  44.677   7.950
 4778POPC   C4A 8130  15.198  44.692   7.650
 4778POPC   C1B 8131  15.031  44.483   8.550
 4778POPC   C2B 8132  15.085  44.486   8.250
 4778POPC   C3B 8133  15.077  44.480   7.950
 4778POPC   C4B 8134  15.028  44.481   7.650
 4779POPC   NC3 8135  30.673  38.482   9.450
 4779POPC   PO4 8136  30.690  38.468   9.150
 4779POPC   GL1 8137  30.711  38.501   8.850
 4779POPC   GL2 8138  30.764  38.471   8.850
 4779POPC   C1A 8139  30.679  38.447   8.550
 4779POPC   D2A 8140  30.696  38.480   8.250
 4779POPC   C3A 8141  30.670  38.455   7.950
 4779POPC   C4A 8142  30.706  38.499   7.650
 4779POPC   C1B 8143  30.913  38.509   8.550
 4779POPC   C2B 8144  30.901  38.538   8.250
 4779POPC   C3B 8145  30.973  38.549   7.950
 4779POPC   C4B 8146  30.949  38.534   7.650
 4780POPC   NC3 8147   2.768  23.697   9.450
 4780POPC   PO4 8148   2.765  23.734   9.150
 4780POPC   GL1 8149   2.736  23.706   8.850
 4780POPC   GL2 8150   2.817  23.646   8.850
 4780POPC   C1A 8151   2.801  23.690   8.550
 4780POPC   D2A 8152   2.781  23.693   8.250
 4780POPC   C3A 8153   2.793  23.735   7.950
 4780POPC   C4A 8154   2.812  23.699   7.650
 4780POPC   C1B 8155   2.968  23.567   8.550
 4780POPC   C2B 8156   2.881  23.519   8.250
 4780POPC   C3B 8157   2.935  23.513   7.950
 4780POPC   C4B 8158   2.950  23.483   7.650
 4781POPC   NC3 8159  29.168  34.595   9.450
 4781POPC   PO4 8160  29.165  34.575   9.150
 4781POPC   GL1 8161  29.190  34.527   8.850
 4781POPC   GL2 8162  29.261  34.526   8.850
 4781POPC   C1A 8163  29.096  34.545   8.550
 4781POPC   D2A 8164  29.185  34.607   8.250
 4781POPC   C3A 8165  29.154  34.609   7.950
 4781POPC   C4A 8166  29.113  34.605   7.650
 4781POPC   C1B 8167  29.402  34.568   8.550
 4781POPC   C2B 8168  29.424  34.497   8.250
 4781POPC   C3B 8169  29.428  34.536   7.950
 4781POPC   C4B 8170  29.397  34.496   7.650
 4782POPC   NC3 8171   1.206   4.352   9.450
 4782POPC   PO4 8172   1.236   4.347   9.150
 4782POPC   GL1 8173   1.234   4.328   8.850
 4782POPC   GL2 8174   1.188   4.455   8.850
 4782POPC   C1A 8175   1.198   4.305   8.550
 4782POPC   D2A 8176   1.171   4.310   8.250
 4782POPC   C3A 8177   1.172   4.335   7.950
 4782POPC   C4A 8178   1.241   4.355   7.650
 4782POPC   C1B 8179   1.109   4.576   8.550
 4782POPC   C2B 8180   1.172   4.600   8.250
 4782POPC   C3B 8181   1.178   4.588   7.950
 4782POPC   C4B 8182   1.156   4.584   7.650
 4783POPC   NC3 8183  43.861  29.097   9.450
 4783POPC   PO4 8184  43.844  29.178   9.150
 4783POPC   GL1 8185  43.847  29.186   8.850
 4783POPC   GL2 8186  43.765  29.253   8.850
 4783POPC   C1A 8187  43.915  29.134   8.550
 4783POPC   D2A 8188  43.933  29.176   8.250
 4783POPC   C3A 8189  43.837  29.098   7.950
 4783POPC   C4A 8190  43.922  29.147   7.650
 4783POPC   C1B 8191  43.699  29.354   8.550
 4783POPC   C2B 8192  43.735  29.352   8.250
 4783POPC   C3B 8193  43.715  29.353   7.950
 4783POPC   C4B 8194  43.755  29.331   7.650
 4784POPC   NC3 8195  36.855   6.617   9.450
 4784POPC   PO4 8196  36.872   6.600   9.150
 4784POPC   GL1 8197  36.855   6.635   8.850
 4784POPC   GL2 8198  36.867   6.531   8.850
 4784POPC   C1A 8199  36.860   6.631   8.550
 4784POPC   D2A 8200  36.919   6.609   8.250
 4784POPC   C3A 8201  36.897   6.629   7.950
 4784POPC   C4A 8202  36.947   6.612   7.650
 4784POPC   C1B 8203  36.877   6.424   8.550
 4784POPC   C2B 8204  36.830   6.388   8.250
 4784POPC   C3B 8205  36.879   6.414   7.950
 4784POPC   C4B 8206  36.843   6.365   7.650
 4785POPC   NC3 8207   1.203  22.117   9.450
 4785POPC   PO4 8208   1.172  22.203   9.150
 4785POPC   GL1 8209   1.225  22.197   8.850
 4785POPC   GL2 8210   1.096  22.135   8.850
 4785POPC   C1A 8211   1.256  22.167   8.550
 4785POPC   D2A 8212   1.249  22.202   8.250
 4785POPC   C3A 8213   1.207  22.204   7.950
 4785POPC   C4A 8214   1.216  22.197   7.650
 4785POPC   C1B 8215   0.975  21.995   8.550
 4785POPC   C2B 8216   1.030  22.011   8.250
 4785POPC   C3B 8217   1.017  21.993   7.950
 4785POPC   C4B 8218   1.004  22.055   7.650
 4786POPC   NC3 8219  35.349  29.889   9.450
 4786POPC   PO4 8220  35.333  29.911   9.150
 4786POPC   GL1 8221  35.392  29.954   8.850
 4786POPC   GL2 8222  35.390  29.835   8.850
 4786POPC   C1A 8223  35.350  29.906   8.550
 4786POPC   D2A 8224  35.316  29.891   8.250
 4786POPC   C3A 8225  35.379  29.961   7.950
 4786POPC   C4A 8226  35.386  29.925   7.650
 4786POPC   C1B 8227  35.476  29.724   8.550
 4786POPC   C2B 8228  35.477  29.669   8.250
 4786POPC   C3B 8229  35.521  29.722   7.950
 4786POPC   C4B 8230  35.498  29.708   7.650
 4787POPC   NC3 8231  21.361   5.857   9.450
 4787POPC   PO4 8232  21.376   5.878   9.150
 4787POPC   GL1 8233  21.412   5.911   8.850
 4787POPC   GL2 8234  21.290   5.940   8.850
 4787POPC   C1A 8235  21.397   5.895   8.550
 4787POPC   D2A 8236  21.380   5.842   8.250
 4787POPC   C3A 8237  21.354   5.907   7.950
 4787POPC   C4A 8238  21.342   5.839   7.650
 4787POPC   C1B 8239  21.305   6.065   8.550
 4787POPC   C2B 8240  21.325   6.065   8.250
 4787POPC   C3B 8241  21.324   6.092   7.950
 4787POPC   C4B 8242  21.239   6.132   7.650
 4788POPC   NC3 8243  11.292   7.459   9.450
 4788POPC   PO4 8244  11.299   7.401   9.150
 4788POPC   GL1 8245  11.308   7.440   8.850
 4788POPC   GL2 8246  11.291   7.581   8.850
 4788POPC   C1A 8247  11.272   7.457   8.550
 4788POPC   D2A 8248  11.267   7.462   8.250
 4788POPC   C3A 8249  11.344   7.399   7.950
 4788POPC   C4A 8250  11.321   7.398   7.650
 4788POPC   C1B 8251  11.324   7.641   8.550
 4788POPC   C2B 8252  11.291   7.644   8.250
 4788POPC   C3B 8253  11.272   7.700   7.950
 4788POPC   C4B 8254  11.304   7.701   7.650
 4789POPC   NC3 8255  43.846  15.192   9.450
 4789POPC   PO4 8256  43.854  15.155   9.150
 4789POPC   GL1 8257  43.876  15.153   8.850
 4789POPC   GL2 8258  43.763  15.141   8.850
 4789POPC   C1A 8259  43.919  15.187   8.550
 4789POPC   D2A 8260  43.875  15.210   8.250
 4789POPC   C3A 8261  43.929  15.226   7.950
 4789POPC   C4A 8262  43.847  15.153   7.650
 4789POPC   C1B 8263  43.723  15.028   8.550
 4789POPC   C2B 8264  43.702  15.057   8.250
 4789POPC   C3B 8265  43.680  14.978   7.950
 4789POPC   C4B 8266  43.719  15.011   7.650
 4790POPC   NC3 8267  44.707  26.028   9.450
 4790POPC   PO4 8268  44.685  26.064   9.150
 4790POPC   GL1 8269  44.697  26.007   8.850
 4790POPC   GL2 8270  44.818  26.022   8.850
 4790POPC   C1A 8271  44.697  26.001   8.550
 4790POPC   D2A 8272  44.703  26.013   8.250
 4790POPC   C3A 8273  44.675  26.044   7.950
 4790POPC   C4A 8274  44.625  26.082   7.650
 4790POPC   C1B 8275  44.916  25.990   8.550
 4790POPC   C2B 8276  44.875  25.942   8.250
 4790POPC   C3B 8277  44.890  25.940   7.950
 4790POPC   C4B 8278  44.902  25.967   7.650
 4791POPC   NC3 8279  23.691  22.129   9.450
 4791POPC   PO4 8280  23.718  22.186   9.150
 4791POPC   GL1 8281  23.742  22.123   8.850
 4791POPC   GL2 8282  23.872  22.173   8.850
 4791POPC   C1A 8283  23.682  22.119   8.550
 4791POPC   D2A 8284  23.674  22.201   8.250
 4791POPC   C3A 8285  23.732  22.130   7.950
 4791POPC   C4A 8286  23.699  22.181   7.650
 4791POPC   C1B 8287  23.992  22.127   8.550
 4791POPC   C2B 8288  23.976  22.065   8.250
 4791POPC   C3B 8289  23.950  22.080   7.950
 4791POPC   C4B 8290  23.977  22.107   7.650
 4792POPC   NC3 8291  23.680  34.526   9.450
 4792POPC   PO4 8292  23.701  34.563   9.150
 4792POPC   GL1 8293  23.717  34.526   8.850
 4792POPC   GL2 8294  23.720  34.439   8.850
 4792POPC   C1A 8295  23.672  34.588   8.550
 4792POPC   D2A 8296  23.667  34.583   8.250
 4792POPC   C3A 8297  23.755  34.556   7.950
 4792POPC   C4A 8298  23.701  34.619   7.650
 4792POPC   C1B 8299  23.691  34.355   8.550
 4792POPC   C2B 8300  23.720  34.300   8.250
 4792POPC   C3B 8301  23.770  34.362   7.950
 4792POPC   C4B 8302  23.748  34.284   7.650
 4793POPC   NC3 8303  33.009  35.340   9.450
 4793POPC   PO4 8304  32.975  35.382   9.150
 4793POPC   GL1 8305  32.982  35.355   8.850
 4793POPC   GL2 8306  33.039  35.446   8.850
 4793POPC   C1A 8307  33.013  35.382   8.550
 4793POPC   D2A 8308  32.994  35.370   8.250
 4793POPC   C3A 8309  32.984  35.342   7.950
 4793POPC   C4A 8310  33.053  35.380   7.650
 4793POPC   C1B 8311  32.974  35.581   8.550
 4793POPC   C2B 8312  32.936  35.621   8.250
 4793POPC   C3B 8313  32.945  35.624   7.950
 4793POPC   C4B 8314  32.963  35.543   7.650
 4794POPC   NC3 8315  32.241  41.601   9.450
 4794POPC   PO4 8316  32.233  41.513   9.150
 4794POPC   GL1 8317  32.263  41.580   8.850
 4794POPC   GL2 8318  32.106  41.651   8.850
 4794POPC   C1A 8319  32.202  41.537   8.550
 4794POPC   D2A 8320  32.276  41.560   8.250
 4794POPC   C3A 8321  32.249  41.599   7.950
 4794POPC   C4A 8322  32.287  41.513   7.650
 4794POPC   C1B 8323  32.046  41.675   8.550
 4794POPC   C2B 8324  32.045  41.648   8.250
 4794POPC   C3B 8325  32.016  41.685   7.950
 4794POPC   C4B 8326  31.984  41.676   7.650
 4795POPC   NC3 8327  24.442   4.290   9.450
 4795POPC   PO4 8328  24.530   4.317   9.150
 4795POPC   GL1 8329  24.520   4.267   8.850
 4795POPC   GL2 8330  24.476   4.196   8.850
 4795POPC   C1A 8331  24.481   4.330   8.550
 4795POPC   D2A 8332  24.500   4.268   8.250
 4795POPC   C3A 8333  24.481   4.343   7.950
 4795POPC   C4A 8334  24.517   4.357   7.650
 4795POPC   C1B 8335  24.485   4.100   8.550
 4795POPC   C2B 8336  24.462   4.074   8.250
 4795POPC   C3B 8337  24.541   4.100   7.950
 4795POPC   C4B 8338  24.538   4.093   7.650
 4796POPC   NC3 8339  27.580  34.575   9.450
 4796POPC   PO4 8340  27.606  34.624   9.150
 4796POPC   GL1 8341  27.624  34.590   8.850
 4796POPC   GL2 8342  27.670  34.522   8.850
 4796POPC   C1A 8343  27.582  34.613   8.550
 4796POPC   D2A 8344  27.604  34.539   8.250
 4796POPC   C3A 8345  27.563  34.582   7.950
 4796POPC   C4A 8346  27.595  34.624   7.650
 4796POPC   C1B 8347  27.754  34.425   8.550
 4796POPC   C2B 8348  27.821  34.357   8.250
 4796POPC   C3B 8349  27.797  34.407   7.950
 4796POPC   C4B 8350  27.817  34.405   7.650
 4797POPC   NC3 8351  22.937   1.977   9.450
 4797POPC   PO4 8352  22.904   2.013   9.150
 4797POPC   GL1 8353  22.950   2.004   8.850
 4797POPC   GL2 8354  23.087   1.959   8.850
 4797POPC   C1A 8355  22.929   1.942   8.550
 4797POPC   D2A 8356  22.957   2.026   8.250
 4797POPC   C3A 8357  22.922   1.978   7.950
 4797POPC   C4A 8358  22.920   1.979   7.650
 4797POPC   C1B 8359  23.143   1.895   8.550
 4797POPC   C2B 8360  23.161   1.960   8.250
 4797POPC   C3B 8361  23.167   1.894   7.950
 4797POPC   C4B 8362  23.205   1.922   7.650
 4798POPC   NC3 8363  12.074  19.791   9.450
 4798POPC   PO4 8364  12.056  19.787   9.150
 4798POPC   GL1 8365  12.076  19.857   8.850
 4798POPC   GL2 8366  12.227  19.855   8.850
 4798POPC   C1A 8367  12.096  19.809   8.550
 4798POPC   D2A 8368  12.034  19.827   8.250
 4798POPC   C3A 8369  12.079  19.817   7.950
 4798POPC   C4A 8370  12.042  19.836   7.650
 4798POPC   C1B 8371  12.345  19.889   8.550
 4798POPC   C2B 8372  12.315  19.893   8.250
 4798POPC   C3B 8373  12.348  19.966   7.950
 4798POPC   C4B 8374  12.310  19.947   7.650
 4799POPC   NC3 8375   0.420  23.756   9.450
 4799POPC   PO4 8376   0.396  23.715   9.150
 4799POPC   GL1 8377   0.413  23.737   8.850
 4799POPC   GL2 8378   0.420  23.547   8.850
 4799POPC   C1A 8379   0.422  23.706   8.550
 4799POPC   D2A 8380   0.448  23.732   8.250
 4799POPC   C3A 8381   0.449  23.672   7.950
 4799POPC   C4A 8382   0.436  23.703   7.650
 4799POPC   C1B 8383   0.384  23.458   8.550
 4799POPC   C2B 8384   0.408  23.461   8.250
 4799POPC   C3B 8385   0.423  23.435   7.950
 4799POPC   C4B 8386   0.356  23.484   7.650
 4800POPC   NC3 8387  43.850  43.894   9.450
 4800POPC   PO4 8388  43.895  43.856   9.150
 4800POPC   GL1 8389  43.892  43.928   8.850
 4800POPC   GL2 8390  43.787  43.750   8.850
 4800POPC   C1A 8391  43.935  43.919   8.550
 4800POPC   D2A 8392  43.900  43.863   8.250
 4800POPC   C3A 8393  43.850  43.848   7.950
 4800POPC   C4A 8394  43.883  43.906   7.650
 4800POPC   C1B 8395  43.730  43.746   8.550
 4800POPC   C2B 8396  43.719  43.675   8.250
 4800POPC   C3B 8397  43.707  43.696   7.950
 4800POPC   C4B 8398  43.730  43.751   7.650
 4801POPC   NC3 8399  32.239  26.051   9.450
 4801POPC   PO4 8400  32.259  26.051   9.150
 4801POPC   GL1 8401  32.257  26.017   8.850
 4801POPC   GL2 8402  32.137  25.976   8.850
 4801POPC   C1A 8403  32.275  26.026   8.550
 4801POPC   D2A 8404  32.267  26.008   8.250
 4801POPC   C3A 8405  32.271  26.049   7.950
 4801POPC   C4A 8406  32.244  26.029   7.650
 4801POPC   C1B 8407  32.051  26.026   8.550
 4801POPC   C2B 8408  32.007  25.944   8.250
 4801POPC   C3B 8409  32.023  25.971   7.950
 4801POPC   C4B 8410  31.982  25.957   7.650
 4802POPC   NC3 8411  19.032   3.569   9.450
 4802POPC   PO4 8412  19.084   3.587   9.150
 4802POPC   GL1 8413  19.050   3.550   8.850
 4802POPC   GL2 8414  18.981   3.436   8.850
 4802POPC   C1A 8415  19.064   3.523   8.550
 4802POPC   D2A 8416  19.013   3.565   8.250
 4802POPC   C3A 8417  19.104   3.510   7.950
 4802POPC   C4A 8418  19.098   3.574   7.650
 4802POPC   C1B 8419  18.921   3.364   8.550
 4802POPC   C2B 8420  18.915   3.355   8.250
 4802POPC   C3B 8421  18.927   3.394   7.950
 4802POPC   C4B 8422  18.854   3.311   7.650
 4803POPC   NC3 8423  18.288  24.497   9.450
 4803POPC   PO4 8424  18.260  24.493   9.150
 4803POPC   GL1 8425  18.308  24.528   8.850
 4803POPC   GL2 8426  18.406  24.432   8.850
 4803POPC   C1A 8427  18.269  24.521   8.550
 4803POPC   D2A 8428  18.260  24.486   8.250
 4803POPC   C3A 8429  18.299  24.482   7.950
 4803POPC   C4A 8430  18.274  24.456   7.650
 4803POPC   C1B 8431  18.524  24.381   8.550
 4803POPC   C2B 8432  18.504  24.368   8.250
 4803POPC   C3B 8433  18.495  24.378   7.950
 4803POPC   C4B 8434  18.546  24.375   7.650
 4804POPC   NC3 8435  35.382  27.617   9.450
 4804POPC   PO4 8436  35.322  27.629   9.150
 4804POPC   GL1 8437  35.306  27.603   8.850
 4804POPC   GL2 8438  35.179  27.549   8.850
 4804POPC   C1A 8439  35.372  27.598   8.550
 4804POPC   D2A 8440  35.387  27.608   8.250
 4804POPC   C3A 8441  35.334  27.624   7.950
 4804POPC   C4A 8442  35.308  27.611   7.650
 4804POPC   C1B 8443  35.133  27.535   8.550
 4804POPC   C2B 8444  35.105  27.560   8.250
 4804POPC   C3B 8445  35.102  27.510   7.950
 4804POPC   C4B 8446  35.075  27.584   7.650
 4805POPC   NC3 8447  39.242  27.578   9.450
 4805POPC   PO4 8448  39.267  27.565   9.150
 4805POPC   GL1 8449  39.267  27.561   8.850
 4805POPC   GL2 8450  39.153  27.682   8.850
 4805POPC   C1A 8451  39.201  27.573   8.550
 4805POPC   D2A 8452  39.234  27.578   8.250
 4805POPC   C3A 8453  39.256  27.637   7.950
 4805POPC   C4A 8454  39.234  27.630   7.650
 4805POPC   C1B 8455  39.028  27.684   8.550
 4805POPC   C2B 8456  38.983  27.723   8.250
 4805POPC   C3B 8457  38.967  27.673   7.950
 4805POPC   C4B 8458  38.965  27.628   7.650
 4806POPC   NC3 8459  40.831  26.820   9.450
 4806POPC   PO4 8460  40.750  26.779   9.150
 4806POPC   GL1 8461  40.765  26.809   8.850
 4806POPC   GL2 8462  40.709  26.897   8.850
 4806POPC   C1A 8463  40.820  26.838   8.550
 4806POPC   D2A 8464  40.746  26.768   8.250
 4806POPC   C3A 8465  40.809  26.801   7.950
 4806POPC   C4A 8466  40.782  26.810   7.650
 4806POPC   C1B 8467  40.605  27.028   8.550
 4806POPC   C2B 8468  40.659  27.039   8.250
 4806POPC   C3B 8469  40.640  26.990   7.950
 4806POPC   C4B 8470  40.611  26.974   7.650
 4807POPC   NC3 8471  19.832  10.540   9.450
 4807POPC   PO4 8472  19.868  10.565   9.150
 4807POPC   GL1 8473  19.846  10.516   8.850
 4807POPC   GL2 8474  19.858  10.379   8.850
 4807POPC   C1A 8475  19.813  10.531   8.550
 4807POPC   D2A 8476  19.857  10.528   8.250
 4807POPC   C3A 8477  19.785  10.515   7.950
 4807POPC   C4A 8478  19.858  10.482   7.650
 4807POPC   C1B 8479  19.760  10.251   8.550
 4807POPC   C2B 8480  19.788  10.229   8.250
 4807POPC   C3B 8481  19.849  10.266   7.950
 4807POPC   C4B 8482  19.765  10.228   7.650
 4808POPC   NC3 8483  21.436  37.701   9.450
 4808POPC   PO4 8484  21.430  37.633   9.150
 4808POPC   GL1 8485  21.394  37.632   8.850
 4808POPC   GL2 8486  21.262  37.762   8.850
 4808POPC   C1A 8487  21.401  37.679   8.550
 4808POPC   D2A 8488  21.338  37.711   8.250
 4808POPC   C3A 8489  21.421  37.633   7.950
 4808POPC   C4A 8490  21.347  37.665   7.650
 4808POPC   C1B 8491  21.132  37.837   8.550
 4808POPC   C2B 8492  21.169  37.768   8.250
 4808POPC   C3B 8493  21.176  37.827   7.950
 4808POPC   C4B 8494  21.168  37.827   7.650
 4809POPC   NC3 8495   8.943  44.688   9.450
 4809POPC   PO4 8496   8.994  44.642   9.150
 4809POPC   GL1 8497   8.942  44.691   8.850
 4809POPC   GL2 8498   9.067  44.537   8.850
 4809POPC   C1A 8499   8.987  44.655   8.550
 4809POPC   D2A 8500   8.957  44.661   8.250
 4809POPC   C3A 8501   8.932  44.615   7.950
 4809POPC   C4A 8502   9.003  44.640   7.650
 4809POPC   C1B 8503   9.104  44.497   8.550
 4809POPC   C2B 8504   9.181  44.428   8.250
 4809POPC   C3B 8505   9.158  44.517   7.950
 4809POPC   C4B 8506   9.152  44.492   7.650
 4810POPC   NC3 8507  44.663  12.827   9.450
 4810POPC   PO4 8508  44.681  12.877   9.150
 4810POPC   GL1 8509  44.633  12.803   8.850
 4810POPC   GL2 8510  44.712  12.962   8.850
 4810POPC   C1A 8511  44.655  12.850   8.550
 4810POPC   D2A 8512  44.663  12.813   8.250
 4810POPC   C3A 8513  44.694  12.825   7.950
 4810POPC   C4A 8514  44.706  12.829   7.650
 4810POPC   C1B 8515  44.721  13.118   8.550
 4810POPC   C2B 8516  44.704  13.065   8.250
 4810POPC   C3B 8517  44.746  13.130   7.950
 4810POPC   C4B 8518  44.698  13.061   7.650
 4811POPC   NC3 8519  22.919  21.360   9.450
 4811POPC   PO4 8520  22.981  21.355   9.150
 4811POPC   GL1 8521  22.946  21.337   8.850
 4811POPC   GL2 8522  22.833  21.256   8.850
 4811POPC   C1A 8523  22.972  21.346   8.550
 4811POPC   D2A 8524  22.964  21.394   8.250
 4811POPC   C3A 8525  22.945  21.403   7.950
 4811POPC   C4A 8526  22.893  21.405   7.650
 4811POPC   C1B 8527  22.806  21.164   8.550
 4811POPC   C2B 8528  22.838  21.193   8.250
 4811POPC   C3B 8529  22.776  21.154   7.950
 4811POPC   C4B 8530  22.769  21.183   7.650
 4812POPC   NC3 8531  21.436  22.169   9.450
 4812POPC   PO4 8532  21.394  22.147   9.150
 4812POPC   GL1 8533  21.417  22.148   8.850
 4812POPC   GL2 8534  21.450  22.142   8.850
 4812POPC   C1A 8535  21.385  22.190   8.550
 4812POPC   D2A 8536  21.345  22.160   8.250
 4812POPC   C3A 8537  21.386  22.171   7.950
 4812POPC   C4A 8538  21.373  22.133   7.650
 4812POPC   C1B 8539  21.618  21.998   8.550
 4812POPC   C2B 8540  21.590  22.007   8.250
 4812POPC   C3B 8541  21.556  22.000   7.950
 4812POPC   C4B 8542  21.564  22.051   7.650
 4813POPC   NC3 8543  35.352   0.455   9.450
 4813POPC   PO4 8544  35.387   0.454   9.150
 4813POPC   GL1 8545  35.343   0.459   8.850
 4813POPC   GL2 8546  35.405   0.332   8.850
 4813POPC   C1A 8547  35.315   0.459   8.550
 4813POPC   D2A 8548  35.341   0.465   8.250
 4813POPC   C3A 8549  35.333   0.485   7.950
 4813POPC   C4A 8550  35.359   0.388   7.650
 4813POPC   C1B 8551  35.549   0.259   8.550
 4813POPC   C2B 8552  35.513   0.279   8.250
 4813POPC   C3B 8553  35.509   0.264   7.950
 4813POPC   C4B 8554  35.561   0.268   7.650
 4814POPC   NC3 8555  41.552  23.747   9.450
 4814POPC   PO4 8556  41.543  23.665   9.150
 4814POPC   GL1 8557  41.534  23.736   8.850
 4814POPC   GL2 8558  41.443  23.737   8.850
 4814POPC   C1A 8559  41.520  23.751   8.550
 4814POPC   D2A 8560  41.593  23.689   8.250
 4814POPC   C3A 8561  41.589  23.762   7.950
 4814POPC   C4A 8562  41.533  23.720   7.650
 4814POPC   C1B 8563  41.315  23.773   8.550
 4814POPC   C2B 8564  41.353  23.798   8.250
 4814POPC   C3B 8565  41.288  23.780   7.950
 4814POPC   C4B 8566  41.267  23.800   7.650
 4815POPC   NC3 8567   5.064  37.649   9.450
 4815POPC   PO4 8568   5.099  37.696   9.150
 4815POPC   GL1 8569   5.119  37.682   8.850
 4815POPC   GL2 8570   5.084  37.782   8.850
 4815POPC   C1A 8571   5.121  37.686   8.550
 4815POPC   D2A 8572   5.092  37.688   8.250
 4815POPC   C3A 8573   5.084  37.729   7.950
 4815POPC   C4A 8574   5.054  37.656   7.650
 4815POPC   C1B 8575   5.019  37.898   8.550
 4815POPC   C2B 8576   5.092  37.928   8.250
 4815POPC   C3B 8577   5.091  37.931   7.950
 4815POPC   C4B 8578   5.028  37.898   7.650
 4816POPC   NC3 8579  10.560   1.969   9.450
 4816POPC   PO4 8580  10.556   1.967   9.150
 4816POPC   GL1 8581  10.567   1.960   8.850
 4816POPC   GL2 8582  10.507   1.862   8.850
 4816POPC   C1A 8583  10.563   1.972   8.550
 4816POPC   D2A 8584  10.562   1.994   8.250
 4816POPC   C3A 8585  10.565   1.978   7.950
 4816POPC   C4A 8586  10.511   1.964   7.650
 4816POPC   C1B 8587  10.568   1.789   8.550
 4816POPC   C2B 8588  10.539   1.758   8.250
 4816POPC   C3B 8589  10.534   1.695   7.950
 4816POPC   C4B 8590  10.489   1.775   7.650
 4817POPC   NC3 8591  14.379  22.982   9.450
 4817POPC   PO4 8592  14.401  22.905   9.150
 4817POPC   GL1 8593  14.428  22.940   8.850
 4817POPC   GL2 8594  14.423  22.817   8.850
 4817POPC   C1A 8595  14.383  22.904   8.550
 4817POPC   D2A 8596  14.374  22.965   8.250
 4817POPC   C3A 8597  14.453  22.889   7.950
 4817POPC   C4A 8598  14.417  22.950   7.650
 4817POPC   C1B 8599  14.446  22.686   8.550
 4817POPC   C2B 8600  14.414  22.704   8.250
 4817POPC   C3B 8601  14.410  22.697   7.950
 4817POPC   C4B 8602  14.397  22.709   7.650
 4818POPC   NC3 8603  19.053  11.328   9.450
 4818POPC   PO4 8604  19.048  11.301   9.150
 4818POPC   GL1 8605  19.034  11.334   8.850
 4818POPC   GL2 8606  19.123  11.279   8.850
 4818POPC   C1A 8607  19.011  11.320   8.550
 4818POPC   D2A 8608  19.054  11.294   8.250
 4818POPC   C3A 8609  19.078  11.329   7.950
 4818POPC   C4A 8610  19.069  11.345   7.650
 4818POPC   C1B 8611  19.260  11.166   8.550
 4818POPC   C2B 8612  19.245  11.138   8.250
 4818POPC   C3B 8613  19.282  11.223   7.950
 4818POPC   C4B 8614  19.236  11.140   7.650
 4819POPC   NC3 8615  20.647  15.137   9.450
 4819POPC   PO4 8616  20.621  15.152   9.150
 4819POPC   GL1 8617  20.598  15.176   8.850
 4819POPC   GL2 8618  20.704  15.125   8.850
 4819POPC   C1A 8619  20.645  15.137   8.550
 4819POPC   D2A 8620  20.563  15.139   8.250
 4819POPC   C3A 8621  20.623  15.190   7.950
 4819POPC   C4A 8622  20.576  15.193   7.650
 4819POPC   C1B 8623  20.857  15.173   8.550
 4819POPC   C2B 8624  20.899  15.121   8.250
 4819POPC   C3B 8625  20.860  15.205   7.950
 4819POPC   C4B 8626  20.874  15.210   7.650
 4820POPC   NC3 8627  41.590  13.636   9.450
 4820POPC   PO4 8628  41.571  13.626   9.150
 4820POPC   GL1 8629  41.533  13.667   8.850
 4820POPC   GL2 8630  41.453  13.628   8.850
 4820POPC   C1A 8631  41.510  13.649   8.550
 4820POPC   D2A 8632  41.516  13.600   8.250
 4820POPC   C3A 8633  41.601  13.638   7.950
 4820POPC   C4A 8634  41.572  13.610   7.650
 4820POPC   C1B 8635  41.319  13.738   8.550
 4820POPC   C2B 8636  41.297  13.745   8.250
 4820POPC   C3B 8637  41.279  13.716   7.950
 4820POPC   C4B 8638  41.366  13.731   7.650
 4821POPC   NC3 8639  34.600  18.316   9.450
 4821POPC   PO4 8640  34.530  18.257   9.150
 4821POPC   GL1 8641  34.538  18.241   8.850
 4821POPC   GL2 8642  34.647  18.212   8.850
 4821POPC   C1A 8643  34.584  18.325   8.550
 4821POPC   D2A 8644  34.564  18.264   8.250
 4821POPC   C3A 8645  34.626  18.303   7.950
 4821POPC   C4A 8646  34.560  18.328   7.650
 4821POPC   C1B 8647  34.649  18.017   8.550
 4821POPC   C2B 8648  34.632  18.063   8.250
 4821POPC   C3B 8649  34.651  18.089   7.950
 4821POPC   C4B 8650  34.712  18.084   7.650
 4822POPC   NC3 8651  10.569  31.506   9.450
 4822POPC   PO4 8652  10.559  31.509   9.150
 4822POPC   GL1 8653  10.482  31.458   8.850
 4822POPC   GL2 8654  10.497  31.409   8.850
 4822POPC   C1A 8655  10.499  31.522   8.550
 4822POPC   D2A 8656  10.505  31.427   8.250
 4822POPC   C3A 8657  10.572  31.448   7.950
 4822POPC   C4A 8658  10.506  31.479   7.650
 4822POPC   C1B 8659  10.387  31.303   8.550
 4822POPC   C2B 8660  10.391  31.259   8.250
 4822POPC   C3B 8661  10.369  31.274   7.950
 4822POPC   C4B 8662  10.361  31.270   7.650
 4823POPC   NC3 8663  26.016  36.167   9.450
 4823POPC   PO4 8664  26.023  36.093   9.150
 4823POPC   GL1 8665  26.037  36.146   8.850
 4823POPC   GL2 8666  25.910  36.077   8.850
 4823POPC   C1A 8667  25.992  36.136   8.550
 4823POPC   D2A 8668  26.089  36.138   8.250
 4823POPC   C3A 8669  26.027  36.141   7.950
 4823POPC   C4A 8670  26.059  36.151   7.650
 4823POPC   C1B 8671  25.849  36.028   8.550
 4823POPC   C2B 8672  25.800  36.021   8.250
 4823POPC   C3B 8673  25.809  36.031   7.950
 4823POPC   C4B 8674  25.793  36.018   7.650
 4824POPC   NC3 8675  41.573   7.413   9.450
 4824POPC   PO4 8676  41.592   7.386   9.150
 4824POPC   GL1 8677  41.528   7.382   8.850
 4824POPC   GL2 8678  41.458   7.375   8.850
 4824POPC   C1A 8679  41.582   7.393   8.550
 4824POPC   D2A 8680  41.605   7.375   8.250
 4824POPC   C3A 8681  41.599   7.448   7.950
 4824POPC   C4A 8682  41.545   7.396   7.650
 4824POPC   C1B 8683  41.355   7.301   8.550
 4824POPC   C2B 8684  41.382   7.276   8.250
 4824POPC   C3B 8685  41.345   7.278   7.950
 4824POPC   C4B 8686  41.374   7.285   7.650
 4825POPC   NC3 8687  29.940  29.190   9.450
 4825POPC   PO4 8688  29.934  29.126   9.150
 4825POPC   GL1 8689  29.957  29.190   8.850
 4825POPC   GL2 8690  29.842  29.060   8.850
 4825POPC   C1A 8691  29.916  29.185   8.550
 4825POPC   D2A 8692  29.939  29.134   8.250
 4825POPC   C3A 8693  29.938  29.123   7.950
 4825POPC   C4A 8694  29.965  29.153   7.650
 4825POPC   C1B 8695  29.763  28.999   8.550
 4825POPC   C2B 8696  29.724  28.960   8.250
 4825POPC   C3B 8697  29.771  28.954   7.950
 4825POPC   C4B 8698  29.740  28.960   7.650
 4826POPC   NC3 8699  23.723  23.673   9.450
 4826POPC   PO4 8700  23.722  23.758   9.150
 4826POPC   GL1 8701  23.734  23.704   8.850
 4826POPC   GL2 8702  23.644  23.634   8.850
 4826POPC   C1A 8703  23.689  23.728   8.550
 4826POPC   D2A 8704  23.697  23.752   8.250
 4826POPC   C3A 8705  23.745  23.725   7.950
 4826POPC   C4A 8706  23.698  23.757   7.650
 4826POPC   C1B 8707  23.581  23.506   8.550
 4826POPC   C2B 8708  23.610  23.491   8.250
 4826POPC   C3B 8709  23.529  23.517   7.950
 4826POPC   C4B 8710  23.551  23.540   7.650
 4827POPC   NC3 8711   9.753   0.440   9.450
 4827POPC   PO4 8712   9.717   0.390   9.150
 4827POPC   GL1 8713   9.708   0.456   8.850
 4827POPC   GL2 8714   9.711   0.319   8.850
 4827POPC   C1A 8715   9.726   0.473   8.550
 4827POPC   D2A 8716   9.706   0.422   8.250
 4827POPC   C3A 8717   9.755   0.398   7.950
 4827POPC   C4A 8718   9.768   0.450   7.650
 4827POPC   C1B 8719   9.609   0.264   8.550
 4827POPC   C2B 8720   9.601   0.266   8.250
 4827POPC   C3B 8721   9.642   0.237   7.950
 4827POPC   C4B 8722   9.656   0.257   7.650
 4828POPC   NC3 8723  12.094  16.733   9.450
 4828POPC   PO4 8724  12.060  16.746   9.150
 4828POPC   GL1 8725  12.062  16.730   8.850
 4828POPC   GL2 8726  12.002  16.725   8.850
 4828POPC   C1A 8727  12.069  16.726   8.550
 4828POPC   D2A 8728  12.039  16.696   8.250
 4828POPC   C3A 8729  12.075  16.722   7.950
 4828POPC   C4A 8730  12.076  16.690   7.650
 4828POPC   C1B 8731  11.831  16.772   8.550
 4828POPC   C2B 8732  11.799  16.820   8.250
 4828POPC   C3B 8733  11.832  16.826   7.950
 4828POPC   C4B 8734  11.852  16.748   7.650
 4829POPC   NC3 8735  41.551   9.008   9.450
 4829POPC   PO4 8736  41.605   8.984   9.150
 4829POPC   GL1 8737  41.589   8.983   8.850
 4829POPC   GL2 8738  41.480   8.992   8.850
 4829POPC   C1A 8739  41.606   8.940   8.550
 4829POPC   D2A 8740  41.559   9.013   8.250
 4829POPC   C3A 8741  41.571   9.022   7.950
 4829POPC   C4A 8742  41.544   8.993   7.650
 4829POPC   C1B 8743  41.303   9.037   8.550
 4829POPC   C2B 8744  41.360   9.085   8.250
 4829POPC   C3B 8745  41.293   9.082   7.950
 4829POPC   C4B 8746  41.317   9.105   7.650
 4830POPC   NC3 8747  25.225  38.500   9.450
 4830POPC   PO4 8748  25.296  38.490   9.150
 4830POPC   GL1 8749  25.266  38.437   8.850
 4830POPC   GL2 8750  25.276  38.581   8.850
 4830POPC   C1A 8751  25.278  38.451   8.550
 4830POPC   D2A 8752  25.289  38.458   8.250
 4830POPC   C3A 8753  25.291  38.479   7.950
 4830POPC   C4A 8754  25.297  38.418   7.650
 4830POPC   C1B 8755  25.296  38.676   8.550
 4830POPC   C2B 8756  25.301  38.724   8.250
 4830POPC   C3B 8757  25.314  38.745   7.950
 4830POPC   C4B 8758  25.273  38.742   7.650
 4831POPC   NC3 8759   6.617  33.842   9.450
 4831POPC   PO4 8760   6.639  33.832   9.150
 4831POPC   GL1 8761   6.677  33.780   8.850
 4831POPC   GL2 8762   6.657  33.883   8.850
 4831POPC   C1A 8763   6.636  33.756   8.550
 4831POPC   D2A 8764   6.645  33.843   8.250
 4831POPC   C3A 8765   6.607  33.758   7.950
 4831POPC   C4A 8766   6.659  33.798   7.650
 4831POPC   C1B 8767   6.751  33.984   8.550
 4831POPC   C2B 8768   6.771  34.071   8.250
 4831POPC   C3B 8769   6.742  34.017   7.950
 4831POPC   C4B 8770   6.711  34.049   7.650
 4832POPC   NC3 8771  32.252   6.675   9.450
 4832POPC   PO4 8772  32.254   6.674   9.150
 4832POPC   GL1 8773  32.277   6.681   8.850
 4832POPC   GL2 8774  32.418   6.631   8.850
 4832POPC   C1A 8775  32.207   6.679   8.550
 4832POPC   D2A 8776  32.220   6.675   8.250
 4832POPC   C3A 8777  32.268   6.670   7.950
 4832POPC   C4A 8778  32.239   6.649   7.650
 4832POPC   C1B 8779  32.483   6.638   8.550
 4832POPC   C2B 8780  32.499   6.644   8.250
 4832POPC   C3B 8781  32.481   6.605   7.950
 4832POPC   C4B 8782  32.456   6.570   7.650
 4833POPC   NC3 8783  36.886  14.386   9.450
 4833POPC   PO4 8784  36.899  14.382   9.150
 4833POPC   GL1 8785  36.866  14.425   8.850
 4833POPC   GL2 8786  37.037  14.312   8.850
 4833POPC   C1A 8787  36.857  14.405   8.550
 4833POPC   D2A 8788  36.938  14.376   8.250
 4833POPC   C3A 8789  36.884  14.413   7.950
 4833POPC   C4A 8790  36.878  14.437   7.650
 4833POPC   C1B 8791  37.086  14.198   8.550
 4833POPC   C2B 8792  37.132  14.233   8.250
 4833POPC   C3B 8793  37.067  14.269   7.950
 4833POPC   C4B 8794  37.105  14.268   7.650
 4834POPC   NC3 8795  13.663  39.247   9.450
 4834POPC   PO4 8796  13.628  39.245   9.150
 4834POPC   GL1 8797  13.598  39.231   8.850
 4834POPC   GL2 8798  13.511  39.103   8.850
 4834POPC   C1A 8799  13.605  39.225   8.550
 4834POPC   D2A 8800  13.629  39.237   8.250
 4834POPC   C3A 8801  13.591  39.251   7.950
 4834POPC   C4A 8802  13.591  39.208   7.650
 4834POPC   C1B 8803  13.465  39.034   8.550
 4834POPC   C2B 8804  13.460  39.016   8.250
 4834POPC   C3B 8805  13.461  39.068   7.950
 4834POPC   C4B 8806  13.447  39.009   7.650
 4835POPC   NC3 8807  30.718  12.841   9.450
 4835POPC   PO4 8808  30.735  12.835   9.150
 4835POPC   GL1 8809  30.708  12.871   8.850
 4835POPC   GL2 8810  30.762  12.935   8.850
 4835POPC   C1A 8811  30.683  12.840   8.550
 4835POPC   D2A 8812  30.653  12.890   8.250
 4835POPC   C3A 8813  30.682  12.840   7.950
 4835POPC   C4A 8814  30.653  12.862   7.650
 4835POPC   C1B 8815  30.846  13.105   8.550
 4835POPC   C2B 8816  30.835  13.125   8.250
 4835POPC   C3B 8817  30.774  13.078   7.950
 4835POPC   C4B 8818  30.781  13.108   7.650
 4836POPC   NC3 8819  12.112  43.854   9.450
 4836POPC   PO4 8820  12.073  43.908   9.150
 4836POPC   GL1 8821  12.095  43.872   8.850
 4836POPC   GL2 8822  11.947  43.772   8.850
 4836POPC   C1A 8823  12.052  43.839   8.550
 4836POPC   D2A 8824  12.074  43.857   8.250
 4836POPC   C3A 8825  12.076  43.866   7.950
 4836POPC   C4A 8826  12.036  43.868   7.650
 4836POPC   C1B 8827  11.873  43.695   8.550
 4836POPC   C2B 8828  11.873  43.680   8.250
 4836POPC   C3B 8829  11.896  43.760   7.950
 4836POPC   C4B 8830  11.849  43.768   7.650
 4837POPC   NC3 8831  18.270  12.832   9.450
 4837POPC   PO4 8832  18.319  12.897   9.150
 4837POPC   GL1 8833  18.235  12.884   8.850
 4837POPC   GL2 8834  18.341  12.893   8.850
 4837POPC   C1A 8835  18.285  12.852   8.550
 4837POPC   D2A 8836  18.325  12.824   8.250
 4837POPC   C3A 8837  18.251  12.826   7.950
 4837POPC   C4A 8838  18.331  12.877   7.650
 4837POPC   C1B 8839  18.486  13.012   8.550
 4837POPC   C2B 8840  18.459  13.050   8.250
 4837POPC   C3B 8841  18.487  13.008   7.950
 4837POPC   C4B 8842  18.486  13.039   7.650
 4838POPC   NC3 8843  34.539   2.757   9.450
 4838POPC   PO4 8844  34.536   2.731   9.150
 4838POPC   GL1 8845  34.618   2.733   8.850
 4838POPC   GL2 8846  34.550   2.855   8.850
 4838POPC   C1A 8847  34.563   2.777   8.550
 4838POPC   D2A 8848  34.622   2.777   8.250
 4838POPC   C3A 8849  34.574   2.797   7.950
 4838POPC   C4A 8850  34.531   2.746   7.650
 4838POPC   C1B 8851  34.492   3.000   8.550
 4838POPC   C2B 8852  34.427   3.022   8.250
 4838POPC   C3B 8853  34.434   3.037   7.950
 4838POPC   C4B 8854  34.493   2.950   7.650
 4839POPC   NC3 8855  13.644  37.726   9.450
 4839POPC   PO4 8856  13.652  37.712   9.150
 4839POPC   GL1 8857  13.667  37.652   8.850
 4839POPC   GL2 8858  13.771  37.660   8.850
 4839POPC   C1A 8859  13.613  37.706   8.550
 4839POPC   D2A 8860  13.584  37.720   8.250
 4839POPC   C3A 8861  13.593  37.699   7.950
 4839POPC   C4A 8862  13.671  37.650   7.650
 4839POPC   C1B 8863  13.812  37.588   8.550
 4839POPC   C2B 8864  13.828  37.581   8.250
 4839POPC   C3B 8865  13.823  37.500   7.950
 4839POPC   C4B 8866  13.808  37.577   7.650
 4840POPC   NC3 8867  17.545  33.014   9.450
 4840POPC   PO4 8868  17.502  32.992   9.150
 4840POPC   GL1 8869  17.509  33.019   8.850
 4840POPC   GL2 8870  17.375  32.976   8.850
 4840POPC   C1A 8871  17.524  33.033   8.550
 4840POPC   D2A 8872  17.541  33.062   8.250
 4840POPC   C3A 8873  17.516  33.029   7.950
 4840POPC   C4A 8874  17.553  32.982   7.650
 4840POPC   C1B 8875  17.223  32.960   8.550
 4840POPC   C2B 8876  17.231  32.994   8.250
 4840POPC   C3B 8877  17.236  33.009   7.950
 4840POPC   C4B 8878  17.281  32.915   7.650
 4841POPC   NC3 8879  40.735   6.684   9.450
 4841POPC   PO4 8880  40.830   6.639   9.150
 4841POPC   GL1 8881  40.735   6.617   8.850
 4841POPC   GL2 8882  40.714   6.588   8.850
 4841POPC   C1A 8883  40.764   6.609   8.550
 4841POPC   D2A 8884  40.758   6.665   8.250
 4841POPC   C3A 8885  40.794   6.628   7.950
 4841POPC   C4A 8886  40.813   6.664   7.650
 4841POPC   C1B 8887  40.595   6.531   8.550
 4841POPC   C2B 8888  40.554   6.507   8.250
 4841POPC   C3B 8889  40.619   6.507   7.950
 4841POPC   C4B 8890  40.570   6.485   7.650
 4842POPC   NC3 8891   2.806   5.137   9.450
 4842POPC   PO4 8892   2.752   5.063   9.150
 4842POPC   GL1 8893   2.796   5.132   8.850
 4842POPC   GL2 8894   2.732   5.169   8.850
 4842POPC   C1A 8895   2.723   5.096   8.550
 4842POPC   D2A 8896   2.763   5.139   8.250
 4842POPC   C3A 8897   2.759   5.106   7.950
 4842POPC   C4A 8898   2.747   5.066   7.650
 4842POPC   C1B 8899   2.751   5.379   8.550
 4842POPC   C2B 8900   2.815   5.347   8.250
 4842POPC   C3B 8901   2.744   5.375   7.950
 4842POPC   C4B 8902   2.742   5.379   7.650
 4843POPC   NC3 8903  32.234  43.918   9.450
 4843POPC   PO4 8904  32.292  43.837   9.150
 4843POPC   GL1 8905  32.199  43.910   8.850
 4843POPC   GL2 8906  32.162  43.989   8.850
 4843POPC   C1A 8907  32.279  43.908   8.550
 4843POPC   D2A 8908  32.295  43.929   8.250
 4843POPC   C3A 8909  32.242  43.857   7.950
 4843POPC   C4A 8910  32.224  43.907   7.650
 4843POPC   C1B 8911  32.080  44.045   8.550
 4843POPC   C2B 8912  32.044  44.040   8.250
 4843POPC   C3B 8913  32.073  44.003   7.950
 4843POPC   C4B 8914  32.045  44.025   7.650
 4844POPC   NC3 8915  15.169  26.005   9.450
 4844POPC   PO4 8916  15.187  26.063   9.150
 4844POPC   GL1 8917  15.218  26.045   8.850
 4844POPC   GL2 8918  15.119  25.907   8.850
 4844POPC   C1A 8919  15.136  26.037   8.550
 4844POPC   D2A 8920  15.143  26.070   8.250
 4844POPC   C3A 8921  15.202  26.056   7.950
 4844POPC   C4A 8922  15.141  26.045   7.650
 4844POPC   C1B 8923  15.053  25.810   8.550
 4844POPC   C2B 8924  15.077  25.801   8.250
 4844POPC   C3B 8925  15.082  25.783   7.950
 4844POPC   C4B 8926  15.088  25.776   7.650
 4845POPC   NC3 8927  26.863   3.502   9.450
 4845POPC   PO4 8928  26.786   3.563   9.150
 4845POPC   GL1 8929  26.838   3.584   8.850
 4845POPC   GL2 8930  26.903   3.465   8.850
 4845POPC   C1A 8931  26.856   3.544   8.550
 4845POPC   D2A 8932  26.784   3.576   8.250
 4845POPC   C3A 8933  26.779   3.549   7.950
 4845POPC   C4A 8934  26.843   3.525   7.650
 4845POPC   C1B 8935  26.982   3.380   8.550
 4845POPC   C2B 8936  27.039   3.343   8.250
 4845POPC   C3B 8937  27.032   3.362   7.950
 4845POPC   C4B 8938  27.042   3.355   7.650
 4846POPC   NC3 8939  16.762   3.546   9.450
 4846POPC   PO4 8940  16.719   3.542   9.150
 4846POPC   GL1 8941  16.766   3.510   8.850
 4846POPC   GL2 8942  16.612   3.621   8.850
 4846POPC   C1A 8943  16.713   3.582   8.550
 4846POPC   D2A 8944  16.773   3.560   8.250
 4846POPC   C3A 8945  16.709   3.584   7.950
 4846POPC   C4A 8946  16.695   3.559   7.650
 4846POPC   C1B 8947  16.573   3.711   8.550
 4846POPC   C2B 8948  16.551   3.758   8.250
 4846POPC   C3B 8949  16.581   3.774   7.950
 4846POPC   C4B 8950  16.544   3.739   7.650
 4847POPC   NC3 8951  14.451  43.064   9.450
 4847POPC   PO4 8952  14.367  43.096   9.150
 4847POPC   GL1 8953  14.427  43.157   8.850
 4847POPC   GL2 8954  14.486  43.164   8.850
 4847POPC   C1A 8955  14.395  43.116   8.550
 4847POPC   D2A 8956  14.445  43.150   8.250
 4847POPC   C3A 8957  14.392  43.144   7.950
 4847POPC   C4A 8958  14.431  43.076   7.650
 4847POPC   C1B 8959  14.635  43.214   8.550
 4847POPC   C2B 8960  14.623  43.228   8.250
 4847POPC   C3B 8961  14.614  43.143   7.950
 4847POPC   C4B 8962  14.677  43.148   7.650
 4848POPC   NC3 8963  32.227  42.384   9.450
 4848POPC   PO4 8964  32.254  42.339   9.150
 4848POPC   GL1 8965  32.295  42.342   8.850
 4848POPC   GL2 8966  32.175  42.496   8.850
 4848POPC   C1A 8967  32.293  42.353   8.550
 4848POPC   D2A 8968  32.290  42.328   8.250
 4848POPC   C3A 8969  32.229  42.361   7.950
 4848POPC   C4A 8970  32.252  42.304   7.650
 4848POPC   C1B 8971  32.175  42.541   8.550
 4848POPC   C2B 8972  32.109  42.605   8.250
 4848POPC   C3B 8973  32.165  42.546   7.950
 4848POPC   C4B 8974  32.159  42.541   7.650
 4849POPC   NC3 8975  34.609  39.221   9.450
 4849POPC   PO4 8976  34.575  39.218   9.150
 4849POPC   GL1 8977  34.618  39.199   8.850
 4849POPC   GL2 8978  34.670  39.229   8.850
 4849POPC   C1A 8979  34.532  39.185   8.550
 4849POPC   D2A 8980  34.582  39.246   8.250
 4849POPC   C3A 8981  34.552  39.191   7.950
 4849POPC   C4A 8982  34.580  39.214   7.650
 4849POPC   C1B 8983  34.787  39.228   8.550
 4849POPC   C2B 8984  34.860  39.217   8.250
 4849POPC   C3B 8985  34.831  39.222   7.950
 4849POPC   C4B 8986  34.854  39.218   7.650
 4850POPC   NC3 8987  28.325  22.175   9.450
 4850POPC   PO4 8988  28.361  22.202   9.150
 4850POPC   GL1 8989  28.363  22.142   8.850
 4850POPC   GL2 8990  28.385  22.329   8.850
 4850POPC   C1A 8991  28.362  22.193   8.550
 4850POPC   D2A 8992  28.369  22.168   8.250
 4850POPC   C3A 8993  28.331  22.119   7.950
 4850POPC   C4A 8994  28.361  22.146   7.650
 4850POPC   C1B 8995  28.274  22.382   8.550
 4850POPC   C2B 8996  28.254  22.404   8.250
 4850POPC   C3B 8997  28.336  22.357   7.950
 4850POPC   C4B 8998  28.269  22.413   7.650
 4851POPC   NC3 8999  40.005  26.778   9.450
 4851POPC   PO4 9000  40.030  26.827   9.150
 4851POPC   GL1 9001  40.013  26.861   8.850
 4851POPC   GL2 9002  40.072  26.897   8.850
 4851POPC   C1A 9003  40.003  26.774   8.550
 4851POPC   D2A 9004  40.009  26.800   8.250
 4851POPC   C3A 9005  40.016  26.857   7.950
 4851POPC   C4A 9006  40.033  26.847   7.650
 4851POPC   C1B 9007  40.215  26.980   8.550
 4851POPC   C2B 9008  40.229  26.965   8.250
 4851POPC   C3B 9009  40.237  26.907   7.950
 4851POPC   C4B 9010  40.252  26.984   7.650
 4852POPC   NC3 9011  18.287   0.488   9.450
 4852POPC   PO4 9012  18.323   0.456   9.150
 4852POPC   GL1 9013  18.327   0.463   8.850
 4852POPC   GL2 9014  18.129   0.450   8.850
 4852POPC   C1A 9015  18.263   0.442   8.550
 4852POPC   D2A 9016  18.241   0.461   8.250
 4852POPC   C3A 9017  18.293   0.406   7.950
 4852POPC   C4A 9018  18.330   0.407   7.650
 4852POPC   C1B 9019  18.028   0.518   8.550
 4852POPC   C2B 9020  18.038   0.504   8.250
 4852POPC   C3B 9021  18.053   0.525   7.950
 4852POPC   C4B 9022  18.004   0.508   7.650
 4853POPC   NC3 9023  23.762  41.513   9.450
 4853POPC   PO4 9024  23.712  41.539   9.150
 4853POPC   GL1 9025  23.687  41.575   8.850
 4853POPC   GL2 9026  23.672  41.464   8.850
 4853POPC   C1A 9027  23.759  41.531   8.550
 4853POPC   D2A 9028  23.748  41.545   8.250
 4853POPC   C3A 9029  23.693  41.510   7.950
 4853POPC   C4A 9030  23.741  41.529   7.650
 4853POPC   C1B 9031  23.675  41.302   8.550
 4853POPC   C2B 9032  23.596  41.284   8.250
 4853POPC   C3B 9033  23.665  41.316   7.950
 4853POPC   C4B 9034  23.594  41.291   7.650
 4854POPC   NC3 9035   2.019  30.692   9.450
 4854POPC   PO4 9036   2.014  30.679   9.150
 4854POPC   GL1 9037   2.001  30.699   8.850
 4854POPC   GL2 9038   1.949  30.781   8.850
 4854POPC   C1A 9039   1.969  30.739   8.550
 4854POPC   D2A 9040   2.017  30.649   8.250
 4854POPC   C3A 9041   2.008  30.735   7.950
 4854POPC   C4A 9042   1.998  30.706   7.650
 4854POPC   C1B 9043   1.962  30.958   8.550
 4854POPC   C2B 9044   1.949  30.904   8.250
 4854POPC   C3B 9045   1.923  30.949   7.950
 4854POPC   C4B 9046   1.949  30.966   7.650
 4855POPC   NC3 9047   4.268  44.646   9.450
 4855POPC   PO4 9048   4.275  44.702   9.150
 4855POPC   GL1 9049   4.331  44.680   8.850
 4855POPC   GL2 9050   4.165  44.720   8.850
 4855POPC   C1A 9051   4.296  44.664   8.550
 4855POPC   D2A 9052   4.271  44.625   8.250
 4855POPC   C3A 9053   4.325  44.634   7.950
 4855POPC   C4A 9054   4.348  44.642   7.650
 4855POPC   C1B 9055   4.090  44.849   8.550
 4855POPC   C2B 9056   4.064  44.762   8.250
 4855POPC   C3B 9057   4.154  44.789   7.950
 4855POPC   C4B 9058   4.064  44.754   7.650
 4856POPC   NC3 9059  43.134  32.995   9.450
 4856POPC   PO4 9060  43.107  32.997   9.150
 4856POPC   GL1 9061  43.113  33.073   8.850
 4856POPC   GL2 9062  43.006  33.018   8.850
 4856POPC   C1A 9063  43.091  32.995   8.550
 4856POPC   D2A 9064  43.109  33.056   8.250
 4856POPC   C3A 9065  43.149  33.072   7.950
 4856POPC   C4A 9066  43.160  32.988   7.650
 4856POPC   C1B 9067  42.836  32.934   8.550
 4856POPC   C2B 9068  42.884  32.940   8.250
 4856POPC   C3B 9069  42.828  32.956   7.950
 4856POPC   C4B 9070  42.894  32.921   7.650
 4857POPC   NC3 9071  40.789   2.729   9.450
 4857POPC   PO4 9072  40.799   2.803   9.150
 4857POPC   GL1 9073  40.755   2.773   8.850
 4857POPC   GL2 9074  40.733   2.660   8.850
 4857POPC   C1A 9075  40.812   2.766   8.550
 4857POPC   D2A 9076  40.828   2.717   8.250
 4857POPC   C3A 9077  40.738   2.790   7.950
 4857POPC   C4A 9078  40.750   2.781   7.650
 4857POPC   C1B 9079  40.803   2.544   8.550
 4857POPC   C2B 9080  40.722   2.509   8.250
 4857POPC   C3B 9081  40.783   2.492   7.950
 4857POPC   C4B 9082  40.733   2.533   7.650
 4858POPC   NC3 9083  11.335  39.263   9.450
 4858POPC   PO4 9084  11.328  39.259   9.150
 4858POPC   GL1 9085  11.319  39.243   8.850
 4858POPC   GL2 9086  11.267  39.338   8.850
 4858POPC   C1A 9087  11.271  39.217   8.550
 4858POPC   D2A 9088  11.267  39.244   8.250
 4858POPC   C3A 9089  11.315  39.216   7.950
 4858POPC   C4A 9090  11.295  39.275   7.650
 4858POPC   C1B 9091  11.352  39.483   8.550
 4858POPC   C2B 9092  11.304  39.469   8.250
 4858POPC   C3B 9093  11.381  39.464   7.950
 4858POPC   C4B 9094  11.294  39.430   7.650
 4859POPC   NC3 9095   9.705  19.099   9.450
 4859POPC   PO4 9096   9.776  19.031   9.150
 4859POPC   GL1 9097   9.757  19.076   8.850
 4859POPC   GL2 9098   9.841  19.050   8.850
 4859POPC   C1A 9099   9.741  19.075   8.550
 4859POPC   D2A 9100   9.796  19.106   8.250
 4859POPC   C3A 9101   9.704  19.042   7.950
 4859POPC   C4A 9102   9.759  19.103   7.650
 4859POPC   C1B 9103  10.029  19.101   8.550
 4859POPC   C2B 9104  10.014  19.117   8.250
 4859POPC   C3B 9105  10.000  19.076   7.950
 4859POPC   C4B 9106  10.019  19.140   7.650
 4860POPC   NC3 9107  26.813  20.614   9.450
 4860POPC   PO4 9108  26.825  20.564   9.150
 4860POPC   GL1 9109  26.848  20.570   8.850
 4860POPC   GL2 9110  26.745  20.690   8.850
 4860POPC   C1A 9111  26.790  20.589   8.550
 4860POPC   D2A 9112  26.797  20.597   8.250
 4860POPC   C3A 9113  26.782  20.601   7.950
 4860POPC   C4A 9114  26.784  20.617   7.650
 4860POPC   C1B 9115  26.651  20.740   8.550
 4860POPC   C2B 9116  26.645  20.732   8.250
 4860POPC   C3B 9117  26.661  20.763   7.950
 4860POPC   C4B 9118  26.602  20.729   7.650
 4861POPC   NC3 9119  15.165  13.615   9.450
 4861POPC   PO4 9120  15.209  13.584   9.150
 4861POPC   GL1 9121  15.220  13.675   8.850
 4861POPC   GL2 9122  15.083  13.499   8.850
 4861POPC   C1A 9123  15.174  13.672   8.550
 4861POPC   D2A 9124  15.192  13.645   8.250
 4861POPC   C3A 9125  15.146  13.656   7.950
 4861POPC   C4A 9126  15.138  13.586   7.650
 4861POPC   C1B 9127  15.069  13.422   8.550
 4861POPC   C2B 9128  15.093  13.405   8.250
 4861POPC   C3B 9129  15.011  13.380   7.950
 4861POPC   C4B 9130  15.110  13.399   7.650
 4862POPC   NC3 9131  22.928  30.698   9.450
 4862POPC   PO4 9132  22.902  30.671   9.150
 4862POPC   GL1 9133  22.965  30.717   8.850
 4862POPC   GL2 9134  22.835  30.648   8.850
 4862POPC   C1A 9135  22.964  30.727   8.550
 4862POPC   D2A 9136  22.942  30.722   8.250
 4862POPC   C3A 9137  22.959  30.663   7.950
 4862POPC   C4A 9138  22.961  30.731   7.650
 4862POPC   C1B 9139  22.741  30.470   8.550
 4862POPC   C2B 9140  22.748  30.499   8.250
 4862POPC   C3B 9141  22.740  30.468   7.950
 4862POPC   C4B 9142  22.803  30.559   7.650
 4863POPC   NC3 9143  33.828  23.707   9.450
 4863POPC   PO4 9144  33.830  23.705   9.150
 4863POPC   GL1 9145  33.789  23.761   8.850
 4863POPC   GL2 9146  33.870  23.789   8.850
 4863POPC   C1A 9147  33.816  23.695   8.550
 4863POPC   D2A 9148  33.823  23.752   8.250
 4863POPC   C3A 9149  33.787  23.712   7.950
 4863POPC   C4A 9150  33.754  23.716   7.650
 4863POPC   C1B 9151  33.910  23.936   8.550
 4863POPC   C2B 9152  33.980  23.905   8.250
 4863POPC   C3B 9153  33.968  23.922   7.950
 4863POPC   C4B 9154  33.916  23.933   7.650
 4864POPC   NC3 9155  26.088  21.380   9.450
 4864POPC   PO4 9156  26.039  21.350   9.150
 4864POPC   GL1 9157  26.023  21.421   8.850
 4864POPC   GL2 9158  26.213  21.378   8.850
 4864POPC   C1A 9159  26.090  21.385   8.550
 4864POPC   D2A 9160  26.050  21.400   8.250
 4864POPC   C3A 9161  25.997  21.426   7.950
 4864POPC   C4A 9162  26.089  21.363   7.650
 4864POPC   C1B 9163  26.278  21.404   8.550
 4864POPC   C2B 9164  26.296  21.409   8.250
 4864POPC   C3B 9165  26.263  21.381   7.950
 4864POPC   C4B 9166  26.290  21.368   7.650
 4865POPC   NC3 9167  27.635  12.094   9.450
 4865POPC   PO4 9168  27.553  12.037   9.150
 4865POPC   GL1 9169  27.613  12.063   8.850
 4865POPC   GL2 9170  27.482  12.038   8.850
 4865POPC   C1A 9171  27.592  12.090   8.550
 4865POPC   D2A 9172  27.555  12.102   8.250
 4865POPC   C3A 9173  27.619  12.063   7.950
 4865POPC   C4A 9174  27.624  12.124   7.650
 4865POPC   C1B 9175  27.351  11.957   8.550
 4865POPC   C2B 9176  27.400  12.011   8.250
 4865POPC   C3B 9177  27.349  11.977   7.950
 4865POPC   C4B 9178  27.336  12.022   7.650
 4866POPC   NC3 9179  12.846  12.115   9.450
 4866POPC   PO4 9180  12.826  12.078   9.150
 4866POPC   GL1 9181  12.861  12.112   8.850
 4866POPC   GL2 9182  12.754  12.183   8.850
 4866POPC   C1A 9183  12.810  12.069   8.550
 4866POPC   D2A 9184  12.848  12.121   8.250
 4866POPC   C3A 9185  12.869  12.056   7.950
 4866POPC   C4A 9186  12.826  12.124   7.650
 4866POPC   C1B 9187  12.748  12.335   8.550
 4866POPC   C2B 9188  12.730  12.311   8.250
 4866POPC   C3B 9189  12.703  12.261   7.950
 4866POPC   C4B 9190  12.702  12.337   7.650
 4867POPC   NC3 9191   1.971  27.575   9.450
 4867POPC   PO4 9192   2.015  27.641   9.150
 4867POPC   GL1 9193   2.002  27.601   8.850
 4867POPC   GL2 9194   1.873  27.677   8.850
 4867POPC   C1A 9195   1.958  27.627   8.550
 4867POPC   D2A 9196   1.948  27.590   8.250
 4867POPC   C3A 9197   1.959  27.599   7.950
 4867POPC   C4A 9198   1.986  27.563   7.650
 4867POPC   C1B 9199   1.832  27.777   8.550
 4867POPC   C2B 9200   1.807  27.745   8.250
 4867POPC   C3B 9201   1.769  27.766   7.950
 4867POPC   C4B 9202   1.769  27.810   7.650
 4868POPC   NC3 9203  41.540   1.167   9.450
 4868POPC   PO4 9204  41.587   1.261   9.150
 4868POPC   GL1 9205  41.572   1.216   8.850
 4868POPC   GL2 9206  41.470   1.284   8.850
 4868POPC   C1A 9207  41.595   1.242   8.550
 4868POPC   D2A 9208  41.526   1.190   8.250
 4868POPC   C3A 9209  41.525   1.209   7.950
 4868POPC   C4A 9210  41.536   1.251   7.650
 4868POPC   C1B 9211  41.428   1.389   8.550
 4868POPC   C2B 9212  41.357   1.383   8.250
 4868POPC   C3B 9213  41.393   1.371   7.950
 4868POPC   C4B 9214  41.361   1.419   7.650
 4869POPC   NC3 9215  14.365  22.142   9.450
 4869POPC   PO4 9216  14.440  22.130   9.150
 4869POPC   GL1 9217  14.370  22.206   8.850
 4869POPC   GL2 9218  14.340  22.039   8.850
 4869POPC   C1A 9219  14.430  22.161   8.550
 4869POPC   D2A 9220  14.363  22.202   8.250
 4869POPC   C3A 9221  14.394  22.178   7.950
 4869POPC   C4A 9222  14.357  22.210   7.650
 4869POPC   C1B 9223  14.308  21.966   8.550
 4869POPC   C2B 9224  14.304  21.966   8.250
 4869POPC   C3B 9225  14.299  21.967   7.950
 4869POPC   C4B 9226  14.327  21.971   7.650
 4870POPC   NC3 9227   8.181  32.986   9.450
 4870POPC   PO4 9228   8.172  33.001   9.150
 4870POPC   GL1 9229   8.169  33.068   8.850
 4870POPC   GL2 9230   8.243  32.937   8.850
 4870POPC   C1A 9231   8.171  32.995   8.550
 4870POPC   D2A 9232   8.157  33.003   8.250
 4870POPC   C3A 9233   8.216  33.014   7.950
 4870POPC   C4A 9234   8.184  33.051   7.650
 4870POPC   C1B 9235   8.294  32.798   8.550
 4870POPC   C2B 9236   8.269  32.836   8.250
 4870POPC   C3B 9237   8.286  32.781   7.950
 4870POPC   C4B 9238   8.285  32.809   7.650
 4871POPC   NC3 9239  38.484   8.196   9.450
 4871POPC   PO4 9240  38.428   8.172   9.150
 4871POPC   GL1 9241  38.480   8.167   8.850
 4871POPC   GL2 9242  38.533   8.251   8.850
 4871POPC   C1A 9243  38.414   8.148   8.550
 4871POPC   D2A 9244  38.433   8.168   8.250
 4871POPC   C3A 9245  38.472   8.212   7.950
 4871POPC   C4A 9246  38.432   8.191   7.650
 4871POPC   C1B 9247  38.635   8.380   8.550
 4871POPC   C2B 9248  38.594   8.337   8.250
 4871POPC   C3B 9249  38.637   8.400   7.950
 4871POPC   C4B 9250  38.640   8.347   7.650
 4872POPC   NC3 9251   3.559  43.894   9.450
 4872POPC   PO4 9252   3.543  43.840   9.150
 4872POPC   GL1 9253   3.491  43.854   8.850
 4872POPC   GL2 9254   3.442  43.954   8.850
 4872POPC   C1A 9255   3.580  43.929   8.550
 4872POPC   D2A 9256   3.522  43.907   8.250
 4872POPC   C3A 9257   3.572  43.906   7.950
 4872POPC   C4A 9258   3.584  43.910   7.650
 4872POPC   C1B 9259   3.313  44.010   8.550
 4872POPC   C2B 9260   3.319  44.032   8.250
 4872POPC   C3B 9261   3.310  43.993   7.950
 4872POPC   C4B 9262   3.331  44.013   7.650
 4873POPC   NC3 9263  33.794   8.228   9.450
 4873POPC   PO4 9264  33.823   8.150   9.150
 4873POPC   GL1 9265  33.846   8.158   8.850
 4873POPC   GL2 9266  33.843   8.270   8.850
 4873POPC   C1A 9267  33.828   8.224   8.550
 4873POPC   D2A 9268  33.813   8.208   8.250
 4873POPC   C3A 9269  33.820   8.176   7.950
 4873POPC   C4A 9270  33.767   8.223   7.650
 4873POPC   C1B 9271  33.952   8.347   8.550
 4873POPC   C2B 9272  33.982   8.340   8.250
 4873POPC   C3B 9273  33.974   8.370   7.950
 4873POPC   C4B 9274  33.980   8.361   7.650
 4874POPC   NC3 9275  40.782  25.301   9.450
 4874POPC   PO4 9276  40.778  25.266   9.150
 4874POPC   GL1 9277  40.786  25.255   8.850
 4874POPC   GL2 9278  40.936  25.274   8.850
 4874POPC   C1A 9279  40.733  25.227   8.550
 4874POPC   D2A 9280  40.832  25.222   8.250
 4874POPC   C3A 9281  40.768  25.231   7.950
 4874POPC   C4A 9282  40.739  25.278   7.650
 4874POPC   C1B 9283  41.001  25.351   8.550
 4874POPC   C2B 9284  41.028  25.318   8.250
 4874POPC   C3B 9285  41.047  25.350   7.950
 4874POPC   C4B 9286  41.017  25.297   7.650
 4875POPC   NC3 9287   5.857  20.600   9.450
 4875POPC   PO4 9288   5.837  20.630   9.150
 4875POPC   GL1 9289   5.891  20.587   8.850
 4875POPC   GL2 9290   5.769  20.643   8.850
 4875POPC   C1A 9291   5.844  20.604   8.550
 4875POPC   D2A 9292   5.869  20.578   8.250
 4875POPC   C3A 9293   5.858  20.571   7.950
 4875POPC   C4A 9294   5.838  20.604   7.650
 4875POPC   C1B 9295   5.667  20.585   8.550
 4875POPC   C2B 9296   5.624  20.632   8.250
 4875POPC   C3B 9297   5.603  20.607   7.950
 4875POPC   C4B 9298   5.633  20.632   7.650
 4876POPC   NC3 9299  11.308  41.532   9.450
 4876POPC   PO4 9300  11.285  41.557   9.150
 4876POPC   GL1 9301  11.309  41.527   8.850
 4876POPC   GL2 9302  11.440  41.455   8.850
 4876POPC   C1A 9303  11.313  41.588   8.550
 4876POPC   D2A 9304  11.275  41.607   8.250
 4876POPC   C3A 9305  11.346  41.522   7.950
 4876POPC   C4A 9306  11.341  41.534   7.650
 4876POPC   C1B 9307  11.439  41.412   8.550
 4876POPC   C2B 9308  11.472  41.384   8.250
 4876POPC   C3B 9309  11.468  41.384   7.950
 4876POPC   C4B 9310  11.475  41.432   7.650
 4877POPC   NC3 9311  20.574  22.954   9.450
 4877POPC   PO4 9312  20.578  22.900   9.150
 4877POPC   GL1 9313  20.600  22.914   8.850
 4877POPC   GL2 9314  20.589  23.064   8.850
 4877POPC   C1A 9315  20.590  22.972   8.550
 4877POPC   D2A 9316  20.654  22.928   8.250
 4877POPC   C3A 9317  20.639  22.955   7.950
 4877POPC   C4A 9318  20.567  22.979   7.650
 4877POPC   C1B 9319  20.494  23.138   8.550
 4877POPC   C2B 9320  20.491  23.146   8.250
 4877POPC   C3B 9321  20.522  23.191   7.950
 4877POPC   C4B 9322  20.535  23.177   7.650
 4878POPC   NC3 9323  32.279  35.333   9.450
 4878POPC   PO4 9324  32.235  35.382   9.150
 4878POPC   GL1 9325  32.229  35.379   8.850
 4878POPC   GL2 9326  32.136  35.265   8.850
 4878POPC   C1A 9327  32.277  35.399   8.550
 4878POPC   D2A 9328  32.214  35.380   8.250
 4878POPC   C3A 9329  32.266  35.365   7.950
 4878POPC   C4A 9330  32.280  35.363   7.650
 4878POPC   C1B 9331  31.996  35.223   8.550
 4878POPC   C2B 9332  32.080  35.187   8.250
 4878POPC   C3B 9333  32.015  35.223   7.950
 4878POPC   C4B 9334  32.005  35.249   7.650
 4879POPC   NC3 9335  12.101  34.583   9.450
 4879POPC   PO4 9336  12.043  34.550   9.150
 4879POPC   GL1 9337  12.085  34.607   8.850
 4879POPC   GL2 9338  12.046  34.473   8.850
 4879POPC   C1A 9339  12.113  34.572   8.550
 4879POPC   D2A 9340  12.119  34.544   8.250
 4879POPC   C3A 9341  12.033  34.616   7.950
 4879POPC   C4A 9342  12.111  34.599   7.650
 4879POPC   C1B 9343  12.019  34.369   8.550
 4879POPC   C2B 9344  12.045  34.291   8.250
 4879POPC   C3B 9345  12.045  34.374   7.950
 4879POPC   C4B 9346  11.962  34.367   7.650
 4880POPC   NC3 9347  27.621  39.995   9.450
 4880POPC   PO4 9348  27.597  39.994   9.150
 4880POPC   GL1 9349  27.625  39.972   8.850
 4880POPC   GL2 9350  27.676  40.050   8.850
 4880POPC   C1A 9351  27.558  39.987   8.550
 4880POPC   D2A 9352  27.633  40.047   8.250
 4880POPC   C3A 9353  27.593  40.056   7.950
 4880POPC   C4A 9354  27.641  39.962   7.650
 4880POPC   C1B 9355  27.853  40.142   8.550
 4880POPC   C2B 9356  27.838  40.103   8.250
 4880POPC   C3B 9357  27.819  40.146   7.950
 4880POPC   C4B 9358  27.784  40.124   7.650
 4881POPC   NC3 9359  11.275  18.289   9.450
 4881POPC   PO4 9360  11.336  18.248   9.150
 4881POPC   GL1 9361  11.341  18.303   8.850
 4881POPC   GL2 9362  11.409  18.320   8.850
 4881POPC   C1A 9363  11.310  18.294   8.550
 4881POPC   D2A 9364  11.284  18.246   8.250
 4881POPC   C3A 9365  11.311  18.238   7.950
 4881POPC   C4A 9366  11.323  18.284   7.650
 4881POPC   C1B 9367  11.554  18.349   8.550
 4881POPC   C2B 9368  11.561  18.389   8.250
 4881POPC   C3B 9369  11.566  18.354   7.950
 4881POPC   C4B 9370  11.560  18.367   7.650
 4882POPC   NC3 9371  38.448   6.644   9.450
 4882POPC   PO4 9372  38.435   6.603   9.150
 4882POPC   GL1 9373  38.420   6.638   8.850
 4882POPC   GL2 9374  38.385   6.676   8.850
 4882POPC   C1A 9375  38.422   6.620   8.550
 4882POPC   D2A 9376  38.411   6.630   8.250
 4882POPC   C3A 9377  38.486   6.604   7.950
 4882POPC   C4A 9378  38.459   6.664   7.650
 4882POPC   C1B 9379  38.264   6.801   8.550
 4882POPC   C2B 9380  38.219   6.760   8.250
 4882POPC   C3B 9381  38.240   6.799   7.950
 4882POPC   C4B 9382  38.237   6.832   7.650
 4883POPC   NC3 9383  42.331   6.690   9.450
 4883POPC   PO4 9384  42.292   6.621   9.150
 4883POPC   GL1 9385  42.315   6.604   8.850
 4883POPC   GL2 9386  42.431   6.582   8.850
 4883POPC   C1A 9387  42.314   6.667   8.550
 4883POPC   D2A 9388  42.317   6.675   8.250
 4883POPC   C3A 9389  42.371   6.622   7.950
 4883POPC   C4A 9390  42.316   6.618   7.650
 4883POPC   C1B 9391  42.500   6.550   8.550
 4883POPC   C2B 9392  42.557   6.521   8.250
 4883POPC   C3B 9393  42.546   6.474   7.950
 4883POPC   C4B 9394  42.512   6.504   7.650
 4884POPC   NC3 9395  16.762  11.293   9.450
 4884POPC   PO4 9396  16.704  11.288   9.150
 4884POPC   GL1 9397  16.752  11.256   8.850
 4884POPC   GL2 9398  16.813  11.447   8.850
 4884POPC   C1A 9399  16.726  11.340   8.550
 4884POPC   D2A 9400  16.761  11.339   8.250
 4884POPC   C3A 9401  16.686  11.264   7.950
 4884POPC   C4A 9402  16.714  11.308   7.650
 4884POPC   C1B 9403  16.802  11.521   8.550
 4884POPC   C2B 9404  16.814  11.579   8.250
 4884POPC   C3B 9405  16.813  11.533   7.950
 4884POPC   C4B 9406  16.823  11.571   7.650
 4885POPC   NC3 9407   6.614  36.947   9.450
 4885POPC   PO4 9408   6.630  36.939   9.150
 4885POPC   GL1 9409   6.610  36.943   8.850
 4885POPC   GL2 9410   6.678  36.785   8.850
 4885POPC   C1A 9411   6.669  36.952   8.550
 4885POPC   D2A 9412   6.686  36.862   8.250
 4885POPC   C3A 9413   6.685  36.934   7.950
 4885POPC   C4A 9414   6.596  36.930   7.650
 4885POPC   C1B 9415   6.654  36.619   8.550
 4885POPC   C2B 9416   6.635  36.650   8.250
 4885POPC   C3B 9417   6.656  36.618   7.950
 4885POPC   C4B 9418   6.643  36.646   7.650
 4886POPC   NC3 9419   5.059  33.782   9.450
 4886POPC   PO4 9420   5.123  33.773   9.150
 4886POPC   GL1 9421   5.071  33.775   8.850
 4886POPC   GL2 9422   5.221  33.748   8.850
 4886POPC   C1A 9423   5.047  33.796   8.550
 4886POPC   D2A 9424   5.105  33.764   8.250
 4886POPC   C3A 9425   5.053  33.755   7.950
 4886POPC   C4A 9426   5.088  33.797   7.650
 4886POPC   C1B 9427   5.346  33.758   8.550
 4886POPC   C2B 9428   5.290  33.689   8.250
 4886POPC   C3B 9429   5.281  33.707   7.950
 4886POPC   C4B 9430   5.334  33.744   7.650
 4887POPC   NC3 9431  43.126  43.095   9.450
 4887POPC   PO4 9432  43.099  43.072   9.150
 4887POPC   GL1 9433  43.109  43.063   8.850
 4887POPC   GL2 9434  43.272  43.123   8.850
 4887POPC   C1A 9435  43.067  43.120   8.550
 4887POPC   D2A 9436  43.075  43.075   8.250
 4887POPC   C3A 9437  43.107  43.100   7.950
 4887POPC   C4A 9438  43.139  43.140   7.650
 4887POPC   C1B 9439  43.380  43.023   8.550
 4887POPC   C2B 9440  43.356  43.069   8.250
 4887POPC   C3B 9441  43.396  43.036   7.950
 4887POPC   C4B 9442  43.310  43.030   7.650
 4888POPC   NC3 9443  37.693  23.726   9.450
 4888POPC   PO4 9444  37.725  23.684   9.150
 4888POPC   GL1 9445  37.697  23.748   8.850
 4888POPC   GL2 9446  37.743  23.630   8.850
 4888POPC   C1A 9447  37.652  23.762   8.550
 4888POPC   D2A 9448  37.723  23.704   8.250
 4888POPC   C3A 9449  37.723  23.666   7.950
 4888POPC   C4A 9450  37.715  23.718   7.650
 4888POPC   C1B 9451  37.803  23.522   8.550
 4888POPC   C2B 9452  37.820  23.461   8.250
 4888POPC   C3B 9453  37.773  23.485   7.950
 4888POPC   C4B 9454  37.802  23.488   7.650
 4889POPC   NC3 9455  39.188  28.321   9.450
 4889POPC   PO4 9456  39.223  28.414   9.150
 4889POPC   GL1 9457  39.187  28.322   8.850
 4889POPC   GL2 9458  39.277  28.501   8.850
 4889POPC   C1A 9459  39.232  28.342   8.550
 4889POPC   D2A 9460  39.239  28.378   8.250
 4889POPC   C3A 9461  39.256  28.418   7.950
 4889POPC   C4A 9462  39.188  28.329   7.650
 4889POPC   C1B 9463  39.323  28.614   8.550
 4889POPC   C2B 9464  39.285  28.622   8.250
 4889POPC   C3B 9465  39.266  28.590   7.950
 4889POPC   C4B 9466  39.345  28.635   7.650
 4890POPC   NC3 9467  13.639   4.293   9.450
 4890POPC   PO4 9468  13.674   4.295   9.150
 4890POPC   GL1 9469  13.609   4.315   8.850
 4890POPC   GL2 9470  13.718   4.234   8.850
 4890POPC   C1A 9471  13.634   4.345   8.550
 4890POPC   D2A 9472  13.606   4.353   8.250
 4890POPC   C3A 9473  13.620   4.305   7.950
 4890POPC   C4A 9474  13.676   4.273   7.650
 4890POPC   C1B 9475  13.775   4.182   8.550
 4890POPC   C2B 9476  13.835   4.180   8.250
 4890POPC   C3B 9477  13.869   4.206   7.950
 4890POPC   C4B 9478  13.870   4.167   7.650
 4891POPC   NC3 9479   9.789  37.658   9.450
 4891POPC   PO4 9480   9.762  37.675   9.150
 4891POPC   GL1 9481   9.790  37.695   8.850
 4891POPC   GL2 9482   9.745  37.572   8.850
 4891POPC   C1A 9483   9.764  37.639   8.550
 4891POPC   D2A 9484   9.713  37.726   8.250
 4891POPC   C3A 9485   9.703  37.710   7.950
 4891POPC   C4A 9486   9.757  37.655   7.650
 4891POPC   C1B 9487   9.862  37.459   8.550
 4891POPC   C2B 9488   9.772  37.483   8.250
 4891POPC   C3B 9489   9.841  37.468   7.950
 4891POPC   C4B 9490   9.834  37.441   7.650
 4892POPC   NC3 9491  24.537  17.462   9.450
 4892POPC   PO4 9492  24.539  17.519   9.150
 4892POPC   GL1 9493  24.498  17.486   8.850
 4892POPC   GL2 9494  24.363  17.426   8.850
 4892POPC   C1A 9495  24.461  17.458   8.550
 4892POPC   D2A 9496  24.456  17.532   8.250
 4892POPC   C3A 9497  24.468  17.486   7.950
 4892POPC   C4A 9498  24.516  17.537   7.650
 4892POPC   C1B 9499  24.332  17.353   8.550
 4892POPC   C2B 9500  24.345  17.360   8.250
 4892POPC   C3B 9501  24.304  17.395   7.950
 4892POPC   C4B 9502  24.268  17.370   7.650
 4893POPC   NC3 9503  34.622  30.681   9.450
 4893POPC   PO4 9504  34.624  30.656   9.150
 4893POPC   GL1 9505  34.590  30.711   8.850
 4893POPC   GL2 9506  34.735  30.724   8.850
 4893POPC   C1A 9507  34.556  30.670   8.550
 4893POPC   D2A 9508  34.587  30.705   8.250
 4893POPC   C3A 9509  34.623  30.716   7.950
 4893POPC   C4A 9510  34.605  30.740   7.650
 4893POPC   C1B 9511  34.789  30.662   8.550
 4893POPC   C2B 9512  34.776  30.676   8.250
 4893POPC   C3B 9513  34.774  30.674   7.950
 4893POPC   C4B 9514  34.839  30.649   7.650
 4894POPC   NC3 9515  29.188  36.906   9.450
 4894POPC   PO4 9516  29.136  36.925   9.150
 4894POPC   GL1 9517  29.186  36.916   8.850
 4894POPC   GL2 9518  29.011  36.957   8.850
 4894POPC   C1A 9519  29.135  36.926   8.550
 4894POPC   D2A 9520  29.106  36.906   8.250
 4894POPC   C3A 9521  29.127  36.896   7.950
 4894POPC   C4A 9522  29.103  36.925   7.650
 4894POPC   C1B 9523  28.923  37.080   8.550
 4894POPC   C2B 9524  28.994  37.121   8.250
 4894POPC   C3B 9525  28.927  37.052   7.950
 4894POPC   C4B 9526  28.925  37.078   7.650
 4895POPC   NC3 9527   5.083  18.327   9.450
 4895POPC   PO4 9528   5.117  18.238   9.150
 4895POPC   GL1 9529   5.078  18.297   8.850
 4895POPC   GL2 9530   4.956  18.192   8.850
 4895POPC   C1A 9531   5.084  18.251   8.550
 4895POPC   D2A 9532   5.106  18.322   8.250
 4895POPC   C3A 9533   5.097  18.328   7.950
 4895POPC   C4A 9534   5.069  18.281   7.650
 4895POPC   C1B 9535   4.841  18.220   8.550
 4895POPC   C2B 9536   4.901  18.170   8.250
 4895POPC   C3B 9537   4.822  18.137   7.950
 4895POPC   C4B 9538   4.862  18.153   7.650
 4896POPC   NC3 9539   0.413   4.339   9.450
 4896POPC   PO4 9540   0.389   4.268   9.150
 4896POPC   GL1 9541   0.417   4.311   8.850
 4896POPC   GL2 9542   0.337   4.404   8.850
 4896POPC   C1A 9543   0.409   4.348   8.550
 4896POPC   D2A 9544   0.439   4.340   8.250
 4896POPC   C3A 9545   0.392   4.287   7.950
 4896POPC   C4A 9546   0.459   4.325   7.650
 4896POPC   C1B 9547   0.279   4.523   8.550
 4896POPC   C2B 9548   0.257   4.491   8.250
 4896POPC   C3B 9549   0.326   4.520   7.950
 4896POPC   C4B 9550   0.286   4.479   7.650
 4897POPC   NC3 9551  15.914  31.433   9.450
 4897POPC   PO4 9552  15.958  31.501   9.150
 4897POPC   GL1 9553  15.972  31.432   8.850
 4897POPC   GL2 9554  15.881  31.425   8.850
 4897POPC   C1A 9555  15.979  31.495   8.550
 4897POPC   D2A 9556  15.981  31.477   8.250
 4897POPC   C3A 9557  15.976  31.469   7.950
 4897POPC   C4A 9558  15.998  31.478   7.650
 4897POPC   C1B 9559  15.682  31.352   8.550
 4897POPC   C2B 9560  15.725  31.408   8.250
 4897POPC   C3B 9561  15.695  31.390   7.950
 4897POPC   C4B 9562  15.729  31.363   7.650
 4898POPC   NC3 9563  29.167  28.358   9.450
 4898POPC   PO4 9564  29.149  28.411   9.150
 4898POPC   GL1 9565  29.155  28.345   8.850
 4898POPC   GL2 9566  29.211  28.450   8.850
 4898POPC   C1A 9567  29.175  28.348   8.550
 4898POPC   D2A 9568  29.144  28.329   8.250
 4898POPC   C3A 9569  29.152  28.366   7.950
 4898POPC   C4A 9570  29.133  28.384   7.650
 4898POPC   C1B 9571  29.305  28.556   8.550
 4898POPC   C2B 9572  29.317  28.543   8.250
 4898POPC   C3B 9573  29.307  28.571   7.950
 4898POPC   C4B 9574  29.325  28.550   7.650
 4899POPC   NC3 9575  36.858  25.259   9.450
 4899POPC   PO4 9576  36.869  25.217   9.150
 4899POPC   GL1 9577  36.937  25.260   8.850
 4899POPC   GL2 9578  37.014  25.135   8.850
 4899POPC   C1A 9579  36.927  25.266   8.550
 4899POPC   D2A 9580  36.902  25.288   8.250
 4899POPC   C3A 9581  36.905  25.299   7.950
 4899POPC   C4A 9582  36.881  25.224   7.650
 4899POPC   C1B 9583  37.065  25.054   8.550
 4899POPC   C2B 9584  37.140  25.075   8.250
 4899POPC   C3B 9585  37.086  25.053   7.950
 4899POPC   C4B 9586  37.044  25.055   7.650
 4900POPC   NC3 9587  33.025  43.912   9.450
 4900POPC   PO4 9588  33.047  43.893   9.150
 4900POPC   GL1 9589  32.981  43.927   8.850
 4900POPC   GL2 9590  32.914  43.875   8.850
 4900POPC   C1A 9591  33.028  43.908   8.550
 4900POPC   D2A 9592  33.017  43.879   8.250
 4900POPC   C3A 9593  32.990  43.855   7.950
 4900POPC   C4A 9594  33.023  43.857   7.650
 4900POPC   C1B 9595  32.812  43.753   8.550
 4900POPC   C2B 9596  32.796  43.810   8.250
 4900POPC   C3B 9597  32.772  43.809   7.950
 4900POPC   C4B 9598  32.840  43.744   7.650
 4901POPC   NC3 9599  40.747  21.407   9.450
 4901POPC   PO4 9600  40.832  21.417   9.150
 4901POPC   GL1 9601  40.762  21.395   8.850
 4901POPC   GL2 9602  40.832  21.538   8.850
 4901POPC   C1A 9603  40.771  21.415   8.550
 4901POPC   D2A 9604  40.735  21.412   8.250
 4901POPC   C3A 9605  40.793  21.412   7.950
 4901POPC   C4A 9606  40.752  21.421   7.650
 4901POPC   C1B 9607  40.907  21.632   8.550
 4901POPC   C2B 9608  40.961  21.613   8.250
 4901POPC   C3B 9609  40.912  21.566   7.950
 4901POPC   C4B 9610  40.934  21.621   7.650
 4902POPC   NC3 9611  16.713   2.006   9.450
 4902POPC   PO4 9612  16.739   2.002   9.150
 4902POPC   GL1 9613  16.737   2.003   8.850
 4902POPC   GL2 9614  16.886   1.974   8.850
 4902POPC   C1A 9615  16.713   1.969   8.550
 4902POPC   D2A 9616  16.726   1.973   8.250
 4902POPC   C3A 9617  16.690   2.021   7.950
 4902POPC   C4A 9618  16.708   1.953   7.650
 4902POPC   C1B 9619  17.011   1.904   8.550
 4902POPC   C2B 9620  16.971   1.963   8.250
 4902POPC   C3B 9621  16.969   1.979   7.950
 4902POPC   C4B 9622  16.949   1.962   7.650
 4903POPC   NC3 9623   1.978  18.271   9.450
 4903POPC   PO4 9624   1.978  18.287   9.150
 4903POPC   GL1 9625   1.952  18.314   8.850
 4903POPC   GL2 9626   1.913  18.132   8.850
 4903POPC   C1A 9627   2.002  18.295   8.550
 4903POPC   D2A 9628   2.027  18.319   8.250
 4903POPC   C3A 9629   1.940  18.259   7.950
 4903POPC   C4A 9630   1.953  18.243   7.650
 4903POPC   C1B 9631   1.869  18.018   8.550
 4903POPC   C2B 9632   1.890  18.100   8.250
 4903POPC   C3B 9633   1.842  18.105   7.950
 4903POPC   C4B 9634   1.860  18.078   7.650
 4904POPC   NC3 9635  44.680  21.423   9.450
 4904POPC   PO4 9636  44.624  21.354   9.150
 4904POPC   GL1 9637  44.669  21.428   8.850
 4904POPC   GL2 9638  44.708  21.436   8.850
 4904POPC   C1A 9639  44.622  21.417   8.550
 4904POPC   D2A 9640  44.693  21.426   8.250
 4904POPC   C3A 9641  44.632  21.371   7.950
 4904POPC   C4A 9642  44.636  21.435   7.650
 4904POPC   C1B 9643  44.853  21.576   8.550
 4904POPC   C2B 9644  44.816  21.562   8.250
 4904POPC   C3B 9645  44.800  21.580   7.950
 4904POPC   C4B 9646  44.849  21.555   7.650
 4905POPC   NC3 9647   2.010  26.842   9.450
 4905POPC   PO4 9648   1.970  26.768   9.150
 4905POPC   GL1 9649   1.977  26.845   8.850
 4905POPC   GL2 9650   2.035  26.917   8.850
 4905POPC   C1A 9651   2.007  26.781   8.550
 4905POPC   D2A 9652   1.962  26.854   8.250
 4905POPC   C3A 9653   2.025  26.786   7.950
 4905POPC   C4A 9654   1.990  26.788   7.650
 4905POPC   C1B 9655   2.076  27.025   8.550
 4905POPC   C2B 9656   2.103  27.053   8.250
 4905POPC   C3B 9657   2.046  27.038   7.950
 4905POPC   C4B 9658   2.071  27.003   7.650
 4906POPC   NC3 9659  22.915  28.358   9.450
 4906POPC   PO4 9660  22.920  28.353   9.150
 4906POPC   GL1 9661  22.910  28.353   8.850
 4906POPC   GL2 9662  22.855  28.369   8.850
 4906POPC   C1A 9663  22.911  28.418   8.550
 4906POPC   D2A 9664  22.980  28.388   8.250
 4906POPC   C3A 9665  22.888  28.391   7.950
 4906POPC   C4A 9666  22.943  28.376   7.650
 4906POPC   C1B 9667  22.675  28.353   8.550
 4906POPC   C2B 9668  22.695  28.305   8.250
 4906POPC   C3B 9669  22.700  28.297   7.950
 4906POPC   C4B 9670  22.733  28.342   7.650
 4907POPC   NC3 9671   0.440  12.048   9.450
 4907POPC   PO4 9672   0.440  12.102   9.150
 4907POPC   GL1 9673   0.438  12.070   8.850
 4907POPC   GL2 9674   0.533  12.040   8.850
 4907POPC   C1A 9675   0.462  12.118   8.550
 4907POPC   D2A 9676   0.390  12.082   8.250
 4907POPC   C3A 9677   0.414  12.060   7.950
 4907POPC   C4A 9678   0.415  12.104   7.650
 4907POPC   C1B 9679   0.599  11.900   8.550
 4907POPC   C2B 9680   0.640  11.890   8.250
 4907POPC   C3B 9681   0.648  11.958   7.950
 4907POPC   C4B 9682   0.613  11.965   7.650
 4908POPC   NC3 9683  26.071  40.805   9.450
 4908POPC   PO4 9684  25.997  40.783   9.150
 4908POPC   GL1 9685  26.036  40.830   8.850
 4908POPC   GL2 9686  25.969  40.835   8.850
 4908POPC   C1A 9687  26.090  40.792   8.550
 4908POPC   D2A 9688  26.084  40.791   8.250
 4908POPC   C3A 9689  25.999  40.756   7.950
 4908POPC   C4A 9690  26.011  40.793   7.650
 4908POPC   C1B 9691  25.829  40.828   8.550
 4908POPC   C2B 9692  25.817  40.820   8.250
 4908POPC   C3B 9693  25.771  40.846   7.950
 4908POPC   C4B 9694  25.794  40.805   7.650
 4909POPC   NC3 9695   8.925  35.391   9.450
 4909POPC   PO4 9696   8.930  35.376   9.150
 4909POPC   GL1 9697   8.971  35.304   8.850
 4909POPC   GL2 9698   8.915  35.274   8.850
 4909POPC   C1A 9699   8.963  35.385   8.550
 4909POPC   D2A 9700   8.960  35.388   8.250
 4909POPC   C3A 9701   9.001  35.315   7.950
 4909POPC   C4A 9702   8.987  35.330   7.650
 4909POPC   C1B 9703   8.776  35.217   8.550
 4909POPC   C2B 9704   8.748  35.200   8.250
 4909POPC   C3B 9705   8.817  35.212   7.950
 4909POPC   C4B 9706   8.740  35.239   7.650
 4910POPC   NC3 9707  25.286   7.392   9.450
 4910POPC   PO4 9708  25.258   7.417   9.150
 4910POPC   GL1 9709  25.251   7.391   8.850
 4910POPC   GL2 9710  25.117   7.398   8.850
 4910POPC   C1A 9711  25.312   7.452   8.550
 4910POPC   D2A 9712  25.300   7.444   8.250
 4910POPC   C3A 9713  25.266   7.427   7.950
 4910POPC   C4A 9714  25.294   7.425   7.650
 4910POPC   C1B 9715  24.987   7.358   8.550
 4910POPC   C2B 9716  25.040   7.370   8.250
 4910POPC   C3B 9717  25.070   7.402   7.950
 4910POPC   C4B 9718  25.067   7.348   7.650
 4911POPC   NC3 9719  10.485  29.900   9.450
 4911POPC   PO4 9720  10.555  29.877   9.150
 4911POPC   GL1 9721  10.494  29.960   8.850
 4911POPC   GL2 9722  10.667  29.843   8.850
 4911POPC   C1A 9723  10.490  29.930   8.550
 4911POPC   D2A 9724  10.515  29.929   8.250
 4911POPC   C3A 9725  10.483  29.934   7.950
 4911POPC   C4A 9726  10.496  29.877   7.650
 4911POPC   C1B 9727  10.694  29.744   8.550
 4911POPC   C2B 9728  10.716  29.788   8.250
 4911POPC   C3B 9729  10.729  29.730   7.950
 4911POPC   C4B 9730  10.676  29.808   7.650
 4912POPC   NC3 9731  32.987  26.058   9.450
 4912POPC   PO4 9732  33.024  26.059   9.150
 4912POPC   GL1 9733  33.014  26.029   8.850
 4912POPC   GL2 9734  32.910  26.039   8.850
 4912POPC   C1A 9735  33.066  26.019   8.550
 4912POPC   D2A 9736  33.024  26.020   8.250
 4912POPC   C3A 9737  32.993  26.071   7.950
 4912POPC   C4A 9738  33.035  26.039   7.650
 4912POPC   C1B 9739  32.732  26.030   8.550
 4912POPC   C2B 9740  32.743  26.022   8.250
 4912POPC   C3B 9741  32.818  26.000   7.950
 4912POPC   C4B 9742  32.779  26.029   7.650
 4913POPC   NC3 9743   1.225  36.936   9.450
 4913POPC   PO4 9744   1.165  36.929   9.150
 4913POPC   GL1 9745   1.249  36.923   8.850
 4913POPC   GL2 9746   1.268  36.981   8.850
 4913POPC   C1A 9747   1.261  36.899   8.550
 4913POPC   D2A 9748   1.241  36.881   8.250
 4913POPC   C3A 9749   1.218  36.946   7.950
 4913POPC   C4A 9750   1.244  36.856   7.650
 4913POPC   C1B 9751   1.387  37.152   8.550
 4913POPC   C2B 9752   1.338  37.082   8.250
 4913POPC   C3B 9753   1.349  37.163   7.950
 4913POPC   C4B 9754   1.307  37.081   7.650
 4914POPC   NC3 9755  41.588  11.348   9.450
 4914POPC   PO4 9756  41.559  11.317   9.150
 4914POPC   GL1 9757  41.527  11.321   8.850
 4914POPC   GL2 9758  41.472  11.252   8.850
 4914POPC   C1A 9759  41.561  11.301   8.550
 4914POPC   D2A 9760  41.572  11.307   8.250
 4914POPC   C3A 9761  41.594  11.263   7.950
 4914POPC   C4A 9762  41.572  11.332   7.650
 4914POPC   C1B 9763  41.342  11.241   8.550
 4914POPC   C2B 9764  41.282  11.233   8.250
 4914POPC   C3B 9765  41.286  11.258   7.950
 4914POPC   C4B 9766  41.337  11.194   7.650
 4915POPC   NC3 9767  27.637  40.811   9.450
 4915POPC   PO4 9768  27.611  40.803   9.150
 4915POPC   GL1 9769  27.603  40.737   8.850
 4915POPC   GL2 9770  27.463  40.781   8.850
 4915POPC   C1A 9771  27.634  40.786   8.550
 4915POPC   D2A 9772  27.585  40.810   8.250
 4915POPC   C3A 9773  27.620  40.805   7.950
 4915POPC   C4A 9774  27.635  40.788   7.650
 4915POPC   C1B 9775  27.377  40.835   8.550
 4915POPC   C2B 9776  27.390  40.756   8.250
 4915POPC   C3B 9777  27.324  40.816   7.950
 4915POPC   C4B 9778  27.383  40.830   7.650
 4916POPC   NC3 9779  16.709  25.227   9.450
 4916POPC   PO4 9780  16.781  25.267   9.150
 4916POPC   GL1 9781  16.747  25.274   8.850
 4916POPC   GL2 9782  16.786  25.126   8.850
 4916POPC   C1A 9783  16.712  25.264   8.550
 4916POPC   D2A 9784  16.712  25.300   8.250
 4916POPC   C3A 9785  16.775  25.254   7.950
 4916POPC   C4A 9786  16.747  25.260   7.650
 4916POPC   C1B 9787  16.931  25.122   8.550
 4916POPC   C2B 9788  16.858  25.121   8.250
 4916POPC   C3B 9789  16.940  25.082   7.950
 4916POPC   C4B 9790  16.908  25.070   7.650
 4917POPC   NC3 9791   3.585  22.147   9.450
 4917POPC   PO4 9792   3.515  22.185   9.150
 4917POPC   GL1 9793   3.540  22.137   8.850
 4917POPC   GL2 9794   3.679  22.135   8.850
 4917POPC   C1A 9795   3.523  22.196   8.550
 4917POPC   D2A 9796   3.494  22.158   8.250
 4917POPC   C3A 9797   3.497  22.141   7.950
 4917POPC   C4A 9798   3.494  22.136   7.650
 4917POPC   C1B 9799   3.793  22.009   8.550
 4917POPC   C2B 9800   3.770  22.026   8.250
 4917POPC   C3B 9801   3.705  22.062   7.950
 4917POPC   C4B 9802   3.697  22.008   7.650
 4918POPC   NC3 9803   9.757  10.539   9.450
 4918POPC   PO4 9804   9.764  10.478   9.150
 4918POPC   GL1 9805   9.737  10.486   8.850
 4918POPC   GL2 9806   9.588  10.504   8.850
 4918POPC   C1A 9807   9.796  10.483   8.550
 4918POPC   D2A 9808   9.737  10.572   8.250
 4918POPC   C3A 9809   9.744  10.549   7.950
 4918POPC   C4A 9810   9.782  10.479   7.650
 4918POPC   C1B 9811   9.524  10.542   8.550
 4918POPC   C2B 9812   9.451  10.489   8.250
 4918POPC   C3B 9813   9.503  10.489   7.950
 4918POPC   C4B 9814   9.517  10.485   7.650
 4919POPC   NC3 9815  34.540  13.653   9.450
 4919POPC   PO4 9816  34.534  13.636   9.150
 4919POPC   GL1 9817  34.531  13.647   8.850
 4919POPC   GL2 9818  34.575  13.502   8.850
 4919POPC   C1A 9819  34.582  13.581   8.550
 4919POPC   D2A 9820  34.558  13.636   8.250
 4919POPC   C3A 9821  34.528  13.580   7.950
 4919POPC   C4A 9822  34.614  13.675   7.650
 4919POPC   C1B 9823  34.526  13.385   8.550
 4919POPC   C2B 9824  34.566  13.347   8.250
 4919POPC   C3B 9825  34.568  13.376   7.950
 4919POPC   C4B 9826  34.571  13.429   7.650
 4920POPC   NC3 9827  29.922  33.016   9.450
 4920POPC   PO4 9828  29.892  33.006   9.150
 4920POPC   GL1 9829  29.883  33.010   8.850
 4920POPC   GL2 9830  29.841  32.948   8.850
 4920POPC   C1A 9831  29.922  32.999   8.550
 4920POPC   D2A 9832  29.905  33.040   8.250
 4920POPC   C3A 9833  29.931  33.053   7.950
 4920POPC   C4A 9834  29.896  33.023   7.650
 4920POPC   C1B 9835  29.880  32.790   8.550
 4920POPC   C2B 9836  29.877  32.825   8.250
 4920POPC   C3B 9837  29.805  32.734   7.950
 4920POPC   C4B 9838  29.823  32.802   7.650
 4921POPC   NC3 9839   9.792  16.746   9.450
 4921POPC   PO4 9840   9.715  16.767   9.150
 4921POPC   GL1 9841   9.741  16.725   8.850
 4921POPC   GL2 9842   9.769  16.604   8.850
 4921POPC   C1A 9843   9.729  16.763   8.550
 4921POPC   D2A 9844   9.756  16.765   8.250
 4921POPC   C3A 9845   9.749  16.770   7.950
 4921POPC   C4A 9846   9.777  16.699   7.650
 4921POPC   C1B 9847   9.892  16.507   8.550
 4921POPC   C2B 9848   9.804  16.500   8.250
 4921POPC   C3B 9849   9.822  16.478   7.950
 4921POPC   C4B 9850   9.816  16.527   7.650
 4922POPC   NC3 9851   8.996  42.353   9.450
 4922POPC   PO4 9852   8.936  42.337   9.150
 4922POPC   GL1 9853   8.998  42.377   8.850
 4922POPC   GL2 9854   8.849  42.255   8.850
 4922POPC   C1A 9855   8.944  42.366   8.550
 4922POPC   D2A 9856   8.968  42.320   8.250
 4922POPC   C3A 9857   8.966  42.332   7.950
 4922POPC   C4A 9858   8.940  42.333   7.650
 4922POPC   C1B 9859   8.813  42.136   8.550
 4922POPC   C2B 9860   8.791  42.165   8.250
 4922POPC   C3B 9861   8.819  42.125   7.950
 4922POPC   C4B 9862   8.787  42.174   7.650
 4923POPC   NC3 9863  23.684   2.727   9.450
 4923POPC   PO4 9864  23.675   2.815   9.150
 4923POPC   GL1 9865  23.676   2.765   8.850
 4923POPC   GL2 9866  23.776   2.797   8.850
 4923POPC   C1A 9867  23.693   2.783   8.550
 4923POPC   D2A 9868  23.666   2.811   8.250
 4923POPC   C3A 9869  23.680   2.783   7.950
 4923POPC   C4A 9870  23.690   2.804   7.650
 4923POPC   C1B 9871  23.934   2.957   8.550
 4923POPC   C2B 9872  23.869   2.890   8.250
 4923POPC   C3B 9873  23.954   2.955   7.950
 4923POPC   C4B 9874  23.953   2.881   7.650
 4924POPC   NC3 9875  38.453  28.411   9.450
 4924POPC   PO4 9876  38.465  28.366   9.150
 4924POPC   GL1 9877  38.426  28.404   8.850
 4924POPC   GL2 9878  38.508  28.509   8.850
 4924POPC   C1A 9879  38.496  28.383   8.550
 4924POPC   D2A 9880  38.504  28.331   8.250
 4924POPC   C3A 9881  38.499  28.370   7.950
 4924POPC   C4A 9882  38.497  28.365   7.650
 4924POPC   C1B 9883  38.534  28.568   8.550
 4924POPC   C2B 9884  38.552  28.625   8.250
 4924POPC   C3B 9885  38.564  28.610   7.950
 4924POPC   C4B 9886  38.606  28.602   7.650
 4925POPC   NC3 9887  31.433  37.676   9.450
 4925POPC   PO4 9888  31.471  37.674   9.150
 4925POPC   GL1 9889  31.521  37.720   8.850
 4925POPC   GL2 9890  31.462  37.565   8.850
 4925POPC   C1A 9891  31.500  37.706   8.550
 4925POPC   D2A 9892  31.500  37.653   8.250
 4925POPC   C3A 9893  31.465  37.668   7.950
 4925POPC   C4A 9894  31.470  37.700   7.650
 4925POPC   C1B 9895  31.552  37.402   8.550
 4925POPC   C2B 9896  31.518  37.412   8.250
 4925POPC   C3B 9897  31.541  37.464   7.950
 4925POPC   C4B 9898  31.571  37.391   7.650
 4926POPC   NC3 9899   9.781  15.983   9.450
 4926POPC   PO4 9900   9.742  15.999   9.150
 4926POPC   GL1 9901   9.706  15.963   8.850
 4926POPC   GL2 9902   9.821  16.053   8.850
 4926POPC   C1A 9903   9.744  15.957   8.550
 4926POPC   D2A 9904   9.756  15.955   8.250
 4926POPC   C3A 9905   9.743  15.952   7.950
 4926POPC   C4A 9906   9.728  15.932   7.650
 4926POPC   C1B 9907   9.896  16.113   8.550
 4926POPC   C2B 9908   9.909  16.125   8.250
 4926POPC   C3B 9909   9.914  16.120   7.950
 4926POPC   C4B 9910   9.983  16.086   7.650
 4927POPC   NC3 9911  10.504  33.811   9.450
 4927POPC   PO4 9912  10.563  33.751   9.150
 4927POPC   GL1 9913  10.574  33.753   8.850
 4927POPC   GL2 9914  10.568  33.692   8.850
 4927POPC   C1A 9915  10.515  33.842   8.550
 4927POPC   D2A 9916  10.484  33.832   8.250
 4927POPC   C3A 9917  10.519  33.754   7.950
 4927POPC   C4A 9918  10.534  33.793   7.650
 4927POPC   C1B 9919  10.532  33.559   8.550
 4927POPC   C2B 9920  10.541  33.517   8.250
 4927POPC   C3B 9921  10.526  33.585   7.950
 4927POPC   C4B 9922  10.499  33.543   7.650
 4928POPC   NC3 9923  19.829  44.664   9.450
 4928POPC   PO4 9924  19.818  44.689   9.150
 4928POPC   GL1 9925  19.861  44.671   8.850
 4928POPC   GL2 9926  19.965  44.605   8.850
 4928POPC   C1A 9927  19.857  44.640   8.550
 4928POPC   D2A 9928  19.832  44.695   8.250
 4928POPC   C3A 9929  19.818  44.626   7.950
 4928POPC   C4A 9930  19.813  44.683   7.650
 4928POPC   C1B 9931  20.099  44.591   8.550
 4928POPC   C2B 9932  20.080  44.605   8.250
 4928POPC   C3B 9933  20.046  44.518   7.950
 4928POPC   C4B 9934  20.087  44.572   7.650
 4929POPC   NC3 9935  35.302   8.227   9.450
 4929POPC   PO4 9936  35.356   8.202   9.150
 4929POPC   GL1 9937  35.362   8.200   8.850
 4929POPC   GL2 9938  35.486   8.103   8.850
 4929POPC   C1A 9939  35.377   8.153   8.550
 4929POPC   D2A 9940  35.337   8.162   8.250
 4929POPC   C3A 9941  35.373   8.216   7.950
 4929POPC   C4A 9942  35.355   8.218   7.650
 4929POPC   C1B 9943  35.587   8.018   8.550
 4929POPC   C2B 9944  35.539   8.090   8.250
 4929POPC   C3B 9945  35.529   8.094   7.950
 4929POPC   C4B 9946  35.519   8.086   7.650
 4930POPC   NC3 9947  26.007  37.690   9.450
 4930POPC   PO4 9948  26.045  37.657   9.150
 4930POPC   GL1 9949  26.067  37.671   8.850
 4930POPC   GL2 9950  25.965  37.630   8.850
 4930POPC   C1A 9951  25.996  37.685   8.550
 4930POPC   D2A 9952  26.083  37.683   8.250
 4930POPC   C3A 9953  26.059  37.640   7.950
 4930POPC   C4A 9954  26.072  37.712   7.650
 4930POPC   C1B 9955  25.826  37.546   8.550
 4930POPC   C2B 9956  25.822  37.455   8.250
 4930POPC   C3B 9957  25.862  37.537   7.950
 4930POPC   C4B 9958  25.827  37.541   7.650
 4931POPC   NC3 9959  19.023  43.901   9.450
 4931POPC   PO4 9960  19.014  43.910   9.150
 4931POPC   GL1 9961  19.046  43.839   8.850
 4931POPC   GL2 9962  19.031  44.041   8.850
 4931POPC   C1A 9963  19.067  43.905   8.550
 4931POPC   D2A 9964  19.047  43.875   8.250
 4931POPC   C3A 9965  19.094  43.861   7.950
 4931POPC   C4A 9966  19.016  43.861   7.650
 4931POPC   C1B 9967  19.009  44.103   8.550
 4931POPC   C2B 9968  19.066  44.105   8.250
 4931POPC   C3B 9969  19.083  44.166   7.950
 4931POPC   C4B 9970  19.008  44.175   7.650
 4932POPC   NC3 9971   2.764  24.445   9.450
 4932POPC   PO4 9972   2.768  24.466   9.150
 4932POPC   GL1 9973   2.716  24.442   8.850
 4932POPC   GL2 9974   2.899  24.509   8.850
 4932POPC   C1A 9975   2.801  24.489   8.550
 4932POPC   D2A 9976   2.761  24.466   8.250
 4932POPC   C3A 9977   2.721  24.485   7.950
 4932POPC   C4A 9978   2.747  24.445   7.650
 4932POPC   C1B 9979   2.988  24.527   8.550
 4932POPC   C2B 9980   3.000  24.532   8.250
 4932POPC   C3B 9981   2.971  24.603   7.950
 4932POPC   C4B 9982   3.020  24.582   7.650
 4933POPC   NC3 9983  36.152  24.487   9.450
 4933POPC   PO4 9984  36.148  24.514   9.150
 4933POPC   GL1 9985  36.153  24.449   8.850
 4933POPC   GL2 9986  36.177  24.386   8.850
 4933POPC   C1A 9987  36.111  24.512   8.550
 4933POPC   D2A 9988  36.126  24.488   8.250
 4933POPC   C3A 9989  36.109  24.497   7.950
 4933POPC   C4A 9990  36.166  24.463   7.650
 4933POPC   C1B 9991  36.153  24.249   8.550
 4933POPC   C2B 9992  36.161  24.216   8.250
 4933POPC   C3B 9993  36.178  24.289   7.950
 4933POPC   C4B 9994  36.110  24.236   7.650
 4934POPC   NC3 9995  35.399  40.743   9.450
 4934POPC   PO4 9996  35.390  40.735   9.150
 4934POPC   GL1 9997  35.310  40.809   8.850
 4934POPC   GL2 9998  35.350  40.648   8.850
 4934POPC   C1A 9999  35.333  40.811   8.550
 4934POPC   D2A10000  35.355  40.764   8.250
 4934POPC   C3A10001  35.394  40.734   7.950
 4934POPC   C4A10002  35.400  40.807   7.650
 4934POPC   C1B10003  35.236  40.544   8.550
 4934POPC   C2B10004  35.264  40.588   8.250
 4934POPC   C3B10005  35.249  40.553   7.950
 4934POPC   C4B10006  35.274  40.554   7.650
 4935POPC   NC310007  26.078  36.901   9.450
 4935POPC   PO410008  26.014  36.932   9.150
 4935POPC   GL110009  25.998  36.881   8.850
 4935POPC   GL210010  26.170  36.838   8.850
 4935POPC   C1A10011  26.037  36.932   8.550
 4935POPC   D2A10012  26.034  36.939   8.250
 4935POPC   C3A10013  26.035  36.909   7.950
 4935POPC   C4A10014  26.069  36.947   7.650
 4935POPC   C1B10015  26.266  36.787   8.550
 4935POPC   C2B10016  26.272  36.780   8.250
 4935POPC   C3B10017  26.204  36.806   7.950
 4935POPC   C4B10018  26.240  36.730   7.650
 4936POPC   NC310019   7.465  40.055   9.450
 4936POPC   PO410020   7.464  40.045   9.150
 4936POPC   GL110021   7.411  39.960   8.850
 4936POPC   GL210022   7.548  40.029   8.850
 4936POPC   C1A10023   7.455  40.005   8.550
 4936POPC   D2A10024   7.443  40.009   8.250
 4936POPC   C3A10025   7.374  39.997   7.950
 4936POPC   C4A10026   7.445  40.036   7.650
 4936POPC   C1B10027   7.695  39.991   8.550
 4936POPC   C2B10028   7.640  40.030   8.250
 4936POPC   C3B10029   7.697  40.016   7.950
 4936POPC   C4B10030   7.705  40.036   7.650
 4937POPC   NC310031  29.901  42.321   9.450
 4937POPC   PO410032  29.889  42.325   9.150
 4937POPC   GL110033  29.954  42.316   8.850
 4937POPC   GL210034  30.045  42.390   8.850
 4937POPC   C1A10035  29.922  42.300   8.550
 4937POPC   D2A10036  29.937  42.353   8.250
 4937POPC   C3A10037  29.906  42.350   7.950
 4937POPC   C4A10038  29.970  42.377   7.650
 4937POPC   C1B10039  30.150  42.378   8.550
 4937POPC   C2B10040  30.154  42.383   8.250
 4937POPC   C3B10041  30.138  42.420   7.950
 4937POPC   C4B10042  30.120  42.411   7.650
 4938POPC   NC310043  39.277  24.532   9.450
 4938POPC   PO410044  39.218  24.467   9.150
 4938POPC   GL110045  39.276  24.458   8.850
 4938POPC   GL210046  39.150  24.548   8.850
 4938POPC   C1A10047  39.224  24.513   8.550
 4938POPC   D2A10048  39.248  24.471   8.250
 4938POPC   C3A10049  39.244  24.522   7.950
 4938POPC   C4A10050  39.247  24.504   7.650
 4938POPC   C1B10051  39.068  24.689   8.550
 4938POPC   C2B10052  39.092  24.650   8.250
 4938POPC   C3B10053  39.096  24.677   7.950
 4938POPC   C4B10054  39.040  24.666   7.650
 4939POPC   NC310055  34.606   1.246   9.450
 4939POPC   PO410056  34.617   1.227   9.150
 4939POPC   GL110057  34.550   1.199   8.850
 4939POPC   GL210058  34.689   1.225   8.850
 4939POPC   C1A10059  34.530   1.194   8.550
 4939POPC   D2A10060  34.623   1.189   8.250
 4939POPC   C3A10061  34.576   1.226   7.950
 4939POPC   C4A10062  34.564   1.178   7.650
 4939POPC   C1B10063  34.803   1.124   8.550
 4939POPC   C2B10064  34.802   1.140   8.250
 4939POPC   C3B10065  34.835   1.157   7.950
 4939POPC   C4B10066  34.771   1.158   7.650
 4940POPC   NC310067  15.138   9.750   9.450
 4940POPC   PO410068  15.220   9.762   9.150
 4940POPC   GL110069  15.145   9.703   8.850
 4940POPC   GL210070  15.065   9.843   8.850
 4940POPC   C1A10071  15.197   9.788   8.550
 4940POPC   D2A10072  15.144   9.736   8.250
 4940POPC   C3A10073  15.137   9.702   7.950
 4940POPC   C4A10074  15.141   9.795   7.650
 4940POPC   C1B10075  15.067   9.979   8.550
 4940POPC   C2B10076  15.060   9.952   8.250
 4940POPC   C3B10077  15.007   9.956   7.950
 4940POPC   C4B10078  15.070   9.948   7.650
 4941POPC   NC310079  37.643  40.750   9.450
 4941POPC   PO410080  37.660  40.748   9.150
 4941POPC   GL110081  37.643  40.809   8.850
 4941POPC   GL210082  37.526  40.697   8.850
 4941POPC   C1A10083  37.683  40.783   8.550
 4941POPC   D2A10084  37.715  40.734   8.250
 4941POPC   C3A10085  37.695  40.751   7.950
 4941POPC   C4A10086  37.722  40.794   7.650
 4941POPC   C1B10087  37.412  40.662   8.550
 4941POPC   C2B10088  37.407  40.634   8.250
 4941POPC   C3B10089  37.437  40.627   7.950
 4941POPC   C4B10090  37.495  40.646   7.650
 4942POPC   NC310091  28.346  41.584   9.450
 4942POPC   PO410092  28.357  41.521   9.150
 4942POPC   GL110093  28.352  41.565   8.850
 4942POPC   GL210094  28.441  41.561   8.850
 4942POPC   C1A10095  28.407  41.607   8.550
 4942POPC   D2A10096  28.324  41.560   8.250
 4942POPC   C3A10097  28.386  41.570   7.950
 4942POPC   C4A10098  28.417  41.592   7.650
 4942POPC   C1B10099  28.560  41.595   8.550
 4942POPC   C2B10100  28.589  41.591   8.250
 4942POPC   C3B10101  28.655  41.618   7.950
 4942POPC   C4B10102  28.655  41.624   7.650
 4943POPC   NC310103  29.110  19.843   9.450
 4943POPC   PO410104  29.176  19.832   9.150
 4943POPC   GL110105  29.136  19.820   8.850
 4943POPC   GL210106  29.257  19.770   8.850
 4943POPC   C1A10107  29.132  19.868   8.550
 4943POPC   D2A10108  29.111  19.822   8.250
 4943POPC   C3A10109  29.162  19.824   7.950
 4943POPC   C4A10110  29.153  19.850   7.650
 4943POPC   C1B10111  29.440  19.802   8.550
 4943POPC   C2B10112  29.402  19.742   8.250
 4943POPC   C3B10113  29.423  19.774   7.950
 4943POPC   C4B10114  29.390  19.768   7.650
 4944POPC   NC310115  32.202  31.436   9.450
 4944POPC   PO410116  32.242  31.480   9.150
 4944POPC   GL110117  32.255  31.494   8.850
 4944POPC   GL210118  32.171  31.517   8.850
 4944POPC   C1A10119  32.241  31.516   8.550
 4944POPC   D2A10120  32.273  31.461   8.250
 4944POPC   C3A10121  32.255  31.446   7.950
 4944POPC   C4A10122  32.283  31.516   7.650
 4944POPC   C1B10123  32.057  31.517   8.550
 4944POPC   C2B10124  32.018  31.506   8.250
 4944POPC   C3B10125  32.023  31.543   7.950
 4944POPC   C4B10126  31.998  31.553   7.650
 4945POPC   NC310127  19.828  14.428   9.450
 4945POPC   PO410128  19.797  14.397   9.150
 4945POPC   GL110129  19.817  14.397   8.850
 4945POPC   GL210130  19.920  14.525   8.850
 4945POPC   C1A10131  19.872  14.448   8.550
 4945POPC   D2A10132  19.875  14.452   8.250
 4945POPC   C3A10133  19.863  14.449   7.950
 4945POPC   C4A10134  19.881  14.380   7.650
 4945POPC   C1B10135  20.036  14.570   8.550
 4945POPC   C2B10136  20.009  14.560   8.250
 4945POPC   C3B10137  20.001  14.596   7.950
 4945POPC   C4B10138  19.976  14.604   7.650
 4946POPC   NC310139   3.535   8.215   9.450
 4946POPC   PO410140   3.564   8.199   9.150
 4946POPC   GL110141   3.523   8.173   8.850
 4946POPC   GL210142   3.501   8.107   8.850
 4946POPC   C1A10143   3.510   8.158   8.550
 4946POPC   D2A10144   3.491   8.214   8.250
 4946POPC   C3A10145   3.574   8.157   7.950
 4946POPC   C4A10146   3.549   8.222   7.650
 4946POPC   C1B10147   3.435   7.958   8.550
 4946POPC   C2B10148   3.482   8.006   8.250
 4946POPC   C3B10149   3.419   7.935   7.950
 4946POPC   C4B10150   3.493   7.924   7.650
 4947POPC   NC310151  43.130  21.414   9.450
 4947POPC   PO410152  43.101  21.398   9.150
 4947POPC   GL110153  43.069  21.373   8.850
 4947POPC   GL210154  43.022  21.424   8.850
 4947POPC   C1A10155  43.095  21.383   8.550
 4947POPC   D2A10156  43.070  21.387   8.250
 4947POPC   C3A10157  43.136  21.350   7.950
 4947POPC   C4A10158  43.093  21.379   7.650
 4947POPC   C1B10159  42.926  21.590   8.550
 4947POPC   C2B10160  42.936  21.602   8.250
 4947POPC   C3B10161  42.916  21.533   7.950
 4947POPC   C4B10162  42.929  21.590   7.650
 4948POPC   NC310163  36.952  20.585   9.450
 4948POPC   PO410164  36.873  20.618   9.150
 4948POPC   GL110165  36.939  20.568   8.850
 4948POPC   GL210166  37.001  20.518   8.850
 4948POPC   C1A10167  36.939  20.656   8.550
 4948POPC   D2A10168  36.938  20.610   8.250
 4948POPC   C3A10169  36.947  20.586   7.950
 4948POPC   C4A10170  36.895  20.614   7.650
 4948POPC   C1B10171  37.003  20.436   8.550
 4948POPC   C2B10172  37.013  20.392   8.250
 4948POPC   C3B10173  37.029  20.392   7.950
 4948POPC   C4B10174  37.052  20.409   7.650
 4949POPC   NC310175  14.399  27.577   9.450
 4949POPC   PO410176  14.439  27.581   9.150
 4949POPC   GL110177  14.428  27.557   8.850
 4949POPC   GL210178  14.432  27.693   8.850
 4949POPC   C1A10179  14.434  27.566   8.550
 4949POPC   D2A10180  14.363  27.564   8.250
 4949POPC   C3A10181  14.375  27.554   7.950
 4949POPC   C4A10182  14.449  27.622   7.650
 4949POPC   C1B10183  14.524  27.821   8.550
 4949POPC   C2B10184  14.529  27.843   8.250
 4949POPC   C3B10185  14.524  27.823   7.950
 4949POPC   C4B10186  14.489  27.840   7.650
 4950POPC   NC310187  26.017  25.297   9.450
 4950POPC   PO410188  26.085  25.293   9.150
 4950POPC   GL110189  26.015  25.219   8.850
 4950POPC   GL210190  26.157  25.253   8.850
 4950POPC   C1A10191  26.073  25.279   8.550
 4950POPC   D2A10192  26.056  25.233   8.250
 4950POPC   C3A10193  25.994  25.226   7.950
 4950POPC   C4A10194  26.003  25.291   7.650
 4950POPC   C1B10195  26.214  25.133   8.550
 4950POPC   C2B10196  26.258  25.113   8.250
 4950POPC   C3B10197  26.282  25.131   7.950
 4950POPC   C4B10198  26.215  25.133   7.650
 4951POPC   NC310199  33.807  41.566   9.450
 4951POPC   PO410200  33.764  41.584   9.150
 4951POPC   GL110201  33.788  41.605   8.850
 4951POPC   GL210202  33.815  41.399   8.850
 4951POPC   C1A10203  33.800  41.580   8.550
 4951POPC   D2A10204  33.775  41.578   8.250
 4951POPC   C3A10205  33.816  41.563   7.950
 4951POPC   C4A10206  33.843  41.567   7.650
 4951POPC   C1B10207  33.924  41.331   8.550
 4951POPC   C2B10208  33.855  41.339   8.250
 4951POPC   C3B10209  33.917  41.291   7.950
 4951POPC   C4B10210  33.897  41.279   7.650
 4952POPC   NC310211  33.774  33.061   9.450
 4952POPC   PO410212  33.841  33.058   9.150
 4952POPC   GL110213  33.819  32.976   8.850
 4952POPC   GL210214  33.858  33.152   8.850
 4952POPC   C1A10215  33.750  33.029   8.550
 4952POPC   D2A10216  33.822  33.042   8.250
 4952POPC   C3A10217  33.757  32.982   7.950
 4952POPC   C4A10218  33.814  33.002   7.650
 4952POPC   C1B10219  33.866  33.272   8.550
 4952POPC   C2B10220  33.803  33.260   8.250
 4952POPC   C3B10221  33.882  33.258   7.950
 4952POPC   C4B10222  33.886  33.231   7.650
 4953POPC   NC310223  19.044   6.649   9.450
 4953POPC   PO410224  19.077   6.689   9.150
 4953POPC   GL110225  19.089   6.604   8.850
 4953POPC   GL210226  18.949   6.676   8.850
 4953POPC   C1A10227  19.104   6.663   8.550
 4953POPC   D2A10228  19.067   6.610   8.250
 4953POPC   C3A10229  19.076   6.631   7.950
 4953POPC   C4A10230  19.084   6.620   7.650
 4953POPC   C1B10231  18.811   6.751   8.550
 4953POPC   C2B10232  18.830   6.741   8.250
 4953POPC   C3B10233  18.868   6.785   7.950
 4953POPC   C4B10234  18.875   6.760   7.650
 4954POPC   NC310235  15.166  27.594   9.450
 4954POPC   PO410236  15.180  27.545   9.150
 4954POPC   GL110237  15.151  27.560   8.850
 4954POPC   GL210238  15.295  27.628   8.850
 4954POPC   C1A10239  15.222  27.598   8.550
 4954POPC   D2A10240  15.183  27.555   8.250
 4954POPC   C3A10241  15.204  27.592   7.950
 4954POPC   C4A10242  15.150  27.622   7.650
 4954POPC   C1B10243  15.436  27.684   8.550
 4954POPC   C2B10244  15.385  27.694   8.250
 4954POPC   C3B10245  15.458  27.635   7.950
 4954POPC   C4B10246  15.420  27.696   7.650
 4955POPC   NC310247  16.700  21.397   9.450
 4955POPC   PO410248  16.718  21.371   9.150
 4955POPC   GL110249  16.694  21.367   8.850
 4955POPC   GL210250  16.822  21.346   8.850
 4955POPC   C1A10251  16.770  21.410   8.550
 4955POPC   D2A10252  16.727  21.395   8.250
 4955POPC   C3A10253  16.714  21.429   7.950
 4955POPC   C4A10254  16.771  21.400   7.650
 4955POPC   C1B10255  16.988  21.294   8.550
 4955POPC   C2B10256  16.982  21.289   8.250
 4955POPC   C3B10257  16.962  21.296   7.950
 4955POPC   C4B10258  16.953  21.273   7.650
 4956POPC   NC310259  35.374  11.284   9.450
 4956POPC   PO410260  35.306  11.334   9.150
 4956POPC   GL110261  35.316  11.318   8.850
 4956POPC   GL210262  35.485  11.362   8.850
 4956POPC   C1A10263  35.308  11.302   8.550
 4956POPC   D2A10264  35.399  11.329   8.250
 4956POPC   C3A10265  35.343  11.299   7.950
 4956POPC   C4A10266  35.388  11.281   7.650
 4956POPC   C1B10267  35.592  11.369   8.550
 4956POPC   C2B10268  35.591  11.410   8.250
 4956POPC   C3B10269  35.581  11.340   7.950
 4956POPC   C4B10270  35.560  11.410   7.650
 4957POPC   NC310271  33.830   9.753   9.450
 4957POPC   PO410272  33.820   9.715   9.150
 4957POPC   GL110273  33.835   9.791   8.850
 4957POPC   GL210274  33.811   9.646   8.850
 4957POPC   C1A10275  33.829   9.735   8.550
 4957POPC   D2A10276  33.797   9.737   8.250
 4957POPC   C3A10277  33.771   9.781   7.950
 4957POPC   C4A10278  33.837   9.778   7.650
 4957POPC   C1B10279  33.726   9.482   8.550
 4957POPC   C2B10280  33.689   9.500   8.250
 4957POPC   C3B10281  33.716   9.461   7.950
 4957POPC   C4B10282  33.736   9.534   7.650
 4958POPC   NC310283  10.515  40.029   9.450
 4958POPC   PO410284  10.526  39.960   9.150
 4958POPC   GL110285  10.496  39.994   8.850
 4958POPC   GL210286  10.430  40.075   8.850
 4958POPC   C1A10287  10.514  40.032   8.550
 4958POPC   D2A10288  10.529  40.042   8.250
 4958POPC   C3A10289  10.485  40.005   7.950
 4958POPC   C4A10290  10.478  40.006   7.650
 4958POPC   C1B10291  10.429  40.200   8.550
 4958POPC   C2B10292  10.377  40.252   8.250
 4958POPC   C3B10293  10.385  40.242   7.950
 4958POPC   C4B10294  10.359  40.196   7.650
 4959POPC   NC310295  33.021   5.125   9.450
 4959POPC   PO410296  32.994   5.094   9.150
 4959POPC   GL110297  33.001   5.137   8.850
 4959POPC   GL210298  33.135   5.138   8.850
 4959POPC   C1A10299  32.978   5.046   8.550
 4959POPC   D2A10300  33.013   5.092   8.250
 4959POPC   C3A10301  32.975   5.055   7.950
 4959POPC   C4A10302  33.040   5.114   7.650
 4959POPC   C1B10303  33.238   5.080   8.550
 4959POPC   C2B10304  33.240   5.089   8.250
 4959POPC   C3B10305  33.303   5.138   7.950
 4959POPC   C4B10306  33.286   5.132   7.650
 4960POPC   NC310307  35.400  14.417   9.450
 4960POPC   PO410308  35.363  14.366   9.150
 4960POPC   GL110309  35.315  14.359   8.850
 4960POPC   GL210310  35.292  14.471   8.850
 4960POPC   C1A10311  35.352  14.366   8.550
 4960POPC   D2A10312  35.343  14.441   8.250
 4960POPC   C3A10313  35.312  14.418   7.950
 4960POPC   C4A10314  35.302  14.445   7.650
 4960POPC   C1B10315  35.120  14.596   8.550
 4960POPC   C2B10316  35.173  14.512   8.250
 4960POPC   C3B10317  35.131  14.582   7.950
 4960POPC   C4B10318  35.143  14.582   7.650
 4961POPC   NC310319   7.378   8.190   9.450
 4961POPC   PO410320   7.408   8.230   9.150
 4961POPC   GL110321   7.432   8.153   8.850
 4961POPC   GL210322   7.379   8.061   8.850
 4961POPC   C1A10323   7.432   8.195   8.550
 4961POPC   D2A10324   7.446   8.173   8.250
 4961POPC   C3A10325   7.457   8.161   7.950
 4961POPC   C4A10326   7.392   8.195   7.650
 4961POPC   C1B10327   7.346   7.914   8.550
 4961POPC   C2B10328   7.394   7.925   8.250
 4961POPC   C3B10329   7.306   7.998   7.950
 4961POPC   C4B10330   7.369   7.994   7.650
 4962POPC   NC310331  28.407  13.589   9.450
 4962POPC   PO410332  28.331  13.668   9.150
 4962POPC   GL110333  28.332  13.629   8.850
 4962POPC   GL210334  28.384  13.562   8.850
 4962POPC   C1A10335  28.324  13.672   8.550
 4962POPC   D2A10336  28.350  13.601   8.250
 4962POPC   C3A10337  28.404  13.612   7.950
 4962POPC   C4A10338  28.363  13.633   7.650
 4962POPC   C1B10339  28.494  13.352   8.550
 4962POPC   C2B10340  28.491  13.406   8.250
 4962POPC   C3B10341  28.451  13.388   7.950
 4962POPC   C4B10342  28.463  13.428   7.650
 4963POPC   NC310343  15.135  32.997   9.450
 4963POPC   PO410344  15.174  33.065   9.150
 4963POPC   GL110345  15.162  33.042   8.850
 4963POPC   GL210346  15.340  32.973   8.850
 4963POPC   C1A10347  15.179  33.022   8.550
 4963POPC   D2A10348  15.182  33.021   8.250
 4963POPC   C3A10349  15.174  33.066   7.950
 4963POPC   C4A10350  15.153  32.994   7.650
 4963POPC   C1B10351  15.438  32.960   8.550
 4963POPC   C2B10352  15.415  32.915   8.250
 4963POPC   C3B10353  15.442  32.905   7.950
 4963POPC   C4B10354  15.416  32.974   7.650
 4964POPC   NC310355   1.967  17.501   9.450
 4964POPC   PO410356   2.004  17.549   9.150
 4964POPC   GL110357   1.970  17.554   8.850
 4964POPC   GL210358   1.962  17.377   8.850
 4964POPC   C1A10359   1.970  17.471   8.550
 4964POPC   D2A10360   1.978  17.512   8.250
 4964POPC   C3A10361   1.996  17.477   7.950
 4964POPC   C4A10362   1.975  17.479   7.650
 4964POPC   C1B10363   1.899  17.234   8.550
 4964POPC   C2B10364   1.954  17.318   8.250
 4964POPC   C3B10365   1.886  17.314   7.950
 4964POPC   C4B10366   1.939  17.295   7.650
 4965POPC   NC310367  25.308  26.838   9.450
 4965POPC   PO410368  25.303  26.771   9.150
 4965POPC   GL110369  25.270  26.818   8.850
 4965POPC   GL210370  25.189  26.849   8.850
 4965POPC   C1A10371  25.217  26.792   8.550
 4965POPC   D2A10372  25.285  26.801   8.250
 4965POPC   C3A10373  25.220  26.809   7.950
 4965POPC   C4A10374  25.227  26.777   7.650
 4965POPC   C1B10375  25.059  26.755   8.550
 4965POPC   C2B10376  25.049  26.798   8.250
 4965POPC   C3B10377  24.989  26.808   7.950
 4965POPC   C4B10378  24.993  26.794   7.650
 4966POPC   NC310379  33.003  22.922   9.450
 4966POPC   PO410380  33.033  22.932   9.150
 4966POPC   GL110381  32.977  22.929   8.850
 4966POPC   GL210382  33.074  23.095   8.850
 4966POPC   C1A10383  33.009  22.979   8.550
 4966POPC   D2A10384  33.038  22.944   8.250
 4966POPC   C3A10385  32.992  22.982   7.950
 4966POPC   C4A10386  33.022  22.947   7.650
 4966POPC   C1B10387  33.149  23.226   8.550
 4966POPC   C2B10388  33.085  23.216   8.250
 4966POPC   C3B10389  33.056  23.192   7.950
 4966POPC   C4B10390  33.116  23.131   7.650
 4967POPC   NC310391  31.494  19.790   9.450
 4967POPC   PO410392  31.504  19.860   9.150
 4967POPC   GL110393  31.449  19.877   8.850
 4967POPC   GL210394  31.497  20.004   8.850
 4967POPC   C1A10395  31.504  19.848   8.550
 4967POPC   D2A10396  31.446  19.875   8.250
 4967POPC   C3A10397  31.436  19.880   7.950
 4967POPC   C4A10398  31.446  19.870   7.650
 4967POPC   C1B10399  31.482  20.060   8.550
 4967POPC   C2B10400  31.450  20.086   8.250
 4967POPC   C3B10401  31.467  20.063   7.950
 4967POPC   C4B10402  31.487  20.098   7.650
 4968POPC   NC310403  30.745  43.064   9.450
 4968POPC   PO410404  30.700  43.155   9.150
 4968POPC   GL110405  30.736  43.109   8.850
 4968POPC   GL210406  30.601  43.053   8.850
 4968POPC   C1A10407  30.703  43.080   8.550
 4968POPC   D2A10408  30.684  43.130   8.250
 4968POPC   C3A10409  30.662  43.094   7.950
 4968POPC   C4A10410  30.744  43.135   7.650
 4968POPC   C1B10411  30.551  42.987   8.550
 4968POPC   C2B10412  30.524  42.908   8.250
 4968POPC   C3B10413  30.551  42.952   7.950
 4968POPC   C4B10414  30.484  42.956   7.650
 4969POPC   NC310415  29.928  26.090   9.450
 4969POPC   PO410416  29.871  26.036   9.150
 4969POPC   GL110417  29.901  26.042   8.850
 4969POPC   GL210418  29.790  26.089   8.850
 4969POPC   C1A10419  29.901  25.993   8.550
 4969POPC   D2A10420  29.881  26.043   8.250
 4969POPC   C3A10421  29.932  26.005   7.950
 4969POPC   C4A10422  29.884  26.065   7.650
 4969POPC   C1B10423  29.714  26.186   8.550
 4969POPC   C2B10424  29.732  26.241   8.250
 4969POPC   C3B10425  29.739  26.179   7.950
 4969POPC   C4B10426  29.742  26.218   7.650
 4970POPC   NC310427  43.076   2.779   9.450
 4970POPC   PO410428  43.150   2.768   9.150
 4970POPC   GL110429  43.094   2.784   8.850
 4970POPC   GL210430  43.210   2.871   8.850
 4970POPC   C1A10431  43.127   2.800   8.550
 4970POPC   D2A10432  43.083   2.766   8.250
 4970POPC   C3A10433  43.098   2.719   7.950
 4970POPC   C4A10434  43.078   2.755   7.650
 4970POPC   C1B10435  43.264   2.948   8.550
 4970POPC   C2B10436  43.317   2.987   8.250
 4970POPC   C3B10437  43.278   2.919   7.950
 4970POPC   C4B10438  43.294   2.940   7.650
 4971POPC   NC310439  34.605  24.494   9.450
 4971POPC   PO410440  34.551  24.460   9.150
 4971POPC   GL110441  34.537  24.536   8.850
 4971POPC   GL210442  34.436  24.450   8.850
 4971POPC   C1A10443  34.588  24.443   8.550
 4971POPC   D2A10444  34.547  24.498   8.250
 4971POPC   C3A10445  34.536  24.522   7.950
 4971POPC   C4A10446  34.582  24.521   7.650
 4971POPC   C1B10447  34.337  24.453   8.550
 4971POPC   C2B10448  34.374  24.396   8.250
 4971POPC   C3B10449  34.305  24.463   7.950
 4971POPC   C4B10450  34.316  24.432   7.650
 4972POPC   NC310451  27.570  29.180   9.450
 4972POPC   PO410452  27.586  29.162   9.150
 4972POPC   GL110453  27.598  29.143   8.850
 4972POPC   GL210454  27.698  29.190   8.850
 4972POPC   C1A10455  27.567  29.172   8.550
 4972POPC   D2A10456  27.601  29.122   8.250
 4972POPC   C3A10457  27.571  29.108   7.950
 4972POPC   C4A10458  27.596  29.189   7.650
 4972POPC   C1B10459  27.840  29.179   8.550
 4972POPC   C2B10460  27.828  29.137   8.250
 4972POPC   C3B10461  27.863  29.142   7.950
 4972POPC   C4B10462  27.836  29.187   7.650
 4973POPC   NC310463   5.841  44.649   9.450
 4973POPC   PO410464   5.891  44.685   9.150
 4973POPC   GL110465   5.876  44.634   8.850
 4973POPC   GL210466   5.812  44.555   8.850
 4973POPC   C1A10467   5.880  44.672   8.550
 4973POPC   D2A10468   5.873  44.659   8.250
 4973POPC   C3A10469   5.844  44.651   7.950
 4973POPC   C4A10470   5.863  44.621   7.650
 4973POPC   C1B10471   5.793  44.423   8.550
 4973POPC   C2B10472   5.781  44.469   8.250
 4973POPC   C3B10473   5.814  44.417   7.950
 4973POPC   C4B10474   5.783  44.412   7.650
 4974POPC   NC310475  36.100  11.279   9.450
 4974POPC   PO410476  36.104  11.298   9.150
 4974POPC   GL110477  36.135  11.320   8.850
 4974POPC   GL210478  35.963  11.339   8.850
 4974POPC   C1A10479  36.174  11.339   8.550
 4974POPC   D2A10480  36.094  11.265   8.250
 4974POPC   C3A10481  36.140  11.286   7.950
 4974POPC   C4A10482  36.119  11.324   7.650
 4974POPC   C1B10483  35.878  11.301   8.550
 4974POPC   C2B10484  35.908  11.355   8.250
 4974POPC   C3B10485  35.833  11.324   7.950
 4974POPC   C4B10486  35.849  11.312   7.650
 4975POPC   NC310487  14.376  35.329   9.450
 4975POPC   PO410488  14.440  35.374   9.150
 4975POPC   GL110489  14.448  35.335   8.850
 4975POPC   GL210490  14.455  35.495   8.850
 4975POPC   C1A10491  14.404  35.317   8.550
 4975POPC   D2A10492  14.397  35.368   8.250
 4975POPC   C3A10493  14.391  35.349   7.950
 4975POPC   C4A10494  14.450  35.324   7.650
 4975POPC   C1B10495  14.512  35.636   8.550
 4975POPC   C2B10496  14.478  35.552   8.250
 4975POPC   C3B10497  14.437  35.560   7.950
 4975POPC   C4B10498  14.421  35.636   7.650
 4976POPC   NC310499  29.171  40.048   9.450
 4976POPC   PO410500  29.193  39.966   9.150
 4976POPC   GL110501  29.176  39.987   8.850
 4976POPC   GL210502  29.171  40.117   8.850
 4976POPC   C1A10503  29.155  40.028   8.550
 4976POPC   D2A10504  29.143  40.055   8.250
 4976POPC   C3A10505  29.159  39.989   7.950
 4976POPC   C4A10506  29.157  40.035   7.650
 4976POPC   C1B10507  29.096  40.265   8.550
 4976POPC   C2B10508  29.128  40.274   8.250
 4976POPC   C3B10509  29.115  40.233   7.950
 4976POPC   C4B10510  29.137  40.218   7.650
 4977POPC   NC310511  39.972  27.577   9.450
 4977POPC   PO410512  39.981  27.636   9.150
 4977POPC   GL110513  40.028  27.555   8.850
 4977POPC   GL210514  39.916  27.587   8.850
 4977POPC   C1A10515  39.967  27.576   8.550
 4977POPC   D2A10516  39.990  27.576   8.250
 4977POPC   C3A10517  40.013  27.596   7.950
 4977POPC   C4A10518  40.050  27.612   7.650
 4977POPC   C1B10519  39.770  27.583   8.550
 4977POPC   C2B10520  39.782  27.506   8.250
 4977POPC   C3B10521  39.769  27.521   7.950
 4977POPC   C4B10522  39.754  27.550   7.650
 4978POPC   NC310523  29.939  28.378   9.450
 4978POPC   PO410524  29.969  28.322   9.150
 4978POPC   GL110525  29.954  28.368   8.850
 4978POPC   GL210526  29.990  28.272   8.850
 4978POPC   C1A10527  29.939  28.376   8.550
 4978POPC   D2A10528  29.880  28.380   8.250
 4978POPC   C3A10529  29.946  28.324   7.950
 4978POPC   C4A10530  29.922  28.388   7.650
 4978POPC   C1B10531  30.151  28.239   8.550
 4978POPC   C2B10532  30.110  28.229   8.250
 4978POPC   C3B10533  30.152  28.258   7.950
 4978POPC   C4B10534  30.180  28.285   7.650
 4979POPC   NC310535   6.618   0.435   9.450
 4979POPC   PO410536   6.638   0.418   9.150
 4979POPC   GL110537   6.664   0.405   8.850
 4979POPC   GL210538   6.543   0.565   8.850
 4979POPC   C1A10539   6.617   0.396   8.550
 4979POPC   D2A10540   6.606   0.412   8.250
 4979POPC   C3A10541   6.615   0.394   7.950
 4979POPC   C4A10542   6.615   0.455   7.650
 4979POPC   C1B10543   6.439   0.611   8.550
 4979POPC   C2B10544   6.487   0.579   8.250
 4979POPC   C3B10545   6.418   0.552   7.950
 4979POPC   C4B10546   6.491   0.614   7.650
 4980POPC   NC310547  19.833  13.610   9.450
 4980POPC   PO410548  19.828  13.631   9.150
 4980POPC   GL110549  19.879  13.651   8.850
 4980POPC   GL210550  19.965  13.605   8.850
 4980POPC   C1A10551  19.841  13.652   8.550
 4980POPC   D2A10552  19.821  13.607   8.250
 4980POPC   C3A10553  19.864  13.644   7.950
 4980POPC   C4A10554  19.866  13.659   7.650
 4980POPC   C1B10555  20.074  13.461   8.550
 4980POPC   C2B10556  20.098  13.498   8.250
 4980POPC   C3B10557  20.065  13.503   7.950
 4980POPC   C4B10558  20.013  13.527   7.650
 4981POPC   NC310559  42.316  10.570   9.450
 4981POPC   PO410560  42.334  10.492   9.150
 4981POPC   GL110561  42.321  10.568   8.850
 4981POPC   GL210562  42.475  10.540   8.850
 4981POPC   C1A10563  42.349  10.484   8.550
 4981POPC   D2A10564  42.297  10.495   8.250
 4981POPC   C3A10565  42.305  10.496   7.950
 4981POPC   C4A10566  42.324  10.511   7.650
 4981POPC   C1B10567  42.598  10.613   8.550
 4981POPC   C2B10568  42.613  10.609   8.250
 4981POPC   C3B10569  42.534  10.603   7.950
 4981POPC   C4B10570  42.574  10.629   7.650
 4982POPC   NC310571  44.708  28.388   9.450
 4982POPC   PO410572  44.701  28.397   9.150
 4982POPC   GL110573  44.666  28.414   8.850
 4982POPC   GL210574  44.831  28.344   8.850
 4982POPC   C1A10575  44.701  28.352   8.550
 4982POPC   D2A10576  44.712  28.397   8.250
 4982POPC   C3A10577  44.618  28.368   7.950
 4982POPC   C4A10578  44.701  28.360   7.650
 4982POPC   C1B10579  44.879  28.371   8.550
 4982POPC   C2B10580  44.884  28.387   8.250
 4982POPC   C3B10581  44.960  28.405   7.950
 4982POPC   C4B10582  44.882  28.364   7.650
 4983POPC   NC310583  18.254  31.468   9.450
 4983POPC   PO410584  18.318  31.511   9.150
 4983POPC   GL110585  18.319  31.490   8.850
 4983POPC   GL210586  18.142  31.512   8.850
 4983POPC   C1A10587  18.277  31.455   8.550
 4983POPC   D2A10588  18.321  31.439   8.250
 4983POPC   C3A10589  18.289  31.441   7.950
 4983POPC   C4A10590  18.292  31.442   7.650
 4983POPC   C1B10591  18.111  31.626   8.550
 4983POPC   C2B10592  18.119  31.668   8.250
 4983POPC   C3B10593  18.136  31.652   7.950
 4983POPC   C4B10594  18.068  31.630   7.650
 4984POPC   NC310595  19.833  11.335   9.450
 4984POPC   PO410596  19.871  11.259   9.150
 4984POPC   GL110597  19.883  11.314   8.850
 4984POPC   GL210598  19.842  11.362   8.850
 4984POPC   C1A10599  19.816  11.291   8.550
 4984POPC   D2A10600  19.789  11.285   8.250
 4984POPC   C3A10601  19.791  11.287   7.950
 4984POPC   C4A10602  19.846  11.337   7.650
 4984POPC   C1B10603  19.936  11.491   8.550
 4984POPC   C2B10604  19.936  11.567   8.250
 4984POPC   C3B10605  19.939  11.487   7.950
 4984POPC   C4B10606  19.901  11.527   7.650
 4985POPC   NC310607   3.536  21.430   9.450
 4985POPC   PO410608   3.591  21.415   9.150
 4985POPC   GL110609   3.558  21.390   8.850
 4985POPC   GL210610   3.464  21.266   8.850
 4985POPC   C1A10611   3.509  21.355   8.550
 4985POPC   D2A10612   3.562  21.425   8.250
 4985POPC   C3A10613   3.502  21.368   7.950
 4985POPC   C4A10614   3.529  21.337   7.650
 4985POPC   C1B10615   3.367  21.220   8.550
 4985POPC   C2B10616   3.318  21.257   8.250
 4985POPC   C3B10617   3.381  21.263   7.950
 4985POPC   C4B10618   3.383  21.212   7.650
 4986POPC   NC310619  12.884  44.622   9.450
 4986POPC   PO410620  12.836  44.704   9.150
 4986POPC   GL110621  12.828  44.688   8.850
 4986POPC   GL210622  12.843  44.744   8.850
 4986POPC   C1A10623  12.858  44.699   8.550
 4986POPC   D2A10624  12.835  44.624   8.250
 4986POPC   C3A10625  12.821  44.631   7.950
 4986POPC   C4A10626  12.896  44.709   7.650
 4986POPC   C1B10627  12.755  44.909   8.550
 4986POPC   C2B10628  12.702  44.930   8.250
 4986POPC   C3B10629  12.710  44.883   7.950
 4986POPC   C4B10630  12.768  44.842   7.650
 4987POPC   NC310631  11.300  20.568   9.450
 4987POPC   PO410632  11.297  20.655   9.150
 4987POPC   GL110633  11.320  20.615   8.850
 4987POPC   GL210634  11.212  20.621   8.850
 4987POPC   C1A10635  11.286  20.623   8.550
 4987POPC   D2A10636  11.269  20.622   8.250
 4987POPC   C3A10637  11.298  20.576   7.950
 4987POPC   C4A10638  11.350  20.602   7.650
 4987POPC   C1B10639  11.003  20.646   8.550
 4987POPC   C2B10640  11.072  20.615   8.250
 4987POPC   C3B10641  11.016  20.602   7.950
 4987POPC   C4B10642  11.018  20.645   7.650
 4988POPC   NC310643  21.348  25.228   9.450
 4988POPC   PO410644  21.405  25.280   9.150
 4988POPC   GL110645  21.434  25.303   8.850
 4988POPC   GL210646  21.535  25.215   8.850
 4988POPC   C1A10647  21.350  25.226   8.550
 4988POPC   D2A10648  21.402  25.291   8.250
 4988POPC   C3A10649  21.364  25.306   7.950
 4988POPC   C4A10650  21.371  25.216   7.650
 4988POPC   C1B10651  21.656  25.142   8.550
 4988POPC   C2B10652  21.629  25.156   8.250
 4988POPC   C3B10653  21.652  25.178   7.950
 4988POPC   C4B10654  21.615  25.138   7.650
 4989POPC   NC310655  22.205  37.711   9.450
 4989POPC   PO410656  22.202  37.687   9.150
 4989POPC   GL110657  22.118  37.642   8.850
 4989POPC   GL210658  22.043  37.774   8.850
 4989POPC   C1A10659  22.142  37.716   8.550
 4989POPC   D2A10660  22.160  37.647   8.250
 4989POPC   C3A10661  22.207  37.642   7.950
 4989POPC   C4A10662  22.156  37.686   7.650
 4989POPC   C1B10663  21.924  37.810   8.550
 4989POPC   C2B10664  21.917  37.810   8.250
 4989POPC   C3B10665  21.974  37.816   7.950
 4989POPC   C4B10666  21.970  37.784   7.650
 4990POPC   NC310667   8.935  22.124   9.450
 4990POPC   PO410668   8.999  22.193   9.150
 4990POPC   GL110669   9.009  22.131   8.850
 4990POPC   GL210670   8.926  22.009   8.850
 4990POPC   C1A10671   9.021  22.166   8.550
 4990POPC   D2A10672   8.950  22.170   8.250
 4990POPC   C3A10673   8.998  22.147   7.950
 4990POPC   C4A10674   8.943  22.209   7.650
 4990POPC   C1B10675   8.851  21.916   8.550
 4990POPC   C2B10676   8.898  21.935   8.250
 4990POPC   C3B10677   8.924  21.904   7.950
 4990POPC   C4B10678   8.915  21.922   7.650
 4991POPC   NC310679  10.570  41.548   9.450
 4991POPC   PO410680  10.495  41.592   9.150
 4991POPC   GL110681  10.566  41.538   8.850
 4991POPC   GL210682  10.537  41.714   8.850
 4991POPC   C1A10683  10.545  41.590   8.550
 4991POPC   D2A10684  10.501  41.608   8.250
 4991POPC   C3A10685  10.559  41.561   7.950
 4991POPC   C4A10686  10.497  41.533   7.650
 4991POPC   C1B10687  10.567  41.781   8.550
 4991POPC   C2B10688  10.559  41.806   8.250
 4991POPC   C3B10689  10.627  41.785   7.950
 4991POPC   C4B10690  10.622  41.820   7.650
 4992POPC   NC310691   3.571  19.875   9.450
 4992POPC   PO410692   3.551  19.824   9.150
 4992POPC   GL110693   3.546  19.803   8.850
 4992POPC   GL210694   3.670  19.835   8.850
 4992POPC   C1A10695   3.563  19.841   8.550
 4992POPC   D2A10696   3.569  19.788   8.250
 4992POPC   C3A10697   3.576  19.841   7.950
 4992POPC   C4A10698   3.538  19.850   7.650
 4992POPC   C1B10699   3.738  19.914   8.550
 4992POPC   C2B10700   3.794  19.943   8.250
 4992POPC   C3B10701   3.784  19.933   7.950
 4992POPC   C4B10702   3.753  19.861   7.650
 4993POPC   NC310703  40.815  37.715   9.450
 4993POPC   PO410704  40.824  37.719   9.150
 4993POPC   GL110705  40.814  37.686   8.850
 4993POPC   GL210706  40.707  37.517   8.850
 4993POPC   C1A10707  40.824  37.635   8.550
 4993POPC   D2A10708  40.782  37.653   8.250
 4993POPC   C3A10709  40.768  37.649   7.950
 4993POPC   C4A10710  40.782  37.635   7.650
 4993POPC   C1B10711  40.675  37.401   8.550
 4993POPC   C2B10712  40.735  37.484   8.250
 4993POPC   C3B10713  40.661  37.446   7.950
 4993POPC   C4B10714  40.697  37.430   7.650
 4994POPC   NC310715  38.500  42.348   9.450
 4994POPC   PO410716  38.434  42.324   9.150
 4994POPC   GL110717  38.417  42.286   8.850
 4994POPC   GL210718  38.603  42.392   8.850
 4994POPC   C1A10719  38.482  42.328   8.550
 4994POPC   D2A10720  38.474  42.286   8.250
 4994POPC   C3A10721  38.482  42.326   7.950
 4994POPC   C4A10722  38.458  42.286   7.650
 4994POPC   C1B10723  38.711  42.441   8.550
 4994POPC   C2B10724  38.709  42.413   8.250
 4994POPC   C3B10725  38.633  42.457   7.950
 4994POPC   C4B10726  38.644  42.412   7.650
 4995POPC   NC310727   2.037   8.214   9.450
 4995POPC   PO410728   1.961   8.203   9.150
 4995POPC   GL110729   1.999   8.222   8.850
 4995POPC   GL210730   1.881   8.249   8.850
 4995POPC   C1A10731   1.970   8.225   8.550
 4995POPC   D2A10732   2.032   8.155   8.250
 4995POPC   C3A10733   1.983   8.206   7.950
 4995POPC   C4A10734   2.007   8.176   7.650
 4995POPC   C1B10735   1.697   8.228   8.550
 4995POPC   C2B10736   1.762   8.262   8.250
 4995POPC   C3B10737   1.764   8.280   7.950
 4995POPC   C4B10738   1.708   8.263   7.650
 4996POPC   NC310739  19.815   8.197   9.450
 4996POPC   PO410740  19.812   8.238   9.150
 4996POPC   GL110741  19.849   8.202   8.850
 4996POPC   GL210742  19.855   8.043   8.850
 4996POPC   C1A10743  19.813   8.185   8.550
 4996POPC   D2A10744  19.794   8.148   8.250
 4996POPC   C3A10745  19.855   8.238   7.950
 4996POPC   C4A10746  19.828   8.164   7.650
 4996POPC   C1B10747  19.947   7.991   8.550
 4996POPC   C2B10748  19.973   7.977   8.250
 4996POPC   C3B10749  19.994   7.998   7.950
 4996POPC   C4B10750  19.934   8.007   7.650
 4997POPC   NC310751  16.758  24.491   9.450
 4997POPC   PO410752  16.695  24.447   9.150
 4997POPC   GL110753  16.775  24.506   8.850
 4997POPC   GL210754  16.586  24.443   8.850
 4997POPC   C1A10755  16.685  24.487   8.550
 4997POPC   D2A10756  16.749  24.467   8.250
 4997POPC   C3A10757  16.699  24.494   7.950
 4997POPC   C4A10758  16.724  24.538   7.650
 4997POPC   C1B10759  16.541  24.309   8.550
 4997POPC   C2B10760  16.532  24.326   8.250
 4997POPC   C3B10761  16.571  24.316   7.950
 4997POPC   C4B10762  16.546  24.326   7.650
 4998POPC   NC310763  12.860  41.543   9.450
 4998POPC   PO410764  12.875  41.594   9.150
 4998POPC   GL110765  12.895  41.541   8.850
 4998POPC   GL210766  12.770  41.493   8.850
 4998POPC   C1A10767  12.881  41.576   8.550
 4998POPC   D2A10768  12.821  41.563   8.250
 4998POPC   C3A10769  12.840  41.511   7.950
 4998POPC   C4A10770  12.809  41.539   7.650
 4998POPC   C1B10771  12.636  41.511   8.550
 4998POPC   C2B10772  12.595  41.524   8.250
 4998POPC   C3B10773  12.584  41.504   7.950
 4998POPC   C4B10774  12.659  41.467   7.650
 4999POPC   NC310775  10.570   2.726   9.450
 4999POPC   PO410776  10.571   2.812   9.150
 4999POPC   GL110777  10.498   2.775   8.850
 4999POPC   GL210778  10.360   2.746   8.850
 4999POPC   C1A10779  10.524   2.782   8.550
 4999POPC   D2A10780  10.556   2.800   8.250
 4999POPC   C3A10781  10.542   2.788   7.950
 4999POPC   C4A10782  10.544   2.782   7.650
 4999POPC   C1B10783  10.316   2.798   8.550
 4999POPC   C2B10784  10.315   2.854   8.250
 4999POPC   C3B10785  10.305   2.819   7.950
 4999POPC   C4B10786  10.274   2.845   7.650
 5000POPC   NC310787   6.623  28.372   9.450
 5000POPC   PO410788   6.597  28.372   9.150
 5000POPC   GL110789   6.644  28.326   8.850
 5000POPC   GL210790   6.600  28.269   8.850
 5000POPC   C1A10791   6.638  28.377   8.550
 5000POPC   D2A10792   6.604  28.336   8.250
 5000POPC   C3A10793   6.690  28.378   7.950
 5000POPC   C4A10794   6.663  28.328   7.650
 5000POPC   C1B10795   6.457  28.174   8.550
 5000POPC   C2B10796   6.520  28.155   8.250
 5000POPC   C3B10797   6.525  28.185   7.950
 5000POPC   C4B10798   6.490  28.175   7.650
 5001POPC   NC310799  37.696   9.709   9.450
 5001POPC   PO410800  37.647   9.703   9.150
 5001POPC   GL110801  37.724   9.721   8.850
 5001POPC   GL210802  37.741   9.880   8.850
 5001POPC   C1A10803  37.703   9.743   8.550
 5001POPC   D2A10804  37.631   9.768   8.250
 5001POPC   C3A10805  37.723   9.752   7.950
 5001POPC   C4A10806  37.660   9.718   7.650
 5001POPC   C1B10807  37.682   9.949   8.550
 5001POPC   C2B10808  37.656  10.021   8.250
 5001POPC   C3B10809  37.730  10.034   7.950
 5001POPC   C4B10810  37.662   9.986   7.650
 5002POPC   NC310811  36.115  28.393   9.450
 5002POPC   PO410812  36.120  28.382   9.150
 5002POPC   GL110813  36.127  28.381   8.850
 5002POPC   GL210814  36.021  28.318   8.850
 5002POPC   C1A10815  36.120  28.416   8.550
 5002POPC   D2A10816  36.098  28.373   8.250
 5002POPC   C3A10817  36.110  28.392   7.950
 5002POPC   C4A10818  36.157  28.347   7.650
 5002POPC   C1B10819  35.921  28.304   8.550
 5002POPC   C2B10820  35.939  28.252   8.250
 5002POPC   C3B10821  35.895  28.315   7.950
 5002POPC   C4B10822  35.872  28.289   7.650
 5003POPC   NC310823  33.798   2.734   9.450
 5003POPC   PO410824  33.804   2.760   9.150
 5003POPC   GL110825  33.797   2.805   8.850
 5003POPC   GL210826  33.898   2.834   8.850
 5003POPC   C1A10827  33.807   2.784   8.550
 5003POPC   D2A10828  33.763   2.805   8.250
 5003POPC   C3A10829  33.812   2.730   7.950
 5003POPC   C4A10830  33.807   2.805   7.650
 5003POPC   C1B10831  34.035   2.927   8.550
 5003POPC   C2B10832  34.013   2.875   8.250
 5003POPC   C3B10833  34.020   2.875   7.950
 5003POPC   C4B10834  34.054   2.849   7.650
 5004POPC   NC310835   5.872  42.364   9.450
 5004POPC   PO410836   5.846  42.358   9.150
 5004POPC   GL110837   5.896  42.330   8.850
 5004POPC   GL210838   5.875  42.179   8.850
 5004POPC   C1A10839   5.875  42.369   8.550
 5004POPC   D2A10840   5.911  42.303   8.250
 5004POPC   C3A10841   5.872  42.302   7.950
 5004POPC   C4A10842   5.913  42.324   7.650
 5004POPC   C1B10843   5.950  42.108   8.550
 5004POPC   C2B10844   5.952  42.108   8.250
 5004POPC   C3B10845   5.963  42.060   7.950
 5004POPC   C4B10846   5.972  42.145   7.650
 5005POPC   NC310847  15.989  33.062   9.450
 5005POPC   PO410848  15.938  33.039   9.150
 5005POPC   GL110849  15.977  33.038   8.850
 5005POPC   GL210850  15.875  33.103   8.850
 5005POPC   C1A10851  16.003  32.986   8.550
 5005POPC   D2A10852  15.998  33.037   8.250
 5005POPC   C3A10853  15.975  33.060   7.950
 5005POPC   C4A10854  15.962  32.981   7.650
 5005POPC   C1B10855  15.837  33.246   8.550
 5005POPC   C2B10856  15.772  33.197   8.250
 5005POPC   C3B10857  15.787  33.183   7.950
 5005POPC   C4B10858  15.763  33.235   7.650
 5006POPC   NC310859  10.561  24.486   9.450
 5006POPC   PO410860  10.560  24.452   9.150
 5006POPC   GL110861  10.574  24.489   8.850
 5006POPC   GL210862  10.542  24.349   8.850
 5006POPC   C1A10863  10.556  24.448   8.550
 5006POPC   D2A10864  10.502  24.517   8.250
 5006POPC   C3A10865  10.529  24.498   7.950
 5006POPC   C4A10866  10.563  24.450   7.650
 5006POPC   C1B10867  10.691  24.294   8.550
 5006POPC   C2B10868  10.629  24.248   8.250
 5006POPC   C3B10869  10.640  24.282   7.950
 5006POPC   C4B10870  10.673  24.268   7.650
 5007POPC   NC310871   6.694  10.533   9.450
 5007POPC   PO410872   6.607  10.569   9.150
 5007POPC   GL110873   6.670  10.481   8.850
 5007POPC   GL210874   6.716  10.583   8.850
 5007POPC   C1A10875   6.649  10.536   8.550
 5007POPC   D2A10876   6.608  10.545   8.250
 5007POPC   C3A10877   6.686  10.574   7.950
 5007POPC   C4A10878   6.672  10.483   7.650
 5007POPC   C1B10879   6.840  10.630   8.550
 5007POPC   C2B10880   6.836  10.687   8.250
 5007POPC   C3B10881   6.870  10.665   7.950
 5007POPC   C4B10882   6.863  10.611   7.650
 5008POPC   NC310883  39.244  33.067   9.450
 5008POPC   PO410884  39.211  32.982   9.150
 5008POPC   GL110885  39.224  33.040   8.850
 5008POPC   GL210886  39.225  33.179   8.850
 5008POPC   C1A10887  39.260  33.029   8.550
 5008POPC   D2A10888  39.209  32.982   8.250
 5008POPC   C3A10889  39.244  33.021   7.950
 5008POPC   C4A10890  39.279  32.995   7.650
 5008POPC   C1B10891  39.274  33.307   8.550
 5008POPC   C2B10892  39.255  33.298   8.250
 5008POPC   C3B10893  39.293  33.272   7.950
 5008POPC   C4B10894  39.289  33.235   7.650
 5009POPC   NC310895   9.703  30.691   9.450
 5009POPC   PO410896   9.733  30.739   9.150
 5009POPC   GL110897   9.793  30.678   8.850
 5009POPC   GL210898   9.675  30.734   8.850
 5009POPC   C1A10899   9.783  30.680   8.550
 5009POPC   D2A10900   9.730  30.665   8.250
 5009POPC   C3A10901   9.746  30.736   7.950
 5009POPC   C4A10902   9.721  30.647   7.650
 5009POPC   C1B10903   9.604  30.896   8.550
 5009POPC   C2B10904   9.549  30.846   8.250
 5009POPC   C3B10905   9.515  30.888   7.950
 5009POPC   C4B10906   9.577  30.877   7.650
 5010POPC   NC310907  13.637  20.654   9.450
 5010POPC   PO410908  13.655  20.613   9.150
 5010POPC   GL110909  13.659  20.606   8.850
 5010POPC   GL210910  13.769  20.551   8.850
 5010POPC   C1A10911  13.595  20.569   8.550
 5010POPC   D2A10912  13.601  20.613   8.250
 5010POPC   C3A10913  13.656  20.586   7.950
 5010POPC   C4A10914  13.659  20.576   7.650
 5010POPC   C1B10915  13.826  20.560   8.550
 5010POPC   C2B10916  13.908  20.563   8.250
 5010POPC   C3B10917  13.914  20.598   7.950
 5010POPC   C4B10918  13.879  20.587   7.650
 5011POPC   NC310919  19.786   3.517   9.450
 5011POPC   PO410920  19.820   3.521   9.150
 5011POPC   GL110921  19.884   3.565   8.850
 5011POPC   GL210922  19.729   3.479   8.850
 5011POPC   C1A10923  19.861   3.552   8.550
 5011POPC   D2A10924  19.837   3.533   8.250
 5011POPC   C3A10925  19.851   3.567   7.950
 5011POPC   C4A10926  19.808   3.553   7.650
 5011POPC   C1B10927  19.581   3.392   8.550
 5011POPC   C2B10928  19.644   3.422   8.250
 5011POPC   C3B10929  19.657   3.361   7.950
 5011POPC   C4B10930  19.642   3.367   7.650
 5012POPC   NC310931  19.033   9.779   9.450
 5012POPC   PO410932  19.048   9.703   9.150
 5012POPC   GL110933  19.075   9.755   8.850
 5012POPC   GL210934  18.962   9.884   8.850
 5012POPC   C1A10935  19.075   9.742   8.550
 5012POPC   D2A10936  19.080   9.725   8.250
 5012POPC   C3A10937  19.058   9.791   7.950
 5012POPC   C4A10938  19.067   9.784   7.650
 5012POPC   C1B10939  18.868   9.984   8.550
 5012POPC   C2B10940  18.952   9.954   8.250
 5012POPC   C3B10941  18.919   9.967   7.950
 5012POPC   C4B10942  18.915   9.910   7.650
 5013POPC   NC310943  25.286  29.924   9.450
 5013POPC   PO410944  25.218  29.939   9.150
 5013POPC   GL110945  25.313  29.876   8.850
 5013POPC   GL210946  25.202  29.978   8.850
 5013POPC   C1A10947  25.298  29.893   8.550
 5013POPC   D2A10948  25.247  29.955   8.250
 5013POPC   C3A10949  25.248  29.969   7.950
 5013POPC   C4A10950  25.261  29.967   7.650
 5013POPC   C1B10951  25.045  30.145   8.550
 5013POPC   C2B10952  25.136  30.073   8.250
 5013POPC   C3B10953  25.128  30.089   7.950
 5013POPC   C4B10954  25.092  30.078   7.650
 5014POPC   NC310955  18.314   6.613   9.450
 5014POPC   PO410956  18.295   6.649   9.150
 5014POPC   GL110957  18.320   6.619   8.850
 5014POPC   GL210958  18.228   6.775   8.850
 5014POPC   C1A10959  18.281   6.595   8.550
 5014POPC   D2A10960  18.311   6.679   8.250
 5014POPC   C3A10961  18.248   6.621   7.950
 5014POPC   C4A10962  18.265   6.636   7.650
 5014POPC   C1B10963  18.248   6.895   8.550
 5014POPC   C2B10964  18.265   6.913   8.250
 5014POPC   C3B10965  18.285   6.855   7.950
 5014POPC   C4B10966  18.257   6.942   7.650
 5015POPC   NC310967  29.934   4.310   9.450
 5015POPC   PO410968  29.960   4.284   9.150
 5015POPC   GL110969  29.880   4.345   8.850
 5015POPC   GL210970  29.774   4.364   8.850
 5015POPC   C1A10971  29.939   4.296   8.550
 5015POPC   D2A10972  29.893   4.299   8.250
 5015POPC   C3A10973  29.955   4.293   7.950
 5015POPC   C4A10974  29.901   4.281   7.650
 5015POPC   C1B10975  29.661   4.374   8.550
 5015POPC   C2B10976  29.690   4.337   8.250
 5015POPC   C3B10977  29.654   4.371   7.950
 5015POPC   C4B10978  29.674   4.369   7.650
 5016POPC   NC310979  41.529  31.514   9.450
 5016POPC   PO410980  41.595  31.464   9.150
 5016POPC   GL110981  41.557  31.514   8.850
 5016POPC   GL210982  41.435  31.498   8.850
 5016POPC   C1A10983  41.542  31.440   8.550
 5016POPC   D2A10984  41.559  31.463   8.250
 5016POPC   C3A10985  41.580  31.464   7.950
 5016POPC   C4A10986  41.557  31.474   7.650
 5016POPC   C1B10987  41.276  31.494   8.550
 5016POPC   C2B10988  41.289  31.464   8.250
 5016POPC   C3B10989  41.356  31.478   7.950
 5016POPC   C4B10990  41.268  31.461   7.650
 5017POPC   NC310991  32.990  32.974   9.450
 5017POPC   PO410992  33.025  32.997   9.150
 5017POPC   GL110993  33.011  33.007   8.850
 5017POPC   GL210994  33.103  33.021   8.850
 5017POPC   C1A10995  32.991  33.049   8.550
 5017POPC   D2A10996  33.034  33.043   8.250
 5017POPC   C3A10997  32.987  33.036   7.950
 5017POPC   C4A10998  32.974  33.000   7.650
 5017POPC   C1B10999  33.242  33.012   8.550
 5017POPC   C2B11000  33.245  32.948   8.250
 5017POPC   C3B11001  33.290  33.009   7.950
 5017POPC   C4B11002  33.310  33.007   7.650
 5018POPC   NC311003   9.716  39.227   9.450
 5018POPC   PO411004   9.760  39.206   9.150
 5018POPC   GL111005   9.787  39.270   8.850
 5018POPC   GL211006   9.717  39.318   8.850
 5018POPC   C1A11007   9.739  39.268   8.550
 5018POPC   D2A11008   9.764  39.228   8.250
 5018POPC   C3A11009   9.749  39.226   7.950
 5018POPC   C4A11010   9.752  39.185   7.650
 5018POPC   C1B11011   9.802  39.527   8.550
 5018POPC   C2B11012   9.752  39.523   8.250
 5018POPC   C3B11013   9.730  39.444   7.950
 5018POPC   C4B11014   9.729  39.480   7.650
 5019POPC   NC311015  26.800  28.345   9.450
 5019POPC   PO411016  26.856  28.363   9.150
 5019POPC   GL111017  26.858  28.374   8.850
 5019POPC   GL211018  26.852  28.485   8.850
 5019POPC   C1A11019  26.791  28.409   8.550
 5019POPC   D2A11020  26.778  28.331   8.250
 5019POPC   C3A11021  26.854  28.390   7.950
 5019POPC   C4A11022  26.794  28.330   7.650
 5019POPC   C1B11023  26.898  28.592   8.550
 5019POPC   C2B11024  26.895  28.576   8.250
 5019POPC   C3B11025  26.870  28.653   7.950
 5019POPC   C4B11026  26.836  28.583   7.650
 5020POPC   NC311027   0.411  20.658   9.450
 5020POPC   PO411028   0.470  20.649   9.150
 5020POPC   GL111029   0.392  20.595   8.850
 5020POPC   GL211030   0.308  20.593   8.850
 5020POPC   C1A11031   0.395  20.570   8.550
 5020POPC   D2A11032   0.424  20.577   8.250
 5020POPC   C3A11033   0.476  20.598   7.950
 5020POPC   C4A11034   0.394  20.652   7.650
 5020POPC   C1B11035   0.245  20.466   8.550
 5020POPC   C2B11036   0.234  20.534   8.250
 5020POPC   C3B11037   0.193  20.460   7.950
 5020POPC   C4B11038   0.210  20.481   7.650
 5021POPC   NC311039   2.021  35.305   9.450
 5021POPC   PO411040   2.011  35.395   9.150
 5021POPC   GL111041   1.982  35.354   8.850
 5021POPC   GL211042   2.025  35.464   8.850
 5021POPC   C1A11043   2.021  35.353   8.550
 5021POPC   D2A11044   1.948  35.345   8.250
 5021POPC   C3A11045   1.987  35.392   7.950
 5021POPC   C4A11046   1.999  35.384   7.650
 5021POPC   C1B11047   2.102  35.579   8.550
 5021POPC   C2B11048   2.096  35.591   8.250
 5021POPC   C3B11049   2.117  35.604   7.950
 5021POPC   C4B11050   2.071  35.584   7.650
 5022POPC   NC311051  18.234   9.789   9.450
 5022POPC   PO411052  18.240   9.753   9.150
 5022POPC   GL111053  18.307   9.731   8.850
 5022POPC   GL211054  18.290   9.862   8.850
 5022POPC   C1A11055  18.325   9.731   8.550
 5022POPC   D2A11056  18.295   9.706   8.250
 5022POPC   C3A11057  18.260   9.774   7.950
 5022POPC   C4A11058  18.252   9.710   7.650
 5022POPC   C1B11059  18.340  10.029   8.550
 5022POPC   C2B11060  18.328  10.005   8.250
 5022POPC   C3B11061  18.388   9.971   7.950
 5022POPC   C4B11062  18.371   9.988   7.650
 5023POPC   NC311063  43.156  11.292   9.450
 5023POPC   PO411064  43.102  11.313   9.150
 5023POPC   GL111065  43.150  11.313   8.850
 5023POPC   GL211066  43.028  11.200   8.850
 5023POPC   C1A11067  43.119  11.290   8.550
 5023POPC   D2A11068  43.154  11.280   8.250
 5023POPC   C3A11069  43.159  11.287   7.950
 5023POPC   C4A11070  43.136  11.340   7.650
 5023POPC   C1B11071  42.962  11.047   8.550
 5023POPC   C2B11072  43.004  11.084   8.250
 5023POPC   C3B11073  42.960  11.123   7.950
 5023POPC   C4B11074  42.959  11.049   7.650
 5024POPC   NC311075   9.759  12.847   9.450
 5024POPC   PO411076   9.775  12.822   9.150
 5024POPC   GL111077   9.764  12.863   8.850
 5024POPC   GL211078   9.647  12.928   8.850
 5024POPC   C1A11079   9.710  12.831   8.550
 5024POPC   D2A11080   9.745  12.825   8.250
 5024POPC   C3A11081   9.715  12.866   7.950
 5024POPC   C4A11082   9.756  12.881   7.650
 5024POPC   C1B11083   9.514  12.957   8.550
 5024POPC   C2B11084   9.524  12.950   8.250
 5024POPC   C3B11085   9.540  12.979   7.950
 5024POPC   C4B11086   9.557  12.942   7.650
 5025POPC   NC311087  43.863   8.996   9.450
 5025POPC   PO411088  43.910   8.992   9.150
 5025POPC   GL111089  43.928   8.982   8.850
 5025POPC   GL211090  43.835   9.067   8.850
 5025POPC   C1A11091  43.904   8.985   8.550
 5025POPC   D2A11092  43.927   8.987   8.250
 5025POPC   C3A11093  43.839   8.936   7.950
 5025POPC   C4A11094  43.873   9.016   7.650
 5025POPC   C1B11095  43.730   9.131   8.550
 5025POPC   C2B11096  43.703   9.092   8.250
 5025POPC   C3B11097  43.724   9.078   7.950
 5025POPC   C4B11098  43.725   9.075   7.650
 5026POPC   NC311099  31.459  39.263   9.450
 5026POPC   PO411100  31.458  39.244   9.150
 5026POPC   GL111101  31.517  39.234   8.850
 5026POPC   GL211102  31.372  39.127   8.850
 5026POPC   C1A11103  31.464  39.269   8.550
 5026POPC   D2A11104  31.455  39.190   8.250
 5026POPC   C3A11105  31.451  39.230   7.950
 5026POPC   C4A11106  31.520  39.198   7.650
 5026POPC   C1B11107  31.300  39.052   8.550
 5026POPC   C2B11108  31.347  39.033   8.250
 5026POPC   C3B11109  31.290  39.003   7.950
 5026POPC   C4B11110  31.287  39.018   7.650
 5027POPC   NC311111  39.249  26.804   9.450
 5027POPC   PO411112  39.257  26.790   9.150
 5027POPC   GL111113  39.219  26.818   8.850
 5027POPC   GL211114  39.090  26.883   8.850
 5027POPC   C1A11115  39.184  26.821   8.550
 5027POPC   D2A11116  39.278  26.788   8.250
 5027POPC   C3A11117  39.202  26.857   7.950
 5027POPC   C4A11118  39.196  26.835   7.650
 5027POPC   C1B11119  38.955  26.938   8.550
 5027POPC   C2B11120  39.031  26.916   8.250
 5027POPC   C3B11121  38.986  26.868   7.950
 5027POPC   C4B11122  38.982  26.921   7.650
 5028POPC   NC311123  35.311  21.398   9.450
 5028POPC   PO411124  35.379  21.336   9.150
 5028POPC   GL111125  35.317  21.355   8.850
 5028POPC   GL211126  35.319  21.214   8.850
 5028POPC   C1A11127  35.307  21.373   8.550
 5028POPC   D2A11128  35.362  21.388   8.250
 5028POPC   C3A11129  35.398  21.414   7.950
 5028POPC   C4A11130  35.370  21.400   7.650
 5028POPC   C1B11131  35.417  21.149   8.550
 5028POPC   C2B11132  35.388  21.151   8.250
 5028POPC   C3B11133  35.430  21.138   7.950
 5028POPC   C4B11134  35.400  21.157   7.650
 5029POPC   NC311135  37.633   8.194   9.450
 5029POPC   PO411136  37.660   8.148   9.150
 5029POPC   GL111137  37.638   8.203   8.850
 5029POPC   GL211138  37.701   8.343   8.850
 5029POPC   C1A11139  37.721   8.194   8.550
 5029POPC   D2A11140  37.674   8.174   8.250
 5029POPC   C3A11141  37.708   8.173   7.950
 5029POPC   C4A11142  37.694   8.228   7.650
 5029POPC   C1B11143  37.741   8.449   8.550
 5029POPC   C2B11144  37.756   8.456   8.250
 5029POPC   C3B11145  37.716   8.471   7.950
 5029POPC   C4B11146  37.730   8.468   7.650
 5030POPC   NC311147  38.455  43.094   9.450
 5030POPC   PO411148  38.488  43.160   9.150
 5030POPC   GL111149  38.456  43.118   8.850
 5030POPC   GL211150  38.314  43.137   8.850
 5030POPC   C1A11151  38.450  43.078   8.550
 5030POPC   D2A11152  38.498  43.118   8.250
 5030POPC   C3A11153  38.488  43.098   7.950
 5030POPC   C4A11154  38.417  43.083   7.650
 5030POPC   C1B11155  38.168  43.191   8.550
 5030POPC   C2B11156  38.260  43.201   8.250
 5030POPC   C3B11157  38.204  43.185   7.950
 5030POPC   C4B11158  38.189  43.127   7.650
 5031POPC   NC311159  41.554   5.902   9.450
 5031POPC   PO411160  41.519   5.856   9.150
 5031POPC   GL111161  41.599   5.858   8.850
 5031POPC   GL211162  41.459   5.897   8.850
 5031POPC   C1A11163  41.540   5.908   8.550
 5031POPC   D2A11164  41.542   5.899   8.250
 5031POPC   C3A11165  41.512   5.910   7.950
 5031POPC   C4A11166  41.559   5.866   7.650
 5031POPC   C1B11167  41.365   5.963   8.550
 5031POPC   C2B11168  41.281   5.904   8.250
 5031POPC   C3B11169  41.278   5.916   7.950
 5031POPC   C4B11170  41.286   5.911   7.650
 5032POPC   NC311171   0.428  15.172   9.450
 5032POPC   PO411172   0.454  15.199   9.150
 5032POPC   GL111173   0.450  15.229   8.850
 5032POPC   GL211174   0.513  15.287   8.850
 5032POPC   C1A11175   0.448  15.145   8.550
 5032POPC   D2A11176   0.466  15.190   8.250
 5032POPC   C3A11177   0.486  15.164   7.950
 5032POPC   C4A11178   0.391  15.228   7.650
 5032POPC   C1B11179   0.511  15.420   8.550
 5032POPC   C2B11180   0.584  15.399   8.250
 5032POPC   C3B11181   0.566  15.452   7.950
 5032POPC   C4B11182   0.497  15.415   7.650
 5033POPC   NC311183  37.672  13.626   9.450
 5033POPC   PO411184  37.677  13.620   9.150
 5033POPC   GL111185  37.642  13.611   8.850
 5033POPC   GL211186  37.743  13.722   8.850
 5033POPC   C1A11187  37.674  13.672   8.550
 5033POPC   D2A11188  37.718  13.578   8.250
 5033POPC   C3A11189  37.681  13.593   7.950
 5033POPC   C4A11190  37.661  13.579   7.650
 5033POPC   C1B11191  37.795  13.828   8.550
 5033POPC   C2B11192  37.745  13.842   8.250
 5033POPC   C3B11193  37.728  13.830   7.950
 5033POPC   C4B11194  37.800  13.891   7.650
 5034POPC   NC311195   5.875  36.910   9.450
 5034POPC   PO411196   5.888  36.889   9.150
 5034POPC   GL111197   5.823  36.889   8.850
 5034POPC   GL211198   5.940  36.770   8.850
 5034POPC   C1A11199   5.825  36.906   8.550
 5034POPC   D2A11200   5.904  36.888   8.250
 5034POPC   C3A11201   5.904  36.953   7.950
 5034POPC   C4A11202   5.906  36.911   7.650
 5034POPC   C1B11203   5.988  36.654   8.550
 5034POPC   C2B11204   5.962  36.741   8.250
 5034POPC   C3B11205   5.970  36.721   7.950
 5034POPC   C4B11206   5.992  36.677   7.650
 5035POPC   NC311207  25.231  27.606   9.450
 5035POPC   PO411208  25.287  27.607   9.150
 5035POPC   GL111209  25.235  27.638   8.850
 5035POPC   GL211210  25.276  27.757   8.850
 5035POPC   C1A11211  25.256  27.636   8.550
 5035POPC   D2A11212  25.312  27.621   8.250
 5035POPC   C3A11213  25.245  27.628   7.950
 5035POPC   C4A11214  25.287  27.638   7.650
 5035POPC   C1B11215  25.355  27.823   8.550
 5035POPC   C2B11216  25.378  27.815   8.250
 5035POPC   C3B11217  25.382  27.799   7.950
 5035POPC   C4B11218  25.308  27.858   7.650
 5036POPC   NC311219  44.628   1.994   9.450
 5036POPC   PO411220  44.689   2.022   9.150
 5036POPC   GL111221  44.641   2.020   8.850
 5036POPC   GL211222  44.766   1.858   8.850
 5036POPC   C1A11223  44.632   1.948   8.550
 5036POPC   D2A11224  44.644   2.028   8.250
 5036POPC   C3A11225  44.678   2.037   7.950
 5036POPC   C4A11226  44.674   2.005   7.650
 5036POPC   C1B11227  44.803   1.768   8.550
 5036POPC   C2B11228  44.816   1.793   8.250
 5036POPC   C3B11229  44.873   1.760   7.950
 5036POPC   C4B11230  44.809   1.804   7.650
 5037POPC   NC311231  34.596  19.061   9.450
 5037POPC   PO411232  34.611  19.072   9.150
 5037POPC   GL111233  34.617  19.084   8.850
 5037POPC   GL211234  34.426  19.162   8.850
 5037POPC   C1A11235  34.541  19.080   8.550
 5037POPC   D2A11236  34.535  19.073   8.250
 5037POPC   C3A11237  34.588  19.035   7.950
 5037POPC   C4A11238  34.537  19.033   7.650
 5037POPC   C1B11239  34.354  19.207   8.550
 5037POPC   C2B11240  34.338  19.157   8.250
 5037POPC   C3B11241  34.341  19.238   7.950
 5037POPC   C4B11242  34.349  19.202   7.650
 5038POPC   NC311243  19.789   9.789   9.450
 5038POPC   PO411244  19.795   9.790   9.150
 5038POPC   GL111245  19.788   9.793   8.850
 5038POPC   GL211246  19.924   9.728   8.850
 5038POPC   C1A11247  19.805   9.735   8.550
 5038POPC   D2A11248  19.815   9.753   8.250
 5038POPC   C3A11249  19.824   9.793   7.950
 5038POPC   C4A11250  19.883   9.722   7.650
 5038POPC   C1B11251  20.065   9.798   8.550
 5038POPC   C2B11252  20.032   9.848   8.250
 5038POPC   C3B11253  20.124   9.762   7.950
 5038POPC   C4B11254  20.066   9.765   7.650
 5039POPC   NC311255  43.069  41.511   9.450
 5039POPC   PO411256  43.064  41.602   9.150
 5039POPC   GL111257  43.061  41.577   8.850
 5039POPC   GL211258  43.250  41.602   8.850
 5039POPC   C1A11259  43.160  41.524   8.550
 5039POPC   D2A11260  43.148  41.516   8.250
 5039POPC   C3A11261  43.100  41.515   7.950
 5039POPC   C4A11262  43.098  41.569   7.650
 5039POPC   C1B11263  43.394  41.563   8.550
 5039POPC   C2B11264  43.379  41.611   8.250
 5039POPC   C3B11265  43.316  41.615   7.950
 5039POPC   C4B11266  43.363  41.654   7.650
 5040POPC   NC311267  30.663  17.501   9.450
 5040POPC   PO411268  30.717  17.463   9.150
 5040POPC   GL111269  30.714  17.492   8.850
 5040POPC   GL211270  30.779  17.462   8.850
 5040POPC   C1A11271  30.661  17.504   8.550
 5040POPC   D2A11272  30.722  17.469   8.250
 5040POPC   C3A11273  30.684  17.476   7.950
 5040POPC   C4A11274  30.683  17.463   7.650
 5040POPC   C1B11275  30.892  17.411   8.550
 5040POPC   C2B11276  30.981  17.408   8.250
 5040POPC   C3B11277  30.892  17.453   7.950
 5040POPC   C4B11278  30.948  17.460   7.650
 5041POPC   NC311279  12.829  27.576   9.450
 5041POPC   PO411280  12.816  27.550   9.150
 5041POPC   GL111281  12.826  27.599   8.850
 5041POPC   GL211282  12.870  27.430   8.850
 5041POPC   C1A11283  12.851  27.620   8.550
 5041POPC   D2A11284  12.842  27.547   8.250
 5041POPC   C3A11285  12.854  27.624   7.950
 5041POPC   C4A11286  12.854  27.582   7.650
 5041POPC   C1B11287  12.920  27.367   8.550
 5041POPC   C2B11288  12.949  27.364   8.250
 5041POPC   C3B11289  12.905  27.389   7.950
 5041POPC   C4B11290  12.954  27.311   7.650
 5042POPC   NC311291   5.054  11.316   9.450
 5042POPC   PO411292   5.112  11.271   9.150
 5042POPC   GL111293   5.074  11.309   8.850
 5042POPC   GL211294   5.055  11.194   8.850
 5042POPC   C1A11295   5.066  11.308   8.550
 5042POPC   D2A11296   5.139  11.278   8.250
 5042POPC   C3A11297   5.115  11.335   7.950
 5042POPC   C4A11298   5.119  11.265   7.650
 5042POPC   C1B11299   5.056  11.033   8.550
 5042POPC   C2B11300   5.106  11.005   8.250
 5042POPC   C3B11301   5.045  11.081   7.950
 5042POPC   C4B11302   5.054  11.034   7.650
 5043POPC   NC311303  16.705  30.726   9.450
 5043POPC   PO411304  16.716  30.725   9.150
 5043POPC   GL111305  16.761  30.718   8.850
 5043POPC   GL211306  16.787  30.836   8.850
 5043POPC   C1A11307  16.714  30.712   8.550
 5043POPC   D2A11308  16.742  30.723   8.250
 5043POPC   C3A11309  16.695  30.672   7.950
 5043POPC   C4A11310  16.720  30.668   7.650
 5043POPC   C1B11311  16.713  30.954   8.550
 5043POPC   C2B11312  16.713  30.981   8.250
 5043POPC   C3B11313  16.713  30.945   7.950
 5043POPC   C4B11314  16.750  30.967   7.650
 5044POPC   NC311315  12.855  17.478   9.450
 5044POPC   PO411316  12.887  17.507   9.150
 5044POPC   GL111317  12.896  17.510   8.850
 5044POPC   GL211318  12.738  17.562   8.850
 5044POPC   C1A11319  12.863  17.486   8.550
 5044POPC   D2A11320  12.847  17.549   8.250
 5044POPC   C3A11321  12.839  17.551   7.950
 5044POPC   C4A11322  12.868  17.487   7.650
 5044POPC   C1B11323  12.648  17.607   8.550
 5044POPC   C2B11324  12.610  17.573   8.250
 5044POPC   C3B11325  12.570  17.609   7.950
 5044POPC   C4B11326  12.591  17.563   7.650
 5045POPC   NC311327   2.815  17.471   9.450
 5045POPC   PO411328   2.748  17.492   9.150
 5045POPC   GL111329   2.765  17.538   8.850
 5045POPC   GL211330   2.790  17.594   8.850
 5045POPC   C1A11331   2.738  17.481   8.550
 5045POPC   D2A11332   2.800  17.475   8.250
 5045POPC   C3A11333   2.767  17.541   7.950
 5045POPC   C4A11334   2.718  17.533   7.650
 5045POPC   C1B11335   2.825  17.717   8.550
 5045POPC   C2B11336   2.800  17.795   8.250
 5045POPC   C3B11337   2.751  17.754   7.950
 5045POPC   C4B11338   2.785  17.721   7.650
 5046POPC   NC311339  27.554  36.946   9.450
 5046POPC   PO411340  27.572  36.895   9.150
 5046POPC   GL111341  27.633  36.914   8.850
 5046POPC   GL211342  27.723  36.922   8.850
 5046POPC   C1A11343  27.546  36.929   8.550
 5046POPC   D2A11344  27.635  36.864   8.250
 5046POPC   C3A11345  27.595  36.897   7.950
 5046POPC   C4A11346  27.584  36.927   7.650
 5046POPC   C1B11347  27.819  36.955   8.550
 5046POPC   C2B11348  27.856  36.979   8.250
 5046POPC   C3B11349  27.791  36.978   7.950
 5046POPC   C4B11350  27.828  37.011   7.650
 5047POPC   NC311351  37.670  42.325   9.450
 5047POPC   PO411352  37.653  42.371   9.150
 5047POPC   GL111353  37.672  42.322   8.850
 5047POPC   GL211354  37.724  42.238   8.850
 5047POPC   C1A11355  37.685  42.313   8.550
 5047POPC   D2A11356  37.646  42.379   8.250
 5047POPC   C3A11357  37.663  42.370   7.950
 5047POPC   C4A11358  37.715  42.357   7.650
 5047POPC   C1B11359  37.772  42.072   8.550
 5047POPC   C2B11360  37.765  42.170   8.250
 5047POPC   C3B11361  37.835  42.072   7.950
 5047POPC   C4B11362  37.846  42.140   7.650
 5048POPC   NC311363  17.467  31.443   9.450
 5048POPC   PO411364  17.518  31.508   9.150
 5048POPC   GL111365  17.512  31.442   8.850
 5048POPC   GL211366  17.442  31.525   8.850
 5048POPC   C1A11367  17.549  31.471   8.550
 5048POPC   D2A11368  17.478  31.448   8.250
 5048POPC   C3A11369  17.468  31.487   7.950
 5048POPC   C4A11370  17.475  31.476   7.650
 5048POPC   C1B11371  17.350  31.696   8.550
 5048POPC   C2B11372  17.360  31.680   8.250
 5048POPC   C3B11373  17.340  31.666   7.950
 5048POPC   C4B11374  17.358  31.709   7.650
 5049POPC   NC311375  12.855  22.141   9.450
 5049POPC   PO411376  12.890  22.126   9.150
 5049POPC   GL111377  12.867  22.198   8.850
 5049POPC   GL211378  12.928  22.021   8.850
 5049POPC   C1A11379  12.848  22.175   8.550
 5049POPC   D2A11380  12.878  22.181   8.250
 5049POPC   C3A11381  12.835  22.133   7.950
 5049POPC   C4A11382  12.840  22.133   7.650
 5049POPC   C1B11383  12.978  21.919   8.550
 5049POPC   C2B11384  12.913  21.913   8.250
 5049POPC   C3B11385  12.981  21.936   7.950
 5049POPC   C4B11386  12.936  21.921   7.650
 5050POPC   NC311387  20.650  31.423   9.450
 5050POPC   PO411388  20.642  31.437   9.150
 5050POPC   GL111389  20.607  31.439   8.850
 5050POPC   GL211390  20.529  31.457   8.850
 5050POPC   C1A11391  20.592  31.467   8.550
 5050POPC   D2A11392  20.562  31.513   8.250
 5050POPC   C3A11393  20.592  31.453   7.950
 5050POPC   C4A11394  20.658  31.516   7.650
 5050POPC   C1B11395  20.403  31.475   8.550
 5050POPC   C2B11396  20.371  31.506   8.250
 5050POPC   C3B11397  20.336  31.449   7.950
 5050POPC   C4B11398  20.390  31.471   7.650
 5051POPC   NC311399  27.629  18.236   9.450
 5051POPC   PO411400  27.616  18.297   9.150
 5051POPC   GL111401  27.607  18.302   8.850
 5051POPC   GL211402  27.596  18.445   8.850
 5051POPC   C1A11403  27.568  18.252   8.550
 5051POPC   D2A11404  27.570  18.260   8.250
 5051POPC   C3A11405  27.637  18.309   7.950
 5051POPC   C4A11406  27.641  18.275   7.650
 5051POPC   C1B11407  27.591  18.569   8.550
 5051POPC   C2B11408  27.590  18.573   8.250
 5051POPC   C3B11409  27.607  18.556   7.950
 5051POPC   C4B11410  27.601  18.528   7.650
 5052POPC   NC311411  43.130  29.877   9.450
 5052POPC   PO411412  43.135  29.931   9.150
 5052POPC   GL111413  43.072  29.944   8.850
 5052POPC   GL211414  43.054  30.016   8.850
 5052POPC   C1A11415  43.090  29.930   8.550
 5052POPC   D2A11416  43.124  29.931   8.250
 5052POPC   C3A11417  43.081  29.915   7.950
 5052POPC   C4A11418  43.109  29.959   7.650
 5052POPC   C1B11419  42.952  30.113   8.550
 5052POPC   C2B11420  42.931  30.138   8.250
 5052POPC   C3B11421  42.907  30.045   7.950
 5052POPC   C4B11422  42.940  30.081   7.650
 5053POPC   NC311423   9.784  44.698   9.450
 5053POPC   PO411424   9.746  44.700   9.150
 5053POPC   GL111425   9.747  44.620   8.850
 5053POPC   GL211426   9.677  44.589   8.850
 5053POPC   C1A11427   9.745  44.688   8.550
 5053POPC   D2A11428   9.713  44.625   8.250
 5053POPC   C3A11429   9.747  44.641   7.950
 5053POPC   C4A11430   9.705  44.661   7.650
 5053POPC   C1B11431   9.549  44.520   8.550
 5053POPC   C2B11432   9.577  44.481   8.250
 5053POPC   C3B11433   9.588  44.462   7.950
 5053POPC   C4B11434   9.591  44.489   7.650
 5054POPC   NC311435  11.325  12.843   9.450
 5054POPC   PO411436  11.294  12.864   9.150
 5054POPC   GL111437  11.326  12.864   8.850
 5054POPC   GL211438  11.160  12.866   8.850
 5054POPC   C1A11439  11.340  12.847   8.550
 5054POPC   D2A11440  11.297  12.857   8.250
 5054POPC   C3A11441  11.262  12.847   7.950
 5054POPC   C4A11442  11.307  12.802   7.650
 5054POPC   C1B11443  11.091  12.823   8.550
 5054POPC   C2B11444  11.021  12.843   8.250
 5054POPC   C3B11445  11.008  12.797   7.950
 5054POPC   C4B11446  11.045  12.786   7.650
 5055POPC   NC311447   1.245  25.263   9.450
 5055POPC   PO411448   1.260  25.243   9.150
 5055POPC   GL111449   1.242  25.273   8.850
 5055POPC   GL211450   1.384  25.319   8.850
 5055POPC   C1A11451   1.260  25.295   8.550
 5055POPC   D2A11452   1.177  25.292   8.250
 5055POPC   C3A11453   1.230  25.279   7.950
 5055POPC   C4A11454   1.252  25.272   7.650
 5055POPC   C1B11455   1.432  25.321   8.550
 5055POPC   C2B11456   1.484  25.358   8.250
 5055POPC   C3B11457   1.477  25.328   7.950
 5055POPC   C4B11458   1.454  25.342   7.650
 5056POPC   NC311459   5.072  42.297   9.450
 5056POPC   PO411460   5.068  42.316   9.150
 5056POPC   GL111461   5.049  42.382   8.850
 5056POPC   GL211462   5.161  42.406   8.850
 5056POPC   C1A11463   5.103  42.299   8.550
 5056POPC   D2A11464   5.135  42.368   8.250
 5056POPC   C3A11465   5.044  42.335   7.950
 5056POPC   C4A11466   5.059  42.372   7.650
 5056POPC   C1B11467   5.232  42.501   8.550
 5056POPC   C2B11468   5.235  42.559   8.250
 5056POPC   C3B11469   5.261  42.501   7.950
 5056POPC   C4B11470   5.268  42.574   7.650
 5057POPC   NC311471   6.627  36.142   9.450
 5057POPC   PO411472   6.597  36.085   9.150
 5057POPC   GL111473   6.634  36.154   8.850
 5057POPC   GL211474   6.581  36.207   8.850
 5057POPC   C1A11475   6.691  36.113   8.550
 5057POPC   D2A11476   6.679  36.145   8.250
 5057POPC   C3A11477   6.621  36.105   7.950
 5057POPC   C4A11478   6.645  36.169   7.650
 5057POPC   C1B11479   6.523  36.395   8.550
 5057POPC   C2B11480   6.547  36.354   8.250
 5057POPC   C3B11481   6.503  36.300   7.950
 5057POPC   C4B11482   6.526  36.318   7.650
 5058POPC   NC311483  26.020  38.479   9.450
 5058POPC   PO411484  26.035  38.495   9.150
 5058POPC   GL111485  26.080  38.422   8.850
 5058POPC   GL211486  26.049  38.610   8.850
 5058POPC   C1A11487  26.018  38.454   8.550
 5058POPC   D2A11488  26.026  38.453   8.250
 5058POPC   C3A11489  26.064  38.414   7.950
 5058POPC   C4A11490  26.069  38.457   7.650
 5058POPC   C1B11491  26.129  38.641   8.550
 5058POPC   C2B11492  26.157  38.670   8.250
 5058POPC   C3B11493  26.171  38.728   7.950
 5058POPC   C4B11494  26.171  38.719   7.650
 5059POPC   NC311495  37.705  12.116   9.450
 5059POPC   PO411496  37.656  12.041   9.150
 5059POPC   GL111497  37.689  12.051   8.850
 5059POPC   GL211498  37.812  12.148   8.850
 5059POPC   C1A11499  37.652  12.122   8.550
 5059POPC   D2A11500  37.697  12.124   8.250
 5059POPC   C3A11501  37.708  12.060   7.950
 5059POPC   C4A11502  37.676  12.026   7.650
 5059POPC   C1B11503  37.874  12.260   8.550
 5059POPC   C2B11504  37.924  12.227   8.250
 5059POPC   C3B11505  37.844  12.259   7.950
 5059POPC   C4B11506  37.866  12.183   7.650
 5060POPC   NC311507  30.656  29.098   9.450
 5060POPC   PO411508  30.657  29.142   9.150
 5060POPC   GL111509  30.677  29.114   8.850
 5060POPC   GL211510  30.593  29.093   8.850
 5060POPC   C1A11511  30.735  29.128   8.550
 5060POPC   D2A11512  30.684  29.160   8.250
 5060POPC   C3A11513  30.653  29.122   7.950
 5060POPC   C4A11514  30.725  29.167   7.650
 5060POPC   C1B11515  30.504  29.008   8.550
 5060POPC   C2B11516  30.572  28.994   8.250
 5060POPC   C3B11517  30.559  28.996   7.950
 5060POPC   C4B11518  30.531  29.009   7.650
 5061POPC   NC311519  36.149  22.948   9.450
 5061POPC   PO411520  36.087  22.913   9.150
 5061POPC   GL111521  36.079  22.978   8.850
 5061POPC   GL211522  36.215  23.081   8.850
 5061POPC   C1A11523  36.094  22.910   8.550
 5061POPC   D2A11524  36.137  22.983   8.250
 5061POPC   C3A11525  36.168  22.959   7.950
 5061POPC   C4A11526  36.144  22.904   7.650
 5061POPC   C1B11527  36.293  23.112   8.550
 5061POPC   C2B11528  36.282  23.118   8.250
 5061POPC   C3B11529  36.225  23.153   7.950
 5061POPC   C4B11530  36.258  23.145   7.650
 5062POPC   NC311531  24.526  19.095   9.450
 5062POPC   PO411532  24.510  19.081   9.150
 5062POPC   GL111533  24.460  19.035   8.850
 5062POPC   GL211534  24.387  19.098   8.850
 5062POPC   C1A11535  24.443  19.095   8.550
 5062POPC   D2A11536  24.521  19.027   8.250
 5062POPC   C3A11537  24.525  19.059   7.950
 5062POPC   C4A11538  24.487  19.098   7.650
 5062POPC   C1B11539  24.243  19.073   8.550
 5062POPC   C2B11540  24.214  19.070   8.250
 5062POPC   C3B11541  24.286  19.053   7.950
 5062POPC   C4B11542  24.226  19.106   7.650
 5063POPC   NC311543  41.514  32.248   9.450
 5063POPC   PO411544  41.562  32.230   9.150
 5063POPC   GL111545  41.515  32.286   8.850
 5063POPC   GL211546  41.583  32.083   8.850
 5063POPC   C1A11547  41.596  32.245   8.550
 5063POPC   D2A11548  41.543  32.238   8.250
 5063POPC   C3A11549  41.602  32.294   7.950
 5063POPC   C4A11550  41.594  32.255   7.650
 5063POPC   C1B11551  41.564  32.020   8.550
 5063POPC   C2B11552  41.578  31.999   8.250
 5063POPC   C3B11553  41.574  32.005   7.950
 5063POPC   C4B11554  41.638  31.979   7.650
 5064POPC   NC311555  26.806  19.884   9.450
 5064POPC   PO411556  26.866  19.845   9.150
 5064POPC   GL111557  26.771  19.874   8.850
 5064POPC   GL211558  26.952  19.868   8.850
 5064POPC   C1A11559  26.851  19.863   8.550
 5064POPC   D2A11560  26.797  19.836   8.250
 5064POPC   C3A11561  26.865  19.831   7.950
 5064POPC   C4A11562  26.800  19.817   7.650
 5064POPC   C1B11563  27.001  19.926   8.550
 5064POPC   C2B11564  27.090  19.923   8.250
 5064POPC   C3B11565  27.093  19.899   7.950
 5064POPC   C4B11566  27.009  19.947   7.650
 5065POPC   NC311567  32.262  29.118   9.450
 5065POPC   PO411568  32.285  29.175   9.150
 5065POPC   GL111569  32.251  29.162   8.850
 5065POPC   GL211570  32.224  29.302   8.850
 5065POPC   C1A11571  32.218  29.149   8.550
 5065POPC   D2A11572  32.287  29.133   8.250
 5065POPC   C3A11573  32.254  29.154   7.950
 5065POPC   C4A11574  32.250  29.115   7.650
 5065POPC   C1B11575  32.275  29.401   8.550
 5065POPC   C2B11576  32.251  29.416   8.250
 5065POPC   C3B11577  32.218  29.408   7.950
 5065POPC   C4B11578  32.226  29.388   7.650
 5066POPC   NC311579  16.779  33.755   9.450
 5066POPC   PO411580  16.703  33.796   9.150
 5066POPC   GL111581  16.743  33.800   8.850
 5066POPC   GL211582  16.749  33.942   8.850
 5066POPC   C1A11583  16.695  33.803   8.550
 5066POPC   D2A11584  16.756  33.767   8.250
 5066POPC   C3A11585  16.754  33.810   7.950
 5066POPC   C4A11586  16.708  33.820   7.650
 5066POPC   C1B11587  16.759  34.083   8.550
 5066POPC   C2B11588  16.745  34.051   8.250
 5066POPC   C3B11589  16.766  34.084   7.950
 5066POPC   C4B11590  16.748  34.065   7.650
 5067POPC   NC311591   0.395  16.779   9.450
 5067POPC   PO411592   0.483  16.720   9.150
 5067POPC   GL111593   0.440  16.684   8.850
 5067POPC   GL211594   0.421  16.624   8.850
 5067POPC   C1A11595   0.474  16.740   8.550
 5067POPC   D2A11596   0.475  16.705   8.250
 5067POPC   C3A11597   0.437  16.725   7.950
 5067POPC   C4A11598   0.466  16.779   7.650
 5067POPC   C1B11599   0.440  16.495   8.550
 5067POPC   C2B11600   0.440  16.517   8.250
 5067POPC   C3B11601   0.459  16.460   7.950
 5067POPC   C4B11602   0.479  16.529   7.650
 5068POPC   NC311603   8.240  13.597   9.450
 5068POPC   PO411604   8.209  13.673   9.150
 5068POPC   GL111605   8.210  13.656   8.850
 5068POPC   GL211606   8.213  13.700   8.850
 5068POPC   C1A11607   8.237  13.591   8.550
 5068POPC   D2A11608   8.222  13.607   8.250
 5068POPC   C3A11609   8.157  13.661   7.950
 5068POPC   C4A11610   8.205  13.662   7.650
 5068POPC   C1B11611   8.215  13.857   8.550
 5068POPC   C2B11612   8.208  13.868   8.250
 5068POPC   C3B11613   8.239  13.877   7.950
 5068POPC   C4B11614   8.256  13.879   7.650
 5069POPC   NC311615   4.285  33.827   9.450
 5069POPC   PO411616   4.302  33.809   9.150
 5069POPC   GL111617   4.301  33.767   8.850
 5069POPC   GL211618   4.399  33.885   8.850
 5069POPC   C1A11619   4.297  33.766   8.550
 5069POPC   D2A11620   4.292  33.827   8.250
 5069POPC   C3A11621   4.281  33.805   7.950
 5069POPC   C4A11622   4.332  33.809   7.650
 5069POPC   C1B11623   4.505  34.003   8.550
 5069POPC   C2B11624   4.469  34.015   8.250
 5069POPC   C3B11625   4.488  34.028   7.950
 5069POPC   C4B11626   4.465  33.959   7.650
 5070POPC   NC311627  26.767  14.452   9.450
 5070POPC   PO411628  26.857  14.374   9.150
 5070POPC   GL111629  26.792  14.369   8.850
 5070POPC   GL211630  26.918  14.492   8.850
 5070POPC   C1A11631  26.835  14.417   8.550
 5070POPC   D2A11632  26.850  14.386   8.250
 5070POPC   C3A11633  26.769  14.384   7.950
 5070POPC   C4A11634  26.813  14.391   7.650
 5070POPC   C1B11635  26.939  14.662   8.550
 5070POPC   C2B11636  26.890  14.603   8.250
 5070POPC   C3B11637  26.940  14.625   7.950
 5070POPC   C4B11638  26.963  14.642   7.650
 5071POPC   NC311639  15.148  29.106   9.450
 5071POPC   PO411640  15.185  29.126   9.150
 5071POPC   GL111641  15.194  29.169   8.850
 5071POPC   GL211642  15.222  29.301   8.850
 5071POPC   C1A11643  15.215  29.099   8.550
 5071POPC   D2A11644  15.132  29.194   8.250
 5071POPC   C3A11645  15.202  29.127   7.950
 5071POPC   C4A11646  15.218  29.112   7.650
 5071POPC   C1B11647  15.181  29.363   8.550
 5071POPC   C2B11648  15.223  29.415   8.250
 5071POPC   C3B11649  15.173  29.357   7.950
 5071POPC   C4B11650  15.186  29.386   7.650
 5072POPC   NC311651  26.858  30.714   9.450
 5072POPC   PO411652  26.839  30.710   9.150
 5072POPC   GL111653  26.813  30.682   8.850
 5072POPC   GL211654  26.685  30.687   8.850
 5072POPC   C1A11655  26.860  30.669   8.550
 5072POPC   D2A11656  26.814  30.730   8.250
 5072POPC   C3A11657  26.808  30.662   7.950
 5072POPC   C4A11658  26.800  30.740   7.650
 5072POPC   C1B11659  26.589  30.693   8.550
 5072POPC   C2B11660  26.570  30.646   8.250
 5072POPC   C3B11661  26.548  30.658   7.950
 5072POPC   C4B11662  26.582  30.655   7.650
 5073POPC   NC311663   0.467  25.250   9.450
 5073POPC   PO411664   0.441  25.218   9.150
 5073POPC   GL111665   0.453  25.288   8.850
 5073POPC   GL211666   0.518  25.208   8.850
 5073POPC   C1A11667   0.447  25.270   8.550
 5073POPC   D2A11668   0.444  25.232   8.250
 5073POPC   C3A11669   0.417  25.311   7.950
 5073POPC   C4A11670   0.452  25.302   7.650
 5073POPC   C1B11671   0.619  25.141   8.550
 5073POPC   C2B11672   0.669  25.148   8.250
 5073POPC   C3B11673   0.606  25.143   7.950
 5073POPC   C4B11674   0.693  25.115   7.650
 5074POPC   NC311675  44.685   7.397   9.450
 5074POPC   PO411676  44.674   7.449   9.150
 5074POPC   GL111677  44.657   7.382   8.850
 5074POPC   GL211678  44.800   7.419   8.850
 5074POPC   C1A11679  44.689   7.463   8.550
 5074POPC   D2A11680  44.687   7.402   8.250
 5074POPC   C3A11681  44.658   7.420   7.950
 5074POPC   C4A11682  44.641   7.377   7.650
 5074POPC   C1B11683  44.959   7.385   8.550
 5074POPC   C2B11684  44.867   7.457   8.250
 5074POPC   C3B11685  44.906   7.401   7.950
 5074POPC   C4B11686  44.929   7.439   7.650
 5075POPC   NC311687  12.047   1.212   9.450
 5075POPC   PO411688  12.120   1.239   9.150
 5075POPC   GL111689  12.116   1.177   8.850
 5075POPC   GL211690  11.972   1.157   8.850
 5075POPC   C1A11691  12.044   1.224   8.550
 5075POPC   D2A11692  12.056   1.207   8.250
 5075POPC   C3A11693  12.096   1.186   7.950
 5075POPC   C4A11694  12.119   1.196   7.650
 5075POPC   C1B11695  11.804   1.150   8.550
 5075POPC   C2B11696  11.894   1.075   8.250
 5075POPC   C3B11697  11.866   1.165   7.950
 5075POPC   C4B11698  11.821   1.144   7.650
 5076POPC   NC311699  12.061  25.236   9.450
 5076POPC   PO411700  12.027  25.255   9.150
 5076POPC   GL111701  12.124  25.268   8.850
 5076POPC   GL211702  12.081  25.366   8.850
 5076POPC   C1A11703  12.067  25.303   8.550
 5076POPC   D2A11704  12.072  25.279   8.250
 5076POPC   C3A11705  12.049  25.240   7.950
 5076POPC   C4A11706  12.116  25.260   7.650
 5076POPC   C1B11707  11.972  25.518   8.550
 5076POPC   C2B11708  12.027  25.531   8.250
 5076POPC   C3B11709  12.012  25.469   7.950
 5076POPC   C4B11710  12.018  25.463   7.650
 5077POPC   NC311711   3.577  31.446   9.450
 5077POPC   PO411712   3.537  31.452   9.150
 5077POPC   GL111713   3.557  31.447   8.850
 5077POPC   GL211714   3.682  31.418   8.850
 5077POPC   C1A11715   3.547  31.460   8.550
 5077POPC   D2A11716   3.550  31.490   8.250
 5077POPC   C3A11717   3.497  31.514   7.950
 5077POPC   C4A11718   3.558  31.513   7.650
 5077POPC   C1B11719   3.829  31.508   8.550
 5077POPC   C2B11720   3.805  31.440   8.250
 5077POPC   C3B11721   3.821  31.458   7.950
 5077POPC   C4B11722   3.837  31.467   7.650
 5078POPC   NC311723  24.507  23.755   9.450
 5078POPC   PO411724  24.497  23.675   9.150
 5078POPC   GL111725  24.479  23.746   8.850
 5078POPC   GL211726  24.565  23.658   8.850
 5078POPC   C1A11727  24.519  23.664   8.550
 5078POPC   D2A11728  24.484  23.759   8.250
 5078POPC   C3A11729  24.523  23.701   7.950
 5078POPC   C4A11730  24.463  23.762   7.650
 5078POPC   C1B11731  24.715  23.566   8.550
 5078POPC   C2B11732  24.699  23.621   8.250
 5078POPC   C3B11733  24.693  23.590   7.950
 5078POPC   C4B11734  24.754  23.574   7.650
 5079POPC   NC311735  40.769  43.868   9.450
 5079POPC   PO411736  40.795  43.857   9.150
 5079POPC   GL111737  40.830  43.887   8.850
 5079POPC   GL211738  40.707  43.771   8.850
 5079POPC   C1A11739  40.813  43.888   8.550
 5079POPC   D2A11740  40.817  43.837   8.250
 5079POPC   C3A11741  40.738  43.936   7.950
 5079POPC   C4A11742  40.760  43.916   7.650
 5079POPC   C1B11743  40.692  43.698   8.550
 5079POPC   C2B11744  40.690  43.688   8.250
 5079POPC   C3B11745  40.736  43.675   7.950
 5079POPC   C4B11746  40.670  43.625   7.650
 5080POPC   NC311747   2.027  42.361   9.450
 5080POPC   PO411748   2.026  42.341   9.150
 5080POPC   GL111749   2.028  42.356   8.850
 5080POPC   GL211750   2.091  42.323   8.850
 5080POPC   C1A11751   1.941  42.292   8.550
 5080POPC   D2A11752   1.941  42.343   8.250
 5080POPC   C3A11753   1.947  42.377   7.950
 5080POPC   C4A11754   1.992  42.370   7.650
 5080POPC   C1B11755   2.196  42.253   8.550
 5080POPC   C2B11756   2.222  42.236   8.250
 5080POPC   C3B11757   2.240  42.249   7.950
 5080POPC   C4B11758   2.269  42.237   7.650
 5081POPC   NC311759  29.910  41.566   9.450
 5081POPC   PO411760  29.948  41.567   9.150
 5081POPC   GL111761  29.941  41.599   8.850
 5081POPC   GL211762  29.968  41.662   8.850
 5081POPC   C1A11763  29.921  41.541   8.550
 5081POPC   D2A11764  29.953  41.548   8.250
 5081POPC   C3A11765  29.893  41.551   7.950
 5081POPC   C4A11766  29.947  41.549   7.650
 5081POPC   C1B11767  30.098  41.765   8.550
 5081POPC   C2B11768  30.018  41.746   8.250
 5081POPC   C3B11769  30.010  41.794   7.950
 5081POPC   C4B11770  30.100  41.728   7.650
 5082POPC   NC311771  41.537  22.119   9.450
 5082POPC   PO411772  41.596  22.125   9.150
 5082POPC   GL111773  41.577  22.195   8.850
 5082POPC   GL211774  41.562  22.302   8.850
 5082POPC   C1A11775  41.550  22.152   8.550
 5082POPC   D2A11776  41.598  22.174   8.250
 5082POPC   C3A11777  41.520  22.167   7.950
 5082POPC   C4A11778  41.582  22.166   7.650
 5082POPC   C1B11779  41.575  22.423   8.550
 5082POPC   C2B11780  41.572  22.371   8.250
 5082POPC   C3B11781  41.592  22.460   7.950
 5082POPC   C4B11782  41.596  22.433   7.650
 5083POPC   NC311783   4.355  43.148   9.450
 5083POPC   PO411784   4.355  43.144   9.150
 5083POPC   GL111785   4.314  43.096   8.850
 5083POPC   GL211786   4.210  43.059   8.850
 5083POPC   C1A11787   4.327  43.159   8.550
 5083POPC   D2A11788   4.269  43.143   8.250
 5083POPC   C3A11789   4.295  43.067   7.950
 5083POPC   C4A11790   4.335  43.111   7.650
 5083POPC   C1B11791   4.112  43.048   8.550
 5083POPC   C2B11792   4.045  43.070   8.250
 5083POPC   C3B11793   4.036  43.027   7.950
 5083POPC   C4B11794   4.097  43.036   7.650
 5084POPC   NC311795   6.595   9.790   9.450
 5084POPC   PO411796   6.640   9.729   9.150
 5084POPC   GL111797   6.616   9.759   8.850
 5084POPC   GL211798   6.740   9.723   8.850
 5084POPC   C1A11799   6.687   9.783   8.550
 5084POPC   D2A11800   6.679   9.766   8.250
 5084POPC   C3A11801   6.654   9.702   7.950
 5084POPC   C4A11802   6.688   9.794   7.650
 5084POPC   C1B11803   6.853   9.708   8.550
 5084POPC   C2B11804   6.858   9.684   8.250
 5084POPC   C3B11805   6.890   9.722   7.950
 5084POPC   C4B11806   6.921   9.700   7.650
 5085POPC   NC311807  40.040   1.960   9.450
 5085POPC   PO411808  40.044   1.991   9.150
 5085POPC   GL111809  39.971   1.989   8.850
 5085POPC   GL211810  40.004   1.835   8.850
 5085POPC   C1A11811  40.003   1.948   8.550
 5085POPC   D2A11812  40.046   2.003   8.250
 5085POPC   C3A11813  39.970   1.984   7.950
 5085POPC   C4A11814  40.044   1.965   7.650
 5085POPC   C1B11815  40.064   1.751   8.550
 5085POPC   C2B11816  40.108   1.706   8.250
 5085POPC   C3B11817  40.096   1.767   7.950
 5085POPC   C4B11818  40.111   1.757   7.650
 5086POPC   NC311819  17.471   8.930   9.450
 5086POPC   PO411820  17.511   8.987   9.150
 5086POPC   GL111821  17.532   8.973   8.850
 5086POPC   GL211822  17.595   9.044   8.850
 5086POPC   C1A11823  17.534   9.016   8.550
 5086POPC   D2A11824  17.556   8.955   8.250
 5086POPC   C3A11825  17.502   8.950   7.950
 5086POPC   C4A11826  17.509   8.958   7.650
 5086POPC   C1B11827  17.690   9.146   8.550
 5086POPC   C2B11828  17.689   9.182   8.250
 5086POPC   C3B11829  17.725   9.147   7.950
 5086POPC   C4B11830  17.654   9.163   7.650
 5087POPC   NC311831  39.237  43.124   9.450
 5087POPC   PO411832  39.277  43.122   9.150
 5087POPC   GL111833  39.204  43.099   8.850
 5087POPC   GL211834  39.164  42.974   8.850
 5087POPC   C1A11835  39.272  43.106   8.550
 5087POPC   D2A11836  39.186  43.120   8.250
 5087POPC   C3A11837  39.254  43.080   7.950
 5087POPC   C4A11838  39.271  43.114   7.650
 5087POPC   C1B11839  39.214  42.863   8.550
 5087POPC   C2B11840  39.204  42.826   8.250
 5087POPC   C3B11841  39.140  42.837   7.950
 5087POPC   C4B11842  39.130  42.853   7.650
 5088POPC   NC311843  22.970  37.664   9.450
 5088POPC   PO411844  22.927  37.677   9.150
 5088POPC   GL111845  22.892  37.714   8.850
 5088POPC   GL211846  22.851  37.671   8.850
 5088POPC   C1A11847  22.950  37.673   8.550
 5088POPC   D2A11848  22.908  37.660   8.250
 5088POPC   C3A11849  22.941  37.643   7.950
 5088POPC   C4A11850  22.942  37.651   7.650
 5088POPC   C1B11851  22.680  37.733   8.550
 5088POPC   C2B11852  22.667  37.744   8.250
 5088POPC   C3B11853  22.651  37.680   7.950
 5088POPC   C4B11854  22.694  37.764   7.650
 5089POPC   NC311855  39.259  33.785   9.450
 5089POPC   PO411856  39.211  33.761   9.150
 5089POPC   GL111857  39.227  33.767   8.850
 5089POPC   GL211858  39.073  33.803   8.850
 5089POPC   C1A11859  39.279  33.808   8.550
 5089POPC   D2A11860  39.248  33.820   8.250
 5089POPC   C3A11861  39.196  33.839   7.950
 5089POPC   C4A11862  39.212  33.821   7.650
 5089POPC   C1B11863  38.989  33.828   8.550
 5089POPC   C2B11864  39.011  33.856   8.250
 5089POPC   C3B11865  38.947  33.871   7.950
 5089POPC   C4B11866  39.028  33.783   7.650
 5090POPC   NC311867  30.665   1.254   9.450
 5090POPC   PO411868  30.651   1.263   9.150
 5090POPC   GL111869  30.725   1.170   8.850
 5090POPC   GL211870  30.556   1.149   8.850
 5090POPC   C1A11871  30.652   1.263   8.550
 5090POPC   D2A11872  30.650   1.243   8.250
 5090POPC   C3A11873  30.737   1.199   7.950
 5090POPC   C4A11874  30.691   1.211   7.650
 5090POPC   C1B11875  30.474   1.175   8.550
 5090POPC   C2B11876  30.428   1.129   8.250
 5090POPC   C3B11877  30.424   1.130   7.950
 5090POPC   C4B11878  30.414   1.134   7.650
 5091POPC   NC311879  39.239  19.836   9.450
 5091POPC   PO411880  39.272  19.846   9.150
 5091POPC   GL111881  39.200  19.799   8.850
 5091POPC   GL211882  39.272  19.681   8.850
 5091POPC   C1A11883  39.226  19.801   8.550
 5091POPC   D2A11884  39.214  19.788   8.250
 5091POPC   C3A11885  39.218  19.799   7.950
 5091POPC   C4A11886  39.210  19.856   7.650
 5091POPC   C1B11887  39.334  19.630   8.550
 5091POPC   C2B11888  39.362  19.661   8.250
 5091POPC   C3B11889  39.381  19.665   7.950
 5091POPC   C4B11890  39.390  19.607   7.650
 5092POPC   NC311891  36.877  12.878   9.450
 5092POPC   PO411892  36.953  12.804   9.150
 5092POPC   GL111893  36.943  12.889   8.850
 5092POPC   GL211894  37.014  12.934   8.850
 5092POPC   C1A11895  36.882  12.857   8.550
 5092POPC   D2A11896  36.882  12.802   8.250
 5092POPC   C3A11897  36.864  12.855   7.950
 5092POPC   C4A11898  36.907  12.852   7.650
 5092POPC   C1B11899  37.065  13.062   8.550
 5092POPC   C2B11900  37.017  13.057   8.250
 5092POPC   C3B11901  37.001  13.094   7.950
 5092POPC   C4B11902  37.019  13.098   7.650
 5093POPC   NC311903  44.708  25.312   9.450
 5093POPC   PO411904  44.702  25.266   9.150
 5093POPC   GL111905  44.673  25.253   8.850
 5093POPC   GL211906  44.523  25.285   8.850
 5093POPC   C1A11907  44.693  25.225   8.550
 5093POPC   D2A11908  44.692  25.294   8.250
 5093POPC   C3A11909  44.658  25.244   7.950
 5093POPC   C4A11910  44.701  25.223   7.650
 5093POPC   C1B11911  44.450  25.404   8.550
 5093POPC   C2B11912  44.447  25.391   8.250
 5093POPC   C3B11913  44.504  25.399   7.950
 5093POPC   C4B11914  44.481  25.409   7.650
 5094POPC   NC311915  32.996  28.337   9.450
 5094POPC   PO411916  33.073  28.324   9.150
 5094POPC   GL111917  33.061  28.416   8.850
 5094POPC   GL211918  32.995  28.514   8.850
 5094POPC   C1A11919  33.047  28.352   8.550
 5094POPC   D2A11920  32.998  28.413   8.250
 5094POPC   C3A11921  33.012  28.382   7.950
 5094POPC   C4A11922  32.992  28.395   7.650
 5094POPC   C1B11923  32.939  28.583   8.550
 5094POPC   C2B11924  32.925  28.555   8.250
 5094POPC   C3B11925  32.874  28.618   7.950
 5094POPC   C4B11926  32.880  28.551   7.650
 5095POPC   NC311927  33.047   0.394   9.450
 5095POPC   PO411928  33.036   0.429   9.150
 5095POPC   GL111929  32.980   0.424   8.850
 5095POPC   GL211930  33.081   0.577   8.850
 5095POPC   C1A11931  33.069   0.459   8.550
 5095POPC   D2A11932  33.047   0.461   8.250
 5095POPC   C3A11933  33.007   0.459   7.950
 5095POPC   C4A11934  33.013   0.412   7.650
 5095POPC   C1B11935  33.158   0.603   8.550
 5095POPC   C2B11936  33.206   0.658   8.250
 5095POPC   C3B11937  33.183   0.649   7.950
 5095POPC   C4B11938  33.215   0.606   7.650
 5096POPC   NC311939   9.000   5.913   9.450
 5096POPC   PO411940   8.951   5.869   9.150
 5096POPC   GL111941   9.000   5.862   8.850
 5096POPC   GL211942   8.908   5.717   8.850
 5096POPC   C1A11943   8.936   5.833   8.550
 5096POPC   D2A11944   8.977   5.840   8.250
 5096POPC   C3A11945   8.926   5.842   7.950
 5096POPC   C4A11946   9.013   5.850   7.650
 5096POPC   C1B11947   8.878   5.652   8.550
 5096POPC   C2B11948   8.885   5.608   8.250
 5096POPC   C3B11949   8.878   5.699   7.950
 5096POPC   C4B11950   8.824   5.690   7.650
 5097POPC   NC311951  30.741   5.128   9.450
 5097POPC   PO411952  30.666   5.112   9.150
 5097POPC   GL111953  30.739   5.075   8.850
 5097POPC   GL211954  30.849   5.039   8.850
 5097POPC   C1A11955  30.652   5.074   8.550
 5097POPC   D2A11956  30.656   5.064   8.250
 5097POPC   C3A11957  30.726   5.125   7.950
 5097POPC   C4A11958  30.729   5.114   7.650
 5097POPC   C1B11959  30.907   4.993   8.550
 5097POPC   C2B11960  30.947   4.984   8.250
 5097POPC   C3B11961  30.922   4.982   7.950
 5097POPC   C4B11962  30.877   4.957   7.650
 5098POPC   NC311963   2.783  22.950   9.450
 5098POPC   PO411964   2.777  22.897   9.150
 5098POPC   GL111965   2.737  22.902   8.850
 5098POPC   GL211966   2.660  23.078   8.850
 5098POPC   C1A11967   2.787  22.944   8.550
 5098POPC   D2A11968   2.775  22.962   8.250
 5098POPC   C3A11969   2.762  22.921   7.950
 5098POPC   C4A11970   2.811  22.920   7.650
 5098POPC   C1B11971   2.611  23.163   8.550
 5098POPC   C2B11972   2.666  23.116   8.250
 5098POPC   C3B11973   2.632  23.156   7.950
 5098POPC   C4B11974   2.581  23.186   7.650
 5099POPC   NC311975  39.191  16.775   9.450
 5099POPC   PO411976  39.201  16.771   9.150
 5099POPC   GL111977  39.244  16.773   8.850
 5099POPC   GL211978  39.393  16.819   8.850
 5099POPC   C1A11979  39.263  16.683   8.550
 5099POPC   D2A11980  39.217  16.705   8.250
 5099POPC   C3A11981  39.200  16.721   7.950
 5099POPC   C4A11982  39.221  16.755   7.650
 5099POPC   C1B11983  39.480  16.859   8.550
 5099POPC   C2B11984  39.448  16.821   8.250
 5099POPC   C3B11985  39.448  16.792   7.950
 5099POPC   C4B11986  39.426  16.769   7.650
 5100POPC   NC311987   9.716  29.919   9.450
 5100POPC   PO411988   9.748  29.934   9.150
 5100POPC   GL111989   9.780  29.934   8.850
 5100POPC   GL211990   9.767  30.038   8.850
 5100POPC   C1A11991   9.741  29.936   8.550
 5100POPC   D2A11992   9.708  29.936   8.250
 5100POPC   C3A11993   9.790  29.962   7.950
 5100POPC   C4A11994   9.729  29.903   7.650
 5100POPC   C1B11995   9.711  30.191   8.550
 5100POPC   C2B11996   9.704  30.155   8.250
 5100POPC   C3B11997   9.707  30.142   7.950
 5100POPC   C4B11998   9.664  30.130   7.650
 5101POPC   NC311999   9.731  38.481   9.450
 5101POPC   PO412000   9.713  38.489   9.150
 5101POPC   GL112001   9.720  38.453   8.850
 5101POPC   GL212002   9.610  38.441   8.850
 5101POPC   C1A12003   9.710  38.494   8.550
 5101POPC   D2A12004   9.737  38.499   8.250
 5101POPC   C3A12005   9.770  38.415   7.950
 5101POPC   C4A12006   9.776  38.465   7.650
 5101POPC   C1B12007   9.561  38.338   8.550
 5101POPC   C2B12008   9.506  38.367   8.250
 5101POPC   C3B12009   9.526  38.373   7.950
 5101POPC   C4B12010   9.568  38.367   7.650
 5102POPC   NC312011  12.054   6.692   9.450
 5102POPC   PO412012  12.085   6.646   9.150
 5102POPC   GL112013  12.068   6.638   8.850
 5102POPC   GL212014  12.151   6.563   8.850
 5102POPC   C1A12015  12.064   6.671   8.550
 5102POPC   D2A12016  12.101   6.607   8.250
 5102POPC   C3A12017  12.111   6.629   7.950
 5102POPC   C4A12018  12.043   6.677   7.650
 5102POPC   C1B12019  12.223   6.456   8.550
 5102POPC   C2B12020  12.251   6.527   8.250
 5102POPC   C3B12021  12.253   6.532   7.950
 5102POPC   C4B12022  12.268   6.512   7.650
 5103POPC   NC312023  11.258  37.706   9.450
 5103POPC   PO412024  11.284  37.694   9.150
 5103POPC   GL112025  11.266  37.725   8.850
 5103POPC   GL212026  11.262  37.845   8.850
 5103POPC   C1A12027  11.315  37.682   8.550
 5103POPC   D2A12028  11.267  37.679   8.250
 5103POPC   C3A12029  11.314  37.671   7.950
 5103POPC   C4A12030  11.277  37.702   7.650
 5103POPC   C1B12031  11.365  37.887   8.550
 5103POPC   C2B12032  11.355  37.905   8.250
 5103POPC   C3B12033  11.312  37.930   7.950
 5103POPC   C4B12034  11.288  37.976   7.650
 5104POPC   NC312035   1.242  36.177   9.450
 5104POPC   PO412036   1.168  36.080   9.150
 5104POPC   GL112037   1.225  36.094   8.850
 5104POPC   GL212038   1.271  36.289   8.850
 5104POPC   C1A12039   1.238  36.106   8.550
 5104POPC   D2A12040   1.168  36.138   8.250
 5104POPC   C3A12041   1.231  36.147   7.950
 5104POPC   C4A12042   1.217  36.170   7.650
 5104POPC   C1B12043   1.266  36.335   8.550
 5104POPC   C2B12044   1.276  36.355   8.250
 5104POPC   C3B12045   1.280  36.409   7.950
 5104POPC   C4B12046   1.255  36.399   7.650
 5105POPC   NC312047  13.608  42.383   9.450
 5105POPC   PO412048  13.673  42.317   9.150
 5105POPC   GL112049  13.631  42.289   8.850
 5105POPC   GL212050  13.539  42.403   8.850
 5105POPC   C1A12051  13.611  42.368   8.550
 5105POPC   D2A12052  13.612  42.361   8.250
 5105POPC   C3A12053  13.663  42.310   7.950
 5105POPC   C4A12054  13.667  42.288   7.650
 5105POPC   C1B12055  13.385  42.440   8.550
 5105POPC   C2B12056  13.374  42.439   8.250
 5105POPC   C3B12057  13.376  42.466   7.950
 5105POPC   C4B12058  13.436  42.471   7.650
 5106POPC   NC312059  14.382  21.378   9.450
 5106POPC   PO412060  14.441  21.341   9.150
 5106POPC   GL112061  14.376  21.380   8.850
 5106POPC   GL212062  14.551  21.422   8.850
 5106POPC   C1A12063  14.411  21.359   8.550
 5106POPC   D2A12064  14.379  21.380   8.250
 5106POPC   C3A12065  14.396  21.368   7.950
 5106POPC   C4A12066  14.424  21.337   7.650
 5106POPC   C1B12067  14.631  21.507   8.550
 5106POPC   C2B12068  14.676  21.526   8.250
 5106POPC   C3B12069  14.593  21.478   7.950
 5106POPC   C4B12070  14.680  21.518   7.650
 5107POPC   NC312071  19.086  23.678   9.450
 5107POPC   PO412072  19.037  23.759   9.150
 5107POPC   GL112073  19.078  23.725   8.850
 5107POPC   GL212074  19.034  23.553   8.850
 5107POPC   C1A12075  19.064  23.736   8.550
 5107POPC   D2A12076  19.066  23.743   8.250
 5107POPC   C3A12077  19.100  23.727   7.950
 5107POPC   C4A12078  19.040  23.690   7.650
 5107POPC   C1B12079  19.000  23.491   8.550
 5107POPC   C2B12080  19.059  23.415   8.250
 5107POPC   C3B12081  19.093  23.435   7.950
 5107POPC   C4B12082  19.015  23.496   7.650
 5108POPC   NC312083  32.279  10.517   9.450
 5108POPC   PO412084  32.264  10.546   9.150
 5108POPC   GL112085  32.249  10.480   8.850
 5108POPC   GL212086  32.114  10.563   8.850
 5108POPC   C1A12087  32.273  10.484   8.550
 5108POPC   D2A12088  32.245  10.536   8.250
 5108POPC   C3A12089  32.241  10.563   7.950
 5108POPC   C4A12090  32.279  10.516   7.650
 5108POPC   C1B12091  32.037  10.488   8.550
 5108POPC   C2B12092  31.949  10.557   8.250
 5108POPC   C3B12093  31.979  10.568   7.950
 5108POPC   C4B12094  31.977  10.521   7.650
 5109POPC   NC312095   2.798  35.364   9.450
 5109POPC   PO412096   2.783  35.376   9.150
 5109POPC   GL112097   2.764  35.357   8.850
 5109POPC   GL212098   2.655  35.332   8.850
 5109POPC   C1A12099   2.779  35.374   8.550
 5109POPC   D2A12100   2.758  35.315   8.250
 5109POPC   C3A12101   2.744  35.334   7.950
 5109POPC   C4A12102   2.814  35.361   7.650
 5109POPC   C1B12103   2.476  35.398   8.550
 5109POPC   C2B12104   2.511  35.392   8.250
 5109POPC   C3B12105   2.512  35.345   7.950
 5109POPC   C4B12106   2.527  35.359   7.650
 5110POPC   NC312107   4.281  37.672   9.450
 5110POPC   PO412108   4.309  37.678   9.150
 5110POPC   GL112109   4.287  37.636   8.850
 5110POPC   GL212110   4.226  37.772   8.850
 5110POPC   C1A12111   4.285  37.710   8.550
 5110POPC   D2A12112   4.354  37.726   8.250
 5110POPC   C3A12113   4.338  37.698   7.950
 5110POPC   C4A12114   4.287  37.722   7.650
 5110POPC   C1B12115   4.186  37.866   8.550
 5110POPC   C2B12116   4.143  37.894   8.250
 5110POPC   C3B12117   4.153  37.866   7.950
 5110POPC   C4B12118   4.157  37.818   7.650
 5111POPC   NC312119  13.661  40.810   9.450
 5111POPC   PO412120  13.629  40.805   9.150
 5111POPC   GL112121  13.674  40.749   8.850
 5111POPC   GL212122  13.474  40.730   8.850
 5111POPC   C1A12123  13.589  40.777   8.550
 5111POPC   D2A12124  13.674  40.778   8.250
 5111POPC   C3A12125  13.629  40.773   7.950
 5111POPC   C4A12126  13.671  40.750   7.650
 5111POPC   C1B12127  13.403  40.694   8.550
 5111POPC   C2B12128  13.418  40.627   8.250
 5111POPC   C3B12129  13.415  40.642   7.950
 5111POPC   C4B12130  13.429  40.662   7.650
 5112POPC   NC312131  13.621  44.711   9.450
 5112POPC   PO412132  13.581  44.626   9.150
 5112POPC   GL112133  13.645  44.670   8.850
 5112POPC   GL212134  13.613  44.530   8.850
 5112POPC   C1A12135  13.628  44.638   8.550
 5112POPC   D2A12136  13.615  44.705   8.250
 5112POPC   C3A12137  13.586  44.643   7.950
 5112POPC   C4A12138  13.602  44.703   7.650
 5112POPC   C1B12139  13.480  44.462   8.550
 5112POPC   C2B12140  13.537  44.488   8.250
 5112POPC   C3B12141  13.490  44.478   7.950
 5112POPC   C4B12142  13.521  44.458   7.650
 5113POPC   NC312143  38.489  13.654   9.450
 5113POPC   PO412144  38.421  13.621   9.150
 5113POPC   GL112145  38.424  13.677   8.850
 5113POPC   GL212146  38.415  13.731   8.850
 5113POPC   C1A12147  38.465  13.627   8.550
 5113POPC   D2A12148  38.416  13.636   8.250
 5113POPC   C3A12149  38.501  13.644   7.950
 5113POPC   C4A12150  38.502  13.656   7.650
 5113POPC   C1B12151  38.462  13.852   8.550
 5113POPC   C2B12152  38.420  13.840   8.250
 5113POPC   C3B12153  38.425  13.921   7.950
 5113POPC   C4B12154  38.398  13.880   7.650
 5114POPC   NC312155  30.673  33.770   9.450
 5114POPC   PO412156  30.738  33.820   9.150
 5114POPC   GL112157  30.648  33.781   8.850
 5114POPC   GL212158  30.645  33.906   8.850
 5114POPC   C1A12159  30.726  33.802   8.550
 5114POPC   D2A12160  30.681  33.764   8.250
 5114POPC   C3A12161  30.651  33.825   7.950
 5114POPC   C4A12162  30.697  33.760   7.650
 5114POPC   C1B12163  30.609  34.007   8.550
 5114POPC   C2B12164  30.620  33.989   8.250
 5114POPC   C3B12165  30.552  34.047   7.950
 5114POPC   C4B12166  30.560  34.003   7.650
 5115POPC   NC312167   9.777  36.113   9.450
 5115POPC   PO412168   9.778  36.087   9.150
 5115POPC   GL112169   9.762  36.117   8.850
 5115POPC   GL212170   9.876  36.062   8.850
 5115POPC   C1A12171   9.795  36.161   8.550
 5115POPC   D2A12172   9.746  36.130   8.250
 5115POPC   C3A12173   9.776  36.120   7.950
 5115POPC   C4A12174   9.724  36.092   7.650
 5115POPC   C1B12175  10.028  36.095   8.550
 5115POPC   C2B12176   9.997  36.145   8.250
 5115POPC   C3B12177  10.031  36.105   7.950
 5115POPC   C4B12178   9.968  36.053   7.650
 5116POPC   NC312179   4.328  22.137   9.450
 5116POPC   PO412180   4.338  22.136   9.150
 5116POPC   GL112181   4.291  22.195   8.850
 5116POPC   GL212182   4.213  22.243   8.850
 5116POPC   C1A12183   4.349  22.203   8.550
 5116POPC   D2A12184   4.352  22.117   8.250
 5116POPC   C3A12185   4.343  22.177   7.950
 5116POPC   C4A12186   4.317  22.121   7.650
 5116POPC   C1B12187   4.134  22.369   8.550
 5116POPC   C2B12188   4.184  22.345   8.250
 5116POPC   C3B12189   4.204  22.351   7.950
 5116POPC   C4B12190   4.193  22.346   7.650
 5117POPC   NC312191  28.342  39.225   9.450
 5117POPC   PO412192  28.326  39.257   9.150
 5117POPC   GL112193  28.417  39.261   8.850
 5117POPC   GL212194  28.301  39.333   8.850
 5117POPC   C1A12195  28.348  39.245   8.550
 5117POPC   D2A12196  28.324  39.222   8.250
 5117POPC   C3A12197  28.406  39.237   7.950
 5117POPC   C4A12198  28.357  39.272   7.650
 5117POPC   C1B12199  28.164  39.462   8.550
 5117POPC   C2B12200  28.176  39.440   8.250
 5117POPC   C3B12201  28.219  39.462   7.950
 5117POPC   C4B12202  28.178  39.414   7.650
 5118POPC   NC312203  28.399  22.907   9.450
 5118POPC   PO412204  28.392  22.978   9.150
 5118POPC   GL112205  28.355  22.949   8.850
 5118POPC   GL212206  28.283  22.821   8.850
 5118POPC   C1A12207  28.397  22.981   8.550
 5118POPC   D2A12208  28.324  22.905   8.250
 5118POPC   C3A12209  28.374  22.928   7.950
 5118POPC   C4A12210  28.410  22.940   7.650
 5118POPC   C1B12211  28.297  22.698   8.550
 5118POPC   C2B12212  28.250  22.681   8.250
 5118POPC   C3B12213  28.265  22.749   7.950
 5118POPC   C4B12214  28.310  22.689   7.650
 5119POPC   NC312215  35.325   8.975   9.450
 5119POPC   PO412216  35.400   8.927   9.150
 5119POPC   GL112217  35.399   8.984   8.850
 5119POPC   GL212218  35.264   9.015   8.850
 5119POPC   C1A12219  35.373   8.989   8.550
 5119POPC   D2A12220  35.379   9.019   8.250
 5119POPC   C3A12221  35.376   9.002   7.950
 5119POPC   C4A12222  35.365   8.966   7.650
 5119POPC   C1B12223  35.128   9.168   8.550
 5119POPC   C2B12224  35.181   9.156   8.250
 5119POPC   C3B12225  35.145   9.139   7.950
 5119POPC   C4B12226  35.198   9.147   7.650
 5120POPC   NC312227  20.649  39.233   9.450
 5120POPC   PO412228  20.587  39.255   9.150
 5120POPC   GL112229  20.653  39.250   8.850
 5120POPC   GL212230  20.669  39.305   8.850
 5120POPC   C1A12231  20.637  39.215   8.550
 5120POPC   D2A12232  20.605  39.207   8.250
 5120POPC   C3A12233  20.602  39.231   7.950
 5120POPC   C4A12234  20.635  39.181   7.650
 5120POPC   C1B12235  20.759  39.460   8.550
 5120POPC   C2B12236  20.789  39.374   8.250
 5120POPC   C3B12237  20.748  39.454   7.950
 5120POPC   C4B12238  20.745  39.427   7.650
 5121POPC   NC312239  22.201  40.018   9.450
 5121POPC   PO412240  22.138  39.978   9.150
 5121POPC   GL112241  22.158  40.043   8.850
 5121POPC   GL212242  22.129  40.109   8.850
 5121POPC   C1A12243  22.177  40.026   8.550
 5121POPC   D2A12244  22.159  40.045   8.250
 5121POPC   C3A12245  22.177  40.015   7.950
 5121POPC   C4A12246  22.150  40.056   7.650
 5121POPC   C1B12247  22.088  40.189   8.550
 5121POPC   C2B12248  22.062  40.241   8.250
 5121POPC   C3B12249  21.999  40.263   7.950
 5121POPC   C4B12250  22.013  40.204   7.650
 5122POPC   NC312251  15.184  22.191   9.450
 5122POPC   PO412252  15.214  22.209   9.150
 5122POPC   GL112253  15.225  22.168   8.850
 5122POPC   GL212254  15.093  22.161   8.850
 5122POPC   C1A12255  15.207  22.176   8.550
 5122POPC   D2A12256  15.149  22.182   8.250
 5122POPC   C3A12257  15.169  22.195   7.950
 5122POPC   C4A12258  15.149  22.114   7.650
 5122POPC   C1B12259  14.899  22.144   8.550
 5122POPC   C2B12260  14.915  22.173   8.250
 5122POPC   C3B12261  14.918  22.191   7.950
 5122POPC   C4B12262  14.920  22.208   7.650
 5123POPC   NC312263  14.417  12.863   9.450
 5123POPC   PO412264  14.413  12.881   9.150
 5123POPC   GL112265  14.450  12.864   8.850
 5123POPC   GL212266  14.252  12.768   8.850
 5123POPC   C1A12267  14.444  12.826   8.550
 5123POPC   D2A12268  14.442  12.900   8.250
 5123POPC   C3A12269  14.357  12.808   7.950
 5123POPC   C4A12270  14.379  12.862   7.650
 5123POPC   C1B12271  14.158  12.758   8.550
 5123POPC   C2B12272  14.183  12.707   8.250
 5123POPC   C3B12273  14.186  12.735   7.950
 5123POPC   C4B12274  14.225  12.732   7.650
 5124POPC   NC312275  17.536  32.287   9.450
 5124POPC   PO412276  17.509  32.293   9.150
 5124POPC   GL112277  17.526  32.234   8.850
 5124POPC   GL212278  17.548  32.374   8.850
 5124POPC   C1A12279  17.545  32.238   8.550
 5124POPC   D2A12280  17.512  32.267   8.250
 5124POPC   C3A12281  17.542  32.250   7.950
 5124POPC   C4A12282  17.522  32.260   7.650
 5124POPC   C1B12283  17.631  32.433   8.550
 5124POPC   C2B12284  17.597  32.469   8.250
 5124POPC   C3B12285  17.619  32.491   7.950
 5124POPC   C4B12286  17.662  32.493   7.650
 5125POPC   NC312287  19.884  20.628   9.450
 5125POPC   PO412288  19.827  20.655   9.150
 5125POPC   GL112289  19.800  20.635   8.850
 5125POPC   GL212290  19.807  20.755   8.850
 5125POPC   C1A12291  19.822  20.635   8.550
 5125POPC   D2A12292  19.882  20.594   8.250
 5125POPC   C3A12293  19.794  20.659   7.950
 5125POPC   C4A12294  19.841  20.572   7.650
 5125POPC   C1B12295  19.819  20.829   8.550
 5125POPC   C2B12296  19.850  20.849   8.250
 5125POPC   C3B12297  19.828  20.841   7.950
 5125POPC   C4B12298  19.825  20.889   7.650
 5126POPC   NC312299  18.332   5.078   9.450
 5126POPC   PO412300  18.329   5.050   9.150
 5126POPC   GL112301  18.259   5.110   8.850
 5126POPC   GL212302  18.209   5.010   8.850
 5126POPC   C1A12303  18.293   5.135   8.550
 5126POPC   D2A12304  18.333   5.082   8.250
 5126POPC   C3A12305  18.268   5.090   7.950
 5126POPC   C4A12306  18.243   5.097   7.650
 5126POPC   C1B12307  18.193   4.870   8.550
 5126POPC   C2B12308  18.188   4.913   8.250
 5126POPC   C3B12309  18.213   4.853   7.950
 5126POPC   C4B12310  18.151   4.906   7.650
 5127POPC   NC312311   7.455  19.864   9.450
 5127POPC   PO412312   7.424  19.883   9.150
 5127POPC   GL112313   7.426  19.836   8.850
 5127POPC   GL212314   7.577  19.798   8.850
 5127POPC   C1A12315   7.392  19.842   8.550
 5127POPC   D2A12316   7.424  19.831   8.250
 5127POPC   C3A12317   7.407  19.855   7.950
 5127POPC   C4A12318   7.379  19.855   7.650
 5127POPC   C1B12319   7.637  19.714   8.550
 5127POPC   C2B12320   7.654  19.719   8.250
 5127POPC   C3B12321   7.686  19.725   7.950
 5127POPC   C4B12322   7.695  19.766   7.650
 5128POPC   NC312323  43.149   8.925   9.450
 5128POPC   PO412324  43.144   8.939   9.150
 5128POPC   GL112325  43.065   8.956   8.850
 5128POPC   GL212326  43.005   8.964   8.850
 5128POPC   C1A12327  43.069   8.965   8.550
 5128POPC   D2A12328  43.073   8.991   8.250
 5128POPC   C3A12329  43.141   8.997   7.950
 5128POPC   C4A12330  43.145   8.992   7.650
 5128POPC   C1B12331  42.912   9.072   8.550
 5128POPC   C2B12332  42.865   8.990   8.250
 5128POPC   C3B12333  42.913   9.037   7.950
 5128POPC   C4B12334  42.848   9.018   7.650
 5129POPC   NC312335   3.567   7.453   9.450
 5129POPC   PO412336   3.498   7.440   9.150
 5129POPC   GL112337   3.496   7.432   8.850
 5129POPC   GL212338   3.552   7.314   8.850
 5129POPC   C1A12339   3.510   7.438   8.550
 5129POPC   D2A12340   3.511   7.436   8.250
 5129POPC   C3A12341   3.569   7.412   7.950
 5129POPC   C4A12342   3.513   7.442   7.650
 5129POPC   C1B12343   3.610   7.150   8.550
 5129POPC   C2B12344   3.652   7.208   8.250
 5129POPC   C3B12345   3.668   7.148   7.950
 5129POPC   C4B12346   3.630   7.222   7.650
 5130POPC   NC312347  28.375  35.320   9.450
 5130POPC   PO412348  28.396  35.341   9.150
 5130POPC   GL112349  28.396  35.322   8.850
 5130POPC   GL212350  28.351  35.430   8.850
 5130POPC   C1A12351  28.320  35.344   8.550
 5130POPC   D2A12352  28.414  35.375   8.250
 5130POPC   C3A12353  28.390  35.332   7.950
 5130POPC   C4A12354  28.337  35.362   7.650
 5130POPC   C1B12355  28.386  35.646   8.550
 5130POPC   C2B12356  28.368  35.588   8.250
 5130POPC   C3B12357  28.295  35.623   7.950
 5130POPC   C4B12358  28.376  35.649   7.650
 5131POPC   NC312359  11.331  13.599   9.450
 5131POPC   PO412360  11.304  13.651   9.150
 5131POPC   GL112361  11.343  13.585   8.850
 5131POPC   GL212362  11.238  13.547   8.850
 5131POPC   C1A12363  11.302  13.671   8.550
 5131POPC   D2A12364  11.274  13.612   8.250
 5131POPC   C3A12365  11.323  13.604   7.950
 5131POPC   C4A12366  11.309  13.643   7.650
 5131POPC   C1B12367  11.097  13.470   8.550
 5131POPC   C2B12368  11.086  13.448   8.250
 5131POPC   C3B12369  11.126  13.481   7.950
 5131POPC   C4B12370  11.175  13.405   7.650
 5132POPC   NC312371  16.715  43.918   9.450
 5132POPC   PO412372  16.744  43.890   9.150
 5132POPC   GL112373  16.755  43.906   8.850
 5132POPC   GL212374  16.742  43.740   8.850
 5132POPC   C1A12375  16.767  43.888   8.550
 5132POPC   D2A12376  16.707  43.853   8.250
 5132POPC   C3A12377  16.708  43.840   7.950
 5132POPC   C4A12378  16.745  43.887   7.650
 5132POPC   C1B12379  16.831  43.622   8.550
 5132POPC   C2B12380  16.818  43.610   8.250
 5132POPC   C3B12381  16.828  43.641   7.950
 5132POPC   C4B12382  16.823  43.695   7.650
 5133POPC   NC312383  35.384  26.082   9.450
 5133POPC   PO412384  35.361  26.087   9.150
 5133POPC   GL112385  35.317  26.091   8.850
 5133POPC   GL212386  35.517  26.002   8.850
 5133POPC   C1A12387  35.317  26.080   8.550
 5133POPC   D2A12388  35.393  26.004   8.250
 5133POPC   C3A12389  35.388  26.053   7.950
 5133POPC   C4A12390  35.397  26.022   7.650
 5133POPC   C1B12391  35.548  25.976   8.550
 5133POPC   C2B12392  35.602  25.945   8.250
 5133POPC   C3B12393  35.577  25.979   7.950
 5133POPC   C4B12394  35.559  25.990   7.650
 5134POPC   NC312395  31.440  22.970   9.450
 5134POPC   PO412396  31.486  22.930   9.150
 5134POPC   GL112397  31.495  22.894   8.850
 5134POPC   GL212398  31.581  23.016   8.850
 5134POPC   C1A12399  31.485  22.940   8.550
 5134POPC   D2A12400  31.484  22.964   8.250
 5134POPC   C3A12401  31.443  22.901   7.950
 5134POPC   C4A12402  31.432  22.908   7.650
 5134POPC   C1B12403  31.658  23.052   8.550
 5134POPC   C2B12404  31.692  23.037   8.250
 5134POPC   C3B12405  31.664  23.009   7.950
 5134POPC   C4B12406  31.674  23.002   7.650
 5135POPC   NC312407  37.679  39.995   9.450
 5135POPC   PO412408  37.641  40.020   9.150
 5135POPC   GL112409  37.699  40.031   8.850
 5135POPC   GL212410  37.645  39.885   8.850
 5135POPC   C1A12411  37.682  40.014   8.550
 5135POPC   D2A12412  37.685  40.051   8.250
 5135POPC   C3A12413  37.661  40.042   7.950
 5135POPC   C4A12414  37.677  39.985   7.650
 5135POPC   C1B12415  37.715  39.707   8.550
 5135POPC   C2B12416  37.721  39.769   8.250
 5135POPC   C3B12417  37.680  39.773   7.950
 5135POPC   C4B12418  37.716  39.802   7.650
 5136POPC   NC312419  15.990  10.540   9.450
 5136POPC   PO412420  15.933  10.523   9.150
 5136POPC   GL112421  15.956  10.558   8.850
 5136POPC   GL212422  15.898  10.381   8.850
 5136POPC   C1A12423  15.985  10.495   8.550
 5136POPC   D2A12424  15.963  10.476   8.250
 5136POPC   C3A12425  15.952  10.558   7.950
 5136POPC   C4A12426  15.924  10.566   7.650
 5136POPC   C1B12427  15.903  10.269   8.550
 5136POPC   C2B12428  15.905  10.280   8.250
 5136POPC   C3B12429  15.843  10.250   7.950
 5136POPC   C4B12430  15.860  10.264   7.650
 5137POPC   NC312431  35.355  34.601   9.450
 5137POPC   PO412432  35.381  34.612   9.150
 5137POPC   GL112433  35.336  34.596   8.850
 5137POPC   GL212434  35.320  34.448   8.850
 5137POPC   C1A12435  35.317  34.571   8.550
 5137POPC   D2A12436  35.365  34.586   8.250
 5137POPC   C3A12437  35.386  34.605   7.950
 5137POPC   C4A12438  35.317  34.610   7.650
 5137POPC   C1B12439  35.251  34.328   8.550
 5137POPC   C2B12440  35.233  34.390   8.250
 5137POPC   C3B12441  35.214  34.416   7.950
 5137POPC   C4B12442  35.188  34.350   7.650
 5138POPC   NC312443  30.674  39.958   9.450
 5138POPC   PO412444  30.730  39.991   9.150
 5138POPC   GL112445  30.708  40.025   8.850
 5138POPC   GL212446  30.667  40.103   8.850
 5138POPC   C1A12447  30.649  40.005   8.550
 5138POPC   D2A12448  30.696  39.979   8.250
 5138POPC   C3A12449  30.664  39.965   7.950
 5138POPC   C4A12450  30.736  40.002   7.650
 5138POPC   C1B12451  30.638  40.231   8.550
 5138POPC   C2B12452  30.698  40.273   8.250
 5138POPC   C3B12453  30.669  40.271   7.950
 5138POPC   C4B12454  30.633  40.257   7.650
 5139POPC   NC312455  33.037  15.139   9.450
 5139POPC   PO412456  33.027  15.141   9.150
 5139POPC   GL112457  32.994  15.162   8.850
 5139POPC   GL212458  32.921  15.240   8.850
 5139POPC   C1A12459  33.002  15.177   8.550
 5139POPC   D2A12460  33.072  15.166   8.250
 5139POPC   C3A12461  32.976  15.179   7.950
 5139POPC   C4A12462  33.022  15.141   7.650
 5139POPC   C1B12463  32.822  15.384   8.550
 5139POPC   C2B12464  32.800  15.347   8.250
 5139POPC   C3B12465  32.868  15.385   7.950
 5139POPC   C4B12466  32.806  15.351   7.650
 5140POPC   NC312467   5.856  10.558   9.450
 5140POPC   PO412468   5.822  10.510   9.150
 5140POPC   GL112469   5.825  10.566   8.850
 5140POPC   GL212470   5.925  10.431   8.850
 5140POPC   C1A12471   5.845  10.527   8.550
 5140POPC   D2A12472   5.895  10.490   8.250
 5140POPC   C3A12473   5.863  10.507   7.950
 5140POPC   C4A12474   5.878  10.511   7.650
 5140POPC   C1B12475   5.851  10.263   8.550
 5140POPC   C2B12476   5.925  10.251   8.250
 5140POPC   C3B12477   5.932  10.299   7.950
 5140POPC   C4B12478   5.909  10.316   7.650
 5141POPC   NC312479  21.426   0.458   9.450
 5141POPC   PO412480  21.356   0.409   9.150
 5141POPC   GL112481  21.370   0.434   8.850
 5141POPC   GL212482  21.339   0.557   8.850
 5141POPC   C1A12483  21.385   0.392   8.550
 5141POPC   D2A12484  21.339   0.447   8.250
 5141POPC   C3A12485  21.352   0.469   7.950
 5141POPC   C4A12486  21.410   0.479   7.650
 5141POPC   C1B12487  21.222   0.667   8.550
 5141POPC   C2B12488  21.221   0.663   8.250
 5141POPC   C3B12489  21.260   0.640   7.950
 5141POPC   C4B12490  21.255   0.653   7.650
 5142POPC   NC312491  21.434  32.283   9.450
 5142POPC   PO412492  21.385  32.209   9.150
 5142POPC   GL112493  21.361  32.258   8.850
 5142POPC   GL212494  21.317  32.101   8.850
 5142POPC   C1A12495  21.347  32.216   8.550
 5142POPC   D2A12496  21.393  32.251   8.250
 5142POPC   C3A12497  21.384  32.210   7.950
 5142POPC   C4A12498  21.386  32.264   7.650
 5142POPC   C1B12499  21.216  32.072   8.550
 5142POPC   C2B12500  21.299  32.056   8.250
 5142POPC   C3B12501  21.270  32.018   7.950
 5142POPC   C4B12502  21.235  32.067   7.650
 5143POPC   NC312503  38.468  29.924   9.450
 5143POPC   PO412504  38.484  29.959   9.150
 5143POPC   GL112505  38.440  29.918   8.850
 5143POPC   GL212506  38.405  29.808   8.850
 5143POPC   C1A12507  38.412  29.950   8.550
 5143POPC   D2A12508  38.457  29.964   8.250
 5143POPC   C3A12509  38.426  29.930   7.950
 5143POPC   C4A12510  38.460  29.921   7.650
 5143POPC   C1B12511  38.288  29.745   8.550
 5143POPC   C2B12512  38.290  29.749   8.250
 5143POPC   C3B12513  38.278  29.735   7.950
 5143POPC   C4B12514  38.232  29.791   7.650
 5144POPC   NC312515  12.120  38.449   9.450
 5144POPC   PO412516  12.108  38.481   9.150
 5144POPC   GL112517  12.099  38.468   8.850
 5144POPC   GL212518  12.218  38.445   8.850
 5144POPC   C1A12519  12.066  38.493   8.550
 5144POPC   D2A12520  12.049  38.431   8.250
 5144POPC   C3A12521  12.031  38.419   7.950
 5144POPC   C4A12522  12.092  38.502   7.650
 5144POPC   C1B12523  12.299  38.465   8.550
 5144POPC   C2B12524  12.297  38.494   8.250
 5144POPC   C3B12525  12.336  38.460   7.950
 5144POPC   C4B12526  12.359  38.459   7.650
 5145POPC   NC312527  27.555  30.667   9.450
 5145POPC   PO412528  27.596  30.733   9.150
 5145POPC   GL112529  27.564  30.740   8.850
 5145POPC   GL212530  27.525  30.799   8.850
 5145POPC   C1A12531  27.567  30.686   8.550
 5145POPC   D2A12532  27.583  30.680   8.250
 5145POPC   C3A12533  27.597  30.745   7.950
 5145POPC   C4A12534  27.600  30.654   7.650
 5145POPC   C1B12535  27.519  30.948   8.550
 5145POPC   C2B12536  27.498  30.924   8.250
 5145POPC   C3B12537  27.485  30.962   7.950
 5145POPC   C4B12538  27.492  30.933   7.650
 5146POPC   NC312539  31.441  41.601   9.450
 5146POPC   PO412540  31.515  41.526   9.150
 5146POPC   GL112541  31.437  41.572   8.850
 5146POPC   GL212542  31.601  41.656   8.850
 5146POPC   C1A12543  31.451  41.512   8.550
 5146POPC   D2A12544  31.486  41.535   8.250
 5146POPC   C3A12545  31.478  41.558   7.950
 5146POPC   C4A12546  31.423  41.546   7.650
 5146POPC   C1B12547  31.629  41.717   8.550
 5146POPC   C2B12548  31.605  41.778   8.250
 5146POPC   C3B12549  31.653  41.717   7.950
 5146POPC   C4B12550  31.655  41.692   7.650
 5147POPC   NC312551  19.852   0.481   9.450
 5147POPC   PO412552  19.793   0.468   9.150
 5147POPC   GL112553  19.819   0.419   8.850
 5147POPC   GL212554  19.921   0.373   8.850
 5147POPC   C1A12555  19.856   0.464   8.550
 5147POPC   D2A12556  19.843   0.441   8.250
 5147POPC   C3A12557  19.855   0.410   7.950
 5147POPC   C4A12558  19.804   0.434   7.650
 5147POPC   C1B12559  20.023   0.274   8.550
 5147POPC   C2B12560  19.999   0.291   8.250
 5147POPC   C3B12561  19.970   0.263   7.950
 5147POPC   C4B12562  20.044   0.204   7.650
 5148POPC   NC312563  31.495  21.365   9.450
 5148POPC   PO412564  31.461  21.367   9.150
 5148POPC   GL112565  31.452  21.396   8.850
 5148POPC   GL212566  31.589  21.434   8.850
 5148POPC   C1A12567  31.515  21.352   8.550
 5148POPC   D2A12568  31.492  21.412   8.250
 5148POPC   C3A12569  31.471  21.430   7.950
 5148POPC   C4A12570  31.435  21.365   7.650
 5148POPC   C1B12571  31.708  21.429   8.550
 5148POPC   C2B12572  31.765  21.393   8.250
 5148POPC   C3B12573  31.691  21.389   7.950
 5148POPC   C4B12574  31.690  21.452   7.650
 5149POPC   NC312575  12.072  36.086   9.450
 5149POPC   PO412576  12.041  36.118   9.150
 5149POPC   GL112577  12.086  36.103   8.850
 5149POPC   GL212578  12.104  36.234   8.850
 5149POPC   C1A12579  12.055  36.088   8.550
 5149POPC   D2A12580  12.087  36.152   8.250
 5149POPC   C3A12581  12.073  36.105   7.950
 5149POPC   C4A12582  12.083  36.090   7.650
 5149POPC   C1B12583  12.172  36.356   8.550
 5149POPC   C2B12584  12.123  36.334   8.250
 5149POPC   C3B12585  12.111  36.371   7.950
 5149POPC   C4B12586  12.174  36.418   7.650
 5150POPC   NC312587  29.914  23.733   9.450
 5150POPC   PO412588  29.915  23.721   9.150
 5150POPC   GL112589  29.954  23.762   8.850
 5150POPC   GL212590  29.947  23.778   8.850
 5150POPC   C1A12591  29.945  23.684   8.550
 5150POPC   D2A12592  29.897  23.706   8.250
 5150POPC   C3A12593  29.964  23.723   7.950
 5150POPC   C4A12594  29.922  23.676   7.650
 5150POPC   C1B12595  30.077  23.915   8.550
 5150POPC   C2B12596  30.019  23.881   8.250
 5150POPC   C3B12597  30.060  23.916   7.950
 5150POPC   C4B12598  30.040  23.945   7.650
 5151POPC   NC312599  37.677  11.284   9.450
 5151POPC   PO412600  37.694  11.278   9.150
 5151POPC   GL112601  37.715  11.340   8.850
 5151POPC   GL212602  37.816  11.234   8.850
 5151POPC   C1A12603  37.721  11.325   8.550
 5151POPC   D2A12604  37.686  11.343   8.250
 5151POPC   C3A12605  37.659  11.268   7.950
 5151POPC   C4A12606  37.694  11.319   7.650
 5151POPC   C1B12607  37.961  11.213   8.550
 5151POPC   C2B12608  37.962  11.189   8.250
 5151POPC   C3B12609  37.919  11.261   7.950
 5151POPC   C4B12610  37.890  11.242   7.650
 5152POPC   NC312611  35.372  15.936   9.450
 5152POPC   PO412612  35.372  15.914   9.150
 5152POPC   GL112613  35.373  15.974   8.850
 5152POPC   GL212614  35.479  15.998   8.850
 5152POPC   C1A12615  35.397  15.971   8.550
 5152POPC   D2A12616  35.303  15.933   8.250
 5152POPC   C3A12617  35.342  15.968   7.950
 5152POPC   C4A12618  35.381  15.925   7.650
 5152POPC   C1B12619  35.551  16.061   8.550
 5152POPC   C2B12620  35.587  16.053   8.250
 5152POPC   C3B12621  35.587  16.108   7.950
 5152POPC   C4B12622  35.530  16.063   7.650
 5153POPC   NC312623  39.259  38.443   9.450
 5153POPC   PO412624  39.246  38.435   9.150
 5153POPC   GL112625  39.264  38.498   8.850
 5153POPC   GL212626  39.068  38.396   8.850
 5153POPC   C1A12627  39.250  38.479   8.550
 5153POPC   D2A12628  39.187  38.440   8.250
 5153POPC   C3A12629  39.186  38.419   7.950
 5153POPC   C4A12630  39.252  38.445   7.650
 5153POPC   C1B12631  39.000  38.371   8.550
 5153POPC   C2B12632  38.953  38.391   8.250
 5153POPC   C3B12633  39.016  38.413   7.950
 5153POPC   C4B12634  38.950  38.462   7.650
 5154POPC   NC312635  17.465  14.381   9.450
 5154POPC   PO412636  17.539  14.369   9.150
 5154POPC   GL112637  17.502  14.430   8.850
 5154POPC   GL212638  17.531  14.245   8.850
 5154POPC   C1A12639  17.464  14.444   8.550
 5154POPC   D2A12640  17.511  14.386   8.250
 5154POPC   C3A12641  17.548  14.369   7.950
 5154POPC   C4A12642  17.499  14.372   7.650
 5154POPC   C1B12643  17.558  14.178   8.550
 5154POPC   C2B12644  17.511  14.188   8.250
 5154POPC   C3B12645  17.535  14.155   7.950
 5154POPC   C4B12646  17.495  14.170   7.650
 5155POPC   NC312647  10.547  34.591   9.450
 5155POPC   PO412648  10.509  34.528   9.150
 5155POPC   GL112649  10.536  34.573   8.850
 5155POPC   GL212650  10.420  34.461   8.850
 5155POPC   C1A12651  10.489  34.572   8.550
 5155POPC   D2A12652  10.518  34.586   8.250
 5155POPC   C3A12653  10.507  34.612   7.950
 5155POPC   C4A12654  10.534  34.574   7.650
 5155POPC   C1B12655  10.363  34.385   8.550
 5155POPC   C2B12656  10.423  34.347   8.250
 5155POPC   C3B12657  10.383  34.372   7.950
 5155POPC   C4B12658  10.368  34.361   7.650
 5156POPC   NC312659  10.557  28.396   9.450
 5156POPC   PO412660  10.566  28.359   9.150
 5156POPC   GL112661  10.533  28.386   8.850
 5156POPC   GL212662  10.529  28.258   8.850
 5156POPC   C1A12663  10.498  28.417   8.550
 5156POPC   D2A12664  10.504  28.371   8.250
 5156POPC   C3A12665  10.483  28.349   7.950
 5156POPC   C4A12666  10.496  28.338   7.650
 5156POPC   C1B12667  10.576  28.147   8.550
 5156POPC   C2B12668  10.592  28.148   8.250
 5156POPC   C3B12669  10.593  28.136   7.950
 5156POPC   C4B12670  10.587  28.118   7.650
 5157POPC   NC312671  29.181  21.395   9.450
 5157POPC   PO412672  29.133  21.420   9.150
 5157POPC   GL112673  29.132  21.390   8.850
 5157POPC   GL212674  29.200  21.306   8.850
 5157POPC   C1A12675  29.119  21.407   8.550
 5157POPC   D2A12676  29.118  21.386   8.250
 5157POPC   C3A12677  29.116  21.435   7.950
 5157POPC   C4A12678  29.161  21.419   7.650
 5157POPC   C1B12679  29.305  21.196   8.550
 5157POPC   C2B12680  29.345  21.159   8.250
 5157POPC   C3B12681  29.315  21.230   7.950
 5157POPC   C4B12682  29.261  21.225   7.650
 5158POPC   NC312683  36.155  19.026   9.450
 5158POPC   PO412684  36.175  19.059   9.150
 5158POPC   GL112685  36.136  19.091   8.850
 5158POPC   GL212686  36.106  18.974   8.850
 5158POPC   C1A12687  36.166  19.018   8.550
 5158POPC   D2A12688  36.156  19.069   8.250
 5158POPC   C3A12689  36.121  19.030   7.950
 5158POPC   C4A12690  36.086  19.101   7.650
 5158POPC   C1B12691  36.018  18.844   8.550
 5158POPC   C2B12692  36.024  18.825   8.250
 5158POPC   C3B12693  36.111  18.858   7.950
 5158POPC   C4B12694  36.019  18.768   7.650
 5159POPC   NC312695  12.122  22.151   9.450
 5159POPC   PO412696  12.052  22.128   9.150
 5159POPC   GL112697  12.096  22.146   8.850
 5159POPC   GL212698  11.981  22.204   8.850
 5159POPC   C1A12699  12.062  22.207   8.550
 5159POPC   D2A12700  12.111  22.130   8.250
 5159POPC   C3A12701  12.123  22.119   7.950
 5159POPC   C4A12702  12.037  22.119   7.650
 5159POPC   C1B12703  11.915  22.310   8.550
 5159POPC   C2B12704  11.855  22.350   8.250
 5159POPC   C3B12705  11.937  22.344   7.950
 5159POPC   C4B12706  11.917  22.336   7.650
 5160POPC   NC312707  38.409  16.704   9.450
 5160POPC   PO412708  38.451  16.715   9.150
 5160POPC   GL112709  38.429  16.736   8.850
 5160POPC   GL212710  38.366  16.643   8.850
 5160POPC   C1A12711  38.502  16.742   8.550
 5160POPC   D2A12712  38.475  16.684   8.250
 5160POPC   C3A12713  38.433  16.702   7.950
 5160POPC   C4A12714  38.493  16.733   7.650
 5160POPC   C1B12715  38.229  16.605   8.550
 5160POPC   C2B12716  38.301  16.534   8.250
 5160POPC   C3B12717  38.255  16.547   7.950
 5160POPC   C4B12718  38.267  16.576   7.650
 5161POPC   NC312719  18.258  12.116   9.450
 5161POPC   PO412720  18.313  12.123   9.150
 5161POPC   GL112721  18.238  12.063   8.850
 5161POPC   GL212722  18.327  11.949   8.850
 5161POPC   C1A12723  18.306  12.104   8.550
 5161POPC   D2A12724  18.242  12.089   8.250
 5161POPC   C3A12725  18.251  12.083   7.950
 5161POPC   C4A12726  18.299  12.086   7.650
 5161POPC   C1B12727  18.329  11.807   8.550
 5161POPC   C2B12728  18.350  11.853   8.250
 5161POPC   C3B12729  18.359  11.871   7.950
 5161POPC   C4B12730  18.356  11.794   7.650
 5162POPC   NC312731   7.425  12.077   9.450
 5162POPC   PO412732   7.433  12.097   9.150
 5162POPC   GL112733   7.461  12.118   8.850
 5162POPC   GL212734   7.301  12.103   8.850
 5162POPC   C1A12735   7.406  12.102   8.550
 5162POPC   D2A12736   7.394  12.124   8.250
 5162POPC   C3A12737   7.448  12.110   7.950
 5162POPC   C4A12738   7.438  12.086   7.650
 5162POPC   C1B12739   7.210  12.050   8.550
 5162POPC   C2B12740   7.131  12.073   8.250
 5162POPC   C3B12741   7.169  12.055   7.950
 5162POPC   C4B12742   7.210  12.075   7.650
 5163POPC   NC312743  13.598  34.621   9.450
 5163POPC   PO412744  13.636  34.626   9.150
 5163POPC   GL112745  13.666  34.555   8.850
 5163POPC   GL212746  13.757  34.660   8.850
 5163POPC   C1A12747  13.618  34.532   8.550
 5163POPC   D2A12748  13.604  34.573   8.250
 5163POPC   C3A12749  13.676  34.572   7.950
 5163POPC   C4A12750  13.674  34.546   7.650
 5163POPC   C1B12751  13.770  34.705   8.550
 5163POPC   C2B12752  13.777  34.781   8.250
 5163POPC   C3B12753  13.773  34.770   7.950
 5163POPC   C4B12754  13.770  34.774   7.650
 5164POPC   NC312755  32.253  16.000   9.450
 5164POPC   PO412756  32.263  15.945   9.150
 5164POPC   GL112757  32.284  16.005   8.850
 5164POPC   GL212758  32.337  15.992   8.850
 5164POPC   C1A12759  32.248  15.996   8.550
 5164POPC   D2A12760  32.258  15.906   8.250
 5164POPC   C3A12761  32.208  15.930   7.950
 5164POPC   C4A12762  32.224  15.937   7.650
 5164POPC   C1B12763  32.519  15.956   8.550
 5164POPC   C2B12764  32.487  15.990   8.250
 5164POPC   C3B12765  32.467  15.962   7.950
 5164POPC   C4B12766  32.510  15.923   7.650
 5165POPC   NC312767  16.737  31.445   9.450
 5165POPC   PO412768  16.707  31.514   9.150
 5165POPC   GL112769  16.722  31.475   8.850
 5165POPC   GL212770  16.619  31.463   8.850
 5165POPC   C1A12771  16.687  31.502   8.550
 5165POPC   D2A12772  16.729  31.472   8.250
 5165POPC   C3A12773  16.698  31.509   7.950
 5165POPC   C4A12774  16.711  31.486   7.650
 5165POPC   C1B12775  16.455  31.534   8.550
 5165POPC   C2B12776  16.488  31.506   8.250
 5165POPC   C3B12777  16.518  31.490   7.950
 5165POPC   C4B12778  16.453  31.507   7.650
 5166POPC   NC312779  32.219  39.276   9.450
 5166POPC   PO412780  32.256  39.208   9.150
 5166POPC   GL112781  32.273  39.230   8.850
 5166POPC   GL212782  32.100  39.292   8.850
 5166POPC   C1A12783  32.228  39.244   8.550
 5166POPC   D2A12784  32.260  39.214   8.250
 5166POPC   C3A12785  32.213  39.244   7.950
 5166POPC   C4A12786  32.215  39.248   7.650
 5166POPC   C1B12787  32.085  39.367   8.550
 5166POPC   C2B12788  32.024  39.415   8.250
 5166POPC   C3B12789  32.029  39.356   7.950
 5166POPC   C4B12790  32.001  39.338   7.650
 5167POPC   NC312791  40.802  13.650   9.450
 5167POPC   PO412792  40.780  13.651   9.150
 5167POPC   GL112793  40.832  13.581   8.850
 5167POPC   GL212794  40.748  13.715   8.850
 5167POPC   C1A12795  40.747  13.615   8.550
 5167POPC   D2A12796  40.737  13.623   8.250
 5167POPC   C3A12797  40.825  13.638   7.950
 5167POPC   C4A12798  40.755  13.597   7.650
 5167POPC   C1B12799  40.635  13.822   8.550
 5167POPC   C2B12800  40.695  13.869   8.250
 5167POPC   C3B12801  40.614  13.867   7.950
 5167POPC   C4B12802  40.608  13.878   7.650
 5168POPC   NC312803  33.763   4.358   9.450
 5168POPC   PO412804  33.759   4.326   9.150
 5168POPC   GL112805  33.796   4.273   8.850
 5168POPC   GL212806  33.688   4.275   8.850
 5168POPC   C1A12807  33.836   4.342   8.550
 5168POPC   D2A12808  33.845   4.297   8.250
 5168POPC   C3A12809  33.819   4.303   7.950
 5168POPC   C4A12810  33.754   4.296   7.650
 5168POPC   C1B12811  33.573   4.241   8.550
 5168POPC   C2B12812  33.589   4.300   8.250
 5168POPC   C3B12813  33.562   4.298   7.950
 5168POPC   C4B12814  33.531   4.225   7.650
 5169POPC   NC312815  36.888   7.468   9.450
 5169POPC   PO412816  36.882   7.395   9.150
 5169POPC   GL112817  36.897   7.462   8.850
 5169POPC   GL212818  36.986   7.346   8.850
 5169POPC   C1A12819  36.861   7.423   8.550
 5169POPC   D2A12820  36.876   7.399   8.250
 5169POPC   C3A12821  36.920   7.385   7.950
 5169POPC   C4A12822  36.865   7.382   7.650
 5169POPC   C1B12823  37.070   7.231   8.550
 5169POPC   C2B12824  37.083   7.204   8.250
 5169POPC   C3B12825  37.111   7.279   7.950
 5169POPC   C4B12826  37.114   7.251   7.650
 5170POPC   NC312827  37.654  22.163   9.450
 5170POPC   PO412828  37.702  22.130   9.150
 5170POPC   GL112829  37.641  22.209   8.850
 5170POPC   GL212830  37.528  22.137   8.850
 5170POPC   C1A12831  37.725  22.193   8.550
 5170POPC   D2A12832  37.661  22.174   8.250
 5170POPC   C3A12833  37.647  22.118   7.950
 5170POPC   C4A12834  37.646  22.204   7.650
 5170POPC   C1B12835  37.449  22.076   8.550
 5170POPC   C2B12836  37.420  22.088   8.250
 5170POPC   C3B12837  37.413  22.142   7.950
 5170POPC   C4B12838  37.420  22.057   7.650
 5171POPC   NC312839  29.879  22.119   9.450
 5171POPC   PO412840  29.956  22.166   9.150
 5171POPC   GL112841  29.892  22.169   8.850
 5171POPC   GL212842  29.801  22.244   8.850
 5171POPC   C1A12843  29.873  22.176   8.550
 5171POPC   D2A12844  29.949  22.115   8.250
 5171POPC   C3A12845  29.906  22.192   7.950
 5171POPC   C4A12846  29.969  22.203   7.650
 5171POPC   C1B12847  29.774  22.321   8.550
 5171POPC   C2B12848  29.734  22.324   8.250
 5171POPC   C3B12849  29.721  22.326   7.950
 5171POPC   C4B12850  29.784  22.352   7.650
 5172POPC   NC312851  19.840  22.194   9.450
 5172POPC   PO412852  19.796  22.153   9.150
 5172POPC   GL112853  19.829  22.163   8.850
 5172POPC   GL212854  19.931  22.032   8.850
 5172POPC   C1A12855  19.826  22.142   8.550
 5172POPC   D2A12856  19.849  22.197   8.250
 5172POPC   C3A12857  19.799  22.143   7.950
 5172POPC   C4A12858  19.802  22.200   7.650
 5172POPC   C1B12859  19.924  21.975   8.550
 5172POPC   C2B12860  19.952  21.971   8.250
 5172POPC   C3B12861  19.899  21.899   7.950
 5172POPC   C4B12862  19.892  21.949   7.650
 5173POPC   NC312863  25.253  23.740   9.450
 5173POPC   PO412864  25.222  23.690   9.150
 5173POPC   GL112865  25.239  23.668   8.850
 5173POPC   GL212866  25.399  23.738   8.850
 5173POPC   C1A12867  25.228  23.681   8.550
 5173POPC   D2A12868  25.314  23.725   8.250
 5173POPC   C3A12869  25.304  23.673   7.950
 5173POPC   C4A12870  25.306  23.691   7.650
 5173POPC   C1B12871  25.480  23.842   8.550
 5173POPC   C2B12872  25.486  23.848   8.250
 5173POPC   C3B12873  25.535  23.756   7.950
 5173POPC   C4B12874  25.481  23.801   7.650
 5174POPC   NC312875  32.235  22.116   9.450
 5174POPC   PO412876  32.242  22.120   9.150
 5174POPC   GL112877  32.235  22.160   8.850
 5174POPC   GL212878  32.288  22.040   8.850
 5174POPC   C1A12879  32.224  22.202   8.550
 5174POPC   D2A12880  32.203  22.195   8.250
 5174POPC   C3A12881  32.289  22.129   7.950
 5174POPC   C4A12882  32.217  22.122   7.650
 5174POPC   C1B12883  32.351  21.967   8.550
 5174POPC   C2B12884  32.351  21.959   8.250
 5174POPC   C3B12885  32.436  21.998   7.950
 5174POPC   C4B12886  32.444  22.001   7.650
 5175POPC   NC312887  40.762   4.336   9.450
 5175POPC   PO412888  40.831   4.354   9.150
 5175POPC   GL112889  40.767   4.312   8.850
 5175POPC   GL212890  40.790   4.445   8.850
 5175POPC   C1A12891  40.800   4.336   8.550
 5175POPC   D2A12892  40.787   4.272   8.250
 5175POPC   C3A12893  40.756   4.333   7.950
 5175POPC   C4A12894  40.796   4.365   7.650
 5175POPC   C1B12895  40.684   4.511   8.550
 5175POPC   C2B12896  40.672   4.601   8.250
 5175POPC   C3B12897  40.673   4.556   7.950
 5175POPC   C4B12898  40.688   4.553   7.650
 5176POPC   NC312899  29.942  34.553   9.450
 5176POPC   PO412900  29.912  34.604   9.150
 5176POPC   GL112901  29.878  34.565   8.850
 5176POPC   GL212902  29.908  34.705   8.850
 5176POPC   C1A12903  29.964  34.567   8.550
 5176POPC   D2A12904  29.898  34.573   8.250
 5176POPC   C3A12905  29.966  34.553   7.950
 5176POPC   C4A12906  29.890  34.612   7.650
 5176POPC   C1B12907  29.851  34.795   8.550
 5176POPC   C2B12908  29.814  34.859   8.250
 5176POPC   C3B12909  29.840  34.802   7.950
 5176POPC   C4B12910  29.817  34.807   7.650
 5177POPC   NC312911   5.880  22.126   9.450
 5177POPC   PO412912   5.837  22.174   9.150
 5177POPC   GL112913   5.841  22.154   8.850
 5177POPC   GL212914   5.935  22.090   8.850
 5177POPC   C1A12915   5.894  22.183   8.550
 5177POPC   D2A12916   5.887  22.204   8.250
 5177POPC   C3A12917   5.835  22.158   7.950
 5177POPC   C4A12918   5.865  22.194   7.650
 5177POPC   C1B12919   6.072  22.042   8.550
 5177POPC   C2B12920   6.041  21.977   8.250
 5177POPC   C3B12921   6.108  22.012   7.950
 5177POPC   C4B12922   6.086  22.048   7.650
 5178POPC   NC312923  32.288  18.247   9.450
 5178POPC   PO412924  32.245  18.266   9.150
 5178POPC   GL112925  32.226  18.253   8.850
 5178POPC   GL212926  32.267  18.199   8.850
 5178POPC   C1A12927  32.229  18.291   8.550
 5178POPC   D2A12928  32.289  18.323   8.250
 5178POPC   C3A12929  32.206  18.256   7.950
 5178POPC   C4A12930  32.262  18.297   7.650
 5178POPC   C1B12931  32.301  18.070   8.550
 5178POPC   C2B12932  32.264  17.997   8.250
 5178POPC   C3B12933  32.285  18.036   7.950
 5178POPC   C4B12934  32.352  18.053   7.650
 5179POPC   NC312935  36.138  29.890   9.450
 5179POPC   PO412936  36.096  29.919   9.150
 5179POPC   GL112937  36.166  29.962   8.850
 5179POPC   GL212938  36.121  30.057   8.850
 5179POPC   C1A12939  36.136  29.921   8.550
 5179POPC   D2A12940  36.100  29.897   8.250
 5179POPC   C3A12941  36.081  29.876   7.950
 5179POPC   C4A12942  36.101  29.890   7.650
 5179POPC   C1B12943  36.092  30.140   8.550
 5179POPC   C2B12944  36.032  30.130   8.250
 5179POPC   C3B12945  36.094  30.163   7.950
 5179POPC   C4B12946  36.027  30.187   7.650
 5180POPC   NC312947  19.031  12.044   9.450
 5180POPC   PO412948  19.080  12.076   9.150
 5180POPC   GL112949  19.075  12.039   8.850
 5180POPC   GL212950  19.133  12.212   8.850
 5180POPC   C1A12951  19.070  12.040   8.550
 5180POPC   D2A12952  19.091  12.082   8.250
 5180POPC   C3A12953  19.065  12.041   7.950
 5180POPC   C4A12954  19.038  12.058   7.650
 5180POPC   C1B12955  19.097  12.281   8.550
 5180POPC   C2B12956  19.137  12.356   8.250
 5180POPC   C3B12957  19.079  12.362   7.950
 5180POPC   C4B12958  19.137  12.280   7.650
 5181POPC   NC312959  29.100  22.112   9.450
 5181POPC   PO412960  29.180  22.113   9.150
 5181POPC   GL112961  29.128  22.125   8.850
 5181POPC   GL212962  29.090  22.091   8.850
 5181POPC   C1A12963  29.177  22.143   8.550
 5181POPC   D2A12964  29.173  22.152   8.250
 5181POPC   C3A12965  29.108  22.187   7.950
 5181POPC   C4A12966  29.157  22.211   7.650
 5181POPC   C1B12967  29.038  21.902   8.550
 5181POPC   C2B12968  29.031  21.880   8.250
 5181POPC   C3B12969  29.042  21.924   7.950
 5181POPC   C4B12970  29.108  21.955   7.650
 5182POPC   NC312971  42.376  30.674   9.450
 5182POPC   PO412972  42.341  30.678   9.150
 5182POPC   GL112973  42.350  30.671   8.850
 5182POPC   GL212974  42.446  30.659   8.850
 5182POPC   C1A12975  42.307  30.665   8.550
 5182POPC   D2A12976  42.362  30.662   8.250
 5182POPC   C3A12977  42.291  30.697   7.950
 5182POPC   C4A12978  42.382  30.670   7.650
 5182POPC   C1B12979  42.554  30.731   8.550
 5182POPC   C2B12980  42.574  30.721   8.250
 5182POPC   C3B12981  42.557  30.673   7.950
 5182POPC   C4B12982  42.609  30.725   7.650
 5183POPC   NC312983  22.987  35.355   9.450
 5183POPC   PO412984  22.949  35.322   9.150
 5183POPC   GL112985  22.978  35.361   8.850
 5183POPC   GL212986  22.901  35.284   8.850
 5183POPC   C1A12987  22.916  35.398   8.550
 5183POPC   D2A12988  22.958  35.348   8.250
 5183POPC   C3A12989  22.935  35.317   7.950
 5183POPC   C4A12990  22.984  35.382   7.650
 5183POPC   C1B12991  22.797  35.116   8.550
 5183POPC   C2B12992  22.818  35.175   8.250
 5183POPC   C3B12993  22.818  35.124   7.950
 5183POPC   C4B12994  22.793  35.170   7.650
 5184POPC   NC312995  29.150   5.138   9.450
 5184POPC   PO412996  29.132   5.094   9.150
 5184POPC   GL112997  29.137   5.080   8.850
 5184POPC   GL212998  29.013   5.084   8.850
 5184POPC   C1A12999  29.170   5.080   8.550
 5184POPC   D2A13000  29.179   5.090   8.250
 5184POPC   C3A13001  29.112   5.114   7.950
 5184POPC   C4A13002  29.146   5.081   7.650
 5184POPC   C1B13003  28.860   5.144   8.550
 5184POPC   C2B13004  28.926   5.118   8.250
 5184POPC   C3B13005  28.862   5.123   7.950
 5184POPC   C4B13006  28.919   5.160   7.650
 5185POPC   NC313007  22.139  38.495   9.450
 5185POPC   PO413008  22.148  38.474   9.150
 5185POPC   GL113009  22.183  38.447   8.850
 5185POPC   GL213010  22.125  38.379   8.850
 5185POPC   C1A13011  22.125  38.494   8.550
 5185POPC   D2A13012  22.145  38.452   8.250
 5185POPC   C3A13013  22.177  38.420   7.950
 5185POPC   C4A13014  22.135  38.465   7.650
 5185POPC   C1B13015  22.056  38.228   8.550
 5185POPC   C2B13016  21.988  38.201   8.250
 5185POPC   C3B13017  22.033  38.195   7.950
 5185POPC   C4B13018  22.048  38.213   7.650
 5186POPC   NC313019  22.948   5.061   9.450
 5186POPC   PO413020  22.921   5.044   9.150
 5186POPC   GL113021  22.924   5.096   8.850
 5186POPC   GL213022  23.040   5.176   8.850
 5186POPC   C1A13023  22.961   5.080   8.550
 5186POPC   D2A13024  22.933   5.101   8.250
 5186POPC   C3A13025  22.974   5.140   7.950
 5186POPC   C4A13026  22.960   5.101   7.650
 5186POPC   C1B13027  23.124   5.254   8.550
 5186POPC   C2B13028  23.092   5.324   8.250
 5186POPC   C3B13029  23.137   5.323   7.950
 5186POPC   C4B13030  23.089   5.247   7.650
 5187POPC   NC313031  16.726   2.775   9.450
 5187POPC   PO413032  16.717   2.803   9.150
 5187POPC   GL113033  16.703   2.774   8.850
 5187POPC   GL213034  16.705   2.613   8.850
 5187POPC   C1A13035  16.721   2.785   8.550
 5187POPC   D2A13036  16.769   2.782   8.250
 5187POPC   C3A13037  16.727   2.807   7.950
 5187POPC   C4A13038  16.692   2.777   7.650
 5187POPC   C1B13039  16.652   2.504   8.550
 5187POPC   C2B13040  16.701   2.492   8.250
 5187POPC   C3B13041  16.657   2.544   7.950
 5187POPC   C4B13042  16.691   2.570   7.650
 5188POPC   NC313043   5.846  33.008   9.450
 5188POPC   PO413044   5.857  33.068   9.150
 5188POPC   GL113045   5.897  33.055   8.850
 5188POPC   GL213046   5.916  33.135   8.850
 5188POPC   C1A13047   5.872  32.981   8.550
 5188POPC   D2A13048   5.867  33.040   8.250
 5188POPC   C3A13049   5.884  33.016   7.950
 5188POPC   C4A13050   5.909  33.005   7.650
 5188POPC   C1B13051   6.046  33.229   8.550
 5188POPC   C2B13052   6.018  33.209   8.250
 5188POPC   C3B13053   6.076  33.209   7.950
 5188POPC   C4B13054   6.018  33.187   7.650
 5189POPC   NC313055  34.539   8.152   9.450
 5189POPC   PO413056  34.550   8.228   9.150
 5189POPC   GL113057  34.597   8.212   8.850
 5189POPC   GL213058  34.677   8.217   8.850
 5189POPC   C1A13059  34.533   8.160   8.550
 5189POPC   D2A13060  34.573   8.232   8.250
 5189POPC   C3A13061  34.560   8.164   7.950
 5189POPC   C4A13062  34.542   8.226   7.650
 5189POPC   C1B13063  34.825   8.099   8.550
 5189POPC   C2B13064  34.832   8.174   8.250
 5189POPC   C3B13065  34.867   8.103   7.950
 5189POPC   C4B13066  34.808   8.171   7.650
 5190POPC   NC313067  44.707  43.887   9.450
 5190POPC   PO413068  44.622  43.896   9.150
 5190POPC   GL113069  44.650  43.870   8.850
 5190POPC   GL213070  44.673  43.961   8.850
 5190POPC   C1A13071  44.618  43.884   8.550
 5190POPC   D2A13072  44.620  43.859   8.250
 5190POPC   C3A13073  44.696  43.921   7.950
 5190POPC   C4A13074  44.683  43.905   7.650
 5190POPC   C1B13075  44.663  44.134   8.550
 5190POPC   C2B13076  44.570  44.109   8.250
 5190POPC   C3B13077  44.597  44.170   7.950
 5190POPC   C4B13078  44.639  44.121   7.650
 5191POPC   NC313079  31.432  22.189   9.450
 5191POPC   PO413080  31.492  22.161   9.150
 5191POPC   GL113081  31.510  22.120   8.850
 5191POPC   GL213082  31.322  22.102   8.850
 5191POPC   C1A13083  31.456  22.137   8.550
 5191POPC   D2A13084  31.442  22.153   8.250
 5191POPC   C3A13085  31.423  22.166   7.950
 5191POPC   C4A13086  31.454  22.147   7.650
 5191POPC   C1B13087  31.247  21.990   8.550
 5191POPC   C2B13088  31.270  22.065   8.250
 5191POPC   C3B13089  31.265  22.082   7.950
 5191POPC   C4B13090  31.256  22.072   7.650
 5192POPC   NC313091  11.309  26.777   9.450
 5192POPC   PO413092  11.268  26.830   9.150
 5192POPC   GL113093  11.294  26.829   8.850
 5192POPC   GL213094  11.178  26.805   8.850
 5192POPC   C1A13095  11.254  26.853   8.550
 5192POPC   D2A13096  11.264  26.824   8.250
 5192POPC   C3A13097  11.320  26.781   7.950
 5192POPC   C4A13098  11.282  26.775   7.650
 5192POPC   C1B13099  11.073  26.843   8.550
 5192POPC   C2B13100  11.079  26.889   8.250
 5192POPC   C3B13101  11.036  26.838   7.950
 5192POPC   C4B13102  11.096  26.904   7.650
 5193POPC   NC313103   8.984   9.699   9.450
 5193POPC   PO413104   8.956   9.708   9.150
 5193POPC   GL113105   8.954   9.781   8.850
 5193POPC   GL213106   9.040   9.671   8.850
 5193POPC   C1A13107   8.996   9.767   8.550
 5193POPC   D2A13108   9.002   9.718   8.250
 5193POPC   C3A13109   8.950   9.702   7.950
 5193POPC   C4A13110   9.020   9.710   7.650
 5193POPC   C1B13111   9.177   9.620   8.550
 5193POPC   C2B13112   9.197   9.614   8.250
 5193POPC   C3B13113   9.213   9.648   7.950
 5193POPC   C4B13114   9.236   9.679   7.650
 5194POPC   NC313115  13.625  18.242   9.450
 5194POPC   PO413116  13.619  18.323   9.150
 5194POPC   GL113117  13.647  18.292   8.850
 5194POPC   GL213118  13.747  18.314   8.850
 5194POPC   C1A13119  13.615  18.246   8.550
 5194POPC   D2A13120  13.583  18.278   8.250
 5194POPC   C3A13121  13.618  18.302   7.950
 5194POPC   C4A13122  13.656  18.331   7.650
 5194POPC   C1B13123  13.859  18.406   8.550
 5194POPC   C2B13124  13.862  18.411   8.250
 5194POPC   C3B13125  13.822  18.420   7.950
 5194POPC   C4B13126  13.862  18.470   7.650
 5195POPC   NC313127   4.321  34.574   9.450
 5195POPC   PO413128   4.314  34.556   9.150
 5195POPC   GL113129   4.295  34.575   8.850
 5195POPC   GL213130   4.296  34.470   8.850
 5195POPC   C1A13131   4.340  34.590   8.550
 5195POPC   D2A13132   4.271  34.559   8.250
 5195POPC   C3A13133   4.316  34.580   7.950
 5195POPC   C4A13134   4.296  34.537   7.650
 5195POPC   C1B13135   4.307  34.297   8.550
 5195POPC   C2B13136   4.295  34.316   8.250
 5195POPC   C3B13137   4.347  34.322   7.950
 5195POPC   C4B13138   4.341  34.335   7.650
 5196POPC   NC313139  24.445  22.143   9.450
 5196POPC   PO413140  24.475  22.135   9.150
 5196POPC   GL113141  24.526  22.135   8.850
 5196POPC   GL213142  24.561  22.236   8.850
 5196POPC   C1A13143  24.454  22.156   8.550
 5196POPC   D2A13144  24.463  22.208   8.250
 5196POPC   C3A13145  24.467  22.174   7.950
 5196POPC   C4A13146  24.468  22.203   7.650
 5196POPC   C1B13147  24.537  22.446   8.550
 5196POPC   C2B13148  24.507  22.404   8.250
 5196POPC   C3B13149  24.575  22.359   7.950
 5196POPC   C4B13150  24.561  22.439   7.650
 5197POPC   NC313151  33.825   6.673   9.450
 5197POPC   PO413152  33.822   6.655   9.150
 5197POPC   GL113153  33.827   6.646   8.850
 5197POPC   GL213154  33.941   6.693   8.850
 5197POPC   C1A13155  33.821   6.613   8.550
 5197POPC   D2A13156  33.775   6.634   8.250
 5197POPC   C3A13157  33.771   6.627   7.950
 5197POPC   C4A13158  33.833   6.605   7.650
 5197POPC   C1B13159  34.007   6.741   8.550
 5197POPC   C2B13160  34.024   6.699   8.250
 5197POPC   C3B13161  34.021   6.707   7.950
 5197POPC   C4B13162  34.014   6.756   7.650
 5198POPC   NC313163  33.023   8.982   9.450
 5198POPC   PO413164  32.985   9.020   9.150
 5198POPC   GL113165  33.057   8.987   8.850
 5198POPC   GL213166  32.942   8.855   8.850
 5198POPC   C1A13167  33.001   8.961   8.550
 5198POPC   D2A13168  33.033   8.948   8.250
 5198POPC   C3A13169  33.004   8.982   7.950
 5198POPC   C4A13170  33.048   8.954   7.650
 5198POPC   C1B13171  32.817   8.828   8.550
 5198POPC   C2B13172  32.859   8.844   8.250
 5198POPC   C3B13173  32.838   8.818   7.950
 5198POPC   C4B13174  32.855   8.804   7.650
 5199POPC   NC313175   5.875  19.073   9.450
 5199POPC   PO413176   5.833  19.032   9.150
 5199POPC   GL113177   5.888  19.039   8.850
 5199POPC   GL213178   5.989  19.065   8.850
 5199POPC   C1A13179   5.898  19.051   8.550
 5199POPC   D2A13180   5.914  19.055   8.250
 5199POPC   C3A13181   5.863  19.095   7.950
 5199POPC   C4A13182   5.916  19.042   7.650
 5199POPC   C1B13183   6.166  19.020   8.550
 5199POPC   C2B13184   6.160  19.033   8.250
 5199POPC   C3B13185   6.126  19.087   7.950
 5199POPC   C4B13186   6.083  19.013   7.650
 5200POPC   NC313187  39.265  32.295   9.450
 5200POPC   PO413188  39.197  32.201   9.150
 5200POPC   GL113189  39.203  32.211   8.850
 5200POPC   GL213190  39.174  32.124   8.850
 5200POPC   C1A13191  39.265  32.204   8.550
 5200POPC   D2A13192  39.215  32.261   8.250
 5200POPC   C3A13193  39.250  32.200   7.950
 5200POPC   C4A13194  39.190  32.210   7.650
 5200POPC   C1B13195  39.150  32.044   8.550
 5200POPC   C2B13196  39.151  31.972   8.250
 5200POPC   C3B13197  39.139  31.990   7.950
 5200POPC   C4B13198  39.150  32.008   7.650
 5201POPC   NC313199  19.818   6.664   9.450
 5201POPC   PO413200  19.865   6.626   9.150
 5201POPC   GL113201  19.880   6.619   8.850
 5201POPC   GL213202  19.940   6.535   8.850
 5201POPC   C1A13203  19.859   6.634   8.550
 5201POPC   D2A13204  19.793   6.671   8.250
 5201POPC   C3A13205  19.819   6.694   7.950
 5201POPC   C4A13206  19.855   6.694   7.650
 5201POPC   C1B13207  20.074   6.500   8.550
 5201POPC   C2B13208  20.049   6.552   8.250
 5201POPC   C3B13209  20.058   6.526   7.950
 5201POPC   C4B13210  20.054   6.481   7.650
 5202POPC   NC313211  17.519  22.114   9.450
 5202POPC   PO413212  17.500  22.178   9.150
 5202POPC   GL113213  17.475  22.182   8.850
 5202POPC   GL213214  17.536  22.262   8.850
 5202POPC   C1A13215  17.545  22.126   8.550
 5202POPC   D2A13216  17.518  22.160   8.250
 5202POPC   C3A13217  17.471  22.116   7.950
 5202POPC   C4A13218  17.478  22.163   7.650
 5202POPC   C1B13219  17.545  22.419   8.550
 5202POPC   C2B13220  17.535  22.365   8.250
 5202POPC   C3B13221  17.534  22.425   7.950
 5202POPC   C4B13222  17.562  22.412   7.650
 5203POPC   NC313223  29.191   8.164   9.450
 5203POPC   PO413224  29.170   8.155   9.150
 5203POPC   GL113225  29.174   8.147   8.850
 5203POPC   GL213226  29.095   8.348   8.850
 5203POPC   C1A13227  29.142   8.217   8.550
 5203POPC   D2A13228  29.106   8.187   8.250
 5203POPC   C3A13229  29.145   8.195   7.950
 5203POPC   C4A13230  29.148   8.166   7.650
 5203POPC   C1B13231  29.036   8.467   8.550
 5203POPC   C2B13232  29.019   8.443   8.250
 5203POPC   C3B13233  29.076   8.423   7.950
 5203POPC   C4B13234  29.003   8.393   7.650
 5204POPC   NC313235   9.738  18.323   9.450
 5204POPC   PO413236   9.797  18.234   9.150
 5204POPC   GL113237   9.751  18.322   8.850
 5204POPC   GL213238   9.609  18.158   8.850
 5204POPC   C1A13239   9.769  18.280   8.550
 5204POPC   D2A13240   9.794  18.304   8.250
 5204POPC   C3A13241   9.709  18.282   7.950
 5204POPC   C4A13242   9.751  18.259   7.650
 5204POPC   C1B13243   9.548  18.110   8.550
 5204POPC   C2B13244   9.607  18.099   8.250
 5204POPC   C3B13245   9.566  18.128   7.950
 5204POPC   C4B13246   9.576  18.070   7.650
 5205POPC   NC313247  29.137  41.540   9.450
 5205POPC   PO413248  29.193  41.550   9.150
 5205POPC   GL113249  29.129  41.596   8.850
 5205POPC   GL213250  28.976  41.566   8.850
 5205POPC   C1A13251  29.096  41.520   8.550
 5205POPC   D2A13252  29.144  41.583   8.250
 5205POPC   C3A13253  29.144  41.536   7.950
 5205POPC   C4A13254  29.167  41.592   7.650
 5205POPC   C1B13255  28.897  41.554   8.550
 5205POPC   C2B13256  28.916  41.590   8.250
 5205POPC   C3B13257  28.926  41.592   7.950
 5205POPC   C4B13258  28.920  41.600   7.650
 5206POPC   NC313259  42.358  11.316   9.450
 5206POPC   PO413260  42.307  11.296   9.150
 5206POPC   GL113261  42.303  11.253   8.850
 5206POPC   GL213262  42.231  11.188   8.850
 5206POPC   C1A13263  42.285  11.343   8.550
 5206POPC   D2A13264  42.312  11.319   8.250
 5206POPC   C3A13265  42.377  11.250   7.950
 5206POPC   C4A13266  42.345  11.278   7.650
 5206POPC   C1B13267  42.086  11.195   8.550
 5206POPC   C2B13268  42.110  11.179   8.250
 5206POPC   C3B13269  42.177  11.201   7.950
 5206POPC   C4B13270  42.146  11.131   7.650
 5207POPC   NC313271   7.396  33.055   9.450
 5207POPC   PO413272   7.418  33.011   9.150
 5207POPC   GL113273   7.439  33.055   8.850
 5207POPC   GL213274   7.316  33.164   8.850
 5207POPC   C1A13275   7.400  33.053   8.550
 5207POPC   D2A13276   7.401  33.039   8.250
 5207POPC   C3A13277   7.402  33.020   7.950
 5207POPC   C4A13278   7.421  33.055   7.650
 5207POPC   C1B13279   7.266  33.235   8.550
 5207POPC   C2B13280   7.274  33.210   8.250
 5207POPC   C3B13281   7.274  33.245   7.950
 5207POPC   C4B13282   7.346  33.236   7.650
 5208POPC   NC313283  22.209  15.941   9.450
 5208POPC   PO413284  22.123  15.945   9.150
 5208POPC   GL113285  22.133  15.918   8.850
 5208POPC   GL213286  22.015  15.958   8.850
 5208POPC   C1A13287  22.167  15.911   8.550
 5208POPC   D2A13288  22.154  15.917   8.250
 5208POPC   C3A13289  22.126  15.987   7.950
 5208POPC   C4A13290  22.115  15.992   7.650
 5208POPC   C1B13291  21.880  15.906   8.550
 5208POPC   C2B13292  21.900  15.914   8.250
 5208POPC   C3B13293  21.907  15.964   7.950
 5208POPC   C4B13294  21.912  15.995   7.650
 5209POPC   NC313295   5.910  43.862   9.450
 5209POPC   PO413296   5.887  43.872   9.150
 5209POPC   GL113297   5.880  43.908   8.850
 5209POPC   GL213298   5.989  43.814   8.850
 5209POPC   C1A13299   5.894  43.889   8.550
 5209POPC   D2A13300   5.888  43.894   8.250
 5209POPC   C3A13301   5.872  43.886   7.950
 5209POPC   C4A13302   5.839  43.872   7.650
 5209POPC   C1B13303   6.070  43.805   8.550
 5209POPC   C2B13304   6.141  43.797   8.250
 5209POPC   C3B13305   6.140  43.827   7.950
 5209POPC   C4B13306   6.150  43.828   7.650
 5210POPC   NC313307   5.878   5.861   9.450
 5210POPC   PO413308   5.901   5.866   9.150
 5210POPC   GL113309   5.883   5.833   8.850
 5210POPC   GL213310   5.897   5.957   8.850
 5210POPC   C1A13311   5.881   5.826   8.550
 5210POPC   D2A13312   5.893   5.885   8.250
 5210POPC   C3A13313   5.911   5.842   7.950
 5210POPC   C4A13314   5.897   5.900   7.650
 5210POPC   C1B13315   6.030   6.033   8.550
 5210POPC   C2B13316   5.983   6.034   8.250
 5210POPC   C3B13317   5.992   6.042   7.950
 5210POPC   C4B13318   6.012   6.115   7.650
 5211POPC   NC313319  40.761  11.329   9.450
 5211POPC   PO413320  40.792  11.304   9.150
 5211POPC   GL113321  40.741  11.255   8.850
 5211POPC   GL213322  40.828  11.439   8.850
 5211POPC   C1A13323  40.785  11.273   8.550
 5211POPC   D2A13324  40.745  11.327   8.250
 5211POPC   C3A13325  40.734  11.307   7.950
 5211POPC   C4A13326  40.784  11.300   7.650
 5211POPC   C1B13327  40.847  11.556   8.550
 5211POPC   C2B13328  40.872  11.536   8.250
 5211POPC   C3B13329  40.896  11.561   7.950
 5211POPC   C4B13330  40.851  11.487   7.650
 5212POPC   NC313331  37.728  28.341   9.450
 5212POPC   PO413332  37.637  28.347   9.150
 5212POPC   GL113333  37.666  28.323   8.850
 5212POPC   GL213334  37.709  28.453   8.850
 5212POPC   C1A13335  37.630  28.398   8.550
 5212POPC   D2A13336  37.709  28.393   8.250
 5212POPC   C3A13337  37.670  28.394   7.950
 5212POPC   C4A13338  37.686  28.372   7.650
 5212POPC   C1B13339  37.843  28.605   8.550
 5212POPC   C2B13340  37.796  28.548   8.250
 5212POPC   C3B13341  37.852  28.559   7.950
 5212POPC   C4B13342  37.837  28.532   7.650
 5213POPC   NC313343  21.360  41.527   9.450
 5213POPC   PO413344  21.428  41.549   9.150
 5213POPC   GL113345  21.423  41.575   8.850
 5213POPC   GL213346  21.471  41.493   8.850
 5213POPC   C1A13347  21.435  41.521   8.550
 5213POPC   D2A13348  21.393  41.596   8.250
 5213POPC   C3A13349  21.369  41.582   7.950
 5213POPC   C4A13350  21.401  41.542   7.650
 5213POPC   C1B13351  21.642  41.502   8.550
 5213POPC   C2B13352  21.601  41.462   8.250
 5213POPC   C3B13353  21.658  41.508   7.950
 5213POPC   C4B13354  21.600  41.511   7.650
 5214POPC   NC313355  41.522  15.914   9.450
 5214POPC   PO413356  41.514  15.995   9.150
 5214POPC   GL113357  41.564  15.924   8.850
 5214POPC   GL213358  41.545  16.035   8.850
 5214POPC   C1A13359  41.554  15.913   8.550
 5214POPC   D2A13360  41.599  16.004   8.250
 5214POPC   C3A13361  41.539  15.953   7.950
 5214POPC   C4A13362  41.519  15.906   7.650
 5214POPC   C1B13363  41.482  16.126   8.550
 5214POPC   C2B13364  41.423  16.175   8.250
 5214POPC   C3B13365  41.403  16.217   7.950
 5214POPC   C4B13366  41.429  16.212   7.650
 5215POPC   NC313367  25.217  26.053   9.450
 5215POPC   PO413368  25.236  26.084   9.150
 5215POPC   GL113369  25.226  26.077   8.850
 5215POPC   GL213370  25.188  25.974   8.850
 5215POPC   C1A13371  25.225  26.060   8.550
 5215POPC   D2A13372  25.218  26.062   8.250
 5215POPC   C3A13373  25.230  26.036   7.950
 5215POPC   C4A13374  25.291  26.066   7.650
 5215POPC   C1B13375  24.996  25.950   8.550
 5215POPC   C2B13376  25.054  25.959   8.250
 5215POPC   C3B13377  25.013  25.966   7.950
 5215POPC   C4B13378  25.044  25.955   7.650
 5216POPC   NC313379  44.626   9.020   9.450
 5216POPC   PO413380  44.693   8.934   9.150
 5216POPC   GL113381  44.649   8.956   8.850
 5216POPC   GL213382  44.518   8.993   8.850
 5216POPC   C1A13383  44.623   8.950   8.550
 5216POPC   D2A13384  44.673   8.981   8.250
 5216POPC   C3A13385  44.633   8.972   7.950
 5216POPC   C4A13386  44.655   8.933   7.650
 5216POPC   C1B13387  44.432   8.964   8.550
 5216POPC   C2B13388  44.437   8.983   8.250
 5216POPC   C3B13389  44.431   8.925   7.950
 5216POPC   C4B13390  44.375   8.899   7.650
 5217POPC   NC313391  28.366  34.574   9.450
 5217POPC   PO413392  28.384  34.625   9.150
 5217POPC   GL113393  28.367  34.595   8.850
 5217POPC   GL213394  28.346  34.723   8.850
 5217POPC   C1A13395  28.403  34.613   8.550
 5217POPC   D2A13396  28.418  34.580   8.250
 5217POPC   C3A13397  28.394  34.590   7.950
 5217POPC   C4A13398  28.323  34.612   7.650
 5217POPC   C1B13399  28.308  34.765   8.550
 5217POPC   C2B13400  28.265  34.814   8.250
 5217POPC   C3B13401  28.302  34.771   7.950
 5217POPC   C4B13402  28.276  34.787   7.650
 5218POPC   NC313403   9.755   9.750   9.450
 5218POPC   PO413404   9.699   9.778   9.150
 5218POPC   GL113405   9.786   9.729   8.850
 5218POPC   GL213406   9.856   9.804   8.850
 5218POPC   C1A13407   9.774   9.791   8.550
 5218POPC   D2A13408   9.712   9.769   8.250
 5218POPC   C3A13409   9.738   9.742   7.950
 5218POPC   C4A13410   9.776   9.730   7.650
 5218POPC   C1B13411   9.895   9.965   8.550
 5218POPC   C2B13412   9.938   9.878   8.250
 5218POPC   C3B13413   9.917   9.953   7.950
 5218POPC   C4B13414   9.975   9.909   7.650
 5219POPC   NC313415  36.153   0.466   9.450
 5219POPC   PO413416  36.098   0.443   9.150
 5219POPC   GL113417  36.083   0.444   8.850
 5219POPC   GL213418  36.071   0.530   8.850
 5219POPC   C1A13419  36.134   0.404   8.550
 5219POPC   D2A13420  36.167   0.409   8.250
 5219POPC   C3A13421  36.105   0.407   7.950
 5219POPC   C4A13422  36.121   0.452   7.650
 5219POPC   C1B13423  35.967   0.606   8.550
 5219POPC   C2B13424  35.929   0.546   8.250
 5219POPC   C3B13425  35.938   0.599   7.950
 5219POPC   C4B13426  35.912   0.582   7.650
 5220POPC   NC313427   8.232  15.975   9.450
 5220POPC   PO413428   8.209  15.988   9.150
 5220POPC   GL113429   8.205  16.002   8.850
 5220POPC   GL213430   8.261  16.027   8.850
 5220POPC   C1A13431   8.194  15.941   8.550
 5220POPC   D2A13432   8.155  15.939   8.250
 5220POPC   C3A13433   8.170  15.992   7.950
 5220POPC   C4A13434   8.175  15.987   7.650
 5220POPC   C1B13435   8.393  16.086   8.550
 5220POPC   C2B13436   8.351  16.152   8.250
 5220POPC   C3B13437   8.324  16.172   7.950
 5220POPC   C4B13438   8.347  16.112   7.650
 5221POPC   NC313439   9.747   2.782   9.450
 5221POPC   PO413440   9.700   2.758   9.150
 5221POPC   GL113441   9.773   2.720   8.850
 5221POPC   GL213442   9.867   2.791   8.850
 5221POPC   C1A13443   9.796   2.807   8.550
 5221POPC   D2A13444   9.725   2.791   8.250
 5221POPC   C3A13445   9.768   2.753   7.950
 5221POPC   C4A13446   9.784   2.767   7.650
 5221POPC   C1B13447   9.931   2.913   8.550
 5221POPC   C2B13448  10.016   2.878   8.250
 5221POPC   C3B13449   9.939   2.898   7.950
 5221POPC   C4B13450   9.963   2.844   7.650
 5222POPC   NC313451  40.828  30.703   9.450
 5222POPC   PO413452  40.774  30.668   9.150
 5222POPC   GL113453  40.807  30.688   8.850
 5222POPC   GL213454  40.786  30.571   8.850
 5222POPC   C1A13455  40.799  30.740   8.550
 5222POPC   D2A13456  40.771  30.674   8.250
 5222POPC   C3A13457  40.783  30.715   7.950
 5222POPC   C4A13458  40.815  30.706   7.650
 5222POPC   C1B13459  40.696  30.411   8.550
 5222POPC   C2B13460  40.664  30.426   8.250
 5222POPC   C3B13461  40.679  30.431   7.950
 5222POPC   C4B13462  40.682  30.481   7.650
 5223POPC   NC313463  32.228   5.087   9.450
 5223POPC   PO413464  32.215   5.059   9.150
 5223POPC   GL113465  32.257   5.060   8.850
 5223POPC   GL213466  32.237   4.982   8.850
 5223POPC   C1A13467  32.252   5.111   8.550
 5223POPC   D2A13468  32.290   5.100   8.250
 5223POPC   C3A13469  32.285   5.076   7.950
 5223POPC   C4A13470  32.242   5.049   7.650
 5223POPC   C1B13471  32.288   4.816   8.550
 5223POPC   C2B13472  32.298   4.803   8.250
 5223POPC   C3B13473  32.215   4.881   7.950
 5223POPC   C4B13474  32.231   4.840   7.650
 5224POPC   NC313475   8.223   8.944   9.450
 5224POPC   PO413476   8.194   8.998   9.150
 5224POPC   GL113477   8.241   9.015   8.850
 5224POPC   GL213478   8.232   8.812   8.850
 5224POPC   C1A13479   8.157   9.008   8.550
 5224POPC   D2A13480   8.193   9.007   8.250
 5224POPC   C3A13481   8.196   8.928   7.950
 5224POPC   C4A13482   8.203   8.932   7.650
 5224POPC   C1B13483   8.156   8.763   8.550
 5224POPC   C2B13484   8.194   8.697   8.250
 5224POPC   C3B13485   8.168   8.741   7.950
 5224POPC   C4B13486   8.177   8.721   7.650
 5225POPC   NC313487  28.394   5.113   9.450
 5225POPC   PO413488  28.376   5.076   9.150
 5225POPC   GL113489  28.396   5.140   8.850
 5225POPC   GL213490  28.211   5.112   8.850
 5225POPC   C1A13491  28.325   5.110   8.550
 5225POPC   D2A13492  28.386   5.130   8.250
 5225POPC   C3A13493  28.350   5.082   7.950
 5225POPC   C4A13494  28.358   5.141   7.650
 5225POPC   C1B13495  28.147   5.130   8.550
 5225POPC   C2B13496  28.122   5.144   8.250
 5225POPC   C3B13497  28.160   5.102   7.950
 5225POPC   C4B13498  28.169   5.134   7.650
 5226POPC   NC313499  30.729  19.792   9.450
 5226POPC   PO413500  30.728  19.811   9.150
 5226POPC   GL113501  30.697  19.861   8.850
 5226POPC   GL213502  30.699  19.745   8.850
 5226POPC   C1A13503  30.697  19.853   8.550
 5226POPC   D2A13504  30.734  19.814   8.250
 5226POPC   C3A13505  30.736  19.819   7.950
 5226POPC   C4A13506  30.706  19.813   7.650
 5226POPC   C1B13507  30.778  19.596   8.550
 5226POPC   C2B13508  30.686  19.593   8.250
 5226POPC   C3B13509  30.724  19.562   7.950
 5226POPC   C4B13510  30.738  19.554   7.650
 5227POPC   NC313511  38.419  25.290   9.450
 5227POPC   PO413512  38.447  25.238   9.150
 5227POPC   GL113513  38.447  25.223   8.850
 5227POPC   GL213514  38.442  25.147   8.850
 5227POPC   C1A13515  38.491  25.309   8.550
 5227POPC   D2A13516  38.409  25.281   8.250
 5227POPC   C3A13517  38.488  25.245   7.950
 5227POPC   C4A13518  38.497  25.234   7.650
 5227POPC   C1B13519  38.357  25.045   8.550
 5227POPC   C2B13520  38.405  24.983   8.250
 5227POPC   C3B13521  38.437  25.006   7.950
 5227POPC   C4B13522  38.404  25.057   7.650
 5228POPC   NC313523  14.451  18.285   9.450
 5228POPC   PO413524  14.430  18.305   9.150
 5228POPC   GL113525  14.372  18.258   8.850
 5228POPC   GL213526  14.354  18.139   8.850
 5228POPC   C1A13527  14.381  18.304   8.550
 5228POPC   D2A13528  14.388  18.290   8.250
 5228POPC   C3A13529  14.384  18.261   7.950
 5228POPC   C4A13530  14.433  18.251   7.650
 5228POPC   C1B13531  14.328  18.023   8.550
 5228POPC   C2B13532  14.286  18.037   8.250
 5228POPC   C3B13533  14.328  18.059   7.950
 5228POPC   C4B13534  14.305  18.073   7.650
 5229POPC   NC313535  21.349  33.067   9.450
 5229POPC   PO413536  21.397  32.989   9.150
 5229POPC   GL113537  21.426  33.008   8.850
 5229POPC   GL213538  21.489  32.930   8.850
 5229POPC   C1A13539  21.381  32.977   8.550
 5229POPC   D2A13540  21.360  33.004   8.250
 5229POPC   C3A13541  21.341  32.988   7.950
 5229POPC   C4A13542  21.397  33.067   7.650
 5229POPC   C1B13543  21.501  32.815   8.550
 5229POPC   C2B13544  21.484  32.806   8.250
 5229POPC   C3B13545  21.485  32.761   7.950
 5229POPC   C4B13546  21.545  32.819   7.650
 5230POPC   NC313547   1.943  22.178   9.450
 5230POPC   PO413548   2.029  22.197   9.150
 5230POPC   GL113549   1.990  22.173   8.850
 5230POPC   GL213550   1.916  22.092   8.850
 5230POPC   C1A13551   2.023  22.163   8.550
 5230POPC   D2A13552   2.000  22.114   8.250
 5230POPC   C3A13553   2.009  22.201   7.950
 5230POPC   C4A13554   1.943  22.147   7.650
 5230POPC   C1B13555   1.746  21.987   8.550
 5230POPC   C2B13556   1.758  22.021   8.250
 5230POPC   C3B13557   1.753  22.066   7.950
 5230POPC   C4B13558   1.810  21.973   7.650
 5231POPC   NC313559  41.595  14.400   9.450
 5231POPC   PO413560  41.564  14.359   9.150
 5231POPC   GL113561  41.570  14.430   8.850
 5231POPC   GL213562  41.676  14.370   8.850
 5231POPC   C1A13563  41.561  14.375   8.550
 5231POPC   D2A13564  41.527  14.422   8.250
 5231POPC   C3A13565  41.608  14.417   7.950
 5231POPC   C4A13566  41.541  14.360   7.650
 5231POPC   C1B13567  41.809  14.231   8.550
 5231POPC   C2B13568  41.803  14.306   8.250
 5231POPC   C3B13569  41.818  14.274   7.950
 5231POPC   C4B13570  41.802  14.246   7.650
 5232POPC   NC313571  14.428  19.059   9.450
 5232POPC   PO413572  14.419  19.072   9.150
 5232POPC   GL113573  14.449  19.023   8.850
 5232POPC   GL213574  14.273  19.052   8.850
 5232POPC   C1A13575  14.450  19.064   8.550
 5232POPC   D2A13576  14.422  19.028   8.250
 5232POPC   C3A13577  14.376  19.089   7.950
 5232POPC   C4A13578  14.427  19.010   7.650
 5232POPC   C1B13579  14.183  19.183   8.550
 5232POPC   C2B13580  14.216  19.150   8.250
 5232POPC   C3B13581  14.158  19.146   7.950
 5232POPC   C4B13582  14.175  19.146   7.650
 5233POPC   NC313583  20.628  12.833   9.450
 5233POPC   PO413584  20.579  12.811   9.150
 5233POPC   GL113585  20.618  12.870   8.850
 5233POPC   GL213586  20.441  12.846   8.850
 5233POPC   C1A13587  20.656  12.834   8.550
 5233POPC   D2A13588  20.618  12.870   8.250
 5233POPC   C3A13589  20.625  12.891   7.950
 5233POPC   C4A13590  20.600  12.860   7.650
 5233POPC   C1B13591  20.336  12.818   8.550
 5233POPC   C2B13592  20.373  12.806   8.250
 5233POPC   C3B13593  20.382  12.847   7.950
 5233POPC   C4B13594  20.394  12.857   7.650
 5234POPC   NC313595   1.975  43.909   9.450
 5234POPC   PO413596   2.024  43.873   9.150
 5234POPC   GL113597   1.970  43.842   8.850
 5234POPC   GL213598   1.869  43.913   8.850
 5234POPC   C1A13599   1.960  43.865   8.550
 5234POPC   D2A13600   1.968  43.912   8.250
 5234POPC   C3A13601   2.002  43.839   7.950
 5234POPC   C4A13602   1.968  43.914   7.650
 5234POPC   C1B13603   1.784  43.813   8.550
 5234POPC   C2B13604   1.782  43.860   8.250
 5234POPC   C3B13605   1.778  43.835   7.950
 5234POPC   C4B13606   1.742  43.833   7.650
 5235POPC   NC313607   2.730  29.930   9.450
 5235POPC   PO413608   2.764  29.930   9.150
 5235POPC   GL113609   2.747  29.877   8.850
 5235POPC   GL213610   2.681  30.044   8.850
 5235POPC   C1A13611   2.776  29.876   8.550
 5235POPC   D2A13612   2.792  29.937   8.250
 5235POPC   C3A13613   2.749  29.955   7.950
 5235POPC   C4A13614   2.777  29.952   7.650
 5235POPC   C1B13615   2.610  30.075   8.550
 5235POPC   C2B13616   2.645  30.127   8.250
 5235POPC   C3B13617   2.625  30.126   7.950
 5235POPC   C4B13618   2.614  30.121   7.650
 5236POPC   NC313619   2.775  25.224   9.450
 5236POPC   PO413620   2.731  25.265   9.150
 5236POPC   GL113621   2.760  25.295   8.850
 5236POPC   GL213622   2.805  25.140   8.850
 5236POPC   C1A13623   2.766  25.315   8.550
 5236POPC   D2A13624   2.767  25.295   8.250
 5236POPC   C3A13625   2.754  25.230   7.950
 5236POPC   C4A13626   2.789  25.218   7.650
 5236POPC   C1B13627   2.949  25.117   8.550
 5236POPC   C2B13628   2.930  25.086   8.250
 5236POPC   C3B13629   2.949  25.112   7.950
 5236POPC   C4B13630   2.968  25.099   7.650
 5237POPC   NC313631  36.135   4.320   9.450
 5237POPC   PO413632  36.087   4.324   9.150
 5237POPC   GL113633  36.149   4.284   8.850
 5237POPC   GL213634  36.151   4.474   8.850
 5237POPC   C1A13635  36.168   4.309   8.550
 5237POPC   D2A13636  36.089   4.312   8.250
 5237POPC   C3A13637  36.106   4.350   7.950
 5237POPC   C4A13638  36.145   4.308   7.650
 5237POPC   C1B13639  36.119   4.575   8.550
 5237POPC   C2B13640  36.104   4.564   8.250
 5237POPC   C3B13641  36.173   4.531   7.950
 5237POPC   C4B13642  36.103   4.537   7.650
 5238POPC   NC313643  18.304  43.139   9.450
 5238POPC   PO413644  18.276  43.074   9.150
 5238POPC   GL113645  18.330  43.124   8.850
 5238POPC   GL213646  18.255  43.037   8.850
 5238POPC   C1A13647  18.302  43.116   8.550
 5238POPC   D2A13648  18.298  43.075   8.250
 5238POPC   C3A13649  18.266  43.133   7.950
 5238POPC   C4A13650  18.250  43.126   7.650
 5238POPC   C1B13651  18.223  42.901   8.550
 5238POPC   C2B13652  18.249  42.852   8.250
 5238POPC   C3B13653  18.216  42.918   7.950
 5238POPC   C4B13654  18.200  42.830   7.650
 5239POPC   NC313655   8.185  31.476   9.450
 5239POPC   PO413656   8.218  31.423   9.150
 5239POPC   GL113657   8.158  31.509   8.850
 5239POPC   GL213658   8.141  31.597   8.850
 5239POPC   C1A13659   8.222  31.479   8.550
 5239POPC   D2A13660   8.150  31.424   8.250
 5239POPC   C3A13661   8.241  31.447   7.950
 5239POPC   C4A13662   8.191  31.446   7.650
 5239POPC   C1B13663   8.087  31.699   8.550
 5239POPC   C2B13664   8.031  31.689   8.250
 5239POPC   C3B13665   8.048  31.722   7.950
 5239POPC   C4B13666   8.053  31.671   7.650
 5240POPC   NC313667  25.254  14.424   9.450
 5240POPC   PO413668  25.220  14.400   9.150
 5240POPC   GL113669  25.272  14.428   8.850
 5240POPC   GL213670  25.343  14.305   8.850
 5240POPC   C1A13671  25.239  14.449   8.550
 5240POPC   D2A13672  25.306  14.399   8.250
 5240POPC   C3A13673  25.304  14.368   7.950
 5240POPC   C4A13674  25.295  14.362   7.650
 5240POPC   C1B13675  25.290  14.121   8.550
 5240POPC   C2B13676  25.346  14.125   8.250
 5240POPC   C3B13677  25.326  14.165   7.950
 5240POPC   C4B13678  25.345  14.171   7.650
 5241POPC   NC313679  15.179  11.258   9.450
 5241POPC   PO413680  15.202  11.314   9.150
 5241POPC   GL113681  15.191  11.290   8.850
 5241POPC   GL213682  15.137  11.199   8.850
 5241POPC   C1A13683  15.150  11.340   8.550
 5241POPC   D2A13684  15.211  11.331   8.250
 5241POPC   C3A13685  15.146  11.317   7.950
 5241POPC   C4A13686  15.164  11.270   7.650
 5241POPC   C1B13687  15.156  11.010   8.550
 5241POPC   C2B13688  15.178  11.036   8.250
 5241POPC   C3B13689  15.117  11.053   7.950
 5241POPC   C4B13690  15.144  11.094   7.650
 5242POPC   NC313691  21.433   9.017   9.450
 5242POPC   PO413692  21.408   8.958   9.150
 5242POPC   GL113693  21.360   9.013   8.850
 5242POPC   GL213694  21.496   9.049   8.850
 5242POPC   C1A13695  21.364   8.968   8.550
 5242POPC   D2A13696  21.364   8.985   8.250
 5242POPC   C3A13697  21.410   9.020   7.950
 5242POPC   C4A13698  21.367   8.965   7.650
 5242POPC   C1B13699  21.578   9.160   8.550
 5242POPC   C2B13700  21.554   9.169   8.250
 5242POPC   C3B13701  21.523   9.159   7.950
 5242POPC   C4B13702  21.564   9.153   7.650
 5243POPC   NC313703  23.689  25.226   9.450
 5243POPC   PO413704  23.736  25.308   9.150
 5243POPC   GL113705  23.750  25.248   8.850
 5243POPC   GL213706  23.598  25.286   8.850
 5243POPC   C1A13707  23.726  25.217   8.550
 5243POPC   D2A13708  23.743  25.315   8.250
 5243POPC   C3A13709  23.693  25.293   7.950
 5243POPC   C4A13710  23.673  25.299   7.650
 5243POPC   C1B13711  23.447  25.296   8.550
 5243POPC   C2B13712  23.494  25.296   8.250
 5243POPC   C3B13713  23.462  25.341   7.950
 5243POPC   C4B13714  23.453  25.300   7.650
 5244POPC   NC313715   8.960  19.828   9.450
 5244POPC   PO413716   8.956  19.844   9.150
 5244POPC   GL113717   9.006  19.839   8.850
 5244POPC   GL213718   8.991  19.682   8.850
 5244POPC   C1A13719   8.995  19.831   8.550
 5244POPC   D2A13720   8.945  19.860   8.250
 5244POPC   C3A13721   9.019  19.870   7.950
 5244POPC   C4A13722   8.931  19.790   7.650
 5244POPC   C1B13723   8.893  19.587   8.550
 5244POPC   C2B13724   8.926  19.554   8.250
 5244POPC   C3B13725   8.933  19.568   7.950
 5244POPC   C4B13726   8.940  19.575   7.650
 5245POPC   NC313727  28.348  10.483   9.450
 5245POPC   PO413728  28.383  10.498   9.150
 5245POPC   GL113729  28.418  10.495   8.850
 5245POPC   GL213730  28.308  10.426   8.850
 5245POPC   C1A13731  28.417  10.504   8.550
 5245POPC   D2A13732  28.334  10.536   8.250
 5245POPC   C3A13733  28.335  10.530   7.950
 5245POPC   C4A13734  28.390  10.485   7.650
 5245POPC   C1B13735  28.226  10.333   8.550
 5245POPC   C2B13736  28.200  10.312   8.250
 5245POPC   C3B13737  28.183  10.363   7.950
 5245POPC   C4B13738  28.201  10.284   7.650
 5246POPC   NC313739  31.474   4.279   9.450
 5246POPC   PO413740  31.439   4.286   9.150
 5246POPC   GL113741  31.437   4.365   8.850
 5246POPC   GL213742  31.477   4.179   8.850
 5246POPC   C1A13743  31.436   4.296   8.550
 5246POPC   D2A13744  31.463   4.305   8.250
 5246POPC   C3A13745  31.513   4.332   7.950
 5246POPC   C4A13746  31.449   4.333   7.650
 5246POPC   C1B13747  31.515   4.057   8.550
 5246POPC   C2B13748  31.573   4.070   8.250
 5246POPC   C3B13749  31.481   4.070   7.950
 5246POPC   C4B13750  31.479   4.117   7.650
 5247POPC   NC313751  10.478  22.127   9.450
 5247POPC   PO413752  10.491  22.144   9.150
 5247POPC   GL113753  10.546  22.127   8.850
 5247POPC   GL213754  10.455  22.258   8.850
 5247POPC   C1A13755  10.571  22.199   8.550
 5247POPC   D2A13756  10.487  22.189   8.250
 5247POPC   C3A13757  10.504  22.168   7.950
 5247POPC   C4A13758  10.557  22.174   7.650
 5247POPC   C1B13759  10.429  22.417   8.550
 5247POPC   C2B13760  10.469  22.380   8.250
 5247POPC   C3B13761  10.457  22.445   7.950
 5247POPC   C4B13762  10.489  22.410   7.650
 5248POPC   NC313763  33.845  36.153   9.450
 5248POPC   PO413764  33.836  36.171   9.150
 5248POPC   GL113765  33.785  36.118   8.850
 5248POPC   GL213766  33.821  35.981   8.850
 5248POPC   C1A13767  33.822  36.167   8.550
 5248POPC   D2A13768  33.839  36.147   8.250
 5248POPC   C3A13769  33.791  36.118   7.950
 5248POPC   C4A13770  33.813  36.146   7.650
 5248POPC   C1B13771  33.940  35.955   8.550
 5248POPC   C2B13772  33.941  35.928   8.250
 5248POPC   C3B13773  33.884  35.926   7.950
 5248POPC   C4B13774  33.963  35.868   7.650
 5249POPC   NC313775  42.316  22.120   9.450
 5249POPC   PO413776  42.381  22.209   9.150
 5249POPC   GL113777  42.322  22.151   8.850
 5249POPC   GL213778  42.466  22.161   8.850
 5249POPC   C1A13779  42.306  22.165   8.550
 5249POPC   D2A13780  42.285  22.206   8.250
 5249POPC   C3A13781  42.318  22.146   7.950
 5249POPC   C4A13782  42.380  22.204   7.650
 5249POPC   C1B13783  42.598  22.037   8.550
 5249POPC   C2B13784  42.571  22.086   8.250
 5249POPC   C3B13785  42.597  22.053   7.950
 5249POPC   C4B13786  42.605  22.095   7.650
 5250POPC   NC313787  38.499  26.029   9.450
 5250POPC   PO413788  38.486  26.068   9.150
 5250POPC   GL113789  38.461  26.041   8.850
 5250POPC   GL213790  38.594  26.148   8.850
 5250POPC   C1A13791  38.479  26.032   8.550
 5250POPC   D2A13792  38.443  25.993   8.250
 5250POPC   C3A13793  38.433  26.004   7.950
 5250POPC   C4A13794  38.452  26.068   7.650
 5250POPC   C1B13795  38.682  26.170   8.550
 5250POPC   C2B13796  38.629  26.198   8.250
 5250POPC   C3B13797  38.646  26.193   7.950
 5250POPC   C4B13798  38.640  26.210   7.650
 5251POPC   NC313799  17.510  12.070   9.450
 5251POPC   PO413800  17.508  12.042   9.150
 5251POPC   GL113801  17.490  12.105   8.850
 5251POPC   GL213802  17.557  12.213   8.850
 5251POPC   C1A13803  17.498  12.087   8.550
 5251POPC   D2A13804  17.468  12.095   8.250
 5251POPC   C3A13805  17.556  12.066   7.950
 5251POPC   C4A13806  17.512  12.120   7.650
 5251POPC   C1B13807  17.667  12.324   8.550
 5251POPC   C2B13808  17.672  12.306   8.250
 5251POPC   C3B13809  17.667  12.292   7.950
 5251POPC   C4B13810  17.664  12.243   7.650
 5252POPC   NC313811  33.039  44.676   9.450
 5252POPC   PO413812  33.041  44.647   9.150
 5252POPC   GL113813  33.044  44.692   8.850
 5252POPC   GL213814  33.106  44.756   8.850
 5252POPC   C1A13815  32.982  44.681   8.550
 5252POPC   D2A13816  33.031  44.661   8.250
 5252POPC   C3A13817  33.017  44.672   7.950
 5252POPC   C4A13818  32.986  44.705   7.650
 5252POPC   C1B13819  33.242  44.802   8.550
 5252POPC   C2B13820  33.262  44.737   8.250
 5252POPC   C3B13821  33.246  44.786   7.950
 5252POPC   C4B13822  33.240  44.781   7.650
 5253POPC   NC313823  38.467  35.379   9.450
 5253POPC   PO413824  38.467  35.355   9.150
 5253POPC   GL113825  38.415  35.372   8.850
 5253POPC   GL213826  38.353  35.360   8.850
 5253POPC   C1A13827  38.432  35.388   8.550
 5253POPC   D2A13828  38.431  35.361   8.250
 5253POPC   C3A13829  38.462  35.355   7.950
 5253POPC   C4A13830  38.434  35.379   7.650
 5253POPC   C1B13831  38.226  35.474   8.550
 5253POPC   C2B13832  38.267  35.449   8.250
 5253POPC   C3B13833  38.260  35.445   7.950
 5253POPC   C4B13834  38.180  35.420   7.650
 5254POPC   NC313835  20.621  36.868   9.450
 5254POPC   PO413836  20.634  36.944   9.150
 5254POPC   GL113837  20.635  36.922   8.850
 5254POPC   GL213838  20.619  36.828   8.850
 5254POPC   C1A13839  20.562  36.951   8.550
 5254POPC   D2A13840  20.644  36.907   8.250
 5254POPC   C3A13841  20.634  36.907   7.950
 5254POPC   C4A13842  20.609  36.870   7.650
 5254POPC   C1B13843  20.662  36.649   8.550
 5254POPC   C2B13844  20.664  36.632   8.250
 5254POPC   C3B13845  20.703  36.714   7.950
 5254POPC   C4B13846  20.681  36.657   7.650
 5255POPC   NC313847  20.560   5.865   9.450
 5255POPC   PO413848  20.641   5.855   9.150
 5255POPC   GL113849  20.635   5.819   8.850
 5255POPC   GL213850  20.540   5.767   8.850
 5255POPC   C1A13851  20.602   5.852   8.550
 5255POPC   D2A13852  20.609   5.863   8.250
 5255POPC   C3A13853  20.620   5.877   7.950
 5255POPC   C4A13854  20.582   5.901   7.650
 5255POPC   C1B13855  20.462   5.631   8.550
 5255POPC   C2B13856  20.419   5.668   8.250
 5255POPC   C3B13857  20.482   5.673   7.950
 5255POPC   C4B13858  20.469   5.701   7.650
 5256POPC   NC313859  36.102  42.344   9.450
 5256POPC   PO413860  36.121  42.360   9.150
 5256POPC   GL113861  36.168  42.287   8.850
 5256POPC   GL213862  36.194  42.306   8.850
 5256POPC   C1A13863  36.146  42.342   8.550
 5256POPC   D2A13864  36.167  42.319   8.250
 5256POPC   C3A13865  36.105  42.337   7.950
 5256POPC   C4A13866  36.096  42.302   7.650
 5256POPC   C1B13867  36.298  42.233   8.550
 5256POPC   C2B13868  36.315  42.186   8.250
 5256POPC   C3B13869  36.327  42.227   7.950
 5256POPC   C4B13870  36.387  42.251   7.650
 5257POPC   NC313871  42.342  13.597   9.450
 5257POPC   PO413872  42.331  13.625   9.150
 5257POPC   GL113873  42.358  13.604   8.850
 5257POPC   GL213874  42.473  13.589   8.850
 5257POPC   C1A13875  42.374  13.647   8.550
 5257POPC   D2A13876  42.294  13.676   8.250
 5257POPC   C3A13877  42.293  13.616   7.950
 5257POPC   C4A13878  42.363  13.627   7.650
 5257POPC   C1B13879  42.518  13.465   8.550
 5257POPC   C2B13880  42.577  13.501   8.250
 5257POPC   C3B13881  42.518  13.473   7.950
 5257POPC   C4B13882  42.562  13.513   7.650
 5258POPC   NC313883  26.784  10.479   9.450
 5258POPC   PO413884  26.845  10.483   9.150
 5258POPC   GL113885  26.814  10.569   8.850
 5258POPC   GL213886  26.646  10.583   8.850
 5258POPC   C1A13887  26.798  10.556   8.550
 5258POPC   D2A13888  26.807  10.503   8.250
 5258POPC   C3A13889  26.862  10.543   7.950
 5258POPC   C4A13890  26.845  10.492   7.650
 5258POPC   C1B13891  26.534  10.537   8.550
 5258POPC   C2B13892  26.605  10.536   8.250
 5258POPC   C3B13893  26.572  10.547   7.950
 5258POPC   C4B13894  26.560  10.598   7.650
 5259POPC   NC313895  40.016  33.775   9.450
 5259POPC   PO413896  40.028  33.807   9.150
 5259POPC   GL113897  39.988  33.783   8.850
 5259POPC   GL213898  40.006  33.679   8.850
 5259POPC   C1A13899  40.033  33.813   8.550
 5259POPC   D2A13900  40.018  33.770   8.250
 5259POPC   C3A13901  39.996  33.798   7.950
 5259POPC   C4A13902  40.028  33.817   7.650
 5259POPC   C1B13903  39.944  33.566   8.550
 5259POPC   C2B13904  39.975  33.557   8.250
 5259POPC   C3B13905  39.980  33.564   7.950
 5259POPC   C4B13906  40.017  33.541   7.650
 5260POPC   NC313907  37.702   5.844   9.450
 5260POPC   PO413908  37.630   5.875   9.150
 5260POPC   GL113909  37.661   5.858   8.850
 5260POPC   GL213910  37.744   5.791   8.850
 5260POPC   C1A13911  37.649   5.874   8.550
 5260POPC   D2A13912  37.691   5.861   8.250
 5260POPC   C3A13913  37.699   5.870   7.950
 5260POPC   C4A13914  37.639   5.908   7.650
 5260POPC   C1B13915  37.851   5.655   8.550
 5260POPC   C2B13916  37.812   5.649   8.250
 5260POPC   C3B13917  37.822   5.610   7.950
 5260POPC   C4B13918  37.792   5.679   7.650
 5261POPC   NC313919  11.261  16.692   9.450
 5261POPC   PO413920  11.282  16.681   9.150
 5261POPC   GL113921  11.343  16.705   8.850
 5261POPC   GL213922  11.170  16.745   8.850
 5261POPC   C1A13923  11.301  16.690   8.550
 5261POPC   D2A13924  11.345  16.688   8.250
 5261POPC   C3A13925  11.307  16.717   7.950
 5261POPC   C4A13926  11.312  16.688   7.650
 5261POPC   C1B13927  11.035  16.789   8.550
 5261POPC   C2B13928  11.087  16.797   8.250
 5261POPC   C3B13929  11.089  16.791   7.950
 5261POPC   C4B13930  11.025  16.828   7.650
 5262POPC   NC313931  13.674  38.425   9.450
 5262POPC   PO413932  13.635  38.499   9.150
 5262POPC   GL113933  13.610  38.448   8.850
 5262POPC   GL213934  13.597  38.333   8.850
 5262POPC   C1A13935  13.603  38.479   8.550
 5262POPC   D2A13936  13.624  38.470   8.250
 5262POPC   C3A13937  13.645  38.478   7.950
 5262POPC   C4A13938  13.625  38.481   7.650
 5262POPC   C1B13939  13.514  38.203   8.550
 5262POPC   C2B13940  13.573  38.263   8.250
 5262POPC   C3B13941  13.548  38.195   7.950
 5262POPC   C4B13942  13.573  38.196   7.650
 5263POPC   NC313943  38.456  36.879   9.450
 5263POPC   PO413944  38.467  36.913   9.150
 5263POPC   GL113945  38.495  36.940   8.850
 5263POPC   GL213946  38.380  36.959   8.850
 5263POPC   C1A13947  38.423  36.885   8.550
 5263POPC   D2A13948  38.442  36.878   8.250
 5263POPC   C3A13949  38.457  36.906   7.950
 5263POPC   C4A13950  38.434  36.870   7.650
 5263POPC   C1B13951  38.233  37.051   8.550
 5263POPC   C2B13952  38.220  37.009   8.250
 5263POPC   C3B13953  38.277  37.057   7.950
 5263POPC   C4B13954  38.253  37.011   7.650
 5264POPC   NC313955   8.941   7.391   9.450
 5264POPC   PO413956   8.931   7.415   9.150
 5264POPC   GL113957   8.923   7.460   8.850
 5264POPC   GL213958   9.089   7.298   8.850
 5264POPC   C1A13959   8.973   7.447   8.550
 5264POPC   D2A13960   8.990   7.418   8.250
 5264POPC   C3A13961   8.932   7.407   7.950
 5264POPC   C4A13962   9.007   7.432   7.650
 5264POPC   C1B13963   9.151   7.187   8.550
 5264POPC   C2B13964   9.107   7.186   8.250
 5264POPC   C3B13965   9.084   7.264   7.950
 5264POPC   C4B13966   9.174   7.247   7.650
 5265POPC   NC313967  12.104  20.648   9.450
 5265POPC   PO413968  12.079  20.625   9.150
 5265POPC   GL113969  12.056  20.635   8.850
 5265POPC   GL213970  12.196  20.697   8.850
 5265POPC   C1A13971  12.120  20.654   8.550
 5265POPC   D2A13972  12.042  20.643   8.250
 5265POPC   C3A13973  12.089  20.580   7.950
 5265POPC   C4A13974  12.049  20.630   7.650
 5265POPC   C1B13975  12.312  20.733   8.550
 5265POPC   C2B13976  12.310  20.723   8.250
 5265POPC   C3B13977  12.305  20.713   7.950
 5265POPC   C4B13978  12.321  20.726   7.650
 5266POPC   NC313979  38.472  17.524   9.450
 5266POPC   PO413980  38.474  17.537   9.150
 5266POPC   GL113981  38.460  17.474   8.850
 5266POPC   GL213982  38.311  17.399   8.850
 5266POPC   C1A13983  38.410  17.491   8.550
 5266POPC   D2A13984  38.486  17.480   8.250
 5266POPC   C3A13985  38.438  17.552   7.950
 5266POPC   C4A13986  38.497  17.557   7.650
 5266POPC   C1B13987  38.261  17.371   8.550
 5266POPC   C2B13988  38.242  17.364   8.250
 5266POPC   C3B13989  38.277  17.407   7.950
 5266POPC   C4B13990  38.264  17.327   7.650
 5267POPC   NC313991  22.177   5.835   9.450
 5267POPC   PO413992  22.115   5.918   9.150
 5267POPC   GL113993  22.127   5.896   8.850
 5267POPC   GL213994  22.300   5.751   8.850
 5267POPC   C1A13995  22.140   5.864   8.550
 5267POPC   D2A13996  22.202   5.821   8.250
 5267POPC   C3A13997  22.136   5.918   7.950
 5267POPC   C4A13998  22.171   5.834   7.650
 5267POPC   C1B13999  22.397   5.675   8.550
 5267POPC   C2B14000  22.330   5.679   8.250
 5267POPC   C3B14001  22.345   5.738   7.950
 5267POPC   C4B14002  22.384   5.714   7.650
 5268POPC   NC314003  11.332   3.558   9.450
 5268POPC   PO414004  11.344   3.495   9.150
 5268POPC   GL114005  11.308   3.547   8.850
 5268POPC   GL214006  11.369   3.575   8.850
 5268POPC   C1A14007  11.310   3.578   8.550
 5268POPC   D2A14008  11.283   3.519   8.250
 5268POPC   C3A14009  11.260   3.497   7.950
 5268POPC   C4A14010  11.320   3.513   7.650
 5268POPC   C1B14011  11.485   3.652   8.550
 5268POPC   C2B14012  11.534   3.580   8.250
 5268POPC   C3B14013  11.551   3.640   7.950
 5268POPC   C4B14014  11.539   3.583   7.650
 5269POPC   NC314015  36.177  35.312   9.450
 5269POPC   PO414016  36.174  35.343   9.150
 5269POPC   GL114017  36.142  35.314   8.850
 5269POPC   GL214018  36.040  35.376   8.850
 5269POPC   C1A14019  36.173  35.323   8.550
 5269POPC   D2A14020  36.101  35.365   8.250
 5269POPC   C3A14021  36.162  35.314   7.950
 5269POPC   C4A14022  36.118  35.396   7.650
 5269POPC   C1B14023  35.868  35.343   8.550
 5269POPC   C2B14024  35.905  35.376   8.250
 5269POPC   C3B14025  35.836  35.330   7.950
 5269POPC   C4B14026  35.897  35.367   7.650
 5270POPC   NC314027  40.805  18.282   9.450
 5270POPC   PO414028  40.795  18.244   9.150
 5270POPC   GL114029  40.812  18.257   8.850
 5270POPC   GL214030  40.905  18.356   8.850
 5270POPC   C1A14031  40.734  18.256   8.550
 5270POPC   D2A14032  40.763  18.331   8.250
 5270POPC   C3A14033  40.762  18.254   7.950
 5270POPC   C4A14034  40.810  18.294   7.650
 5270POPC   C1B14035  40.992  18.384   8.550
 5270POPC   C2B14036  41.035  18.434   8.250
 5270POPC   C3B14037  40.978  18.412   7.950
 5270POPC   C4B14038  40.992  18.438   7.650
 5271POPC   NC314039  28.367  36.949   9.450
 5271POPC   PO414040  28.415  36.943   9.150
 5271POPC   GL114041  28.337  36.942   8.850
 5271POPC   GL214042  28.487  36.952   8.850
 5271POPC   C1A14043  28.399  36.856   8.550
 5271POPC   D2A14044  28.342  36.942   8.250
 5271POPC   C3A14045  28.351  36.885   7.950
 5271POPC   C4A14046  28.346  36.902   7.650
 5271POPC   C1B14047  28.663  36.976   8.550
 5271POPC   C2B14048  28.644  36.945   8.250
 5271POPC   C3B14049  28.665  36.981   7.950
 5271POPC   C4B14050  28.588  36.942   7.650
 5272POPC   NC314051  32.271  36.918   9.450
 5272POPC   PO414052  32.236  36.904   9.150
 5272POPC   GL114053  32.217  36.888   8.850
 5272POPC   GL214054  32.381  36.997   8.850
 5272POPC   C1A14055  32.289  36.938   8.550
 5272POPC   D2A14056  32.265  36.911   8.250
 5272POPC   C3A14057  32.294  36.949   7.950
 5272POPC   C4A14058  32.223  36.906   7.650
 5272POPC   C1B14059  32.415  37.070   8.550
 5272POPC   C2B14060  32.482  37.054   8.250
 5272POPC   C3B14061  32.485  37.108   7.950
 5272POPC   C4B14062  32.421  37.032   7.650
 5273POPC   NC314063  38.497  19.104   9.450
 5273POPC   PO414064  38.489  19.033   9.150
 5273POPC   GL114065  38.491  19.102   8.850
 5273POPC   GL214066  38.522  19.126   8.850
 5273POPC   C1A14067  38.482  19.049   8.550
 5273POPC   D2A14068  38.494  19.035   8.250
 5273POPC   C3A14069  38.456  19.057   7.950
 5273POPC   C4A14070  38.415  19.074   7.650
 5273POPC   C1B14071  38.603  19.312   8.550
 5273POPC   C2B14072  38.629  19.299   8.250
 5273POPC   C3B14073  38.547  19.295   7.950
 5273POPC   C4B14074  38.619  19.223   7.650
 5274POPC   NC314075  15.923  29.950   9.450
 5274POPC   PO414076  15.985  29.883   9.150
 5274POPC   GL114077  15.908  29.954   8.850
 5274POPC   GL214078  15.865  29.836   8.850
 5274POPC   C1A14079  15.946  29.926   8.550
 5274POPC   D2A14080  15.925  29.926   8.250
 5274POPC   C3A14081  15.948  29.888   7.950
 5274POPC   C4A14082  15.968  29.939   7.650
 5274POPC   C1B14083  15.701  29.846   8.550
 5274POPC   C2B14084  15.742  29.837   8.250
 5274POPC   C3B14085  15.683  29.792   7.950
 5274POPC   C4B14086  15.734  29.806   7.650
 5275POPC   NC314087  39.997  17.543   9.450
 5275POPC   PO414088  39.968  17.531   9.150
 5275POPC   GL114089  40.021  17.494   8.850
 5275POPC   GL214090  39.925  17.549   8.850
 5275POPC   C1A14091  39.973  17.556   8.550
 5275POPC   D2A14092  40.049  17.529   8.250
 5275POPC   C3A14093  39.966  17.476   7.950
 5275POPC   C4A14094  40.025  17.510   7.650
 5275POPC   C1B14095  39.770  17.539   8.550
 5275POPC   C2B14096  39.735  17.593   8.250
 5275POPC   C3B14097  39.754  17.603   7.950
 5275POPC   C4B14098  39.773  17.611   7.650
 5276POPC   NC314099  40.747  40.752   9.450
 5276POPC   PO414100  40.774  40.785   9.150
 5276POPC   GL114101  40.819  40.788   8.850
 5276POPC   GL214102  40.758  40.636   8.850
 5276POPC   C1A14103  40.798  40.829   8.550
 5276POPC   D2A14104  40.810  40.827   8.250
 5276POPC   C3A14105  40.785  40.742   7.950
 5276POPC   C4A14106  40.805  40.744   7.650
 5276POPC   C1B14107  40.681  40.592   8.550
 5276POPC   C2B14108  40.631  40.516   8.250
 5276POPC   C3B14109  40.709  40.599   7.950
 5276POPC   C4B14110  40.705  40.581   7.650
 5277POPC   NC314111   8.984   0.414   9.450
 5277POPC   PO414112   8.958   0.397   9.150
 5277POPC   GL114113   9.001   0.471   8.850
 5277POPC   GL214114   8.862   0.311   8.850
 5277POPC   C1A14115   9.020   0.389   8.550
 5277POPC   D2A14116   8.923   0.440   8.250
 5277POPC   C3A14117   8.936   0.477   7.950
 5277POPC   C4A14118   9.013   0.394   7.650
 5277POPC   C1B14119   8.769   0.215   8.550
 5277POPC   C2B14120   8.826   0.248   8.250
 5277POPC   C3B14121   8.754   0.235   7.950
 5277POPC   C4B14122   8.794   0.232   7.650
 5278POPC   NC314123  15.940  12.123   9.450
 5278POPC   PO414124  15.912  12.124   9.150
 5278POPC   GL114125  15.911  12.046   8.850
 5278POPC   GL214126  16.061  12.051   8.850
 5278POPC   C1A14127  16.001  12.058   8.550
 5278POPC   D2A14128  15.998  12.076   8.250
 5278POPC   C3A14129  15.967  12.118   7.950
 5278POPC   C4A14130  15.907  12.116   7.650
 5278POPC   C1B14131  16.173  12.124   8.550
 5278POPC   C2B14132  16.156  12.157   8.250
 5278POPC   C3B14133  16.210  12.115   7.950
 5278POPC   C4B14134  16.244  12.069   7.650
 5279POPC   NC314135  10.489  43.843   9.450
 5279POPC   PO414136  10.514  43.874   9.150
 5279POPC   GL114137  10.489  43.870   8.850
 5279POPC   GL214138  10.594  43.821   8.850
 5279POPC   C1A14139  10.521  43.857   8.550
 5279POPC   D2A14140  10.569  43.912   8.250
 5279POPC   C3A14141  10.533  43.929   7.950
 5279POPC   C4A14142  10.553  43.876   7.650
 5279POPC   C1B14143  10.783  43.759   8.550
 5279POPC   C2B14144  10.765  43.833   8.250
 5279POPC   C3B14145  10.739  43.839   7.950
 5279POPC   C4B14146  10.748  43.752   7.650
 5280POPC   NC314147  13.601  15.992   9.450
 5280POPC   PO414148  13.663  15.955   9.150
 5280POPC   GL114149  13.650  15.983   8.850
 5280POPC   GL214150  13.564  16.025   8.850
 5280POPC   C1A14151  13.580  15.949   8.550
 5280POPC   D2A14152  13.612  15.994   8.250
 5280POPC   C3A14153  13.667  15.978   7.950
 5280POPC   C4A14154  13.612  15.944   7.650
 5280POPC   C1B14155  13.525  16.192   8.550
 5280POPC   C2B14156  13.479  16.158   8.250
 5280POPC   C3B14157  13.455  16.212   7.950
 5280POPC   C4B14158  13.530  16.183   7.650
 5281POPC   NC314159  28.322  27.566   9.450
 5281POPC   PO414160  28.413  27.635   9.150
 5281POPC   GL114161  28.385  27.610   8.850
 5281POPC   GL214162  28.414  27.724   8.850
 5281POPC   C1A14163  28.389  27.598   8.550
 5281POPC   D2A14164  28.376  27.592   8.250
 5281POPC   C3A14165  28.335  27.639   7.950
 5281POPC   C4A14166  28.327  27.544   7.650
 5281POPC   C1B14167  28.459  27.804   8.550
 5281POPC   C2B14168  28.481  27.839   8.250
 5281POPC   C3B14169  28.413  27.816   7.950
 5281POPC   C4B14170  28.439  27.792   7.650
 5282POPC   NC314171  36.872  23.683   9.450
 5282POPC   PO414172  36.920  23.717   9.150
 5282POPC   GL114173  36.873  23.759   8.850
 5282POPC   GL214174  36.880  23.787   8.850
 5282POPC   C1A14175  36.868  23.749   8.550
 5282POPC   D2A14176  36.880  23.735   8.250
 5282POPC   C3A14177  36.904  23.721   7.950
 5282POPC   C4A14178  36.916  23.683   7.650
 5282POPC   C1B14179  36.788  23.902   8.550
 5282POPC   C2B14180  36.838  23.972   8.250
 5282POPC   C3B14181  36.796  23.970   7.950
 5282POPC   C4B14182  36.761  23.973   7.650
 5283POPC   NC314183  11.320  15.976   9.450
 5283POPC   PO414184  11.300  15.936   9.150
 5283POPC   GL114185  11.269  15.981   8.850
 5283POPC   GL214186  11.337  16.046   8.850
 5283POPC   C1A14187  11.265  15.983   8.550
 5283POPC   D2A14188  11.304  15.982   8.250
 5283POPC   C3A14189  11.300  16.003   7.950
 5283POPC   C4A14190  11.344  15.964   7.650
 5283POPC   C1B14191  11.394  16.121   8.550
 5283POPC   C2B14192  11.419  16.189   8.250
 5283POPC   C3B14193  11.460  16.134   7.950
 5283POPC   C4B14194  11.412  16.129   7.650
 5284POPC   NC314195  29.124  32.199   9.450
 5284POPC   PO414196  29.155  32.279   9.150
 5284POPC   GL114197  29.169  32.297   8.850
 5284POPC   GL214198  29.221  32.224   8.850
 5284POPC   C1A14199  29.124  32.258   8.550
 5284POPC   D2A14200  29.147  32.228   8.250
 5284POPC   C3A14201  29.157  32.246   7.950
 5284POPC   C4A14202  29.171  32.254   7.650
 5284POPC   C1B14203  29.415  32.128   8.550
 5284POPC   C2B14204  29.383  32.183   8.250
 5284POPC   C3B14205  29.399  32.165   7.950
 5284POPC   C4B14206  29.377  32.165   7.650
 5285POPC   NC314207  12.113  29.183   9.450
 5285POPC   PO414208  12.047  29.118   9.150
 5285POPC   GL114209  12.035  29.146   8.850
 5285POPC   GL214210  12.008  29.227   8.850
 5285POPC   C1A14211  12.100  29.121   8.550
 5285POPC   D2A14212  12.086  29.155   8.250
 5285POPC   C3A14213  12.062  29.126   7.950
 5285POPC   C4A14214  12.085  29.127   7.650
 5285POPC   C1B14215  11.978  29.368   8.550
 5285POPC   C2B14216  12.008  29.341   8.250
 5285POPC   C3B14217  11.919  29.356   7.950
 5285POPC   C4B14218  11.958  29.405   7.650
 5286POPC   NC314219  23.692   4.352   9.450
 5286POPC   PO414220  23.677   4.317   9.150
 5286POPC   GL114221  23.747   4.342   8.850
 5286POPC   GL214222  23.579   4.268   8.850
 5286POPC   C1A14223  23.716   4.293   8.550
 5286POPC   D2A14224  23.690   4.268   8.250
 5286POPC   C3A14225  23.679   4.278   7.950
 5286POPC   C4A14226  23.726   4.306   7.650
 5286POPC   C1B14227  23.494   4.232   8.550
 5286POPC   C2B14228  23.512   4.212   8.250
 5286POPC   C3B14229  23.443   4.205   7.950
 5286POPC   C4B14230  23.487   4.259   7.650
 5287POPC   NC314231  29.122  32.982   9.450
 5287POPC   PO414232  29.156  33.050   9.150
 5287POPC   GL114233  29.146  32.998   8.850
 5287POPC   GL214234  29.012  33.015   8.850
 5287POPC   C1A14235  29.106  33.049   8.550
 5287POPC   D2A14236  29.146  32.977   8.250
 5287POPC   C3A14237  29.183  32.997   7.950
 5287POPC   C4A14238  29.134  32.998   7.650
 5287POPC   C1B14239  28.923  33.085   8.550
 5287POPC   C2B14240  28.871  33.040   8.250
 5287POPC   C3B14241  28.870  33.028   7.950
 5287POPC   C4B14242  28.878  33.069   7.650
 5288POPC   NC314243  22.890  17.457   9.450
 5288POPC   PO414244  22.960  17.469   9.150
 5288POPC   GL114245  22.890  17.520   8.850
 5288POPC   GL214246  23.020  17.540   8.850
 5288POPC   C1A14247  22.968  17.554   8.550
 5288POPC   D2A14248  22.971  17.493   8.250
 5288POPC   C3A14249  22.907  17.524   7.950
 5288POPC   C4A14250  22.911  17.519   7.650
 5288POPC   C1B14251  23.141  17.600   8.550
 5288POPC   C2B14252  23.125  17.585   8.250
 5288POPC   C3B14253  23.136  17.678   7.950
 5288POPC   C4B14254  23.118  17.678   7.650
 5289POPC   NC314255   8.929  43.930   9.450
 5289POPC   PO414256   9.009  43.880   9.150
 5289POPC   GL114257   8.974  43.865   8.850
 5289POPC   GL214258   9.111  43.940   8.850
 5289POPC   C1A14259   8.983  43.857   8.550
 5289POPC   D2A14260   8.986  43.860   8.250
 5289POPC   C3A14261   8.999  43.872   7.950
 5289POPC   C4A14262   8.943  43.921   7.650
 5289POPC   C1B14263   9.216  44.038   8.550
 5289POPC   C2B14264   9.149  44.012   8.250
 5289POPC   C3B14265   9.161  43.996   7.950
 5289POPC   C4B14266   9.158  43.979   7.650
 5290POPC   NC314267  37.637  34.593   9.450
 5290POPC   PO414268  37.642  34.540   9.150
 5290POPC   GL114269  37.677  34.559   8.850
 5290POPC   GL214270  37.808  34.531   8.850
 5290POPC   C1A14271  37.647  34.537   8.550
 5290POPC   D2A14272  37.678  34.545   8.250
 5290POPC   C3A14273  37.686  34.601   7.950
 5290POPC   C4A14274  37.645  34.620   7.650
 5290POPC   C1B14275  37.803  34.404   8.550
 5290POPC   C2B14276  37.813  34.385   8.250
 5290POPC   C3B14277  37.853  34.406   7.950
 5290POPC   C4B14278  37.825  34.365   7.650
 5291POPC   NC314279  35.377  20.628   9.450
 5291POPC   PO414280  35.341  20.599   9.150
 5291POPC   GL114281  35.382  20.564   8.850
 5291POPC   GL214282  35.290  20.473   8.850
 5291POPC   C1A14283  35.336  20.618   8.550
 5291POPC   D2A14284  35.375  20.612   8.250
 5291POPC   C3A14285  35.309  20.580   7.950
 5291POPC   C4A14286  35.345  20.587   7.650
 5291POPC   C1B14287  35.212  20.366   8.550
 5291POPC   C2B14288  35.239  20.447   8.250
 5291POPC   C3B14289  35.220  20.405   7.950
 5291POPC   C4B14290  35.158  20.456   7.650
 5292POPC   NC314291  13.587  27.573   9.450
 5292POPC   PO414292  13.659  27.621   9.150
 5292POPC   GL114293  13.675  27.555   8.850
 5292POPC   GL214294  13.536  27.489   8.850
 5292POPC   C1A14295  13.588  27.594   8.550
 5292POPC   D2A14296  13.673  27.561   8.250
 5292POPC   C3A14297  13.581  27.550   7.950
 5292POPC   C4A14298  13.590  27.625   7.650
 5292POPC   C1B14299  13.462  27.446   8.550
 5292POPC   C2B14300  13.407  27.408   8.250
 5292POPC   C3B14301  13.461  27.418   7.950
 5292POPC   C4B14302  13.435  27.406   7.650
 5293POPC   NC314303   4.298  17.524   9.450
 5293POPC   PO414304   4.333  17.495   9.150
 5293POPC   GL114305   4.268  17.464   8.850
 5293POPC   GL214306   4.417  17.481   8.850
 5293POPC   C1A14307   4.338  17.487   8.550
 5293POPC   D2A14308   4.277  17.552   8.250
 5293POPC   C3A14309   4.313  17.508   7.950
 5293POPC   C4A14310   4.326  17.506   7.650
 5293POPC   C1B14311   4.587  17.429   8.550
 5293POPC   C2B14312   4.575  17.371   8.250
 5293POPC   C3B14313   4.533  17.409   7.950
 5293POPC   C4B14314   4.568  17.456   7.650
 5294POPC   NC314315  13.623  29.931   9.450
 5294POPC   PO414316  13.630  29.897   9.150
 5294POPC   GL114317  13.632  29.895   8.850
 5294POPC   GL214318  13.775  29.881   8.850
 5294POPC   C1A14319  13.599  29.876   8.550
 5294POPC   D2A14320  13.667  29.967   8.250
 5294POPC   C3A14321  13.616  29.873   7.950
 5294POPC   C4A14322  13.665  29.874   7.650
 5294POPC   C1B14323  13.848  29.846   8.550
 5294POPC   C2B14324  13.891  29.903   8.250
 5294POPC   C3B14325  13.830  29.863   7.950
 5294POPC   C4B14326  13.889  29.851   7.650
 5295POPC   NC314327  25.217  33.823   9.450
 5295POPC   PO414328  25.222  33.773   9.150
 5295POPC   GL114329  25.309  33.811   8.850
 5295POPC   GL214330  25.337  33.825   8.850
 5295POPC   C1A14331  25.217  33.823   8.550
 5295POPC   D2A14332  25.306  33.759   8.250
 5295POPC   C3A14333  25.293  33.812   7.950
 5295POPC   C4A14334  25.262  33.763   7.650
 5295POPC   C1B14335  25.541  33.919   8.550
 5295POPC   C2B14336  25.514  33.910   8.250
 5295POPC   C3B14337  25.514  33.902   7.950
 5295POPC   C4B14338  25.458  33.904   7.650
 5296POPC   NC314339   0.472  26.036   9.450
 5296POPC   PO414340   0.466  26.038   9.150
 5296POPC   GL114341   0.405  26.069   8.850
 5296POPC   GL214342   0.344  25.995   8.850
 5296POPC   C1A14343   0.448  26.017   8.550
 5296POPC   D2A14344   0.400  26.044   8.250
 5296POPC   C3A14345   0.389  26.090   7.950
 5296POPC   C4A14346   0.450  26.029   7.650
 5296POPC   C1B14347   0.180  25.961   8.550
 5296POPC   C2B14348   0.235  25.891   8.250
 5296POPC   C3B14349   0.230  25.928   7.950
 5296POPC   C4B14350   0.212  25.902   7.650
 5297POPC   NC314351   1.216  26.090   9.450
 5297POPC   PO414352   1.228  26.025   9.150
 5297POPC   GL114353   1.239  26.076   8.850
 5297POPC   GL214354   1.259  25.880   8.850
 5297POPC   C1A14355   1.245  26.061   8.550
 5297POPC   D2A14356   1.206  26.036   8.250
 5297POPC   C3A14357   1.199  25.992   7.950
 5297POPC   C4A14358   1.208  26.001   7.650
 5297POPC   C1B14359   1.267  25.848   8.550
 5297POPC   C2B14360   1.340  25.822   8.250
 5297POPC   C3B14361   1.300  25.771   7.950
 5297POPC   C4B14362   1.301  25.801   7.650
 5298POPC   NC314363   9.758   3.567   9.450
 5298POPC   PO414364   9.741   3.561   9.150
 5298POPC   GL114365   9.794   3.543   8.850
 5298POPC   GL214366   9.869   3.445   8.850
 5298POPC   C1A14367   9.773   3.530   8.550
 5298POPC   D2A14368   9.735   3.542   8.250
 5298POPC   C3A14369   9.719   3.511   7.950
 5298POPC   C4A14370   9.787   3.538   7.650
 5298POPC   C1B14371   9.997   3.417   8.550
 5298POPC   C2B14372   9.916   3.390   8.250
 5298POPC   C3B14373   9.945   3.381   7.950
 5298POPC   C4B14374   9.978   3.463   7.650
 5299POPC   NC314375  29.907  32.200   9.450
 5299POPC   PO414376  29.912  32.276   9.150
 5299POPC   GL114377  29.922  32.200   8.850
 5299POPC   GL214378  30.054  32.214   8.850
 5299POPC   C1A14379  29.889  32.242   8.550
 5299POPC   D2A14380  29.926  32.269   8.250
 5299POPC   C3A14381  29.956  32.273   7.950
 5299POPC   C4A14382  29.876  32.247   7.650
 5299POPC   C1B14383  30.206  32.250   8.550
 5299POPC   C2B14384  30.155  32.252   8.250
 5299POPC   C3B14385  30.150  32.237   7.950
 5299POPC   C4B14386  30.172  32.277   7.650
 5300POPC   NC314387  29.931  15.946   9.450
 5300POPC   PO414388  29.947  15.907   9.150
 5300POPC   GL114389  29.946  15.975   8.850
 5300POPC   GL214390  30.075  15.890   8.850
 5300POPC   C1A14391  29.891  15.942   8.550
 5300POPC   D2A14392  29.964  15.927   8.250
 5300POPC   C3A14393  29.876  15.969   7.950
 5300POPC   C4A14394  29.877  16.003   7.650
 5300POPC   C1B14395  30.166  15.794   8.550
 5300POPC   C2B14396  30.153  15.862   8.250
 5300POPC   C3B14397  30.176  15.862   7.950
 5300POPC   C4B14398  30.104  15.822   7.650
 5301POPC   NC314399  14.427  31.477   9.450
 5301POPC   PO414400  14.389  31.447   9.150
 5301POPC   GL114401  14.361  31.478   8.850
 5301POPC   GL214402  14.248  31.524   8.850
 5301POPC   C1A14403  14.361  31.479   8.550
 5301POPC   D2A14404  14.418  31.507   8.250
 5301POPC   C3A14405  14.402  31.491   7.950
 5301POPC   C4A14406  14.382  31.502   7.650
 5301POPC   C1B14407  14.119  31.594   8.550
 5301POPC   C2B14408  14.214  31.557   8.250
 5301POPC   C3B14409  14.206  31.532   7.950
 5301POPC   C4B14410  14.125  31.528   7.650
 5302POPC   NC314411  39.992  29.936   9.450
 5302POPC   PO414412  39.977  29.944   9.150
 5302POPC   GL114413  39.990  29.912   8.850
 5302POPC   GL214414  40.049  30.004   8.850
 5302POPC   C1A14415  40.024  29.946   8.550
 5302POPC   D2A14416  40.010  29.902   8.250
 5302POPC   C3A14417  40.003  29.901   7.950
 5302POPC   C4A14418  40.040  29.885   7.650
 5302POPC   C1B14419  40.052  30.189   8.550
 5302POPC   C2B14420  40.056  30.167   8.250
 5302POPC   C3B14421  40.089  30.198   7.950
 5302POPC   C4B14422  40.024  30.209   7.650
 5303POPC   NC314423  17.531  43.934   9.450
 5303POPC   PO414424  17.540  43.866   9.150
 5303POPC   GL114425  17.513  43.868   8.850
 5303POPC   GL214426  17.483  43.712   8.850
 5303POPC   C1A14427  17.487  43.844   8.550
 5303POPC   D2A14428  17.465  43.933   8.250
 5303POPC   C3A14429  17.546  43.927   7.950
 5303POPC   C4A14430  17.522  43.884   7.650
 5303POPC   C1B14431  17.509  43.610   8.550
 5303POPC   C2B14432  17.507  43.610   8.250
 5303POPC   C3B14433  17.516  43.590   7.950
 5303POPC   C4B14434  17.566  43.676   7.650
 5304POPC   NC314435  22.888  41.545   9.450
 5304POPC   PO414436  22.926  41.603   9.150
 5304POPC   GL114437  22.968  41.550   8.850
 5304POPC   GL214438  23.087  41.567   8.850
 5304POPC   C1A14439  22.935  41.595   8.550
 5304POPC   D2A14440  22.957  41.571   8.250
 5304POPC   C3A14441  22.928  41.608   7.950
 5304POPC   C4A14442  22.951  41.546   7.650
 5304POPC   C1B14443  23.236  41.553   8.550
 5304POPC   C2B14444  23.155  41.511   8.250
 5304POPC   C3B14445  23.176  41.584   7.950
 5304POPC   C4B14446  23.140  41.581   7.650
 5305POPC   NC314447  38.419  14.413   9.450
 5305POPC   PO414448  38.420  14.400   9.150
 5305POPC   GL114449  38.449  14.408   8.850
 5305POPC   GL214450  38.551  14.459   8.850
 5305POPC   C1A14451  38.449  14.398   8.550
 5305POPC   D2A14452  38.488  14.392   8.250
 5305POPC   C3A14453  38.476  14.393   7.950
 5305POPC   C4A14454  38.492  14.420   7.650
 5305POPC   C1B14455  38.723  14.431   8.550
 5305POPC   C2B14456  38.655  14.467   8.250
 5305POPC   C3B14457  38.722  14.431   7.950
 5305POPC   C4B14458  38.734  14.441   7.650
 5306POPC   NC314459  38.407  30.729   9.450
 5306POPC   PO414460  38.454  30.671   9.150
 5306POPC   GL114461  38.490  30.723   8.850
 5306POPC   GL214462  38.383  30.595   8.850
 5306POPC   C1A14463  38.484  30.702   8.550
 5306POPC   D2A14464  38.484  30.712   8.250
 5306POPC   C3A14465  38.419  30.713   7.950
 5306POPC   C4A14466  38.489  30.736   7.650
 5306POPC   C1B14467  38.321  30.468   8.550
 5306POPC   C2B14468  38.297  30.555   8.250
 5306POPC   C3B14469  38.316  30.515   7.950
 5306POPC   C4B14470  38.319  30.548   7.650
 5307POPC   NC314471  22.919  38.411   9.450
 5307POPC   PO414472  22.917  38.418   9.150
 5307POPC   GL114473  22.979  38.442   8.850
 5307POPC   GL214474  22.893  38.316   8.850
 5307POPC   C1A14475  22.983  38.411   8.550
 5307POPC   D2A14476  22.927  38.501   8.250
 5307POPC   C3A14477  22.924  38.454   7.950
 5307POPC   C4A14478  22.962  38.420   7.650
 5307POPC   C1B14479  22.906  38.207   8.550
 5307POPC   C2B14480  22.967  38.199   8.250
 5307POPC   C3B14481  22.941  38.175   7.950
 5307POPC   C4B14482  22.942  38.224   7.650
 5308POPC   NC314483  13.627  43.080   9.450
 5308POPC   PO414484  13.579  43.130   9.150
 5308POPC   GL114485  13.627  43.102   8.850
 5308POPC   GL214486  13.714  43.111   8.850
 5308POPC   C1A14487  13.667  43.156   8.550
 5308POPC   D2A14488  13.631  43.074   8.250
 5308POPC   C3A14489  13.637  43.066   7.950
 5308POPC   C4A14490  13.624  43.064   7.650
 5308POPC   C1B14491  13.887  43.208   8.550
 5308POPC   C2B14492  13.902  43.162   8.250
 5308POPC   C3B14493  13.875  43.165   7.950
 5308POPC   C4B14494  13.815  43.173   7.650
 5309POPC   NC314495  31.498   5.062   9.450
 5309POPC   PO414496  31.432   5.102   9.150
 5309POPC   GL114497  31.444   5.051   8.850
 5309POPC   GL214498  31.414   4.984   8.850
 5309POPC   C1A14499  31.508   5.105   8.550
 5309POPC   D2A14500  31.492   5.121   8.250
 5309POPC   C3A14501  31.497   5.048   7.950
 5309POPC   C4A14502  31.521   5.082   7.650
 5309POPC   C1B14503  31.344   4.876   8.550
 5309POPC   C2B14504  31.280   4.886   8.250
 5309POPC   C3B14505  31.282   4.863   7.950
 5309POPC   C4B14506  31.316   4.853   7.650
 5310POPC   NC314507  39.257  34.549   9.450
 5310POPC   PO414508  39.187  34.612   9.150
 5310POPC   GL114509  39.191  34.530   8.850
 5310POPC   GL214510  39.146  34.606   8.850
 5310POPC   C1A14511  39.203  34.576   8.550
 5310POPC   D2A14512  39.221  34.576   8.250
 5310POPC   C3A14513  39.247  34.553   7.950
 5310POPC   C4A14514  39.189  34.566   7.650
 5310POPC   C1B14515  38.982  34.668   8.550
 5310POPC   C2B14516  39.038  34.609   8.250
 5310POPC   C3B14517  38.959  34.609   7.950
 5310POPC   C4B14518  39.031  34.625   7.650
 5311POPC   NC314519  11.290  28.338   9.450
 5311POPC   PO414520  11.264  28.363   9.150
 5311POPC   GL114521  11.293  28.415   8.850
 5311POPC   GL214522  11.257  28.529   8.850
 5311POPC   C1A14523  11.310  28.390   8.550
 5311POPC   D2A14524  11.290  28.321   8.250
 5311POPC   C3A14525  11.345  28.360   7.950
 5311POPC   C4A14526  11.263  28.382   7.650
 5311POPC   C1B14527  11.282  28.589   8.550
 5311POPC   C2B14528  11.289  28.655   8.250
 5311POPC   C3B14529  11.347  28.653   7.950
 5311POPC   C4B14530  11.319  28.573   7.650
 5312POPC   NC314531   0.392  39.970   9.450
 5312POPC   PO414532   0.413  39.976   9.150
 5312POPC   GL114533   0.391  40.016   8.850
 5312POPC   GL214534   0.582  40.023   8.850
 5312POPC   C1A14535   0.468  40.043   8.550
 5312POPC   D2A14536   0.439  40.008   8.250
 5312POPC   C3A14537   0.423  40.016   7.950
 5312POPC   C4A14538   0.463  39.988   7.650
 5312POPC   C1B14539   0.691  40.016   8.550
 5312POPC   C2B14540   0.637  39.967   8.250
 5312POPC   C3B14541   0.730  40.001   7.950
 5312POPC   C4B14542   0.683  39.924   7.650
 5313POPC   NC314543  17.492  11.304   9.450
 5313POPC   PO414544  17.541  11.307   9.150
 5313POPC   GL114545  17.541  11.332   8.850
 5313POPC   GL214546  17.653  11.199   8.850
 5313POPC   C1A14547  17.458  11.341   8.550
 5313POPC   D2A14548  17.499  11.294   8.250
 5313POPC   C3A14549  17.515  11.286   7.950
 5313POPC   C4A14550  17.467  11.258   7.650
 5313POPC   C1B14551  17.720  11.215   8.550
 5313POPC   C2B14552  17.693  11.143   8.250
 5313POPC   C3B14553  17.697  11.210   7.950
 5313POPC   C4B14554  17.688  11.228   7.650
 5314POPC   NC314555  22.906  39.190   9.450
 5314POPC   PO414556  22.919  39.181   9.150
 5314POPC   GL114557  22.939  39.208   8.850
 5314POPC   GL214558  22.985  39.121   8.850
 5314POPC   C1A14559  22.955  39.215   8.550
 5314POPC   D2A14560  22.956  39.190   8.250
 5314POPC   C3A14561  22.965  39.273   7.950
 5314POPC   C4A14562  22.969  39.259   7.650
 5314POPC   C1B14563  23.006  38.946   8.550
 5314POPC   C2B14564  23.001  38.976   8.250
 5314POPC   C3B14565  22.963  38.985   7.950
 5314POPC   C4B14566  22.980  38.954   7.650
 5315POPC   NC314567  34.547  32.294   9.450
 5315POPC   PO414568  34.566  32.246   9.150
 5315POPC   GL114569  34.595  32.208   8.850
 5315POPC   GL214570  34.416  32.220   8.850
 5315POPC   C1A14571  34.541  32.235   8.550
 5315POPC   D2A14572  34.554  32.212   8.250
 5315POPC   C3A14573  34.613  32.237   7.950
 5315POPC   C4A14574  34.584  32.251   7.650
 5315POPC   C1B14575  34.356  32.295   8.550
 5315POPC   C2B14576  34.323  32.228   8.250
 5315POPC   C3B14577  34.335  32.315   7.950
 5315POPC   C4B14578  34.300  32.269   7.650
 5316POPC   NC314579  10.527  15.205   9.450
 5316POPC   PO414580  10.499  15.153   9.150
 5316POPC   GL114581  10.555  15.178   8.850
 5316POPC   GL214582  10.380  15.193   8.850
 5316POPC   C1A14583  10.511  15.203   8.550
 5316POPC   D2A14584  10.543  15.173   8.250
 5316POPC   C3A14585  10.525  15.175   7.950
 5316POPC   C4A14586  10.541  15.172   7.650
 5316POPC   C1B14587  10.308  15.200   8.550
 5316POPC   C2B14588  10.250  15.189   8.250
 5316POPC   C3B14589  10.291  15.212   7.950
 5316POPC   C4B14590  10.257  15.165   7.650
 5317POPC   NC314591  33.071  11.324   9.450
 5317POPC   PO414592  33.062  11.307   9.150
 5317POPC   GL114593  33.047  11.306   8.850
 5317POPC   GL214594  32.998  11.213   8.850
 5317POPC   C1A14595  32.979  11.250   8.550
 5317POPC   D2A14596  32.997  11.271   8.250
 5317POPC   C3A14597  33.009  11.310   7.950
 5317POPC   C4A14598  33.024  11.269   7.650
 5317POPC   C1B14599  32.849  11.063   8.550
 5317POPC   C2B14600  32.873  11.117   8.250
 5317POPC   C3B14601  32.860  11.146   7.950
 5317POPC   C4B14602  32.833  11.139   7.650
 5318POPC   NC314603  10.531  23.740   9.450
 5318POPC   PO414604  10.544  23.753   9.150
 5318POPC   GL114605  10.493  23.731   8.850
 5318POPC   GL214606  10.452  23.636   8.850
 5318POPC   C1A14607  10.517  23.687   8.550
 5318POPC   D2A14608  10.562  23.705   8.250
 5318POPC   C3A14609  10.558  23.702   7.950
 5318POPC   C4A14610  10.510  23.749   7.650
 5318POPC   C1B14611  10.356  23.584   8.550
 5318POPC   C2B14612  10.329  23.556   8.250
 5318POPC   C3B14613  10.315  23.591   7.950
 5318POPC   C4B14614  10.322  23.583   7.650
 5319POPC   NC314615  38.503  39.968   9.450
 5319POPC   PO414616  38.407  40.034   9.150
 5319POPC   GL114617  38.459  40.011   8.850
 5319POPC   GL214618  38.542  40.100   8.850
 5319POPC   C1A14619  38.420  39.971   8.550
 5319POPC   D2A14620  38.493  40.003   8.250
 5319POPC   C3A14621  38.438  39.989   7.950
 5319POPC   C4A14622  38.433  40.005   7.650
 5319POPC   C1B14623  38.706  40.155   8.550
 5319POPC   C2B14624  38.670  40.105   8.250
 5319POPC   C3B14625  38.704  40.157   7.950
 5319POPC   C4B14626  38.699  40.163   7.650
 5320POPC   NC314627  31.491  11.273   9.450
 5320POPC   PO414628  31.452  11.297   9.150
 5320POPC   GL114629  31.511  11.287   8.850
 5320POPC   GL214630  31.427  11.180   8.850
 5320POPC   C1A14631  31.435  11.262   8.550
 5320POPC   D2A14632  31.505  11.320   8.250
 5320POPC   C3A14633  31.507  11.281   7.950
 5320POPC   C4A14634  31.507  11.344   7.650
 5320POPC   C1B14635  31.314  11.132   8.550
 5320POPC   C2B14636  31.370  11.101   8.250
 5320POPC   C3B14637  31.341  11.116   7.950
 5320POPC   C4B14638  31.340  11.062   7.650
 5321POPC   NC314639  20.578   1.234   9.450
 5321POPC   PO414640  20.577   1.183   9.150
 5321POPC   GL114641  20.617   1.259   8.850
 5321POPC   GL214642  20.450   1.140   8.850
 5321POPC   C1A14643  20.615   1.203   8.550
 5321POPC   D2A14644  20.574   1.166   8.250
 5321POPC   C3A14645  20.578   1.243   7.950
 5321POPC   C4A14646  20.599   1.243   7.650
 5321POPC   C1B14647  20.386   1.170   8.550
 5321POPC   C2B14648  20.414   1.168   8.250
 5321POPC   C3B14649  20.397   1.165   7.950
 5321POPC   C4B14650  20.390   1.147   7.650
 5322POPC   NC314651  12.113   2.023   9.450
 5322POPC   PO414652  12.083   1.973   9.150
 5322POPC   GL114653  12.069   2.014   8.850
 5322POPC   GL214654  11.945   2.083   8.850
 5322POPC   C1A14655  12.111   2.036   8.550
 5322POPC   D2A14656  12.062   2.039   8.250
 5322POPC   C3A14657  12.091   1.947   7.950
 5322POPC   C4A14658  12.125   1.941   7.650
 5322POPC   C1B14659  11.849   2.208   8.550
 5322POPC   C2B14660  11.876   2.160   8.250
 5322POPC   C3B14661  11.897   2.124   7.950
 5322POPC   C4B14662  11.866   2.153   7.650
 5323POPC   NC314663   9.701   6.629   9.450
 5323POPC   PO414664   9.726   6.607   9.150
 5323POPC   GL114665   9.767   6.639   8.850
 5323POPC   GL214666   9.631   6.538   8.850
 5323POPC   C1A14667   9.736   6.608   8.550
 5323POPC   D2A14668   9.765   6.672   8.250
 5323POPC   C3A14669   9.766   6.664   7.950
 5323POPC   C4A14670   9.698   6.622   7.650
 5323POPC   C1B14671   9.598   6.434   8.550
 5323POPC   C2B14672   9.557   6.450   8.250
 5323POPC   C3B14673   9.549   6.467   7.950
 5323POPC   C4B14674   9.575   6.438   7.650
 5324POPC   NC314675  39.985  19.816   9.450
 5324POPC   PO414676  39.966  19.790   9.150
 5324POPC   GL114677  39.964  19.807   8.850
 5324POPC   GL214678  40.091  19.723   8.850
 5324POPC   C1A14679  40.007  19.819   8.550
 5324POPC   D2A14680  39.991  19.791   8.250
 5324POPC   C3A14681  40.008  19.793   7.950
 5324POPC   C4A14682  40.032  19.796   7.650
 5324POPC   C1B14683  40.185  19.724   8.550
 5324POPC   C2B14684  40.228  19.710   8.250
 5324POPC   C3B14685  40.173  19.728   7.950
 5324POPC   C4B14686  40.220  19.702   7.650
 5325POPC   NC314687  23.760  22.907   9.450
 5325POPC   PO414688  23.724  22.910   9.150
 5325POPC   GL114689  23.730  22.973   8.850
 5325POPC   GL214690  23.594  22.997   8.850
 5325POPC   C1A14691  23.730  22.975   8.550
 5325POPC   D2A14692  23.729  22.900   8.250
 5325POPC   C3A14693  23.733  22.966   7.950
 5325POPC   C4A14694  23.674  22.961   7.650
 5325POPC   C1B14695  23.449  23.098   8.550
 5325POPC   C2B14696  23.500  23.066   8.250
 5325POPC   C3B14697  23.499  23.072   7.950
 5325POPC   C4B14698  23.533  23.069   7.650
 5326POPC   NC314699  34.621  33.819   9.450
 5326POPC   PO414700  34.548  33.780   9.150
 5326POPC   GL114701  34.560  33.753   8.850
 5326POPC   GL214702  34.441  33.855   8.850
 5326POPC   C1A14703  34.548  33.783   8.550
 5326POPC   D2A14704  34.589  33.828   8.250
 5326POPC   C3A14705  34.612  33.774   7.950
 5326POPC   C4A14706  34.545  33.759   7.650
 5326POPC   C1B14707  34.349  33.911   8.550
 5326POPC   C2B14708  34.325  33.971   8.250
 5326POPC   C3B14709  34.342  33.886   7.950
 5326POPC   C4B14710  34.350  33.937   7.650
 5327POPC   NC314711  27.570   3.516   9.450
 5327POPC   PO414712  27.608   3.559   9.150
 5327POPC   GL114713  27.608   3.569   8.850
 5327POPC   GL214714  27.566   3.450   8.850
 5327POPC   C1A14715  27.625   3.499   8.550
 5327POPC   D2A14716  27.589   3.541   8.250
 5327POPC   C3A14717  27.635   3.547   7.950
 5327POPC   C4A14718  27.545   3.533   7.650
 5327POPC   C1B14719  27.474   3.317   8.550
 5327POPC   C2B14720  27.517   3.334   8.250
 5327POPC   C3B14721  27.497   3.344   7.950
 5327POPC   C4B14722  27.470   3.303   7.650
 5328POPC   NC314723  34.587  26.079   9.450
 5328POPC   PO414724  34.563  25.996   9.150
 5328POPC   GL114725  34.585  26.071   8.850
 5328POPC   GL214726  34.476  25.966   8.850
 5328POPC   C1A14727  34.617  25.996   8.550
 5328POPC   D2A14728  34.548  26.060   8.250
 5328POPC   C3A14729  34.535  26.070   7.950
 5328POPC   C4A14730  34.539  26.085   7.650
 5328POPC   C1B14731  34.372  25.958   8.550
 5328POPC   C2B14732  34.323  25.923   8.250
 5328POPC   C3B14733  34.328  25.926   7.950
 5328POPC   C4B14734  34.396  25.884   7.650
 5329POPC   NC314735  22.947  20.606   9.450
 5329POPC   PO414736  22.913  20.580   9.150
 5329POPC   GL114737  22.895  20.583   8.850
 5329POPC   GL214738  23.020  20.617   8.850
 5329POPC   C1A14739  22.919  20.649   8.550
 5329POPC   D2A14740  22.946  20.648   8.250
 5329POPC   C3A14741  22.962  20.601   7.950
 5329POPC   C4A14742  22.943  20.618   7.650
 5329POPC   C1B14743  23.147  20.597   8.550
 5329POPC   C2B14744  23.157  20.541   8.250
 5329POPC   C3B14745  23.163  20.538   7.950
 5329POPC   C4B14746  23.210  20.600   7.650
 5330POPC   NC314747   8.223   7.458   9.450
 5330POPC   PO414748   8.218   7.455   9.150
 5330POPC   GL114749   8.174   7.423   8.850
 5330POPC   GL214750   8.267   7.481   8.850
 5330POPC   C1A14751   8.176   7.459   8.550
 5330POPC   D2A14752   8.211   7.394   8.250
 5330POPC   C3A14753   8.241   7.407   7.950
 5330POPC   C4A14754   8.207   7.392   7.650
 5330POPC   C1B14755   8.390   7.589   8.550
 5330POPC   C2B14756   8.404   7.567   8.250
 5330POPC   C3B14757   8.383   7.556   7.950
 5330POPC   C4B14758   8.323   7.572   7.650
 5331POPC   NC314759   2.789  36.930   9.450
 5331POPC   PO414760   2.799  36.952   9.150
 5331POPC   GL114761   2.791  36.948   8.850
 5331POPC   GL214762   2.802  36.972   8.850
 5331POPC   C1A14763   2.814  36.934   8.550
 5331POPC   D2A14764   2.718  36.865   8.250
 5331POPC   C3A14765   2.720  36.891   7.950
 5331POPC   C4A14766   2.800  36.854   7.650
 5331POPC   C1B14767   2.871  37.150   8.550
 5331POPC   C2B14768   2.863  37.075   8.250
 5331POPC   C3B14769   2.842  37.153   7.950
 5331POPC   C4B14770   2.924  37.143   7.650
 5332POPC   NC314771  12.819   9.762   9.450
 5332POPC   PO414772  12.856   9.739   9.150
 5332POPC   GL114773  12.900   9.791   8.850
 5332POPC   GL214774  12.704   9.733   8.850
 5332POPC   C1A14775  12.819   9.793   8.550
 5332POPC   D2A14776  12.837   9.750   8.250
 5332POPC   C3A14777  12.806   9.707   7.950
 5332POPC   C4A14778  12.816   9.710   7.650
 5332POPC   C1B14779  12.641   9.829   8.550
 5332POPC   C2B14780  12.644   9.804   8.250
 5332POPC   C3B14781  12.632   9.790   7.950
 5332POPC   C4B14782  12.573   9.811   7.650
 5333POPC   NC314783   4.362  10.504   9.450
 5333POPC   PO414784   4.327  10.499   9.150
 5333POPC   GL114785   4.318  10.499   8.850
 5333POPC   GL214786   4.249  10.604   8.850
 5333POPC   C1A14787   4.337  10.488   8.550
 5333POPC   D2A14788   4.357  10.553   8.250
 5333POPC   C3A14789   4.364  10.551   7.950
 5333POPC   C4A14790   4.305  10.517   7.650
 5333POPC   C1B14791   4.235  10.778   8.550
 5333POPC   C2B14792   4.208  10.776   8.250
 5333POPC   C3B14793   4.252  10.723   7.950
 5333POPC   C4B14794   4.192  10.799   7.650
 5334POPC   NC314795  34.561  20.647   9.450
 5334POPC   PO414796  34.593  20.562   9.150
 5334POPC   GL114797  34.581  20.568   8.850
 5334POPC   GL214798  34.678  20.704   8.850
 5334POPC   C1A14799  34.582  20.641   8.550
 5334POPC   D2A14800  34.560  20.630   8.250
 5334POPC   C3A14801  34.601  20.608   7.950
 5334POPC   C4A14802  34.557  20.645   7.650
 5334POPC   C1B14803  34.815  20.713   8.550
 5334POPC   C2B14804  34.824  20.724   8.250
 5334POPC   C3B14805  34.781  20.715   7.950
 5334POPC   C4B14806  34.759  20.719   7.650
 5335POPC   NC314807  34.564  38.486   9.450
 5335POPC   PO414808  34.575  38.462   9.150
 5335POPC   GL114809  34.582  38.473   8.850
 5335POPC   GL214810  34.638  38.513   8.850
 5335POPC   C1A14811  34.568  38.418   8.550
 5335POPC   D2A14812  34.621  38.481   8.250
 5335POPC   C3A14813  34.612  38.468   7.950
 5335POPC   C4A14814  34.573  38.431   7.650
 5335POPC   C1B14815  34.764  38.555   8.550
 5335POPC   C2B14816  34.800  38.558   8.250
 5335POPC   C3B14817  34.792  38.518   7.950
 5335POPC   C4B14818  34.767  38.576   7.650
 5336POPC   NC314819  27.591  32.217   9.450
 5336POPC   PO414820  27.557  32.281   9.150
 5336POPC   GL114821  27.624  32.236   8.850
 5336POPC   GL214822  27.664  32.173   8.850
 5336POPC   C1A14823  27.594  32.292   8.550
 5336POPC   D2A14824  27.625  32.215   8.250
 5336POPC   C3A14825  27.639  32.253   7.950
 5336POPC   C4A14826  27.561  32.260   7.650
 5336POPC   C1B14827  27.621  32.024   8.550
 5336POPC   C2B14828  27.693  31.991   8.250
 5336POPC   C3B14829  27.686  32.015   7.950
 5336POPC   C4B14830  27.628  32.046   7.650
 5337POPC   NC314831  23.717   3.582   9.450
 5337POPC   PO414832  23.727   3.549   9.150
 5337POPC   GL114833  23.682   3.569   8.850
 5337POPC   GL214834  23.607   3.574   8.850
 5337POPC   C1A14835  23.722   3.532   8.550
 5337POPC   D2A14836  23.741   3.495   8.250
 5337POPC   C3A14837  23.762   3.589   7.950
 5337POPC   C4A14838  23.665   3.562   7.650
 5337POPC   C1B14839  23.504   3.716   8.550
 5337POPC   C2B14840  23.547   3.639   8.250
 5337POPC   C3B14841  23.467   3.659   7.950
 5337POPC   C4B14842  23.484   3.691   7.650
 5338POPC   NC314843  35.320   1.220   9.450
 5338POPC   PO414844  35.322   1.223   9.150
 5338POPC   GL114845  35.359   1.216   8.850
 5338POPC   GL214846  35.447   1.296   8.850
 5338POPC   C1A14847  35.343   1.222   8.550
 5338POPC   D2A14848  35.313   1.249   8.250
 5338POPC   C3A14849  35.325   1.210   7.950
 5338POPC   C4A14850  35.391   1.234   7.650
 5338POPC   C1B14851  35.528   1.338   8.550
 5338POPC   C2B14852  35.539   1.418   8.250
 5338POPC   C3B14853  35.582   1.354   7.950
 5338POPC   C4B14854  35.496   1.337   7.650
 5339POPC   NC314855   9.715  43.875   9.450
 5339POPC   PO414856   9.723  43.871   9.150
 5339POPC   GL114857   9.720  43.882   8.850
 5339POPC   GL214858   9.590  43.974   8.850
 5339POPC   C1A14859   9.783  43.862   8.550
 5339POPC   D2A14860   9.719  43.904   8.250
 5339POPC   C3A14861   9.742  43.909   7.950
 5339POPC   C4A14862   9.766  43.910   7.650
 5339POPC   C1B14863   9.522  43.955   8.550
 5339POPC   C2B14864   9.554  43.976   8.250
 5339POPC   C3B14865   9.463  43.992   7.950
 5339POPC   C4B14866   9.464  43.923   7.650
 5340POPC   NC314867   0.403  29.156   9.450
 5340POPC   PO414868   0.478  29.191   9.150
 5340POPC   GL114869   0.475  29.131   8.850
 5340POPC   GL214870   0.335  29.132   8.850
 5340POPC   C1A14871   0.436  29.138   8.550
 5340POPC   D2A14872   0.409  29.128   8.250
 5340POPC   C3A14873   0.452  29.102   7.950
 5340POPC   C4A14874   0.413  29.164   7.650
 5340POPC   C1B14875   0.152  29.049   8.550
 5340POPC   C2B14876   0.160  29.128   8.250
 5340POPC   C3B14877   0.156  29.116   7.950
 5340POPC   C4B14878   0.187  29.142   7.650
 5341POPC   NC314879  40.031   5.915   9.450
 5341POPC   PO414880  39.964   5.823   9.150
 5341POPC   GL114881  40.041   5.873   8.850
 5341POPC   GL214882  39.913   5.909   8.850
 5341POPC   C1A14883  39.997   5.890   8.550
 5341POPC   D2A14884  40.002   5.831   8.250
 5341POPC   C3A14885  39.979   5.832   7.950
 5341POPC   C4A14886  39.992   5.906   7.650
 5341POPC   C1B14887  39.846   6.070   8.550
 5341POPC   C2B14888  39.819   6.029   8.250
 5341POPC   C3B14889  39.829   6.034   7.950
 5341POPC   C4B14890  39.785   5.990   7.650
 5342POPC   NC314891   5.072   7.447   9.450
 5342POPC   PO414892   5.110   7.448   9.150
 5342POPC   GL114893   5.129   7.413   8.850
 5342POPC   GL214894   5.004   7.416   8.850
 5342POPC   C1A14895   5.109   7.391   8.550
 5342POPC   D2A14896   5.088   7.436   8.250
 5342POPC   C3A14897   5.134   7.371   7.950
 5342POPC   C4A14898   5.139   7.379   7.650
 5342POPC   C1B14899   4.883   7.514   8.550
 5342POPC   C2B14900   4.821   7.495   8.250
 5342POPC   C3B14901   4.803   7.473   7.950
 5342POPC   C4B14902   4.879   7.499   7.650
 5343POPC   NC314903   6.653  32.275   9.450
 5343POPC   PO414904   6.654  32.278   9.150
 5343POPC   GL114905   6.667  32.214   8.850
 5343POPC   GL214906   6.774  32.286   8.850
 5343POPC   C1A14907   6.664  32.202   8.550
 5343POPC   D2A14908   6.675  32.212   8.250
 5343POPC   C3A14909   6.606  32.283   7.950
 5343POPC   C4A14910   6.634  32.220   7.650
 5343POPC   C1B14911   6.900  32.394   8.550
 5343POPC   C2B14912   6.837  32.328   8.250
 5343POPC   C3B14913   6.867  32.399   7.950
 5343POPC   C4B14914   6.836  32.357   7.650
 5344POPC   NC314915   1.229  43.093   9.450
 5344POPC   PO414916   1.171  43.081   9.150
 5344POPC   GL114917   1.242  43.107   8.850
 5344POPC   GL214918   1.355  43.131   8.850
 5344POPC   C1A14919   1.217  43.074   8.550
 5344POPC   D2A14920   1.170  43.131   8.250
 5344POPC   C3A14921   1.186  43.099   7.950
 5344POPC   C4A14922   1.234  43.131   7.650
 5344POPC   C1B14923   1.411  43.150   8.550
 5344POPC   C2B14924   1.503  43.133   8.250
 5344POPC   C3B14925   1.497  43.168   7.950
 5344POPC   C4B14926   1.481  43.217   7.650
 5345POPC   NC314927   9.783   1.184   9.450
 5345POPC   PO414928   9.791   1.246   9.150
 5345POPC   GL114929   9.795   1.193   8.850
 5345POPC   GL214930   9.875   1.289   8.850
 5345POPC   C1A14931   9.778   1.249   8.550
 5345POPC   D2A14932   9.766   1.175   8.250
 5345POPC   C3A14933   9.749   1.209   7.950
 5345POPC   C4A14934   9.732   1.232   7.650
 5345POPC   C1B14935   9.907   1.369   8.550
 5345POPC   C2B14936   9.885   1.359   8.250
 5345POPC   C3B14937   9.925   1.420   7.950
 5345POPC   C4B14938   9.894   1.410   7.650
 5346POPC   NC314939  14.411   8.958   9.450
 5346POPC   PO414940  14.434   9.017   9.150
 5346POPC   GL114941  14.356   8.950   8.850
 5346POPC   GL214942  14.504   9.103   8.850
 5346POPC   C1A14943  14.440   8.937   8.550
 5346POPC   D2A14944  14.370   8.966   8.250
 5346POPC   C3A14945  14.413   8.944   7.950
 5346POPC   C4A14946  14.380   8.927   7.650
 5346POPC   C1B14947  14.560   9.131   8.550
 5346POPC   C2B14948  14.513   9.138   8.250
 5346POPC   C3B14949  14.548   9.166   7.950
 5346POPC   C4B14950  14.544   9.123   7.650
 5347POPC   NC314951  14.355  41.591   9.450
 5347POPC   PO414952  14.448  41.509   9.150
 5347POPC   GL114953  14.414  41.514   8.850
 5347POPC   GL214954  14.566  41.588   8.850
 5347POPC   C1A14955  14.390  41.530   8.550
 5347POPC   D2A14956  14.447  41.555   8.250
 5347POPC   C3A14957  14.399  41.560   7.950
 5347POPC   C4A14958  14.423  41.526   7.650
 5347POPC   C1B14959  14.666  41.670   8.550
 5347POPC   C2B14960  14.641  41.701   8.250
 5347POPC   C3B14961  14.623  41.702   7.950
 5347POPC   C4B14962  14.624  41.624   7.650
 5348POPC   NC314963  33.799  20.581   9.450
 5348POPC   PO414964  33.750  20.626   9.150
 5348POPC   GL114965  33.816  20.654   8.850
 5348POPC   GL214966  33.832  20.755   8.850
 5348POPC   C1A14967  33.844  20.635   8.550
 5348POPC   D2A14968  33.766  20.633   8.250
 5348POPC   C3A14969  33.829  20.577   7.950
 5348POPC   C4A14970  33.791  20.657   7.650
 5348POPC   C1B14971  33.893  20.881   8.550
 5348POPC   C2B14972  33.880  20.842   8.250
 5348POPC   C3B14973  33.912  20.789   7.950
 5348POPC   C4B14974  33.898  20.809   7.650
 5349POPC   NC314975  20.567  43.891   9.450
 5349POPC   PO414976  20.623  43.847   9.150
 5349POPC   GL114977  20.575  43.888   8.850
 5349POPC   GL214978  20.619  43.984   8.850
 5349POPC   C1A14979  20.565  43.929   8.550
 5349POPC   D2A14980  20.589  43.908   8.250
 5349POPC   C3A14981  20.566  43.857   7.950
 5349POPC   C4A14982  20.598  43.928   7.650
 5349POPC   C1B14983  20.604  44.133   8.550
 5349POPC   C2B14984  20.565  44.158   8.250
 5349POPC   C3B14985  20.568  44.092   7.950
 5349POPC   C4B14986  20.632  44.125   7.650
 5350POPC   NC314987   8.154  21.359   9.450
 5350POPC   PO414988   8.152  21.372   9.150
 5350POPC   GL114989   8.169  21.374   8.850
 5350POPC   GL214990   8.117  21.400   8.850
 5350POPC   C1A14991   8.234  21.371   8.550
 5350POPC   D2A14992   8.201  21.389   8.250
 5350POPC   C3A14993   8.163  21.363   7.950
 5350POPC   C4A14994   8.207  21.386   7.650
 5350POPC   C1B14995   7.940  21.373   8.550
 5350POPC   C2B14996   7.948  21.319   8.250
 5350POPC   C3B14997   7.904  21.364   7.950
 5350POPC   C4B14998   7.985  21.296   7.650
 5351POPC   NC314999  25.311  40.828   9.450
 5351POPC   PO415000  25.237  40.779   9.150
 5351POPC   GL115001  25.301  40.824   8.850
 5351POPC   GL215002  25.383  40.903   8.850
 5351POPC   C1A15003  25.274  40.770   8.550
 5351POPC   D2A15004  25.299  40.748   8.250
 5351POPC   C3A15005  25.280  40.777   7.950
 5351POPC   C4A15006  25.294  40.744   7.650
 5351POPC   C1B15007  25.512  40.943   8.550
 5351POPC   C2B15008  25.438  40.954   8.250
 5351POPC   C3B15009  25.450  40.941   7.950
 5351POPC   C4B15010  25.454  40.944   7.650
 5352POPC   NC315011  16.725  22.166   9.450
 5352POPC   PO415012  16.771  22.112   9.150
 5352POPC   GL115013  16.770  22.154   8.850
 5352POPC   GL215014  16.768  22.018   8.850
 5352POPC   C1A15015  16.781  22.142   8.550
 5352POPC   D2A15016  16.704  22.143   8.250
 5352POPC   C3A15017  16.772  22.157   7.950
 5352POPC   C4A15018  16.755  22.149   7.650
 5352POPC   C1B15019  16.667  21.886   8.550
 5352POPC   C2B15020  16.677  21.893   8.250
 5352POPC   C3B15021  16.669  21.880   7.950
 5352POPC   C4B15022  16.743  21.881   7.650
 5353POPC   NC315023  31.428  29.105   9.450
 5353POPC   PO415024  31.502  29.114   9.150
 5353POPC   GL115025  31.430  29.189   8.850
 5353POPC   GL215026  31.603  29.187   8.850
 5353POPC   C1A15027  31.474  29.170   8.550
 5353POPC   D2A15028  31.446  29.182   8.250
 5353POPC   C3A15029  31.432  29.109   7.950
 5353POPC   C4A15030  31.430  29.108   7.650
 5353POPC   C1B15031  31.712  29.199   8.550
 5353POPC   C2B15032  31.765  29.178   8.250
 5353POPC   C3B15033  31.694  29.183   7.950
 5353POPC   C4B15034  31.717  29.161   7.650
 5354POPC   NC315035  13.652  11.350   9.450
 5354POPC   PO415036  13.579  11.279   9.150
 5354POPC   GL115037  13.644  11.253   8.850
 5354POPC   GL215038  13.745  11.250   8.850
 5354POPC   C1A15039  13.581  11.277   8.550
 5354POPC   D2A15040  13.619  11.263   8.250
 5354POPC   C3A15041  13.631  11.253   7.950
 5354POPC   C4A15042  13.581  11.278   7.650
 5354POPC   C1B15043  13.887  11.290   8.550
 5354POPC   C2B15044  13.830  11.272   8.250
 5354POPC   C3B15045  13.841  11.237   7.950
 5354POPC   C4B15046  13.883  11.242   7.650
 5355POPC   NC315047   5.873  39.979   9.450
 5355POPC   PO415048   5.834  39.965   9.150
 5355POPC   GL115049   5.849  40.056   8.850
 5355POPC   GL215050   5.720  39.981   8.850
 5355POPC   C1A15051   5.834  40.014   8.550
 5355POPC   D2A15052   5.847  39.999   8.250
 5355POPC   C3A15053   5.866  40.011   7.950
 5355POPC   C4A15054   5.902  40.017   7.650
 5355POPC   C1B15055   5.615  39.994   8.550
 5355POPC   C2B15056   5.646  40.031   8.250
 5355POPC   C3B15057   5.619  39.968   7.950
 5355POPC   C4B15058   5.627  40.015   7.650
 5356POPC   NC315059   9.012  38.489   9.450
 5356POPC   PO415060   9.011  38.505   9.150
 5356POPC   GL115061   8.954  38.444   8.850
 5356POPC   GL215062   8.942  38.609   8.850
 5356POPC   C1A15063   8.938  38.500   8.550
 5356POPC   D2A15064   8.952  38.496   8.250
 5356POPC   C3A15065   9.017  38.408   7.950
 5356POPC   C4A15066   9.014  38.479   7.650
 5356POPC   C1B15067   8.914  38.723   8.550
 5356POPC   C2B15068   8.968  38.681   8.250
 5356POPC   C3B15069   8.907  38.699   7.950
 5356POPC   C4B15070   8.998  38.743   7.650
 5357POPC   NC315071  27.554  16.781   9.450
 5357POPC   PO415072  27.625  16.718   9.150
 5357POPC   GL115073  27.627  16.715   8.850
 5357POPC   GL215074  27.462  16.675   8.850
 5357POPC   C1A15075  27.562  16.769   8.550
 5357POPC   D2A15076  27.570  16.734   8.250
 5357POPC   C3A15077  27.550  16.735   7.950
 5357POPC   C4A15078  27.557  16.690   7.650
 5357POPC   C1B15079  27.297  16.675   8.550
 5357POPC   C2B15080  27.372  16.724   8.250
 5357POPC   C3B15081  27.302  16.699   7.950
 5357POPC   C4B15082  27.334  16.673   7.650
 5358POPC   NC315083  36.083  33.821   9.450
 5358POPC   PO415084  36.119  33.825   9.150
 5358POPC   GL115085  36.124  33.758   8.850
 5358POPC   GL215086  35.979  33.765   8.850
 5358POPC   C1A15087  36.155  33.784   8.550
 5358POPC   D2A15088  36.141  33.813   8.250
 5358POPC   C3A15089  36.166  33.801   7.950
 5358POPC   C4A15090  36.100  33.846   7.650
 5358POPC   C1B15091  35.857  33.838   8.550
 5358POPC   C2B15092  35.906  33.841   8.250
 5358POPC   C3B15093  35.873  33.862   7.950
 5358POPC   C4B15094  35.845  33.810   7.650
 5359POPC   NC315095  13.604  30.688   9.450
 5359POPC   PO415096  13.639  30.673   9.150
 5359POPC   GL115097  13.629  30.668   8.850
 5359POPC   GL215098  13.739  30.624   8.850
 5359POPC   C1A15099  13.667  30.704   8.550
 5359POPC   D2A15100  13.598  30.746   8.250
 5359POPC   C3A15101  13.615  30.714   7.950
 5359POPC   C4A15102  13.651  30.729   7.650
 5359POPC   C1B15103  13.850  30.610   8.550
 5359POPC   C2B15104  13.791  30.516   8.250
 5359POPC   C3B15105  13.842  30.606   7.950
 5359POPC   C4B15106  13.875  30.548   7.650
 5360POPC   NC315107  31.438  19.025   9.450
 5360POPC   PO415108  31.455  19.082   9.150
 5360POPC   GL115109  31.515  19.027   8.850
 5360POPC   GL215110  31.355  19.022   8.850
 5360POPC   C1A15111  31.522  19.079   8.550
 5360POPC   D2A15112  31.488  19.020   8.250
 5360POPC   C3A15113  31.500  19.070   7.950
 5360POPC   C4A15114  31.493  19.065   7.650
 5360POPC   C1B15115  31.196  19.067   8.550
 5360POPC   C2B15116  31.269  19.030   8.250
 5360POPC   C3B15117  31.242  19.072   7.950
 5360POPC   C4B15118  31.176  19.064   7.650
 5361POPC   NC315119  15.990  22.159   9.450
 5361POPC   PO415120  15.954  22.130   9.150
 5361POPC   GL115121  16.003  22.195   8.850
 5361POPC   GL215122  15.817  22.159   8.850
 5361POPC   C1A15123  15.995  22.207   8.550
 5361POPC   D2A15124  15.919  22.150   8.250
 5361POPC   C3A15125  15.982  22.195   7.950
 5361POPC   C4A15126  15.982  22.150   7.650
 5361POPC   C1B15127  15.712  22.208   8.550
 5361POPC   C2B15128  15.740  22.189   8.250
 5361POPC   C3B15129  15.687  22.206   7.950
 5361POPC   C4B15130  15.703  22.172   7.650
 5362POPC   NC315131  40.802   8.191   9.450
 5362POPC   PO415132  40.825   8.190   9.150
 5362POPC   GL115133  40.799   8.202   8.850
 5362POPC   GL215134  40.936   8.232   8.850
 5362POPC   C1A15135  40.777   8.242   8.550
 5362POPC   D2A15136  40.806   8.235   8.250
 5362POPC   C3A15137  40.767   8.192   7.950
 5362POPC   C4A15138  40.810   8.147   7.650
 5362POPC   C1B15139  40.967   8.270   8.550
 5362POPC   C2B15140  40.967   8.262   8.250
 5362POPC   C3B15141  41.059   8.314   7.950
 5362POPC   C4B15142  41.030   8.328   7.650
 5363POPC   NC315143  43.933   0.421   9.450
 5363POPC   PO415144  43.918   0.403   9.150
 5363POPC   GL115145  43.917   0.400   8.850
 5363POPC   GL215146  43.885   0.564   8.850
 5363POPC   C1A15147  43.866   0.462   8.550
 5363POPC   D2A15148  43.920   0.433   8.250
 5363POPC   C3A15149  43.931   0.451   7.950
 5363POPC   C4A15150  43.921   0.402   7.650
 5363POPC   C1B15151  43.904   0.642   8.550
 5363POPC   C2B15152  43.915   0.637   8.250
 5363POPC   C3B15153  43.946   0.719   7.950
 5363POPC   C4B15154  43.909   0.709   7.650
 5364POPC   NC315155  26.067  16.737   9.450
 5364POPC   PO415156  25.995  16.701   9.150
 5364POPC   GL115157  26.033  16.735   8.850
 5364POPC   GL215158  25.953  16.637   8.850
 5364POPC   C1A15159  26.075  16.760   8.550
 5364POPC   D2A15160  26.001  16.727   8.250
 5364POPC   C3A15161  26.060  16.704   7.950
 5364POPC   C4A15162  26.057  16.754   7.650
 5364POPC   C1B15163  25.778  16.619   8.550
 5364POPC   C2B15164  25.807  16.628   8.250
 5364POPC   C3B15165  25.861  16.579   7.950
 5364POPC   C4B15166  25.836  16.609   7.650
 5365POPC   NC315167  10.551  19.786   9.450
 5365POPC   PO415168  10.494  19.868   9.150
 5365POPC   GL115169  10.539  19.795   8.850
 5365POPC   GL215170  10.616  19.911   8.850
 5365POPC   C1A15171  10.494  19.827   8.550
 5365POPC   D2A15172  10.489  19.858   8.250
 5365POPC   C3A15173  10.486  19.818   7.950
 5365POPC   C4A15174  10.520  19.814   7.650
 5365POPC   C1B15175  10.682  20.062   8.550
 5365POPC   C2B15176  10.677  20.054   8.250
 5365POPC   C3B15177  10.688  20.000   7.950
 5365POPC   C4B15178  10.688  20.062   7.650
 5366POPC   NC315179  44.652  10.565   9.450
 5366POPC   PO415180  44.664  10.534   9.150
 5366POPC   GL115181  44.678  10.494   8.850
 5366POPC   GL215182  44.790  10.602   8.850
 5366POPC   C1A15183  44.692  10.485   8.550
 5366POPC   D2A15184  44.705  10.492   8.250
 5366POPC   C3A15185  44.681  10.476   7.950
 5366POPC   C4A15186  44.665  10.571   7.650
 5366POPC   C1B15187  44.789  10.679   8.550
 5366POPC   C2B15188  44.860  10.721   8.250
 5366POPC   C3B15189  44.787  10.699   7.950
 5366POPC   C4B15190  44.881  10.659   7.650
 5367POPC   NC315191  33.064  12.818   9.450
 5367POPC   PO415192  33.066  12.807   9.150
 5367POPC   GL115193  33.072  12.804   8.850
 5367POPC   GL215194  33.078  12.908   8.850
 5367POPC   C1A15195  33.010  12.880   8.550
 5367POPC   D2A15196  33.034  12.861   8.250
 5367POPC   C3A15197  32.989  12.831   7.950
 5367POPC   C4A15198  32.998  12.860   7.650
 5367POPC   C1B15199  33.167  13.074   8.550
 5367POPC   C2B15200  33.179  13.057   8.250
 5367POPC   C3B15201  33.164  13.026   7.950
 5367POPC   C4B15202  33.195  13.061   7.650
 5368POPC   NC315203   8.947  39.203   9.450
 5368POPC   PO415204   9.000  39.203   9.150
 5368POPC   GL115205   8.961  39.274   8.850
 5368POPC   GL215206   9.085  39.233   8.850
 5368POPC   C1A15207   8.952  39.205   8.550
 5368POPC   D2A15208   8.962  39.247   8.250
 5368POPC   C3A15209   8.926  39.232   7.950
 5368POPC   C4A15210   8.952  39.241   7.650
 5368POPC   C1B15211   9.235  39.275   8.550
 5368POPC   C2B15212   9.188  39.349   8.250
 5368POPC   C3B15213   9.207  39.311   7.950
 5368POPC   C4B15214   9.254  39.257   7.650
 5369POPC   NC315215  29.166  43.862   9.450
 5369POPC   PO415216  29.187  43.861   9.150
 5369POPC   GL115217  29.185  43.845   8.850
 5369POPC   GL215218  29.192  44.000   8.850
 5369POPC   C1A15219  29.175  43.839   8.550
 5369POPC   D2A15220  29.192  43.930   8.250
 5369POPC   C3A15221  29.101  43.859   7.950
 5369POPC   C4A15222  29.188  43.931   7.650
 5369POPC   C1B15223  29.361  44.088   8.550
 5369POPC   C2B15224  29.306  44.065   8.250
 5369POPC   C3B15225  29.284  44.116   7.950
 5369POPC   C4B15226  29.357  44.062   7.650
 5370POPC   NC315227  12.046  22.979   9.450
 5370POPC   PO415228  12.122  22.890   9.150
 5370POPC   GL115229  12.057  22.982   8.850
 5370POPC   GL215230  12.073  22.863   8.850
 5370POPC   C1A15231  12.072  22.920   8.550
 5370POPC   D2A15232  12.121  22.926   8.250
 5370POPC   C3A15233  12.072  22.935   7.950
 5370POPC   C4A15234  12.107  22.891   7.650
 5370POPC   C1B15235  12.082  22.642   8.550
 5370POPC   C2B15236  12.092  22.709   8.250
 5370POPC   C3B15237  12.112  22.654   7.950
 5370POPC   C4B15238  12.106  22.659   7.650
 5371POPC   NC315239  15.916   1.979   9.450
 5371POPC   PO415240  15.932   2.010   9.150
 5371POPC   GL115241  15.990   2.028   8.850
 5371POPC   GL215242  15.918   1.849   8.850
 5371POPC   C1A15243  15.964   1.950   8.550
 5371POPC   D2A15244  15.989   1.977   8.250
 5371POPC   C3A15245  15.957   1.955   7.950
 5371POPC   C4A15246  15.917   1.946   7.650
 5371POPC   C1B15247  15.941   1.783   8.550
 5371POPC   C2B15248  15.921   1.780   8.250
 5371POPC   C3B15249  15.971   1.730   7.950
 5371POPC   C4B15250  15.903   1.695   7.650
 5372POPC   NC315251  43.934  42.305   9.450
 5372POPC   PO415252  43.901  42.330   9.150
 5372POPC   GL115253  43.929  42.323   8.850
 5372POPC   GL215254  43.781  42.333   8.850
 5372POPC   C1A15255  43.921  42.363   8.550
 5372POPC   D2A15256  43.936  42.341   8.250
 5372POPC   C3A15257  43.919  42.299   7.950
 5372POPC   C4A15258  43.838  42.373   7.650
 5372POPC   C1B15259  43.682  42.465   8.550
 5372POPC   C2B15260  43.687  42.425   8.250
 5372POPC   C3B15261  43.619  42.422   7.950
 5372POPC   C4B15262  43.682  42.455   7.650
 5373POPC   NC315263  24.509  20.610   9.450
 5373POPC   PO415264  24.465  20.630   9.150
 5373POPC   GL115265  24.533  20.607   8.850
 5373POPC   GL215266  24.491  20.443   8.850
 5373POPC   C1A15267  24.460  20.614   8.550
 5373POPC   D2A15268  24.474  20.620   8.250
 5373POPC   C3A15269  24.459  20.602   7.950
 5373POPC   C4A15270  24.477  20.615   7.650
 5373POPC   C1B15271  24.544  20.395   8.550
 5373POPC   C2B15272  24.545  20.373   8.250
 5373POPC   C3B15273  24.551  20.409   7.950
 5373POPC   C4B15274  24.501  20.399   7.650
 5374POPC   NC315275  11.291  44.619   9.450
 5374POPC   PO415276  11.349  44.684   9.150
 5374POPC   GL115277  11.325  44.619   8.850
 5374POPC   GL215278  11.371  44.734   8.850
 5374POPC   C1A15279  11.312  44.673   8.550
 5374POPC   D2A15280  11.254  44.612   8.250
 5374POPC   C3A15281  11.256  44.641   7.950
 5374POPC   C4A15282  11.348  44.675   7.650
 5374POPC   C1B15283  11.391  44.845   8.550
 5374POPC   C2B15284  11.394  44.938   8.250
 5374POPC   C3B15285  11.363  44.918   7.950
 5374POPC   C4B15286  11.406  44.879   7.650
 5375POPC   NC315287   7.392  35.314   9.450
 5375POPC   PO415288   7.373  35.339   9.150
 5375POPC   GL115289   7.458  35.363   8.850
 5375POPC   GL215290   7.365  35.244   8.850
 5375POPC   C1A15291   7.375  35.377   8.550
 5375POPC   D2A15292   7.454  35.351   8.250
 5375POPC   C3A15293   7.460  35.348   7.950
 5375POPC   C4A15294   7.439  35.362   7.650
 5375POPC   C1B15295   7.233  35.120   8.550
 5375POPC   C2B15296   7.316  35.170   8.250
 5375POPC   C3B15297   7.232  35.200   7.950
 5375POPC   C4B15298   7.299  35.140   7.650
 5376POPC   NC315299  24.457  35.400   9.450
 5376POPC   PO415300  24.529  35.328   9.150
 5376POPC   GL115301  24.440  35.308   8.850
 5376POPC   GL215302  24.432  35.266   8.850
 5376POPC   C1A15303  24.528  35.395   8.550
 5376POPC   D2A15304  24.510  35.388   8.250
 5376POPC   C3A15305  24.443  35.394   7.950
 5376POPC   C4A15306  24.517  35.386   7.650
 5376POPC   C1B15307  24.267  35.223   8.550
 5376POPC   C2B15308  24.314  35.238   8.250
 5376POPC   C3B15309  24.293  35.170   7.950
 5376POPC   C4B15310  24.310  35.227   7.650
 5377POPC   NC315311  22.942   0.423   9.450
 5377POPC   PO415312  22.910   0.478   9.150
 5377POPC   GL115313  22.941   0.437   8.850
 5377POPC   GL215314  22.904   0.554   8.850
 5377POPC   C1A15315  22.973   0.457   8.550
 5377POPC   D2A15316  22.987   0.430   8.250
 5377POPC   C3A15317  22.943   0.401   7.950
 5377POPC   C4A15318  22.913   0.472   7.650
 5377POPC   C1B15319  22.828   0.687   8.550
 5377POPC   C2B15320  22.830   0.653   8.250
 5377POPC   C3B15321  22.866   0.648   7.950
 5377POPC   C4B15322  22.815   0.654   7.650
 5378POPC   NC315323  21.394  31.477   9.450
 5378POPC   PO415324  21.389  31.444   9.150
 5378POPC   GL115325  21.366  31.448   8.850
 5378POPC   GL215326  21.355  31.368   8.850
 5378POPC   C1A15327  21.370  31.488   8.550
 5378POPC   D2A15328  21.372  31.451   8.250
 5378POPC   C3A15329  21.379  31.477   7.950
 5378POPC   C4A15330  21.425  31.444   7.650
 5378POPC   C1B15331  21.388  31.249   8.550
 5378POPC   C2B15332  21.366  31.199   8.250
 5378POPC   C3B15333  21.381  31.248   7.950
 5378POPC   C4B15334  21.357  31.235   7.650
 5379POPC   NC315335  22.157  22.962   9.450
 5379POPC   PO415336  22.134  22.918   9.150
 5379POPC   GL115337  22.184  22.981   8.850
 5379POPC   GL215338  22.224  23.031   8.850
 5379POPC   C1A15339  22.209  22.923   8.550
 5379POPC   D2A15340  22.179  22.986   8.250
 5379POPC   C3A15341  22.159  22.974   7.950
 5379POPC   C4A15342  22.139  22.947   7.650
 5379POPC   C1B15343  22.388  23.152   8.550
 5379POPC   C2B15344  22.315  23.074   8.250
 5379POPC   C3B15345  22.300  23.078   7.950
 5379POPC   C4B15346  22.320  23.085   7.650
 5380POPC   NC315347  32.226  37.656   9.450
 5380POPC   PO415348  32.270  37.662   9.150
 5380POPC   GL115349  32.293  37.712   8.850
 5380POPC   GL215350  32.365  37.617   8.850
 5380POPC   C1A15351  32.288  37.639   8.550
 5380POPC   D2A15352  32.261  37.662   8.250
 5380POPC   C3A15353  32.254  37.647   7.950
 5380POPC   C4A15354  32.250  37.719   7.650
 5380POPC   C1B15355  32.410  37.464   8.550
 5380POPC   C2B15356  32.445  37.524   8.250
 5380POPC   C3B15357  32.398  37.509   7.950
 5380POPC   C4B15358  32.467  37.538   7.650
 5381POPC   NC315359  39.256  21.376   9.450
 5381POPC   PO415360  39.266  21.370   9.150
 5381POPC   GL115361  39.207  21.393   8.850
 5381POPC   GL215362  39.082  21.318   8.850
 5381POPC   C1A15363  39.264  21.405   8.550
 5381POPC   D2A15364  39.194  21.430   8.250
 5381POPC   C3A15365  39.189  21.376   7.950
 5381POPC   C4A15366  39.209  21.418   7.650
 5381POPC   C1B15367  38.995  21.311   8.550
 5381POPC   C2B15368  39.016  21.307   8.250
 5381POPC   C3B15369  38.999  21.311   7.950
 5381POPC   C4B15370  38.952  21.312   7.650
 5382POPC   NC315371   9.021   1.233   9.450
 5382POPC   PO415372   8.930   1.258   9.150
 5382POPC   GL115373   9.009   1.253   8.850
 5382POPC   GL215374   9.017   1.085   8.850
 5382POPC   C1A15375   9.007   1.177   8.550
 5382POPC   D2A15376   8.968   1.251   8.250
 5382POPC   C3A15377   8.939   1.221   7.950
 5382POPC   C4A15378   9.009   1.197   7.650
 5382POPC   C1B15379   9.044   0.971   8.550
 5382POPC   C2B15380   8.964   0.996   8.250
 5382POPC   C3B15381   9.024   1.000   7.950
 5382POPC   C4B15382   9.040   0.963   7.650
 5383POPC   NC315383  30.717  36.905   9.450
 5383POPC   PO415384  30.734  36.916   9.150
 5383POPC   GL115385  30.664  36.855   8.850
 5383POPC   GL215386  30.743  36.963   8.850
 5383POPC   C1A15387  30.699  36.871   8.550
 5383POPC   D2A15388  30.735  36.865   8.250
 5383POPC   C3A15389  30.738  36.883   7.950
 5383POPC   C4A15390  30.725  36.857   7.650
 5383POPC   C1B15391  30.905  37.099   8.550
 5383POPC   C2B15392  30.878  37.134   8.250
 5383POPC   C3B15393  30.893  37.112   7.950
 5383POPC   C4B15394  30.827  37.063   7.650
 5384POPC   NC315395  43.066  15.193   9.450
 5384POPC   PO415396  43.066  15.148   9.150
 5384POPC   GL115397  43.106  15.193   8.850
 5384POPC   GL215398  43.247  15.274   8.850
 5384POPC   C1A15399  43.127  15.216   8.550
 5384POPC   D2A15400  43.136  15.221   8.250
 5384POPC   C3A15401  43.073  15.157   7.950
 5384POPC   C4A15402  43.108  15.164   7.650
 5384POPC   C1B15403  43.315  15.355   8.550
 5384POPC   C2B15404  43.259  15.345   8.250
 5384POPC   C3B15405  43.330  15.309   7.950
 5384POPC   C4B15406  43.302  15.299   7.650
 5385POPC   NC315407   7.445  10.499   9.450
 5385POPC   PO415408   7.431  10.549   9.150
 5385POPC   GL115409   7.414  10.550   8.850
 5385POPC   GL215410   7.582  10.508   8.850
 5385POPC   C1A15411   7.372  10.486   8.550
 5385POPC   D2A15412   7.421  10.563   8.250
 5385POPC   C3A15413   7.383  10.526   7.950
 5385POPC   C4A15414   7.452  10.555   7.650
 5385POPC   C1B15415   7.627  10.445   8.550
 5385POPC   C2B15416   7.686  10.418   8.250
 5385POPC   C3B15417   7.651  10.469   7.950
 5385POPC   C4B15418   7.703  10.462   7.650
 5386POPC   NC315419  12.818  12.899   9.450
 5386POPC   PO415420  12.819  12.814   9.150
 5386POPC   GL115421  12.863  12.889   8.850
 5386POPC   GL215422  12.733  12.782   8.850
 5386POPC   C1A15423  12.864  12.835   8.550
 5386POPC   D2A15424  12.831  12.883   8.250
 5386POPC   C3A15425  12.896  12.880   7.950
 5386POPC   C4A15426  12.835  12.838   7.650
 5386POPC   C1B15427  12.696  12.661   8.550
 5386POPC   C2B15428  12.671  12.691   8.250
 5386POPC   C3B15429  12.675  12.729   7.950
 5386POPC   C4B15430  12.691  12.743   7.650
 5387POPC   NC315431  25.232  34.613   9.450
 5387POPC   PO415432  25.231  34.573   9.150
 5387POPC   GL115433  25.226  34.602   8.850
 5387POPC   GL215434  25.232  34.458   8.850
 5387POPC   C1A15435  25.314  34.579   8.550
 5387POPC   D2A15436  25.216  34.614   8.250
 5387POPC   C3A15437  25.240  34.581   7.950
 5387POPC   C4A15438  25.299  34.618   7.650
 5387POPC   C1B15439  25.206  34.344   8.550
 5387POPC   C2B15440  25.188  34.306   8.250
 5387POPC   C3B15441  25.227  34.349   7.950
 5387POPC   C4B15442  25.253  34.367   7.650
 5388POPC   NC315443  35.334  26.831   9.450
 5388POPC   PO415444  35.363  26.809   9.150
 5388POPC   GL115445  35.333  26.866   8.850
 5388POPC   GL215446  35.196  26.882   8.850
 5388POPC   C1A15447  35.358  26.776   8.550
 5388POPC   D2A15448  35.345  26.769   8.250
 5388POPC   C3A15449  35.329  26.857   7.950
 5388POPC   C4A15450  35.366  26.800   7.650
 5388POPC   C1B15451  35.109  26.890   8.550
 5388POPC   C2B15452  35.123  26.850   8.250
 5388POPC   C3B15453  35.108  26.815   7.950
 5388POPC   C4B15454  35.064  26.831   7.650
 5389POPC   NC315455  37.723  35.388   9.450
 5389POPC   PO415456  37.711  35.369   9.150
 5389POPC   GL115457  37.671  35.312   8.850
 5389POPC   GL215458  37.637  35.250   8.850
 5389POPC   C1A15459  37.693  35.387   8.550
 5389POPC   D2A15460  37.675  35.334   8.250
 5389POPC   C3A15461  37.666  35.369   7.950
 5389POPC   C4A15462  37.686  35.357   7.650
 5389POPC   C1B15463  37.717  35.075   8.550
 5389POPC   C2B15464  37.662  35.071   8.250
 5389POPC   C3B15465  37.627  35.092   7.950
 5389POPC   C4B15466  37.626  35.092   7.650
 5390POPC   NC315467  16.002  14.380   9.450
 5390POPC   PO415468  16.004  14.400   9.150
 5390POPC   GL115469  15.990  14.438   8.850
 5390POPC   GL215470  16.022  14.506   8.850
 5390POPC   C1A15471  15.985  14.359   8.550
 5390POPC   D2A15472  15.971  14.424   8.250
 5390POPC   C3A15473  15.997  14.370   7.950
 5390POPC   C4A15474  15.954  14.361   7.650
 5390POPC   C1B15475  16.136  14.624   8.550
 5390POPC   C2B15476  16.123  14.585   8.250
 5390POPC   C3B15477  16.071  14.644   7.950
 5390POPC   C4B15478  16.083  14.655   7.650
 5391POPC   NC315479  40.739  22.912   9.450
 5391POPC   PO415480  40.817  22.987   9.150
 5391POPC   GL115481  40.820  22.980   8.850
 5391POPC   GL215482  40.737  22.829   8.850
 5391POPC   C1A15483  40.815  22.933   8.550
 5391POPC   D2A15484  40.811  22.958   8.250
 5391POPC   C3A15485  40.755  22.937   7.950
 5391POPC   C4A15486  40.752  22.973   7.650
 5391POPC   C1B15487  40.644  22.705   8.550
 5391POPC   C2B15488  40.604  22.759   8.250
 5391POPC   C3B15489  40.692  22.695   7.950
 5391POPC   C4B15490  40.655  22.688   7.650
 5392POPC   NC315491  33.036   1.972   9.450
 5392POPC   PO415492  32.994   1.983   9.150
 5392POPC   GL115493  32.998   1.951   8.850
 5392POPC   GL215494  33.103   1.955   8.850
 5392POPC   C1A15495  33.004   1.961   8.550
 5392POPC   D2A15496  33.007   1.992   8.250
 5392POPC   C3A15497  32.999   2.037   7.950
 5392POPC   C4A15498  33.045   2.013   7.650
 5392POPC   C1B15499  33.305   1.983   8.550
 5392POPC   C2B15500  33.258   1.903   8.250
 5392POPC   C3B15501  33.305   1.988   7.950
 5392POPC   C4B15502  33.254   1.941   7.650
 5393POPC   NC315503  38.499  24.443   9.450
 5393POPC   PO415504  38.417  24.498   9.150
 5393POPC   GL115505  38.481  24.535   8.850
 5393POPC   GL215506  38.393  24.430   8.850
 5393POPC   C1A15507  38.413  24.490   8.550
 5393POPC   D2A15508  38.435  24.453   8.250
 5393POPC   C3A15509  38.424  24.498   7.950
 5393POPC   C4A15510  38.457  24.469   7.650
 5393POPC   C1B15511  38.356  24.300   8.550
 5393POPC   C2B15512  38.295  24.265   8.250
 5393POPC   C3B15513  38.348  24.324   7.950
 5393POPC   C4B15514  38.320  24.274   7.650
 5394POPC   NC315515  31.482  29.960   9.450
 5394POPC   PO415516  31.514  29.891   9.150
 5394POPC   GL115517  31.468  29.956   8.850
 5394POPC   GL215518  31.545  30.023   8.850
 5394POPC   C1A15519  31.447  29.875   8.550
 5394POPC   D2A15520  31.491  29.944   8.250
 5394POPC   C3A15521  31.500  29.873   7.950
 5394POPC   C4A15522  31.431  29.939   7.650
 5394POPC   C1B15523  31.659  30.143   8.550
 5394POPC   C2B15524  31.624  30.101   8.250
 5394POPC   C3B15525  31.655  30.108   7.950
 5394POPC   C4B15526  31.663  30.135   7.650
 5395POPC   NC315527   7.392  36.131   9.450
 5395POPC   PO415528   7.381  36.173   9.150
 5395POPC   GL115529   7.463  36.148   8.850
 5395POPC   GL215530   7.527  35.996   8.850
 5395POPC   C1A15531   7.392  36.171   8.550
 5395POPC   D2A15532   7.438  36.118   8.250
 5395POPC   C3A15533   7.456  36.163   7.950
 5395POPC   C4A15534   7.381  36.143   7.650
 5395POPC   C1B15535   7.572  35.941   8.550
 5395POPC   C2B15536   7.528  35.954   8.250
 5395POPC   C3B15537   7.606  35.898   7.950
 5395POPC   C4B15538   7.541  35.904   7.650
 5396POPC   NC315539  36.161   5.058   9.450
 5396POPC   PO415540  36.082   5.143   9.150
 5396POPC   GL115541  36.125   5.066   8.850
 5396POPC   GL215542  36.149   5.237   8.850
 5396POPC   C1A15543  36.151   5.109   8.550
 5396POPC   D2A15544  36.158   5.115   8.250
 5396POPC   C3A15545  36.097   5.045   7.950
 5396POPC   C4A15546  36.127   5.143   7.650
 5396POPC   C1B15547  36.131   5.321   8.550
 5396POPC   C2B15548  36.149   5.328   8.250
 5396POPC   C3B15549  36.124   5.326   7.950
 5396POPC   C4B15550  36.144   5.388   7.650
 5397POPC   NC315551  35.328  23.718   9.450
 5397POPC   PO415552  35.345  23.722   9.150
 5397POPC   GL115553  35.357  23.673   8.850
 5397POPC   GL215554  35.230  23.824   8.850
 5397POPC   C1A15555  35.324  23.685   8.550
 5397POPC   D2A15556  35.383  23.730   8.250
 5397POPC   C3A15557  35.380  23.667   7.950
 5397POPC   C4A15558  35.387  23.755   7.650
 5397POPC   C1B15559  35.211  23.961   8.550
 5397POPC   C2B15560  35.203  23.898   8.250
 5397POPC   C3B15561  35.218  23.939   7.950
 5397POPC   C4B15562  35.176  23.893   7.650
 5398POPC   NC315563  33.753  16.733   9.450
 5398POPC   PO415564  33.788  16.742   9.150
 5398POPC   GL115565  33.797  16.755   8.850
 5398POPC   GL215566  33.862  16.688   8.850
 5398POPC   C1A15567  33.817  16.699   8.550
 5398POPC   D2A15568  33.830  16.709   8.250
 5398POPC   C3A15569  33.805  16.758   7.950
 5398POPC   C4A15570  33.822  16.726   7.650
 5398POPC   C1B15571  34.036  16.585   8.550
 5398POPC   C2B15572  34.002  16.602   8.250
 5398POPC   C3B15573  34.047  16.652   7.950
 5398POPC   C4B15574  34.001  16.604   7.650
 5399POPC   NC315575  31.457  32.207   9.450
 5399POPC   PO415576  31.452  32.256   9.150
 5399POPC   GL115577  31.469  32.242   8.850
 5399POPC   GL215578  31.564  32.223   8.850
 5399POPC   C1A15579  31.427  32.204   8.550
 5399POPC   D2A15580  31.502  32.257   8.250
 5399POPC   C3A15581  31.456  32.236   7.950
 5399POPC   C4A15582  31.483  32.272   7.650
 5399POPC   C1B15583  31.719  32.287   8.550
 5399POPC   C2B15584  31.706  32.306   8.250
 5399POPC   C3B15585  31.746  32.248   7.950
 5399POPC   C4B15586  31.688  32.247   7.650
 5400POPC   NC315587  36.140  41.525   9.450
 5400POPC   PO415588  36.094  41.589   9.150
 5400POPC   GL115589  36.155  41.551   8.850
 5400POPC   GL215590  36.158  41.404   8.850
 5400POPC   C1A15591  36.158  41.540   8.550
 5400POPC   D2A15592  36.131  41.581   8.250
 5400POPC   C3A15593  36.164  41.544   7.950
 5400POPC   C4A15594  36.085  41.579   7.650
 5400POPC   C1B15595  36.249  41.371   8.550
 5400POPC   C2B15596  36.235  41.283   8.250
 5400POPC   C3B15597  36.273  41.343   7.950
 5400POPC   C4B15598  36.267  41.378   7.650
 5401POPC   NC315599  38.440  10.499   9.450
 5401POPC   PO415600  38.426  10.503   9.150
 5401POPC   GL115601  38.431  10.475   8.850
 5401POPC   GL215602  38.592  10.453   8.850
 5401POPC   C1A15603  38.496  10.476   8.550
 5401POPC   D2A15604  38.497  10.487   8.250
 5401POPC   C3A15605  38.456  10.564   7.950
 5401POPC   C4A15606  38.445  10.559   7.650
 5401POPC   C1B15607  38.737  10.476   8.550
 5401POPC   C2B15608  38.656  10.498   8.250
 5401POPC   C3B15609  38.697  10.456   7.950
 5401POPC   C4B15610  38.654  10.496   7.650
 5402POPC   NC315611  39.208  19.021   9.450
 5402POPC   PO415612  39.266  19.100   9.150
 5402POPC   GL115613  39.224  19.083   8.850
 5402POPC   GL215614  39.111  19.141   8.850
 5402POPC   C1A15615  39.199  19.099   8.550
 5402POPC   D2A15616  39.268  19.073   8.250
 5402POPC   C3A15617  39.197  19.069   7.950
 5402POPC   C4A15618  39.263  19.009   7.650
 5402POPC   C1B15619  39.075  19.240   8.550
 5402POPC   C2B15620  39.088  19.285   8.250
 5402POPC   C3B15621  39.084  19.268   7.950
 5402POPC   C4B15622  39.023  19.248   7.650
 5403POPC   NC315623  13.602  31.509   9.450
 5403POPC   PO415624  13.647  31.426   9.150
 5403POPC   GL115625  13.665  31.456   8.850
 5403POPC   GL215626  13.510  31.506   8.850
 5403POPC   C1A15627  13.638  31.477   8.550
 5403POPC   D2A15628  13.620  31.463   8.250
 5403POPC   C3A15629  13.634  31.517   7.950
 5403POPC   C4A15630  13.657  31.508   7.650
 5403POPC   C1B15631  13.446  31.642   8.550
 5403POPC   C2B15632  13.398  31.611   8.250
 5403POPC   C3B15633  13.399  31.641   7.950
 5403POPC   C4B15634  13.389  31.615   7.650
 5404POPC   NC315635  33.014   6.611   9.450
 5404POPC   PO415636  33.048   6.658   9.150
 5404POPC   GL115637  32.993   6.642   8.850
 5404POPC   GL215638  32.902   6.526   8.850
 5404POPC   C1A15639  33.027   6.631   8.550
 5404POPC   D2A15640  33.029   6.684   8.250
 5404POPC   C3A15641  33.017   6.676   7.950
 5404POPC   C4A15642  32.996   6.628   7.650
 5404POPC   C1B15643  32.824   6.447   8.550
 5404POPC   C2B15644  32.876   6.440   8.250
 5404POPC   C3B15645  32.838   6.445   7.950
 5404POPC   C4B15646  32.878   6.430   7.650
 5405POPC   NC315647  15.931   3.566   9.450
 5405POPC   PO415648  15.954   3.498   9.150
 5405POPC   GL115649  15.975   3.567   8.850
 5405POPC   GL215650  15.786   3.541   8.850
 5405POPC   C1A15651  16.000   3.522   8.550
 5405POPC   D2A15652  15.975   3.556   8.250
 5405POPC   C3A15653  15.921   3.561   7.950
 5405POPC   C4A15654  15.926   3.519   7.650
 5405POPC   C1B15655  15.715   3.582   8.550
 5405POPC   C2B15656  15.683   3.581   8.250
 5405POPC   C3B15657  15.722   3.611   7.950
 5405POPC   C4B15658  15.721   3.547   7.650
 5406POPC   NC315659  11.298  32.233   9.450
 5406POPC   PO415660  11.269  32.289   9.150
 5406POPC   GL115661  11.279  32.205   8.850
 5406POPC   GL215662  11.455  32.302   8.850
 5406POPC   C1A15663  11.299  32.219   8.550
 5406POPC   D2A15664  11.301  32.271   8.250
 5406POPC   C3A15665  11.282  32.214   7.950
 5406POPC   C4A15666  11.336  32.210   7.650
 5406POPC   C1B15667  11.546  32.300   8.550
 5406POPC   C2B15668  11.535  32.266   8.250
 5406POPC   C3B15669  11.502  32.298   7.950
 5406POPC   C4B15670  11.508  32.331   7.650
 5407POPC   NC315671  36.870  33.012   9.450
 5407POPC   PO415672  36.878  32.979   9.150
 5407POPC   GL115673  36.878  33.036   8.850
 5407POPC   GL215674  36.871  32.946   8.850
 5407POPC   C1A15675  36.926  32.985   8.550
 5407POPC   D2A15676  36.948  33.030   8.250
 5407POPC   C3A15677  36.922  33.058   7.950
 5407POPC   C4A15678  36.864  33.019   7.650
 5407POPC   C1B15679  36.866  32.775   8.550
 5407POPC   C2B15680  36.876  32.739   8.250
 5407POPC   C3B15681  36.873  32.750   7.950
 5407POPC   C4B15682  36.893  32.782   7.650
 5408POPC   NC315683  12.847   0.462   9.450
 5408POPC   PO415684  12.885   0.411   9.150
 5408POPC   GL115685  12.804   0.391   8.850
 5408POPC   GL215686  12.975   0.388   8.850
 5408POPC   C1A15687  12.847   0.421   8.550
 5408POPC   D2A15688  12.842   0.427   8.250
 5408POPC   C3A15689  12.837   0.418   7.950
 5408POPC   C4A15690  12.902   0.440   7.650
 5408POPC   C1B15691  13.097   0.362   8.550
 5408POPC   C2B15692  13.027   0.297   8.250
 5408POPC   C3B15693  13.112   0.294   7.950
 5408POPC   C4B15694  13.108   0.281   7.650
 5409POPC   NC315695  11.338  27.607   9.450
 5409POPC   PO415696  11.315  27.594   9.150
 5409POPC   GL115697  11.286  27.616   8.850
 5409POPC   GL215698  11.450  27.577   8.850
 5409POPC   C1A15699  11.331  27.612   8.550
 5409POPC   D2A15700  11.263  27.607   8.250
 5409POPC   C3A15701  11.327  27.617   7.950
 5409POPC   C4A15702  11.326  27.627   7.650
 5409POPC   C1B15703  11.509  27.585   8.550
 5409POPC   C2B15704  11.504  27.673   8.250
 5409POPC   C3B15705  11.583  27.638   7.950
 5409POPC   C4B15706  11.579  27.639   7.650
 5410POPC   NC315707  43.924  12.074   9.450
 5410POPC   PO415708  43.884  12.111   9.150
 5410POPC   GL115709  43.842  12.084   8.850
 5410POPC   GL215710  43.975  12.233   8.850
 5410POPC   C1A15711  43.905  12.091   8.550
 5410POPC   D2A15712  43.863  12.116   8.250
 5410POPC   C3A15713  43.871  12.061   7.950
 5410POPC   C4A15714  43.924  12.043   7.650
 5410POPC   C1B15715  43.976  12.277   8.550
 5410POPC   C2B15716  44.001  12.315   8.250
 5410POPC   C3B15717  44.025  12.252   7.950
 5410POPC   C4B15718  44.002  12.272   7.650
 5411POPC   NC315719   5.087  29.144   9.450
 5411POPC   PO415720   5.077  29.152   9.150
 5411POPC   GL115721   5.048  29.193   8.850
 5411POPC   GL215722   5.189  29.090   8.850
 5411POPC   C1A15723   5.129  29.188   8.550
 5411POPC   D2A15724   5.106  29.113   8.250
 5411POPC   C3A15725   5.120  29.157   7.950
 5411POPC   C4A15726   5.076  29.121   7.650
 5411POPC   C1B15727   5.317  29.097   8.550
 5411POPC   C2B15728   5.381  29.157   8.250
 5411POPC   C3B15729   5.331  29.171   7.950
 5411POPC   C4B15730   5.336  29.156   7.650
 5412POPC   NC315731   0.397   5.894   9.450
 5412POPC   PO415732   0.416   5.875   9.150
 5412POPC   GL115733   0.420   5.890   8.850
 5412POPC   GL215734   0.504   5.728   8.850
 5412POPC   C1A15735   0.483   5.869   8.550
 5412POPC   D2A15736   0.454   5.822   8.250
 5412POPC   C3A15737   0.392   5.820   7.950
 5412POPC   C4A15738   0.430   5.915   7.650
 5412POPC   C1B15739   0.528   5.674   8.550
 5412POPC   C2B15740   0.491   5.656   8.250
 5412POPC   C3B15741   0.495   5.669   7.950
 5412POPC   C4B15742   0.584   5.614   7.650
 5413POPC   NC315743  34.530  31.497   9.450
 5413POPC   PO415744  34.577  31.437   9.150
 5413POPC   GL115745  34.528  31.483   8.850
 5413POPC   GL215746  34.668  31.513   8.850
 5413POPC   C1A15747  34.589  31.500   8.550
 5413POPC   D2A15748  34.575  31.470   8.250
 5413POPC   C3A15749  34.531  31.425   7.950
 5413POPC   C4A15750  34.605  31.475   7.650
 5413POPC   C1B15751  34.708  31.625   8.550
 5413POPC   C2B15752  34.795  31.657   8.250
 5413POPC   C3B15753  34.747  31.638   7.950
 5413POPC   C4B15754  34.741  31.662   7.650
 5414POPC   NC315755  43.153  26.032   9.450
 5414POPC   PO415756  43.117  26.037   9.150
 5414POPC   GL115757  43.110  26.022   8.850
 5414POPC   GL215758  43.251  26.095   8.850
 5414POPC   C1A15759  43.066  26.054   8.550
 5414POPC   D2A15760  43.119  26.012   8.250
 5414POPC   C3A15761  43.159  26.073   7.950
 5414POPC   C4A15762  43.100  26.026   7.650
 5414POPC   C1B15763  43.357  26.156   8.550
 5414POPC   C2B15764  43.360  26.118   8.250
 5414POPC   C3B15765  43.345  26.129   7.950
 5414POPC   C4B15766  43.321  26.162   7.650
 5415POPC   NC315767  10.526  40.786   9.450
 5415POPC   PO415768  10.537  40.786   9.150
 5415POPC   GL115769  10.508  40.769   8.850
 5415POPC   GL215770  10.449  40.703   8.850
 5415POPC   C1A15771  10.540  40.823   8.550
 5415POPC   D2A15772  10.479  40.769   8.250
 5415POPC   C3A15773  10.504  40.775   7.950
 5415POPC   C4A15774  10.562  40.784   7.650
 5415POPC   C1B15775  10.476  40.537   8.550
 5415POPC   C2B15776  10.403  40.562   8.250
 5415POPC   C3B15777  10.430  40.579   7.950
 5415POPC   C4B15778  10.451  40.570   7.650
 5416POPC   NC315779  44.697  42.315   9.450
 5416POPC   PO415780  44.690  42.314   9.150
 5416POPC   GL115781  44.640  42.314   8.850
 5416POPC   GL215782  44.741  42.205   8.850
 5416POPC   C1A15783  44.674  42.291   8.550
 5416POPC   D2A15784  44.678  42.363   8.250
 5416POPC   C3A15785  44.704  42.340   7.950
 5416POPC   C4A15786  44.709  42.367   7.650
 5416POPC   C1B15787  44.761  42.069   8.550
 5416POPC   C2B15788  44.708  42.130   8.250
 5416POPC   C3B15789  44.687  42.072   7.950
 5416POPC   C4B15790  44.734  42.139   7.650
 5417POPC   NC315791  42.377  27.612   9.450
 5417POPC   PO415792  42.354  27.591   9.150
 5417POPC   GL115793  42.377  27.628   8.850
 5417POPC   GL215794  42.405  27.488   8.850
 5417POPC   C1A15795  42.376  27.634   8.550
 5417POPC   D2A15796  42.351  27.628   8.250
 5417POPC   C3A15797  42.329  27.558   7.950
 5417POPC   C4A15798  42.343  27.578   7.650
 5417POPC   C1B15799  42.474  27.359   8.550
 5417POPC   C2B15800  42.460  27.417   8.250
 5417POPC   C3B15801  42.481  27.353   7.950
 5417POPC   C4B15802  42.440  27.375   7.650
 5418POPC   NC315803   3.514  43.155   9.450
 5418POPC   PO415804   3.580  43.081   9.150
 5418POPC   GL115805   3.560  43.070   8.850
 5418POPC   GL215806   3.501  43.032   8.850
 5418POPC   C1A15807   3.514  43.099   8.550
 5418POPC   D2A15808   3.502  43.097   8.250
 5418POPC   C3A15809   3.530  43.151   7.950
 5418POPC   C4A15810   3.542  43.141   7.650
 5418POPC   C1B15811   3.482  42.909   8.550
 5418POPC   C2B15812   3.423  42.925   8.250
 5418POPC   C3B15813   3.452  42.909   7.950
 5418POPC   C4B15814   3.438  42.837   7.650
 5419POPC   NC315815   1.255  33.763   9.450
 5419POPC   PO415816   1.184  33.786   9.150
 5419POPC   GL115817   1.253  33.802   8.850
 5419POPC   GL215818   1.228  33.874   8.850
 5419POPC   C1A15819   1.210  33.807   8.550
 5419POPC   D2A15820   1.232  33.836   8.250
 5419POPC   C3A15821   1.262  33.818   7.950
 5419POPC   C4A15822   1.247  33.797   7.650
 5419POPC   C1B15823   1.222  34.012   8.550
 5419POPC   C2B15824   1.276  34.028   8.250
 5419POPC   C3B15825   1.228  34.023   7.950
 5419POPC   C4B15826   1.256  34.053   7.650
 5420POPC   NC315827  12.080  41.557   9.450
 5420POPC   PO415828  12.083  41.602   9.150
 5420POPC   GL115829  12.080  41.559   8.850
 5420POPC   GL215830  12.088  41.706   8.850
 5420POPC   C1A15831  12.104  41.510   8.550
 5420POPC   D2A15832  12.122  41.536   8.250
 5420POPC   C3A15833  12.101  41.553   7.950
 5420POPC   C4A15834  12.063  41.555   7.650
 5420POPC   C1B15835  12.179  41.820   8.550
 5420POPC   C2B15836  12.138  41.752   8.250
 5420POPC   C3B15837  12.186  41.760   7.950
 5420POPC   C4B15838  12.176  41.789   7.650
 5421POPC   NC315839  12.842  19.039   9.450
 5421POPC   PO415840  12.869  19.068   9.150
 5421POPC   GL115841  12.843  19.032   8.850
 5421POPC   GL215842  12.941  19.076   8.850
 5421POPC   C1A15843  12.851  19.049   8.550
 5421POPC   D2A15844  12.827  19.080   8.250
 5421POPC   C3A15845  12.837  19.014   7.950
 5421POPC   C4A15846  12.855  19.089   7.650
 5421POPC   C1B15847  13.131  19.113   8.550
 5421POPC   C2B15848  13.086  19.074   8.250
 5421POPC   C3B15849  13.091  19.090   7.950
 5421POPC   C4B15850  13.142  19.083   7.650
 5422POPC   NC315851  10.482  17.537   9.450
 5422POPC   PO415852  10.508  17.474   9.150
 5422POPC   GL115853  10.506  17.554   8.850
 5422POPC   GL215854  10.442  17.430   8.850
 5422POPC   C1A15855  10.482  17.461   8.550
 5422POPC   D2A15856  10.552  17.524   8.250
 5422POPC   C3A15857  10.553  17.513   7.950
 5422POPC   C4A15858  10.507  17.549   7.650
 5422POPC   C1B15859  10.328  17.367   8.550
 5422POPC   C2B15860  10.291  17.354   8.250
 5422POPC   C3B15861  10.364  17.385   7.950
 5422POPC   C4B15862  10.288  17.357   7.650
 5423POPC   NC315863  29.958  14.449   9.450
 5423POPC   PO415864  29.950  14.452   9.150
 5423POPC   GL115865  29.966  14.430   8.850
 5423POPC   GL215866  30.027  14.484   8.850
 5423POPC   C1A15867  29.952  14.407   8.550
 5423POPC   D2A15868  29.947  14.402   8.250
 5423POPC   C3A15869  29.968  14.412   7.950
 5423POPC   C4A15870  29.907  14.448   7.650
 5423POPC   C1B15871  30.085  14.536   8.550
 5423POPC   C2B15872  30.170  14.527   8.250
 5423POPC   C3B15873  30.165  14.513   7.950
 5423POPC   C4B15874  30.154  14.524   7.650
 5424POPC   NC315875  16.703  14.427   9.450
 5424POPC   PO415876  16.751  14.405   9.150
 5424POPC   GL115877  16.733  14.392   8.850
 5424POPC   GL215878  16.808  14.352   8.850
 5424POPC   C1A15879  16.697  14.406   8.550
 5424POPC   D2A15880  16.744  14.392   8.250
 5424POPC   C3A15881  16.722  14.387   7.950
 5424POPC   C4A15882  16.761  14.434   7.650
 5424POPC   C1B15883  16.929  14.336   8.550
 5424POPC   C2B15884  16.988  14.275   8.250
 5424POPC   C3B15885  16.948  14.360   7.950
 5424POPC   C4B15886  16.956  14.299   7.650
 5425POPC   NC315887  41.515  20.585   9.450
 5425POPC   PO415888  41.583  20.651   9.150
 5425POPC   GL115889  41.571  20.641   8.850
 5425POPC   GL215890  41.593  20.466   8.850
 5425POPC   C1A15891  41.544  20.591   8.550
 5425POPC   D2A15892  41.569  20.623   8.250
 5425POPC   C3A15893  41.592  20.633   7.950
 5425POPC   C4A15894  41.601  20.622   7.650
 5425POPC   C1B15895  41.644  20.434   8.550
 5425POPC   C2B15896  41.646  20.386   8.250
 5425POPC   C3B15897  41.707  20.368   7.950
 5425POPC   C4B15898  41.680  20.410   7.650
 5426POPC   NC315899  39.264  23.720   9.450
 5426POPC   PO415900  39.191  23.693   9.150
 5426POPC   GL115901  39.192  23.666   8.850
 5426POPC   GL215902  39.129  23.622   8.850
 5426POPC   C1A15903  39.240  23.745   8.550
 5426POPC   D2A15904  39.229  23.674   8.250
 5426POPC   C3A15905  39.203  23.665   7.950
 5426POPC   C4A15906  39.271  23.734   7.650
 5426POPC   C1B15907  39.087  23.483   8.550
 5426POPC   C2B15908  39.122  23.530   8.250
 5426POPC   C3B15909  39.061  23.471   7.950
 5426POPC   C4B15910  39.128  23.506   7.650
 5427POPC   NC315911   4.319  38.438   9.450
 5427POPC   PO415912   4.289  38.427   9.150
 5427POPC   GL115913   4.347  38.461   8.850
 5427POPC   GL215914   4.407  38.493   8.850
 5427POPC   C1A15915   4.316  38.432   8.550
 5427POPC   D2A15916   4.360  38.479   8.250
 5427POPC   C3A15917   4.343  38.434   7.950
 5427POPC   C4A15918   4.307  38.501   7.650
 5427POPC   C1B15919   4.614  38.382   8.550
 5427POPC   C2B15920   4.540  38.391   8.250
 5427POPC   C3B15921   4.575  38.440   7.950
 5427POPC   C4B15922   4.561  38.446   7.650
 5428POPC   NC315923  40.784  14.400   9.450
 5428POPC   PO415924  40.828  14.370   9.150
 5428POPC   GL115925  40.820  14.397   8.850
 5428POPC   GL215926  40.815  14.316   8.850
 5428POPC   C1A15927  40.822  14.389   8.550
 5428POPC   D2A15928  40.802  14.387   8.250
 5428POPC   C3A15929  40.751  14.376   7.950
 5428POPC   C4A15930  40.752  14.445   7.650
 5428POPC   C1B15931  40.819  14.140   8.550
 5428POPC   C2B15932  40.820  14.139   8.250
 5428POPC   C3B15933  40.853  14.114   7.950
 5428POPC   C4B15934  40.798  14.160   7.650
 5429POPC   NC315935  29.962  11.293   9.450
 5429POPC   PO415936  29.951  11.313   9.150
 5429POPC   GL115937  29.946  11.269   8.850
 5429POPC   GL215938  29.996  11.336   8.850
 5429POPC   C1A15939  29.895  11.319   8.550
 5429POPC   D2A15940  29.882  11.331   8.250
 5429POPC   C3A15941  29.967  11.307   7.950
 5429POPC   C4A15942  29.908  11.272   7.650
 5429POPC   C1B15943  30.140  11.361   8.550
 5429POPC   C2B15944  30.169  11.328   8.250
 5429POPC   C3B15945  30.179  11.341   7.950
 5429POPC   C4B15946  30.128  11.357   7.650
 5430POPC   NC315947  39.979   9.740   9.450
 5430POPC   PO415948  40.005   9.733   9.150
 5430POPC   GL115949  40.018   9.712   8.850
 5430POPC   GL215950  39.880   9.747   8.850
 5430POPC   C1A15951  40.052   9.721   8.550
 5430POPC   D2A15952  40.027   9.771   8.250
 5430POPC   C3A15953  39.986   9.757   7.950
 5430POPC   C4A15954  39.969   9.766   7.650
 5430POPC   C1B15955  39.782   9.680   8.550
 5430POPC   C2B15956  39.793   9.723   8.250
 5430POPC   C3B15957  39.800   9.755   7.950
 5430POPC   C4B15958  39.737   9.689   7.650
 5431POPC   NC315959   2.778   1.960   9.450
 5431POPC   PO415960   2.769   2.004   9.150
 5431POPC   GL115961   2.733   1.983   8.850
 5431POPC   GL215962   2.806   2.083   8.850
 5431POPC   C1A15963   2.741   2.003   8.550
 5431POPC   D2A15964   2.732   1.952   8.250
 5431POPC   C3A15965   2.780   2.005   7.950
 5431POPC   C4A15966   2.734   2.001   7.650
 5431POPC   C1B15967   2.750   2.231   8.550
 5431POPC   C2B15968   2.746   2.259   8.250
 5431POPC   C3B15969   2.732   2.276   7.950
 5431POPC   C4B15970   2.749   2.195   7.650
 5432POPC   NC315971  26.834  13.642   9.450
 5432POPC   PO415972  26.862  13.610   9.150
 5432POPC   GL115973  26.791  13.662   8.850
 5432POPC   GL215974  26.733  13.549   8.850
 5432POPC   C1A15975  26.823  13.636   8.550
 5432POPC   D2A15976  26.790  13.665   8.250
 5432POPC   C3A15977  26.774  13.598   7.950
 5432POPC   C4A15978  26.799  13.666   7.650
 5432POPC   C1B15979  26.682  13.472   8.550
 5432POPC   C2B15980  26.653  13.499   8.250
 5432POPC   C3B15981  26.615  13.458   7.950
 5432POPC   C4B15982  26.665  13.472   7.650
 5433POPC   NC315983   7.414   1.232   9.450
 5433POPC   PO415984   7.465   1.206   9.150
 5433POPC   GL115985   7.407   1.229   8.850
 5433POPC   GL215986   7.354   1.066   8.850
 5433POPC   C1A15987   7.373   1.199   8.550
 5433POPC   D2A15988   7.394   1.181   8.250
 5433POPC   C3A15989   7.386   1.168   7.950
 5433POPC   C4A15990   7.463   1.181   7.650
 5433POPC   C1B15991   7.305   0.961   8.550
 5433POPC   C2B15992   7.287   0.997   8.250
 5433POPC   C3B15993   7.287   0.951   7.950
 5433POPC   C4B15994   7.356   0.984   7.650
 5434POPC   NC315995  29.937   1.996   9.450
 5434POPC   PO415996  29.907   1.946   9.150
 5434POPC   GL115997  29.877   1.970   8.850
 5434POPC   GL215998  30.058   1.861   8.850
 5434POPC   C1A15999  29.906   2.019   8.550
 5434POPC   D2A16000  29.916   1.989   8.250
 5434POPC   C3A16001  29.878   2.033   7.950
 5434POPC   C4A16002  29.918   2.024   7.650
 5434POPC   C1B16003  30.124   1.856   8.550
 5434POPC   C2B16004  30.112   1.871   8.250
 5434POPC   C3B16005  30.082   1.799   7.950
 5434POPC   C4B16006  30.115   1.828   7.650
 5435POPC   NC316007   0.417  24.449   9.450
 5435POPC   PO416008   0.401  24.490   9.150
 5435POPC   GL116009   0.407  24.456   8.850
 5435POPC   GL216010   0.522  24.351   8.850
 5435POPC   C1A16011   0.438  24.444   8.550
 5435POPC   D2A16012   0.458  24.468   8.250
 5435POPC   C3A16013   0.419  24.474   7.950
 5435POPC   C4A16014   0.452  24.467   7.650
 5435POPC   C1B16015   0.492  24.251   8.550
 5435POPC   C2B16016   0.580  24.281   8.250
 5435POPC   C3B16017   0.562  24.236   7.950
 5435POPC   C4B16018   0.569  24.225   7.650
 5436POPC   NC316019   9.739  14.373   9.450
 5436POPC   PO416020   9.706  14.365   9.150
 5436POPC   GL116021   9.790  14.406   8.850
 5436POPC   GL216022   9.827  14.572   8.850
 5436POPC   C1A16023   9.778  14.423   8.550
 5436POPC   D2A16024   9.700  14.390   8.250
 5436POPC   C3A16025   9.745  14.361   7.950
 5436POPC   C4A16026   9.718  14.405   7.650
 5436POPC   C1B16027   9.774  14.659   8.550
 5436POPC   C2B16028   9.786  14.620   8.250
 5436POPC   C3B16029   9.849  14.670   7.950
 5436POPC   C4B16030   9.818  14.644   7.650
 5437POPC   NC316031  18.323  34.608   9.450
 5437POPC   PO416032  18.253  34.578   9.150
 5437POPC   GL116033  18.325  34.577   8.850
 5437POPC   GL216034  18.298  34.409   8.850
 5437POPC   C1A16035  18.280  34.546   8.550
 5437POPC   D2A16036  18.254  34.613   8.250
 5437POPC   C3A16037  18.235  34.551   7.950
 5437POPC   C4A16038  18.319  34.542   7.650
 5437POPC   C1B16039  18.376  34.295   8.550
 5437POPC   C2B16040  18.345  34.306   8.250
 5437POPC   C3B16041  18.387  34.378   7.950
 5437POPC   C4B16042  18.347  34.339   7.650
 5438POPC   NC316043  43.918  17.489   9.450
 5438POPC   PO416044  43.910  17.516   9.150
 5438POPC   GL116045  43.911  17.510   8.850
 5438POPC   GL216046  44.022  17.537   8.850
 5438POPC   C1A16047  43.867  17.553   8.550
 5438POPC   D2A16048  43.837  17.467   8.250
 5438POPC   C3A16049  43.932  17.506   7.950
 5438POPC   C4A16050  43.931  17.538   7.650
 5438POPC   C1B16051  44.078  17.630   8.550
 5438POPC   C2B16052  44.113  17.623   8.250
 5438POPC   C3B16053  44.151  17.638   7.950
 5438POPC   C4B16054  44.133  17.621   7.650
 5439POPC   NC316055  12.124   4.305   9.450
 5439POPC   PO416056  12.055   4.325   9.150
 5439POPC   GL116057  12.052   4.337   8.850
 5439POPC   GL216058  12.015   4.265   8.850
 5439POPC   C1A16059  12.117   4.346   8.550
 5439POPC   D2A16060  12.061   4.357   8.250
 5439POPC   C3A16061  12.075   4.361   7.950
 5439POPC   C4A16062  12.055   4.317   7.650
 5439POPC   C1B16063  11.976   4.065   8.550
 5439POPC   C2B16064  11.928   4.155   8.250
 5439POPC   C3B16065  11.894   4.088   7.950
 5439POPC   C4B16066  11.895   4.121   7.650
 5440POPC   NC316067  17.475  34.552   9.450
 5440POPC   PO416068  17.500  34.561   9.150
 5440POPC   GL116069  17.460  34.536   8.850
 5440POPC   GL216070  17.559  34.690   8.850
 5440POPC   C1A16071  17.553  34.604   8.550
 5440POPC   D2A16072  17.492  34.545   8.250
 5440POPC   C3A16073  17.551  34.539   7.950
 5440POPC   C4A16074  17.551  34.592   7.650
 5440POPC   C1B16075  17.721  34.749   8.550
 5440POPC   C2B16076  17.710  34.719   8.250
 5440POPC   C3B16077  17.655  34.708   7.950
 5440POPC   C4B16078  17.714  34.802   7.650
 5441POPC   NC316079  42.298  19.056   9.450
 5441POPC   PO416080  42.365  19.058   9.150
 5441POPC   GL116081  42.289  19.077   8.850
 5441POPC   GL216082  42.293  19.128   8.850
 5441POPC   C1A16083  42.334  19.016   8.550
 5441POPC   D2A16084  42.378  19.026   8.250
 5441POPC   C3A16085  42.304  19.075   7.950
 5441POPC   C4A16086  42.306  19.023   7.650
 5441POPC   C1B16087  42.285  19.253   8.550
 5441POPC   C2B16088  42.242  19.259   8.250
 5441POPC   C3B16089  42.252  19.332   7.950
 5441POPC   C4B16090  42.241  19.317   7.650
 5442POPC   NC316091  21.352   1.220   9.450
 5442POPC   PO416092  21.395   1.239   9.150
 5442POPC   GL116093  21.342   1.235   8.850
 5442POPC   GL216094  21.463   1.366   8.850
 5442POPC   C1A16095  21.422   1.223   8.550
 5442POPC   D2A16096  21.399   1.208   8.250
 5442POPC   C3A16097  21.399   1.225   7.950
 5442POPC   C4A16098  21.370   1.253   7.650
 5442POPC   C1B16099  21.507   1.426   8.550
 5442POPC   C2B16100  21.498   1.420   8.250
 5442POPC   C3B16101  21.457   1.410   7.950
 5442POPC   C4B16102  21.491   1.434   7.650
 5443POPC   NC316103   1.246  33.062   9.450
 5443POPC   PO416104   1.188  33.011   9.150
 5443POPC   GL116105   1.206  32.999   8.850
 5443POPC   GL216106   1.298  32.907   8.850
 5443POPC   C1A16107   1.231  33.028   8.550
 5443POPC   D2A16108   1.258  33.018   8.250
 5443POPC   C3A16109   1.242  33.013   7.950
 5443POPC   C4A16110   1.189  33.046   7.650
 5443POPC   C1B16111   1.359  32.831   8.550
 5443POPC   C2B16112   1.299  32.836   8.250
 5443POPC   C3B16113   1.297  32.826   7.950
 5443POPC   C4B16114   1.289  32.763   7.650
 5444POPC   NC316115  39.277  22.936   9.450
 5444POPC   PO416116  39.190  22.983   9.150
 5444POPC   GL116117  39.268  22.965   8.850
 5444POPC   GL216118  39.176  22.809   8.850
 5444POPC   C1A16119  39.198  22.982   8.550
 5444POPC   D2A16120  39.228  22.980   8.250
 5444POPC   C3A16121  39.182  22.949   7.950
 5444POPC   C4A16122  39.253  22.958   7.650
 5444POPC   C1B16123  39.051  22.779   8.550
 5444POPC   C2B16124  39.087  22.778   8.250
 5444POPC   C3B16125  39.101  22.719   7.950
 5444POPC   C4B16126  39.046  22.724   7.650
 5445POPC   NC316127  30.737  27.544   9.450
 5445POPC   PO416128  30.719  27.573   9.150
 5445POPC   GL116129  30.741  27.626   8.850
 5445POPC   GL216130  30.733  27.705   8.850
 5445POPC   C1A16131  30.657  27.589   8.550
 5445POPC   D2A16132  30.688  27.544   8.250
 5445POPC   C3A16133  30.652  27.629   7.950
 5445POPC   C4A16134  30.717  27.571   7.650
 5445POPC   C1B16135  30.701  27.829   8.550
 5445POPC   C2B16136  30.723  27.803   8.250
 5445POPC   C3B16137  30.731  27.874   7.950
 5445POPC   C4B16138  30.693  27.848   7.650
 5446POPC   NC316139   6.687  44.705   9.450
 5446POPC   PO416140   6.664  44.682   9.150
 5446POPC   GL116141   6.676  44.699   8.850
 5446POPC   GL216142   6.554  44.640   8.850
 5446POPC   C1A16143   6.677  44.659   8.550
 5446POPC   D2A16144   6.638  44.698   8.250
 5446POPC   C3A16145   6.618  44.677   7.950
 5446POPC   C4A16146   6.663  44.670   7.650
 5446POPC   C1B16147   6.359  44.647   8.550
 5446POPC   C2B16148   6.372  44.647   8.250
 5446POPC   C3B16149   6.366  44.611   7.950
 5446POPC   C4B16150   6.418  44.655   7.650
 5447POPC   NC316151  21.390  22.894   9.450
 5447POPC   PO416152  21.357  22.966   9.150
 5447POPC   GL116153  21.416  22.920   8.850
 5447POPC   GL216154  21.412  23.106   8.850
 5447POPC   C1A16155  21.373  22.982   8.550
 5447POPC   D2A16156  21.432  22.918   8.250
 5447POPC   C3A16157  21.371  22.955   7.950
 5447POPC   C4A16158  21.375  22.960   7.650
 5447POPC   C1B16159  21.362  23.159   8.550
 5447POPC   C2B16160  21.336  23.163   8.250
 5447POPC   C3B16161  21.326  23.190   7.950
 5447POPC   C4B16162  21.319  23.149   7.650
 5448POPC   NC316163  12.856  31.425   9.450
 5448POPC   PO416164  12.850  31.455   9.150
 5448POPC   GL116165  12.864  31.449   8.850
 5448POPC   GL216166  12.767  31.471   8.850
 5448POPC   C1A16167  12.846  31.513   8.550
 5448POPC   D2A16168  12.871  31.501   8.250
 5448POPC   C3A16169  12.849  31.475   7.950
 5448POPC   C4A16170  12.807  31.522   7.650
 5448POPC   C1B16171  12.614  31.530   8.550
 5448POPC   C2B16172  12.650  31.487   8.250
 5448POPC   C3B16173  12.554  31.494   7.950
 5448POPC   C4B16174  12.639  31.460   7.650
 5449POPC   NC316175  26.767  27.636   9.450
 5449POPC   PO416176  26.815  27.583   9.150
 5449POPC   GL116177  26.827  27.637   8.850
 5449POPC   GL216178  26.690  27.500   8.850
 5449POPC   C1A16179  26.804  27.615   8.550
 5449POPC   D2A16180  26.854  27.641   8.250
 5449POPC   C3A16181  26.845  27.603   7.950
 5449POPC   C4A16182  26.858  27.592   7.650
 5449POPC   C1B16183  26.643  27.471   8.550
 5449POPC   C2B16184  26.604  27.392   8.250
 5449POPC   C3B16185  26.612  27.407   7.950
 5449POPC   C4B16186  26.599  27.462   7.650
 5450POPC   NC316187   6.657   7.417   9.450
 5450POPC   PO416188   6.608   7.416   9.150
 5450POPC   GL116189   6.642   7.395   8.850
 5450POPC   GL216190   6.767   7.451   8.850
 5450POPC   C1A16191   6.644   7.391   8.550
 5450POPC   D2A16192   6.662   7.409   8.250
 5450POPC   C3A16193   6.657   7.418   7.950
 5450POPC   C4A16194   6.642   7.433   7.650
 5450POPC   C1B16195   6.837   7.559   8.550
 5450POPC   C2B16196   6.900   7.533   8.250
 5450POPC   C3B16197   6.886   7.542   7.950
 5450POPC   C4B16198   6.897   7.510   7.650
 5451POPC   NC316199  34.584  29.176   9.450
 5451POPC   PO416200  34.564  29.159   9.150
 5451POPC   GL116201  34.536  29.125   8.850
 5451POPC   GL216202  34.450  29.108   8.850
 5451POPC   C1A16203  34.547  29.122   8.550
 5451POPC   D2A16204  34.574  29.157   8.250
 5451POPC   C3A16205  34.619  29.148   7.950
 5451POPC   C4A16206  34.543  29.170   7.650
 5451POPC   C1B16207  34.303  29.068   8.550
 5451POPC   C2B16208  34.326  29.099   8.250
 5451POPC   C3B16209  34.389  29.019   7.950
 5451POPC   C4B16210  34.339  29.025   7.650
 5452POPC   NC316211  39.977  21.342   9.450
 5452POPC   PO416212  39.980  21.400   9.150
 5452POPC   GL116213  40.018  21.368   8.850
 5452POPC   GL216214  39.931  21.464   8.850
 5452POPC   C1A16215  39.998  21.380   8.550
 5452POPC   D2A16216  40.044  21.368   8.250
 5452POPC   C3A16217  40.036  21.428   7.950
 5452POPC   C4A16218  39.990  21.383   7.650
 5452POPC   C1B16219  39.825  21.539   8.550
 5452POPC   C2B16220  39.866  21.587   8.250
 5452POPC   C3B16221  39.817  21.579   7.950
 5452POPC   C4B16222  39.846  21.579   7.650
 5453POPC   NC316223  39.226   9.736   9.450
 5453POPC   PO416224  39.207   9.745   9.150
 5453POPC   GL116225  39.278   9.793   8.850
 5453POPC   GL216226  39.224   9.581   8.850
 5453POPC   C1A16227  39.206   9.735   8.550
 5453POPC   D2A16228  39.210   9.740   8.250
 5453POPC   C3A16229  39.189   9.765   7.950
 5453POPC   C4A16230  39.199   9.730   7.650
 5453POPC   C1B16231  39.167   9.496   8.550
 5453POPC   C2B16232  39.167   9.488   8.250
 5453POPC   C3B16233  39.251   9.460   7.950
 5453POPC   C4B16234  39.162   9.502   7.650
 5454POPC   NC316235  12.864  19.837   9.450
 5454POPC   PO416236  12.815  19.836   9.150
 5454POPC   GL116237  12.892  19.789   8.850
 5454POPC   GL216238  12.756  19.945   8.850
 5454POPC   C1A16239  12.888  19.787   8.550
 5454POPC   D2A16240  12.868  19.802   8.250
 5454POPC   C3A16241  12.821  19.835   7.950
 5454POPC   C4A16242  12.808  19.803   7.650
 5454POPC   C1B16243  12.606  19.987   8.550
 5454POPC   C2B16244  12.678  19.954   8.250
 5454POPC   C3B16245  12.618  19.963   7.950
 5454POPC   C4B16246  12.661  19.942   7.650
 5455POPC   NC316247  39.228   7.454   9.450
 5455POPC   PO416248  39.200   7.410   9.150
 5455POPC   GL116249  39.265   7.457   8.850
 5455POPC   GL216250  39.348   7.478   8.850
 5455POPC   C1A16251  39.190   7.463   8.550
 5455POPC   D2A16252  39.258   7.429   8.250
 5455POPC   C3A16253  39.276   7.429   7.950
 5455POPC   C4A16254  39.220   7.431   7.650
 5455POPC   C1B16255  39.505   7.425   8.550
 5455POPC   C2B16256  39.495   7.492   8.250
 5455POPC   C3B16257  39.471   7.492   7.950
 5455POPC   C4B16258  39.474   7.445   7.650
 5456POPC   NC316259  44.705  24.515   9.450
 5456POPC   PO416260  44.637  24.535   9.150
 5456POPC   GL116261  44.675  24.506   8.850
 5456POPC   GL216262  44.705  24.608   8.850
 5456POPC   C1A16263  44.702  24.451   8.550
 5456POPC   D2A16264  44.660  24.483   8.250
 5456POPC   C3A16265  44.650  24.515   7.950
 5456POPC   C4A16266  44.697  24.459   7.650
 5456POPC   C1B16267  44.761  24.761   8.550
 5456POPC   C2B16268  44.700  24.733   8.250
 5456POPC   C3B16269  44.725  24.741   7.950
 5456POPC   C4B16270  44.734  24.730   7.650
 5457POPC   NC316271  30.702  26.067   9.450
 5457POPC   PO416272  30.719  26.087   9.150
 5457POPC   GL116273  30.692  26.005   8.850
 5457POPC   GL216274  30.604  26.141   8.850
 5457POPC   C1A16275  30.710  26.015   8.550
 5457POPC   D2A16276  30.718  26.066   8.250
 5457POPC   C3A16277  30.688  26.066   7.950
 5457POPC   C4A16278  30.658  26.027   7.650
 5457POPC   C1B16279  30.510  26.144   8.550
 5457POPC   C2B16280  30.515  26.203   8.250
 5457POPC   C3B16281  30.480  26.164   7.950
 5457POPC   C4B16282  30.512  26.130   7.650
 5458POPC   NC316283  15.200  41.516   9.450
 5458POPC   PO416284  15.153  41.592   9.150
 5458POPC   GL116285  15.186  41.541   8.850
 5458POPC   GL216286  15.037  41.655   8.850
 5458POPC   C1A16287  15.227  41.552   8.550
 5458POPC   D2A16288  15.177  41.567   8.250
 5458POPC   C3A16289  15.201  41.601   7.950
 5458POPC   C4A16290  15.131  41.532   7.650
 5458POPC   C1B16291  14.948  41.693   8.550
 5458POPC   C2B16292  14.990  41.680   8.250
 5458POPC   C3B16293  15.013  41.727   7.950
 5458POPC   C4B16294  14.954  41.763   7.650
 5459POPC   NC316295   5.126  30.673   9.450
 5459POPC   PO416296   5.070  30.698   9.150
 5459POPC   GL116297   5.125  30.682   8.850
 5459POPC   GL216298   4.998  30.762   8.850
 5459POPC   C1A16299   5.110  30.648   8.550
 5459POPC   D2A16300   5.061  30.740   8.250
 5459POPC   C3A16301   5.093  30.740   7.950
 5459POPC   C4A16302   5.095  30.658   7.650
 5459POPC   C1B16303   4.937  30.831   8.550
 5459POPC   C2B16304   4.906  30.880   8.250
 5459POPC   C3B16305   4.898  30.824   7.950
 5459POPC   C4B16306   4.900  30.894   7.650
 5460POPC   NC316307  14.365  10.492   9.450
 5460POPC   PO416308  14.374  10.502   9.150
 5460POPC   GL116309  14.366  10.548   8.850
 5460POPC   GL216310  14.241  10.534   8.850
 5460POPC   C1A16311  14.379  10.538   8.550
 5460POPC   D2A16312  14.438  10.572   8.250
 5460POPC   C3A16313  14.359  10.475   7.950
 5460POPC   C4A16314  14.437  10.475   7.650
 5460POPC   C1B16315  14.180  10.498   8.550
 5460POPC   C2B16316  14.143  10.437   8.250
 5460POPC   C3B16317  14.149  10.415   7.950
 5460POPC   C4B16318  14.150  10.416   7.650
 5461POPC   NC316319  39.198  36.937   9.450
 5461POPC   PO416320  39.198  36.916   9.150
 5461POPC   GL116321  39.210  36.926   8.850
 5461POPC   GL216322  39.216  36.743   8.850
 5461POPC   C1A16323  39.274  36.887   8.550
 5461POPC   D2A16324  39.240  36.877   8.250
 5461POPC   C3A16325  39.252  36.930   7.950
 5461POPC   C4A16326  39.231  36.909   7.650
 5461POPC   C1B16327  39.302  36.689   8.550
 5461POPC   C2B16328  39.320  36.623   8.250
 5461POPC   C3B16329  39.304  36.622   7.950
 5461POPC   C4B16330  39.273  36.649   7.650
 5462POPC   NC316331  30.677  15.930   9.450
 5462POPC   PO416332  30.647  15.938   9.150
 5462POPC   GL116333  30.664  15.956   8.850
 5462POPC   GL216334  30.662  16.051   8.850
 5462POPC   C1A16335  30.675  15.990   8.550
 5462POPC   D2A16336  30.671  15.995   8.250
 5462POPC   C3A16337  30.688  15.969   7.950
 5462POPC   C4A16338  30.681  15.993   7.650
 5462POPC   C1B16339  30.547  16.214   8.550
 5462POPC   C2B16340  30.574  16.186   8.250
 5462POPC   C3B16341  30.573  16.133   7.950
 5462POPC   C4B16342  30.584  16.139   7.650
 5463POPC   NC316343  38.487  12.881   9.450
 5463POPC   PO416344  38.480  12.815   9.150
 5463POPC   GL116345  38.407  12.831   8.850
 5463POPC   GL216346  38.577  12.913   8.850
 5463POPC   C1A16347  38.433  12.850   8.550
 5463POPC   D2A16348  38.416  12.805   8.250
 5463POPC   C3A16349  38.424  12.830   7.950
 5463POPC   C4A16350  38.459  12.847   7.650
 5463POPC   C1B16351  38.647  12.952   8.550
 5463POPC   C2B16352  38.638  12.993   8.250
 5463POPC   C3B16353  38.710  13.021   7.950
 5463POPC   C4B16354  38.677  12.944   7.650
 5464POPC   NC316355  36.896  43.889   9.450
 5464POPC   PO416356  36.928  43.842   9.150
 5464POPC   GL116357  36.898  43.919   8.850
 5464POPC   GL216358  36.777  43.982   8.850
 5464POPC   C1A16359  36.864  43.913   8.550
 5464POPC   D2A16360  36.923  43.900   8.250
 5464POPC   C3A16361  36.937  43.844   7.950
 5464POPC   C4A16362  36.915  43.931   7.650
 5464POPC   C1B16363  36.713  44.035   8.550
 5464POPC   C2B16364  36.671  43.953   8.250
 5464POPC   C3B16365  36.633  44.002   7.950
 5464POPC   C4B16366  36.688  44.033   7.650
 5465POPC   NC316367  38.435  20.561   9.450
 5465POPC   PO416368  38.492  20.561   9.150
 5465POPC   GL116369  38.474  20.635   8.850
 5465POPC   GL216370  38.335  20.506   8.850
 5465POPC   C1A16371  38.435  20.583   8.550
 5465POPC   D2A16372  38.410  20.569   8.250
 5465POPC   C3A16373  38.414  20.660   7.950
 5465POPC   C4A16374  38.437  20.625   7.650
 5465POPC   C1B16375  38.235  20.456   8.550
 5465POPC   C2B16376  38.205  20.508   8.250
 5465POPC   C3B16377  38.214  20.500   7.950
 5465POPC   C4B16378  38.265  20.492   7.650
 5466POPC   NC316379  37.652   0.412   9.450
 5466POPC   PO416380  37.724   0.412   9.150
 5466POPC   GL116381  37.705   0.467   8.850
 5466POPC   GL216382  37.591   0.371   8.850
 5466POPC   C1A16383  37.657   0.432   8.550
 5466POPC   D2A16384  37.649   0.405   8.250
 5466POPC   C3A16385  37.659   0.455   7.950
 5466POPC   C4A16386  37.710   0.466   7.650
 5466POPC   C1B16387  37.483   0.277   8.550
 5466POPC   C2B16388  37.472   0.273   8.250
 5466POPC   C3B16389  37.514   0.294   7.950
 5466POPC   C4B16390  37.491   0.314   7.650
 5467POPC   NC316391   2.025   5.066   9.450
 5467POPC   PO416392   2.036   5.130   9.150
 5467POPC   GL116393   2.018   5.098   8.850
 5467POPC   GL216394   2.014   5.005   8.850
 5467POPC   C1A16395   1.967   5.142   8.550
 5467POPC   D2A16396   2.016   5.137   8.250
 5467POPC   C3A16397   1.955   5.059   7.950
 5467POPC   C4A16398   2.008   5.089   7.650
 5467POPC   C1B16399   1.999   4.874   8.550
 5467POPC   C2B16400   2.067   4.878   8.250
 5467POPC   C3B16401   2.044   4.804   7.950
 5467POPC   C4B16402   1.973   4.833   7.650
 5468POPC   NC316403  35.402  37.689   9.450
 5468POPC   PO416404  35.391  37.630   9.150
 5468POPC   GL116405  35.395  37.639   8.850
 5468POPC   GL216406  35.364  37.792   8.850
 5468POPC   C1A16407  35.377  37.675   8.550
 5468POPC   D2A16408  35.351  37.720   8.250
 5468POPC   C3A16409  35.350  37.694   7.950
 5468POPC   C4A16410  35.374  37.642   7.650
 5468POPC   C1B16411  35.363  37.939   8.550
 5468POPC   C2B16412  35.335  37.944   8.250
 5468POPC   C3B16413  35.357  37.969   7.950
 5468POPC   C4B16414  35.366  37.975   7.650
 5469POPC   NC316415  36.912  33.761   9.450
 5469POPC   PO416416  36.856  33.799   9.150
 5469POPC   GL116417  36.888  33.827   8.850
 5469POPC   GL216418  36.874  33.898   8.850
 5469POPC   C1A16419  36.953  33.769   8.550
 5469POPC   D2A16420  36.917  33.838   8.250
 5469POPC   C3A16421  36.890  33.798   7.950
 5469POPC   C4A16422  36.878  33.787   7.650
 5469POPC   C1B16423  36.808  33.998   8.550
 5469POPC   C2B16424  36.853  34.081   8.250
 5469POPC   C3B16425  36.828  34.020   7.950
 5469POPC   C4B16426  36.774  34.077   7.650
 5470POPC   NC316427  24.537  33.799   9.450
 5470POPC   PO416428  24.504  33.839   9.150
 5470POPC   GL116429  24.478  33.831   8.850
 5470POPC   GL216430  24.569  33.844   8.850
 5470POPC   C1A16431  24.493  33.754   8.550
 5470POPC   D2A16432  24.520  33.814   8.250
 5470POPC   C3A16433  24.492  33.754   7.950
 5470POPC   C4A16434  24.464  33.812   7.650
 5470POPC   C1B16435  24.644  33.934   8.550
 5470POPC   C2B16436  24.660  33.924   8.250
 5470POPC   C3B16437  24.678  33.920   7.950
 5470POPC   C4B16438  24.693  33.920   7.650
 5471POPC   NC316439  20.609   1.970   9.450
 5471POPC   PO416440  20.614   1.947   9.150
 5471POPC   GL116441  20.596   1.967   8.850
 5471POPC   GL216442  20.572   2.108   8.850
 5471POPC   C1A16443  20.654   2.010   8.550
 5471POPC   D2A16444  20.634   1.975   8.250
 5471POPC   C3A16445  20.622   1.973   7.950
 5471POPC   C4A16446  20.580   2.004   7.650
 5471POPC   C1B16447  20.606   2.277   8.550
 5471POPC   C2B16448  20.566   2.192   8.250
 5471POPC   C3B16449  20.593   2.239   7.950
 5471POPC   C4B16450  20.557   2.195   7.650
 5472POPC   NC316451  15.147  23.681   9.450
 5472POPC   PO416452  15.180  23.762   9.150
 5472POPC   GL116453  15.191  23.760   8.850
 5472POPC   GL216454  15.275  23.652   8.850
 5472POPC   C1A16455  15.152  23.681   8.550
 5472POPC   D2A16456  15.199  23.761   8.250
 5472POPC   C3A16457  15.201  23.696   7.950
 5472POPC   C4A16458  15.172  23.673   7.650
 5472POPC   C1B16459  15.299  23.527   8.550
 5472POPC   C2B16460  15.298  23.538   8.250
 5472POPC   C3B16461  15.365  23.547   7.950
 5472POPC   C4B16462  15.323  23.497   7.650
 5473POPC   NC316463  33.787  27.627   9.450
 5473POPC   PO416464  33.802  27.546   9.150
 5473POPC   GL116465  33.795  27.617   8.850
 5473POPC   GL216466  33.670  27.605   8.850
 5473POPC   C1A16467  33.841  27.587   8.550
 5473POPC   D2A16468  33.800  27.591   8.250
 5473POPC   C3A16469  33.821  27.585   7.950
 5473POPC   C4A16470  33.790  27.579   7.650
 5473POPC   C1B16471  33.559  27.630   8.550
 5473POPC   C2B16472  33.597  27.581   8.250
 5473POPC   C3B16473  33.506  27.620   7.950
 5473POPC   C4B16474  33.595  27.637   7.650
 5474POPC   NC316475  31.465   3.560   9.450
 5474POPC   PO416476  31.509   3.518   9.150
 5474POPC   GL116477  31.474   3.544   8.850
 5474POPC   GL216478  31.421   3.616   8.850
 5474POPC   C1A16479  31.485   3.568   8.550
 5474POPC   D2A16480  31.504   3.507   8.250
 5474POPC   C3A16481  31.520   3.500   7.950
 5474POPC   C4A16482  31.495   3.538   7.650
 5474POPC   C1B16483  31.323   3.780   8.550
 5474POPC   C2B16484  31.292   3.738   8.250
 5474POPC   C3B16485  31.298   3.772   7.950
 5474POPC   C4B16486  31.305   3.739   7.650
 5475POPC   NC316487  38.486   5.857   9.450
 5475POPC   PO416488  38.473   5.888   9.150
 5475POPC   GL116489  38.461   5.881   8.850
 5475POPC   GL216490  38.453   5.946   8.850
 5475POPC   C1A16491  38.408   5.844   8.550
 5475POPC   D2A16492  38.421   5.877   8.250
 5475POPC   C3A16493  38.481   5.852   7.950
 5475POPC   C4A16494  38.407   5.907   7.650
 5475POPC   C1B16495  38.499   6.153   8.550
 5475POPC   C2B16496  38.498   6.071   8.250
 5475POPC   C3B16497  38.525   6.121   7.950
 5475POPC   C4B16498  38.457   6.093   7.650
 5476POPC   NC316499  36.864  38.491   9.450
 5476POPC   PO416500  36.861  38.489   9.150
 5476POPC   GL116501  36.881  38.405   8.850
 5476POPC   GL216502  37.018  38.521   8.850
 5476POPC   C1A16503  36.934  38.413   8.550
 5476POPC   D2A16504  36.874  38.498   8.250
 5476POPC   C3A16505  36.876  38.463   7.950
 5476POPC   C4A16506  36.868  38.474   7.650
 5476POPC   C1B16507  37.138  38.504   8.550
 5476POPC   C2B16508  37.127  38.494   8.250
 5476POPC   C3B16509  37.104  38.509   7.950
 5476POPC   C4B16510  37.186  38.584   7.650
 5477POPC   NC316511   1.985  29.102   9.450
 5477POPC   PO416512   2.017  29.108   9.150
 5477POPC   GL116513   1.976  29.170   8.850
 5477POPC   GL216514   2.085  29.194   8.850
 5477POPC   C1A16515   1.994  29.167   8.550
 5477POPC   D2A16516   2.007  29.161   8.250
 5477POPC   C3A16517   2.033  29.121   7.950
 5477POPC   C4A16518   1.989  29.103   7.650
 5477POPC   C1B16519   2.259  29.221   8.550
 5477POPC   C2B16520   2.227  29.290   8.250
 5477POPC   C3B16521   2.196  29.270   7.950
 5477POPC   C4B16522   2.241  29.215   7.650
 5478POPC   NC316523   8.923  15.208   9.450
 5478POPC   PO416524   8.963  15.138   9.150
 5478POPC   GL116525   9.019  15.227   8.850
 5478POPC   GL216526   9.031  15.330   8.850
 5478POPC   C1A16527   9.009  15.195   8.550
 5478POPC   D2A16528   8.949  15.187   8.250
 5478POPC   C3A16529   9.014  15.211   7.950
 5478POPC   C4A16530   8.973  15.153   7.650
 5478POPC   C1B16531   9.061  15.361   8.550
 5478POPC   C2B16532   9.061  15.405   8.250
 5478POPC   C3B16533   9.028  15.381   7.950
 5478POPC   C4B16534   9.058  15.390   7.650
 5479POPC   NC316535  25.304  13.666   9.450
 5479POPC   PO416536  25.274  13.610   9.150
 5479POPC   GL116537  25.293  13.603   8.850
 5479POPC   GL216538  25.214  13.761   8.850
 5479POPC   C1A16539  25.298  13.582   8.550
 5479POPC   D2A16540  25.274  13.579   8.250
 5479POPC   C3A16541  25.312  13.629   7.950
 5479POPC   C4A16542  25.257  13.645   7.650
 5479POPC   C1B16543  25.099  13.856   8.550
 5479POPC   C2B16544  25.138  13.885   8.250
 5479POPC   C3B16545  25.187  13.823   7.950
 5479POPC   C4B16546  25.170  13.881   7.650
 5480POPC   NC316547  15.178  43.890   9.450
 5480POPC   PO416548  15.192  43.900   9.150
 5480POPC   GL116549  15.169  43.861   8.850
 5480POPC   GL216550  15.044  43.915   8.850
 5480POPC   C1A16551  15.133  43.837   8.550
 5480POPC   D2A16552  15.185  43.920   8.250
 5480POPC   C3A16553  15.139  43.905   7.950
 5480POPC   C4A16554  15.191  43.890   7.650
 5480POPC   C1B16555  14.960  44.021   8.550
 5480POPC   C2B16556  14.945  44.031   8.250
 5480POPC   C3B16557  14.965  44.066   7.950
 5480POPC   C4B16558  14.958  44.062   7.650
 5481POPC   NC316559  32.269   7.443   9.450
 5481POPC   PO416560  32.219   7.423   9.150
 5481POPC   GL116561  32.207   7.410   8.850
 5481POPC   GL216562  32.289   7.276   8.850
 5481POPC   C1A16563  32.272   7.399   8.550
 5481POPC   D2A16564  32.222   7.375   8.250
 5481POPC   C3A16565  32.199   7.415   7.950
 5481POPC   C4A16566  32.284   7.455   7.650
 5481POPC   C1B16567  32.306   7.200   8.550
 5481POPC   C2B16568  32.327   7.138   8.250
 5481POPC   C3B16569  32.334   7.177   7.950
 5481POPC   C4B16570  32.360   7.185   7.650
 5482POPC   NC316571  29.955  26.809   9.450
 5482POPC   PO416572  29.939  26.812   9.150
 5482POPC   GL116573  29.948  26.818   8.850
 5482POPC   GL216574  30.032  26.733   8.850
 5482POPC   C1A16575  29.895  26.865   8.550
 5482POPC   D2A16576  29.911  26.860   8.250
 5482POPC   C3A16577  29.968  26.768   7.950
 5482POPC   C4A16578  29.893  26.810   7.650
 5482POPC   C1B16579  30.065  26.609   8.550
 5482POPC   C2B16580  30.134  26.622   8.250
 5482POPC   C3B16581  30.122  26.681   7.950
 5482POPC   C4B16582  30.075  26.639   7.650
 5483POPC   NC316583  14.417  11.329   9.450
 5483POPC   PO416584  14.430  11.289   9.150
 5483POPC   GL116585  14.389  11.319   8.850
 5483POPC   GL216586  14.440  11.215   8.850
 5483POPC   C1A16587  14.357  11.329   8.550
 5483POPC   D2A16588  14.447  11.338   8.250
 5483POPC   C3A16589  14.425  11.328   7.950
 5483POPC   C4A16590  14.453  11.294   7.650
 5483POPC   C1B16591  14.419  11.081   8.550
 5483POPC   C2B16592  14.483  11.087   8.250
 5483POPC   C3B16593  14.450  11.006   7.950
 5483POPC   C4B16594  14.457  11.056   7.650
 5484POPC   NC316595   1.181   9.769   9.450
 5484POPC   PO416596   1.199   9.735   9.150
 5484POPC   GL116597   1.229   9.727   8.850
 5484POPC   GL216598   1.165   9.850   8.850
 5484POPC   C1A16599   1.257   9.789   8.550
 5484POPC   D2A16600   1.201   9.785   8.250
 5484POPC   C3A16601   1.220   9.778   7.950
 5484POPC   C4A16602   1.176   9.735   7.650
 5484POPC   C1B16603   1.223  10.013   8.550
 5484POPC   C2B16604   1.222   9.971   8.250
 5484POPC   C3B16605   1.167   9.962   7.950
 5484POPC   C4B16606   1.188   9.956   7.650
 5485POPC   NC316607  32.994   1.208   9.450
 5485POPC   PO416608  33.073   1.234   9.150
 5485POPC   GL116609  32.979   1.219   8.850
 5485POPC   GL216610  32.948   1.286   8.850
 5485POPC   C1A16611  33.030   1.221   8.550
 5485POPC   D2A16612  33.060   1.253   8.250
 5485POPC   C3A16613  32.980   1.263   7.950
 5485POPC   C4A16614  33.016   1.223   7.650
 5485POPC   C1B16615  32.827   1.367   8.550
 5485POPC   C2B16616  32.879   1.381   8.250
 5485POPC   C3B16617  32.826   1.442   7.950
 5485POPC   C4B16618  32.850   1.436   7.650
 5486POPC   NC316619   6.659  34.587   9.450
 5486POPC   PO416620   6.645  34.549   9.150
 5486POPC   GL116621   6.629  34.548   8.850
 5486POPC   GL216622   6.673  34.498   8.850
 5486POPC   C1A16623   6.673  34.560   8.550
 5486POPC   D2A16624   6.622  34.544   8.250
 5486POPC   C3A16625   6.637  34.573   7.950
 5486POPC   C4A16626   6.668  34.564   7.650
 5486POPC   C1B16627   6.683  34.319   8.550
 5486POPC   C2B16628   6.695  34.385   8.250
 5486POPC   C3B16629   6.742  34.304   7.950
 5486POPC   C4B16630   6.684  34.293   7.650
 5487POPC   NC316631  33.829   5.909   9.450
 5487POPC   PO416632  33.844   5.859   9.150
 5487POPC   GL116633  33.774   5.860   8.850
 5487POPC   GL216634  33.884   5.789   8.850
 5487POPC   C1A16635  33.802   5.910   8.550
 5487POPC   D2A16636  33.802   5.907   8.250
 5487POPC   C3A16637  33.793   5.896   7.950
 5487POPC   C4A16638  33.779   5.919   7.650
 5487POPC   C1B16639  33.903   5.640   8.550
 5487POPC   C2B16640  33.939   5.619   8.250
 5487POPC   C3B16641  33.867   5.607   7.950
 5487POPC   C4B16642  33.899   5.590   7.650
 5488POPC   NC316643  29.966  39.268   9.450
 5488POPC   PO416644  29.949  39.205   9.150
 5488POPC   GL116645  29.947  39.262   8.850
 5488POPC   GL216646  30.044  39.261   8.850
 5488POPC   C1A16647  29.884  39.240   8.550
 5488POPC   D2A16648  29.886  39.221   8.250
 5488POPC   C3A16649  29.871  39.236   7.950
 5488POPC   C4A16650  29.889  39.266   7.650
 5488POPC   C1B16651  30.150  39.350   8.550
 5488POPC   C2B16652  30.115  39.341   8.250
 5488POPC   C3B16653  30.100  39.414   7.950
 5488POPC   C4B16654  30.130  39.389   7.650
 5489POPC   NC316655  30.676   5.910   9.450
 5489POPC   PO416656  30.738   5.898   9.150
 5489POPC   GL116657  30.716   5.847   8.850
 5489POPC   GL216658  30.591   5.887   8.850
 5489POPC   C1A16659  30.669   5.913   8.550
 5489POPC   D2A16660  30.725   5.821   8.250
 5489POPC   C3A16661  30.743   5.891   7.950
 5489POPC   C4A16662  30.730   5.851   7.650
 5489POPC   C1B16663  30.482   5.915   8.550
 5489POPC   C2B16664  30.496   5.937   8.250
 5489POPC   C3B16665  30.468   5.934   7.950
 5489POPC   C4B16666  30.413   5.981   7.650
 5490POPC   NC316667  39.985  15.156   9.450
 5490POPC   PO416668  40.043  15.176   9.150
 5490POPC   GL116669  39.992  15.154   8.850
 5490POPC   GL216670  40.088  15.250   8.850
 5490POPC   C1A16671  39.962  15.174   8.550
 5490POPC   D2A16672  40.050  15.141   8.250
 5490POPC   C3A16673  39.978  15.190   7.950
 5490POPC   C4A16674  40.040  15.189   7.650
 5490POPC   C1B16675  40.191  15.366   8.550
 5490POPC   C2B16676  40.236  15.306   8.250
 5490POPC   C3B16677  40.214  15.368   7.950
 5490POPC   C4B16678  40.208  15.278   7.650
 5491POPC   NC316679  13.657  12.881   9.450
 5491POPC   PO416680  13.593  12.885   9.150
 5491POPC   GL116681  13.579  12.901   8.850
 5491POPC   GL216682  13.658  12.992   8.850
 5491POPC   C1A16683  13.655  12.804   8.550
 5491POPC   D2A16684  13.667  12.845   8.250
 5491POPC   C3A16685  13.665  12.868   7.950
 5491POPC   C4A16686  13.662  12.900   7.650
 5491POPC   C1B16687  13.628  13.058   8.550
 5491POPC   C2B16688  13.647  13.127   8.250
 5491POPC   C3B16689  13.660  13.133   7.950
 5491POPC   C4B16690  13.673  13.061   7.650
 5492POPC   NC316691  34.592  36.147   9.450
 5492POPC   PO416692  34.624  36.161   9.150
 5492POPC   GL116693  34.563  36.168   8.850
 5492POPC   GL216694  34.491  36.254   8.850
 5492POPC   C1A16695  34.552  36.166   8.550
 5492POPC   D2A16696  34.536  36.124   8.250
 5492POPC   C3A16697  34.570  36.114   7.950
 5492POPC   C4A16698  34.624  36.133   7.650
 5492POPC   C1B16699  34.430  36.377   8.550
 5492POPC   C2B16700  34.508  36.306   8.250
 5492POPC   C3B16701  34.509  36.310   7.950
 5492POPC   C4B16702  34.473  36.372   7.650
 5493POPC   NC316703  26.848  22.159   9.450
 5493POPC   PO416704  26.864  22.120   9.150
 5493POPC   GL116705  26.804  22.190   8.850
 5493POPC   GL216706  26.843  22.243   8.850
 5493POPC   C1A16707  26.863  22.152   8.550
 5493POPC   D2A16708  26.827  22.141   8.250
 5493POPC   C3A16709  26.865  22.129   7.950
 5493POPC   C4A16710  26.785  22.180   7.650
 5493POPC   C1B16711  26.939  22.367   8.550
 5493POPC   C2B16712  26.919  22.429   8.250
 5493POPC   C3B16713  26.940  22.388   7.950
 5493POPC   C4B16714  26.963  22.398   7.650
 5494POPC   NC316715  37.657  27.589   9.450
 5494POPC   PO416716  37.654  27.586   9.150
 5494POPC   GL116717  37.686  27.632   8.850
 5494POPC   GL216718  37.615  27.758   8.850
 5494POPC   C1A16719  37.650  27.594   8.550
 5494POPC   D2A16720  37.672  27.572   8.250
 5494POPC   C3A16721  37.696  27.585   7.950
 5494POPC   C4A16722  37.711  27.565   7.650
 5494POPC   C1B16723  37.579  27.827   8.550
 5494POPC   C2B16724  37.576  27.869   8.250
 5494POPC   C3B16725  37.641  27.788   7.950
 5494POPC   C4B16726  37.633  27.842   7.650
 5495POPC   NC316727  32.285   3.589   9.450
 5495POPC   PO416728  32.266   3.521   9.150
 5495POPC   GL116729  32.294   3.545   8.850
 5495POPC   GL216730  32.317   3.535   8.850
 5495POPC   C1A16731  32.239   3.511   8.550
 5495POPC   D2A16732  32.251   3.544   8.250
 5495POPC   C3A16733  32.286   3.505   7.950
 5495POPC   C4A16734  32.284   3.572   7.650
 5495POPC   C1B16735  32.532   3.671   8.550
 5495POPC   C2B16736  32.528   3.593   8.250
 5495POPC   C3B16737  32.518   3.614   7.950
 5495POPC   C4B16738  32.463   3.594   7.650
 5496POPC   NC316739  22.123  31.437   9.450
 5496POPC   PO416740  22.180  31.432   9.150
 5496POPC   GL116741  22.208  31.507   8.850
 5496POPC   GL216742  22.010  31.567   8.850
 5496POPC   C1A16743  22.177  31.501   8.550
 5496POPC   D2A16744  22.120  31.464   8.250
 5496POPC   C3A16745  22.174  31.491   7.950
 5496POPC   C4A16746  22.176  31.482   7.650
 5496POPC   C1B16747  21.899  31.558   8.550
 5496POPC   C2B16748  21.906  31.586   8.250
 5496POPC   C3B16749  21.954  31.563   7.950
 5496POPC   C4B16750  21.940  31.550   7.650
 5497POPC   NC316751   0.477   0.476   9.450
 5497POPC   PO416752   0.463   0.388   9.150
 5497POPC   GL116753   0.485   0.443   8.850
 5497POPC   GL216754   0.520   0.389   8.850
 5497POPC   C1A16755   0.433   0.463   8.550
 5497POPC   D2A16756   0.454   0.402   8.250
 5497POPC   C3A16757   0.464   0.388   7.950
 5497POPC   C4A16758   0.403   0.433   7.650
 5497POPC   C1B16759   0.707   0.478   8.550
 5497POPC   C2B16760   0.704   0.395   8.250
 5497POPC   C3B16761   0.709   0.467   7.950
 5497POPC   C4B16762   0.718   0.445   7.650
 5498POPC   NC316763   8.173  29.189   9.450
 5498POPC   PO416764   8.164  29.165   9.150
 5498POPC   GL116765   8.244  29.115   8.850
 5498POPC   GL216766   8.211  29.031   8.850
 5498POPC   C1A16767   8.163  29.159   8.550
 5498POPC   D2A16768   8.199  29.147   8.250
 5498POPC   C3A16769   8.154  29.144   7.950
 5498POPC   C4A16770   8.197  29.171   7.650
 5498POPC   C1B16771   8.252  28.923   8.550
 5498POPC   C2B16772   8.230  28.863   8.250
 5498POPC   C3B16773   8.218  28.897   7.950
 5498POPC   C4B16774   8.209  28.942   7.650
 5499POPC   NC316775  22.161  24.440   9.450
 5499POPC   PO416776  22.198  24.492   9.150
 5499POPC   GL116777  22.181  24.523   8.850
 5499POPC   GL216778  22.045  24.463   8.850
 5499POPC   C1A16779  22.144  24.520   8.550
 5499POPC   D2A16780  22.152  24.451   8.250
 5499POPC   C3A16781  22.169  24.476   7.950
 5499POPC   C4A16782  22.142  24.488   7.650
 5499POPC   C1B16783  21.954  24.407   8.550
 5499POPC   C2B16784  21.960  24.409   8.250
 5499POPC   C3B16785  21.950  24.486   7.950
 5499POPC   C4B16786  21.943  24.405   7.650
 5500POPC   NC316787  40.806  41.588   9.450
 5500POPC   PO416788  40.805  41.543   9.150
 5500POPC   GL116789  40.749  41.603   8.850
 5500POPC   GL216790  40.783  41.396   8.850
 5500POPC   C1A16791  40.759  41.564   8.550
 5500POPC   D2A16792  40.789  41.595   8.250
 5500POPC   C3A16793  40.833  41.557   7.950
 5500POPC   C4A16794  40.810  41.599   7.650
 5500POPC   C1B16795  40.785  41.293   8.550
 5500POPC   C2B16796  40.805  41.325   8.250
 5500POPC   C3B16797  40.764  41.346   7.950
 5500POPC   C4B16798  40.795  41.338   7.650
 5501POPC   NC316799  36.153   5.855   9.450
 5501POPC   PO416800  36.133   5.869   9.150
 5501POPC   GL116801  36.096   5.911   8.850
 5501POPC   GL216802  36.187   5.902   8.850
 5501POPC   C1A16803  36.097   5.842   8.550
 5501POPC   D2A16804  36.107   5.860   8.250
 5501POPC   C3A16805  36.159   5.917   7.950
 5501POPC   C4A16806  36.120   5.831   7.650
 5501POPC   C1B16807  36.360   6.041   8.550
 5501POPC   C2B16808  36.308   6.036   8.250
 5501POPC   C3B16809  36.319   6.017   7.950
 5501POPC   C4B16810  36.348   6.003   7.650
 5502POPC   NC316811  40.801   1.186   9.450
 5502POPC   PO416812  40.803   1.198   9.150
 5502POPC   GL116813  40.742   1.230   8.850
 5502POPC   GL216814  40.690   1.308   8.850
 5502POPC   C1A16815  40.776   1.210   8.550
 5502POPC   D2A16816  40.799   1.250   8.250
 5502POPC   C3A16817  40.734   1.229   7.950
 5502POPC   C4A16818  40.767   1.250   7.650
 5502POPC   C1B16819  40.648   1.352   8.550
 5502POPC   C2B16820  40.590   1.349   8.250
 5502POPC   C3B16821  40.615   1.423   7.950
 5502POPC   C4B16822  40.625   1.429   7.650
 5503POPC   NC316823  18.294  36.118   9.450
 5503POPC   PO416824  18.300  36.160   9.150
 5503POPC   GL116825  18.243  36.141   8.850
 5503POPC   GL216826  18.425  36.051   8.850
 5503POPC   C1A16827  18.257  36.142   8.550
 5503POPC   D2A16828  18.318  36.114   8.250
 5503POPC   C3A16829  18.249  36.147   7.950
 5503POPC   C4A16830  18.301  36.169   7.650
 5503POPC   C1B16831  18.479  36.075   8.550
 5503POPC   C2B16832  18.559  36.012   8.250
 5503POPC   C3B16833  18.524  36.018   7.950
 5503POPC   C4B16834  18.533  36.035   7.650
 5504POPC   NC316835  41.586   9.709   9.450
 5504POPC   PO416836  41.579   9.744   9.150
 5504POPC   GL116837  41.571   9.772   8.850
 5504POPC   GL216838  41.455   9.591   8.850
 5504POPC   C1A16839  41.515   9.714   8.550
 5504POPC   D2A16840  41.581   9.711   8.250
 5504POPC   C3A16841  41.582   9.767   7.950
 5504POPC   C4A16842  41.582   9.771   7.650
 5504POPC   C1B16843  41.399   9.504   8.550
 5504POPC   C2B16844  41.457   9.522   8.250
 5504POPC   C3B16845  41.412   9.553   7.950
 5504POPC   C4B16846  41.462   9.502   7.650
 5505POPC   NC316847  15.156  14.443   9.450
 5505POPC   PO416848  15.196  14.413   9.150
 5505POPC   GL116849  15.145  14.426   8.850
 5505POPC   GL216850  15.101  14.405   8.850
 5505POPC   C1A16851  15.179  14.372   8.550
 5505POPC   D2A16852  15.158  14.384   8.250
 5505POPC   C3A16853  15.199  14.400   7.950
 5505POPC   C4A16854  15.141  14.417   7.650
 5505POPC   C1B16855  14.946  14.420   8.550
 5505POPC   C2B16856  14.971  14.441   8.250
 5505POPC   C3B16857  14.906  14.379   7.950
 5505POPC   C4B16858  14.908  14.425   7.650
 5506POPC   NC316859  12.073   9.729   9.450
 5506POPC   PO416860  12.029   9.747   9.150
 5506POPC   GL116861  12.113   9.721   8.850
 5506POPC   GL216862  12.120   9.901   8.850
 5506POPC   C1A16863  12.110   9.776   8.550
 5506POPC   D2A16864  12.095   9.749   8.250
 5506POPC   C3A16865  12.059   9.727   7.950
 5506POPC   C4A16866  12.055   9.714   7.650
 5506POPC   C1B16867  12.199   9.992   8.550
 5506POPC   C2B16868  12.188   9.958   8.250
 5506POPC   C3B16869  12.180   9.965   7.950
 5506POPC   C4B16870  12.189   9.931   7.650
 5507POPC   NC316871  26.069  39.203   9.450
 5507POPC   PO416872  26.051  39.220   9.150
 5507POPC   GL116873  26.045  39.198   8.850
 5507POPC   GL216874  26.101  39.121   8.850
 5507POPC   C1A16875  26.016  39.222   8.550
 5507POPC   D2A16876  26.033  39.207   8.250
 5507POPC   C3A16877  26.091  39.272   7.950
 5507POPC   C4A16878  26.055  39.271   7.650
 5507POPC   C1B16879  26.147  38.987   8.550
 5507POPC   C2B16880  26.178  38.998   8.250
 5507POPC   C3B16881  26.137  39.044   7.950
 5507POPC   C4B16882  26.166  39.051   7.650
 5508POPC   NC316883  29.874  19.011   9.450
 5508POPC   PO416884  29.964  19.054   9.150
 5508POPC   GL116885  29.883  19.081   8.850
 5508POPC   GL216886  29.913  18.942   8.850
 5508POPC   C1A16887  29.960  19.063   8.550
 5508POPC   D2A16888  29.881  19.017   8.250
 5508POPC   C3A16889  29.959  19.011   7.950
 5508POPC   C4A16890  29.923  19.036   7.650
 5508POPC   C1B16891  29.974  18.806   8.550
 5508POPC   C2B16892  29.992  18.805   8.250
 5508POPC   C3B16893  29.996  18.826   7.950
 5508POPC   C4B16894  30.000  18.777   7.650
 5509POPC   NC316895  12.052  24.493   9.450
 5509POPC   PO416896  12.071  24.442   9.150
 5509POPC   GL116897  12.100  24.498   8.850
 5509POPC   GL216898  12.193  24.505   8.850
 5509POPC   C1A16899  12.111  24.485   8.550
 5509POPC   D2A16900  12.105  24.511   8.250
 5509POPC   C3A16901  12.079  24.521   7.950
 5509POPC   C4A16902  12.066  24.475   7.650
 5509POPC   C1B16903  12.309  24.529   8.550
 5509POPC   C2B16904  12.358  24.510   8.250
 5509POPC   C3B16905  12.282  24.571   7.950
 5509POPC   C4B16906  12.314  24.552   7.650
 5510POPC   NC316907  20.638   9.018   9.450
 5510POPC   PO416908  20.561   8.937   9.150
 5510POPC   GL116909  20.576   8.988   8.850
 5510POPC   GL216910  20.526   8.851   8.850
 5510POPC   C1A16911  20.564   9.011   8.550
 5510POPC   D2A16912  20.638   8.959   8.250
 5510POPC   C3A16913  20.640   8.925   7.950
 5510POPC   C4A16914  20.564   8.990   7.650
 5510POPC   C1B16915  20.467   8.750   8.550
 5510POPC   C2B16916  20.533   8.786   8.250
 5510POPC   C3B16917  20.457   8.747   7.950
 5510POPC   C4B16918  20.518   8.728   7.650
 5511POPC   NC316919  43.061  17.512   9.450
 5511POPC   PO416920  43.159  17.488   9.150
 5511POPC   GL116921  43.135  17.545   8.850
 5511POPC   GL216922  43.086  17.365   8.850
 5511POPC   C1A16923  43.146  17.497   8.550
 5511POPC   D2A16924  43.109  17.509   8.250
 5511POPC   C3A16925  43.109  17.553   7.950
 5511POPC   C4A16926  43.137  17.467   7.650
 5511POPC   C1B16927  43.120  17.295   8.550
 5511POPC   C2B16928  43.170  17.262   8.250
 5511POPC   C3B16929  43.181  17.230   7.950
 5511POPC   C4B16930  43.148  17.250   7.650
 5512POPC   NC316931   4.311  28.343   9.450
 5512POPC   PO416932   4.296  28.400   9.150
 5512POPC   GL116933   4.337  28.326   8.850
 5512POPC   GL216934   4.167  28.301   8.850
 5512POPC   C1A16935   4.344  28.413   8.550
 5512POPC   D2A16936   4.358  28.404   8.250
 5512POPC   C3A16937   4.355  28.395   7.950
 5512POPC   C4A16938   4.321  28.338   7.650
 5512POPC   C1B16939   4.075  28.187   8.550
 5512POPC   C2B16940   4.140  28.258   8.250
 5512POPC   C3B16941   4.082  28.217   7.950
 5512POPC   C4B16942   4.156  28.279   7.650
 5513POPC   NC316943  39.227   1.223   9.450
 5513POPC   PO416944  39.257   1.255   9.150
 5513POPC   GL116945  39.255   1.181   8.850
 5513POPC   GL216946  39.334   1.235   8.850
 5513POPC   C1A16947  39.184   1.185   8.550
 5513POPC   D2A16948  39.262   1.258   8.250
 5513POPC   C3A16949  39.207   1.224   7.950
 5513POPC   C4A16950  39.207   1.231   7.650
 5513POPC   C1B16951  39.485   1.304   8.550
 5513POPC   C2B16952  39.411   1.309   8.250
 5513POPC   C3B16953  39.502   1.347   7.950
 5513POPC   C4B16954  39.451   1.287   7.650
 5514POPC   NC316955  29.966   8.230   9.450
 5514POPC   PO416956  29.872   8.153   9.150
 5514POPC   GL116957  29.891   8.175   8.850
 5514POPC   GL216958  29.960   8.260   8.850
 5514POPC   C1A16959  29.885   8.157   8.550
 5514POPC   D2A16960  29.896   8.229   8.250
 5514POPC   C3A16961  29.874   8.211   7.950
 5514POPC   C4A16962  29.894   8.170   7.650
 5514POPC   C1B16963  30.050   8.436   8.550
 5514POPC   C2B16964  30.038   8.393   8.250
 5514POPC   C3B16965  30.030   8.418   7.950
 5514POPC   C4B16966  30.066   8.385   7.650
 5515POPC   NC316967  25.229  28.386   9.450
 5515POPC   PO416968  25.280  28.338   9.150
 5515POPC   GL116969  25.255  28.383   8.850
 5515POPC   GL216970  25.385  28.365   8.850
 5515POPC   C1A16971  25.251  28.398   8.550
 5515POPC   D2A16972  25.222  28.336   8.250
 5515POPC   C3A16973  25.290  28.409   7.950
 5515POPC   C4A16974  25.302  28.404   7.650
 5515POPC   C1B16975  25.514  28.279   8.550
 5515POPC   C2B16976  25.455  28.316   8.250
 5515POPC   C3B16977  25.478  28.274   7.950
 5515POPC   C4B16978  25.482  28.307   7.650
 5516POPC   NC316979  29.929  17.534   9.450
 5516POPC   PO416980  29.947  17.521   9.150
 5516POPC   GL116981  29.903  17.503   8.850
 5516POPC   GL216982  30.081  17.495   8.850
 5516POPC   C1A16983  29.953  17.473   8.550
 5516POPC   D2A16984  29.920  17.517   8.250
 5516POPC   C3A16985  29.914  17.551   7.950
 5516POPC   C4A16986  29.921  17.536   7.650
 5516POPC   C1B16987  30.152  17.430   8.550
 5516POPC   C2B16988  30.123  17.514   8.250
 5516POPC   C3B16989  30.138  17.471   7.950
 5516POPC   C4B16990  30.176  17.427   7.650
 5517POPC   NC316991  43.898  23.704   9.450
 5517POPC   PO416992  43.911  23.722   9.150
 5517POPC   GL116993  43.918  23.739   8.850
 5517POPC   GL216994  43.785  23.597   8.850
 5517POPC   C1A16995  43.855  23.752   8.550
 5517POPC   D2A16996  43.867  23.668   8.250
 5517POPC   C3A16997  43.861  23.678   7.950
 5517POPC   C4A16998  43.907  23.725   7.650
 5517POPC   C1B16999  43.663  23.570   8.550
 5517POPC   C2B17000  43.662  23.546   8.250
 5517POPC   C3B17001  43.679  23.540   7.950
 5517POPC   C4B17002  43.754  23.541   7.650
 5518POPC   NC317003  10.503  39.192   9.450
 5518POPC   PO417004  10.513  39.263   9.150
 5518POPC   GL117005  10.517  39.231   8.850
 5518POPC   GL217006  10.365  39.217   8.850
 5518POPC   C1A17007  10.507  39.275   8.550
 5518POPC   D2A17008  10.478  39.203   8.250
 5518POPC   C3A17009  10.565  39.193   7.950
 5518POPC   C4A17010  10.475  39.186   7.650
 5518POPC   C1B17011  10.271  39.251   8.550
 5518POPC   C2B17012  10.241  39.239   8.250
 5518POPC   C3B17013  10.308  39.180   7.950
 5518POPC   C4B17014  10.308  39.262   7.650
 5519POPC   NC317015  37.710   2.814   9.450
 5519POPC   PO417016  37.655   2.792   9.150
 5519POPC   GL117017  37.654   2.730   8.850
 5519POPC   GL217018  37.741   2.612   8.850
 5519POPC   C1A17019  37.646   2.798   8.550
 5519POPC   D2A17020  37.674   2.749   8.250
 5519POPC   C3A17021  37.720   2.745   7.950
 5519POPC   C4A17022  37.719   2.799   7.650
 5519POPC   C1B17023  37.794   2.573   8.550
 5519POPC   C2B17024  37.791   2.521   8.250
 5519POPC   C3B17025  37.824   2.517   7.950
 5519POPC   C4B17026  37.852   2.536   7.650
 5520POPC   NC317027  39.990  10.489   9.450
 5520POPC   PO417028  40.038  10.501   9.150
 5520POPC   GL117029  39.991  10.512   8.850
 5520POPC   GL217030  39.980  10.423   8.850
 5520POPC   C1A17031  40.002  10.495   8.550
 5520POPC   D2A17032  39.960  10.560   8.250
 5520POPC   C3A17033  39.967  10.516   7.950
 5520POPC   C4A17034  40.047  10.509   7.650
 5520POPC   C1B17035  39.872  10.278   8.550
 5520POPC   C2B17036  39.872  10.251   8.250
 5520POPC   C3B17037  39.943  10.287   7.950
 5520POPC   C4B17038  39.877  10.271   7.650
 5521POPC   NC317039  42.309  24.514   9.450
 5521POPC   PO417040  42.343  24.463   9.150
 5521POPC   GL117041  42.289  24.486   8.850
 5521POPC   GL217042  42.408  24.611   8.850
 5521POPC   C1A17043  42.365  24.504   8.550
 5521POPC   D2A17044  42.329  24.513   8.250
 5521POPC   C3A17045  42.353  24.450   7.950
 5521POPC   C4A17046  42.383  24.465   7.650
 5521POPC   C1B17047  42.417  24.746   8.550
 5521POPC   C2B17048  42.457  24.704   8.250
 5521POPC   C3B17049  42.390  24.729   7.950
 5521POPC   C4B17050  42.393  24.685   7.650
 5522POPC   NC317051   4.336  42.384   9.450
 5522POPC   PO417052   4.278  42.329   9.150
 5522POPC   GL117053   4.291  42.361   8.850
 5522POPC   GL217054   4.260  42.491   8.850
 5522POPC   C1A17055   4.326  42.374   8.550
 5522POPC   D2A17056   4.268  42.287   8.250
 5522POPC   C3A17057   4.309  42.315   7.950
 5522POPC   C4A17058   4.284  42.330   7.650
 5522POPC   C1B17059   4.278  42.593   8.550
 5522POPC   C2B17060   4.244  42.532   8.250
 5522POPC   C3B17061   4.275  42.598   7.950
 5522POPC   C4B17062   4.251  42.537   7.650
 5523POPC   NC317063  31.510   8.225   9.450
 5523POPC   PO417064  31.462   8.181   9.150
 5523POPC   GL117065  31.426   8.203   8.850
 5523POPC   GL217066  31.586   8.229   8.850
 5523POPC   C1A17067  31.518   8.213   8.550
 5523POPC   D2A17068  31.490   8.175   8.250
 5523POPC   C3A17069  31.475   8.218   7.950
 5523POPC   C4A17070  31.458   8.246   7.650
 5523POPC   C1B17071  31.734   8.198   8.550
 5523POPC   C2B17072  31.685   8.220   8.250
 5523POPC   C3B17073  31.679   8.195   7.950
 5523POPC   C4B17074  31.746   8.168   7.650
 5524POPC   NC317075  22.911  33.799   9.450
 5524POPC   PO417076  22.962  33.842   9.150
 5524POPC   GL117077  22.984  33.818   8.850
 5524POPC   GL217078  22.969  33.902   8.850
 5524POPC   C1A17079  22.908  33.814   8.550
 5524POPC   D2A17080  22.928  33.790   8.250
 5524POPC   C3A17081  22.968  33.825   7.950
 5524POPC   C4A17082  22.915  33.762   7.650
 5524POPC   C1B17083  22.979  34.047   8.550
 5524POPC   C2B17084  23.011  34.044   8.250
 5524POPC   C3B17085  22.972  34.069   7.950
 5524POPC   C4B17086  23.051  34.022   7.650
 5525POPC   NC317087  43.920   7.395   9.450
 5525POPC   PO417088  43.927   7.385   9.150
 5525POPC   GL117089  43.857   7.383   8.850
 5525POPC   GL217090  43.738   7.410   8.850
 5525POPC   C1A17091  43.913   7.439   8.550
 5525POPC   D2A17092  43.925   7.447   8.250
 5525POPC   C3A17093  43.900   7.465   7.950
 5525POPC   C4A17094  43.888   7.442   7.650
 5525POPC   C1B17095  43.648   7.418   8.550
 5525POPC   C2B17096  43.636   7.402   8.250
 5525POPC   C3B17097  43.672   7.425   7.950
 5525POPC   C4B17098  43.607   7.402   7.650
 5526POPC   NC317099   5.853  19.838   9.450
 5526POPC   PO417100   5.882  19.871   9.150
 5526POPC   GL117101   5.850  19.828   8.850
 5526POPC   GL217102   5.954  19.790   8.850
 5526POPC   C1A17103   5.896  19.792   8.550
 5526POPC   D2A17104   5.916  19.830   8.250
 5526POPC   C3A17105   5.869  19.786   7.950
 5526POPC   C4A17106   5.869  19.785   7.650
 5526POPC   C1B17107   6.085  19.663   8.550
 5526POPC   C2B17108   6.083  19.695   8.250
 5526POPC   C3B17109   6.071  19.706   7.950
 5526POPC   C4B17110   6.012  19.670   7.650
 5527POPC   NC317111  12.897  43.105   9.450
 5527POPC   PO417112  12.894  43.061   9.150
 5527POPC   GL117113  12.893  43.079   8.850
 5527POPC   GL217114  12.704  43.063   8.850
 5527POPC   C1A17115  12.814  43.091   8.550
 5527POPC   D2A17116  12.864  43.145   8.250
 5527POPC   C3A17117  12.887  43.127   7.950
 5527POPC   C4A17118  12.825  43.085   7.650
 5527POPC   C1B17119  12.614  43.008   8.550
 5527POPC   C2B17120  12.604  42.993   8.250
 5527POPC   C3B17121  12.580  43.058   7.950
 5527POPC   C4B17122  12.569  43.059   7.650
 5528POPC   NC317123  38.501  26.846   9.450
 5528POPC   PO417124  38.468  26.820   9.150
 5528POPC   GL117125  38.467  26.858   8.850
 5528POPC   GL217126  38.377  26.901   8.850
 5528POPC   C1A17127  38.437  26.784   8.550
 5528POPC   D2A17128  38.432  26.815   8.250
 5528POPC   C3A17129  38.503  26.799   7.950
 5528POPC   C4A17130  38.495  26.842   7.650
 5528POPC   C1B17131  38.366  27.038   8.550
 5528POPC   C2B17132  38.294  27.027   8.250
 5528POPC   C3B17133  38.291  27.010   7.950
 5528POPC   C4B17134  38.274  27.006   7.650
 5529POPC   NC317135   5.129  34.541   9.450
 5529POPC   PO417136   5.111  34.583   9.150
 5529POPC   GL117137   5.046  34.532   8.850
 5529POPC   GL217138   5.168  34.537   8.850
 5529POPC   C1A17139   5.112  34.573   8.550
 5529POPC   D2A17140   5.088  34.570   8.250
 5529POPC   C3A17141   5.094  34.607   7.950
 5529POPC   C4A17142   5.071  34.609   7.650
 5529POPC   C1B17143   5.348  34.464   8.550
 5529POPC   C2B17144   5.332  34.441   8.250
 5529POPC   C3B17145   5.360  34.467   7.950
 5529POPC   C4B17146   5.313  34.504   7.650
 5530POPC   NC317147  38.491   0.475   9.450
 5530POPC   PO417148  38.426   0.405   9.150
 5530POPC   GL117149  38.416   0.427   8.850
 5530POPC   GL217150  38.347   0.349   8.850
 5530POPC   C1A17151  38.431   0.449   8.550
 5530POPC   D2A17152  38.410   0.448   8.250
 5530POPC   C3A17153  38.467   0.475   7.950
 5530POPC   C4A17154  38.471   0.462   7.650
 5530POPC   C1B17155  38.289   0.297   8.550
 5530POPC   C2B17156  38.257   0.350   8.250
 5530POPC   C3B17157  38.245   0.292   7.950
 5530POPC   C4B17158  38.293   0.336   7.650
 5531POPC   NC317159   6.633  31.519   9.450
 5531POPC   PO417160   6.665  31.500   9.150
 5531POPC   GL117161   6.627  31.448   8.850
 5531POPC   GL217162   6.752  31.430   8.850
 5531POPC   C1A17163   6.691  31.461   8.550
 5531POPC   D2A17164   6.639  31.464   8.250
 5531POPC   C3A17165   6.598  31.480   7.950
 5531POPC   C4A17166   6.616  31.451   7.650
 5531POPC   C1B17167   6.873  31.307   8.550
 5531POPC   C2B17168   6.853  31.318   8.250
 5531POPC   C3B17169   6.873  31.324   7.950
 5531POPC   C4B17170   6.846  31.267   7.650
 5532POPC   NC317171   0.424  19.796   9.450
 5532POPC   PO417172   0.403  19.880   9.150
 5532POPC   GL117173   0.486  19.874   8.850
 5532POPC   GL217174   0.397  19.731   8.850
 5532POPC   C1A17175   0.452  19.806   8.550
 5532POPC   D2A17176   0.440  19.872   8.250
 5532POPC   C3A17177   0.480  19.847   7.950
 5532POPC   C4A17178   0.433  19.839   7.650
 5532POPC   C1B17179   0.315  19.604   8.550
 5532POPC   C2B17180   0.326  19.569   8.250
 5532POPC   C3B17181   0.343  19.571   7.950
 5532POPC   C4B17182   0.367  19.564   7.650
 5533POPC   NC317183  31.486  32.989   9.450
 5533POPC   PO417184  31.457  33.017   9.150
 5533POPC   GL117185  31.453  33.066   8.850
 5533POPC   GL217186  31.567  32.908   8.850
 5533POPC   C1A17187  31.520  33.029   8.550
 5533POPC   D2A17188  31.500  33.065   8.250
 5533POPC   C3A17189  31.437  33.025   7.950
 5533POPC   C4A17190  31.501  33.052   7.650
 5533POPC   C1B17191  31.722  32.830   8.550
 5533POPC   C2B17192  31.665  32.858   8.250
 5533POPC   C3B17193  31.684  32.891   7.950
 5533POPC   C4B17194  31.717  32.879   7.650
 5534POPC   NC317195   5.866  39.194   9.450
 5534POPC   PO417196   5.869  39.189   9.150
 5534POPC   GL117197   5.851  39.228   8.850
 5534POPC   GL217198   5.986  39.179   8.850
 5534POPC   C1A17199   5.888  39.246   8.550
 5534POPC   D2A17200   5.834  39.264   8.250
 5534POPC   C3A17201   5.823  39.193   7.950
 5534POPC   C4A17202   5.870  39.221   7.650
 5534POPC   C1B17203   6.040  39.098   8.550
 5534POPC   C2B17204   6.007  39.055   8.250
 5534POPC   C3B17205   6.006  39.048   7.950
 5534POPC   C4B17206   6.062  39.034   7.650
 5535POPC   NC317207  33.771  19.799   9.450
 5535POPC   PO417208  33.843  19.833   9.150
 5535POPC   GL117209  33.799  19.857   8.850
 5535POPC   GL217210  33.709  19.898   8.850
 5535POPC   C1A17211  33.803  19.809   8.550
 5535POPC   D2A17212  33.769  19.861   8.250
 5535POPC   C3A17213  33.815  19.845   7.950
 5535POPC   C4A17214  33.778  19.791   7.650
 5535POPC   C1B17215  33.535  19.964   8.550
 5535POPC   C2B17216  33.586  19.971   8.250
 5535POPC   C3B17217  33.542  19.954   7.950
 5535POPC   C4B17218  33.566  19.897   7.650
 5536POPC   NC317219  11.318  21.337   9.450
 5536POPC   PO417220  11.275  21.429   9.150
 5536POPC   GL117221  11.305  21.350   8.850
 5536POPC   GL217222  11.436  21.265   8.850
 5536POPC   C1A17223  11.343  21.355   8.550
 5536POPC   D2A17224  11.260  21.340   8.250
 5536POPC   C3A17225  11.278  21.380   7.950
 5536POPC   C4A17226  11.311  21.371   7.650
 5536POPC   C1B17227  11.529  21.254   8.550
 5536POPC   C2B17228  11.454  21.166   8.250
 5536POPC   C3B17229  11.473  21.192   7.950
 5536POPC   C4B17230  11.469  21.178   7.650
 5537POPC   NC317231  32.275   4.295   9.450
 5537POPC   PO417232  32.244   4.347   9.150
 5537POPC   GL117233  32.202   4.275   8.850
 5537POPC   GL217234  32.355   4.359   8.850
 5537POPC   C1A17235  32.236   4.284   8.550
 5537POPC   D2A17236  32.249   4.306   8.250
 5537POPC   C3A17237  32.216   4.305   7.950
 5537POPC   C4A17238  32.287   4.353   7.650
 5537POPC   C1B17239  32.393   4.454   8.550
 5537POPC   C2B17240  32.428   4.482   8.250
 5537POPC   C3B17241  32.407   4.466   7.950
 5537POPC   C4B17242  32.415   4.518   7.650
 5538POPC   NC317243   1.971  39.244   9.450
 5538POPC   PO417244   1.950  39.208   9.150
 5538POPC   GL117245   2.028  39.210   8.850
 5538POPC   GL217246   2.002  39.375   8.850
 5538POPC   C1A17247   1.953  39.273   8.550
 5538POPC   D2A17248   1.943  39.187   8.250
 5538POPC   C3A17249   2.018  39.263   7.950
 5538POPC   C4A17250   1.958  39.244   7.650
 5538POPC   C1B17251   2.077  39.429   8.550
 5538POPC   C2B17252   2.132  39.512   8.250
 5538POPC   C3B17253   2.135  39.497   7.950
 5538POPC   C4B17254   2.124  39.461   7.650
 5539POPC   NC317255  12.833  10.481   9.450
 5539POPC   PO417256  12.813  10.491   9.150
 5539POPC   GL117257  12.810  10.494   8.850
 5539POPC   GL217258  12.925  10.453   8.850
 5539POPC   C1A17259  12.872  10.526   8.550
 5539POPC   D2A17260  12.870  10.509   8.250
 5539POPC   C3A17261  12.832  10.531   7.950
 5539POPC   C4A17262  12.828  10.542   7.650
 5539POPC   C1B17263  13.032  10.287   8.550
 5539POPC   C2B17264  12.987  10.330   8.250
 5539POPC   C3B17265  12.993  10.309   7.950
 5539POPC   C4B17266  13.036  10.320   7.650
 5540POPC   NC317267  21.379   5.067   9.450
 5540POPC   PO417268  21.413   5.111   9.150
 5540POPC   GL117269  21.345   5.093   8.850
 5540POPC   GL217270  21.517   5.082   8.850
 5540POPC   C1A17271  21.362   5.112   8.550
 5540POPC   D2A17272  21.367   5.051   8.250
 5540POPC   C3A17273  21.434   5.044   7.950
 5540POPC   C4A17274  21.370   5.060   7.650
 5540POPC   C1B17275  21.653   5.149   8.550
 5540POPC   C2B17276  21.599   5.172   8.250
 5540POPC   C3B17277  21.625   5.140   7.950
 5540POPC   C4B17278  21.654   5.169   7.650
 5541POPC   NC317279  29.123  39.277   9.450
 5541POPC   PO417280  29.173  39.253   9.150
 5541POPC   GL117281  29.135  39.218   8.850
 5541POPC   GL217282  29.286  39.251   8.850
 5541POPC   C1A17283  29.194  39.259   8.550
 5541POPC   D2A17284  29.132  39.193   8.250
 5541POPC   C3A17285  29.182  39.213   7.950
 5541POPC   C4A17286  29.191  39.238   7.650
 5541POPC   C1B17287  29.418  39.194   8.550
 5541POPC   C2B17288  29.352  39.244   8.250
 5541POPC   C3B17289  29.437  39.192   7.950
 5541POPC   C4B17290  29.394  39.198   7.650
 5542POPC   NC317291  16.726  33.045   9.450
 5542POPC   PO417292  16.704  33.054   9.150
 5542POPC   GL117293  16.693  32.975   8.850
 5542POPC   GL217294  16.696  32.885   8.850
 5542POPC   C1A17295  16.768  33.056   8.550
 5542POPC   D2A17296  16.720  33.004   8.250
 5542POPC   C3A17297  16.705  32.992   7.950
 5542POPC   C4A17298  16.687  33.008   7.650
 5542POPC   C1B17299  16.703  32.829   8.550
 5542POPC   C2B17300  16.668  32.756   8.250
 5542POPC   C3B17301  16.680  32.787   7.950
 5542POPC   C4B17302  16.683  32.746   7.650
 5543POPC   NC317303   9.021  30.726   9.450
 5543POPC   PO417304   8.947  30.681   9.150
 5543POPC   GL117305   8.929  30.657   8.850
 5543POPC   GL217306   9.019  30.819   8.850
 5543POPC   C1A17307   9.008  30.708   8.550
 5543POPC   D2A17308   8.983  30.667   8.250
 5543POPC   C3A17309   9.015  30.739   7.950
 5543POPC   C4A17310   8.926  30.743   7.650
 5543POPC   C1B17311   9.046  30.918   8.550
 5543POPC   C2B17312   8.986  30.940   8.250
 5543POPC   C3B17313   9.049  30.962   7.950
 5543POPC   C4B17314   8.994  30.897   7.650
 5544POPC   NC317315   8.239  40.052   9.450
 5544POPC   PO417316   8.229  40.055   9.150
 5544POPC   GL117317   8.149  40.007   8.850
 5544POPC   GL217318   8.166  40.154   8.850
 5544POPC   C1A17319   8.164  40.031   8.550
 5544POPC   D2A17320   8.237  39.985   8.250
 5544POPC   C3A17321   8.230  40.003   7.950
 5544POPC   C4A17322   8.156  39.974   7.650
 5544POPC   C1B17323   8.133  40.203   8.550
 5544POPC   C2B17324   8.133  40.185   8.250
 5544POPC   C3B17325   8.063  40.274   7.950
 5544POPC   C4B17326   8.058  40.272   7.650
 5545POPC   NC317327  16.740  43.070   9.450
 5545POPC   PO417328  16.713  43.128   9.150
 5545POPC   GL117329  16.700  43.160   8.850
 5545POPC   GL217330  16.819  43.136   8.850
 5545POPC   C1A17331  16.760  43.106   8.550
 5545POPC   D2A17332  16.732  43.130   8.250
 5545POPC   C3A17333  16.756  43.125   7.950
 5545POPC   C4A17334  16.764  43.083   7.650
 5545POPC   C1B17335  16.950  43.089   8.550
 5545POPC   C2B17336  16.971  43.146   8.250
 5545POPC   C3B17337  17.007  43.062   7.950
 5545POPC   C4B17338  16.968  43.118   7.650
 5546POPC   NC317339  19.067   1.197   9.450
 5546POPC   PO417340  19.072   1.253   9.150
 5546POPC   GL117341  19.091   1.243   8.850
 5546POPC   GL217342  19.129   1.307   8.850
 5546POPC   C1A17343  19.068   1.236   8.550
 5546POPC   D2A17344  19.089   1.186   8.250
 5546POPC   C3A17345  19.078   1.183   7.950
 5546POPC   C4A17346  19.102   1.177   7.650
 5546POPC   C1B17347  19.311   1.353   8.550
 5546POPC   C2B17348  19.322   1.306   8.250
 5546POPC   C3B17349  19.328   1.359   7.950
 5546POPC   C4B17350  19.318   1.333   7.650
 5547POPC   NC317351  28.370  36.080   9.450
 5547POPC   PO417352  28.408  36.173   9.150
 5547POPC   GL117353  28.367  36.131   8.850
 5547POPC   GL217354  28.248  36.083   8.850
 5547POPC   C1A17355  28.383  36.081   8.550
 5547POPC   D2A17356  28.378  36.127   8.250
 5547POPC   C3A17357  28.378  36.080   7.950
 5547POPC   C4A17358  28.356  36.118   7.650
 5547POPC   C1B17359  28.194  35.996   8.550
 5547POPC   C2B17360  28.187  35.979   8.250
 5547POPC   C3B17361  28.126  36.053   7.950
 5547POPC   C4B17362  28.122  36.028   7.650
 5548POPC   NC317363  27.614  31.511   9.450
 5548POPC   PO417364  27.603  31.452   9.150
 5548POPC   GL117365  27.599  31.444   8.850
 5548POPC   GL217366  27.539  31.385   8.850
 5548POPC   C1A17367  27.578  31.437   8.550
 5548POPC   D2A17368  27.601  31.511   8.250
 5548POPC   C3A17369  27.606  31.503   7.950
 5548POPC   C4A17370  27.618  31.445   7.650
 5548POPC   C1B17371  27.462  31.240   8.550
 5548POPC   C2B17372  27.399  31.287   8.250
 5548POPC   C3B17373  27.417  31.277   7.950
 5548POPC   C4B17374  27.404  31.302   7.650
 5549POPC   NC317375   3.498   9.725   9.450
 5549POPC   PO417376   3.504   9.727   9.150
 5549POPC   GL117377   3.539   9.782   8.850
 5549POPC   GL217378   3.631   9.879   8.850
 5549POPC   C1A17379   3.509   9.734   8.550
 5549POPC   D2A17380   3.557   9.754   8.250
 5549POPC   C3A17381   3.518   9.736   7.950
 5549POPC   C4A17382   3.542   9.743   7.650
 5549POPC   C1B17383   3.684   9.983   8.550
 5549POPC   C2B17384   3.702   9.908   8.250
 5549POPC   C3B17385   3.717   9.906   7.950
 5549POPC   C4B17386   3.725   9.976   7.650
 5550POPC   NC317387  37.647   8.947   9.450
 5550POPC   PO417388  37.655   8.977   9.150
 5550POPC   GL117389  37.695   8.943   8.850
 5550POPC   GL217390  37.783   9.122   8.850
 5550POPC   C1A17391  37.676   9.017   8.550
 5550POPC   D2A17392  37.667   8.971   8.250
 5550POPC   C3A17393  37.663   9.013   7.950
 5550POPC   C4A17394  37.719   9.020   7.650
 5550POPC   C1B17395  37.815   9.226   8.550
 5550POPC   C2B17396  37.778   9.182   8.250
 5550POPC   C3B17397  37.769   9.205   7.950
 5550POPC   C4B17398  37.809   9.152   7.650
 5551POPC   NC317399  23.728  17.553   9.450
 5551POPC   PO417400  23.743  17.552   9.150
 5551POPC   GL117401  23.732  17.464   8.850
 5551POPC   GL217402  23.600  17.465   8.850
 5551POPC   C1A17403  23.750  17.494   8.550
 5551POPC   D2A17404  23.748  17.544   8.250
 5551POPC   C3A17405  23.737  17.550   7.950
 5551POPC   C4A17406  23.757  17.555   7.650
 5551POPC   C1B17407  23.441  17.502   8.550
 5551POPC   C2B17408  23.448  17.557   8.250
 5551POPC   C3B17409  23.422  17.555   7.950
 5551POPC   C4B17410  23.446  17.496   7.650
 5552POPC   NC317411  43.928  29.948   9.450
 5552POPC   PO417412  43.841  29.920   9.150
 5552POPC   GL117413  43.903  29.887   8.850
 5552POPC   GL217414  43.850  29.764   8.850
 5552POPC   C1A17415  43.882  29.908   8.550
 5552POPC   D2A17416  43.881  29.892   8.250
 5552POPC   C3A17417  43.862  29.930   7.950
 5552POPC   C4A17418  43.919  29.873   7.650
 5552POPC   C1B17419  43.874  29.671   8.550
 5552POPC   C2B17420  43.830  29.696   8.250
 5552POPC   C3B17421  43.844  29.720   7.950
 5552POPC   C4B17422  43.890  29.678   7.650
 5553POPC   NC317423   5.108  36.925   9.450
 5553POPC   PO417424   5.096  36.921   9.150
 5553POPC   GL117425   5.105  36.882   8.850
 5553POPC   GL217426   5.103  37.050   8.850
 5553POPC   C1A17427   5.125  36.907   8.550
 5553POPC   D2A17428   5.058  36.890   8.250
 5553POPC   C3A17429   5.123  36.881   7.950
 5553POPC   C4A17430   5.087  36.855   7.650
 5553POPC   C1B17431   5.066  37.184   8.550
 5553POPC   C2B17432   5.039  37.192   8.250
 5553POPC   C3B17433   5.029  37.165   7.950
 5553POPC   C4B17434   5.073  37.139   7.650
 5554POPC   NC317435   8.208  10.488   9.450
 5554POPC   PO417436   8.206  10.558   9.150
 5554POPC   GL117437   8.238  10.562   8.850
 5554POPC   GL217438   8.200  10.438   8.850
 5554POPC   C1A17439   8.160  10.510   8.550
 5554POPC   D2A17440   8.224  10.554   8.250
 5554POPC   C3A17441   8.195  10.539   7.950
 5554POPC   C4A17442   8.195  10.504   7.650
 5554POPC   C1B17443   8.292  10.302   8.550
 5554POPC   C2B17444   8.255  10.247   8.250
 5554POPC   C3B17445   8.257  10.245   7.950
 5554POPC   C4B17446   8.307  10.279   7.650
 5555POPC   NC317447  14.406  17.483   9.450
 5555POPC   PO417448  14.413  17.479   9.150
 5555POPC   GL117449  14.450  17.523   8.850
 5555POPC   GL217450  14.318  17.554   8.850
 5555POPC   C1A17451  14.437  17.463   8.550
 5555POPC   D2A17452  14.409  17.507   8.250
 5555POPC   C3A17453  14.446  17.500   7.950
 5555POPC   C4A17454  14.410  17.537   7.650
 5555POPC   C1B17455  14.195  17.717   8.550
 5555POPC   C2B17456  14.230  17.723   8.250
 5555POPC   C3B17457  14.213  17.642   7.950
 5555POPC   C4B17458  14.274  17.652   7.650
 5556POPC   NC317459   3.568  22.940   9.450
 5556POPC   PO417460   3.492  22.930   9.150
 5556POPC   GL117461   3.500  22.972   8.850
 5556POPC   GL217462   3.631  22.994   8.850
 5556POPC   C1A17463   3.500  22.930   8.550
 5556POPC   D2A17464   3.583  22.976   8.250
 5556POPC   C3A17465   3.505  22.963   7.950
 5556POPC   C4A17466   3.587  22.915   7.650
 5556POPC   C1B17467   3.747  23.035   8.550
 5556POPC   C2B17468   3.836  23.014   8.250
 5556POPC   C3B17469   3.764  22.948   7.950
 5556POPC   C4B17470   3.770  22.999   7.650
 5557POPC   NC317471  10.483   6.674   9.450
 5557POPC   PO417472  10.498   6.690   9.150
 5557POPC   GL117473  10.482   6.659   8.850
 5557POPC   GL217474  10.411   6.692   8.850
 5557POPC   C1A17475  10.560   6.648   8.550
 5557POPC   D2A17476  10.519   6.619   8.250
 5557POPC   C3A17477  10.540   6.624   7.950
 5557POPC   C4A17478  10.567   6.614   7.650
 5557POPC   C1B17479  10.295   6.734   8.550
 5557POPC   C2B17480  10.331   6.752   8.250
 5557POPC   C3B17481  10.301   6.765   7.950
 5557POPC   C4B17482  10.273   6.695   7.650
 5558POPC   NC317483  11.299  23.734   9.450
 5558POPC   PO417484  11.252  23.675   9.150
 5558POPC   GL117485  11.320  23.691   8.850
 5558POPC   GL217486  11.166  23.675   8.850
 5558POPC   C1A17487  11.330  23.738   8.550
 5558POPC   D2A17488  11.288  23.674   8.250
 5558POPC   C3A17489  11.321  23.693   7.950
 5558POPC   C4A17490  11.331  23.732   7.650
 5558POPC   C1B17491  11.024  23.586   8.550
 5558POPC   C2B17492  11.066  23.616   8.250
 5558POPC   C3B17493  11.024  23.671   7.950
 5558POPC   C4B17494  11.066  23.639   7.650
 5559POPC   NC317495  43.860   1.191   9.450
 5559POPC   PO417496  43.841   1.217   9.150
 5559POPC   GL117497  43.921   1.190   8.850
 5559POPC   GL217498  43.831   1.339   8.850
 5559POPC   C1A17499  43.871   1.182   8.550
 5559POPC   D2A17500  43.903   1.224   8.250
 5559POPC   C3A17501  43.838   1.251   7.950
 5559POPC   C4A17502  43.900   1.234   7.650
 5559POPC   C1B17503  43.870   1.493   8.550
 5559POPC   C2B17504  43.837   1.465   8.250
 5559POPC   C3B17505  43.884   1.496   7.950
 5559POPC   C4B17506  43.863   1.453   7.650
 5560POPC   NC317507  36.106   1.233   9.450
 5560POPC   PO417508  36.119   1.260   9.150
 5560POPC   GL117509  36.137   1.231   8.850
 5560POPC   GL217510  36.131   1.132   8.850
 5560POPC   C1A17511  36.174   1.257   8.550
 5560POPC   D2A17512  36.078   1.191   8.250
 5560POPC   C3A17513  36.135   1.238   7.950
 5560POPC   C4A17514  36.108   1.198   7.650
 5560POPC   C1B17515  36.204   0.987   8.550
 5560POPC   C2B17516  36.120   0.969   8.250
 5560POPC   C3B17517  36.202   0.949   7.950
 5560POPC   C4B17518  36.150   0.941   7.650
 5561POPC   NC317519  36.921   1.221   9.450
 5561POPC   PO417520  36.919   1.191   9.150
 5561POPC   GL117521  36.919   1.234   8.850
 5561POPC   GL217522  36.886   1.308   8.850
 5561POPC   C1A17523  36.930   1.240   8.550
 5561POPC   D2A17524  36.907   1.209   8.250
 5561POPC   C3A17525  36.906   1.212   7.950
 5561POPC   C4A17526  36.939   1.209   7.650
 5561POPC   C1B17527  36.879   1.476   8.550
 5561POPC   C2B17528  36.865   1.417   8.250
 5561POPC   C3B17529  36.885   1.492   7.950
 5561POPC   C4B17530  36.949   1.442   7.650
 5562POPC   NC317531  43.071   8.214   9.450
 5562POPC   PO417532  43.099   8.228   9.150
 5562POPC   GL117533  43.106   8.147   8.850
 5562POPC   GL217534  43.032   8.130   8.850
 5562POPC   C1A17535  43.116   8.160   8.550
 5562POPC   D2A17536  43.078   8.213   8.250
 5562POPC   C3A17537  43.137   8.182   7.950
 5562POPC   C4A17538  43.070   8.194   7.650
 5562POPC   C1B17539  43.016   8.005   8.550
 5562POPC   C2B17540  43.004   8.028   8.250
 5562POPC   C3B17541  42.931   7.957   7.950
 5562POPC   C4B17542  43.017   7.939   7.650
 5563POPC   NC317543   5.900  40.803   9.450
 5563POPC   PO417544   5.829  40.811   9.150
 5563POPC   GL117545   5.883  40.793   8.850
 5563POPC   GL217546   5.713  40.874   8.850
 5563POPC   C1A17547   5.823  40.804   8.550
 5563POPC   D2A17548   5.865  40.812   8.250
 5563POPC   C3A17549   5.895  40.765   7.950
 5563POPC   C4A17550   5.862  40.815   7.650
 5563POPC   C1B17551   5.673  40.863   8.550
 5563POPC   C2B17552   5.673  40.856   8.250
 5563POPC   C3B17553   5.671  40.823   7.950
 5563POPC   C4B17554   5.677  40.828   7.650
 5564POPC   NC317555  11.299   8.993   9.450
 5564POPC   PO417556  11.341   8.998   9.150
 5564POPC   GL117557  11.341   9.003   8.850
 5564POPC   GL217558  11.281   9.121   8.850
 5564POPC   C1A17559  11.304   9.016   8.550
 5564POPC   D2A17560  11.311   8.989   8.250
 5564POPC   C3A17561  11.330   9.018   7.950
 5564POPC   C4A17562  11.253   8.985   7.650
 5564POPC   C1B17563  11.186   9.241   8.550
 5564POPC   C2B17564  11.219   9.162   8.250
 5564POPC   C3B17565  11.249   9.221   7.950
 5564POPC   C4B17566  11.226   9.241   7.650
 5565POPC   NC317567  40.045  40.770   9.450
 5565POPC   PO417568  39.972  40.744   9.150
 5565POPC   GL117569  40.019  40.807   8.850
 5565POPC   GL217570  39.941  40.836   8.850
 5565POPC   C1A17571  40.036  40.820   8.550
 5565POPC   D2A17572  39.974  40.807   8.250
 5565POPC   C3A17573  39.966  40.780   7.950
 5565POPC   C4A17574  39.966  40.804   7.650
 5565POPC   C1B17575  39.825  40.999   8.550
 5565POPC   C2B17576  39.836  40.985   8.250
 5565POPC   C3B17577  39.813  40.969   7.950
 5565POPC   C4B17578  39.806  40.996   7.650
 5566POPC   NC317579  35.338  32.214   9.450
 5566POPC   PO417580  35.369  32.269   9.150
 5566POPC   GL117581  35.317  32.283   8.850
 5566POPC   GL217582  35.259  32.283   8.850
 5566POPC   C1A17583  35.312  32.286   8.550
 5566POPC   D2A17584  35.334  32.229   8.250
 5566POPC   C3A17585  35.343  32.285   7.950
 5566POPC   C4A17586  35.365  32.264   7.650
 5566POPC   C1B17587  35.126  32.339   8.550
 5566POPC   C2B17588  35.185  32.363   8.250
 5566POPC   C3B17589  35.142  32.379   7.950
 5566POPC   C4B17590  35.173  32.410   7.650
 5567POPC   NC317591  33.848  43.145   9.450
 5567POPC   PO417592  33.758  43.095   9.150
 5567POPC   GL117593  33.821  43.074   8.850
 5567POPC   GL217594  33.822  42.973   8.850
 5567POPC   C1A17595  33.752  43.085   8.550
 5567POPC   D2A17596  33.821  43.141   8.250
 5567POPC   C3A17597  33.793  43.100   7.950
 5567POPC   C4A17598  33.845  43.116   7.650
 5567POPC   C1B17599  33.754  42.876   8.550
 5567POPC   C2B17600  33.786  42.910   8.250
 5567POPC   C3B17601  33.723  42.855   7.950
 5567POPC   C4B17602  33.711  42.879   7.650
 5568POPC   NC317603   2.006  26.075   9.450
 5568POPC   PO417604   2.038  26.035   9.150
 5568POPC   GL117605   1.957  26.056   8.850
 5568POPC   GL217606   2.106  26.009   8.850
 5568POPC   C1A17607   1.996  26.048   8.550
 5568POPC   D2A17608   1.957  26.005   8.250
 5568POPC   C3A17609   2.028  26.062   7.950
 5568POPC   C4A17610   1.970  26.022   7.650
 5568POPC   C1B17611   2.230  26.007   8.550
 5568POPC   C2B17612   2.192  26.000   8.250
 5568POPC   C3B17613   2.179  25.966   7.950
 5568POPC   C4B17614   2.199  25.924   7.650
 5569POPC   NC317615  21.383  13.659   9.450
 5569POPC   PO417616  21.352  13.617   9.150
 5569POPC   GL117617  21.426  13.602   8.850
 5569POPC   GL217618  21.218  13.706   8.850
 5569POPC   C1A17619  21.361  13.665   8.550
 5569POPC   D2A17620  21.373  13.609   8.250
 5569POPC   C3A17621  21.427  13.594   7.950
 5569POPC   C4A17622  21.423  13.636   7.650
 5569POPC   C1B17623  21.184  13.660   8.550
 5569POPC   C2B17624  21.190  13.673   8.250
 5569POPC   C3B17625  21.160  13.690   7.950
 5569POPC   C4B17626  21.172  13.721   7.650
 5570POPC   NC317627  17.530  24.456   9.450
 5570POPC   PO417628  17.481  24.523   9.150
 5570POPC   GL117629  17.501  24.494   8.850
 5570POPC   GL217630  17.619  24.576   8.850
 5570POPC   C1A17631  17.556  24.490   8.550
 5570POPC   D2A17632  17.476  24.477   8.250
 5570POPC   C3A17633  17.549  24.535   7.950
 5570POPC   C4A17634  17.556  24.508   7.650
 5570POPC   C1B17635  17.743  24.611   8.550
 5570POPC   C2B17636  17.723  24.682   8.250
 5570POPC   C3B17637  17.707  24.672   7.950
 5570POPC   C4B17638  17.725  24.622   7.650
 5571POPC   NC317639  22.925   6.608   9.450
 5571POPC   PO417640  22.979   6.644   9.150
 5571POPC   GL117641  22.946   6.669   8.850
 5571POPC   GL217642  23.040   6.599   8.850
 5571POPC   C1A17643  22.916   6.598   8.550
 5571POPC   D2A17644  22.916   6.634   8.250
 5571POPC   C3A17645  22.897   6.614   7.950
 5571POPC   C4A17646  22.954   6.623   7.650
 5571POPC   C1B17647  23.213   6.642   8.550
 5571POPC   C2B17648  23.177   6.642   8.250
 5571POPC   C3B17649  23.226   6.642   7.950
 5571POPC   C4B17650  23.222   6.670   7.650
 5572POPC   NC317651  43.904  28.326   9.450
 5572POPC   PO417652  43.865  28.378   9.150
 5572POPC   GL117653  43.925  28.338   8.850
 5572POPC   GL217654  43.963  28.246   8.850
 5572POPC   C1A17655  43.855  28.330   8.550
 5572POPC   D2A17656  43.899  28.418   8.250
 5572POPC   C3A17657  43.930  28.412   7.950
 5572POPC   C4A17658  43.920  28.393   7.650
 5572POPC   C1B17659  44.023  28.116   8.550
 5572POPC   C2B17660  44.000  28.102   8.250
 5572POPC   C3B17661  43.976  28.093   7.950
 5572POPC   C4B17662  44.003  28.170   7.650
 5573POPC   NC317663   1.235   2.764   9.450
 5573POPC   PO417664   1.212   2.791   9.150
 5573POPC   GL117665   1.236   2.753   8.850
 5573POPC   GL217666   1.257   2.838   8.850
 5573POPC   C1A17667   1.189   2.769   8.550
 5573POPC   D2A17668   1.233   2.740   8.250
 5573POPC   C3A17669   1.196   2.799   7.950
 5573POPC   C4A17670   1.174   2.765   7.650
 5573POPC   C1B17671   1.400   3.004   8.550
 5573POPC   C2B17672   1.338   2.939   8.250
 5573POPC   C3B17673   1.358   2.935   7.950
 5573POPC   C4B17674   1.420   2.918   7.650
 5574POPC   NC317675  23.717  20.627   9.450
 5574POPC   PO417676  23.701  20.659   9.150
 5574POPC   GL117677  23.757  20.657   8.850
 5574POPC   GL217678  23.739  20.772   8.850
 5574POPC   C1A17679  23.713  20.582   8.550
 5574POPC   D2A17680  23.691  20.568   8.250
 5574POPC   C3A17681  23.669  20.620   7.950
 5574POPC   C4A17682  23.676  20.598   7.650
 5574POPC   C1B17683  23.758  20.884   8.550
 5574POPC   C2B17684  23.746  20.891   8.250
 5574POPC   C3B17685  23.740  20.883   7.950
 5574POPC   C4B17686  23.768  20.852   7.650
 5575POPC   NC317687  22.189  14.365   9.450
 5575POPC   PO417688  22.192  14.365   9.150
 5575POPC   GL117689  22.112  14.383   8.850
 5575POPC   GL217690  22.288  14.465   8.850
 5575POPC   C1A17691  22.184  14.393   8.550
 5575POPC   D2A17692  22.158  14.448   8.250
 5575POPC   C3A17693  22.186  14.370   7.950
 5575POPC   C4A17694  22.173  14.364   7.650
 5575POPC   C1B17695  22.387  14.563   8.550
 5575POPC   C2B17696  22.414  14.484   8.250
 5575POPC   C3B17697  22.372  14.482   7.950
 5575POPC   C4B17698  22.398  14.526   7.650
 5576POPC   NC317699  15.132  35.303   9.450
 5576POPC   PO417700  15.206  35.388   9.150
 5576POPC   GL117701  15.209  35.327   8.850
 5576POPC   GL217702  15.049  35.310   8.850
 5576POPC   C1A17703  15.220  35.370   8.550
 5576POPC   D2A17704  15.149  35.315   8.250
 5576POPC   C3A17705  15.197  35.391   7.950
 5576POPC   C4A17706  15.139  35.336   7.650
 5576POPC   C1B17707  14.902  35.372   8.550
 5576POPC   C2B17708  14.913  35.360   8.250
 5576POPC   C3B17709  14.929  35.293   7.950
 5576POPC   C4B17710  14.968  35.314   7.650
 5577POPC   NC317711  18.271  29.949   9.450
 5577POPC   PO417712  18.318  29.954   9.150
 5577POPC   GL117713  18.271  29.885   8.850
 5577POPC   GL217714  18.222  30.032   8.850
 5577POPC   C1A17715  18.329  29.920   8.550
 5577POPC   D2A17716  18.290  29.905   8.250
 5577POPC   C3A17717  18.290  29.944   7.950
 5577POPC   C4A17718  18.267  29.919   7.650
 5577POPC   C1B17719  18.245  30.202   8.550
 5577POPC   C2B17720  18.252  30.151   8.250
 5577POPC   C3B17721  18.211  30.148   7.950
 5577POPC   C4B17722  18.277  30.199   7.650
 5578POPC   NC317723  30.685  32.295   9.450
 5578POPC   PO417724  30.648  32.255   9.150
 5578POPC   GL117725  30.729  32.252   8.850
 5578POPC   GL217726  30.743  32.389   8.850
 5578POPC   C1A17727  30.655  32.287   8.550
 5578POPC   D2A17728  30.673  32.295   8.250
 5578POPC   C3A17729  30.692  32.221   7.950
 5578POPC   C4A17730  30.696  32.295   7.650
 5578POPC   C1B17731  30.877  32.466   8.550
 5578POPC   C2B17732  30.880  32.390   8.250
 5578POPC   C3B17733  30.831  32.452   7.950
 5578POPC   C4B17734  30.872  32.384   7.650
 5579POPC   NC317735  23.758  15.980   9.450
 5579POPC   PO417736  23.675  15.969   9.150
 5579POPC   GL117737  23.700  15.984   8.850
 5579POPC   GL217738  23.608  16.073   8.850
 5579POPC   C1A17739  23.727  15.944   8.550
 5579POPC   D2A17740  23.720  15.928   8.250
 5579POPC   C3A17741  23.730  15.909   7.950
 5579POPC   C4A17742  23.705  15.946   7.650
 5579POPC   C1B17743  23.518  16.184   8.550
 5579POPC   C2B17744  23.552  16.093   8.250
 5579POPC   C3B17745  23.520  16.133   7.950
 5579POPC   C4B17746  23.546  16.149   7.650
 5580POPC   NC317747   5.845  33.757   9.450
 5580POPC   PO417748   5.884  33.812   9.150
 5580POPC   GL117749   5.875  33.772   8.850
 5580POPC   GL217750   5.898  33.910   8.850
 5580POPC   C1A17751   5.868  33.813   8.550
 5580POPC   D2A17752   5.825  33.839   8.250
 5580POPC   C3A17753   5.904  33.813   7.950
 5580POPC   C4A17754   5.875  33.779   7.650
 5580POPC   C1B17755   5.885  34.043   8.550
 5580POPC   C2B17756   5.856  34.014   8.250
 5580POPC   C3B17757   5.804  34.089   7.950
 5580POPC   C4B17758   5.803  34.034   7.650
 5581POPC   NC317759  11.330  24.481   9.450
 5581POPC   PO417760  11.317  24.466   9.150
 5581POPC   GL117761  11.315  24.480   8.850
 5581POPC   GL217762  11.182  24.549   8.850
 5581POPC   C1A17763  11.295  24.479   8.550
 5581POPC   D2A17764  11.338  24.500   8.250
 5581POPC   C3A17765  11.313  24.461   7.950
 5581POPC   C4A17766  11.306  24.455   7.650
 5581POPC   C1B17767  11.011  24.497   8.550
 5581POPC   C2B17768  11.023  24.519   8.250
 5581POPC   C3B17769  11.011  24.530   7.950
 5581POPC   C4B17770  11.011  24.519   7.650
 5582POPC   NC317771   1.983  33.043   9.450
 5582POPC   PO417772   2.031  33.022   9.150
 5582POPC   GL117773   1.955  32.987   8.850
 5582POPC   GL217774   1.953  33.149   8.850
 5582POPC   C1A17775   2.001  32.998   8.550
 5582POPC   D2A17776   1.995  33.015   8.250
 5582POPC   C3A17777   1.997  32.985   7.950
 5582POPC   C4A17778   2.038  33.001   7.650
 5582POPC   C1B17779   1.926  33.296   8.550
 5582POPC   C2B17780   1.896  33.224   8.250
 5582POPC   C3B17781   1.868  33.213   7.950
 5582POPC   C4B17782   1.933  33.266   7.650
 5583POPC   NC317783  12.833  20.617   9.450
 5583POPC   PO417784  12.893  20.606   9.150
 5583POPC   GL117785  12.895  20.562   8.850
 5583POPC   GL217786  12.848  20.447   8.850
 5583POPC   C1A17787  12.832  20.567   8.550
 5583POPC   D2A17788  12.882  20.644   8.250
 5583POPC   C3A17789  12.805  20.591   7.950
 5583POPC   C4A17790  12.834  20.585   7.650
 5583POPC   C1B17791  12.872  20.395   8.550
 5583POPC   C2B17792  12.905  20.354   8.250
 5583POPC   C3B17793  12.896  20.387   7.950
 5583POPC   C4B17794  12.851  20.331   7.650
 5584POPC   NC317795  32.221  26.845   9.450
 5584POPC   PO417796  32.275  26.792   9.150
 5584POPC   GL117797  32.205  26.804   8.850
 5584POPC   GL217798  32.416  26.809   8.850
 5584POPC   C1A17799  32.278  26.804   8.550
 5584POPC   D2A17800  32.212  26.864   8.250
 5584POPC   C3A17801  32.199  26.822   7.950
 5584POPC   C4A17802  32.281  26.821   7.650
 5584POPC   C1B17803  32.539  26.840   8.550
 5584POPC   C2B17804  32.531  26.865   8.250
 5584POPC   C3B17805  32.496  26.845   7.950
 5584POPC   C4B17806  32.468  26.847   7.650
 5585POPC   NC317807   6.659  11.264   9.450
 5585POPC   PO417808   6.622  11.257   9.150
 5585POPC   GL117809   6.679  11.331   8.850
 5585POPC   GL217810   6.685  11.432   8.850
 5585POPC   C1A17811   6.673  11.293   8.550
 5585POPC   D2A17812   6.684  11.266   8.250
 5585POPC   C3A17813   6.690  11.252   7.950
 5585POPC   C4A17814   6.672  11.284   7.650
 5585POPC   C1B17815   6.803  11.492   8.550
 5585POPC   C2B17816   6.740  11.518   8.250
 5585POPC   C3B17817   6.799  11.556   7.950
 5585POPC   C4B17818   6.781  11.516   7.650
 5586POPC   NC317819  20.573  41.602   9.450
 5586POPC   PO417820  20.579  41.575   9.150
 5586POPC   GL117821  20.596  41.596   8.850
 5586POPC   GL217822  20.558  41.478   8.850
 5586POPC   C1A17823  20.628  41.540   8.550
 5586POPC   D2A17824  20.640  41.566   8.250
 5586POPC   C3A17825  20.584  41.587   7.950
 5586POPC   C4A17826  20.609  41.578   7.650
 5586POPC   C1B17827  20.382  41.411   8.550
 5586POPC   C2B17828  20.373  41.422   8.250
 5586POPC   C3B17829  20.400  41.405   7.950
 5586POPC   C4B17830  20.413  41.403   7.650
 5587POPC   NC317831  39.958  12.809   9.450
 5587POPC   PO417832  40.014  12.857   9.150
 5587POPC   GL117833  39.972  12.832   8.850
 5587POPC   GL217834  40.113  12.942   8.850
 5587POPC   C1A17835  40.026  12.834   8.550
 5587POPC   D2A17836  39.997  12.850   8.250
 5587POPC   C3A17837  40.014  12.858   7.950
 5587POPC   C4A17838  40.013  12.868   7.650
 5587POPC   C1B17839  40.217  12.987   8.550
 5587POPC   C2B17840  40.175  13.015   8.250
 5587POPC   C3B17841  40.204  12.992   7.950
 5587POPC   C4B17842  40.157  13.071   7.650
 5588POPC   NC317843  27.605  38.502   9.450
 5588POPC   PO417844  27.558  38.470   9.150
 5588POPC   GL117845  27.558  38.410   8.850
 5588POPC   GL217846  27.710  38.501   8.850
 5588POPC   C1A17847  27.585  38.441   8.550
 5588POPC   D2A17848  27.549  38.442   8.250
 5588POPC   C3A17849  27.559  38.453   7.950
 5588POPC   C4A17850  27.635  38.440   7.650
 5588POPC   C1B17851  27.808  38.565   8.550
 5588POPC   C2B17852  27.821  38.641   8.250
 5588POPC   C3B17853  27.775  38.603   7.950
 5588POPC   C4B17854  27.809  38.584   7.650
 5589POPC   NC317855  38.498  31.501   9.450
 5589POPC   PO417856  38.420  31.520   9.150
 5589POPC   GL117857  38.422  31.505   8.850
 5589POPC   GL217858  38.300  31.541   8.850
 5589POPC   C1A17859  38.476  31.487   8.550
 5589POPC   D2A17860  38.436  31.516   8.250
 5589POPC   C3A17861  38.410  31.443   7.950
 5589POPC   C4A17862  38.460  31.499   7.650
 5589POPC   C1B17863  38.260  31.533   8.550
 5589POPC   C2B17864  38.208  31.578   8.250
 5589POPC   C3B17865  38.245  31.563   7.950
 5589POPC   C4B17866  38.195  31.617   7.650
 5590POPC   NC317867  34.573  11.320   9.450
 5590POPC   PO417868  34.613  11.265   9.150
 5590POPC   GL117869  34.543  11.267   8.850
 5590POPC   GL217870  34.473  11.234   8.850
 5590POPC   C1A17871  34.623  11.349   8.550
 5590POPC   D2A17872  34.591  11.346   8.250
 5590POPC   C3A17873  34.553  11.296   7.950
 5590POPC   C4A17874  34.563  11.327   7.650
 5590POPC   C1B17875  34.363  11.293   8.550
 5590POPC   C2B17876  34.353  11.274   8.250
 5590POPC   C3B17877  34.309  11.228   7.950
 5590POPC   C4B17878  34.303  11.257   7.650
 5591POPC   NC317879  27.563   8.988   9.450
 5591POPC   PO417880  27.616   8.923   9.150
 5591POPC   GL117881  27.589   8.939   8.850
 5591POPC   GL217882  27.578   9.064   8.850
 5591POPC   C1A17883  27.606   8.930   8.550
 5591POPC   D2A17884  27.629   8.958   8.250
 5591POPC   C3A17885  27.627   8.931   7.950
 5591POPC   C4A17886  27.626   8.956   7.650
 5591POPC   C1B17887  27.448   9.239   8.550
 5591POPC   C2B17888  27.526   9.153   8.250
 5591POPC   C3B17889  27.496   9.197   7.950
 5591POPC   C4B17890  27.534   9.234   7.650
 5592POPC   NC317891  35.316  44.649   9.450
 5592POPC   PO417892  35.357  44.617   9.150
 5592POPC   GL117893  35.395  44.614   8.850
 5592POPC   GL217894  35.299  44.534   8.850
 5592POPC   C1A17895  35.399  44.661   8.550
 5592POPC   D2A17896  35.335  44.682   8.250
 5592POPC   C3A17897  35.394  44.633   7.950
 5592POPC   C4A17898  35.360  44.612   7.650
 5592POPC   C1B17899  35.241  44.480   8.550
 5592POPC   C2B17900  35.195  44.459   8.250
 5592POPC   C3B17901  35.188  44.434   7.950
 5592POPC   C4B17902  35.202  44.459   7.650
 5593POPC   NC317903  33.806  44.686   9.450
 5593POPC   PO417904  33.823  44.685   9.150
 5593POPC   GL117905  33.819  44.712   8.850
 5593POPC   GL217906  33.858  44.750   8.850
 5593POPC   C1A17907  33.849  44.640   8.550
 5593POPC   D2A17908  33.785  44.635   8.250
 5593POPC   C3A17909  33.845  44.651   7.950
 5593POPC   C4A17910  33.772  44.647   7.650
 5593POPC   C1B17911  33.972  44.803   8.550
 5593POPC   C2B17912  33.955  44.807   8.250
 5593POPC   C3B17913  34.002  44.798   7.950
 5593POPC   C4B17914  33.998  44.839   7.650
 5594POPC   NC317915  28.345  16.774   9.450
 5594POPC   PO417916  28.413  16.771   9.150
 5594POPC   GL117917  28.392  16.736   8.850
 5594POPC   GL217918  28.311  16.898   8.850
 5594POPC   C1A17919  28.408  16.711   8.550
 5594POPC   D2A17920  28.395  16.690   8.250
 5594POPC   C3A17921  28.343  16.773   7.950
 5594POPC   C4A17922  28.391  16.728   7.650
 5594POPC   C1B17923  28.283  17.019   8.550
 5594POPC   C2B17924  28.347  16.936   8.250
 5594POPC   C3B17925  28.312  16.930   7.950
 5594POPC   C4B17926  28.314  17.024   7.650
 5595POPC   NC317927  24.480  32.993   9.450
 5595POPC   PO417928  24.481  33.010   9.150
 5595POPC   GL117929  24.456  33.037   8.850
 5595POPC   GL217930  24.481  33.141   8.850
 5595POPC   C1A17931  24.477  33.047   8.550
 5595POPC   D2A17932  24.455  33.031   8.250
 5595POPC   C3A17933  24.445  33.057   7.950
 5595POPC   C4A17934  24.540  33.057   7.650
 5595POPC   C1B17935  24.460  33.323   8.550
 5595POPC   C2B17936  24.509  33.293   8.250
 5595POPC   C3B17937  24.529  33.226   7.950
 5595POPC   C4B17938  24.527  33.237   7.650
 5596POPC   NC317939   7.443  34.549   9.450
 5596POPC   PO417940   7.385  34.620   9.150
 5596POPC   GL117941   7.451  34.541   8.850
 5596POPC   GL217942   7.449  34.633   8.850
 5596POPC   C1A17943   7.433  34.529   8.550
 5596POPC   D2A17944   7.429  34.567   8.250
 5596POPC   C3A17945   7.417  34.528   7.950
 5596POPC   C4A17946   7.416  34.583   7.650
 5596POPC   C1B17947   7.566  34.832   8.550
 5596POPC   C2B17948   7.518  34.836   8.250
 5596POPC   C3B17949   7.518  34.746   7.950
 5596POPC   C4B17950   7.543  34.748   7.650
 5597POPC   NC317951  34.582   1.964   9.450
 5597POPC   PO417952  34.540   2.014   9.150
 5597POPC   GL117953  34.549   2.027   8.850
 5597POPC   GL217954  34.504   2.080   8.850
 5597POPC   C1A17955  34.526   1.986   8.550
 5597POPC   D2A17956  34.554   2.033   8.250
 5597POPC   C3A17957  34.547   1.992   7.950
 5597POPC   C4A17958  34.545   1.954   7.650
 5597POPC   C1B17959  34.442   2.266   8.550
 5597POPC   C2B17960  34.504   2.230   8.250
 5597POPC   C3B17961  34.436   2.208   7.950
 5597POPC   C4B17962  34.500   2.223   7.650
 5598POPC   NC317963  37.665   7.427   9.450
 5598POPC   PO417964  37.667   7.376   9.150
 5598POPC   GL117965  37.654   7.470   8.850
 5598POPC   GL217966  37.748   7.269   8.850
 5598POPC   C1A17967  37.716   7.456   8.550
 5598POPC   D2A17968  37.664   7.457   8.250
 5598POPC   C3A17969  37.683   7.456   7.950
 5598POPC   C4A17970  37.688   7.391   7.650
 5598POPC   C1B17971  37.798   7.213   8.550
 5598POPC   C2B17972  37.824   7.206   8.250
 5598POPC   C3B17973  37.821   7.183   7.950
 5598POPC   C4B17974  37.824   7.194   7.650
 5599POPC   NC317975  35.373  43.920   9.450
 5599POPC   PO417976  35.322  43.909   9.150
 5599POPC   GL117977  35.309  43.883   8.850
 5599POPC   GL217978  35.468  43.915   8.850
 5599POPC   C1A17979  35.399  43.927   8.550
 5599POPC   D2A17980  35.354  43.927   8.250
 5599POPC   C3A17981  35.332  43.922   7.950
 5599POPC   C4A17982  35.310  43.901   7.650
 5599POPC   C1B17983  35.560  43.821   8.550
 5599POPC   C2B17984  35.551  43.902   8.250
 5599POPC   C3B17985  35.640  43.846   7.950
 5599POPC   C4B17986  35.621  43.903   7.650
 5600POPC   NC317987  40.796  19.827   9.450
 5600POPC   PO417988  40.754  19.841   9.150
 5600POPC   GL117989  40.825  19.872   8.850
 5600POPC   GL217990  40.692  19.825   8.850
 5600POPC   C1A17991  40.826  19.832   8.550
 5600POPC   D2A17992  40.811  19.861   8.250
 5600POPC   C3A17993  40.751  19.798   7.950
 5600POPC   C4A17994  40.811  19.844   7.650
 5600POPC   C1B17995  40.534  19.855   8.550
 5600POPC   C2B17996  40.507  19.782   8.250
 5600POPC   C3B17997  40.522  19.798   7.950
 5600POPC   C4B17998  40.571  19.793   7.650
 5601POPC   NC317999  25.302  22.205   9.450
 5601POPC   PO418000  25.234  22.157   9.150
 5601POPC   GL118001  25.271  22.142   8.850
 5601POPC   GL218002  25.378  22.235   8.850
 5601POPC   C1A18003  25.218  22.138   8.550
 5601POPC   D2A18004  25.258  22.203   8.250
 5601POPC   C3A18005  25.263  22.163   7.950
 5601POPC   C4A18006  25.305  22.203   7.650
 5601POPC   C1B18007  25.457  22.400   8.550
 5601POPC   C2B18008  25.451  22.330   8.250
 5601POPC   C3B18009  25.414  22.335   7.950
 5601POPC   C4B18010  25.455  22.393   7.650
 5602POPC   NC318011  42.383  32.993   9.450
 5602POPC   PO418012  42.310  33.000   9.150
 5602POPC   GL118013  42.366  32.999   8.850
 5602POPC   GL218014  42.498  33.013   8.850
 5602POPC   C1A18015  42.381  32.983   8.550
 5602POPC   D2A18016  42.368  33.036   8.250
 5602POPC   C3A18017  42.303  33.004   7.950
 5602POPC   C4A18018  42.286  33.019   7.650
 5602POPC   C1B18019  42.550  32.965   8.550
 5602POPC   C2B18020  42.537  32.964   8.250
 5602POPC   C3B18021  42.569  32.989   7.950
 5602POPC   C4B18022  42.600  32.979   7.650
 5603POPC   NC318023  29.877  21.425   9.450
 5603POPC   PO418024  29.908  21.359   9.150
 5603POPC   GL118025  29.955  21.368   8.850
 5603POPC   GL218026  29.875  21.508   8.850
 5603POPC   C1A18027  29.923  21.399   8.550
 5603POPC   D2A18028  29.924  21.360   8.250
 5603POPC   C3A18029  29.925  21.430   7.950
 5603POPC   C4A18030  29.876  21.399   7.650
 5603POPC   C1B18031  29.852  21.616   8.550
 5603POPC   C2B18032  29.902  21.588   8.250
 5603POPC   C3B18033  29.926  21.611   7.950
 5603POPC   C4B18034  29.901  21.617   7.650
 5604POPC   NC318035  16.747  15.149   9.450
 5604POPC   PO418036  16.727  15.173   9.150
 5604POPC   GL118037  16.700  15.133   8.850
 5604POPC   GL218038  16.619  15.235   8.850
 5604POPC   C1A18039  16.744  15.164   8.550
 5604POPC   D2A18040  16.763  15.194   8.250
 5604POPC   C3A18041  16.707  15.197   7.950
 5604POPC   C4A18042  16.681  15.223   7.650
 5604POPC   C1B18043  16.466  15.313   8.550
 5604POPC   C2B18044  16.469  15.331   8.250
 5604POPC   C3B18045  16.492  15.257   7.950
 5604POPC   C4B18046  16.467  15.260   7.650
 5605POPC   NC318047  41.518  40.758   9.450
 5605POPC   PO418048  41.533  40.748   9.150
 5605POPC   GL118049  41.602  40.790   8.850
 5605POPC   GL218050  41.545  40.944   8.850
 5605POPC   C1A18051  41.578  40.778   8.550
 5605POPC   D2A18052  41.516  40.755   8.250
 5605POPC   C3A18053  41.596  40.825   7.950
 5605POPC   C4A18054  41.533  40.763   7.650
 5605POPC   C1B18055  41.488  41.075   8.550
 5605POPC   C2B18056  41.524  41.058   8.250
 5605POPC   C3B18057  41.500  40.998   7.950
 5605POPC   C4B18058  41.570  41.041   7.650
 5606POPC   NC318059  41.533   8.181   9.450
 5606POPC   PO418060  41.510   8.212   9.150
 5606POPC   GL118061  41.531   8.174   8.850
 5606POPC   GL218062  41.474   8.344   8.850
 5606POPC   C1A18063  41.521   8.212   8.550
 5606POPC   D2A18064  41.567   8.210   8.250
 5606POPC   C3A18065  41.604   8.173   7.950
 5606POPC   C4A18066  41.602   8.203   7.650
 5606POPC   C1B18067  41.398   8.391   8.550
 5606POPC   C2B18068  41.455   8.433   8.250
 5606POPC   C3B18069  41.400   8.423   7.950
 5606POPC   C4B18070  41.461   8.415   7.650
 5607POPC   NC318071  43.838   9.729   9.450
 5607POPC   PO418072  43.852   9.778   9.150
 5607POPC   GL118073  43.853   9.706   8.850
 5607POPC   GL218074  43.831   9.588   8.850
 5607POPC   C1A18075  43.876   9.785   8.550
 5607POPC   D2A18076  43.849   9.766   8.250
 5607POPC   C3A18077  43.892   9.744   7.950
 5607POPC   C4A18078  43.844   9.708   7.650
 5607POPC   C1B18079  43.852   9.548   8.550
 5607POPC   C2B18080  43.862   9.528   8.250
 5607POPC   C3B18081  43.796   9.478   7.950
 5607POPC   C4B18082  43.799   9.530   7.650
 5608POPC   NC318083  32.281  14.419   9.450
 5608POPC   PO418084  32.247  14.453   9.150
 5608POPC   GL118085  32.203  14.432   8.850
 5608POPC   GL218086  32.269  14.483   8.850
 5608POPC   C1A18087  32.284  14.444   8.550
 5608POPC   D2A18088  32.209  14.418   8.250
 5608POPC   C3A18089  32.274  14.435   7.950
 5608POPC   C4A18090  32.233  14.408   7.650
 5608POPC   C1B18091  32.314  14.622   8.550
 5608POPC   C2B18092  32.390  14.619   8.250
 5608POPC   C3B18093  32.318  14.660   7.950
 5608POPC   C4B18094  32.334  14.681   7.650
 5609POPC   NC318095  41.540  24.444   9.450
 5609POPC   PO418096  41.600  24.458   9.150
 5609POPC   GL118097  41.553  24.476   8.850
 5609POPC   GL218098  41.398  24.453   8.850
 5609POPC   C1A18099  41.522  24.461   8.550
 5609POPC   D2A18100  41.583  24.479   8.250
 5609POPC   C3A18101  41.531  24.461   7.950
 5609POPC   C4A18102  41.529  24.527   7.650
 5609POPC   C1B18103  41.304  24.483   8.550
 5609POPC   C2B18104  41.300  24.428   8.250
 5609POPC   C3B18105  41.295  24.448   7.950
 5609POPC   C4B18106  41.262  24.455   7.650
 5610POPC   NC318107  23.667  27.571   9.450
 5610POPC   PO418108  23.667  27.575   9.150
 5610POPC   GL118109  23.710  27.567   8.850
 5610POPC   GL218110  23.621  27.524   8.850
 5610POPC   C1A18111  23.759  27.579   8.550
 5610POPC   D2A18112  23.743  27.638   8.250
 5610POPC   C3A18113  23.719  27.640   7.950
 5610POPC   C4A18114  23.681  27.587   7.650
 5610POPC   C1B18115  23.588  27.371   8.550
 5610POPC   C2B18116  23.596  27.383   8.250
 5610POPC   C3B18117  23.610  27.393   7.950
 5610POPC   C4B18118  23.583  27.353   7.650
 5611POPC   NC318119  41.587  15.178   9.450
 5611POPC   PO418120  41.588  15.217   9.150
 5611POPC   GL118121  41.545  15.161   8.850
 5611POPC   GL218122  41.442  15.232   8.850
 5611POPC   C1A18123  41.579  15.224   8.550
 5611POPC   D2A18124  41.581  15.204   8.250
 5611POPC   C3A18125  41.605  15.175   7.950
 5611POPC   C4A18126  41.514  15.218   7.650
 5611POPC   C1B18127  41.350  15.306   8.550
 5611POPC   C2B18128  41.334  15.352   8.250
 5611POPC   C3B18129  41.335  15.354   7.950
 5611POPC   C4B18130  41.331  15.340   7.650
 5612POPC   NC318131  42.324   9.008   9.450
 5612POPC   PO418132  42.333   9.003   9.150
 5612POPC   GL118133  42.314   8.994   8.850
 5612POPC   GL218134  42.259   8.928   8.850
 5612POPC   C1A18135  42.301   8.950   8.550
 5612POPC   D2A18136  42.351   9.015   8.250
 5612POPC   C3A18137  42.298   8.964   7.950
 5612POPC   C4A18138  42.348   9.021   7.650
 5612POPC   C1B18139  42.161   8.823   8.550
 5612POPC   C2B18140  42.165   8.831   8.250
 5612POPC   C3B18141  42.163   8.835   7.950
 5612POPC   C4B18142  42.119   8.806   7.650
 5613POPC   NC318143  33.792   1.244   9.450
 5613POPC   PO418144  33.849   1.205   9.150
 5613POPC   GL118145  33.786   1.177   8.850
 5613POPC   GL218146  33.709   1.097   8.850
 5613POPC   C1A18147  33.842   1.262   8.550
 5613POPC   D2A18148  33.787   1.248   8.250
 5613POPC   C3A18149  33.800   1.187   7.950
 5613POPC   C4A18150  33.806   1.244   7.650
 5613POPC   C1B18151  33.623   1.055   8.550
 5613POPC   C2B18152  33.603   1.009   8.250
 5613POPC   C3B18153  33.623   1.054   7.950
 5613POPC   C4B18154  33.631   1.061   7.650
 5614POPC   NC318155  29.956  27.544   9.450
 5614POPC   PO418156  29.886  27.554   9.150
 5614POPC   GL118157  29.908  27.620   8.850
 5614POPC   GL218158  29.931  27.709   8.850
 5614POPC   C1A18159  29.951  27.578   8.550
 5614POPC   D2A18160  29.957  27.593   8.250
 5614POPC   C3A18161  29.918  27.577   7.950
 5614POPC   C4A18162  29.882  27.557   7.650
 5614POPC   C1B18163  29.874  27.853   8.550
 5614POPC   C2B18164  29.939  27.843   8.250
 5614POPC   C3B18165  29.905  27.831   7.950
 5614POPC   C4B18166  29.958  27.842   7.650
 5615POPC   NC318167   0.408  43.883   9.450
 5615POPC   PO418168   0.394  43.859   9.150
 5615POPC   GL118169   0.422  43.911   8.850
 5615POPC   GL218170   0.481  43.845   8.850
 5615POPC   C1A18171   0.462  43.848   8.550
 5615POPC   D2A18172   0.439  43.893   8.250
 5615POPC   C3A18173   0.424  43.923   7.950
 5615POPC   C4A18174   0.477  43.892   7.650
 5615POPC   C1B18175   0.645  43.701   8.550
 5615POPC   C2B18176   0.619  43.686   8.250
 5615POPC   C3B18177   0.585  43.715   7.950
 5615POPC   C4B18178   0.652  43.702   7.650
 5616POPC   NC318179  43.080  27.584   9.450
 5616POPC   PO418180  43.142  27.566   9.150
 5616POPC   GL118181  43.104  27.632   8.850
 5616POPC   GL218182  42.964  27.565   8.850
 5616POPC   C1A18183  43.145  27.630   8.550
 5616POPC   D2A18184  43.138  27.629   8.250
 5616POPC   C3A18185  43.148  27.590   7.950
 5616POPC   C4A18186  43.071  27.606   7.650
 5616POPC   C1B18187  42.844  27.598   8.550
 5616POPC   C2B18188  42.907  27.554   8.250
 5616POPC   C3B18189  42.816  27.573   7.950
 5616POPC   C4B18190  42.886  27.536   7.650
 5617POPC   NC318191   2.731  28.367   9.450
 5617POPC   PO418192   2.809  28.406   9.150
 5617POPC   GL118193   2.759  28.352   8.850
 5617POPC   GL218194   2.794  28.249   8.850
 5617POPC   C1A18195   2.788  28.333   8.550
 5617POPC   D2A18196   2.786  28.329   8.250
 5617POPC   C3A18197   2.717  28.332   7.950
 5617POPC   C4A18198   2.781  28.398   7.650
 5617POPC   C1B18199   2.961  28.150   8.550
 5617POPC   C2B18200   2.899  28.135   8.250
 5617POPC   C3B18201   2.929  28.159   7.950
 5617POPC   C4B18202   2.893  28.166   7.650
 5618POPC   NC318203   4.354   0.451   9.450
 5618POPC   PO418204   4.359   0.446   9.150
 5618POPC   GL118205   4.308   0.420   8.850
 5618POPC   GL218206   4.215   0.506   8.850
 5618POPC   C1A18207   4.287   0.487   8.550
 5618POPC   D2A18208   4.355   0.468   8.250
 5618POPC   C3A18209   4.341   0.396   7.950
 5618POPC   C4A18210   4.271   0.483   7.650
 5618POPC   C1B18211   4.135   0.658   8.550
 5618POPC   C2B18212   4.125   0.629   8.250
 5618POPC   C3B18213   4.150   0.664   7.950
 5618POPC   C4B18214   4.117   0.617   7.650
 5619POPC   NC318215  23.706   0.409   9.450
 5619POPC   PO418216  23.697   0.470   9.150
 5619POPC   GL118217  23.723   0.400   8.850
 5619POPC   GL218218  23.735   0.581   8.850
 5619POPC   C1A18219  23.702   0.420   8.550
 5619POPC   D2A18220  23.704   0.449   8.250
 5619POPC   C3A18221  23.675   0.392   7.950
 5619POPC   C4A18222  23.729   0.409   7.650
 5619POPC   C1B18223  23.687   0.654   8.550
 5619POPC   C2B18224  23.700   0.696   8.250
 5619POPC   C3B18225  23.704   0.710   7.950
 5619POPC   C4B18226  23.652   0.693   7.650
 5620POPC   NC318227  13.650  13.589   9.450
 5620POPC   PO418228  13.580  13.600   9.150
 5620POPC   GL118229  13.605  13.589   8.850
 5620POPC   GL218230  13.689  13.726   8.850
 5620POPC   C1A18231  13.621  13.646   8.550
 5620POPC   D2A18232  13.614  13.601   8.250
 5620POPC   C3A18233  13.673  13.586   7.950
 5620POPC   C4A18234  13.604  13.591   7.650
 5620POPC   C1B18235  13.679  13.890   8.550
 5620POPC   C2B18236  13.677  13.842   8.250
 5620POPC   C3B18237  13.648  13.902   7.950
 5620POPC   C4B18238  13.681  13.835   7.650
 5621POPC   NC318239  32.251  22.961   9.450
 5621POPC   PO418240  32.290  22.921   9.150
 5621POPC   GL118241  32.218  22.957   8.850
 5621POPC   GL218242  32.399  23.018   8.850
 5621POPC   C1A18243  32.261  22.978   8.550
 5621POPC   D2A18244  32.253  22.920   8.250
 5621POPC   C3A18245  32.239  22.929   7.950
 5621POPC   C4A18246  32.245  22.915   7.650
 5621POPC   C1B18247  32.464  23.051   8.550
 5621POPC   C2B18248  32.484  23.065   8.250
 5621POPC   C3B18249  32.487  23.010   7.950
 5621POPC   C4B18250  32.497  23.031   7.650
 5622POPC   NC318251  33.806  31.450   9.450
 5622POPC   PO418252  33.831  31.432   9.150
 5622POPC   GL118253  33.769  31.477   8.850
 5622POPC   GL218254  33.665  31.523   8.850
 5622POPC   C1A18255  33.815  31.439   8.550
 5622POPC   D2A18256  33.836  31.443   8.250
 5622POPC   C3A18257  33.764  31.500   7.950
 5622POPC   C4A18258  33.815  31.449   7.650
 5622POPC   C1B18259  33.608  31.653   8.550
 5622POPC   C2B18260  33.623  31.698   8.250
 5622POPC   C3B18261  33.666  31.652   7.950
 5622POPC   C4B18262  33.672  31.610   7.650
 5623POPC   NC318263  36.924  36.881   9.450
 5623POPC   PO418264  36.889  36.864   9.150
 5623POPC   GL118265  36.905  36.925   8.850
 5623POPC   GL218266  36.803  36.946   8.850
 5623POPC   C1A18267  36.926  36.854   8.550
 5623POPC   D2A18268  36.923  36.862   8.250
 5623POPC   C3A18269  36.890  36.898   7.950
 5623POPC   C4A18270  36.914  36.920   7.650
 5623POPC   C1B18271  36.736  37.110   8.550
 5623POPC   C2B18272  36.766  37.060   8.250
 5623POPC   C3B18273  36.733  37.050   7.950
 5623POPC   C4B18274  36.738  37.066   7.650
 5624POPC   NC318275  10.511  42.303   9.450
 5624POPC   PO418276  10.502  42.296   9.150
 5624POPC   GL118277  10.560  42.378   8.850
 5624POPC   GL218278  10.404  42.237   8.850
 5624POPC   C1A18279  10.518  42.331   8.550
 5624POPC   D2A18280  10.518  42.299   8.250
 5624POPC   C3A18281  10.550  42.383   7.950
 5624POPC   C4A18282  10.524  42.301   7.650
 5624POPC   C1B18283  10.339  42.129   8.550
 5624POPC   C2B18284  10.358  42.174   8.250
 5624POPC   C3B18285  10.406  42.171   7.950
 5624POPC   C4B18286  10.352  42.102   7.650
 5625POPC   NC318287  21.337   8.244   9.450
 5625POPC   PO418288  21.379   8.241   9.150
 5625POPC   GL118289  21.421   8.233   8.850
 5625POPC   GL218290  21.346   8.075   8.850
 5625POPC   C1A18291  21.413   8.209   8.550
 5625POPC   D2A18292  21.350   8.198   8.250
 5625POPC   C3A18293  21.389   8.220   7.950
 5625POPC   C4A18294  21.434   8.212   7.650
 5625POPC   C1B18295  21.282   7.948   8.550
 5625POPC   C2B18296  21.222   7.951   8.250
 5625POPC   C3B18297  21.238   8.020   7.950
 5625POPC   C4B18298  21.222   7.954   7.650
 5626POPC   NC318299  32.218  40.761   9.450
 5626POPC   PO418300  32.288  40.788   9.150
 5626POPC   GL118301  32.279  40.819   8.850
 5626POPC   GL218302  32.338  40.722   8.850
 5626POPC   C1A18303  32.262  40.821   8.550
 5626POPC   D2A18304  32.225  40.794   8.250
 5626POPC   C3A18305  32.233  40.769   7.950
 5626POPC   C4A18306  32.290  40.802   7.650
 5626POPC   C1B18307  32.520  40.767   8.550
 5626POPC   C2B18308  32.503  40.679   8.250
 5626POPC   C3B18309  32.486  40.690   7.950
 5626POPC   C4B18310  32.508  40.680   7.650
 5627POPC   NC318311  12.872  36.161   9.450
 5627POPC   PO418312  12.890  36.109   9.150
 5627POPC   GL118313  12.889  36.177   8.850
 5627POPC   GL218314  12.827  36.062   8.850
 5627POPC   C1A18315  12.887  36.134   8.550
 5627POPC   D2A18316  12.806  36.169   8.250
 5627POPC   C3A18317  12.865  36.168   7.950
 5627POPC   C4A18318  12.850  36.140   7.650
 5627POPC   C1B18319  12.767  35.866   8.550
 5627POPC   C2B18320  12.725  35.861   8.250
 5627POPC   C3B18321  12.737  35.932   7.950
 5627POPC   C4B18322  12.786  35.868   7.650
 5628POPC   NC318323  44.691   4.308   9.450
 5628POPC   PO418324  44.709   4.294   9.150
 5628POPC   GL118325  44.681   4.321   8.850
 5628POPC   GL218326  44.645   4.251   8.850
 5628POPC   C1A18327  44.662   4.325   8.550
 5628POPC   D2A18328  44.626   4.271   8.250
 5628POPC   C3A18329  44.634   4.276   7.950
 5628POPC   C4A18330  44.705   4.365   7.650
 5628POPC   C1B18331  44.553   4.141   8.550
 5628POPC   C2B18332  44.559   4.114   8.250
 5628POPC   C3B18333  44.530   4.101   7.950
 5628POPC   C4B18334  44.518   4.082   7.650
 5629POPC   NC318335  11.269   0.458   9.450
 5629POPC   PO418336  11.258   0.426   9.150
 5629POPC   GL118337  11.280   0.392   8.850
 5629POPC   GL218338  11.391   0.534   8.850
 5629POPC   C1A18339  11.348   0.423   8.550
 5629POPC   D2A18340  11.304   0.422   8.250
 5629POPC   C3A18341  11.253   0.436   7.950
 5629POPC   C4A18342  11.345   0.469   7.650
 5629POPC   C1B18343  11.353   0.670   8.550
 5629POPC   C2B18344  11.384   0.676   8.250
 5629POPC   C3B18345  11.433   0.667   7.950
 5629POPC   C4B18346  11.426   0.636   7.650
 5630POPC   NC318347  33.816  26.776   9.450
 5630POPC   PO418348  33.839  26.866   9.150
 5630POPC   GL118349  33.797  26.829   8.850
 5630POPC   GL218350  33.878  26.893   8.850
 5630POPC   C1A18351  33.793  26.827   8.550
 5630POPC   D2A18352  33.817  26.768   8.250
 5630POPC   C3A18353  33.798  26.803   7.950
 5630POPC   C4A18354  33.841  26.816   7.650
 5630POPC   C1B18355  34.024  26.920   8.550
 5630POPC   C2B18356  33.989  26.939   8.250
 5630POPC   C3B18357  34.060  26.890   7.950
 5630POPC   C4B18358  34.059  26.929   7.650
 5631POPC   NC318359  35.392  38.426   9.450
 5631POPC   PO418360  35.320  38.443   9.150
 5631POPC   GL118361  35.310  38.441   8.850
 5631POPC   GL218362  35.242  38.566   8.850
 5631POPC   C1A18363  35.370  38.426   8.550
 5631POPC   D2A18364  35.329  38.431   8.250
 5631POPC   C3A18365  35.357  38.427   7.950
 5631POPC   C4A18366  35.338  38.460   7.650
 5631POPC   C1B18367  35.171  38.623   8.550
 5631POPC   C2B18368  35.142  38.618   8.250
 5631POPC   C3B18369  35.133  38.617   7.950
 5631POPC   C4B18370  35.119  38.611   7.650
 5632POPC   NC318371  29.954  30.648   9.450
 5632POPC   PO418372  29.883  30.730   9.150
 5632POPC   GL118373  29.933  30.684   8.850
 5632POPC   GL218374  29.906  30.534   8.850
 5632POPC   C1A18375  29.960  30.666   8.550
 5632POPC   D2A18376  29.939  30.746   8.250
 5632POPC   C3A18377  29.936  30.690   7.950
 5632POPC   C4A18378  29.881  30.674   7.650
 5632POPC   C1B18379  29.997  30.450   8.550
 5632POPC   C2B18380  29.986  30.442   8.250
 5632POPC   C3B18381  30.018  30.407   7.950
 5632POPC   C4B18382  29.939  30.468   7.650
 5633POPC   NC318383  22.120  17.534   9.450
 5633POPC   PO418384  22.182  17.556   9.150
 5633POPC   GL118385  22.135  17.506   8.850
 5633POPC   GL218386  22.009  17.516   8.850
 5633POPC   C1A18387  22.163  17.483   8.550
 5633POPC   D2A18388  22.141  17.503   8.250
 5633POPC   C3A18389  22.153  17.534   7.950
 5633POPC   C4A18390  22.196  17.488   7.650
 5633POPC   C1B18391  21.927  17.448   8.550
 5633POPC   C2B18392  21.892  17.522   8.250
 5633POPC   C3B18393  21.951  17.452   7.950
 5633POPC   C4B18394  21.868  17.485   7.650
 5634POPC   NC318395  40.012  24.534   9.450
 5634POPC   PO418396  40.029  24.472   9.150
 5634POPC   GL118397  39.969  24.518   8.850
 5634POPC   GL218398  39.900  24.363   8.850
 5634POPC   C1A18399  39.992  24.452   8.550
 5634POPC   D2A18400  39.967  24.507   8.250
 5634POPC   C3A18401  40.026  24.520   7.950
 5634POPC   C4A18402  40.003  24.532   7.650
 5634POPC   C1B18403  39.891  24.317   8.550
 5634POPC   C2B18404  39.878  24.267   8.250
 5634POPC   C3B18405  39.832  24.331   7.950
 5634POPC   C4B18406  39.892  24.286   7.650
 5635POPC   NC318407  35.361   7.469   9.450
 5635POPC   PO418408  35.324   7.441   9.150
 5635POPC   GL118409  35.350   7.431   8.850
 5635POPC   GL218410  35.485   7.512   8.850
 5635POPC   C1A18411  35.364   7.401   8.550
 5635POPC   D2A18412  35.315   7.425   8.250
 5635POPC   C3A18413  35.322   7.408   7.950
 5635POPC   C4A18414  35.382   7.409   7.650
 5635POPC   C1B18415  35.614   7.533   8.550
 5635POPC   C2B18416  35.534   7.510   8.250
 5635POPC   C3B18417  35.560   7.559   7.950
 5635POPC   C4B18418  35.567   7.532   7.650
 5636POPC   NC318419  33.790  22.206   9.450
 5636POPC   PO418420  33.813  22.139   9.150
 5636POPC   GL118421  33.844  22.178   8.850
 5636POPC   GL218422  33.947  22.243   8.850
 5636POPC   C1A18423  33.786  22.155   8.550
 5636POPC   D2A18424  33.839  22.163   8.250
 5636POPC   C3A18425  33.816  22.207   7.950
 5636POPC   C4A18426  33.809  22.131   7.650
 5636POPC   C1B18427  34.012  22.194   8.550
 5636POPC   C2B18428  34.001  22.209   8.250
 5636POPC   C3B18429  34.007  22.248   7.950
 5636POPC   C4B18430  33.988  22.213   7.650
 5637POPC   NC318431  27.627  28.332   9.450
 5637POPC   PO418432  27.577  28.370   9.150
 5637POPC   GL118433  27.557  28.372   8.850
 5637POPC   GL218434  27.722  28.408   8.850
 5637POPC   C1A18435  27.584  28.409   8.550
 5637POPC   D2A18436  27.612  28.365   8.250
 5637POPC   C3A18437  27.616  28.334   7.950
 5637POPC   C4A18438  27.580  28.399   7.650
 5637POPC   C1B18439  27.770  28.512   8.550
 5637POPC   C2B18440  27.827  28.544   8.250
 5637POPC   C3B18441  27.839  28.532   7.950
 5637POPC   C4B18442  27.819  28.488   7.650
 5638POPC   NC318443  39.976  31.474   9.450
 5638POPC   PO418444  40.039  31.475   9.150
 5638POPC   GL118445  40.022  31.496   8.850
 5638POPC   GL218446  40.145  31.419   8.850
 5638POPC   C1A18447  40.044  31.486   8.550
 5638POPC   D2A18448  40.026  31.501   8.250
 5638POPC   C3A18449  39.992  31.446   7.950
 5638POPC   C4A18450  40.028  31.428   7.650
 5638POPC   C1B18451  40.222  31.455   8.550
 5638POPC   C2B18452  40.206  31.427   8.250
 5638POPC   C3B18453  40.216  31.408   7.950
 5638POPC   C4B18454  40.254  31.424   7.650
 5639POPC   NC318455   8.980  10.566   9.450
 5639POPC   PO418456   8.933  10.508   9.150
 5639POPC   GL118457   8.953  10.565   8.850
 5639POPC   GL218458   9.041  10.354   8.850
 5639POPC   C1A18459   8.994  10.536   8.550
 5639POPC   D2A18460   8.978  10.508   8.250
 5639POPC   C3A18461   8.949  10.489   7.950
 5639POPC   C4A18462   8.956  10.514   7.650
 5639POPC   C1B18463   8.990  10.231   8.550
 5639POPC   C2B18464   8.993  10.264   8.250
 5639POPC   C3B18465   9.050  10.329   7.950
 5639POPC   C4B18466   9.020  10.316   7.650
 5640POPC   NC318467  14.442  32.220   9.450
 5640POPC   PO418468  14.444  32.253   9.150
 5640POPC   GL118469  14.427  32.261   8.850
 5640POPC   GL218470  14.500  32.139   8.850
 5640POPC   C1A18471  14.415  32.209   8.550
 5640POPC   D2A18472  14.399  32.296   8.250
 5640POPC   C3A18473  14.437  32.274   7.950
 5640POPC   C4A18474  14.359  32.266   7.650
 5640POPC   C1B18475  14.518  32.061   8.550
 5640POPC   C2B18476  14.563  31.993   8.250
 5640POPC   C3B18477  14.545  32.064   7.950
 5640POPC   C4B18478  14.540  32.023   7.650
 5641POPC   NC318479  14.421  29.908   9.450
 5641POPC   PO418480  14.417  29.959   9.150
 5641POPC   GL118481  14.374  29.917   8.850
 5641POPC   GL218482  14.399  29.812   8.850
 5641POPC   C1A18483  14.415  29.929   8.550
 5641POPC   D2A18484  14.405  29.894   8.250
 5641POPC   C3A18485  14.433  29.969   7.950
 5641POPC   C4A18486  14.430  29.970   7.650
 5641POPC   C1B18487  14.439  29.712   8.550
 5641POPC   C2B18488  14.380  29.653   8.250
 5641POPC   C3B18489  14.372  29.672   7.950
 5641POPC   C4B18490  14.411  29.671   7.650
 5642POPC   NC318491   7.409  17.526   9.450
 5642POPC   PO418492   7.376  17.555   9.150
 5642POPC   GL118493   7.396  17.486   8.850
 5642POPC   GL218494   7.384  17.421   8.850
 5642POPC   C1A18495   7.443  17.520   8.550
 5642POPC   D2A18496   7.382  17.526   8.250
 5642POPC   C3A18497   7.408  17.502   7.950
 5642POPC   C4A18498   7.393  17.548   7.650
 5642POPC   C1B18499   7.404  17.252   8.550
 5642POPC   C2B18500   7.407  17.211   8.250
 5642POPC   C3B18501   7.405  17.239   7.950
 5642POPC   C4B18502   7.405  17.269   7.650
 5643POPC   NC318503  12.086  21.371   9.450
 5643POPC   PO418504  12.067  21.341   9.150
 5643POPC   GL118505  12.078  21.383   8.850
 5643POPC   GL218506  11.985  21.328   8.850
 5643POPC   C1A18507  12.076  21.427   8.550
 5643POPC   D2A18508  12.068  21.357   8.250
 5643POPC   C3A18509  12.108  21.396   7.950
 5643POPC   C4A18510  12.065  21.364   7.650
 5643POPC   C1B18511  11.888  21.197   8.550
 5643POPC   C2B18512  11.931  21.154   8.250
 5643POPC   C3B18513  11.932  21.201   7.950
 5643POPC   C4B18514  11.889  21.187   7.650
 5644POPC   NC318515   1.221  42.305   9.450
 5644POPC   PO418516   1.248  42.292   9.150
 5644POPC   GL118517   1.192  42.297   8.850
 5644POPC   GL218518   1.090  42.449   8.850
 5644POPC   C1A18519   1.256  42.340   8.550
 5644POPC   D2A18520   1.264  42.337   8.250
 5644POPC   C3A18521   1.218  42.362   7.950
 5644POPC   C4A18522   1.198  42.309   7.650
 5644POPC   C1B18523   1.078  42.466   8.550
 5644POPC   C2B18524   1.039  42.502   8.250
 5644POPC   C3B18525   1.068  42.522   7.950
 5644POPC   C4B18526   0.986  42.459   7.650
 5645POPC   NC318527  35.333  36.877   9.450
 5645POPC   PO418528  35.361  36.893   9.150
 5645POPC   GL118529  35.396  36.933   8.850
 5645POPC   GL218530  35.296  37.054   8.850
 5645POPC   C1A18531  35.322  36.891   8.550
 5645POPC   D2A18532  35.340  36.884   8.250
 5645POPC   C3A18533  35.316  36.887   7.950
 5645POPC   C4A18534  35.400  36.952   7.650
 5645POPC   C1B18535  35.230  37.106   8.550
 5645POPC   C2B18536  35.235  37.171   8.250
 5645POPC   C3B18537  35.278  37.143   7.950
 5645POPC   C4B18538  35.253  37.157   7.650
 5646POPC   NC318539  43.127  20.585   9.450
 5646POPC   PO418540  43.115  20.576   9.150
 5646POPC   GL118541  43.152  20.592   8.850
 5646POPC   GL218542  43.097  20.497   8.850
 5646POPC   C1A18543  43.134  20.616   8.550
 5646POPC   D2A18544  43.106  20.584   8.250
 5646POPC   C3A18545  43.079  20.585   7.950
 5646POPC   C4A18546  43.092  20.571   7.650
 5646POPC   C1B18547  43.025  20.366   8.550
 5646POPC   C2B18548  43.044  20.360   8.250
 5646POPC   C3B18549  43.013  20.402   7.950
 5646POPC   C4B18550  43.036  20.421   7.650
 5647POPC   NC318551  40.052  22.961   9.450
 5647POPC   PO418552  39.960  22.957   9.150
 5647POPC   GL118553  40.011  22.915   8.850
 5647POPC   GL218554  40.019  23.088   8.850
 5647POPC   C1A18555  40.013  22.901   8.550
 5647POPC   D2A18556  40.028  22.910   8.250
 5647POPC   C3A18557  40.025  22.924   7.950
 5647POPC   C4A18558  40.051  22.891   7.650
 5647POPC   C1B18559  40.031  23.149   8.550
 5647POPC   C2B18560  40.014  23.209   8.250
 5647POPC   C3B18561  39.976  23.213   7.950
 5647POPC   C4B18562  39.971  23.178   7.650
 5648POPC   NC318563  10.518  44.677   9.450
 5648POPC   PO418564  10.530  44.662   9.150
 5648POPC   GL118565  10.527  44.655   8.850
 5648POPC   GL218566  10.636  44.558   8.850
 5648POPC   C1A18567  10.484  44.665   8.550
 5648POPC   D2A18568  10.522  44.701   8.250
 5648POPC   C3A18569  10.509  44.662   7.950
 5648POPC   C4A18570  10.481  44.666   7.650
 5648POPC   C1B18571  10.742  44.562   8.550
 5648POPC   C2B18572  10.735  44.479   8.250
 5648POPC   C3B18573  10.729  44.528   7.950
 5648POPC   C4B18574  10.699  44.552   7.650
 5649POPC   NC318575  30.710   9.744   9.450
 5649POPC   PO418576  30.724   9.761   9.150
 5649POPC   GL118577  30.647   9.750   8.850
 5649POPC   GL218578  30.744   9.619   8.850
 5649POPC   C1A18579  30.651   9.700   8.550
 5649POPC   D2A18580  30.700   9.713   8.250
 5649POPC   C3A18581  30.696   9.772   7.950
 5649POPC   C4A18582  30.743   9.718   7.650
 5649POPC   C1B18583  30.787   9.466   8.550
 5649POPC   C2B18584  30.794   9.522   8.250
 5649POPC   C3B18585  30.807   9.495   7.950
 5649POPC   C4B18586  30.756   9.464   7.650
 5650POPC   NC318587  28.319  29.193   9.450
 5650POPC   PO418588  28.368  29.184   9.150
 5650POPC   GL118589  28.395  29.158   8.850
 5650POPC   GL218590  28.447  29.088   8.850
 5650POPC   C1A18591  28.356  29.181   8.550
 5650POPC   D2A18592  28.407  29.099   8.250
 5650POPC   C3A18593  28.395  29.173   7.950
 5650POPC   C4A18594  28.354  29.184   7.650
 5650POPC   C1B18595  28.540  29.001   8.550
 5650POPC   C2B18596  28.565  29.027   8.250
 5650POPC   C3B18597  28.606  28.973   7.950
 5650POPC   C4B18598  28.591  28.976   7.650
 5651POPC   NC318599  32.224   0.428   9.450
 5651POPC   PO418600  32.253   0.402   9.150
 5651POPC   GL118601  32.216   0.446   8.850
 5651POPC   GL218602  32.180   0.393   8.850
 5651POPC   C1A18603  32.237   0.423   8.550
 5651POPC   D2A18604  32.291   0.438   8.250
 5651POPC   C3A18605  32.207   0.455   7.950
 5651POPC   C4A18606  32.210   0.428   7.650
 5651POPC   C1B18607  32.015   0.357   8.550
 5651POPC   C2B18608  32.039   0.368   8.250
 5651POPC   C3B18609  32.036   0.330   7.950
 5651POPC   C4B18610  32.049   0.324   7.650
 5652POPC   NC318611  23.759  28.382   9.450
 5652POPC   PO418612  23.760  28.382   9.150
 5652POPC   GL118613  23.741  28.399   8.850
 5652POPC   GL218614  23.784  28.522   8.850
 5652POPC   C1A18615  23.708  28.412   8.550
 5652POPC   D2A18616  23.732  28.348   8.250
 5652POPC   C3A18617  23.679  28.402   7.950
 5652POPC   C4A18618  23.713  28.395   7.650
 5652POPC   C1B18619  23.733  28.602   8.550
 5652POPC   C2B18620  23.733  28.640   8.250
 5652POPC   C3B18621  23.799  28.659   7.950
 5652POPC   C4B18622  23.725  28.650   7.650
 5653POPC   NC318623  29.926  36.085   9.450
 5653POPC   PO418624  29.885  36.162   9.150
 5653POPC   GL118625  29.950  36.153   8.850
 5653POPC   GL218626  30.076  36.201   8.850
 5653POPC   C1A18627  29.956  36.155   8.550
 5653POPC   D2A18628  29.906  36.102   8.250
 5653POPC   C3A18629  29.921  36.098   7.950
 5653POPC   C4A18630  29.899  36.155   7.650
 5653POPC   C1B18631  30.143  36.185   8.550
 5653POPC   C2B18632  30.174  36.227   8.250
 5653POPC   C3B18633  30.205  36.163   7.950
 5653POPC   C4B18634  30.139  36.156   7.650
 5654POPC   NC318635  16.696  32.274   9.450
 5654POPC   PO418636  16.691  32.201   9.150
 5654POPC   GL118637  16.720  32.231   8.850
 5654POPC   GL218638  16.559  32.213   8.850
 5654POPC   C1A18639  16.690  32.292   8.550
 5654POPC   D2A18640  16.692  32.254   8.250
 5654POPC   C3A18641  16.753  32.284   7.950
 5654POPC   C4A18642  16.745  32.230   7.650
 5654POPC   C1B18643  16.481  32.243   8.550
 5654POPC   C2B18644  16.484  32.214   8.250
 5654POPC   C3B18645  16.504  32.254   7.950
 5654POPC   C4B18646  16.502  32.187   7.650
 5655POPC   NC318647  32.279  27.557   9.450
 5655POPC   PO418648  32.252  27.580   9.150
 5655POPC   GL118649  32.288  27.621   8.850
 5655POPC   GL218650  32.164  27.481   8.850
 5655POPC   C1A18651  32.223  27.580   8.550
 5655POPC   D2A18652  32.290  27.601   8.250
 5655POPC   C3A18653  32.207  27.640   7.950
 5655POPC   C4A18654  32.236  27.612   7.650
 5655POPC   C1B18655  32.094  27.442   8.550
 5655POPC   C2B18656  32.076  27.372   8.250
 5655POPC   C3B18657  32.132  27.423   7.950
 5655POPC   C4B18658  32.120  27.428   7.650
 5656POPC   NC318659  34.530  27.559   9.450
 5656POPC   PO418660  34.589  27.612   9.150
 5656POPC   GL118661  34.539  27.593   8.850
 5656POPC   GL218662  34.707  27.662   8.850
 5656POPC   C1A18663  34.573  27.543   8.550
 5656POPC   D2A18664  34.543  27.552   8.250
 5656POPC   C3A18665  34.552  27.600   7.950
 5656POPC   C4A18666  34.601  27.594   7.650
 5656POPC   C1B18667  34.784  27.703   8.550
 5656POPC   C2B18668  34.779  27.763   8.250
 5656POPC   C3B18669  34.814  27.750   7.950
 5656POPC   C4B18670  34.765  27.757   7.650
 5657POPC   NC318671  29.912  38.452   9.450
 5657POPC   PO418672  29.942  38.421   9.150
 5657POPC   GL118673  29.894  38.449   8.850
 5657POPC   GL218674  29.914  38.349   8.850
 5657POPC   C1A18675  29.900  38.491   8.550
 5657POPC   D2A18676  29.892  38.478   8.250
 5657POPC   C3A18677  29.949  38.486   7.950
 5657POPC   C4A18678  29.949  38.436   7.650
 5657POPC   C1B18679  29.905  38.218   8.550
 5657POPC   C2B18680  29.940  38.250   8.250
 5657POPC   C3B18681  29.954  38.242   7.950
 5657POPC   C4B18682  29.872  38.159   7.650
 5658POPC   NC318683  36.139  43.851   9.450
 5658POPC   PO418684  36.086  43.910   9.150
 5658POPC   GL118685  36.111  43.844   8.850
 5658POPC   GL218686  36.037  43.871   8.850
 5658POPC   C1A18687  36.161  43.845   8.550
 5658POPC   D2A18688  36.124  43.871   8.250
 5658POPC   C3A18689  36.167  43.876   7.950
 5658POPC   C4A18690  36.175  43.872   7.650
 5658POPC   C1B18691  35.889  43.848   8.550
 5658POPC   C2B18692  35.924  43.881   8.250
 5658POPC   C3B18693  35.884  43.899   7.950
 5658POPC   C4B18694  35.916  43.840   7.650
 5659POPC   NC318695  29.114  26.030   9.450
 5659POPC   PO418696  29.099  26.065   9.150
 5659POPC   GL118697  29.182  26.027   8.850
 5659POPC   GL218698  29.159  26.206   8.850
 5659POPC   C1A18699  29.110  26.087   8.550
 5659POPC   D2A18700  29.099  26.024   8.250
 5659POPC   C3A18701  29.173  26.018   7.950
 5659POPC   C4A18702  29.147  26.001   7.650
 5659POPC   C1B18703  29.180  26.274   8.550
 5659POPC   C2B18704  29.119  26.282   8.250
 5659POPC   C3B18705  29.153  26.298   7.950
 5659POPC   C4B18706  29.195  26.318   7.650
 5660POPC   NC318707  14.372  25.237   9.450
 5660POPC   PO418708  14.383  25.266   9.150
 5660POPC   GL118709  14.453  25.220   8.850
 5660POPC   GL218710  14.450  25.404   8.850
 5660POPC   C1A18711  14.425  25.248   8.550
 5660POPC   D2A18712  14.393  25.225   8.250
 5660POPC   C3A18713  14.443  25.308   7.950
 5660POPC   C4A18714  14.409  25.304   7.650
 5660POPC   C1B18715  14.441  25.518   8.550
 5660POPC   C2B18716  14.414  25.499   8.250
 5660POPC   C3B18717  14.478  25.467   7.950
 5660POPC   C4B18718  14.444  25.477   7.650
 5661POPC   NC318719  11.347  29.144   9.450
 5661POPC   PO418720  11.269  29.170   9.150
 5661POPC   GL118721  11.267  29.139   8.850
 5661POPC   GL218722  11.336  28.976   8.850
 5661POPC   C1A18723  11.345  29.188   8.550
 5661POPC   D2A18724  11.284  29.159   8.250
 5661POPC   C3A18725  11.303  29.194   7.950
 5661POPC   C4A18726  11.264  29.183   7.650
 5661POPC   C1B18727  11.307  28.905   8.550
 5661POPC   C2B18728  11.285  28.882   8.250
 5661POPC   C3B18729  11.321  28.905   7.950
 5661POPC   C4B18730  11.304  28.890   7.650
 5662POPC   NC318731  44.679  26.826   9.450
 5662POPC   PO418732  44.670  26.827   9.150
 5662POPC   GL118733  44.630  26.858   8.850
 5662POPC   GL218734  44.576  26.831   8.850
 5662POPC   C1A18735  44.709  26.772   8.550
 5662POPC   D2A18736  44.686  26.861   8.250
 5662POPC   C3A18737  44.632  26.808   7.950
 5662POPC   C4A18738  44.630  26.816   7.650
 5662POPC   C1B18739  44.467  26.952   8.550
 5662POPC   C2B18740  44.464  26.907   8.250
 5662POPC   C3B18741  44.408  26.892   7.950
 5662POPC   C4B18742  44.397  26.937   7.650
 5663POPC   NC318743  26.780  23.741   9.450
 5663POPC   PO418744  26.857  23.698   9.150
 5663POPC   GL118745  26.814  23.754   8.850
 5663POPC   GL218746  26.910  23.626   8.850
 5663POPC   C1A18747  26.779  23.708   8.550
 5663POPC   D2A18748  26.835  23.697   8.250
 5663POPC   C3A18749  26.839  23.727   7.950
 5663POPC   C4A18750  26.847  23.708   7.650
 5663POPC   C1B18751  26.976  23.466   8.550
 5663POPC   C2B18752  26.919  23.459   8.250
 5663POPC   C3B18753  26.939  23.466   7.950
 5663POPC   C4B18754  26.937  23.485   7.650
 5664POPC   NC318755  15.996  36.150   9.450
 5664POPC   PO418756  15.918  36.084   9.150
 5664POPC   GL118757  15.919  36.135   8.850
 5664POPC   GL218758  15.851  36.075   8.850
 5664POPC   C1A18759  15.969  36.089   8.550
 5664POPC   D2A18760  15.972  36.093   8.250
 5664POPC   C3A18761  15.943  36.140   7.950
 5664POPC   C4A18762  15.970  36.130   7.650
 5664POPC   C1B18763  15.753  36.082   8.550
 5664POPC   C2B18764  15.730  36.109   8.250
 5664POPC   C3B18765  15.746  36.046   7.950
 5664POPC   C4B18766  15.687  36.101   7.650
 5665POPC   NC318767  29.177  15.140   9.450
 5665POPC   PO418768  29.164  15.164   9.150
 5665POPC   GL118769  29.155  15.168   8.850
 5665POPC   GL218770  29.131  15.320   8.850
 5665POPC   C1A18771  29.124  15.198   8.550
 5665POPC   D2A18772  29.099  15.168   8.250
 5665POPC   C3A18773  29.142  15.174   7.950
 5665POPC   C4A18774  29.121  15.226   7.650
 5665POPC   C1B18775  29.138  15.387   8.550
 5665POPC   C2B18776  29.138  15.416   8.250
 5665POPC   C3B18777  29.126  15.473   7.950
 5665POPC   C4B18778  29.157  15.416   7.650
 5666POPC   NC318779   9.009   3.543   9.450
 5666POPC   PO418780   8.999   3.497   9.150
 5666POPC   GL118781   8.985   3.509   8.850
 5666POPC   GL218782   8.857   3.434   8.850
 5666POPC   C1A18783   8.944   3.519   8.550
 5666POPC   D2A18784   8.927   3.585   8.250
 5666POPC   C3A18785   9.020   3.569   7.950
 5666POPC   C4A18786   8.985   3.534   7.650
 5666POPC   C1B18787   8.779   3.394   8.550
 5666POPC   C2B18788   8.729   3.435   8.250
 5666POPC   C3B18789   8.727   3.369   7.950
 5666POPC   C4B18790   8.823   3.368   7.650
 5667POPC   NC318791  40.808  22.179   9.450
 5667POPC   PO418792  40.777  22.196   9.150
 5667POPC   GL118793  40.812  22.113   8.850
 5667POPC   GL218794  40.853  22.250   8.850
 5667POPC   C1A18795  40.825  22.130   8.550
 5667POPC   D2A18796  40.769  22.153   8.250
 5667POPC   C3A18797  40.740  22.189   7.950
 5667POPC   C4A18798  40.771  22.212   7.650
 5667POPC   C1B18799  40.900  22.327   8.550
 5667POPC   C2B18800  40.942  22.380   8.250
 5667POPC   C3B18801  40.892  22.367   7.950
 5667POPC   C4B18802  40.934  22.400   7.650
 5668POPC   NC318803  25.220  36.928   9.450
 5668POPC   PO418804  25.240  36.861   9.150
 5668POPC   GL118805  25.247  36.882   8.850
 5668POPC   GL218806  25.192  37.034   8.850
 5668POPC   C1A18807  25.274  36.911   8.550
 5668POPC   D2A18808  25.244  36.944   8.250
 5668POPC   C3A18809  25.252  36.900   7.950
 5668POPC   C4A18810  25.294  36.940   7.650
 5668POPC   C1B18811  25.059  37.102   8.550
 5668POPC   C2B18812  25.064  37.084   8.250
 5668POPC   C3B18813  25.117  37.037   7.950
 5668POPC   C4B18814  25.069  37.089   7.650
 5669POPC   NC318815  23.736   1.183   9.450
 5669POPC   PO418816  23.754   1.234   9.150
 5669POPC   GL118817  23.727   1.181   8.850
 5669POPC   GL218818  23.792   1.374   8.850
 5669POPC   C1A18819  23.692   1.174   8.550
 5669POPC   D2A18820  23.738   1.200   8.250
 5669POPC   C3A18821  23.748   1.184   7.950
 5669POPC   C4A18822  23.729   1.252   7.650
 5669POPC   C1B18823  23.804   1.411   8.550
 5669POPC   C2B18824  23.856   1.412   8.250
 5669POPC   C3B18825  23.837   1.468   7.950
 5669POPC   C4B18826  23.843   1.434   7.650
 5670POPC   NC318827  25.220  19.054   9.450
 5670POPC   PO418828  25.308  19.041   9.150
 5670POPC   GL118829  25.307  19.105   8.850
 5670POPC   GL218830  25.286  19.214   8.850
 5670POPC   C1A18831  25.246  19.083   8.550
 5670POPC   D2A18832  25.218  19.079   8.250
 5670POPC   C3A18833  25.307  19.042   7.950
 5670POPC   C4A18834  25.282  19.084   7.650
 5670POPC   C1B18835  25.388  19.246   8.550
 5670POPC   C2B18836  25.374  19.261   8.250
 5670POPC   C3B18837  25.399  19.315   7.950
 5670POPC   C4B18838  25.335  19.277   7.650
 5671POPC   NC318839  42.319  12.107   9.450
 5671POPC   PO418840  42.372  12.107   9.150
 5671POPC   GL118841  42.312  12.037   8.850
 5671POPC   GL218842  42.448  12.023   8.850
 5671POPC   C1A18843  42.353  12.125   8.550
 5671POPC   D2A18844  42.305  12.030   8.250
 5671POPC   C3A18845  42.350  12.062   7.950
 5671POPC   C4A18846  42.324  12.083   7.650
 5671POPC   C1B18847  42.537  11.960   8.550
 5671POPC   C2B18848  42.545  11.969   8.250
 5671POPC   C3B18849  42.571  11.878   7.950
 5671POPC   C4B18850  42.557  11.884   7.650
 5672POPC   NC318851   5.118  38.495   9.450
 5672POPC   PO418852   5.109  38.420   9.150
 5672POPC   GL118853   5.135  38.419   8.850
 5672POPC   GL218854   4.988  38.593   8.850
 5672POPC   C1A18855   5.118  38.473   8.550
 5672POPC   D2A18856   5.128  38.436   8.250
 5672POPC   C3A18857   5.071  38.489   7.950
 5672POPC   C4A18858   5.108  38.442   7.650
 5672POPC   C1B18859   4.951  38.682   8.550
 5672POPC   C2B18860   4.988  38.685   8.250
 5672POPC   C3B18861   4.996  38.643   7.950
 5672POPC   C4B18862   4.907  38.653   7.650
 5673POPC   NC318863  38.423  33.021   9.450
 5673POPC   PO418864  38.478  33.016   9.150
 5673POPC   GL118865  38.429  32.994   8.850
 5673POPC   GL218866  38.614  32.968   8.850
 5673POPC   C1A18867  38.453  32.988   8.550
 5673POPC   D2A18868  38.422  32.984   8.250
 5673POPC   C3A18869  38.448  32.992   7.950
 5673POPC   C4A18870  38.467  32.983   7.650
 5673POPC   C1B18871  38.710  32.987   8.550
 5673POPC   C2B18872  38.721  33.043   8.250
 5673POPC   C3B18873  38.679  33.025   7.950
 5673POPC   C4B18874  38.670  32.958   7.650
 5674POPC   NC318875  44.666  44.636   9.450
 5674POPC   PO418876  44.676  44.620   9.150
 5674POPC   GL118877  44.659  44.680   8.850
 5674POPC   GL218878  44.725  44.705   8.850
 5674POPC   C1A18879  44.707  44.693   8.550
 5674POPC   D2A18880  44.692  44.692   8.250
 5674POPC   C3A18881  44.648  44.648   7.950
 5674POPC   C4A18882  44.647  44.623   7.650
 5674POPC   C1B18883  44.848  44.845   8.550
 5674POPC   C2B18884  44.809  44.847   8.250
 5674POPC   C3B18885  44.859  44.863   7.950
 5674POPC   C4B18886  44.828  44.857   7.650
 5675POPC   NC318887  13.646  41.542   9.450
 5675POPC   PO418888  13.623  41.512   9.150
 5675POPC   GL118889  13.589  41.537   8.850
 5675POPC   GL218890  13.713  41.570   8.850
 5675POPC   C1A18891  13.643  41.588   8.550
 5675POPC   D2A18892  13.673  41.606   8.250
 5675POPC   C3A18893  13.616  41.596   7.950
 5675POPC   C4A18894  13.588  41.583   7.650
 5675POPC   C1B18895  13.890  41.646   8.550
 5675POPC   C2B18896  13.852  41.595   8.250
 5675POPC   C3B18897  13.823  41.623   7.950
 5675POPC   C4B18898  13.853  41.612   7.650
 5676POPC   NC318899  26.810  12.833   9.450
 5676POPC   PO418900  26.783  12.846   9.150
 5676POPC   GL118901  26.798  12.830   8.850
 5676POPC   GL218902  26.778  12.722   8.850
 5676POPC   C1A18903  26.822  12.838   8.550
 5676POPC   D2A18904  26.800  12.869   8.250
 5676POPC   C3A18905  26.853  12.828   7.950
 5676POPC   C4A18906  26.832  12.899   7.650
 5676POPC   C1B18907  26.706  12.582   8.550
 5676POPC   C2B18908  26.697  12.637   8.250
 5676POPC   C3B18909  26.766  12.625   7.950
 5676POPC   C4B18910  26.703  12.582   7.650
 5677POPC   NC318911  29.933  24.471   9.450
 5677POPC   PO418912  29.894  24.455   9.150
 5677POPC   GL118913  29.951  24.511   8.850
 5677POPC   GL218914  29.931  24.399   8.850
 5677POPC   C1A18915  29.939  24.531   8.550
 5677POPC   D2A18916  29.957  24.452   8.250
 5677POPC   C3A18917  29.891  24.528   7.950
 5677POPC   C4A18918  29.928  24.472   7.650
 5677POPC   C1B18919  29.896  24.205   8.550
 5677POPC   C2B18920  29.917  24.237   8.250
 5677POPC   C3B18921  29.920  24.217   7.950
 5677POPC   C4B18922  29.931  24.261   7.650
 5678POPC   NC318923  36.138  18.274   9.450
 5678POPC   PO418924  36.109  18.294   9.150
 5678POPC   GL118925  36.095  18.323   8.850
 5678POPC   GL218926  36.152  18.399   8.850
 5678POPC   C1A18927  36.161  18.309   8.550
 5678POPC   D2A18928  36.116  18.238   8.250
 5678POPC   C3A18929  36.111  18.311   7.950
 5678POPC   C4A18930  36.143  18.290   7.650
 5678POPC   C1B18931  36.194  18.533   8.550
 5678POPC   C2B18932  36.238  18.573   8.250
 5678POPC   C3B18933  36.220  18.498   7.950
 5678POPC   C4B18934  36.184  18.515   7.650
 5679POPC   NC318935  22.200   1.184   9.450
 5679POPC   PO418936  22.125   1.198   9.150
 5679POPC   GL118937  22.116   1.171   8.850
 5679POPC   GL218938  22.096   1.290   8.850
 5679POPC   C1A18939  22.209   1.187   8.550
 5679POPC   D2A18940  22.203   1.205   8.250
 5679POPC   C3A18941  22.173   1.253   7.950
 5679POPC   C4A18942  22.132   1.173   7.650
 5679POPC   C1B18943  22.060   1.486   8.550
 5679POPC   C2B18944  22.036   1.450   8.250
 5679POPC   C3B18945  22.084   1.480   7.950
 5679POPC   C4B18946  22.058   1.490   7.650
 5680POPC   NC318947  33.038  36.881   9.450
 5680POPC   PO418948  33.042  36.929   9.150
 5680POPC   GL118949  33.012  36.895   8.850
 5680POPC   GL218950  32.904  36.838   8.850
 5680POPC   C1A18951  32.975  36.930   8.550
 5680POPC   D2A18952  32.993  36.949   8.250
 5680POPC   C3A18953  33.043  36.882   7.950
 5680POPC   C4A18954  33.061  36.942   7.650
 5680POPC   C1B18955  32.813  36.749   8.550
 5680POPC   C2B18956  32.796  36.746   8.250
 5680POPC   C3B18957  32.782  36.767   7.950
 5680POPC   C4B18958  32.775  36.745   7.650
 5681POPC   NC318959  26.014   7.400   9.450
 5681POPC   PO418960  26.004   7.407   9.150
 5681POPC   GL118961  26.015   7.437   8.850
 5681POPC   GL218962  25.967   7.541   8.850
 5681POPC   C1A18963  26.016   7.381   8.550
 5681POPC   D2A18964  26.027   7.453   8.250
 5681POPC   C3A18965  26.027   7.408   7.950
 5681POPC   C4A18966  26.061   7.466   7.650
 5681POPC   C1B18967  25.863   7.606   8.550
 5681POPC   C2B18968  25.934   7.640   8.250
 5681POPC   C3B18969  25.853   7.641   7.950
 5681POPC   C4B18970  25.853   7.655   7.650
 5682POPC   NC318971  19.034   8.183   9.450
 5682POPC   PO418972  19.040   8.217   9.150
 5682POPC   GL118973  19.028   8.245   8.850
 5682POPC   GL218974  19.012   8.329   8.850
 5682POPC   C1A18975  19.090   8.230   8.550
 5682POPC   D2A18976  19.093   8.148   8.250
 5682POPC   C3A18977  19.108   8.157   7.950
 5682POPC   C4A18978  19.097   8.199   7.650
 5682POPC   C1B18979  18.988   8.388   8.550
 5682POPC   C2B18980  19.003   8.392   8.250
 5682POPC   C3B18981  18.990   8.445   7.950
 5682POPC   C4B18982  18.952   8.470   7.650
 5683POPC   NC318983  29.191  29.160   9.450
 5683POPC   PO418984  29.144  29.140   9.150
 5683POPC   GL118985  29.107  29.116   8.850
 5683POPC   GL218986  29.090  29.262   8.850
 5683POPC   C1A18987  29.175  29.190   8.550
 5683POPC   D2A18988  29.122  29.155   8.250
 5683POPC   C3A18989  29.097  29.164   7.950
 5683POPC   C4A18990  29.190  29.119   7.650
 5683POPC   C1B18991  29.110  29.339   8.550
 5683POPC   C2B18992  29.089  29.404   8.250
 5683POPC   C3B18993  29.117  29.395   7.950
 5683POPC   C4B18994  29.052  29.341   7.650
 5684POPC   NC318995  18.330  11.290   9.450
 5684POPC   PO418996  18.306  11.257   9.150
 5684POPC   GL118997  18.272  11.286   8.850
 5684POPC   GL218998  18.134  11.322   8.850
 5684POPC   C1A18999  18.258  11.263   8.550
 5684POPC   D2A19000  18.323  11.298   8.250
 5684POPC   C3A19001  18.303  11.330   7.950
 5684POPC   C4A19002  18.305  11.341   7.650
 5684POPC   C1B19003  18.017  11.431   8.550
 5684POPC   C2B19004  18.048  11.384   8.250
 5684POPC   C3B19005  18.090  11.424   7.950
 5684POPC   C4B19006  18.001  11.412   7.650
 5685POPC   NC319007  37.636  24.507   9.450
 5685POPC   PO419008  37.710  24.532   9.150
 5685POPC   GL119009  37.648  24.480   8.850
 5685POPC   GL219010  37.633  24.585   8.850
 5685POPC   C1A19011  37.702  24.459   8.550
 5685POPC   D2A19012  37.673  24.458   8.250
 5685POPC   C3A19013  37.677  24.469   7.950
 5685POPC   C4A19014  37.637  24.512   7.650
 5685POPC   C1B19015  37.595  24.744   8.550
 5685POPC   C2B19016  37.583  24.680   8.250
 5685POPC   C3B19017  37.535  24.733   7.950
 5685POPC   C4B19018  37.607  24.737   7.650
 5686POPC   NC319019   8.168  36.953   9.450
 5686POPC   PO419020   8.238  36.930   9.150
 5686POPC   GL119021   8.223  36.883   8.850
 5686POPC   GL219022   8.234  37.058   8.850
 5686POPC   C1A19023   8.216  36.897   8.550
 5686POPC   D2A19024   8.234  36.932   8.250
 5686POPC   C3A19025   8.213  36.879   7.950
 5686POPC   C4A19026   8.172  36.921   7.650
 5686POPC   C1B19027   8.280  37.150   8.550
 5686POPC   C2B19028   8.280  37.113   8.250
 5686POPC   C3B19029   8.260  37.111   7.950
 5686POPC   C4B19030   8.221  37.170   7.650
 5687POPC   NC319031  19.068  32.290   9.450
 5687POPC   PO419032  19.086  32.233   9.150
 5687POPC   GL119033  19.066  32.269   8.850
 5687POPC   GL219034  19.161  32.405   8.850
 5687POPC   C1A19035  19.073  32.240   8.550
 5687POPC   D2A19036  19.029  32.213   8.250
 5687POPC   C3A19037  19.013  32.297   7.950
 5687POPC   C4A19038  19.047  32.259   7.650
 5687POPC   C1B19039  19.134  32.493   8.550
 5687POPC   C2B19040  19.130  32.502   8.250
 5687POPC   C3B19041  19.123  32.512   7.950
 5687POPC   C4B19042  19.123  32.456   7.650
 5688POPC   NC319043  33.751  11.278   9.450
 5688POPC   PO419044  33.790  11.329   9.150
 5688POPC   GL119045  33.796  11.290   8.850
 5688POPC   GL219046  33.944  11.253   8.850
 5688POPC   C1A19047  33.831  11.270   8.550
 5688POPC   D2A19048  33.768  11.338   8.250
 5688POPC   C3A19049  33.766  11.272   7.950
 5688POPC   C4A19050  33.760  11.305   7.650
 5688POPC   C1B19051  34.014  11.317   8.550
 5688POPC   C2B19052  34.004  11.319   8.250
 5688POPC   C3B19053  34.095  11.296   7.950
 5688POPC   C4B19054  34.050  11.295   7.650
 5689POPC   NC319055  40.052  18.289   9.450
 5689POPC   PO419056  39.993  18.303   9.150
 5689POPC   GL119057  39.985  18.329   8.850
 5689POPC   GL219058  39.873  18.311   8.850
 5689POPC   C1A19059  40.039  18.245   8.550
 5689POPC   D2A19060  40.053  18.238   8.250
 5689POPC   C3A19061  39.963  18.327   7.950
 5689POPC   C4A19062  40.047  18.266   7.650
 5689POPC   C1B19063  39.782  18.278   8.550
 5689POPC   C2B19064  39.720  18.238   8.250
 5689POPC   C3B19065  39.777  18.248   7.950
 5689POPC   C4B19066  39.731  18.310   7.650
 5690POPC   NC319067   7.383  33.829   9.450
 5690POPC   PO419068   7.456  33.784   9.150
 5690POPC   GL119069   7.385  33.828   8.850
 5690POPC   GL219070   7.477  33.716   8.850
 5690POPC   C1A19071   7.448  33.800   8.550
 5690POPC   D2A19072   7.414  33.754   8.250
 5690POPC   C3A19073   7.412  33.767   7.950
 5690POPC   C4A19074   7.371  33.810   7.650
 5690POPC   C1B19075   7.496  33.548   8.550
 5690POPC   C2B19076   7.484  33.602   8.250
 5690POPC   C3B19077   7.459  33.597   7.950
 5690POPC   C4B19078   7.450  33.566   7.650
 5691POPC   NC319079  10.537  25.296   9.450
 5691POPC   PO419080  10.511  25.299   9.150
 5691POPC   GL119081  10.519  25.292   8.850
 5691POPC   GL219082  10.448  25.327   8.850
 5691POPC   C1A19083  10.534  25.289   8.550
 5691POPC   D2A19084  10.505  25.220   8.250
 5691POPC   C3A19085  10.490  25.279   7.950
 5691POPC   C4A19086  10.563  25.237   7.650
 5691POPC   C1B19087  10.396  25.418   8.550
 5691POPC   C2B19088  10.409  25.449   8.250
 5691POPC   C3B19089  10.360  25.418   7.950
 5691POPC   C4B19090  10.378  25.496   7.650
 5692POPC   NC319091   5.112  29.952   9.450
 5692POPC   PO419092   5.046  29.957   9.150
 5692POPC   GL119093   5.063  29.924   8.850
 5692POPC   GL219094   5.169  29.853   8.850
 5692POPC   C1A19095   5.075  29.929   8.550
 5692POPC   D2A19096   5.046  29.919   8.250
 5692POPC   C3A19097   5.127  29.942   7.950
 5692POPC   C4A19098   5.078  29.938   7.650
 5692POPC   C1B19099   5.286  29.780   8.550
 5692POPC   C2B19100   5.301  29.813   8.250
 5692POPC   C3B19101   5.298  29.812   7.950
 5692POPC   C4B19102   5.285  29.768   7.650
 5693POPC   NC319103  42.367  23.687   9.450
 5693POPC   PO419104  42.338  23.714   9.150
 5693POPC   GL119105  42.338  23.704   8.850
 5693POPC   GL219106  42.226  23.581   8.850
 5693POPC   C1A19107  42.372  23.667   8.550
 5693POPC   D2A19108  42.293  23.754   8.250
 5693POPC   C3A19109  42.321  23.695   7.950
 5693POPC   C4A19110  42.346  23.683   7.650
 5693POPC   C1B19111  42.155  23.486   8.550
 5693POPC   C2B19112  42.193  23.549   8.250
 5693POPC   C3B19113  42.216  23.539   7.950
 5693POPC   C4B19114  42.184  23.527   7.650
 5694POPC   NC319115   3.506  36.889   9.450
 5694POPC   PO419116   3.499  36.865   9.150
 5694POPC   GL119117   3.560  36.910   8.850
 5694POPC   GL219118   3.451  36.886   8.850
 5694POPC   C1A19119   3.520  36.884   8.550
 5694POPC   D2A19120   3.530  36.868   8.250
 5694POPC   C3A19121   3.576  36.862   7.950
 5694POPC   C4A19122   3.537  36.882   7.650
 5694POPC   C1B19123   3.349  36.834   8.550
 5694POPC   C2B19124   3.321  36.833   8.250
 5694POPC   C3B19125   3.349  36.799   7.950
 5694POPC   C4B19126   3.286  36.783   7.650
 5695POPC   NC319127  39.995  14.443   9.450
 5695POPC   PO419128  40.000  14.407   9.150
 5695POPC   GL119129  40.019  14.413   8.850
 5695POPC   GL219130  39.969  14.275   8.850
 5695POPC   C1A19131  40.027  14.431   8.550
 5695POPC   D2A19132  40.042  14.395   8.250
 5695POPC   C3A19133  39.983  14.372   7.950
 5695POPC   C4A19134  39.981  14.358   7.650
 5695POPC   C1B19135  39.963  14.152   8.550
 5695POPC   C2B19136  40.013  14.115   8.250
 5695POPC   C3B19137  40.008  14.111   7.950
 5695POPC   C4B19138  40.019  14.186   7.650
 5696POPC   NC319139  36.141   8.982   9.450
 5696POPC   PO419140  36.164   8.987   9.150
 5696POPC   GL119141  36.084   8.977   8.850
 5696POPC   GL219142  36.013   9.024   8.850
 5696POPC   C1A19143  36.120   8.961   8.550
 5696POPC   D2A19144  36.148   9.016   8.250
 5696POPC   C3A19145  36.175   8.990   7.950
 5696POPC   C4A19146  36.099   9.011   7.650
 5696POPC   C1B19147  35.961   9.118   8.550
 5696POPC   C2B19148  35.955   9.191   8.250
 5696POPC   C3B19149  35.986   9.117   7.950
 5696POPC   C4B19150  35.949   9.181   7.650
 5697POPC   NC319151   3.559   1.206   9.450
 5697POPC   PO419152   3.560   1.167   9.150
 5697POPC   GL119153   3.538   1.242   8.850
 5697POPC   GL219154   3.687   1.186   8.850
 5697POPC   C1A19155   3.570   1.262   8.550
 5697POPC   D2A19156   3.591   1.187   8.250
 5697POPC   C3A19157   3.526   1.236   7.950
 5697POPC   C4A19158   3.511   1.228   7.650
 5697POPC   C1B19159   3.832   1.242   8.550
 5697POPC   C2B19160   3.774   1.207   8.250
 5697POPC   C3B19161   3.832   1.188   7.950
 5697POPC   C4B19162   3.798   1.201   7.650
 5698POPC   NC319163   4.302   8.175   9.450
 5698POPC   PO419164   4.314   8.170   9.150
 5698POPC   GL119165   4.357   8.162   8.850
 5698POPC   GL219166   4.182   8.228   8.850
 5698POPC   C1A19167   4.313   8.233   8.550
 5698POPC   D2A19168   4.316   8.206   8.250
 5698POPC   C3A19169   4.354   8.181   7.950
 5698POPC   C4A19170   4.286   8.217   7.650
 5698POPC   C1B19171   4.112   8.372   8.550
 5698POPC   C2B19172   4.115   8.369   8.250
 5698POPC   C3B19173   4.076   8.311   7.950
 5698POPC   C4B19174   4.079   8.341   7.650
 5699POPC   NC319175  28.369  33.059   9.450
 5699POPC   PO419176  28.413  33.054   9.150
 5699POPC   GL119177  28.330  33.069   8.850
 5699POPC   GL219178  28.456  33.141   8.850
 5699POPC   C1A19179  28.385  32.998   8.550
 5699POPC   D2A19180  28.325  33.074   8.250
 5699POPC   C3A19181  28.348  32.984   7.950
 5699POPC   C4A19182  28.397  32.986   7.650
 5699POPC   C1B19183  28.511  33.253   8.550
 5699POPC   C2B19184  28.519  33.246   8.250
 5699POPC   C3B19185  28.514  33.227   7.950
 5699POPC   C4B19186  28.527  33.251   7.650
 5700POPC   NC319187  21.419  19.080   9.450
 5700POPC   PO419188  21.422  19.010   9.150
 5700POPC   GL119189  21.369  19.081   8.850
 5700POPC   GL219190  21.419  18.955   8.850
 5700POPC   C1A19191  21.420  19.045   8.550
 5700POPC   D2A19192  21.401  19.092   8.250
 5700POPC   C3A19193  21.370  19.010   7.950
 5700POPC   C4A19194  21.341  19.030   7.650
 5700POPC   C1B19195  21.317  18.811   8.550
 5700POPC   C2B19196  21.311  18.795   8.250
 5700POPC   C3B19197  21.396  18.818   7.950
 5700POPC   C4B19198  21.407  18.777   7.650
 5701POPC   NC319199  14.387  15.176   9.450
 5701POPC   PO419200  14.407  15.217   9.150
 5701POPC   GL119201  14.359  15.210   8.850
 5701POPC   GL219202  14.466  15.049   8.850
 5701POPC   C1A19203  14.355  15.164   8.550
 5701POPC   D2A19204  14.432  15.159   8.250
 5701POPC   C3A19205  14.413  15.225   7.950
 5701POPC   C4A19206  14.404  15.157   7.650
 5701POPC   C1B19207  14.558  15.022   8.550
 5701POPC   C2B19208  14.548  14.991   8.250
 5701POPC   C3B19209  14.563  15.025   7.950
 5701POPC   C4B19210  14.562  15.039   7.650
 5702POPC   NC319211  14.408  12.106   9.450
 5702POPC   PO419212  14.412  12.068   9.150
 5702POPC   GL119213  14.397  12.065   8.850
 5702POPC   GL219214  14.550  12.150   8.850
 5702POPC   C1A19215  14.384  12.080   8.550
 5702POPC   D2A19216  14.415  12.072   8.250
 5702POPC   C3A19217  14.420  12.028   7.950
 5702POPC   C4A19218  14.420  12.050   7.650
 5702POPC   C1B19219  14.610  12.244   8.550
 5702POPC   C2B19220  14.634  12.220   8.250
 5702POPC   C3B19221  14.615  12.272   7.950
 5702POPC   C4B19222  14.608  12.207   7.650
 5703POPC   NC319223  26.090  33.777   9.450
 5703POPC   PO419224  25.993  33.831   9.150
 5703POPC   GL119225  26.050  33.825   8.850
 5703POPC   GL219226  25.982  33.675   8.850
 5703POPC   C1A19227  26.087  33.796   8.550
 5703POPC   D2A19228  26.057  33.848   8.250
 5703POPC   C3A19229  26.071  33.842   7.950
 5703POPC   C4A19230  26.083  33.784   7.650
 5703POPC   C1B19231  25.838  33.688   8.550
 5703POPC   C2B19232  25.869  33.653   8.250
 5703POPC   C3B19233  25.838  33.632   7.950
 5703POPC   C4B19234  25.882  33.685   7.650
 5704POPC   NC319235  33.800  36.942   9.450
 5704POPC   PO419236  33.800  36.939   9.150
 5704POPC   GL119237  33.754  36.882   8.850
 5704POPC   GL219238  33.973  36.893   8.850
 5704POPC   C1A19239  33.804  36.899   8.550
 5704POPC   D2A19240  33.769  36.935   8.250
 5704POPC   C3A19241  33.808  36.944   7.950
 5704POPC   C4A19242  33.816  36.911   7.650
 5704POPC   C1B19243  34.045  36.914   8.550
 5704POPC   C2B19244  34.060  36.989   8.250
 5704POPC   C3B19245  34.076  36.958   7.950
 5704POPC   C4B19246  34.011  36.983   7.650
 5705POPC   NC319247   9.765  21.353   9.450
 5705POPC   PO419248   9.765  21.370   9.150
 5705POPC   GL119249   9.716  21.389   8.850
 5705POPC   GL219250   9.805  21.441   8.850
 5705POPC   C1A19251   9.747  21.429   8.550
 5705POPC   D2A19252   9.749  21.381   8.250
 5705POPC   C3A19253   9.778  21.379   7.950
 5705POPC   C4A19254   9.748  21.382   7.650
 5705POPC   C1B19255   9.930  21.489   8.550
 5705POPC   C2B19256   9.977  21.524   8.250
 5705POPC   C3B19257   9.992  21.529   7.950
 5705POPC   C4B19258  10.006  21.554   7.650
 5706POPC   NC319259   9.762  33.806   9.450
 5706POPC   PO419260   9.718  33.835   9.150
 5706POPC   GL119261   9.748  33.756   8.850
 5706POPC   GL219262   9.687  33.739   8.850
 5706POPC   C1A19263   9.702  33.795   8.550
 5706POPC   D2A19264   9.783  33.821   8.250
 5706POPC   C3A19265   9.793  33.780   7.950
 5706POPC   C4A19266   9.784  33.833   7.650
 5706POPC   C1B19267   9.573  33.578   8.550
 5706POPC   C2B19268   9.630  33.555   8.250
 5706POPC   C3B19269   9.566  33.602   7.950
 5706POPC   C4B19270   9.568  33.606   7.650
 5707POPC   NC319271   6.630  35.321   9.450
 5707POPC   PO419272   6.691  35.375   9.150
 5707POPC   GL119273   6.662  35.394   8.850
 5707POPC   GL219274   6.686  35.440   8.850
 5707POPC   C1A19275   6.644  35.312   8.550
 5707POPC   D2A19276   6.654  35.306   8.250
 5707POPC   C3A19277   6.665  35.354   7.950
 5707POPC   C4A19278   6.620  35.330   7.650
 5707POPC   C1B19279   6.678  35.606   8.550
 5707POPC   C2B19280   6.619  35.572   8.250
 5707POPC   C3B19281   6.637  35.617   7.950
 5707POPC   C4B19282   6.663  35.603   7.650
 5708POPC   NC319283  22.971  24.539   9.450
 5708POPC   PO419284  22.925  24.528   9.150
 5708POPC   GL119285  22.947  24.508   8.850
 5708POPC   GL219286  22.939  24.594   8.850
 5708POPC   C1A19287  22.982  24.519   8.550
 5708POPC   D2A19288  22.944  24.448   8.250
 5708POPC   C3A19289  22.891  24.442   7.950
 5708POPC   C4A19290  22.892  24.441   7.650
 5708POPC   C1B19291  23.005  24.763   8.550
 5708POPC   C2B19292  23.006  24.744   8.250
 5708POPC   C3B19293  23.053  24.706   7.950
 5708POPC   C4B19294  23.043  24.718   7.650
 5709POPC   NC319295  28.330  26.013   9.450
 5709POPC   PO419296  28.399  26.019   9.150
 5709POPC   GL119297  28.402  26.008   8.850
 5709POPC   GL219298  28.495  25.953   8.850
 5709POPC   C1A19299  28.417  26.075   8.550
 5709POPC   D2A19300  28.320  26.081   8.250
 5709POPC   C3A19301  28.408  26.074   7.950
 5709POPC   C4A19302  28.386  26.063   7.650
 5709POPC   C1B19303  28.535  25.864   8.550
 5709POPC   C2B19304  28.549  25.918   8.250
 5709POPC   C3B19305  28.546  25.841   7.950
 5709POPC   C4B19306  28.586  25.936   7.650
 5710POPC   NC319307   3.510  18.308   9.450
 5710POPC   PO419308   3.529  18.242   9.150
 5710POPC   GL119309   3.523  18.246   8.850
 5710POPC   GL219310   3.479  18.119   8.850
 5710POPC   C1A19311   3.524  18.236   8.550
 5710POPC   D2A19312   3.552  18.293   8.250
 5710POPC   C3A19313   3.503  18.236   7.950
 5710POPC   C4A19314   3.535  18.260   7.650
 5710POPC   C1B19315   3.565  18.013   8.550
 5710POPC   C2B19316   3.564  18.076   8.250
 5710POPC   C3B19317   3.510  18.047   7.950
 5710POPC   C4B19318   3.537  17.998   7.650
 5711POPC   NC319319  11.306  35.356   9.450
 5711POPC   PO419320  11.313  35.379   9.150
 5711POPC   GL119321  11.254  35.396   8.850
 5711POPC   GL219322  11.338  35.289   8.850
 5711POPC   C1A19323  11.279  35.361   8.550
 5711POPC   D2A19324  11.302  35.314   8.250
 5711POPC   C3A19325  11.305  35.387   7.950
 5711POPC   C4A19326  11.328  35.359   7.650
 5711POPC   C1B19327  11.432  35.133   8.550
 5711POPC   C2B19328  11.489  35.203   8.250
 5711POPC   C3B19329  11.511  35.144   7.950
 5711POPC   C4B19330  11.469  35.129   7.650
 5712POPC   NC319331  35.370  13.580   9.450
 5712POPC   PO419332  35.371  13.584   9.150
 5712POPC   GL119333  35.340  13.665   8.850
 5712POPC   GL219334  35.200  13.607   8.850
 5712POPC   C1A19335  35.391  13.621   8.550
 5712POPC   D2A19336  35.352  13.621   8.250
 5712POPC   C3A19337  35.356  13.658   7.950
 5712POPC   C4A19338  35.340  13.622   7.650
 5712POPC   C1B19339  35.152  13.685   8.550
 5712POPC   C2B19340  35.112  13.694   8.250
 5712POPC   C3B19341  35.150  13.736   7.950
 5712POPC   C4B19342  35.154  13.642   7.650
 5713POPC   NC319343  19.025  33.751   9.450
 5713POPC   PO419344  19.058  33.841   9.150
 5713POPC   GL119345  19.041  33.762   8.850
 5713POPC   GL219346  19.003  33.714   8.850
 5713POPC   C1A19347  19.050  33.837   8.550
 5713POPC   D2A19348  19.020  33.775   8.250
 5713POPC   C3A19349  19.070  33.806   7.950
 5713POPC   C4A19350  19.021  33.772   7.650
 5713POPC   C1B19351  18.956  33.607   8.550
 5713POPC   C2B19352  18.907  33.584   8.250
 5713POPC   C3B19353  18.911  33.603   7.950
 5713POPC   C4B19354  18.934  33.585   7.650
 5714POPC   NC319355  43.903  12.814   9.450
 5714POPC   PO419356  43.853  12.851   9.150
 5714POPC   GL119357  43.886  12.870   8.850
 5714POPC   GL219358  44.027  12.911   8.850
 5714POPC   C1A19359  43.910  12.805   8.550
 5714POPC   D2A19360  43.925  12.882   8.250
 5714POPC   C3A19361  43.875  12.803   7.950
 5714POPC   C4A19362  43.874  12.885   7.650
 5714POPC   C1B19363  44.121  12.970   8.550
 5714POPC   C2B19364  44.087  12.987   8.250
 5714POPC   C3B19365  44.080  13.026   7.950
 5714POPC   C4B19366  44.045  12.959   7.650
 5715POPC   NC319367  41.513  19.108   9.450
 5715POPC   PO419368  41.608  19.017   9.150
 5715POPC   GL119369  41.591  19.078   8.850
 5715POPC   GL219370  41.496  19.227   8.850
 5715POPC   C1A19371  41.579  19.093   8.550
 5715POPC   D2A19372  41.541  19.027   8.250
 5715POPC   C3A19373  41.552  19.028   7.950
 5715POPC   C4A19374  41.559  19.077   7.650
 5715POPC   C1B19375  41.479  19.251   8.550
 5715POPC   C2B19376  41.453  19.335   8.250
 5715POPC   C3B19377  41.504  19.268   7.950
 5715POPC   C4B19378  41.463  19.311   7.650
 5716POPC   NC319379  26.865  36.124   9.450
 5716POPC   PO419380  26.774  36.111   9.150
 5716POPC   GL119381  26.855  36.092   8.850
 5716POPC   GL219382  26.801  36.226   8.850
 5716POPC   C1A19383  26.841  36.139   8.550
 5716POPC   D2A19384  26.856  36.081   8.250
 5716POPC   C3A19385  26.831  36.143   7.950
 5716POPC   C4A19386  26.800  36.155   7.650
 5716POPC   C1B19387  26.691  36.379   8.550
 5716POPC   C2B19388  26.716  36.368   8.250
 5716POPC   C3B19389  26.759  36.390   7.950
 5716POPC   C4B19390  26.712  36.364   7.650
 5717POPC   NC319391  22.931  16.774   9.450
 5717POPC   PO419392  22.945  16.773   9.150
 5717POPC   GL119393  22.950  16.744   8.850
 5717POPC   GL219394  22.831  16.705   8.850
 5717POPC   C1A19395  22.942  16.748   8.550
 5717POPC   D2A19396  22.968  16.750   8.250
 5717POPC   C3A19397  22.934  16.684   7.950
 5717POPC   C4A19398  22.899  16.704   7.650
 5717POPC   C1B19399  22.673  16.724   8.550
 5717POPC   C2B19400  22.682  16.734   8.250
 5717POPC   C3B19401  22.683  16.774   7.950
 5717POPC   C4B19402  22.672  16.778   7.650
 5718POPC   NC319403  40.765  12.054   9.450
 5718POPC   PO419404  40.824  12.047   9.150
 5718POPC   GL119405  40.804  12.046   8.850
 5718POPC   GL219406  40.685  12.136   8.850
 5718POPC   C1A19407  40.806  12.036   8.550
 5718POPC   D2A19408  40.781  12.068   8.250
 5718POPC   C3A19409  40.733  12.107   7.950
 5718POPC   C4A19410  40.823  12.106   7.650
 5718POPC   C1B19411  40.557  12.195   8.550
 5718POPC   C2B19412  40.519  12.181   8.250
 5718POPC   C3B19413  40.560  12.242   7.950
 5718POPC   C4B19414  40.522  12.246   7.650
 5719POPC   NC319415  19.843   2.757   9.450
 5719POPC   PO419416  19.849   2.776   9.150
 5719POPC   GL119417  19.872   2.732   8.850
 5719POPC   GL219418  19.917   2.640   8.850
 5719POPC   C1A19419  19.853   2.800   8.550
 5719POPC   D2A19420  19.871   2.763   8.250
 5719POPC   C3A19421  19.834   2.785   7.950
 5719POPC   C4A19422  19.873   2.808   7.650
 5719POPC   C1B19423  20.034   2.603   8.550
 5719POPC   C2B19424  20.016   2.575   8.250
 5719POPC   C3B19425  20.019   2.650   7.950
 5719POPC   C4B19426  20.035   2.596   7.650
 5720POPC   NC319427  33.830  34.577   9.450
 5720POPC   PO419428  33.823  34.609   9.150
 5720POPC   GL119429  33.797  34.579   8.850
 5720POPC   GL219430  33.702  34.558   8.850
 5720POPC   C1A19431  33.791  34.562   8.550
 5720POPC   D2A19432  33.848  34.582   8.250
 5720POPC   C3A19433  33.771  34.552   7.950
 5720POPC   C4A19434  33.752  34.528   7.650
 5720POPC   C1B19435  33.531  34.477   8.550
 5720POPC   C2B19436  33.519  34.509   8.250
 5720POPC   C3B19437  33.515  34.484   7.950
 5720POPC   C4B19438  33.565  34.482   7.650
 5721POPC   NC319439  12.112  30.721   9.450
 5721POPC   PO419440  12.108  30.659   9.150
 5721POPC   GL119441  12.053  30.683   8.850
 5721POPC   GL219442  12.037  30.643   8.850
 5721POPC   C1A19443  12.122  30.662   8.550
 5721POPC   D2A19444  12.045  30.709   8.250
 5721POPC   C3A19445  12.044  30.740   7.950
 5721POPC   C4A19446  12.062  30.679   7.650
 5721POPC   C1B19447  11.937  30.468   8.550
 5721POPC   C2B19448  11.875  30.547   8.250
 5721POPC   C3B19449  11.934  30.526   7.950
 5721POPC   C4B19450  11.927  30.487   7.650
 5722POPC   NC319451  37.677  33.850   9.450
 5722POPC   PO419452  37.679  33.815   9.150
 5722POPC   GL119453  37.657  33.813   8.850
 5722POPC   GL219454  37.514  33.810   8.850
 5722POPC   C1A19455  37.705  33.818   8.550
 5722POPC   D2A19456  37.646  33.812   8.250
 5722POPC   C3A19457  37.630  33.778   7.950
 5722POPC   C4A19458  37.666  33.759   7.650
 5722POPC   C1B19459  37.466  33.805   8.550
 5722POPC   C2B19460  37.432  33.838   8.250
 5722POPC   C3B19461  37.395  33.814   7.950
 5722POPC   C4B19462  37.479  33.813   7.650
 5723POPC   NC319463   0.487   8.156   9.450
 5723POPC   PO419464   0.475   8.210   9.150
 5723POPC   GL119465   0.464   8.224   8.850
 5723POPC   GL219466   0.511   8.101   8.850
 5723POPC   C1A19467   0.420   8.212   8.550
 5723POPC   D2A19468   0.469   8.201   8.250
 5723POPC   C3A19469   0.405   8.240   7.950
 5723POPC   C4A19470   0.410   8.183   7.650
 5723POPC   C1B19471   0.558   8.008   8.550
 5723POPC   C2B19472   0.487   7.945   8.250
 5723POPC   C3B19473   0.504   7.918   7.950
 5723POPC   C4B19474   0.515   7.951   7.650
 5724POPC   NC319475  34.577   7.395   9.450
 5724POPC   PO419476  34.601   7.413   9.150
 5724POPC   GL119477  34.581   7.379   8.850
 5724POPC   GL219478  34.478   7.334   8.850
 5724POPC   C1A19479  34.555   7.373   8.550
 5724POPC   D2A19480  34.564   7.469   8.250
 5724POPC   C3A19481  34.535   7.471   7.950
 5724POPC   C4A19482  34.595   7.380   7.650
 5724POPC   C1B19483  34.422   7.239   8.550
 5724POPC   C2B19484  34.417   7.196   8.250
 5724POPC   C3B19485  34.427   7.160   7.950
 5724POPC   C4B19486  34.486   7.237   7.650
 5725POPC   NC319487  26.035   1.169   9.450
 5725POPC   PO419488  26.044   1.180   9.150
 5725POPC   GL119489  25.998   1.196   8.850
 5725POPC   GL219490  25.955   1.119   8.850
 5725POPC   C1A19491  26.015   1.220   8.550
 5725POPC   D2A19492  26.074   1.239   8.250
 5725POPC   C3A19493  26.073   1.235   7.950
 5725POPC   C4A19494  26.055   1.209   7.650
 5725POPC   C1B19495  25.925   1.016   8.550
 5725POPC   C2B19496  25.913   1.041   8.250
 5725POPC   C3B19497  25.909   0.962   7.950
 5725POPC   C4B19498  25.880   1.037   7.650
 5726POPC   NC319499  36.884   8.963   9.450
 5726POPC   PO419500  36.884   8.959   9.150
 5726POPC   GL119501  36.871   8.928   8.850
 5726POPC   GL219502  36.799   9.082   8.850
 5726POPC   C1A19503  36.910   8.964   8.550
 5726POPC   D2A19504  36.910   9.019   8.250
 5726POPC   C3A19505  36.866   9.003   7.950
 5726POPC   C4A19506  36.927   8.982   7.650
 5726POPC   C1B19507  36.671   9.114   8.550
 5726POPC   C2B19508  36.687   9.126   8.250
 5726POPC   C3B19509  36.713   9.096   7.950
 5726POPC   C4B19510  36.692   9.135   7.650
 5727POPC   NC319511  36.949  17.542   9.450
 5727POPC   PO419512  36.917  17.495   9.150
 5727POPC   GL119513  36.898  17.500   8.850
 5727POPC   GL219514  36.950  17.360   8.850
 5727POPC   C1A19515  36.905  17.552   8.550
 5727POPC   D2A19516  36.925  17.490   8.250
 5727POPC   C3A19517  36.905  17.480   7.950
 5727POPC   C4A19518  36.924  17.470   7.650
 5727POPC   C1B19519  36.992  17.285   8.550
 5727POPC   C2B19520  37.047  17.264   8.250
 5727POPC   C3B19521  36.995  17.284   7.950
 5727POPC   C4B19522  37.062  17.247   7.650
 5728POPC   NC319523  26.866  19.024   9.450
 5728POPC   PO419524  26.854  19.046   9.150
 5728POPC   GL119525  26.803  19.048   8.850
 5728POPC   GL219526  26.842  18.886   8.850
 5728POPC   C1A19527  26.796  19.035   8.550
 5728POPC   D2A19528  26.815  19.064   8.250
 5728POPC   C3A19529  26.843  19.061   7.950
 5728POPC   C4A19530  26.860  19.080   7.650
 5728POPC   C1B19531  26.800  18.818   8.550
 5728POPC   C2B19532  26.845  18.774   8.250
 5728POPC   C3B19533  26.796  18.761   7.950
 5728POPC   C4B19534  26.806  18.851   7.650
 5729POPC   NC319535  36.888  19.015   9.450
 5729POPC   PO419536  36.857  19.012   9.150
 5729POPC   GL119537  36.891  19.025   8.850
 5729POPC   GL219538  37.024  19.161   8.850
 5729POPC   C1A19539  36.893  19.073   8.550
 5729POPC   D2A19540  36.863  19.070   8.250
 5729POPC   C3A19541  36.932  19.072   7.950
 5729POPC   C4A19542  36.901  19.054   7.650
 5729POPC   C1B19543  37.128  19.227   8.550
 5729POPC   C2B19544  37.057  19.233   8.250
 5729POPC   C3B19545  37.124  19.207   7.950
 5729POPC   C4B19546  37.079  19.267   7.650
 5730POPC   NC319547  21.344  34.559   9.450
 5730POPC   PO419548  21.357  34.620   9.150
 5730POPC   GL119549  21.353  34.537   8.850
 5730POPC   GL219550  21.348  34.679   8.850
 5730POPC   C1A19551  21.427  34.591   8.550
 5730POPC   D2A19552  21.414  34.533   8.250
 5730POPC   C3A19553  21.417  34.573   7.950
 5730POPC   C4A19554  21.353  34.615   7.650
 5730POPC   C1B19555  21.232  34.782   8.550
 5730POPC   C2B19556  21.214  34.755   8.250
 5730POPC   C3B19557  21.205  34.741   7.950
 5730POPC   C4B19558  21.292  34.741   7.650
 5731POPC   NC319559  13.656  33.848   9.450
 5731POPC   PO419560  13.668  33.783   9.150
 5731POPC   GL119561  13.591  33.823   8.850
 5731POPC   GL219562  13.524  33.878   8.850
 5731POPC   C1A19563  13.657  33.812   8.550
 5731POPC   D2A19564  13.606  33.763   8.250
 5731POPC   C3A19565  13.672  33.751   7.950
 5731POPC   C4A19566  13.638  33.816   7.650
 5731POPC   C1B19567  13.525  34.048   8.550
 5731POPC   C2B19568  13.468  33.984   8.250
 5731POPC   C3B19569  13.492  34.047   7.950
 5731POPC   C4B19570  13.521  34.019   7.650
 5732POPC   NC319571  24.496   5.862   9.450
 5732POPC   PO419572  24.512   5.876   9.150
 5732POPC   GL119573  24.526   5.844   8.850
 5732POPC   GL219574  24.383   5.749   8.850
 5732POPC   C1A19575  24.536   5.862   8.550
 5732POPC   D2A19576  24.538   5.840   8.250
 5732POPC   C3A19577  24.462   5.861   7.950
 5732POPC   C4A19578  24.539   5.904   7.650
 5732POPC   C1B19579  24.365   5.632   8.550
 5732POPC   C2B19580  24.313   5.646   8.250
 5732POPC   C3B19581  24.401   5.684   7.950
 5732POPC   C4B19582  24.396   5.699   7.650
 5733POPC   NC319583  33.056  14.435   9.450
 5733POPC   PO419584  33.057  14.448   9.150
 5733POPC   GL119585  33.003  14.429   8.850
 5733POPC   GL219586  33.079  14.250   8.850
 5733POPC   C1A19587  33.027  14.377   8.550
 5733POPC   D2A19588  32.997  14.402   8.250
 5733POPC   C3A19589  33.042  14.393   7.950
 5733POPC   C4A19590  33.031  14.376   7.650
 5733POPC   C1B19591  33.052  14.141   8.550
 5733POPC   C2B19592  33.076  14.131   8.250
 5733POPC   C3B19593  33.048  14.183   7.950
 5733POPC   C4B19594  33.008  14.135   7.650
 5734POPC   NC319595   3.561  28.399   9.450
 5734POPC   PO419596   3.545  28.419   9.150
 5734POPC   GL119597   3.528  28.382   8.850
 5734POPC   GL219598   3.500  28.195   8.850
 5734POPC   C1A19599   3.546  28.404   8.550
 5734POPC   D2A19600   3.530  28.369   8.250
 5734POPC   C3A19601   3.567  28.336   7.950
 5734POPC   C4A19602   3.493  28.337   7.650
 5734POPC   C1B19603   3.543  28.163   8.550
 5734POPC   C2B19604   3.505  28.166   8.250
 5734POPC   C3B19605   3.585  28.163   7.950
 5734POPC   C4B19606   3.559  28.153   7.650
 5735POPC   NC319607  29.104  31.451   9.450
 5735POPC   PO419608  29.129  31.517   9.150
 5735POPC   GL119609  29.099  31.480   8.850
 5735POPC   GL219610  29.027  31.451   8.850
 5735POPC   C1A19611  29.111  31.432   8.550
 5735POPC   D2A19612  29.159  31.441   8.250
 5735POPC   C3A19613  29.101  31.478   7.950
 5735POPC   C4A19614  29.191  31.492   7.650
 5735POPC   C1B19615  28.915  31.542   8.550
 5735POPC   C2B19616  28.853  31.512   8.250
 5735POPC   C3B19617  28.872  31.472   7.950
 5735POPC   C4B19618  28.880  31.542   7.650
 5736POPC   NC319619  37.659   2.008   9.450
 5736POPC   PO419620  37.715   1.948   9.150
 5736POPC   GL119621  37.727   1.966   8.850
 5736POPC   GL219622  37.725   2.123   8.850
 5736POPC   C1A19623  37.672   1.973   8.550
 5736POPC   D2A19624  37.670   2.030   8.250
 5736POPC   C3A19625  37.702   1.966   7.950
 5736POPC   C4A19626  37.638   1.965   7.650
 5736POPC   C1B19627  37.822   2.158   8.550
 5736POPC   C2B19628  37.847   2.190   8.250
 5736POPC   C3B19629  37.872   2.205   7.950
 5736POPC   C4B19630  37.823   2.113   7.650
 5737POPC   NC319631  32.990  38.441   9.450
 5737POPC   PO419632  33.070  38.431   9.150
 5737POPC   GL119633  33.019  38.498   8.850
 5737POPC   GL219634  33.108  38.557   8.850
 5737POPC   C1A19635  33.069  38.422   8.550
 5737POPC   D2A19636  33.021  38.501   8.250
 5737POPC   C3A19637  32.983  38.476   7.950
 5737POPC   C4A19638  33.063  38.463   7.650
 5737POPC   C1B19639  33.249  38.582   8.550
 5737POPC   C2B19640  33.246  38.596   8.250
 5737POPC   C3B19641  33.202  38.577   7.950
 5737POPC   C4B19642  33.209  38.559   7.650
 5738POPC   NC319643  14.425  42.315   9.450
 5738POPC   PO419644  14.453  42.332   9.150
 5738POPC   GL119645  14.382  42.355   8.850
 5738POPC   GL219646  14.328  42.182   8.850
 5738POPC   C1A19647  14.393  42.338   8.550
 5738POPC   D2A19648  14.409  42.363   8.250
 5738POPC   C3A19649  14.356  42.381   7.950
 5738POPC   C4A19650  14.369  42.328   7.650
 5738POPC   C1B19651  14.236  42.099   8.550
 5738POPC   C2B19652  14.297  42.066   8.250
 5738POPC   C3B19653  14.320  42.131   7.950
 5738POPC   C4B19654  14.331  42.070   7.650
 5739POPC   NC319655  36.939  35.324   9.450
 5739POPC   PO419656  36.905  35.343   9.150
 5739POPC   GL119657  36.911  35.354   8.850
 5739POPC   GL219658  37.027  35.261   8.850
 5739POPC   C1A19659  36.902  35.326   8.550
 5739POPC   D2A19660  36.922  35.367   8.250
 5739POPC   C3A19661  36.923  35.386   7.950
 5739POPC   C4A19662  36.933  35.397   7.650
 5739POPC   C1B19663  37.149  35.149   8.550
 5739POPC   C2B19664  37.136  35.180   8.250
 5739POPC   C3B19665  37.071  35.211   7.950
 5739POPC   C4B19666  37.118  35.229   7.650
 5740POPC   NC319667  28.359  14.442   9.450
 5740POPC   PO419668  28.367  14.409   9.150
 5740POPC   GL119669  28.344  14.384   8.850
 5740POPC   GL219670  28.538  14.348   8.850
 5740POPC   C1A19671  28.409  14.442   8.550
 5740POPC   D2A19672  28.360  14.366   8.250
 5740POPC   C3A19673  28.372  14.420   7.950
 5740POPC   C4A19674  28.365  14.398   7.650
 5740POPC   C1B19675  28.656  14.342   8.550
 5740POPC   C2B19676  28.630  14.305   8.250
 5740POPC   C3B19677  28.623  14.316   7.950
 5740POPC   C4B19678  28.663  14.397   7.650
 5741POPC   NC319679  28.400  20.640   9.450
 5741POPC   PO419680  28.396  20.561   9.150
 5741POPC   GL119681  28.412  20.571   8.850
 5741POPC   GL219682  28.412  20.536   8.850
 5741POPC   C1A19683  28.376  20.657   8.550
 5741POPC   D2A19684  28.360  20.653   8.250
 5741POPC   C3A19685  28.417  20.590   7.950
 5741POPC   C4A19686  28.334  20.622   7.650
 5741POPC   C1B19687  28.453  20.385   8.550
 5741POPC   C2B19688  28.515  20.424   8.250
 5741POPC   C3B19689  28.501  20.420   7.950
 5741POPC   C4B19690  28.477  20.366   7.650
 5742POPC   NC319691  22.899   5.852   9.450
 5742POPC   PO419692  22.912   5.901   9.150
 5742POPC   GL119693  22.893   5.917   8.850
 5742POPC   GL219694  23.032   5.851   8.850
 5742POPC   C1A19695  22.906   5.874   8.550
 5742POPC   D2A19696  22.930   5.856   8.250
 5742POPC   C3A19697  22.897   5.822   7.950
 5742POPC   C4A19698  22.897   5.864   7.650
 5742POPC   C1B19699  23.141   5.715   8.550
 5742POPC   C2B19700  23.161   5.718   8.250
 5742POPC   C3B19701  23.206   5.766   7.950
 5742POPC   C4B19702  23.187   5.736   7.650
 5743POPC   NC319703   5.843  29.140   9.450
 5743POPC   PO419704   5.845  29.163   9.150
 5743POPC   GL119705   5.844  29.175   8.850
 5743POPC   GL219706   5.907  29.225   8.850
 5743POPC   C1A19707   5.875  29.164   8.550
 5743POPC   D2A19708   5.902  29.192   8.250
 5743POPC   C3A19709   5.915  29.147   7.950
 5743POPC   C4A19710   5.861  29.160   7.650
 5743POPC   C1B19711   5.921  29.428   8.550
 5743POPC   C2B19712   5.934  29.380   8.250
 5743POPC   C3B19713   5.946  29.374   7.950
 5743POPC   C4B19714   5.969  29.407   7.650
 5744POPC   NC319715  44.617  19.034   9.450
 5744POPC   PO419716  44.687  19.092   9.150
 5744POPC   GL119717  44.632  19.013   8.850
 5744POPC   GL219718  44.580  18.905   8.850
 5744POPC   C1A19719  44.654  19.069   8.550
 5744POPC   D2A19720  44.708  19.093   8.250
 5744POPC   C3A19721  44.671  19.032   7.950
 5744POPC   C4A19722  44.624  19.080   7.650
 5744POPC   C1B19723  44.527  18.849   8.550
 5744POPC   C2B19724  44.560  18.871   8.250
 5744POPC   C3B19725  44.570  18.787   7.950
 5744POPC   C4B19726  44.551  18.782   7.650
 5745POPC   NC319727  40.040   1.170   9.450
 5745POPC   PO419728  39.971   1.260   9.150
 5745POPC   GL119729  39.958   1.248   8.850
 5745POPC   GL219730  40.100   1.290   8.850
 5745POPC   C1A19731  40.037   1.218   8.550
 5745POPC   D2A19732  39.993   1.235   8.250
 5745POPC   C3A19733  39.995   1.181   7.950
 5745POPC   C4A19734  39.999   1.224   7.650
 5745POPC   C1B19735  40.143   1.390   8.550
 5745POPC   C2B19736  40.173   1.410   8.250
 5745POPC   C3B19737  40.188   1.411   7.950
 5745POPC   C4B19738  40.136   1.464   7.650
 5746POPC   NC319739  40.020   8.152   9.450
 5746POPC   PO419740  40.016   8.198   9.150
 5746POPC   GL119741  40.003   8.164   8.850
 5746POPC   GL219742  40.110   8.258   8.850
 5746POPC   C1A19743  40.043   8.228   8.550
 5746POPC   D2A19744  39.966   8.177   8.250
 5746POPC   C3A19745  39.961   8.228   7.950
 5746POPC   C4A19746  39.981   8.178   7.650
 5746POPC   C1B19747  40.221   8.415   8.550
 5746POPC   C2B19748  40.209   8.330   8.250
 5746POPC   C3B19749  40.150   8.337   7.950
 5746POPC   C4B19750  40.235   8.369   7.650
 5747POPC   NC319751   1.944  16.717   9.450
 5747POPC   PO419752   1.987  16.682   9.150
 5747POPC   GL119753   1.960  16.774   8.850
 5747POPC   GL219754   2.048  16.759   8.850
 5747POPC   C1A19755   1.979  16.737   8.550
 5747POPC   D2A19756   2.011  16.773   8.250
 5747POPC   C3A19757   2.018  16.765   7.950
 5747POPC   C4A19758   2.004  16.727   7.650
 5747POPC   C1B19759   2.196  16.831   8.550
 5747POPC   C2B19760   2.224  16.819   8.250
 5747POPC   C3B19761   2.238  16.854   7.950
 5747POPC   C4B19762   2.159  16.889   7.650
 5748POPC   NC319763  20.626   7.389   9.450
 5748POPC   PO419764  20.658   7.397   9.150
 5748POPC   GL119765  20.612   7.449   8.850
 5748POPC   GL219766  20.767   7.488   8.850
 5748POPC   C1A19767  20.642   7.402   8.550
 5748POPC   D2A19768  20.650   7.468   8.250
 5748POPC   C3A19769  20.608   7.443   7.950
 5748POPC   C4A19770  20.644   7.411   7.650
 5748POPC   C1B19771  20.825   7.436   8.550
 5748POPC   C2B19772  20.882   7.506   8.250
 5748POPC   C3B19773  20.889   7.522   7.950
 5748POPC   C4B19774  20.823   7.443   7.650
 5749POPC   NC319775  15.955  44.700   9.450
 5749POPC   PO419776  15.949  44.649   9.150
 5749POPC   GL119777  15.967  44.633   8.850
 5749POPC   GL219778  15.951  44.526   8.850
 5749POPC   C1A19779  15.933  44.630   8.550
 5749POPC   D2A19780  15.950  44.629   8.250
 5749POPC   C3A19781  15.954  44.660   7.950
 5749POPC   C4A19782  15.962  44.695   7.650
 5749POPC   C1B19783  16.026  44.456   8.550
 5749POPC   C2B19784  16.022  44.412   8.250
 5749POPC   C3B19785  15.979  44.439   7.950
 5749POPC   C4B19786  16.057  44.436   7.650
 5750POPC   NC319787  40.050  37.656   9.450
 5750POPC   PO419788  40.038  37.648   9.150
 5750POPC   GL119789  39.993  37.699   8.850
 5750POPC   GL219790  39.929  37.587   8.850
 5750POPC   C1A19791  40.048  37.656   8.550
 5750POPC   D2A19792  40.022  37.715   8.250
 5750POPC   C3A19793  40.053  37.662   7.950
 5750POPC   C4A19794  39.972  37.660   7.650
 5750POPC   C1B19795  39.845  37.532   8.550
 5750POPC   C2B19796  39.812  37.453   8.250
 5750POPC   C3B19797  39.894  37.440   7.950
 5750POPC   C4B19798  39.870  37.520   7.650
 5751POPC   NC319799  24.539  28.412   9.450
 5751POPC   PO419800  24.502  28.352   9.150
 5751POPC   GL119801  24.459  28.379   8.850
 5751POPC   GL219802  24.463  28.461   8.850
 5751POPC   C1A19803  24.536  28.383   8.550
 5751POPC   D2A19804  24.459  28.363   8.250
 5751POPC   C3A19805  24.463  28.348   7.950
 5751POPC   C4A19806  24.521  28.333   7.650
 5751POPC   C1B19807  24.546  28.641   8.550
 5751POPC   C2B19808  24.506  28.597   8.250
 5751POPC   C3B19809  24.541  28.620   7.950
 5751POPC   C4B19810  24.530  28.581   7.650
 5752POPC   NC319811  14.435  33.810   9.450
 5752POPC   PO419812  14.366  33.827   9.150
 5752POPC   GL119813  14.411  33.815   8.850
 5752POPC   GL219814  14.280  33.911   8.850
 5752POPC   C1A19815  14.395  33.785   8.550
 5752POPC   D2A19816  14.428  33.791   8.250
 5752POPC   C3A19817  14.397  33.776   7.950
 5752POPC   C4A19818  14.365  33.841   7.650
 5752POPC   C1B19819  14.272  33.968   8.550
 5752POPC   C2B19820  14.208  33.986   8.250
 5752POPC   C3B19821  14.300  33.986   7.950
 5752POPC   C4B19822  14.274  34.041   7.650
 5753POPC   NC319823  15.990  30.737   9.450
 5753POPC   PO419824  15.997  30.734   9.150
 5753POPC   GL119825  15.978  30.716   8.850
 5753POPC   GL219826  15.840  30.574   8.850
 5753POPC   C1A19827  15.944  30.737   8.550
 5753POPC   D2A19828  16.002  30.712   8.250
 5753POPC   C3A19829  15.910  30.665   7.950
 5753POPC   C4A19830  15.942  30.687   7.650
 5753POPC   C1B19831  15.786  30.520   8.550
 5753POPC   C2B19832  15.812  30.503   8.250
 5753POPC   C3B19833  15.777  30.541   7.950
 5753POPC   C4B19834  15.805  30.496   7.650
 5754POPC   NC319835  25.219   5.868   9.450
 5754POPC   PO419836  25.219   5.914   9.150
 5754POPC   GL119837  25.269   5.901   8.850
 5754POPC   GL219838  25.370   5.935   8.850
 5754POPC   C1A19839  25.314   5.911   8.550
 5754POPC   D2A19840  25.266   5.900   8.250
 5754POPC   C3A19841  25.267   5.882   7.950
 5754POPC   C4A19842  25.256   5.877   7.650
 5754POPC   C1B19843  25.505   5.941   8.550
 5754POPC   C2B19844  25.525   5.953   8.250
 5754POPC   C3B19845  25.478   5.961   7.950
 5754POPC   C4B19846  25.498   5.981   7.650
 5755POPC   NC319847  44.655  13.622   9.450
 5755POPC   PO419848  44.688  13.590   9.150
 5755POPC   GL119849  44.639  13.593   8.850
 5755POPC   GL219850  44.801  13.645   8.850
 5755POPC   C1A19851  44.679  13.655   8.550
 5755POPC   D2A19852  44.679  13.581   8.250
 5755POPC   C3A19853  44.618  13.600   7.950
 5755POPC   C4A19854  44.638  13.631   7.650
 5755POPC   C1B19855  44.901  13.707   8.550
 5755POPC   C2B19856  44.892  13.729   8.250
 5755POPC   C3B19857  44.927  13.787   7.950
 5755POPC   C4B19858  44.917  13.777   7.650
 5756POPC   NC319859   9.796  24.529   9.450
 5756POPC   PO419860   9.736  24.534   9.150
 5756POPC   GL119861   9.787  24.519   8.850
 5756POPC   GL219862   9.861  24.591   8.850
 5756POPC   C1A19863   9.767  24.539   8.550
 5756POPC   D2A19864   9.708  24.467   8.250
 5756POPC   C3A19865   9.788  24.447   7.950
 5756POPC   C4A19866   9.746  24.483   7.650
 5756POPC   C1B19867   9.963  24.626   8.550
 5756POPC   C2B19868   9.982  24.596   8.250
 5756POPC   C3B19869   9.980  24.594   7.950
 5756POPC   C4B19870   9.963  24.588   7.650
 5757POPC   NC319871   2.813   5.820   9.450
 5757POPC   PO419872   2.735   5.827   9.150
 5757POPC   GL119873   2.734   5.915   8.850
 5757POPC   GL219874   2.730   5.764   8.850
 5757POPC   C1A19875   2.801   5.838   8.550
 5757POPC   D2A19876   2.726   5.893   8.250
 5757POPC   C3A19877   2.752   5.891   7.950
 5757POPC   C4A19878   2.792   5.820   7.650
 5757POPC   C1B19879   2.644   5.653   8.550
 5757POPC   C2B19880   2.565   5.682   8.250
 5757POPC   C3B19881   2.651   5.632   7.950
 5757POPC   C4B19882   2.578   5.636   7.650
 5758POPC   NC319883  21.381  14.450   9.450
 5758POPC   PO419884  21.351  14.380   9.150
 5758POPC   GL119885  21.371  14.367   8.850
 5758POPC   GL219886  21.353  14.515   8.850
 5758POPC   C1A19887  21.346  14.354   8.550
 5758POPC   D2A19888  21.347  14.381   8.250
 5758POPC   C3A19889  21.340  14.426   7.950
 5758POPC   C4A19890  21.377  14.370   7.650
 5758POPC   C1B19891  21.321  14.633   8.550
 5758POPC   C2B19892  21.297  14.655   8.250
 5758POPC   C3B19893  21.254  14.637   7.950
 5758POPC   C4B19894  21.245  14.617   7.650
 5759POPC   NC319895  27.615   2.814   9.450
 5759POPC   PO419896  27.578   2.786   9.150
 5759POPC   GL119897  27.620   2.720   8.850
 5759POPC   GL219898  27.509   2.693   8.850
 5759POPC   C1A19899  27.555   2.720   8.550
 5759POPC   D2A19900  27.582   2.728   8.250
 5759POPC   C3A19901  27.637   2.716   7.950
 5759POPC   C4A19902  27.547   2.798   7.650
 5759POPC   C1B19903  27.537   2.553   8.550
 5759POPC   C2B19904  27.549   2.505   8.250
 5759POPC   C3B19905  27.491   2.514   7.950
 5759POPC   C4B19906  27.475   2.522   7.650
 5760POPC   NC319907  26.076   3.589   9.450
 5760POPC   PO419908  26.037   3.581   9.150
 5760POPC   GL119909  26.018   3.584   8.850
 5760POPC   GL219910  26.154   3.605   8.850
 5760POPC   C1A19911  26.037   3.572   8.550
 5760POPC   D2A19912  26.075   3.529   8.250
 5760POPC   C3A19913  26.077   3.523   7.950
 5760POPC   C4A19914  25.999   3.497   7.650
 5760POPC   C1B19915  26.203   3.698   8.550
 5760POPC   C2B19916  26.231   3.657   8.250
 5760POPC   C3B19917  26.284   3.710   7.950
 5760POPC   C4B19918  26.224   3.730   7.650
 5761POPC   NC319919   5.880   8.206   9.450
 5761POPC   PO419920   5.821   8.156   9.150
 5761POPC   GL119921   5.838   8.165   8.850
 5761POPC   GL219922   5.904   8.310   8.850
 5761POPC   C1A19923   5.866   8.212   8.550
 5761POPC   D2A19924   5.900   8.179   8.250
 5761POPC   C3A19925   5.831   8.185   7.950
 5761POPC   C4A19926   5.840   8.181   7.650
 5761POPC   C1B19927   5.936   8.463   8.550
 5761POPC   C2B19928   5.941   8.436   8.250
 5761POPC   C3B19929   5.897   8.413   7.950
 5761POPC   C4B19930   5.866   8.451   7.650
 5762POPC   NC319931  43.088  33.766   9.450
 5762POPC   PO419932  43.064  33.832   9.150
 5762POPC   GL119933  43.072  33.772   8.850
 5762POPC   GL219934  43.124  33.888   8.850
 5762POPC   C1A19935  43.151  33.786   8.550
 5762POPC   D2A19936  43.095  33.797   8.250
 5762POPC   C3A19937  43.133  33.830   7.950
 5762POPC   C4A19938  43.112  33.822   7.650
 5762POPC   C1B19939  43.055  34.096   8.550
 5762POPC   C2B19940  43.055  34.061   8.250
 5762POPC   C3B19941  43.063  34.074   7.950
 5762POPC   C4B19942  43.078  34.011   7.650
 5763POPC   NC319943  43.102   2.038   9.450
 5763POPC   PO419944  43.131   1.955   9.150
 5763POPC   GL119945  43.158   2.033   8.850
 5763POPC   GL219946  43.055   1.912   8.850
 5763POPC   C1A19947  43.064   1.946   8.550
 5763POPC   D2A19948  43.154   1.988   8.250
 5763POPC   C3A19949  43.121   1.944   7.950
 5763POPC   C4A19950  43.143   1.958   7.650
 5763POPC   C1B19951  42.925   1.805   8.550
 5763POPC   C2B19952  42.943   1.852   8.250
 5763POPC   C3B19953  42.984   1.818   7.950
 5763POPC   C4B19954  42.965   1.794   7.650
 5764POPC   NC319955  12.820  42.367   9.450
 5764POPC   PO419956  12.848  42.384   9.150
 5764POPC   GL119957  12.854  42.365   8.850
 5764POPC   GL219958  12.748  42.366   8.850
 5764POPC   C1A19959  12.880  42.367   8.550
 5764POPC   D2A19960  12.803  42.301   8.250
 5764POPC   C3A19961  12.877  42.324   7.950
 5764POPC   C4A19962  12.880  42.369   7.650
 5764POPC   C1B19963  12.665  42.387   8.550
 5764POPC   C2B19964  12.662  42.464   8.250
 5764POPC   C3B19965  12.633  42.369   7.950
 5764POPC   C4B19966  12.580  42.434   7.650
 5765POPC   NC319967   9.741  41.578   9.450
 5765POPC   PO419968   9.733  41.556   9.150
 5765POPC   GL119969   9.718  41.563   8.850
 5765POPC   GL219970   9.890  41.528   8.850
 5765POPC   C1A19971   9.780  41.586   8.550
 5765POPC   D2A19972   9.741  41.606   8.250
 5765POPC   C3A19973   9.746  41.531   7.950
 5765POPC   C4A19974   9.721  41.601   7.650
 5765POPC   C1B19975   9.955  41.444   8.550
 5765POPC   C2B19976   9.939  41.447   8.250
 5765POPC   C3B19977   9.948  41.451   7.950
 5765POPC   C4B19978   9.942  41.496   7.650
 5766POPC   NC319979   5.839  27.593   9.450
 5766POPC   PO419980   5.908  27.567   9.150
 5766POPC   GL119981   5.903  27.548   8.850
 5766POPC   GL219982   5.786  27.716   8.850
 5766POPC   C1A19983   5.905  27.551   8.550
 5766POPC   D2A19984   5.875  27.623   8.250
 5766POPC   C3A19985   5.831  27.569   7.950
 5766POPC   C4A19986   5.907  27.613   7.650
 5766POPC   C1B19987   5.802  27.786   8.550
 5766POPC   C2B19988   5.814  27.833   8.250
 5766POPC   C3B19989   5.792  27.790   7.950
 5766POPC   C4B19990   5.815  27.796   7.650
 5767POPC   NC319991  39.205  36.108   9.450
 5767POPC   PO419992  39.274  36.112   9.150
 5767POPC   GL119993  39.270  36.162   8.850
 5767POPC   GL219994  39.266  36.007   8.850
 5767POPC   C1A19995  39.277  36.158   8.550
 5767POPC   D2A19996  39.227  36.127   8.250
 5767POPC   C3A19997  39.272  36.171   7.950
 5767POPC   C4A19998  39.255  36.095   7.650
 5767POPC   C1B19999  39.376  35.941   8.550
 5767POPC   C2B20000  39.325  35.882   8.250
 5767POPC   C3B20001  39.334  35.892   7.950
 5767POPC   C4B20002  39.319  35.874   7.650
 5768POPC   NC320003   1.254   5.879   9.450
 5768POPC   PO420004   1.237   5.893   9.150
 5768POPC   GL120005   1.180   5.917   8.850
 5768POPC   GL220006   1.214   5.706   8.850
 5768POPC   C1A20007   1.194   5.888   8.550
 5768POPC   D2A20008   1.226   5.835   8.250
 5768POPC   C3A20009   1.229   5.830   7.950
 5768POPC   C4A20010   1.235   5.903   7.650
 5768POPC   C1B20011   1.170   5.626   8.550
 5768POPC   C2B20012   1.188   5.655   8.250
 5768POPC   C3B20013   1.212   5.620   7.950
 5768POPC   C4B20014   1.198   5.588   7.650
 5769POPC   NC320015  29.934  33.784   9.450
 5769POPC   PO420016  29.874  33.810   9.150
 5769POPC   GL120017  29.964  33.790   8.850
 5769POPC   GL220018  30.019  33.766   8.850
 5769POPC   C1A20019  29.953  33.792   8.550
 5769POPC   D2A20020  29.924  33.847   8.250
 5769POPC   C3A20021  29.890  33.780   7.950
 5769POPC   C4A20022  29.960  33.764   7.650
 5769POPC   C1B20023  30.138  33.673   8.550
 5769POPC   C2B20024  30.111  33.630   8.250
 5769POPC   C3B20025  30.091  33.693   7.950
 5769POPC   C4B20026  30.122  33.637   7.650
 5770POPC   NC320027  10.547  32.984   9.450
 5770POPC   PO420028  10.519  33.016   9.150
 5770POPC   GL120029  10.557  33.053   8.850
 5770POPC   GL220030  10.629  33.159   8.850
 5770POPC   C1A20031  10.568  33.070   8.550
 5770POPC   D2A20032  10.507  33.012   8.250
 5770POPC   C3A20033  10.498  33.054   7.950
 5770POPC   C4A20034  10.526  33.034   7.650
 5770POPC   C1B20035  10.705  33.210   8.550
 5770POPC   C2B20036  10.679  33.215   8.250
 5770POPC   C3B20037  10.668  33.177   7.950
 5770POPC   C4B20038  10.659  33.185   7.650
 5771POPC   NC320039  40.806  28.329   9.450
 5771POPC   PO420040  40.737  28.413   9.150
 5771POPC   GL120041  40.776  28.335   8.850
 5771POPC   GL220042  40.836  28.393   8.850
 5771POPC   C1A20043  40.830  28.355   8.550
 5771POPC   D2A20044  40.783  28.352   8.250
 5771POPC   C3A20045  40.772  28.366   7.950
 5771POPC   C4A20046  40.733  28.408   7.650
 5771POPC   C1B20047  40.981  28.536   8.550
 5771POPC   C2B20048  40.970  28.542   8.250
 5771POPC   C3B20049  41.004  28.548   7.950
 5771POPC   C4B20050  40.988  28.476   7.650
 5772POPC   NC320051   7.391  15.156   9.450
 5772POPC   PO420052   7.401  15.215   9.150
 5772POPC   GL120053   7.452  15.144   8.850
 5772POPC   GL220054   7.319  15.167   8.850
 5772POPC   C1A20055   7.377  15.165   8.550
 5772POPC   D2A20056   7.437  15.179   8.250
 5772POPC   C3A20057   7.421  15.194   7.950
 5772POPC   C4A20058   7.428  15.135   7.650
 5772POPC   C1B20059   7.163  15.101   8.550
 5772POPC   C2B20060   7.144  15.137   8.250
 5772POPC   C3B20061   7.185  15.143   7.950
 5772POPC   C4B20062   7.207  15.076   7.650
 5773POPC   NC320063   5.861  32.296   9.450
 5773POPC   PO420064   5.844  32.298   9.150
 5773POPC   GL120065   5.896  32.292   8.850
 5773POPC   GL220066   6.005  32.191   8.850
 5773POPC   C1A20067   5.833  32.231   8.550
 5773POPC   D2A20068   5.898  32.278   8.250
 5773POPC   C3A20069   5.852  32.287   7.950
 5773POPC   C4A20070   5.866  32.253   7.650
 5773POPC   C1B20071   6.094  32.112   8.550
 5773POPC   C2B20072   6.100  32.142   8.250
 5773POPC   C3B20073   6.133  32.083   7.950
 5773POPC   C4B20074   6.120  32.095   7.650
 5774POPC   NC320075  10.517   5.901   9.450
 5774POPC   PO420076  10.520   5.880   9.150
 5774POPC   GL120077  10.567   5.905   8.850
 5774POPC   GL220078  10.588   6.032   8.850
 5774POPC   C1A20079  10.560   5.833   8.550
 5774POPC   D2A20080  10.540   5.872   8.250
 5774POPC   C3A20081  10.527   5.866   7.950
 5774POPC   C4A20082  10.541   5.819   7.650
 5774POPC   C1B20083  10.628   6.149   8.550
 5774POPC   C2B20084  10.649   6.069   8.250
 5774POPC   C3B20085  10.632   6.098   7.950
 5774POPC   C4B20086  10.587   6.129   7.650
 5775POPC   NC320087  30.735   7.470   9.450
 5775POPC   PO420088  30.673   7.434   9.150
 5775POPC   GL120089  30.705   7.462   8.850
 5775POPC   GL220090  30.784   7.279   8.850
 5775POPC   C1A20091  30.709   7.418   8.550
 5775POPC   D2A20092  30.663   7.410   8.250
 5775POPC   C3A20093  30.740   7.455   7.950
 5775POPC   C4A20094  30.746   7.456   7.650
 5775POPC   C1B20095  30.765   7.211   8.550
 5775POPC   C2B20096  30.797   7.140   8.250
 5775POPC   C3B20097  30.742   7.192   7.950
 5775POPC   C4B20098  30.744   7.210   7.650
 5776POPC   NC320099   4.334  41.603   9.450
 5776POPC   PO420100   4.324  41.591   9.150
 5776POPC   GL120101   4.276  41.554   8.850
 5776POPC   GL220102   4.258  41.636   8.850
 5776POPC   C1A20103   4.338  41.602   8.550
 5776POPC   D2A20104   4.307  41.589   8.250
 5776POPC   C3A20105   4.296  41.534   7.950
 5776POPC   C4A20106   4.303  41.521   7.650
 5776POPC   C1B20107   4.231  41.803   8.550
 5776POPC   C2B20108   4.202  41.776   8.250
 5776POPC   C3B20109   4.222  41.767   7.950
 5776POPC   C4B20110   4.200  41.821   7.650
 5777POPC   NC320111  15.971  25.237   9.450
 5777POPC   PO420112  15.929  25.262   9.150
 5777POPC   GL120113  15.917  25.292   8.850
 5777POPC   GL220114  15.945  25.381   8.850
 5777POPC   C1A20115  15.985  25.284   8.550
 5777POPC   D2A20116  15.925  25.230   8.250
 5777POPC   C3A20117  15.921  25.300   7.950
 5777POPC   C4A20118  15.925  25.288   7.650
 5777POPC   C1B20119  15.812  25.492   8.550
 5777POPC   C2B20120  15.806  25.492   8.250
 5777POPC   C3B20121  15.881  25.505   7.950
 5777POPC   C4B20122  15.809  25.510   7.650
 5778POPC   NC320123   8.189  43.849   9.450
 5778POPC   PO420124   8.223  43.936   9.150
 5778POPC   GL120125   8.218  43.847   8.850
 5778POPC   GL220126   8.124  43.955   8.850
 5778POPC   C1A20127   8.158  43.877   8.550
 5778POPC   D2A20128   8.210  43.870   8.250
 5778POPC   C3A20129   8.237  43.886   7.950
 5778POPC   C4A20130   8.188  43.867   7.650
 5778POPC   C1B20131   7.955  44.020   8.550
 5778POPC   C2B20132   7.930  43.981   8.250
 5778POPC   C3B20133   7.951  43.985   7.950
 5778POPC   C4B20134   7.970  44.006   7.650
 5779POPC   NC320135  10.567  20.634   9.450
 5779POPC   PO420136  10.540  20.649   9.150
 5779POPC   GL120137  10.550  20.621   8.850
 5779POPC   GL220138  10.579  20.726   8.850
 5779POPC   C1A20139  10.557  20.590   8.550
 5779POPC   D2A20140  10.554  20.580   8.250
 5779POPC   C3A20141  10.482  20.565   7.950
 5779POPC   C4A20142  10.546  20.572   7.650
 5779POPC   C1B20143  10.626  20.832   8.550
 5779POPC   C2B20144  10.661  20.867   8.250
 5779POPC   C3B20145  10.594  20.821   7.950
 5779POPC   C4B20146  10.618  20.827   7.650
 5780POPC   NC320147  30.694   2.716   9.450
 5780POPC   PO420148  30.720   2.814   9.150
 5780POPC   GL120149  30.741   2.721   8.850
 5780POPC   GL220150  30.815   2.764   8.850
 5780POPC   C1A20151  30.732   2.731   8.550
 5780POPC   D2A20152  30.719   2.810   8.250
 5780POPC   C3A20153  30.686   2.763   7.950
 5780POPC   C4A20154  30.707   2.746   7.650
 5780POPC   C1B20155  30.894   2.774   8.550
 5780POPC   C2B20156  30.909   2.702   8.250
 5780POPC   C3B20157  30.936   2.761   7.950
 5780POPC   C4B20158  30.975   2.717   7.650
 5781POPC   NC320159  36.894   1.973   9.450
 5781POPC   PO420160  36.934   1.960   9.150
 5781POPC   GL120161  36.881   1.947   8.850
 5781POPC   GL220162  36.748   1.971   8.850
 5781POPC   C1A20163  36.928   1.980   8.550
 5781POPC   D2A20164  36.880   1.958   8.250
 5781POPC   C3A20165  36.953   1.944   7.950
 5781POPC   C4A20166  36.889   1.960   7.650
 5781POPC   C1B20167  36.648   1.851   8.550
 5781POPC   C2B20168  36.719   1.878   8.250
 5781POPC   C3B20169  36.723   1.840   7.950
 5781POPC   C4B20170  36.639   1.846   7.650
 5782POPC   NC320171  16.710  20.618   9.450
 5782POPC   PO420172  16.687  20.653   9.150
 5782POPC   GL120173  16.691  20.633   8.850
 5782POPC   GL220174  16.723  20.500   8.850
 5782POPC   C1A20175  16.737  20.623   8.550
 5782POPC   D2A20176  16.737  20.567   8.250
 5782POPC   C3A20177  16.759  20.648   7.950
 5782POPC   C4A20178  16.708  20.577   7.650
 5782POPC   C1B20179  16.795  20.387   8.550
 5782POPC   C2B20180  16.757  20.349   8.250
 5782POPC   C3B20181  16.834  20.388   7.950
 5782POPC   C4B20182  16.801  20.390   7.650
 5783POPC   NC320183  12.807  21.364   9.450
 5783POPC   PO420184  12.868  21.342   9.150
 5783POPC   GL120185  12.825  21.388   8.850
 5783POPC   GL220186  12.709  21.429   8.850
 5783POPC   C1A20187  12.821  21.389   8.550
 5783POPC   D2A20188  12.863  21.397   8.250
 5783POPC   C3A20189  12.811  21.413   7.950
 5783POPC   C4A20190  12.853  21.432   7.650
 5783POPC   C1B20191  12.599  21.394   8.550
 5783POPC   C2B20192  12.631  21.440   8.250
 5783POPC   C3B20193  12.594  21.421   7.950
 5783POPC   C4B20194  12.615  21.429   7.650
 5784POPC   NC320195  38.440  43.870   9.450
 5784POPC   PO420196  38.418  43.882   9.150
 5784POPC   GL120197  38.471  43.918   8.850
 5784POPC   GL220198  38.505  43.726   8.850
 5784POPC   C1A20199  38.499  43.934   8.550
 5784POPC   D2A20200  38.439  43.904   8.250
 5784POPC   C3A20201  38.429  43.870   7.950
 5784POPC   C4A20202  38.417  43.934   7.650
 5784POPC   C1B20203  38.451  43.599   8.550
 5784POPC   C2B20204  38.458  43.588   8.250
 5784POPC   C3B20205  38.461  43.593   7.950
 5784POPC   C4B20206  38.411  43.600   7.650
 5785POPC   NC320207  36.895   9.768   9.450
 5785POPC   PO420208  36.885   9.789   9.150
 5785POPC   GL120209  36.903   9.768   8.850
 5785POPC   GL220210  36.968   9.649   8.850
 5785POPC   C1A20211  36.854   9.743   8.550
 5785POPC   D2A20212  36.901   9.787   8.250
 5785POPC   C3A20213  36.929   9.736   7.950
 5785POPC   C4A20214  36.880   9.772   7.650
 5785POPC   C1B20215  37.045   9.550   8.550
 5785POPC   C2B20216  37.023   9.556   8.250
 5785POPC   C3B20217  36.981   9.521   7.950
 5785POPC   C4B20218  36.957   9.546   7.650
 5786POPC   NC320219  25.298  17.507   9.450
 5786POPC   PO420220  25.219  17.557   9.150
 5786POPC   GL120221  25.241  17.536   8.850
 5786POPC   GL220222  25.271  17.375   8.850
 5786POPC   C1A20223  25.309  17.503   8.550
 5786POPC   D2A20224  25.224  17.533   8.250
 5786POPC   C3A20225  25.253  17.536   7.950
 5786POPC   C4A20226  25.305  17.534   7.650
 5786POPC   C1B20227  25.311  17.240   8.550
 5786POPC   C2B20228  25.313  17.260   8.250
 5786POPC   C3B20229  25.293  17.263   7.950
 5786POPC   C4B20230  25.309  17.264   7.650
 5787POPC   NC320231  10.535  35.393   9.450
 5787POPC   PO420232  10.495  35.327   9.150
 5787POPC   GL120233  10.491  35.356   8.850
 5787POPC   GL220234  10.642  35.390   8.850
 5787POPC   C1A20235  10.482  35.318   8.550
 5787POPC   D2A20236  10.489  35.364   8.250
 5787POPC   C3A20237  10.566  35.394   7.950
 5787POPC   C4A20238  10.504  35.356   7.650
 5787POPC   C1B20239  10.775  35.368   8.550
 5787POPC   C2B20240  10.758  35.359   8.250
 5787POPC   C3B20241  10.796  35.336   7.950
 5787POPC   C4B20242  10.800  35.337   7.650
 5788POPC   NC320243   0.391   1.959   9.450
 5788POPC   PO420244   0.444   2.022   9.150
 5788POPC   GL120245   0.450   1.988   8.850
 5788POPC   GL220246   0.437   2.132   8.850
 5788POPC   C1A20247   0.448   2.003   8.550
 5788POPC   D2A20248   0.430   1.979   8.250
 5788POPC   C3A20249   0.461   1.959   7.950
 5788POPC   C4A20250   0.423   1.970   7.650
 5788POPC   C1B20251   0.328   2.203   8.550
 5788POPC   C2B20252   0.369   2.178   8.250
 5788POPC   C3B20253   0.388   2.270   7.950
 5788POPC   C4B20254   0.392   2.268   7.650
 5789POPC   NC320255  15.203   1.256   9.450
 5789POPC   PO420256  15.197   1.214   9.150
 5789POPC   GL120257  15.161   1.202   8.850
 5789POPC   GL220258  15.147   1.123   8.850
 5789POPC   C1A20259  15.167   1.171   8.550
 5789POPC   D2A20260  15.192   1.253   8.250
 5789POPC   C3A20261  15.179   1.252   7.950
 5789POPC   C4A20262  15.199   1.235   7.650
 5789POPC   C1B20263  15.157   0.927   8.550
 5789POPC   C2B20264  15.202   1.006   8.250
 5789POPC   C3B20265  15.133   0.953   7.950
 5789POPC   C4B20266  15.195   0.948   7.650
 5790POPC   NC320267   3.496   1.960   9.450
 5790POPC   PO420268   3.495   2.002   9.150
 5790POPC   GL120269   3.576   1.955   8.850
 5790POPC   GL220270   3.521   2.118   8.850
 5790POPC   C1A20271   3.497   1.943   8.550
 5790POPC   D2A20272   3.551   2.027   8.250
 5790POPC   C3A20273   3.530   1.974   7.950
 5790POPC   C4A20274   3.568   2.005   7.650
 5790POPC   C1B20275   3.606   2.277   8.550
 5790POPC   C2B20276   3.607   2.191   8.250
 5790POPC   C3B20277   3.564   2.190   7.950
 5790POPC   C4B20278   3.617   2.211   7.650
 5791POPC   NC320279  25.234  18.306   9.450
 5791POPC   PO420280  25.284  18.310   9.150
 5791POPC   GL120281  25.272  18.241   8.850
 5791POPC   GL220282  25.227  18.418   8.850
 5791POPC   C1A20283  25.288  18.298   8.550
 5791POPC   D2A20284  25.230  18.252   8.250
 5791POPC   C3A20285  25.267  18.316   7.950
 5791POPC   C4A20286  25.265  18.269   7.650
 5791POPC   C1B20287  25.072  18.449   8.550
 5791POPC   C2B20288  25.140  18.484   8.250
 5791POPC   C3B20289  25.152  18.509   7.950
 5791POPC   C4B20290  25.135  18.519   7.650
 5792POPC   NC320291  26.807  25.221   9.450
 5792POPC   PO420292  26.861  25.314   9.150
 5792POPC   GL120293  26.794  25.257   8.850
 5792POPC   GL220294  26.880  25.335   8.850
 5792POPC   C1A20295  26.817  25.277   8.550
 5792POPC   D2A20296  26.780  25.254   8.250
 5792POPC   C3A20297  26.784  25.307   7.950
 5792POPC   C4A20298  26.830  25.275   7.650
 5792POPC   C1B20299  27.002  25.455   8.550
 5792POPC   C2B20300  27.049  25.381   8.250
 5792POPC   C3B20301  27.010  25.446   7.950
 5792POPC   C4B20302  26.977  25.392   7.650
 5793POPC   NC320303  35.364  41.555   9.450
 5793POPC   PO420304  35.357  41.565   9.150
 5793POPC   GL120305  35.326  41.512   8.850
 5793POPC   GL220306  35.368  41.673   8.850
 5793POPC   C1A20307  35.314  41.608   8.550
 5793POPC   D2A20308  35.347  41.524   8.250
 5793POPC   C3A20309  35.361  41.567   7.950
 5793POPC   C4A20310  35.328  41.553   7.650
 5793POPC   C1B20311  35.351  41.810   8.550
 5793POPC   C2B20312  35.403  41.823   8.250
 5793POPC   C3B20313  35.415  41.815   7.950
 5793POPC   C4B20314  35.388  41.814   7.650
 5794POPC   NC320315   7.464   0.414   9.450
 5794POPC   PO420316   7.437   0.456   9.150
 5794POPC   GL120317   7.374   0.391   8.850
 5794POPC   GL220318   7.439   0.523   8.850
 5794POPC   C1A20319   7.448   0.483   8.550
 5794POPC   D2A20320   7.468   0.404   8.250
 5794POPC   C3A20321   7.394   0.478   7.950
 5794POPC   C4A20322   7.374   0.404   7.650
 5794POPC   C1B20323   7.444   0.679   8.550
 5794POPC   C2B20324   7.459   0.685   8.250
 5794POPC   C3B20325   7.440   0.660   7.950
 5794POPC   C4B20326   7.516   0.675   7.650
 5795POPC   NC320327  32.255  25.275   9.450
 5795POPC   PO420328  32.225  25.230   9.150
 5795POPC   GL120329  32.268  25.258   8.850
 5795POPC   GL220330  32.088  25.259   8.850
 5795POPC   C1A20331  32.247  25.250   8.550
 5795POPC   D2A20332  32.296  25.249   8.250
 5795POPC   C3A20333  32.207  25.289   7.950
 5795POPC   C4A20334  32.222  25.241   7.650
 5795POPC   C1B20335  31.971  25.336   8.550
 5795POPC   C2B20336  31.989  25.272   8.250
 5795POPC   C3B20337  32.035  25.264   7.950
 5795POPC   C4B20338  31.968  25.332   7.650
 5796POPC   NC320339  28.409  28.340   9.450
 5796POPC   PO420340  28.360  28.320   9.150
 5796POPC   GL120341  28.346  28.327   8.850
 5796POPC   GL220342  28.452  28.450   8.850
 5796POPC   C1A20343  28.337  28.418   8.550
 5796POPC   D2A20344  28.393  28.347   8.250
 5796POPC   C3A20345  28.323  28.396   7.950
 5796POPC   C4A20346  28.407  28.412   7.650
 5796POPC   C1B20347  28.482  28.543   8.550
 5796POPC   C2B20348  28.482  28.533   8.250
 5796POPC   C3B20349  28.566  28.517   7.950
 5796POPC   C4B20350  28.551  28.587   7.650
 5797POPC   NC320351   2.786  32.260   9.450
 5797POPC   PO420352   2.717  32.202   9.150
 5797POPC   GL120353   2.740  32.200   8.850
 5797POPC   GL220354   2.776  32.091   8.850
 5797POPC   C1A20355   2.728  32.203   8.550
 5797POPC   D2A20356   2.746  32.238   8.250
 5797POPC   C3A20357   2.805  32.255   7.950
 5797POPC   C4A20358   2.741  32.281   7.650
 5797POPC   C1B20359   2.826  31.985   8.550
 5797POPC   C2B20360   2.844  31.967   8.250
 5797POPC   C3B20361   2.805  31.985   7.950
 5797POPC   C4B20362   2.826  32.013   7.650
 5798POPC   NC320363   8.192   8.221   9.450
 5798POPC   PO420364   8.159   8.149   9.150
 5798POPC   GL120365   8.222   8.233   8.850
 5798POPC   GL220366   8.284   8.199   8.850
 5798POPC   C1A20367   8.157   8.156   8.550
 5798POPC   D2A20368   8.213   8.227   8.250
 5798POPC   C3A20369   8.179   8.226   7.950
 5798POPC   C4A20370   8.168   8.234   7.650
 5798POPC   C1B20371   8.395   8.309   8.550
 5798POPC   C2B20372   8.464   8.280   8.250
 5798POPC   C3B20373   8.460   8.294   7.950
 5798POPC   C4B20374   8.463   8.281   7.650
 5799POPC   NC320375  39.992  34.539   9.450
 5799POPC   PO420376  39.970  34.530   9.150
 5799POPC   GL120377  39.983  34.594   8.850
 5799POPC   GL220378  39.887  34.611   8.850
 5799POPC   C1A20379  40.038  34.599   8.550
 5799POPC   D2A20380  40.030  34.610   8.250
 5799POPC   C3A20381  39.989  34.565   7.950
 5799POPC   C4A20382  40.023  34.602   7.650
 5799POPC   C1B20383  39.751  34.556   8.550
 5799POPC   C2B20384  39.716  34.594   8.250
 5799POPC   C3B20385  39.735  34.617   7.950
 5799POPC   C4B20386  39.785  34.622   7.650
 5800POPC   NC320387  12.823  15.207   9.450
 5800POPC   PO420388  12.862  15.151   9.150
 5800POPC   GL120389  12.806  15.201   8.850
 5800POPC   GL220390  12.961  15.090   8.850
 5800POPC   C1A20391  12.802  15.193   8.550
 5800POPC   D2A20392  12.881  15.154   8.250
 5800POPC   C3A20393  12.891  15.221   7.950
 5800POPC   C4A20394  12.851  15.150   7.650
 5800POPC   C1B20395  12.988  14.922   8.550
 5800POPC   C2B20396  12.980  15.015   8.250
 5800POPC   C3B20397  13.012  14.919   7.950
 5800POPC   C4B20398  12.953  14.923   7.650
 5801POPC   NC320399   9.750   4.351   9.450
 5801POPC   PO420400   9.775   4.276   9.150
 5801POPC   GL120401   9.752   4.348   8.850
 5801POPC   GL220402   9.852   4.367   8.850
 5801POPC   C1A20403   9.709   4.294   8.550
 5801POPC   D2A20404   9.707   4.355   8.250
 5801POPC   C3A20405   9.798   4.280   7.950
 5801POPC   C4A20406   9.763   4.315   7.650
 5801POPC   C1B20407   9.922   4.512   8.550
 5801POPC   C2B20408   9.897   4.523   8.250
 5801POPC   C3B20409   9.952   4.526   7.950
 5801POPC   C4B20410   9.970   4.433   7.650
 5802POPC   NC320411   8.977  43.078   9.450
 5802POPC   PO420412   8.997  43.126   9.150
 5802POPC   GL120413   9.014  43.064   8.850
 5802POPC   GL220414   8.854  43.108   8.850
 5802POPC   C1A20415   8.930  43.129   8.550
 5802POPC   D2A20416   8.989  43.121   8.250
 5802POPC   C3A20417   9.016  43.089   7.950
 5802POPC   C4A20418   9.010  43.101   7.650
 5802POPC   C1B20419   8.736  43.086   8.550
 5802POPC   C2B20420   8.735  43.057   8.250
 5802POPC   C3B20421   8.752  43.087   7.950
 5802POPC   C4B20422   8.723  43.029   7.650
 5803POPC   NC320423   8.219  28.384   9.450
 5803POPC   PO420424   8.195  28.329   9.150
 5803POPC   GL120425   8.243  28.404   8.850
 5803POPC   GL220426   8.162  28.250   8.850
 5803POPC   C1A20427   8.188  28.389   8.550
 5803POPC   D2A20428   8.159  28.385   8.250
 5803POPC   C3A20429   8.149  28.374   7.950
 5803POPC   C4A20430   8.170  28.383   7.650
 5803POPC   C1B20431   8.166  28.123   8.550
 5803POPC   C2B20432   8.071  28.137   8.250
 5803POPC   C3B20433   8.106  28.130   7.950
 5803POPC   C4B20434   8.167  28.099   7.650
 5804POPC   NC320435  15.143   0.475   9.450
 5804POPC   PO420436  15.137   0.468   9.150
 5804POPC   GL120437  15.171   0.467   8.850
 5804POPC   GL220438  15.221   0.527   8.850
 5804POPC   C1A20439  15.166   0.449   8.550
 5804POPC   D2A20440  15.199   0.392   8.250
 5804POPC   C3A20441  15.191   0.419   7.950
 5804POPC   C4A20442  15.184   0.395   7.650
 5804POPC   C1B20443  15.214   0.671   8.550
 5804POPC   C2B20444  15.205   0.659   8.250
 5804POPC   C3B20445  15.192   0.723   7.950
 5804POPC   C4B20446  15.230   0.669   7.650
 5805POPC   NC320447  25.264   8.155   9.450
 5805POPC   PO420448  25.254   8.237   9.150
 5805POPC   GL120449  25.293   8.210   8.850
 5805POPC   GL220450  25.158   8.242   8.850
 5805POPC   C1A20451  25.250   8.195   8.550
 5805POPC   D2A20452  25.261   8.172   8.250
 5805POPC   C3A20453  25.216   8.205   7.950
 5805POPC   C4A20454  25.292   8.215   7.650
 5805POPC   C1B20455  25.114   8.401   8.550
 5805POPC   C2B20456  25.092   8.317   8.250
 5805POPC   C3B20457  25.040   8.310   7.950
 5805POPC   C4B20458  25.107   8.303   7.650
 5806POPC   NC320459   7.469  15.919   9.450
 5806POPC   PO420460   7.425  15.941   9.150
 5806POPC   GL120461   7.403  15.989   8.850
 5806POPC   GL220462   7.417  15.786   8.850
 5806POPC   C1A20463   7.462  15.937   8.550
 5806POPC   D2A20464   7.455  15.955   8.250
 5806POPC   C3A20465   7.465  15.967   7.950
 5806POPC   C4A20466   7.469  15.910   7.650
 5806POPC   C1B20467   7.400  15.693   8.550
 5806POPC   C2B20468   7.331  15.716   8.250
 5806POPC   C3B20469   7.359  15.717   7.950
 5806POPC   C4B20470   7.423  15.678   7.650
 5807POPC   NC320471  22.952   4.304   9.450
 5807POPC   PO420472  22.951   4.302   9.150
 5807POPC   GL120473  22.895   4.302   8.850
 5807POPC   GL220474  22.852   4.278   8.850
 5807POPC   C1A20475  22.962   4.364   8.550
 5807POPC   D2A20476  22.957   4.289   8.250
 5807POPC   C3A20477  22.926   4.273   7.950
 5807POPC   C4A20478  22.910   4.340   7.650
 5807POPC   C1B20479  22.770   4.136   8.550
 5807POPC   C2B20480  22.783   4.134   8.250
 5807POPC   C3B20481  22.732   4.206   7.950
 5807POPC   C4B20482  22.727   4.180   7.650
 5808POPC   NC320483   0.433  26.839   9.450
 5808POPC   PO420484   0.439  26.838   9.150
 5808POPC   GL120485   0.406  26.826   8.850
 5808POPC   GL220486   0.322  26.782   8.850
 5808POPC   C1A20487   0.402  26.821   8.550
 5808POPC   D2A20488   0.460  26.850   8.250
 5808POPC   C3A20489   0.417  26.767   7.950
 5808POPC   C4A20490   0.424  26.857   7.650
 5808POPC   C1B20491   0.139  26.875   8.550
 5808POPC   C2B20492   0.192  26.862   8.250
 5808POPC   C3B20493   0.224  26.863   7.950
 5808POPC   C4B20494   0.212  26.826   7.650
 5809POPC   NC320495   4.283  19.829   9.450
 5809POPC   PO420496   4.275  19.793   9.150
 5809POPC   GL120497   4.315  19.879   8.850
 5809POPC   GL220498   4.451  19.921   8.850
 5809POPC   C1A20499   4.270  19.883   8.550
 5809POPC   D2A20500   4.272  19.872   8.250
 5809POPC   C3A20501   4.366  19.790   7.950
 5809POPC   C4A20502   4.295  19.799   7.650
 5809POPC   C1B20503   4.527  19.870   8.550
 5809POPC   C2B20504   4.587  19.894   8.250
 5809POPC   C3B20505   4.576  19.890   7.950
 5809POPC   C4B20506   4.549  19.894   7.650
 5810POPC   NC320507  22.159  43.109   9.450
 5810POPC   PO420508  22.206  43.138   9.150
 5810POPC   GL120509  22.188  43.158   8.850
 5810POPC   GL220510  22.238  43.179   8.850
 5810POPC   C1A20511  22.206  43.071   8.550
 5810POPC   D2A20512  22.162  43.061   8.250
 5810POPC   C3A20513  22.122  43.155   7.950
 5810POPC   C4A20514  22.148  43.116   7.650
 5810POPC   C1B20515  22.364  43.219   8.550
 5810POPC   C2B20516  22.428  43.205   8.250
 5810POPC   C3B20517  22.347  43.201   7.950
 5810POPC   C4B20518  22.378  43.199   7.650
 5811POPC   NC320519  22.204   5.117   9.450
 5811POPC   PO420520  22.162   5.047   9.150
 5811POPC   GL120521  22.191   5.101   8.850
 5811POPC   GL220522  22.273   5.104   8.850
 5811POPC   C1A20523  22.144   5.068   8.550
 5811POPC   D2A20524  22.208   5.056   8.250
 5811POPC   C3A20525  22.115   5.052   7.950
 5811POPC   C4A20526  22.183   5.116   7.650
 5811POPC   C1B20527  22.398   5.101   8.550
 5811POPC   C2B20528  22.445   5.067   8.250
 5811POPC   C3B20529  22.454   5.143   7.950
 5811POPC   C4B20530  22.380   5.140   7.650
 5812POPC   NC320531  41.529  25.310   9.450
 5812POPC   PO420532  41.593  25.304   9.150
 5812POPC   GL120533  41.575  25.231   8.850
 5812POPC   GL220534  41.631  25.370   8.850
 5812POPC   C1A20535  41.572  25.237   8.550
 5812POPC   D2A20536  41.601  25.305   8.250
 5812POPC   C3A20537  41.552  25.236   7.950
 5812POPC   C4A20538  41.556  25.240   7.650
 5812POPC   C1B20539  41.773  25.369   8.550
 5812POPC   C2B20540  41.788  25.404   8.250
 5812POPC   C3B20541  41.818  25.363   7.950
 5812POPC   C4B20542  41.772  25.343   7.650
 5813POPC   NC320543  43.925  14.421   9.450
 5813POPC   PO420544  43.849  14.384   9.150
 5813POPC   GL120545  43.925  14.384   8.850
 5813POPC   GL220546  43.844  14.341   8.850
 5813POPC   C1A20547  43.914  14.369   8.550
 5813POPC   D2A20548  43.901  14.366   8.250
 5813POPC   C3A20549  43.865  14.374   7.950
 5813POPC   C4A20550  43.904  14.411   7.650
 5813POPC   C1B20551  43.679  14.194   8.550
 5813POPC   C2B20552  43.749  14.208   8.250
 5813POPC   C3B20553  43.730  14.216   7.950
 5813POPC   C4B20554  43.738  14.260   7.650
 5814POPC   NC320555  34.557  29.912   9.450
 5814POPC   PO420556  34.619  29.918   9.150
 5814POPC   GL120557  34.619  29.966   8.850
 5814POPC   GL220558  34.700  29.815   8.850
 5814POPC   C1A20559  34.617  29.902   8.550
 5814POPC   D2A20560  34.561  29.956   8.250
 5814POPC   C3A20561  34.620  29.898   7.950
 5814POPC   C4A20562  34.578  29.927   7.650
 5814POPC   C1B20563  34.722  29.733   8.550
 5814POPC   C2B20564  34.773  29.700   8.250
 5814POPC   C3B20565  34.675  29.689   7.950
 5814POPC   C4B20566  34.757  29.678   7.650
 5815POPC   NC320567  14.436  28.320   9.450
 5815POPC   PO420568  14.381  28.377   9.150
 5815POPC   GL120569  14.360  28.397   8.850
 5815POPC   GL220570  14.484  28.388   8.850
 5815POPC   C1A20571  14.381  28.403   8.550
 5815POPC   D2A20572  14.425  28.347   8.250
 5815POPC   C3A20573  14.446  28.405   7.950
 5815POPC   C4A20574  14.379  28.391   7.650
 5815POPC   C1B20575  14.656  28.489   8.550
 5815POPC   C2B20576  14.644  28.449   8.250
 5815POPC   C3B20577  14.612  28.499   7.950
 5815POPC   C4B20578  14.606  28.464   7.650
 5816POPC   NC320579  43.088   3.577   9.450
 5816POPC   PO420580  43.129   3.494   9.150
 5816POPC   GL120581  43.126   3.519   8.850
 5816POPC   GL220582  43.159   3.705   8.850
 5816POPC   C1A20583  43.126   3.574   8.550
 5816POPC   D2A20584  43.087   3.542   8.250
 5816POPC   C3A20585  43.143   3.560   7.950
 5816POPC   C4A20586  43.116   3.493   7.650
 5816POPC   C1B20587  43.145   3.841   8.550
 5816POPC   C2B20588  43.153   3.768   8.250
 5816POPC   C3B20589  43.135   3.813   7.950
 5816POPC   C4B20590  43.083   3.826   7.650
 5817POPC   NC320591   1.185   0.438   9.450
 5817POPC   PO420592   1.189   0.462   9.150
 5817POPC   GL120593   1.235   0.465   8.850
 5817POPC   GL220594   1.083   0.476   8.850
 5817POPC   C1A20595   1.224   0.424   8.550
 5817POPC   D2A20596   1.195   0.423   8.250
 5817POPC   C3A20597   1.185   0.427   7.950
 5817POPC   C4A20598   1.204   0.407   7.650
 5817POPC   C1B20599   0.999   0.528   8.550
 5817POPC   C2B20600   1.003   0.529   8.250
 5817POPC   C3B20601   1.001   0.514   7.950
 5817POPC   C4B20602   0.955   0.540   7.650
 5818POPC   NC320603  42.312  21.362   9.450
 5818POPC   PO420604  42.346  21.376   9.150
 5818POPC   GL120605  42.359  21.386   8.850
 5818POPC   GL220606  42.192  21.301   8.850
 5818POPC   C1A20607  42.300  21.390   8.550
 5818POPC   D2A20608  42.373  21.430   8.250
 5818POPC   C3A20609  42.379  21.432   7.950
 5818POPC   C4A20610  42.300  21.351   7.650
 5818POPC   C1B20611  42.177  21.248   8.550
 5818POPC   C2B20612  42.089  21.192   8.250
 5818POPC   C3B20613  42.124  21.264   7.950
 5818POPC   C4B20614  42.094  21.243   7.650
 5819POPC   NC320615  41.580  33.060   9.450
 5819POPC   PO420616  41.575  32.989   9.150
 5819POPC   GL120617  41.572  33.005   8.850
 5819POPC   GL220618  41.705  33.090   8.850
 5819POPC   C1A20619  41.602  33.055   8.550
 5819POPC   D2A20620  41.590  33.012   8.250
 5819POPC   C3A20621  41.543  33.028   7.950
 5819POPC   C4A20622  41.530  33.049   7.650
 5819POPC   C1B20623  41.703  33.180   8.550
 5819POPC   C2B20624  41.756  33.214   8.250
 5819POPC   C3B20625  41.736  33.172   7.950
 5819POPC   C4B20626  41.713  33.205   7.650
 5820POPC   NC320627  27.559  29.881   9.450
 5820POPC   PO420628  27.547  29.909   9.150
 5820POPC   GL120629  27.594  29.915   8.850
 5820POPC   GL220630  27.463  29.816   8.850
 5820POPC   C1A20631  27.546  29.891   8.550
 5820POPC   D2A20632  27.572  29.896   8.250
 5820POPC   C3A20633  27.609  29.934   7.950
 5820POPC   C4A20634  27.621  29.872   7.650
 5820POPC   C1B20635  27.421  29.715   8.550
 5820POPC   C2B20636  27.381  29.787   8.250
 5820POPC   C3B20637  27.408  29.783   7.950
 5820POPC   C4B20638  27.381  29.740   7.650
 5821POPC   NC320639   2.037  40.752   9.450
 5821POPC   PO420640   2.035  40.749   9.150
 5821POPC   GL120641   1.997  40.747   8.850
 5821POPC   GL220642   2.035  40.674   8.850
 5821POPC   C1A20643   1.991  40.750   8.550
 5821POPC   D2A20644   2.035  40.803   8.250
 5821POPC   C3A20645   1.980  40.812   7.950
 5821POPC   C4A20646   2.036  40.748   7.650
 5821POPC   C1B20647   2.058  40.503   8.550
 5821POPC   C2B20648   2.086  40.558   8.250
 5821POPC   C3B20649   2.043  40.525   7.950
 5821POPC   C4B20650   2.072  40.522   7.650
 5822POPC   NC320651  26.046  26.802   9.450
 5822POPC   PO420652  26.069  26.822   9.150
 5822POPC   GL120653  26.010  26.865   8.850
 5822POPC   GL220654  26.122  26.731   8.850
 5822POPC   C1A20655  25.992  26.826   8.550
 5822POPC   D2A20656  26.075  26.864   8.250
 5822POPC   C3A20657  26.005  26.813   7.950
 5822POPC   C4A20658  26.040  26.791   7.650
 5822POPC   C1B20659  26.113  26.626   8.550
 5822POPC   C2B20660  26.151  26.585   8.250
 5822POPC   C3B20661  26.172  26.602   7.950
 5822POPC   C4B20662  26.155  26.616   7.650
 5823POPC   NC320663  11.335  34.571   9.450
 5823POPC   PO420664  11.272  34.585   9.150
 5823POPC   GL120665  11.292  34.614   8.850
 5823POPC   GL220666  11.358  34.471   8.850
 5823POPC   C1A20667  11.287  34.539   8.550
 5823POPC   D2A20668  11.328  34.569   8.250
 5823POPC   C3A20669  11.304  34.566   7.950
 5823POPC   C4A20670  11.340  34.617   7.650
 5823POPC   C1B20671  11.507  34.402   8.550
 5823POPC   C2B20672  11.514  34.347   8.250
 5823POPC   C3B20673  11.466  34.437   7.950
 5823POPC   C4B20674  11.431  34.428   7.650
 5824POPC   NC320675  26.852  16.775   9.450
 5824POPC   PO420676  26.773  16.751   9.150
 5824POPC   GL120677  26.863  16.766   8.850
 5824POPC   GL220678  26.771  16.637   8.850
 5824POPC   C1A20679  26.775  16.751   8.550
 5824POPC   D2A20680  26.828  16.763   8.250
 5824POPC   C3A20681  26.843  16.718   7.950
 5824POPC   C4A20682  26.802  16.740   7.650
 5824POPC   C1B20683  26.595  16.561   8.550
 5824POPC   C2B20684  26.593  16.546   8.250
 5824POPC   C3B20685  26.653  16.576   7.950
 5824POPC   C4B20686  26.618  16.520   7.650
 5825POPC   NC320687  25.278  21.371   9.450
 5825POPC   PO420688  25.309  21.425   9.150
 5825POPC   GL120689  25.244  21.417   8.850
 5825POPC   GL220690  25.343  21.365   8.850
 5825POPC   C1A20691  25.230  21.373   8.550
 5825POPC   D2A20692  25.221  21.353   8.250
 5825POPC   C3A20693  25.244  21.358   7.950
 5825POPC   C4A20694  25.302  21.340   7.650
 5825POPC   C1B20695  25.497  21.353   8.550
 5825POPC   C2B20696  25.532  21.417   8.250
 5825POPC   C3B20697  25.542  21.395   7.950
 5825POPC   C4B20698  25.536  21.403   7.650
 5826POPC   NC320699  21.351  44.658   9.450
 5826POPC   PO420700  21.352  44.709   9.150
 5826POPC   GL120701  21.399  44.668   8.850
 5826POPC   GL220702  21.295  44.763   8.850
 5826POPC   C1A20703  21.388  44.682   8.550
 5826POPC   D2A20704  21.419  44.701   8.250
 5826POPC   C3A20705  21.374  44.696   7.950
 5826POPC   C4A20706  21.405  44.681   7.650
 5826POPC   C1B20707  21.222  44.900   8.550
 5826POPC   C2B20708  21.274  44.860   8.250
 5826POPC   C3B20709  21.307  44.839   7.950
 5826POPC   C4B20710  21.217  44.886   7.650
 5827POPC   NC320711  13.587  15.139   9.450
 5827POPC   PO420712  13.588  15.174   9.150
 5827POPC   GL120713  13.674  15.185   8.850
 5827POPC   GL220714  13.679  15.276   8.850
 5827POPC   C1A20715  13.649  15.133   8.550
 5827POPC   D2A20716  13.624  15.229   8.250
 5827POPC   C3A20717  13.629  15.214   7.950
 5827POPC   C4A20718  13.651  15.169   7.650
 5827POPC   C1B20719  13.809  15.371   8.550
 5827POPC   C2B20720  13.785  15.381   8.250
 5827POPC   C3B20721  13.724  15.419   7.950
 5827POPC   C4B20722  13.725  15.413   7.650
 5828POPC   NC320723  12.054  32.272   9.450
 5828POPC   PO420724  12.051  32.239   9.150
 5828POPC   GL120725  12.075  32.296   8.850
 5828POPC   GL220726  12.172  32.294   8.850
 5828POPC   C1A20727  12.081  32.216   8.550
 5828POPC   D2A20728  12.030  32.297   8.250
 5828POPC   C3A20729  12.055  32.278   7.950
 5828POPC   C4A20730  12.123  32.277   7.650
 5828POPC   C1B20731  12.243  32.333   8.550
 5828POPC   C2B20732  12.291  32.359   8.250
 5828POPC   C3B20733  12.306  32.367   7.950
 5828POPC   C4B20734  12.280  32.393   7.650
 5829POPC   NC320735   8.943   6.598   9.450
 5829POPC   PO420736   8.979   6.620   9.150
 5829POPC   GL120737   8.926   6.629   8.850
 5829POPC   GL220738   9.027   6.754   8.850
 5829POPC   C1A20739   8.930   6.626   8.550
 5829POPC   D2A20740   8.937   6.609   8.250
 5829POPC   C3A20741   8.982   6.655   7.950
 5829POPC   C4A20742   8.960   6.600   7.650
 5829POPC   C1B20743   9.095   6.919   8.550
 5829POPC   C2B20744   9.002   6.923   8.250
 5829POPC   C3B20745   9.012   6.900   7.950
 5829POPC   C4B20746   9.015   6.869   7.650
 5830POPC   NC320747  38.474  22.140   9.450
 5830POPC   PO420748  38.473  22.147   9.150
 5830POPC   GL120749  38.450  22.138   8.850
 5830POPC   GL220750  38.302  22.160   8.850
 5830POPC   C1A20751  38.475  22.180   8.550
 5830POPC   D2A20752  38.425  22.192   8.250
 5830POPC   C3A20753  38.418  22.126   7.950
 5830POPC   C4A20754  38.453  22.141   7.650
 5830POPC   C1B20755  38.200  22.081   8.550
 5830POPC   C2B20756  38.177  22.075   8.250
 5830POPC   C3B20757  38.172  22.118   7.950
 5830POPC   C4B20758  38.185  22.075   7.650
 5831POPC   NC320759  10.479  14.413   9.450
 5831POPC   PO420760  10.481  14.410   9.150
 5831POPC   GL120761  10.557  14.379   8.850
 5831POPC   GL220762  10.664  14.350   8.850
 5831POPC   C1A20763  10.525  14.375   8.550
 5831POPC   D2A20764  10.561  14.424   8.250
 5831POPC   C3A20765  10.563  14.429   7.950
 5831POPC   C4A20766  10.528  14.445   7.650
 5831POPC   C1B20767  10.748  14.399   8.550
 5831POPC   C2B20768  10.821  14.415   8.250
 5831POPC   C3B20769  10.762  14.358   7.950
 5831POPC   C4B20770  10.749  14.406   7.650
 5832POPC   NC320771   6.681  19.855   9.450
 5832POPC   PO420772   6.692  19.791   9.150
 5832POPC   GL120773   6.694  19.871   8.850
 5832POPC   GL220774   6.571  19.938   8.850
 5832POPC   C1A20775   6.671  19.785   8.550
 5832POPC   D2A20776   6.638  19.810   8.250
 5832POPC   C3A20777   6.614  19.853   7.950
 5832POPC   C4A20778   6.603  19.821   7.650
 5832POPC   C1B20779   6.612  20.075   8.550
 5832POPC   C2B20780   6.612  20.041   8.250
 5832POPC   C3B20781   6.541  20.111   7.950
 5832POPC   C4B20782   6.584  20.048   7.650
 5833POPC   NC320783  43.927  26.056   9.450
 5833POPC   PO420784  43.875  26.007   9.150
 5833POPC   GL120785  43.890  26.039   8.850
 5833POPC   GL220786  43.788  26.130   8.850
 5833POPC   C1A20787  43.903  26.077   8.550
 5833POPC   D2A20788  43.853  25.998   8.250
 5833POPC   C3A20789  43.897  26.068   7.950
 5833POPC   C4A20790  43.918  26.041   7.650
 5833POPC   C1B20791  43.755  26.221   8.550
 5833POPC   C2B20792  43.688  26.249   8.250
 5833POPC   C3B20793  43.761  26.226   7.950
 5833POPC   C4B20794  43.702  26.283   7.650
 5834POPC   NC320795  31.453  24.504   9.450
 5834POPC   PO420796  31.462  24.453   9.150
 5834POPC   GL120797  31.484  24.460   8.850
 5834POPC   GL220798  31.378  24.399   8.850
 5834POPC   C1A20799  31.472  24.520   8.550
 5834POPC   D2A20800  31.494  24.467   8.250
 5834POPC   C3A20801  31.468  24.478   7.950
 5834POPC   C4A20802  31.505  24.504   7.650
 5834POPC   C1B20803  31.288  24.280   8.550
 5834POPC   C2B20804  31.363  24.248   8.250
 5834POPC   C3B20805  31.286  24.316   7.950
 5834POPC   C4B20806  31.328  24.268   7.650
 5835POPC   NC320807  24.465  29.970   9.450
 5835POPC   PO420808  24.532  29.917   9.150
 5835POPC   GL120809  24.460  29.912   8.850
 5835POPC   GL220810  24.642  29.930   8.850
 5835POPC   C1A20811  24.495  29.964   8.550
 5835POPC   D2A20812  24.504  29.949   8.250
 5835POPC   C3A20813  24.477  29.887   7.950
 5835POPC   C4A20814  24.456  29.931   7.650
 5835POPC   C1B20815  24.766  30.054   8.550
 5835POPC   C2B20816  24.749  29.985   8.250
 5835POPC   C3B20817  24.724  30.037   7.950
 5835POPC   C4B20818  24.751  30.021   7.650
 5836POPC   NC320819  19.059  34.589   9.450
 5836POPC   PO420820  19.089  34.616   9.150
 5836POPC   GL120821  19.081  34.558   8.850
 5836POPC   GL220822  19.039  34.695   8.850
 5836POPC   C1A20823  19.017  34.622   8.550
 5836POPC   D2A20824  19.066  34.589   8.250
 5836POPC   C3A20825  19.079  34.569   7.950
 5836POPC   C4A20826  19.037  34.595   7.650
 5836POPC   C1B20827  18.933  34.778   8.550
 5836POPC   C2B20828  18.966  34.783   8.250
 5836POPC   C3B20829  19.003  34.809   7.950
 5836POPC   C4B20830  19.014  34.795   7.650
 5837POPC   NC320831  40.755   5.909   9.450
 5837POPC   PO420832  40.774   5.907   9.150
 5837POPC   GL120833  40.756   5.887   8.850
 5837POPC   GL220834  40.917   5.963   8.850
 5837POPC   C1A20835  40.775   5.904   8.550
 5837POPC   D2A20836  40.789   5.910   8.250
 5837POPC   C3A20837  40.800   5.890   7.950
 5837POPC   C4A20838  40.808   5.867   7.650
 5837POPC   C1B20839  40.986   6.009   8.550
 5837POPC   C2B20840  40.991   5.972   8.250
 5837POPC   C3B20841  40.964   5.982   7.950
 5837POPC   C4B20842  41.009   5.936   7.650
 5838POPC   NC320843  44.630  12.124   9.450
 5838POPC   PO420844  44.711  12.083   9.150
 5838POPC   GL120845  44.661  12.122   8.850
 5838POPC   GL220846  44.523  12.168   8.850
 5838POPC   C1A20847  44.681  12.119   8.550
 5838POPC   D2A20848  44.632  12.067   8.250
 5838POPC   C3A20849  44.618  12.101   7.950
 5838POPC   C4A20850  44.680  12.059   7.650
 5838POPC   C1B20851  44.484  12.183   8.550
 5838POPC   C2B20852  44.479  12.178   8.250
 5838POPC   C3B20853  44.437  12.251   7.950
 5838POPC   C4B20854  44.416  12.243   7.650
 5839POPC   NC320855  22.197   2.798   9.450
 5839POPC   PO420856  22.113   2.809   9.150
 5839POPC   GL120857  22.134   2.788   8.850
 5839POPC   GL220858  22.068   2.682   8.850
 5839POPC   C1A20859  22.145   2.810   8.550
 5839POPC   D2A20860  22.119   2.781   8.250
 5839POPC   C3A20861  22.168   2.738   7.950
 5839POPC   C4A20862  22.142   2.778   7.650
 5839POPC   C1B20863  22.065   2.552   8.550
 5839POPC   C2B20864  22.097   2.559   8.250
 5839POPC   C3B20865  22.095   2.546   7.950
 5839POPC   C4B20866  22.006   2.520   7.650
 5840POPC   NC320867  23.729  39.268   9.450
 5840POPC   PO420868  23.747  39.216   9.150
 5840POPC   GL120869  23.738  39.244   8.850
 5840POPC   GL220870  23.722  39.337   8.850
 5840POPC   C1A20871  23.737  39.271   8.550
 5840POPC   D2A20872  23.754  39.181   8.250
 5840POPC   C3A20873  23.744  39.210   7.950
 5840POPC   C4A20874  23.678  39.267   7.650
 5840POPC   C1B20875  23.657  39.507   8.550
 5840POPC   C2B20876  23.631  39.452   8.250
 5840POPC   C3B20877  23.655  39.471   7.950
 5840POPC   C4B20878  23.628  39.466   7.650
 5841POPC   NC320879  18.270   2.771   9.450
 5841POPC   PO420880  18.304   2.725   9.150
 5841POPC   GL120881  18.289   2.726   8.850
 5841POPC   GL220882  18.217   2.890   8.850
 5841POPC   C1A20883  18.330   2.799   8.550
 5841POPC   D2A20884  18.246   2.718   8.250
 5841POPC   C3A20885  18.306   2.776   7.950
 5841POPC   C4A20886  18.273   2.737   7.650
 5841POPC   C1B20887  18.203   2.996   8.550
 5841POPC   C2B20888  18.227   2.963   8.250
 5841POPC   C3B20889  18.234   3.050   7.950
 5841POPC   C4B20890  18.288   3.050   7.650
 5842POPC   NC320891   2.037  28.360   9.450
 5842POPC   PO420892   1.972  28.351   9.150
 5842POPC   GL120893   1.997  28.418   8.850
 5842POPC   GL220894   2.029  28.454   8.850
 5842POPC   C1A20895   1.944  28.407   8.550
 5842POPC   D2A20896   1.950  28.336   8.250
 5842POPC   C3A20897   2.017  28.345   7.950
 5842POPC   C4A20898   1.995  28.374   7.650
 5842POPC   C1B20899   2.071  28.577   8.550
 5842POPC   C2B20900   2.014  28.656   8.250
 5842POPC   C3B20901   2.047  28.589   7.950
 5842POPC   C4B20902   2.052  28.609   7.650
 5843POPC   NC320903  15.980   2.760   9.450
 5843POPC   PO420904  15.993   2.772   9.150
 5843POPC   GL120905  15.990   2.756   8.850
 5843POPC   GL220906  15.923   2.617   8.850
 5843POPC   C1A20907  15.936   2.800   8.550
 5843POPC   D2A20908  16.004   2.784   8.250
 5843POPC   C3A20909  15.920   2.735   7.950
 5843POPC   C4A20910  15.955   2.766   7.650
 5843POPC   C1B20911  16.018   2.496   8.550
 5843POPC   C2B20912  15.942   2.483   8.250
 5843POPC   C3B20913  16.027   2.545   7.950
 5843POPC   C4B20914  15.998   2.547   7.650
 5844POPC   NC320915  27.634  12.803   9.450
 5844POPC   PO420916  27.582  12.865   9.150
 5844POPC   GL120917  27.599  12.809   8.850
 5844POPC   GL220918  27.679  12.794   8.850
 5844POPC   C1A20919  27.624  12.829   8.550
 5844POPC   D2A20920  27.564  12.835   8.250
 5844POPC   C3A20921  27.587  12.863   7.950
 5844POPC   C4A20922  27.546  12.821   7.650
 5844POPC   C1B20923  27.797  12.780   8.550
 5844POPC   C2B20924  27.811  12.791   8.250
 5844POPC   C3B20925  27.868  12.742   7.950
 5844POPC   C4B20926  27.845  12.732   7.650
 5845POPC   NC320927  25.237   2.012   9.450
 5845POPC   PO420928  25.217   1.974   9.150
 5845POPC   GL120929  25.249   1.951   8.850
 5845POPC   GL220930  25.321   2.065   8.850
 5845POPC   C1A20931  25.278   2.022   8.550
 5845POPC   D2A20932  25.218   2.028   8.250
 5845POPC   C3A20933  25.217   1.942   7.950
 5845POPC   C4A20934  25.284   1.946   7.650
 5845POPC   C1B20935  25.284   2.262   8.550
 5845POPC   C2B20936  25.281   2.250   8.250
 5845POPC   C3B20937  25.334   2.254   7.950
 5845POPC   C4B20938  25.315   2.264   7.650
 5846POPC   NC320939  12.898  34.576   9.450
 5846POPC   PO420940  12.819  34.582   9.150
 5846POPC   GL120941  12.819  34.620   8.850
 5846POPC   GL220942  12.918  34.449   8.850
 5846POPC   C1A20943  12.824  34.551   8.550
 5846POPC   D2A20944  12.874  34.541   8.250
 5846POPC   C3A20945  12.824  34.625   7.950
 5846POPC   C4A20946  12.858  34.581   7.650
 5846POPC   C1B20947  12.895  34.367   8.550
 5846POPC   C2B20948  12.929  34.369   8.250
 5846POPC   C3B20949  12.929  34.358   7.950
 5846POPC   C4B20950  12.933  34.286   7.650
 5847POPC   NC320951   5.090  33.024   9.450
 5847POPC   PO420952   5.058  33.019   9.150
 5847POPC   GL120953   5.048  33.064   8.850
 5847POPC   GL220954   5.073  32.863   8.850
 5847POPC   C1A20955   5.054  33.055   8.550
 5847POPC   D2A20956   5.134  33.062   8.250
 5847POPC   C3A20957   5.071  33.069   7.950
 5847POPC   C4A20958   5.054  33.023   7.650
 5847POPC   C1B20959   4.980  32.744   8.550
 5847POPC   C2B20960   5.026  32.830   8.250
 5847POPC   C3B20961   4.978  32.752   7.950
 5847POPC   C4B20962   5.002  32.810   7.650
 5848POPC   NC320963  36.949  31.473   9.450
 5848POPC   PO420964  36.862  31.493   9.150
 5848POPC   GL120965  36.874  31.472   8.850
 5848POPC   GL220966  37.059  31.483   8.850
 5848POPC   C1A20967  36.880  31.447   8.550
 5848POPC   D2A20968  36.946  31.444   8.250
 5848POPC   C3A20969  36.937  31.446   7.950
 5848POPC   C4A20970  36.943  31.471   7.650
 5848POPC   C1B20971  37.121  31.605   8.550
 5848POPC   C2B20972  37.164  31.604   8.250
 5848POPC   C3B20973  37.171  31.596   7.950
 5848POPC   C4B20974  37.161  31.550   7.650
 5849POPC   NC320975  20.647  32.998   9.450
 5849POPC   PO420976  20.608  33.043   9.150
 5849POPC   GL120977  20.618  33.027   8.850
 5849POPC   GL220978  20.616  32.901   8.850
 5849POPC   C1A20979  20.625  33.058   8.550
 5849POPC   D2A20980  20.567  33.074   8.250
 5849POPC   C3A20981  20.657  33.008   7.950
 5849POPC   C4A20982  20.620  33.011   7.650
 5849POPC   C1B20983  20.519  32.793   8.550
 5849POPC   C2B20984  20.496  32.835   8.250
 5849POPC   C3B20985  20.512  32.812   7.950
 5849POPC   C4B20986  20.505  32.806   7.650
 5850POPC   NC320987  30.697  40.770   9.450
 5850POPC   PO420988  30.740  40.765   9.150
 5850POPC   GL120989  30.697  40.756   8.850
 5850POPC   GL220990  30.601  40.716   8.850
 5850POPC   C1A20991  30.730  40.831   8.550
 5850POPC   D2A20992  30.720  40.741   8.250
 5850POPC   C3A20993  30.711  40.747   7.950
 5850POPC   C4A20994  30.650  40.745   7.650
 5850POPC   C1B20995  30.515  40.688   8.550
 5850POPC   C2B20996  30.479  40.625   8.250
 5850POPC   C3B20997  30.520  40.657   7.950
 5850POPC   C4B20998  30.464  40.643   7.650
 5851POPC   NC320999   7.427  30.670   9.450
 5851POPC   PO421000   7.418  30.715   9.150
 5851POPC   GL121001   7.441  30.655   8.850
 5851POPC   GL221002   7.526  30.719   8.850
 5851POPC   C1A21003   7.451  30.657   8.550
 5851POPC   D2A21004   7.400  30.730   8.250
 5851POPC   C3A21005   7.416  30.663   7.950
 5851POPC   C4A21006   7.403  30.684   7.650
 5851POPC   C1B21007   7.676  30.794   8.550
 5851POPC   C2B21008   7.642  30.852   8.250
 5851POPC   C3B21009   7.640  30.807   7.950
 5851POPC   C4B21010   7.672  30.866   7.650
 5852POPC   NC321011   5.900   8.974   9.450
 5852POPC   PO421012   5.915   8.942   9.150
 5852POPC   GL121013   5.889   8.941   8.850
 5852POPC   GL221014   6.025   8.930   8.850
 5852POPC   C1A21015   5.820   8.950   8.550
 5852POPC   D2A21016   5.914   8.956   8.250
 5852POPC   C3A21017   5.872   9.022   7.950
 5852POPC   C4A21018   5.892   9.016   7.650
 5852POPC   C1B21019   6.096   8.847   8.550
 5852POPC   C2B21020   6.105   8.840   8.250
 5852POPC   C3B21021   6.057   8.861   7.950
 5852POPC   C4B21022   6.081   8.865   7.650
 5853POPC   NC321023  12.067  42.337   9.450
 5853POPC   PO421024  12.120  42.378   9.150
 5853POPC   GL121025  12.035  42.303   8.850
 5853POPC   GL221026  12.137  42.442   8.850
 5853POPC   C1A21027  12.121  42.364   8.550
 5853POPC   D2A21028  12.030  42.297   8.250
 5853POPC   C3A21029  12.092  42.370   7.950
 5853POPC   C4A21030  12.047  42.297   7.650
 5853POPC   C1B21031  12.160  42.562   8.550
 5853POPC   C2B21032  12.155  42.528   8.250
 5853POPC   C3B21033  12.201  42.616   7.950
 5853POPC   C4B21034  12.200  42.543   7.650
 5854POPC   NC321035  27.587   4.354   9.450
 5854POPC   PO421036  27.563   4.363   9.150
 5854POPC   GL121037  27.641   4.273   8.850
 5854POPC   GL221038  27.539   4.174   8.850
 5854POPC   C1A21039  27.563   4.303   8.550
 5854POPC   D2A21040  27.643   4.282   8.250
 5854POPC   C3A21041  27.616   4.271   7.950
 5854POPC   C4A21042  27.578   4.298   7.650
 5854POPC   C1B21043  27.558   4.073   8.550
 5854POPC   C2B21044  27.484   4.076   8.250
 5854POPC   C3B21045  27.495   4.041   7.950
 5854POPC   C4B21046  27.481   4.104   7.650
 5855POPC   NC321047   1.961  10.556   9.450
 5855POPC   PO421048   1.990  10.527   9.150
 5855POPC   GL121049   1.983  10.524   8.850
 5855POPC   GL221050   1.949  10.407   8.850
 5855POPC   C1A21051   1.981  10.481   8.550
 5855POPC   D2A21052   2.027  10.565   8.250
 5855POPC   C3A21053   1.977  10.524   7.950
 5855POPC   C4A21054   1.942  10.527   7.650
 5855POPC   C1B21055   1.918  10.295   8.550
 5855POPC   C2B21056   1.918  10.324   8.250
 5855POPC   C3B21057   1.978  10.309   7.950
 5855POPC   C4B21058   1.972  10.227   7.650
 5856POPC   NC321059  23.673  35.380   9.450
 5856POPC   PO421060  23.704  35.310   9.150
 5856POPC   GL121061  23.710  35.374   8.850
 5856POPC   GL221062  23.586  35.404   8.850
 5856POPC   C1A21063  23.719  35.386   8.550
 5856POPC   D2A21064  23.730  35.339   8.250
 5856POPC   C3A21065  23.751  35.375   7.950
 5856POPC   C4A21066  23.696  35.305   7.650
 5856POPC   C1B21067  23.509  35.501   8.550
 5856POPC   C2B21068  23.441  35.503   8.250
 5856POPC   C3B21069  23.453  35.486   7.950
 5856POPC   C4B21070  23.457  35.466   7.650
 5857POPC   NC321071  28.378   5.858   9.450
 5857POPC   PO421072  28.402   5.899   9.150
 5857POPC   GL121073  28.343   5.820   8.850
 5857POPC   GL221074  28.305   6.011   8.850
 5857POPC   C1A21075  28.401   5.847   8.550
 5857POPC   D2A21076  28.401   5.820   8.250
 5857POPC   C3A21077  28.350   5.914   7.950
 5857POPC   C4A21078  28.404   5.898   7.650
 5857POPC   C1B21079  28.200   6.111   8.550
 5857POPC   C2B21080  28.254   6.038   8.250
 5857POPC   C3B21081  28.296   6.072   7.950
 5857POPC   C4B21082  28.203   6.118   7.650
 5858POPC   NC321083  31.513   1.192   9.450
 5858POPC   PO421084  31.511   1.209   9.150
 5858POPC   GL121085  31.457   1.186   8.850
 5858POPC   GL221086  31.592   1.263   8.850
 5858POPC   C1A21087  31.468   1.218   8.550
 5858POPC   D2A21088  31.460   1.244   8.250
 5858POPC   C3A21089  31.491   1.251   7.950
 5858POPC   C4A21090  31.496   1.195   7.650
 5858POPC   C1B21091  31.727   1.366   8.550
 5858POPC   C2B21092  31.652   1.366   8.250
 5858POPC   C3B21093  31.727   1.347   7.950
 5858POPC   C4B21094  31.721   1.329   7.650
 5859POPC   NC321095   0.428  17.506   9.450
 5859POPC   PO421096   0.392  17.525   9.150
 5859POPC   GL121097   0.436  17.468   8.850
 5859POPC   GL221098   0.407  17.399   8.850
 5859POPC   C1A21099   0.443  17.497   8.550
 5859POPC   D2A21100   0.434  17.536   8.250
 5859POPC   C3A21101   0.426  17.527   7.950
 5859POPC   C4A21102   0.394  17.512   7.650
 5859POPC   C1B21103   0.330  17.335   8.550
 5859POPC   C2B21104   0.274  17.276   8.250
 5859POPC   C3B21105   0.248  17.326   7.950
 5859POPC   C4B21106   0.251  17.277   7.650
 5860POPC   NC321107  26.799   6.667   9.450
 5860POPC   PO421108  26.787   6.687   9.150
 5860POPC   GL121109  26.847   6.678   8.850
 5860POPC   GL221110  26.704   6.623   8.850
 5860POPC   C1A21111  26.847   6.651   8.550
 5860POPC   D2A21112  26.866   6.641   8.250
 5860POPC   C3A21113  26.831   6.660   7.950
 5860POPC   C4A21114  26.788   6.611   7.650
 5860POPC   C1B21115  26.604   6.516   8.550
 5860POPC   C2B21116  26.639   6.472   8.250
 5860POPC   C3B21117  26.647   6.533   7.950
 5860POPC   C4B21118  26.602   6.536   7.650
 5861POPC   NC321119   7.379   8.957   9.450
 5861POPC   PO421120   7.434   8.994   9.150
 5861POPC   GL121121   7.450   8.978   8.850
 5861POPC   GL221122   7.327   9.091   8.850
 5861POPC   C1A21123   7.467   8.985   8.550
 5861POPC   D2A21124   7.470   8.934   8.250
 5861POPC   C3A21125   7.444   8.946   7.950
 5861POPC   C4A21126   7.463   8.967   7.650
 5861POPC   C1B21127   7.243   9.220   8.550
 5861POPC   C2B21128   7.281   9.188   8.250
 5861POPC   C3B21129   7.260   9.203   7.950
 5861POPC   C4B21130   7.264   9.158   7.650
 5862POPC   NC321131   1.248  35.324   9.450
 5862POPC   PO421132   1.186  35.358   9.150
 5862POPC   GL121133   1.190  35.315   8.850
 5862POPC   GL221134   1.352  35.272   8.850
 5862POPC   C1A21135   1.264  35.318   8.550
 5862POPC   D2A21136   1.260  35.323   8.250
 5862POPC   C3A21137   1.248  35.390   7.950
 5862POPC   C4A21138   1.248  35.332   7.650
 5862POPC   C1B21139   1.428  35.170   8.550
 5862POPC   C2B21140   1.392  35.241   8.250
 5862POPC   C3B21141   1.400  35.183   7.950
 5862POPC   C4B21142   1.408  35.210   7.650
 5863POPC   NC321143  27.596  39.276   9.450
 5863POPC   PO421144  27.555  39.249   9.150
 5863POPC   GL121145  27.643  39.205   8.850
 5863POPC   GL221146  27.579  39.394   8.850
 5863POPC   C1A21147  27.550  39.231   8.550
 5863POPC   D2A21148  27.614  39.259   8.250
 5863POPC   C3A21149  27.546  39.183   7.950
 5863POPC   C4A21150  27.583  39.221   7.650
 5863POPC   C1B21151  27.704  39.488   8.550
 5863POPC   C2B21152  27.668  39.514   8.250
 5863POPC   C3B21153  27.644  39.432   7.950
 5863POPC   C4B21154  27.683  39.433   7.650
 5864POPC   NC321155  42.382  22.907   9.450
 5864POPC   PO421156  42.305  22.966   9.150
 5864POPC   GL121157  42.371  22.984   8.850
 5864POPC   GL221158  42.470  22.875   8.850
 5864POPC   C1A21159  42.294  22.963   8.550
 5864POPC   D2A21160  42.380  22.971   8.250
 5864POPC   C3A21161  42.382  22.959   7.950
 5864POPC   C4A21162  42.341  22.920   7.650
 5864POPC   C1B21163  42.480  22.796   8.550
 5864POPC   C2B21164  42.549  22.732   8.250
 5864POPC   C3B21165  42.488  22.727   7.950
 5864POPC   C4B21166  42.481  22.772   7.650
 5865POPC   NC321167  19.839   2.022   9.450
 5865POPC   PO421168  19.871   1.947   9.150
 5865POPC   GL121169  19.827   1.958   8.850
 5865POPC   GL221170  19.956   1.997   8.850
 5865POPC   C1A21171  19.792   1.940   8.550
 5865POPC   D2A21172  19.811   1.943   8.250
 5865POPC   C3A21173  19.867   2.005   7.950
 5865POPC   C4A21174  19.795   1.973   7.650
 5865POPC   C1B21175  20.051   2.028   8.550
 5865POPC   C2B21176  20.034   2.011   8.250
 5865POPC   C3B21177  20.047   2.036   7.950
 5865POPC   C4B21178  20.055   2.010   7.650
 5866POPC   NC321179   5.136  27.639   9.450
 5866POPC   PO421180   5.095  27.551   9.150
 5866POPC   GL121181   5.044  27.620   8.850
 5866POPC   GL221182   5.260  27.579   8.850
 5866POPC   C1A21183   5.113  27.620   8.550
 5866POPC   D2A21184   5.141  27.618   8.250
 5866POPC   C3A21185   5.066  27.552   7.950
 5866POPC   C4A21186   5.135  27.597   7.650
 5866POPC   C1B21187   5.332  27.524   8.550
 5866POPC   C2B21188   5.320  27.528   8.250
 5866POPC   C3B21189   5.390  27.517   7.950
 5866POPC   C4B21190   5.315  27.580   7.650
 5867POPC   NC321191  21.416  36.951   9.450
 5867POPC   PO421192  21.419  36.896   9.150
 5867POPC   GL121193  21.421  36.931   8.850
 5867POPC   GL221194  21.420  36.778   8.850
 5867POPC   C1A21195  21.390  36.933   8.550
 5867POPC   D2A21196  21.435  36.896   8.250
 5867POPC   C3A21197  21.356  36.939   7.950
 5867POPC   C4A21198  21.412  36.944   7.650
 5867POPC   C1B21199  21.358  36.654   8.550
 5867POPC   C2B21200  21.420  36.616   8.250
 5867POPC   C3B21201  21.425  36.619   7.950
 5867POPC   C4B21202  21.423  36.683   7.650
 5868POPC   NC321203   6.631   8.933   9.450
 5868POPC   PO421204   6.664   8.967   9.150
 5868POPC   GL121205   6.684   8.934   8.850
 5868POPC   GL221206   6.616   8.806   8.850
 5868POPC   C1A21207   6.605   9.000   8.550
 5868POPC   D2A21208   6.641   8.972   8.250
 5868POPC   C3A21209   6.647   8.939   7.950
 5868POPC   C4A21210   6.673   8.953   7.650
 5868POPC   C1B21211   6.659   8.698   8.550
 5868POPC   C2B21212   6.602   8.745   8.250
 5868POPC   C3B21213   6.629   8.746   7.950
 5868POPC   C4B21214   6.603   8.690   7.650
 5869POPC   NC321215  28.355  19.859   9.450
 5869POPC   PO421216  28.406  19.884   9.150
 5869POPC   GL121217  28.331  19.786   8.850
 5869POPC   GL221218  28.229  19.936   8.850
 5869POPC   C1A21219  28.390  19.835   8.550
 5869POPC   D2A21220  28.347  19.812   8.250
 5869POPC   C3A21221  28.368  19.859   7.950
 5869POPC   C4A21222  28.360  19.824   7.650
 5869POPC   C1B21223  28.131  19.958   8.550
 5869POPC   C2B21224  28.209  19.925   8.250
 5869POPC   C3B21225  28.178  20.006   7.950
 5869POPC   C4B21226  28.111  20.017   7.650
 5870POPC   NC321227   8.154  32.240   9.450
 5870POPC   PO421228   8.195  32.201   9.150
 5870POPC   GL121229   8.159  32.212   8.850
 5870POPC   GL221230   8.092  32.296   8.850
 5870POPC   C1A21231   8.160  32.202   8.550
 5870POPC   D2A21232   8.204  32.262   8.250
 5870POPC   C3A21233   8.227  32.271   7.950
 5870POPC   C4A21234   8.212  32.205   7.650
 5870POPC   C1B21235   7.939  32.380   8.550
 5870POPC   C2B21236   7.970  32.363   8.250
 5870POPC   C3B21237   8.027  32.345   7.950
 5870POPC   C4B21238   7.930  32.381   7.650
 5871POPC   NC321239  23.740  24.455   9.450
 5871POPC   PO421240  23.730  24.468   9.150
 5871POPC   GL121241  23.692  24.524   8.850
 5871POPC   GL221242  23.709  24.361   8.850
 5871POPC   C1A21243  23.713  24.473   8.550
 5871POPC   D2A21244  23.764  24.454   8.250
 5871POPC   C3A21245  23.694  24.447   7.950
 5871POPC   C4A21246  23.745  24.473   7.650
 5871POPC   C1B21247  23.654  24.261   8.550
 5871POPC   C2B21248  23.657  24.284   8.250
 5871POPC   C3B21249  23.627  24.235   7.950
 5871POPC   C4B21250  23.675  24.259   7.650
 5872POPC   NC321251  33.002  41.607   9.450
 5872POPC   PO421252  33.064  41.547   9.150
 5872POPC   GL121253  32.989  41.545   8.850
 5872POPC   GL221254  33.187  41.591   8.850
 5872POPC   C1A21255  33.020  41.549   8.550
 5872POPC   D2A21256  33.031  41.526   8.250
 5872POPC   C3A21257  33.026  41.565   7.950
 5872POPC   C4A21258  33.038  41.595   7.650
 5872POPC   C1B21259  33.317  41.575   8.550
 5872POPC   C2B21260  33.312  41.564   8.250
 5872POPC   C3B21261  33.226  41.607   7.950
 5872POPC   C4B21262  33.247  41.569   7.650
 5873POPC   NC321263   8.936  15.944   9.450
 5873POPC   PO421264   8.925  15.927   9.150
 5873POPC   GL121265   9.020  15.969   8.850
 5873POPC   GL221266   8.859  15.987   8.850
 5873POPC   C1A21267   8.991  15.994   8.550
 5873POPC   D2A21268   9.006  15.933   8.250
 5873POPC   C3A21269   8.957  15.976   7.950
 5873POPC   C4A21270   9.002  15.919   7.650
 5873POPC   C1B21271   8.753  15.908   8.550
 5873POPC   C2B21272   8.681  15.969   8.250
 5873POPC   C3B21273   8.745  15.935   7.950
 5873POPC   C4B21274   8.757  15.979   7.650
 5874POPC   NC321275   2.765  20.597   9.450
 5874POPC   PO421276   2.788  20.598   9.150
 5874POPC   GL121277   2.745  20.628   8.850
 5874POPC   GL221278   2.923  20.537   8.850
 5874POPC   C1A21279   2.763  20.651   8.550
 5874POPC   D2A21280   2.724  20.588   8.250
 5874POPC   C3A21281   2.795  20.575   7.950
 5874POPC   C4A21282   2.771  20.647   7.650
 5874POPC   C1B21283   2.964  20.566   8.550
 5874POPC   C2B21284   2.991  20.574   8.250
 5874POPC   C3B21285   3.016  20.515   7.950
 5874POPC   C4B21286   3.013  20.549   7.650
 5875POPC   NC321287  39.259  41.558   9.450
 5875POPC   PO421288  39.238  41.524   9.150
 5875POPC   GL121289  39.237  41.565   8.850
 5875POPC   GL221290  39.292  41.463   8.850
 5875POPC   C1A21291  39.215  41.567   8.550
 5875POPC   D2A21292  39.228  41.581   8.250
 5875POPC   C3A21293  39.255  41.522   7.950
 5875POPC   C4A21294  39.193  41.569   7.650
 5875POPC   C1B21295  39.366  41.390   8.550
 5875POPC   C2B21296  39.411  41.407   8.250
 5875POPC   C3B21297  39.406  41.411   7.950
 5875POPC   C4B21298  39.430  41.326   7.650
 5876POPC   NC321299   2.008   5.919   9.450
 5876POPC   PO421300   1.956   5.875   9.150
 5876POPC   GL121301   1.973   5.831   8.850
 5876POPC   GL221302   1.920   5.833   8.850
 5876POPC   C1A21303   1.941   5.824   8.550
 5876POPC   D2A21304   1.969   5.841   8.250
 5876POPC   C3A21305   2.031   5.861   7.950
 5876POPC   C4A21306   2.022   5.914   7.650
 5876POPC   C1B21307   1.765   5.765   8.550
 5876POPC   C2B21308   1.714   5.813   8.250
 5876POPC   C3B21309   1.767   5.797   7.950
 5876POPC   C4B21310   1.778   5.798   7.650
 5877POPC   NC321311  15.977  23.688   9.450
 5877POPC   PO421312  15.910  23.733   9.150
 5877POPC   GL121313  15.976  23.664   8.850
 5877POPC   GL221314  16.014  23.611   8.850
 5877POPC   C1A21315  15.974  23.725   8.550
 5877POPC   D2A21316  15.967  23.666   8.250
 5877POPC   C3A21317  15.914  23.760   7.950
 5877POPC   C4A21318  15.979  23.726   7.650
 5877POPC   C1B21319  16.149  23.532   8.550
 5877POPC   C2B21320  16.138  23.567   8.250
 5877POPC   C3B21321  16.179  23.590   7.950
 5877POPC   C4B21322  16.148  23.547   7.650
 5878POPC   NC321323  27.592  27.601   9.450
 5878POPC   PO421324  27.630  27.628   9.150
 5878POPC   GL121325  27.604  27.575   8.850
 5878POPC   GL221326  27.728  27.478   8.850
 5878POPC   C1A21327  27.552  27.601   8.550
 5878POPC   D2A21328  27.543  27.546   8.250
 5878POPC   C3A21329  27.579  27.621   7.950
 5878POPC   C4A21330  27.642  27.589   7.650
 5878POPC   C1B21331  27.821  27.458   8.550
 5878POPC   C2B21332  27.765  27.492   8.250
 5878POPC   C3B21333  27.831  27.497   7.950
 5878POPC   C4B21334  27.802  27.483   7.650
 5879POPC   NC321335  33.056  18.295   9.450
 5879POPC   PO421336  33.071  18.308   9.150
 5879POPC   GL121337  33.004  18.257   8.850
 5879POPC   GL221338  33.023  18.376   8.850
 5879POPC   C1A21339  32.997  18.256   8.550
 5879POPC   D2A21340  33.072  18.309   8.250
 5879POPC   C3A21341  33.009  18.296   7.950
 5879POPC   C4A21342  33.026  18.266   7.650
 5879POPC   C1B21343  32.940  18.535   8.550
 5879POPC   C2B21344  32.920  18.477   8.250
 5879POPC   C3B21345  32.972  18.479   7.950
 5879POPC   C4B21346  32.985  18.574   7.650
 5880POPC   NC321347  29.176  10.480   9.450
 5880POPC   PO421348  29.184  10.493   9.150
 5880POPC   GL121349  29.125  10.550   8.850
 5880POPC   GL221350  29.133  10.399   8.850
 5880POPC   C1A21351  29.193  10.552   8.550
 5880POPC   D2A21352  29.135  10.561   8.250
 5880POPC   C3A21353  29.175  10.571   7.950
 5880POPC   C4A21354  29.173  10.522   7.650
 5880POPC   C1B21355  29.074  10.257   8.550
 5880POPC   C2B21356  29.059  10.316   8.250
 5880POPC   C3B21357  29.061  10.256   7.950
 5880POPC   C4B21358  29.072  10.333   7.650
 5881POPC   NC321359   3.495  29.153   9.450
 5881POPC   PO421360   3.539  29.163   9.150
 5881POPC   GL121361   3.576  29.140   8.850
 5881POPC   GL221362   3.661  29.054   8.850
 5881POPC   C1A21363   3.572  29.177   8.550
 5881POPC   D2A21364   3.551  29.123   8.250
 5881POPC   C3A21365   3.515  29.132   7.950
 5881POPC   C4A21366   3.545  29.138   7.650
 5881POPC   C1B21367   3.730  28.953   8.550
 5881POPC   C2B21368   3.777  28.993   8.250
 5881POPC   C3B21369   3.772  29.008   7.950
 5881POPC   C4B21370   3.681  28.986   7.650
 5882POPC   NC321371  24.528  14.386   9.450
 5882POPC   PO421372  24.498  14.391   9.150
 5882POPC   GL121373  24.509  14.391   8.850
 5882POPC   GL221374  24.523  14.323   8.850
 5882POPC   C1A21375  24.462  14.417   8.550
 5882POPC   D2A21376  24.477  14.442   8.250
 5882POPC   C3A21377  24.472  14.426   7.950
 5882POPC   C4A21378  24.464  14.452   7.650
 5882POPC   C1B21379  24.505  14.152   8.550
 5882POPC   C2B21380  24.524  14.148   8.250
 5882POPC   C3B21381  24.498  14.138   7.950
 5882POPC   C4B21382  24.480  14.179   7.650
 5883POPC   NC321383  33.846  39.251   9.450
 5883POPC   PO421384  33.751  39.272   9.150
 5883POPC   GL121385  33.814  39.227   8.850
 5883POPC   GL221386  33.683  39.344   8.850
 5883POPC   C1A21387  33.832  39.239   8.550
 5883POPC   D2A21388  33.815  39.262   8.250
 5883POPC   C3A21389  33.783  39.250   7.950
 5883POPC   C4A21390  33.831  39.206   7.650
 5883POPC   C1B21391  33.627  39.334   8.550
 5883POPC   C2B21392  33.608  39.398   8.250
 5883POPC   C3B21393  33.598  39.329   7.950
 5883POPC   C4B21394  33.627  39.379   7.650
 5884POPC   NC321395  20.628  10.487   9.450
 5884POPC   PO421396  20.651  10.546   9.150
 5884POPC   GL121397  20.591  10.562   8.850
 5884POPC   GL221398  20.474  10.512   8.850
 5884POPC   C1A21399  20.602  10.513   8.550
 5884POPC   D2A21400  20.634  10.520   8.250
 5884POPC   C3A21401  20.591  10.531   7.950
 5884POPC   C4A21402  20.659  10.558   7.650
 5884POPC   C1B21403  20.426  10.407   8.550
 5884POPC   C2B21404  20.360  10.425   8.250
 5884POPC   C3B21405  20.338  10.449   7.950
 5884POPC   C4B21406  20.399  10.380   7.650
 5885POPC   NC321407  37.696  38.485   9.450
 5885POPC   PO421408  37.639  38.486   9.150
 5885POPC   GL121409  37.632  38.461   8.850
 5885POPC   GL221410  37.609  38.489   8.850
 5885POPC   C1A21411  37.637  38.429   8.550
 5885POPC   D2A21412  37.635  38.413   8.250
 5885POPC   C3A21413  37.642  38.442   7.950
 5885POPC   C4A21414  37.680  38.487   7.650
 5885POPC   C1B21415  37.424  38.534   8.550
 5885POPC   C2B21416  37.453  38.575   8.250
 5885POPC   C3B21417  37.442  38.512   7.950
 5885POPC   C4B21418  37.397  38.574   7.650
 5886POPC   NC321419  38.449  29.170   9.450
 5886POPC   PO421420  38.432  29.159   9.150
 5886POPC   GL121421  38.420  29.101   8.850
 5886POPC   GL221422  38.458  29.030   8.850
 5886POPC   C1A21423  38.472  29.140   8.550
 5886POPC   D2A21424  38.439  29.179   8.250
 5886POPC   C3A21425  38.430  29.102   7.950
 5886POPC   C4A21426  38.502  29.110   7.650
 5886POPC   C1B21427  38.429  28.861   8.550
 5886POPC   C2B21428  38.379  28.950   8.250
 5886POPC   C3B21429  38.438  28.903   7.950
 5886POPC   C4B21430  38.418  28.883   7.650
 5887POPC   NC321431  42.361  12.900   9.450
 5887POPC   PO421432  42.330  12.864   9.150
 5887POPC   GL121433  42.351  12.830   8.850
 5887POPC   GL221434  42.446  12.873   8.850
 5887POPC   C1A21435  42.356  12.857   8.550
 5887POPC   D2A21436  42.313  12.817   8.250
 5887POPC   C3A21437  42.320  12.825   7.950
 5887POPC   C4A21438  42.311  12.879   7.650
 5887POPC   C1B21439  42.520  13.032   8.550
 5887POPC   C2B21440  42.569  12.988   8.250
 5887POPC   C3B21441  42.545  12.993   7.950
 5887POPC   C4B21442  42.499  12.950   7.650
 5888POPC   NC321443  39.247  37.638   9.450
 5888POPC   PO421444  39.227  37.630   9.150
 5888POPC   GL121445  39.237  37.690   8.850
 5888POPC   GL221446  39.364  37.726   8.850
 5888POPC   C1A21447  39.193  37.664   8.550
 5888POPC   D2A21448  39.271  37.723   8.250
 5888POPC   C3A21449  39.273  37.715   7.950
 5888POPC   C4A21450  39.272  37.697   7.650
 5888POPC   C1B21451  39.454  37.712   8.550
 5888POPC   C2B21452  39.439  37.660   8.250
 5888POPC   C3B21453  39.496  37.743   7.950
 5888POPC   C4B21454  39.516  37.660   7.650
 5889POPC   NC321455   0.449  28.401   9.450
 5889POPC   PO421456   0.431  28.374   9.150
 5889POPC   GL121457   0.444  28.343   8.850
 5889POPC   GL221458   0.368  28.244   8.850
 5889POPC   C1A21459   0.447  28.368   8.550
 5889POPC   D2A21460   0.473  28.346   8.250
 5889POPC   C3A21461   0.478  28.349   7.950
 5889POPC   C4A21462   0.438  28.413   7.650
 5889POPC   C1B21463   0.240  28.215   8.550
 5889POPC   C2B21464   0.320  28.169   8.250
 5889POPC   C3B21465   0.245  28.129   7.950
 5889POPC   C4B21466   0.306  28.179   7.650
 5890POPC   NC321467  38.444  41.528   9.450
 5890POPC   PO421468  38.472  41.603   9.150
 5890POPC   GL121469  38.411  41.532   8.850
 5890POPC   GL221470  38.430  41.655   8.850
 5890POPC   C1A21471  38.449  41.543   8.550
 5890POPC   D2A21472  38.421  41.576   8.250
 5890POPC   C3A21473  38.501  41.576   7.950
 5890POPC   C4A21474  38.423  41.553   7.650
 5890POPC   C1B21475  38.496  41.805   8.550
 5890POPC   C2B21476  38.450  41.794   8.250
 5890POPC   C3B21477  38.448  41.779   7.950
 5890POPC   C4B21478  38.468  41.841   7.650
 5891POPC   NC321479  28.372  19.060   9.450
 5891POPC   PO421480  28.369  19.093   9.150
 5891POPC   GL121481  28.334  19.037   8.850
 5891POPC   GL221482  28.362  19.144   8.850
 5891POPC   C1A21483  28.412  19.084   8.550
 5891POPC   D2A21484  28.373  19.012   8.250
 5891POPC   C3A21485  28.336  19.100   7.950
 5891POPC   C4A21486  28.336  19.078   7.650
 5891POPC   C1B21487  28.334  19.258   8.550
 5891POPC   C2B21488  28.359  19.260   8.250
 5891POPC   C3B21489  28.329  19.285   7.950
 5891POPC   C4B21490  28.351  19.263   7.650
 5892POPC   NC321491  24.455   6.689   9.450
 5892POPC   PO421492  24.502   6.606   9.150
 5892POPC   GL121493  24.501   6.690   8.850
 5892POPC   GL221494  24.473   6.786   8.850
 5892POPC   C1A21495  24.465   6.621   8.550
 5892POPC   D2A21496  24.445   6.619   8.250
 5892POPC   C3A21497  24.469   6.670   7.950
 5892POPC   C4A21498  24.441   6.652   7.650
 5892POPC   C1B21499  24.399   6.872   8.550
 5892POPC   C2B21500  24.459   6.848   8.250
 5892POPC   C3B21501  24.439   6.913   7.950
 5892POPC   C4B21502  24.431   6.866   7.650
 5893POPC   NC321503  13.616  17.555   9.450
 5893POPC   PO421504  13.638  17.460   9.150
 5893POPC   GL121505  13.626  17.504   8.850
 5893POPC   GL221506  13.745  17.428   8.850
 5893POPC   C1A21507  13.666  17.530   8.550
 5893POPC   D2A21508  13.592  17.511   8.250
 5893POPC   C3A21509  13.677  17.500   7.950
 5893POPC   C4A21510  13.634  17.552   7.650
 5893POPC   C1B21511  13.910  17.408   8.550
 5893POPC   C2B21512  13.897  17.436   8.250
 5893POPC   C3B21513  13.855  17.495   7.950
 5893POPC   C4B21514  13.902  17.412   7.650
 5894POPC   NC321515  28.369  38.451   9.450
 5894POPC   PO421516  28.372  38.445   9.150
 5894POPC   GL121517  28.321  38.453   8.850
 5894POPC   GL221518  28.476  38.571   8.850
 5894POPC   C1A21519  28.410  38.453   8.550
 5894POPC   D2A21520  28.346  38.492   8.250
 5894POPC   C3A21521  28.332  38.495   7.950
 5894POPC   C4A21522  28.338  38.417   7.650
 5894POPC   C1B21523  28.473  38.675   8.550
 5894POPC   C2B21524  28.531  38.684   8.250
 5894POPC   C3B21525  28.517  38.626   7.950
 5894POPC   C4B21526  28.486  38.695   7.650
 5895POPC   NC321527  19.017  33.002   9.450
 5895POPC   PO421528  19.016  33.039   9.150
 5895POPC   GL121529  19.076  33.050   8.850
 5895POPC   GL221530  19.013  32.909   8.850
 5895POPC   C1A21531  19.052  32.990   8.550
 5895POPC   D2A21532  19.028  33.044   8.250
 5895POPC   C3A21533  19.030  33.004   7.950
 5895POPC   C4A21534  19.080  33.046   7.650
 5895POPC   C1B21535  18.974  32.831   8.550
 5895POPC   C2B21536  18.954  32.837   8.250
 5895POPC   C3B21537  18.922  32.812   7.950
 5895POPC   C4B21538  18.963  32.841   7.650
 5896POPC   NC321539  38.433   1.986   9.450
 5896POPC   PO421540  38.414   1.974   9.150
 5896POPC   GL121541  38.408   1.944   8.850
 5896POPC   GL221542  38.581   1.968   8.850
 5896POPC   C1A21543  38.443   1.944   8.550
 5896POPC   D2A21544  38.477   1.976   8.250
 5896POPC   C3A21545  38.474   1.954   7.950
 5896POPC   C4A21546  38.412   2.002   7.650
 5896POPC   C1B21547  38.734   1.902   8.550
 5896POPC   C2B21548  38.697   1.930   8.250
 5896POPC   C3B21549  38.731   1.908   7.950
 5896POPC   C4B21550  38.738   1.910   7.650
 5897POPC   NC321551  26.814  29.174   9.450
 5897POPC   PO421552  26.850  29.147   9.150
 5897POPC   GL121553  26.814  29.153   8.850
 5897POPC   GL221554  26.722  29.207   8.850
 5897POPC   C1A21555  26.804  29.160   8.550
 5897POPC   D2A21556  26.851  29.146   8.250
 5897POPC   C3A21557  26.784  29.165   7.950
 5897POPC   C4A21558  26.835  29.141   7.650
 5897POPC   C1B21559  26.605  29.297   8.550
 5897POPC   C2B21560  26.574  29.278   8.250
 5897POPC   C3B21561  26.613  29.305   7.950
 5897POPC   C4B21562  26.576  29.262   7.650
 5898POPC   NC321563  13.595  43.932   9.450
 5898POPC   PO421564  13.583  43.891   9.150
 5898POPC   GL121565  13.664  43.863   8.850
 5898POPC   GL221566  13.588  43.772   8.850
 5898POPC   C1A21567  13.609  43.925   8.550
 5898POPC   D2A21568  13.596  43.865   8.250
 5898POPC   C3A21569  13.675  43.921   7.950
 5898POPC   C4A21570  13.638  43.928   7.650
 5898POPC   C1B21571  13.517  43.641   8.550
 5898POPC   C2B21572  13.571  43.608   8.250
 5898POPC   C3B21573  13.565  43.616   7.950
 5898POPC   C4B21574  13.565  43.628   7.650
 5899POPC   NC321575  19.821  33.766   9.450
 5899POPC   PO421576  19.864  33.781   9.150
 5899POPC   GL121577  19.799  33.793   8.850
 5899POPC   GL221578  19.880  33.932   8.850
 5899POPC   C1A21579  19.829  33.835   8.550
 5899POPC   D2A21580  19.812  33.849   8.250
 5899POPC   C3A21581  19.846  33.812   7.950
 5899POPC   C4A21582  19.875  33.804   7.650
 5899POPC   C1B21583  19.880  34.072   8.550
 5899POPC   C2B21584  19.904  34.074   8.250
 5899POPC   C3B21585  19.928  33.984   7.950
 5899POPC   C4B21586  19.939  33.996   7.650
 5900POPC   NC321587  18.290   8.955   9.450
 5900POPC   PO421588  18.235   8.932   9.150
 5900POPC   GL121589  18.301   8.985   8.850
 5900POPC   GL221590  18.307   9.088   8.850
 5900POPC   C1A21591  18.326   9.000   8.550
 5900POPC   D2A21592  18.272   8.936   8.250
 5900POPC   C3A21593  18.265   9.011   7.950
 5900POPC   C4A21594  18.331   8.995   7.650
 5900POPC   C1B21595  18.324   9.265   8.550
 5900POPC   C2B21596  18.333   9.241   8.250
 5900POPC   C3B21597  18.276   9.199   7.950
 5900POPC   C4B21598  18.303   9.217   7.650
 5901POPC   NC321599  25.233   6.632   9.450
 5901POPC   PO421600  25.306   6.686   9.150
 5901POPC   GL121601  25.242   6.645   8.850
 5901POPC   GL221602  25.375   6.669   8.850
 5901POPC   C1A21603  25.245   6.678   8.550
 5901POPC   D2A21604  25.278   6.633   8.250
 5901POPC   C3A21605  25.255   6.683   7.950
 5901POPC   C4A21606  25.277   6.653   7.650
 5901POPC   C1B21607  25.526   6.619   8.550
 5901POPC   C2B21608  25.476   6.601   8.250
 5901POPC   C3B21609  25.555   6.585   7.950
 5901POPC   C4B21610  25.523   6.655   7.650
 5902POPC   NC321611  19.018  35.321   9.450
 5902POPC   PO421612  19.058  35.359   9.150
 5902POPC   GL121613  19.094  35.394   8.850
 5902POPC   GL221614  19.217  35.310   8.850
 5902POPC   C1A21615  19.063  35.346   8.550
 5902POPC   D2A21616  19.039  35.372   8.250
 5902POPC   C3A21617  19.051  35.332   7.950
 5902POPC   C4A21618  19.019  35.327   7.650
 5902POPC   C1B21619  19.277  35.346   8.550
 5902POPC   C2B21620  19.331  35.352   8.250
 5902POPC   C3B21621  19.336  35.381   7.950
 5902POPC   C4B21622  19.297  35.380   7.650
 5903POPC   NC321623   5.078  32.211   9.450
 5903POPC   PO421624   5.056  32.265   9.150
 5903POPC   GL121625   5.045  32.216   8.850
 5903POPC   GL221626   5.261  32.268   8.850
 5903POPC   C1A21627   5.114  32.253   8.550
 5903POPC   D2A21628   5.091  32.296   8.250
 5903POPC   C3A21629   5.087  32.252   7.950
 5903POPC   C4A21630   5.064  32.248   7.650
 5903POPC   C1B21631   5.304  32.218   8.550
 5903POPC   C2B21632   5.309  32.161   8.250
 5903POPC   C3B21633   5.333  32.220   7.950
 5903POPC   C4B21634   5.330  32.194   7.650
 5904POPC   NC321635  43.887  16.718   9.450
 5904POPC   PO421636  43.936  16.697   9.150
 5904POPC   GL121637  43.841  16.717   8.850
 5904POPC   GL221638  43.921  16.648   8.850
 5904POPC   C1A21639  43.887  16.708   8.550
 5904POPC   D2A21640  43.911  16.763   8.250
 5904POPC   C3A21641  43.896  16.695   7.950
 5904POPC   C4A21642  43.927  16.690   7.650
 5904POPC   C1B21643  44.008  16.556   8.550
 5904POPC   C2B21644  44.039  16.571   8.250
 5904POPC   C3B21645  44.032  16.514   7.950
 5904POPC   C4B21646  44.083  16.522   7.650
 5905POPC   NC321647  43.876  32.289   9.450
 5905POPC   PO421648  43.869  32.249   9.150
 5905POPC   GL121649  43.884  32.245   8.850
 5905POPC   GL221650  43.830  32.376   8.850
 5905POPC   C1A21651  43.907  32.211   8.550
 5905POPC   D2A21652  43.926  32.202   8.250
 5905POPC   C3A21653  43.910  32.249   7.950
 5905POPC   C4A21654  43.846  32.199   7.650
 5905POPC   C1B21655  43.747  32.403   8.550
 5905POPC   C2B21656  43.719  32.490   8.250
 5905POPC   C3B21657  43.711  32.397   7.950
 5905POPC   C4B21658  43.702  32.405   7.650
 5906POPC   NC321659  40.033  25.299   9.450
 5906POPC   PO421660  40.054  25.297   9.150
 5906POPC   GL121661  39.989  25.293   8.850
 5906POPC   GL221662  39.899  25.157   8.850
 5906POPC   C1A21663  40.017  25.300   8.550
 5906POPC   D2A21664  40.027  25.252   8.250
 5906POPC   C3A21665  39.990  25.228   7.950
 5906POPC   C4A21666  40.049  25.258   7.650
 5906POPC   C1B21667  39.833  25.170   8.550
 5906POPC   C2B21668  39.828  25.097   8.250
 5906POPC   C3B21669  39.831  25.101   7.950
 5906POPC   C4B21670  39.832  25.095   7.650
 5907POPC   NC321671  40.791  32.265   9.450
 5907POPC   PO421672  40.798  32.214   9.150
 5907POPC   GL121673  40.773  32.223   8.850
 5907POPC   GL221674  40.791  32.121   8.850
 5907POPC   C1A21675  40.806  32.293   8.550
 5907POPC   D2A21676  40.787  32.253   8.250
 5907POPC   C3A21677  40.807  32.266   7.950
 5907POPC   C4A21678  40.770  32.218   7.650
 5907POPC   C1B21679  40.822  31.978   8.550
 5907POPC   C2B21680  40.858  32.056   8.250
 5907POPC   C3B21681  40.822  32.034   7.950
 5907POPC   C4B21682  40.896  32.051   7.650
 5908POPC   NC321683  19.812  38.460   9.450
 5908POPC   PO421684  19.850  38.485   9.150
 5908POPC   GL121685  19.820  38.422   8.850
 5908POPC   GL221686  19.688  38.384   8.850
 5908POPC   C1A21687  19.844  38.487   8.550
 5908POPC   D2A21688  19.846  38.492   8.250
 5908POPC   C3A21689  19.838  38.473   7.950
 5908POPC   C4A21690  19.858  38.440   7.650
 5908POPC   C1B21691  19.602  38.351   8.550
 5908POPC   C2B21692  19.610  38.329   8.250
 5908POPC   C3B21693  19.576  38.395   7.950
 5908POPC   C4B21694  19.632  38.405   7.650
 5909POPC   NC321695  40.752  16.771   9.450
 5909POPC   PO421696  40.795  16.751   9.150
 5909POPC   GL121697  40.768  16.732   8.850
 5909POPC   GL221698  40.755  16.579   8.850
 5909POPC   C1A21699  40.744  16.712   8.550
 5909POPC   D2A21700  40.793  16.743   8.250
 5909POPC   C3A21701  40.753  16.727   7.950
 5909POPC   C4A21702  40.790  16.740   7.650
 5909POPC   C1B21703  40.684  16.532   8.550
 5909POPC   C2B21704  40.600  16.498   8.250
 5909POPC   C3B21705  40.672  16.507   7.950
 5909POPC   C4B21706  40.602  16.494   7.650
 5910POPC   NC321707   0.427  34.574   9.450
 5910POPC   PO421708   0.464  34.553   9.150
 5910POPC   GL121709   0.419  34.569   8.850
 5910POPC   GL221710   0.477  34.494   8.850
 5910POPC   C1A21711   0.483  34.570   8.550
 5910POPC   D2A21712   0.487  34.544   8.250
 5910POPC   C3A21713   0.400  34.619   7.950
 5910POPC   C4A21714   0.478  34.535   7.650
 5910POPC   C1B21715   0.530  34.299   8.550
 5910POPC   C2B21716   0.492  34.362   8.250
 5910POPC   C3B21717   0.540  34.369   7.950
 5910POPC   C4B21718   0.498  34.304   7.650
 5911POPC   NC321719  26.768  18.324   9.450
 5911POPC   PO421720  26.843  18.322   9.150
 5911POPC   GL121721  26.807  18.269   8.850
 5911POPC   GL221722  26.689  18.214   8.850
 5911POPC   C1A21723  26.860  18.281   8.550
 5911POPC   D2A21724  26.817  18.265   8.250
 5911POPC   C3A21725  26.776  18.326   7.950
 5911POPC   C4A21726  26.853  18.294   7.650
 5911POPC   C1B21727  26.551  18.155   8.550
 5911POPC   C2B21728  26.645  18.120   8.250
 5911POPC   C3B21729  26.559  18.175   7.950
 5911POPC   C4B21730  26.597  18.159   7.650
 5912POPC   NC321731  36.911  28.323   9.450
 5912POPC   PO421732  36.935  28.343   9.150
 5912POPC   GL121733  36.868  28.320   8.850
 5912POPC   GL221734  37.072  28.391   8.850
 5912POPC   C1A21735  36.909  28.407   8.550
 5912POPC   D2A21736  36.946  28.337   8.250
 5912POPC   C3A21737  36.896  28.361   7.950
 5912POPC   C4A21738  36.894  28.403   7.650
 5912POPC   C1B21739  37.156  28.355   8.550
 5912POPC   C2B21740  37.139  28.376   8.250
 5912POPC   C3B21741  37.140  28.391   7.950
 5912POPC   C4B21742  37.188  28.404   7.650
 5913POPC   NC321743  42.363  42.308   9.450
 5913POPC   PO421744  42.358  42.336   9.150
 5913POPC   GL121745  42.346  42.358   8.850
 5913POPC   GL221746  42.348  42.175   8.850
 5913POPC   C1A21747  42.348  42.380   8.550
 5913POPC   D2A21748  42.295  42.300   8.250
 5913POPC   C3A21749  42.362  42.293   7.950
 5913POPC   C4A21750  42.382  42.316   7.650
 5913POPC   C1B21751  42.352  42.131   8.550
 5913POPC   C2B21752  42.340  42.118   8.250
 5913POPC   C3B21753  42.313  42.045   7.950
 5913POPC   C4B21754  42.392  42.049   7.650
 5914POPC   NC321755   0.423  11.267   9.450
 5914POPC   PO421756   0.474  11.278   9.150
 5914POPC   GL121757   0.453  11.320   8.850
 5914POPC   GL221758   0.322  11.277   8.850
 5914POPC   C1A21759   0.406  11.268   8.550
 5914POPC   D2A21760   0.442  11.332   8.250
 5914POPC   C3A21761   0.444  11.250   7.950
 5914POPC   C4A21762   0.452  11.340   7.650
 5914POPC   C1B21763   0.215  11.336   8.550
 5914POPC   C2B21764   0.181  11.348   8.250
 5914POPC   C3B21765   0.226  11.322   7.950
 5914POPC   C4B21766   0.158  11.299   7.650
 5915POPC   NC321767   0.406   9.743   9.450
 5915POPC   PO421768   0.398   9.776   9.150
 5915POPC   GL121769   0.414   9.761   8.850
 5915POPC   GL221770   0.307   9.754   8.850
 5915POPC   C1A21771   0.479   9.725   8.550
 5915POPC   D2A21772   0.399   9.751   8.250
 5915POPC   C3A21773   0.414   9.761   7.950
 5915POPC   C4A21774   0.461   9.778   7.650
 5915POPC   C1B21775   0.214   9.692   8.550
 5915POPC   C2B21776   0.153   9.697   8.250
 5915POPC   C3B21777   0.173   9.711   7.950
 5915POPC   C4B21778   0.242   9.684   7.650
 5916POPC   NC321779  39.986   2.777   9.450
 5916POPC   PO421780  39.992   2.803   9.150
 5916POPC   GL121781  39.967   2.775   8.850
 5916POPC   GL221782  39.882   2.805   8.850
 5916POPC   C1A21783  40.009   2.730   8.550
 5916POPC   D2A21784  40.031   2.749   8.250
 5916POPC   C3A21785  39.957   2.730   7.950
 5916POPC   C4A21786  40.013   2.717   7.650
 5916POPC   C1B21787  39.841   2.902   8.550
 5916POPC   C2B21788  39.836   2.885   8.250
 5916POPC   C3B21789  39.834   2.854   7.950
 5916POPC   C4B21790  39.771   2.920   7.650
 5917POPC   NC321791  26.863   2.782   9.450
 5917POPC   PO421792  26.802   2.788   9.150
 5917POPC   GL121793  26.770   2.793   8.850
 5917POPC   GL221794  26.740   2.688   8.850
 5917POPC   C1A21795  26.787   2.725   8.550
 5917POPC   D2A21796  26.786   2.748   8.250
 5917POPC   C3A21797  26.835   2.784   7.950
 5917POPC   C4A21798  26.818   2.731   7.650
 5917POPC   C1B21799  26.544   2.706   8.550
 5917POPC   C2B21800  26.556   2.751   8.250
 5917POPC   C3B21801  26.552   2.669   7.950
 5917POPC   C4B21802  26.615   2.661   7.650
 5918POPC   NC321803  24.503  32.215   9.450
 5918POPC   PO421804  24.490  32.218   9.150
 5918POPC   GL121805  24.467  32.204   8.850
 5918POPC   GL221806  24.379  32.123   8.850
 5918POPC   C1A21807  24.533  32.200   8.550
 5918POPC   D2A21808  24.507  32.267   8.250
 5918POPC   C3A21809  24.448  32.228   7.950
 5918POPC   C4A21810  24.446  32.269   7.650
 5918POPC   C1B21811  24.334  32.082   8.550
 5918POPC   C2B21812  24.309  32.068   8.250
 5918POPC   C3B21813  24.370  32.054   7.950
 5918POPC   C4B21814  24.345  32.024   7.650
 5919POPC   NC321815   6.602  40.754   9.450
 5919POPC   PO421816   6.674  40.775   9.150
 5919POPC   GL121817   6.678  40.787   8.850
 5919POPC   GL221818   6.557  40.656   8.850
 5919POPC   C1A21819   6.632  40.771   8.550
 5919POPC   D2A21820   6.659  40.830   8.250
 5919POPC   C3A21821   6.687  40.805   7.950
 5919POPC   C4A21822   6.596  40.747   7.650
 5919POPC   C1B21823   6.486  40.543   8.550
 5919POPC   C2B21824   6.466  40.614   8.250
 5919POPC   C3B21825   6.496  40.603   7.950
 5919POPC   C4B21826   6.454  40.628   7.650
 5920POPC   NC321827  39.280   3.508   9.450
 5920POPC   PO421828  39.216   3.550   9.150
 5920POPC   GL121829  39.274   3.565   8.850
 5920POPC   GL221830  39.234   3.449   8.850
 5920POPC   C1A21831  39.194   3.560   8.550
 5920POPC   D2A21832  39.267   3.550   8.250
 5920POPC   C3A21833  39.207   3.591   7.950
 5920POPC   C4A21834  39.241   3.551   7.650
 5920POPC   C1B21835  39.202   3.255   8.550
 5920POPC   C2B21836  39.257   3.292   8.250
 5920POPC   C3B21837  39.264   3.324   7.950
 5920POPC   C4B21838  39.254   3.261   7.650
 5921POPC   NC321839   1.181   1.959   9.450
 5921POPC   PO421840   1.167   1.971   9.150
 5921POPC   GL121841   1.224   1.955   8.850
 5921POPC   GL221842   1.194   1.864   8.850
 5921POPC   C1A21843   1.263   1.973   8.550
 5921POPC   D2A21844   1.183   1.960   8.250
 5921POPC   C3A21845   1.179   1.955   7.950
 5921POPC   C4A21846   1.205   1.958   7.650
 5921POPC   C1B21847   1.095   1.784   8.550
 5921POPC   C2B21848   1.117   1.798   8.250
 5921POPC   C3B21849   1.061   1.766   7.950
 5921POPC   C4B21850   1.126   1.824   7.650
 5922POPC   NC321851   4.282  29.105   9.450
 5922POPC   PO421852   4.287  29.116   9.150
 5922POPC   GL121853   4.338  29.108   8.850
 5922POPC   GL221854   4.328  29.003   8.850
 5922POPC   C1A21855   4.294  29.151   8.550
 5922POPC   D2A21856   4.320  29.155   8.250
 5922POPC   C3A21857   4.354  29.153   7.950
 5922POPC   C4A21858   4.278  29.099   7.650
 5922POPC   C1B21859   4.276  28.876   8.550
 5922POPC   C2B21860   4.315  28.907   8.250
 5922POPC   C3B21861   4.294  28.928   7.950
 5922POPC   C4B21862   4.285  28.926   7.650
 5923POPC   NC321863  43.907   8.214   9.450
 5923POPC   PO421864  43.923   8.162   9.150
 5923POPC   GL121865  43.858   8.184   8.850
 5923POPC   GL221866  43.975   8.219   8.850
 5923POPC   C1A21867  43.877   8.224   8.550
 5923POPC   D2A21868  43.870   8.150   8.250
 5923POPC   C3A21869  43.842   8.202   7.950
 5923POPC   C4A21870  43.888   8.216   7.650
 5923POPC   C1B21871  44.097   8.281   8.550
 5923POPC   C2B21872  44.136   8.299   8.250
 5923POPC   C3B21873  44.087   8.309   7.950
 5923POPC   C4B21874  44.169   8.306   7.650
 5924POPC   NC321875  12.869   3.590   9.450
 5924POPC   PO421876  12.857   3.496   9.150
 5924POPC   GL121877  12.818   3.549   8.850
 5924POPC   GL221878  12.862   3.645   8.850
 5924POPC   C1A21879  12.876   3.508   8.550
 5924POPC   D2A21880  12.882   3.559   8.250
 5924POPC   C3A21881  12.873   3.519   7.950
 5924POPC   C4A21882  12.885   3.544   7.650
 5924POPC   C1B21883  12.915   3.751   8.550
 5924POPC   C2B21884  12.918   3.751   8.250
 5924POPC   C3B21885  12.887   3.811   7.950
 5924POPC   C4B21886  12.910   3.769   7.650
 5925POPC   NC321887  39.243  31.464   9.450
 5925POPC   PO421888  39.277  31.478   9.150
 5925POPC   GL121889  39.278  31.503   8.850
 5925POPC   GL221890  39.368  31.386   8.850
 5925POPC   C1A21891  39.271  31.492   8.550
 5925POPC   D2A21892  39.184  31.518   8.250
 5925POPC   C3A21893  39.253  31.507   7.950
 5925POPC   C4A21894  39.231  31.486   7.650
 5925POPC   C1B21895  39.467  31.394   8.550
 5925POPC   C2B21896  39.411  31.323   8.250
 5925POPC   C3B21897  39.497  31.321   7.950
 5925POPC   C4B21898  39.422  31.337   7.650
 5926POPC   NC321899   1.235  14.377   9.450
 5926POPC   PO421900   1.169  14.420   9.150
 5926POPC   GL121901   1.205  14.423   8.850
 5926POPC   GL221902   1.116  14.276   8.850
 5926POPC   C1A21903   1.257  14.369   8.550
 5926POPC   D2A21904   1.223  14.451   8.250
 5926POPC   C3A21905   1.253  14.421   7.950
 5926POPC   C4A21906   1.204  14.361   7.650
 5926POPC   C1B21907   1.119  14.140   8.550
 5926POPC   C2B21908   1.049  14.157   8.250
 5926POPC   C3B21909   1.104  14.215   7.950
 5926POPC   C4B21910   1.055  14.181   7.650
 5927POPC   NC321911  11.273  10.478   9.450
 5927POPC   PO421912  11.284  10.495   9.150
 5927POPC   GL121913  11.334  10.483   8.850
 5927POPC   GL221914  11.369  10.605   8.850
 5927POPC   C1A21915  11.335  10.495   8.550
 5927POPC   D2A21916  11.290  10.517   8.250
 5927POPC   C3A21917  11.338  10.503   7.950
 5927POPC   C4A21918  11.270  10.499   7.650
 5927POPC   C1B21919  11.535  10.615   8.550
 5927POPC   C2B21920  11.532  10.610   8.250
 5927POPC   C3B21921  11.547  10.610   7.950
 5927POPC   C4B21922  11.557  10.583   7.650
 5928POPC   NC321923  15.218  24.441   9.450
 5928POPC   PO421924  15.207  24.539   9.150
 5928POPC   GL121925  15.130  24.532   8.850
 5928POPC   GL221926  15.100  24.561   8.850
 5928POPC   C1A21927  15.172  24.509   8.550
 5928POPC   D2A21928  15.174  24.517   8.250
 5928POPC   C3A21929  15.222  24.516   7.950
 5928POPC   C4A21930  15.176  24.476   7.650
 5928POPC   C1B21931  14.995  24.695   8.550
 5928POPC   C2B21932  14.988  24.634   8.250
 5928POPC   C3B21933  14.995  24.658   7.950
 5928POPC   C4B21934  14.989  24.625   7.650
 5929POPC   NC321935  23.679  31.520   9.450
 5929POPC   PO421936  23.713  31.453   9.150
 5929POPC   GL121937  23.751  31.448   8.850
 5929POPC   GL221938  23.764  31.343   8.850
 5929POPC   C1A21939  23.712  31.509   8.550
 5929POPC   D2A21940  23.715  31.495   8.250
 5929POPC   C3A21941  23.745  31.522   7.950
 5929POPC   C4A21942  23.729  31.501   7.650
 5929POPC   C1B21943  23.856  31.302   8.550
 5929POPC   C2B21944  23.833  31.287   8.250
 5929POPC   C3B21945  23.900  31.275   7.950
 5929POPC   C4B21946  23.905  31.275   7.650
 5930POPC   NC321947  31.516  23.715   9.450
 5930POPC   PO421948  31.459  23.754   9.150
 5930POPC   GL121949  31.482  23.724   8.850
 5930POPC   GL221950  31.419  23.639   8.850
 5930POPC   C1A21951  31.515  23.715   8.550
 5930POPC   D2A21952  31.475  23.730   8.250
 5930POPC   C3A21953  31.443  23.696   7.950
 5930POPC   C4A21954  31.472  23.752   7.650
 5930POPC   C1B21955  31.357  23.531   8.550
 5930POPC   C2B21956  31.354  23.457   8.250
 5930POPC   C3B21957  31.337  23.535   7.950
 5930POPC   C4B21958  31.354  23.526   7.650
 5931POPC   NC321959  22.151  39.256   9.450
 5931POPC   PO421960  22.176  39.270   9.150
 5931POPC   GL121961  22.200  39.201   8.850
 5931POPC   GL221962  22.271  39.318   8.850
 5931POPC   C1A21963  22.203  39.195   8.550
 5931POPC   D2A21964  22.117  39.221   8.250
 5931POPC   C3A21965  22.116  39.279   7.950
 5931POPC   C4A21966  22.147  39.201   7.650
 5931POPC   C1B21967  22.269  39.474   8.550
 5931POPC   C2B21968  22.273  39.434   8.250
 5931POPC   C3B21969  22.265  39.404   7.950
 5931POPC   C4B21970  22.337  39.475   7.650
 5932POPC   NC321971  43.881  34.575   9.450
 5932POPC   PO421972  43.851  34.547   9.150
 5932POPC   GL121973  43.872  34.542   8.850
 5932POPC   GL221974  43.980  34.696   8.850
 5932POPC   C1A21975  43.840  34.560   8.550
 5932POPC   D2A21976  43.846  34.620   8.250
 5932POPC   C3A21977  43.882  34.562   7.950
 5932POPC   C4A21978  43.883  34.582   7.650
 5932POPC   C1B21979  44.040  34.713   8.550
 5932POPC   C2B21980  44.097  34.807   8.250
 5932POPC   C3B21981  44.081  34.788   7.950
 5932POPC   C4B21982  44.069  34.765   7.650
 5933POPC   NC321983  35.312  12.840   9.450
 5933POPC   PO421984  35.331  12.808   9.150
 5933POPC   GL121985  35.312  12.838   8.850
 5933POPC   GL221986  35.267  12.761   8.850
 5933POPC   C1A21987  35.399  12.833   8.550
 5933POPC   D2A21988  35.329  12.810   8.250
 5933POPC   C3A21989  35.351  12.847   7.950
 5933POPC   C4A21990  35.302  12.873   7.650
 5933POPC   C1B21991  35.212  12.630   8.550
 5933POPC   C2B21992  35.258  12.586   8.250
 5933POPC   C3B21993  35.217  12.610   7.950
 5933POPC   C4B21994  35.271  12.673   7.650
 5934POPC   NC321995  12.044   0.403   9.450
 5934POPC   PO421996  12.036   0.429   9.150
 5934POPC   GL121997  12.046   0.471   8.850
 5934POPC   GL221998  12.157   0.494   8.850
 5934POPC   C1A21999  12.115   0.462   8.550
 5934POPC   D2A22000  12.069   0.431   8.250
 5934POPC   C3A22001  12.096   0.401   7.950
 5934POPC   C4A22002  12.101   0.413   7.650
 5934POPC   C1B22003  12.262   0.613   8.550
 5934POPC   C2B22004  12.318   0.553   8.250
 5934POPC   C3B22005  12.255   0.547   7.950
 5934POPC   C4B22006  12.233   0.589   7.650
 5935POPC   NC322007  28.357  40.775   9.450
 5935POPC   PO422008  28.354  40.763   9.150
 5935POPC   GL122009  28.358  40.785   8.850
 5935POPC   GL222010  28.261  40.790   8.850
 5935POPC   C1A22011  28.323  40.748   8.550
 5935POPC   D2A22012  28.337  40.782   8.250
 5935POPC   C3A22013  28.413  40.821   7.950
 5935POPC   C4A22014  28.349  40.771   7.650
 5935POPC   C1B22015  28.148  40.870   8.550
 5935POPC   C2B22016  28.091  40.859   8.250
 5935POPC   C3B22017  28.141  40.880   7.950
 5935POPC   C4B22018  28.120  40.837   7.650
 5936POPC   NC322019   2.026  32.278   9.450
 5936POPC   PO422020   1.985  32.218   9.150
 5936POPC   GL122021   2.008  32.280   8.850
 5936POPC   GL222022   2.098  32.355   8.850
 5936POPC   C1A22023   2.038  32.247   8.550
 5936POPC   D2A22024   1.946  32.209   8.250
 5936POPC   C3A22025   2.037  32.247   7.950
 5936POPC   C4A22026   1.966  32.207   7.650
 5936POPC   C1B22027   2.146  32.445   8.550
 5936POPC   C2B22028   2.112  32.462   8.250
 5936POPC   C3B22029   2.133  32.489   7.950
 5936POPC   C4B22030   2.179  32.468   7.650
 5937POPC   NC322031  12.900   2.006   9.450
 5937POPC   PO422032  12.820   2.025   9.150
 5937POPC   GL122033  12.880   1.969   8.850
 5937POPC   GL222034  12.859   1.852   8.850
 5937POPC   C1A22035  12.899   2.034   8.550
 5937POPC   D2A22036  12.853   1.957   8.250
 5937POPC   C3A22037  12.889   2.008   7.950
 5937POPC   C4A22038  12.840   1.964   7.650
 5937POPC   C1B22039  12.871   1.704   8.550
 5937POPC   C2B22040  12.932   1.767   8.250
 5937POPC   C3B22041  12.938   1.726   7.950
 5937POPC   C4B22042  12.852   1.768   7.650
 5938POPC   NC322043  12.828  18.314   9.450
 5938POPC   PO422044  12.840  18.323   9.150
 5938POPC   GL122045  12.877  18.239   8.850
 5938POPC   GL222046  12.911  18.392   8.850
 5938POPC   C1A22047  12.850  18.257   8.550
 5938POPC   D2A22048  12.866  18.279   8.250
 5938POPC   C3A22049  12.868  18.267   7.950
 5938POPC   C4A22050  12.870  18.241   7.650
 5938POPC   C1B22051  13.054  18.501   8.550
 5938POPC   C2B22052  13.017  18.462   8.250
 5938POPC   C3B22053  13.072  18.453   7.950
 5938POPC   C4B22054  13.000  18.408   7.650
 5939POPC   NC322055  23.730   6.673   9.450
 5939POPC   PO422056  23.753   6.602   9.150
 5939POPC   GL122057  23.753   6.648   8.850
 5939POPC   GL222058  23.652   6.778   8.850
 5939POPC   C1A22059  23.735   6.655   8.550
 5939POPC   D2A22060  23.685   6.689   8.250
 5939POPC   C3A22061  23.737   6.628   7.950
 5939POPC   C4A22062  23.760   6.615   7.650
 5939POPC   C1B22063  23.684   6.883   8.550
 5939POPC   C2B22064  23.616   6.851   8.250
 5939POPC   C3B22065  23.617   6.855   7.950
 5939POPC   C4B22066  23.641   6.920   7.650
 5940POPC   NC322067   1.213   8.962   9.450
 5940POPC   PO422068   1.240   8.977   9.150
 5940POPC   GL122069   1.237   8.958   8.850
 5940POPC   GL222070   1.069   8.867   8.850
 5940POPC   C1A22071   1.176   8.953   8.550
 5940POPC   D2A22072   1.191   8.991   8.250
 5940POPC   C3A22073   1.203   8.978   7.950
 5940POPC   C4A22074   1.181   8.984   7.650
 5940POPC   C1B22075   0.970   8.800   8.550
 5940POPC   C2B22076   0.948   8.810   8.250
 5940POPC   C3B22077   0.954   8.880   7.950
 5940POPC   C4B22078   1.030   8.844   7.650
 5941POPC   NC322079   2.780  29.115   9.450
 5941POPC   PO422080   2.739  29.154   9.150
 5941POPC   GL122081   2.754  29.180   8.850
 5941POPC   GL222082   2.643  29.256   8.850
 5941POPC   C1A22083   2.807  29.192   8.550
 5941POPC   D2A22084   2.726  29.168   8.250
 5941POPC   C3A22085   2.763  29.171   7.950
 5941POPC   C4A22086   2.760  29.122   7.650
 5941POPC   C1B22087   2.565  29.267   8.550
 5941POPC   C2B22088   2.606  29.310   8.250
 5941POPC   C3B22089   2.524  29.279   7.950
 5941POPC   C4B22090   2.559  29.248   7.650
 5942POPC   NC322091   7.427   7.437   9.450
 5942POPC   PO422092   7.426   7.384   9.150
 5942POPC   GL122093   7.447   7.447   8.850
 5942POPC   GL222094   7.251   7.421   8.850
 5942POPC   C1A22095   7.392   7.457   8.550
 5942POPC   D2A22096   7.423   7.431   8.250
 5942POPC   C3A22097   7.420   7.379   7.950
 5942POPC   C4A22098   7.402   7.451   7.650
 5942POPC   C1B22099   7.227   7.338   8.550
 5942POPC   C2B22100   7.193   7.399   8.250
 5942POPC   C3B22101   7.225   7.320   7.950
 5942POPC   C4B22102   7.174   7.318   7.650
 5943POPC   NC322103  23.683  40.832   9.450
 5943POPC   PO422104  23.730  40.786   9.150
 5943POPC   GL122105  23.685  40.822   8.850
 5943POPC   GL222106  23.661  40.639   8.850
 5943POPC   C1A22107  23.687  40.780   8.550
 5943POPC   D2A22108  23.753  40.743   8.250
 5943POPC   C3A22109  23.677  40.741   7.950
 5943POPC   C4A22110  23.704  40.823   7.650
 5943POPC   C1B22111  23.575  40.562   8.550
 5943POPC   C2B22112  23.608  40.527   8.250
 5943POPC   C3B22113  23.637  40.536   7.950
 5943POPC   C4B22114  23.569  40.566   7.650
 5944POPC   NC322115  12.808  16.731   9.450
 5944POPC   PO422116  12.839  16.733   9.150
 5944POPC   GL122117  12.900  16.740   8.850
 5944POPC   GL222118  12.860  16.867   8.850
 5944POPC   C1A22119  12.901  16.734   8.550
 5944POPC   D2A22120  12.839  16.693   8.250
 5944POPC   C3A22121  12.878  16.688   7.950
 5944POPC   C4A22122  12.840  16.780   7.650
 5944POPC   C1B22123  12.956  16.957   8.550
 5944POPC   C2B22124  12.920  16.977   8.250
 5944POPC   C3B22125  12.912  16.971   7.950
 5944POPC   C4B22126  12.940  16.981   7.650
 5945POPC   NC322127  38.474   4.341   9.450
 5945POPC   PO422128  38.435   4.295   9.150
 5945POPC   GL122129  38.474   4.332   8.850
 5945POPC   GL222130  38.554   4.225   8.850
 5945POPC   C1A22131  38.462   4.353   8.550
 5945POPC   D2A22132  38.410   4.313   8.250
 5945POPC   C3A22133  38.467   4.290   7.950
 5945POPC   C4A22134  38.444   4.272   7.650
 5945POPC   C1B22135  38.583   4.117   8.550
 5945POPC   C2B22136  38.652   4.094   8.250
 5945POPC   C3B22137  38.566   4.115   7.950
 5945POPC   C4B22138  38.642   4.151   7.650
 5946POPC   NC322139  18.305  30.714   9.450
 5946POPC   PO422140  18.268  30.746   9.150
 5946POPC   GL122141  18.248  30.714   8.850
 5946POPC   GL222142  18.340  30.808   8.850
 5946POPC   C1A22143  18.310  30.705   8.550
 5946POPC   D2A22144  18.241  30.651   8.250
 5946POPC   C3A22145  18.299  30.674   7.950
 5946POPC   C4A22146  18.313  30.694   7.650
 5946POPC   C1B22147  18.435  30.885   8.550
 5946POPC   C2B22148  18.414  30.893   8.250
 5946POPC   C3B22149  18.414  30.863   7.950
 5946POPC   C4B22150  18.433  30.837   7.650
 5947POPC   NC322151  11.330  43.117   9.450
 5947POPC   PO422152  11.293  43.148   9.150
 5947POPC   GL122153  11.329  43.100   8.850
 5947POPC   GL222154  11.466  43.118   8.850
 5947POPC   C1A22155  11.304  43.072   8.550
 5947POPC   D2A22156  11.327  43.110   8.250
 5947POPC   C3A22157  11.260  43.065   7.950
 5947POPC   C4A22158  11.275  43.122   7.650
 5947POPC   C1B22159  11.508  43.048   8.550
 5947POPC   C2B22160  11.549  43.066   8.250
 5947POPC   C3B22161  11.525  43.079   7.950
 5947POPC   C4B22162  11.499  43.083   7.650
 5948POPC   NC322163   2.729  34.576   9.450
 5948POPC   PO422164   2.724  34.533   9.150
 5948POPC   GL122165   2.754  34.613   8.850
 5948POPC   GL222166   2.599  34.537   8.850
 5948POPC   C1A22167   2.777  34.532   8.550
 5948POPC   D2A22168   2.767  34.588   8.250
 5948POPC   C3A22169   2.780  34.595   7.950
 5948POPC   C4A22170   2.723  34.542   7.650
 5948POPC   C1B22171   2.547  34.471   8.550
 5948POPC   C2B22172   2.513  34.490   8.250
 5948POPC   C3B22173   2.578  34.489   7.950
 5948POPC   C4B22174   2.554  34.515   7.650
 5949POPC   NC322175  37.682  33.008   9.450
 5949POPC   PO422176  37.712  33.041   9.150
 5949POPC   GL122177  37.699  33.033   8.850
 5949POPC   GL222178  37.756  33.001   8.850
 5949POPC   C1A22179  37.718  32.987   8.550
 5949POPC   D2A22180  37.707  33.062   8.250
 5949POPC   C3A22181  37.688  32.986   7.950
 5949POPC   C4A22182  37.677  33.069   7.650
 5949POPC   C1B22183  37.882  33.007   8.550
 5949POPC   C2B22184  37.972  33.055   8.250
 5949POPC   C3B22185  37.958  33.009   7.950
 5949POPC   C4B22186  37.941  32.984   7.650
 5950POPC   NC322187  40.044  28.337   9.450
 5950POPC   PO422188  40.046  28.378   9.150
 5950POPC   GL122189  40.025  28.319   8.850
 5950POPC   GL222190  40.103  28.335   8.850
 5950POPC   C1A22191  39.989  28.410   8.550
 5950POPC   D2A22192  39.962  28.376   8.250
 5950POPC   C3A22193  39.960  28.355   7.950
 5950POPC   C4A22194  40.038  28.396   7.650
 5950POPC   C1B22195  40.238  28.324   8.550
 5950POPC   C2B22196  40.212  28.417   8.250
 5950POPC   C3B22197  40.256  28.395   7.950
 5950POPC   C4B22198  40.294  28.328   7.650
 5951POPC   NC322199  14.383  13.615   9.450
 5951POPC   PO422200  14.357  13.595   9.150
 5951POPC   GL122201  14.381  13.623   8.850
 5951POPC   GL222202  14.260  13.675   8.850
 5951POPC   C1A22203  14.446  13.623   8.550
 5951POPC   D2A22204  14.405  13.668   8.250
 5951POPC   C3A22205  14.387  13.652   7.950
 5951POPC   C4A22206  14.443  13.655   7.650
 5951POPC   C1B22207  14.138  13.715   8.550
 5951POPC   C2B22208  14.137  13.757   8.250
 5951POPC   C3B22209  14.201  13.741   7.950
 5951POPC   C4B22210  14.152  13.762   7.650
 5952POPC   NC322211   9.789  35.304   9.450
 5952POPC   PO422212   9.710  35.397   9.150
 5952POPC   GL122213   9.794  35.376   8.850
 5952POPC   GL222214   9.662  35.348   8.850
 5952POPC   C1A22215   9.756  35.395   8.550
 5952POPC   D2A22216   9.739  35.347   8.250
 5952POPC   C3A22217   9.706  35.391   7.950
 5952POPC   C4A22218   9.740  35.399   7.650
 5952POPC   C1B22219   9.505  35.472   8.550
 5952POPC   C2B22220   9.469  35.443   8.250
 5952POPC   C3B22221   9.530  35.403   7.950
 5952POPC   C4B22222   9.471  35.384   7.650
 5953POPC   NC322223   9.741  12.126   9.450
 5953POPC   PO422224   9.703  12.117   9.150
 5953POPC   GL122225   9.783  12.065   8.850
 5953POPC   GL222226   9.824  12.122   8.850
 5953POPC   C1A22227   9.713  12.104   8.550
 5953POPC   D2A22228   9.768  12.114   8.250
 5953POPC   C3A22229   9.759  12.029   7.950
 5953POPC   C4A22230   9.744  12.055   7.650
 5953POPC   C1B22231   9.952  12.204   8.550
 5953POPC   C2B22232   9.987  12.239   8.250
 5953POPC   C3B22233   9.947  12.184   7.950
 5953POPC   C4B22234   9.909  12.188   7.650
 5954POPC   NC322235   9.733   5.853   9.450
 5954POPC   PO422236   9.735   5.844   9.150
 5954POPC   GL122237   9.793   5.823   8.850
 5954POPC   GL222238   9.759   5.997   8.850
 5954POPC   C1A22239   9.757   5.905   8.550
 5954POPC   D2A22240   9.720   5.845   8.250
 5954POPC   C3A22241   9.744   5.916   7.950
 5954POPC   C4A22242   9.710   5.840   7.650
 5954POPC   C1B22243   9.670   6.060   8.550
 5954POPC   C2B22244   9.709   6.079   8.250
 5954POPC   C3B22245   9.632   6.137   7.950
 5954POPC   C4B22246   9.689   6.086   7.650
 5955POPC   NC322247  12.026   3.544   9.450
 5955POPC   PO422248  12.119   3.559   9.150
 5955POPC   GL122249  12.106   3.548   8.850
 5955POPC   GL222250  12.158   3.477   8.850
 5955POPC   C1A22251  12.036   3.585   8.550
 5955POPC   D2A22252  12.053   3.543   8.250
 5955POPC   C3A22253  12.074   3.503   7.950
 5955POPC   C4A22254  12.116   3.518   7.650
 5955POPC   C1B22255  12.336   3.510   8.550
 5955POPC   C2B22256  12.288   3.521   8.250
 5955POPC   C3B22257  12.325   3.451   7.950
 5955POPC   C4B22258  12.315   3.519   7.650
 5956POPC   NC322259  25.298  39.244   9.450
 5956POPC   PO422260  25.275  39.256   9.150
 5956POPC   GL122261  25.288  39.213   8.850
 5956POPC   GL222262  25.225  39.074   8.850
 5956POPC   C1A22263  25.254  39.255   8.550
 5956POPC   D2A22264  25.244  39.236   8.250
 5956POPC   C3A22265  25.270  39.221   7.950
 5956POPC   C4A22266  25.268  39.191   7.650
 5956POPC   C1B22267  25.288  38.982   8.550
 5956POPC   C2B22268  25.237  39.022   8.250
 5956POPC   C3B22269  25.238  38.950   7.950
 5956POPC   C4B22270  25.314  38.961   7.650
 5957POPC   NC322271  24.530  37.708   9.450
 5957POPC   PO422272  24.462  37.700   9.150
 5957POPC   GL122273  24.474  37.689   8.850
 5957POPC   GL222274  24.519  37.540   8.850
 5957POPC   C1A22275  24.466  37.656   8.550
 5957POPC   D2A22276  24.525  37.655   8.250
 5957POPC   C3A22277  24.486  37.635   7.950
 5957POPC   C4A22278  24.460  37.693   7.650
 5957POPC   C1B22279  24.633  37.457   8.550
 5957POPC   C2B22280  24.577  37.501   8.250
 5957POPC   C3B22281  24.628  37.463   7.950
 5957POPC   C4B22282  24.592  37.479   7.650
 5958POPC   NC322283  10.485  18.272   9.450
 5958POPC   PO422284  10.489  18.321   9.150
 5958POPC   GL122285  10.479  18.246   8.850
 5958POPC   GL222286  10.513  18.432   8.850
 5958POPC   C1A22287  10.510  18.251   8.550
 5958POPC   D2A22288  10.536  18.251   8.250
 5958POPC   C3A22289  10.551  18.324   7.950
 5958POPC   C4A22290  10.487  18.260   7.650
 5958POPC   C1B22291  10.607  18.501   8.550
 5958POPC   C2B22292  10.572  18.520   8.250
 5958POPC   C3B22293  10.640  18.558   7.950
 5958POPC   C4B22294  10.611  18.549   7.650
 5959POPC   NC322295  22.198  21.397   9.450
 5959POPC   PO422296  22.123  21.391   9.150
 5959POPC   GL122297  22.144  21.426   8.850
 5959POPC   GL222298  22.200  21.472   8.850
 5959POPC   C1A22299  22.168  21.412   8.550
 5959POPC   D2A22300  22.151  21.416   8.250
 5959POPC   C3A22301  22.118  21.365   7.950
 5959POPC   C4A22302  22.159  21.394   7.650
 5959POPC   C1B22303  22.305  21.567   8.550
 5959POPC   C2B22304  22.231  21.649   8.250
 5959POPC   C3B22305  22.277  21.623   7.950
 5959POPC   C4B22306  22.302  21.653   7.650
 5960POPC   NC322307  35.368   9.770   9.450
 5960POPC   PO422308  35.303   9.759   9.150
 5960POPC   GL122309  35.324   9.779   8.850
 5960POPC   GL222310  35.345   9.637   8.850
 5960POPC   C1A22311  35.375   9.746   8.550
 5960POPC   D2A22312  35.387   9.752   8.250
 5960POPC   C3A22313  35.303   9.736   7.950
 5960POPC   C4A22314  35.338   9.710   7.650
 5960POPC   C1B22315  35.270   9.500   8.550
 5960POPC   C2B22316  35.260   9.494   8.250
 5960POPC   C3B22317  35.266   9.493   7.950
 5960POPC   C4B22318  35.282   9.498   7.650
 5961POPC   NC322319   1.975   7.400   9.450
 5961POPC   PO422320   2.031   7.413   9.150
 5961POPC   GL122321   1.975   7.398   8.850
 5961POPC   GL222322   2.109   7.381   8.850
 5961POPC   C1A22323   2.039   7.414   8.550
 5961POPC   D2A22324   1.965   7.372   8.250
 5961POPC   C3A22325   1.999   7.432   7.950
 5961POPC   C4A22326   1.961   7.431   7.650
 5961POPC   C1B22327   2.164   7.306   8.550
 5961POPC   C2B22328   2.261   7.309   8.250
 5961POPC   C3B22329   2.225   7.277   7.950
 5961POPC   C4B22330   2.229   7.306   7.650
 5962POPC   NC322331  17.536  23.689   9.450
 5962POPC   PO422332  17.474  23.747   9.150
 5962POPC   GL122333  17.525  23.761   8.850
 5962POPC   GL222334  17.436  23.626   8.850
 5962POPC   C1A22335  17.495  23.738   8.550
 5962POPC   D2A22336  17.516  23.744   8.250
 5962POPC   C3A22337  17.517  23.748   7.950
 5962POPC   C4A22338  17.458  23.711   7.650
 5962POPC   C1B22339  17.474  23.461   8.550
 5962POPC   C2B22340  17.460  23.439   8.250
 5962POPC   C3B22341  17.420  23.439   7.950
 5962POPC   C4B22342  17.458  23.503   7.650
 5963POPC   NC322343   5.135  44.627   9.450
 5963POPC   PO422344   5.083  44.658   9.150
 5963POPC   GL122345   5.114  44.616   8.850
 5963POPC   GL222346   5.015  44.785   8.850
 5963POPC   C1A22347   5.106  44.667   8.550
 5963POPC   D2A22348   5.060  44.665   8.250
 5963POPC   C3A22349   5.102  44.682   7.950
 5963POPC   C4A22350   5.107  44.622   7.650
 5963POPC   C1B22351   4.897  44.878   8.550
 5963POPC   C2B22352   4.960  44.877   8.250
 5963POPC   C3B22353   4.969  44.805   7.950
 5963POPC   C4B22354   4.950  44.835   7.650
 5964POPC   NC322355  44.676   8.224   9.450
 5964POPC   PO422356  44.619   8.213   9.150
 5964POPC   GL122357  44.684   8.208   8.850
 5964POPC   GL222358  44.585   8.234   8.850
 5964POPC   C1A22359  44.635   8.214   8.550
 5964POPC   D2A22360  44.632   8.188   8.250
 5964POPC   C3A22361  44.673   8.218   7.950
 5964POPC   C4A22362  44.614   8.243   7.650
 5964POPC   C1B22363  44.435   8.323   8.550
 5964POPC   C2B22364  44.447   8.379   8.250
 5964POPC   C3B22365  44.408   8.285   7.950
 5964POPC   C4B22366  44.483   8.368   7.650
 5965POPC   NC322367  21.382  16.717   9.450
 5965POPC   PO422368  21.392  16.708   9.150
 5965POPC   GL122369  21.390  16.745   8.850
 5965POPC   GL222370  21.520  16.798   8.850
 5965POPC   C1A22371  21.349  16.695   8.550
 5965POPC   D2A22372  21.388  16.683   8.250
 5965POPC   C3A22373  21.389  16.779   7.950
 5965POPC   C4A22374  21.365  16.701   7.650
 5965POPC   C1B22375  21.593  16.725   8.550
 5965POPC   C2B22376  21.664  16.746   8.250
 5965POPC   C3B22377  21.586  16.789   7.950
 5965POPC   C4B22378  21.647  16.749   7.650
 5966POPC   NC322379   1.197  24.448   9.450
 5966POPC   PO422380   1.171  24.452   9.150
 5966POPC   GL122381   1.250  24.516   8.850
 5966POPC   GL222382   1.166  24.617   8.850
 5966POPC   C1A22383   1.170  24.533   8.550
 5966POPC   D2A22384   1.233  24.451   8.250
 5966POPC   C3A22385   1.255  24.446   7.950
 5966POPC   C4A22386   1.196  24.518   7.650
 5966POPC   C1B22387   1.029  24.709   8.550
 5966POPC   C2B22388   1.085  24.711   8.250
 5966POPC   C3B22389   1.047  24.741   7.950
 5966POPC   C4B22390   1.039  24.689   7.650
 5967POPC   NC322391  33.014   7.371   9.450
 5967POPC   PO422392  33.014   7.463   9.150
 5967POPC   GL122393  33.029   7.434   8.850
 5967POPC   GL222394  32.947   7.470   8.850
 5967POPC   C1A22395  33.020   7.409   8.550
 5967POPC   D2A22396  32.992   7.409   8.250
 5967POPC   C3A22397  33.032   7.426   7.950
 5967POPC   C4A22398  33.015   7.406   7.650
 5967POPC   C1B22399  32.790   7.553   8.550
 5967POPC   C2B22400  32.765   7.470   8.250
 5967POPC   C3B22401  32.782   7.562   7.950
 5967POPC   C4B22402  32.799   7.561   7.650
 5968POPC   NC322403   7.396  42.341   9.450
 5968POPC   PO422404   7.421  42.365   9.150
 5968POPC   GL122405   7.400  42.322   8.850
 5968POPC   GL222406   7.544  42.345   8.850
 5968POPC   C1A22407   7.453  42.306   8.550
 5968POPC   D2A22408   7.441  42.364   8.250
 5968POPC   C3A22409   7.382  42.368   7.950
 5968POPC   C4A22410   7.471  42.381   7.650
 5968POPC   C1B22411   7.704  42.408   8.550
 5968POPC   C2B22412   7.665  42.444   8.250
 5968POPC   C3B22413   7.699  42.459   7.950
 5968POPC   C4B22414   7.650  42.374   7.650
 5969POPC   NC322415  35.353  33.837   9.450
 5969POPC   PO422416  35.337  33.778   9.150
 5969POPC   GL122417  35.391  33.848   8.850
 5969POPC   GL222418  35.250  33.801   8.850
 5969POPC   C1A22419  35.324  33.803   8.550
 5969POPC   D2A22420  35.319  33.783   8.250
 5969POPC   C3A22421  35.382  33.755   7.950
 5969POPC   C4A22422  35.329  33.834   7.650
 5969POPC   C1B22423  35.147  33.837   8.550
 5969POPC   C2B22424  35.116  33.905   8.250
 5969POPC   C3B22425  35.122  33.928   7.950
 5969POPC   C4B22426  35.102  33.895   7.650
 5970POPC   NC322427  33.813  40.813   9.450
 5970POPC   PO422428  33.774  40.741   9.150
 5970POPC   GL122429  33.750  40.773   8.850
 5970POPC   GL222430  33.689  40.693   8.850
 5970POPC   C1A22431  33.779  40.824   8.550
 5970POPC   D2A22432  33.759  40.829   8.250
 5970POPC   C3A22433  33.832  40.801   7.950
 5970POPC   C4A22434  33.754  40.773   7.650
 5970POPC   C1B22435  33.612  40.625   8.550
 5970POPC   C2B22436  33.627  40.665   8.250
 5970POPC   C3B22437  33.563  40.592   7.950
 5970POPC   C4B22438  33.644  40.640   7.650
 5971POPC   NC322439  43.850  44.705   9.450
 5971POPC   PO422440  43.907  44.634   9.150
 5971POPC   GL122441  43.873  44.683   8.850
 5971POPC   GL222442  43.960  44.804   8.850
 5971POPC   C1A22443  43.934  44.702   8.550
 5971POPC   D2A22444  43.903  44.652   8.250
 5971POPC   C3A22445  43.895  44.638   7.950
 5971POPC   C4A22446  43.912  44.628   7.650
 5971POPC   C1B22447  43.998  44.894   8.550
 5971POPC   C2B22448  43.963  44.870   8.250
 5971POPC   C3B22449  43.947  44.876   7.950
 5971POPC   C4B22450  43.931  44.871   7.650
 5972POPC   NC322451  17.496  22.974   9.450
 5972POPC   PO422452  17.461  22.943   9.150
 5972POPC   GL122453  17.552  22.910   8.850
 5972POPC   GL222454  17.443  23.068   8.850
 5972POPC   C1A22455  17.521  22.933   8.550
 5972POPC   D2A22456  17.527  22.890   8.250
 5972POPC   C3A22457  17.551  22.939   7.950
 5972POPC   C4A22458  17.467  22.931   7.650
 5972POPC   C1B22459  17.376  23.135   8.550
 5972POPC   C2B22460  17.400  23.130   8.250
 5972POPC   C3B22461  17.412  23.092   7.950
 5972POPC   C4B22462  17.346  23.116   7.650
 5973POPC   NC322463  27.590  32.986   9.450
 5973POPC   PO422464  27.635  33.024   9.150
 5973POPC   GL122465  27.593  33.059   8.850
 5973POPC   GL222466  27.460  33.082   8.850
 5973POPC   C1A22467  27.586  33.059   8.550
 5973POPC   D2A22468  27.607  33.072   8.250
 5973POPC   C3A22469  27.607  33.072   7.950
 5973POPC   C4A22470  27.548  33.069   7.650
 5973POPC   C1B22471  27.450  33.219   8.550
 5973POPC   C2B22472  27.433  33.198   8.250
 5973POPC   C3B22473  27.447  33.205   7.950
 5973POPC   C4B22474  27.394  33.220   7.650
 5974POPC   NC322475  35.351   3.551   9.450
 5974POPC   PO422476  35.392   3.499   9.150
 5974POPC   GL122477  35.361   3.552   8.850
 5974POPC   GL222478  35.257   3.509   8.850
 5974POPC   C1A22479  35.323   3.492   8.550
 5974POPC   D2A22480  35.381   3.542   8.250
 5974POPC   C3A22481  35.329   3.562   7.950
 5974POPC   C4A22482  35.322   3.549   7.650
 5974POPC   C1B22483  35.175   3.461   8.550
 5974POPC   C2B22484  35.099   3.379   8.250
 5974POPC   C3B22485  35.114   3.471   7.950
 5974POPC   C4B22486  35.112   3.420   7.650
 5975POPC   NC322487  36.170   2.020   9.450
 5975POPC   PO422488  36.169   2.035   9.150
 5975POPC   GL122489  36.136   1.968   8.850
 5975POPC   GL222490  36.224   1.986   8.850
 5975POPC   C1A22491  36.087   1.998   8.550
 5975POPC   D2A22492  36.163   1.976   8.250
 5975POPC   C3A22493  36.147   1.974   7.950
 5975POPC   C4A22494  36.116   1.998   7.650
 5975POPC   C1B22495  36.313   1.941   8.550
 5975POPC   C2B22496  36.347   1.935   8.250
 5975POPC   C3B22497  36.406   1.871   7.950
 5975POPC   C4B22498  36.359   1.933   7.650
 5976POPC   NC322499  15.931  32.292   9.450
 5976POPC   PO422500  16.002  32.235   9.150
 5976POPC   GL122501  15.981  32.212   8.850
 5976POPC   GL222502  15.848  32.355   8.850
 5976POPC   C1A22503  15.988  32.252   8.550
 5976POPC   D2A22504  15.908  32.198   8.250
 5976POPC   C3A22505  15.986  32.273   7.950
 5976POPC   C4A22506  15.917  32.215   7.650
 5976POPC   C1B22507  15.768  32.407   8.550
 5976POPC   C2B22508  15.779  32.410   8.250
 5976POPC   C3B22509  15.842  32.418   7.950
 5976POPC   C4B22510  15.757  32.440   7.650
 5977POPC   NC322511  40.783   5.068   9.450
 5977POPC   PO422512  40.752   5.057   9.150
 5977POPC   GL122513  40.810   5.072   8.850
 5977POPC   GL222514  40.709   5.125   8.850
 5977POPC   C1A22515  40.813   5.061   8.550
 5977POPC   D2A22516  40.806   5.060   8.250
 5977POPC   C3A22517  40.827   5.086   7.950
 5977POPC   C4A22518  40.750   5.107   7.650
 5977POPC   C1B22519  40.580   5.183   8.550
 5977POPC   C2B22520  40.588   5.228   8.250
 5977POPC   C3B22521  40.570   5.209   7.950
 5977POPC   C4B22522  40.533   5.176   7.650
 5978POPC   NC322523  29.144  23.712   9.450
 5978POPC   PO422524  29.138  23.719   9.150
 5978POPC   GL122525  29.112  23.724   8.850
 5978POPC   GL222526  28.994  23.697   8.850
 5978POPC   C1A22527  29.130  23.671   8.550
 5978POPC   D2A22528  29.149  23.689   8.250
 5978POPC   C3A22529  29.162  23.673   7.950
 5978POPC   C4A22530  29.154  23.672   7.650
 5978POPC   C1B22531  28.888  23.664   8.550
 5978POPC   C2B22532  28.866  23.734   8.250
 5978POPC   C3B22533  28.917  23.725   7.950
 5978POPC   C4B22534  28.892  23.729   7.650
 5979POPC   NC322535  39.247  40.828   9.450
 5979POPC   PO422536  39.192  40.823   9.150
 5979POPC   GL122537  39.230  40.772   8.850
 5979POPC   GL222538  39.387  40.776   8.850
 5979POPC   C1A22539  39.263  40.755   8.550
 5979POPC   D2A22540  39.201  40.788   8.250
 5979POPC   C3A22541  39.271  40.766   7.950
 5979POPC   C4A22542  39.195  40.776   7.650
 5979POPC   C1B22543  39.509  40.748   8.550
 5979POPC   C2B22544  39.516  40.740   8.250
 5979POPC   C3B22545  39.484  40.723   7.950
 5979POPC   C4B22546  39.473  40.757   7.650
 5980POPC   NC322547  42.296  41.569   9.450
 5980POPC   PO422548  42.306  41.606   9.150
 5980POPC   GL122549  42.302  41.540   8.850
 5980POPC   GL222550  42.328  41.415   8.850
 5980POPC   C1A22551  42.353  41.542   8.550
 5980POPC   D2A22552  42.317  41.591   8.250
 5980POPC   C3A22553  42.342  41.578   7.950
 5980POPC   C4A22554  42.329  41.539   7.650
 5980POPC   C1B22555  42.439  41.297   8.550
 5980POPC   C2B22556  42.410  41.334   8.250
 5980POPC   C3B22557  42.377  41.291   7.950
 5980POPC   C4B22558  42.411  41.318   7.650
 5981POPC   NC322559  12.046  27.570   9.450
 5981POPC   PO422560  12.040  27.634   9.150
 5981POPC   GL122561  12.059  27.574   8.850
 5981POPC   GL222562  11.918  27.626   8.850
 5981POPC   C1A22563  12.046  27.578   8.550
 5981POPC   D2A22564  12.093  27.641   8.250
 5981POPC   C3A22565  12.087  27.636   7.950
 5981POPC   C4A22566  12.093  27.583   7.650
 5981POPC   C1B22567  11.832  27.704   8.550
 5981POPC   C2B22568  11.808  27.684   8.250
 5981POPC   C3B22569  11.861  27.686   7.950
 5981POPC   C4B22570  11.867  27.736   7.650
 5982POPC   NC322571  18.242   1.261   9.450
 5982POPC   PO422572  18.289   1.226   9.150
 5982POPC   GL122573  18.300   1.210   8.850
 5982POPC   GL222574  18.227   1.176   8.850
 5982POPC   C1A22575  18.293   1.263   8.550
 5982POPC   D2A22576  18.255   1.261   8.250
 5982POPC   C3A22577  18.279   1.170   7.950
 5982POPC   C4A22578  18.295   1.228   7.650
 5982POPC   C1B22579  18.104   1.028   8.550
 5982POPC   C2B22580  18.046   1.118   8.250
 5982POPC   C3B22581  18.047   1.096   7.950
 5982POPC   C4B22582  18.071   1.092   7.650
 5983POPC   NC322583  28.350  39.963   9.450
 5983POPC   PO422584  28.398  39.972   9.150
 5983POPC   GL122585  28.329  39.958   8.850
 5983POPC   GL222586  28.427  40.116   8.850
 5983POPC   C1A22587  28.411  39.971   8.550
 5983POPC   D2A22588  28.326  40.009   8.250
 5983POPC   C3A22589  28.320  40.001   7.950
 5983POPC   C4A22590  28.364  40.037   7.650
 5983POPC   C1B22591  28.565  40.231   8.550
 5983POPC   C2B22592  28.510  40.193   8.250
 5983POPC   C3B22593  28.566  40.161   7.950
 5983POPC   C4B22594  28.550  40.219   7.650
 5984POPC   NC322595  18.242  13.659   9.450
 5984POPC   PO422596  18.239  13.613   9.150
 5984POPC   GL122597  18.310  13.621   8.850
 5984POPC   GL222598  18.229  13.705   8.850
 5984POPC   C1A22599  18.288  13.579   8.550
 5984POPC   D2A22600  18.294  13.581   8.250
 5984POPC   C3A22601  18.319  13.616   7.950
 5984POPC   C4A22602  18.331  13.673   7.650
 5984POPC   C1B22603  18.146  13.802   8.550
 5984POPC   C2B22604  18.114  13.815   8.250
 5984POPC   C3B22605  18.089  13.847   7.950
 5984POPC   C4B22606  18.100  13.829   7.650
 5985POPC   NC322607  42.354   1.972   9.450
 5985POPC   PO422608  42.312   1.964   9.150
 5985POPC   GL122609  42.357   1.976   8.850
 5985POPC   GL222610  42.345   1.828   8.850
 5985POPC   C1A22611  42.351   2.028   8.550
 5985POPC   D2A22612  42.290   1.972   8.250
 5985POPC   C3A22613  42.357   2.016   7.950
 5985POPC   C4A22614  42.333   1.950   7.650
 5985POPC   C1B22615  42.223   1.730   8.550
 5985POPC   C2B22616  42.249   1.771   8.250
 5985POPC   C3B22617  42.273   1.783   7.950
 5985POPC   C4B22618  42.266   1.763   7.650
 5986POPC   NC322619  19.883  35.360   9.450
 5986POPC   PO422620  19.833  35.319   9.150
 5986POPC   GL122621  19.823  35.342   8.850
 5986POPC   GL222622  19.729  35.364   8.850
 5986POPC   C1A22623  19.828  35.358   8.550
 5986POPC   D2A22624  19.785  35.387   8.250
 5986POPC   C3A22625  19.864  35.361   7.950
 5986POPC   C4A22626  19.813  35.362   7.650
 5986POPC   C1B22627  19.623  35.264   8.550
 5986POPC   C2B22628  19.617  35.298   8.250
 5986POPC   C3B22629  19.645  35.255   7.950
 5986POPC   C4B22630  19.592  35.268   7.650
 5987POPC   NC322631  27.589  24.492   9.450
 5987POPC   PO422632  27.593  24.516   9.150
 5987POPC   GL122633  27.636  24.487   8.850
 5987POPC   GL222634  27.606  24.395   8.850
 5987POPC   C1A22635  27.613  24.510   8.550
 5987POPC   D2A22636  27.616  24.471   8.250
 5987POPC   C3A22637  27.570  24.487   7.950
 5987POPC   C4A22638  27.607  24.452   7.650
 5987POPC   C1B22639  27.541  24.196   8.550
 5987POPC   C2B22640  27.559  24.272   8.250
 5987POPC   C3B22641  27.561  24.241   7.950
 5987POPC   C4B22642  27.558  24.264   7.650
 5988POPC   NC322643  15.943  20.564   9.450
 5988POPC   PO422644  15.942  20.634   9.150
 5988POPC   GL122645  15.956  20.602   8.850
 5988POPC   GL222646  15.892  20.477   8.850
 5988POPC   C1A22647  15.961  20.606   8.550
 5988POPC   D2A22648  15.962  20.561   8.250
 5988POPC   C3A22649  15.975  20.561   7.950
 5988POPC   C4A22650  15.962  20.608   7.650
 5988POPC   C1B22651  15.865  20.359   8.550
 5988POPC   C2B22652  15.821  20.430   8.250
 5988POPC   C3B22653  15.853  20.381   7.950
 5988POPC   C4B22654  15.866  20.438   7.650
 5989POPC   NC322655  38.439  27.603   9.450
 5989POPC   PO422656  38.483  27.605   9.150
 5989POPC   GL122657  38.460  27.574   8.850
 5989POPC   GL222658  38.536  27.498   8.850
 5989POPC   C1A22659  38.434  27.586   8.550
 5989POPC   D2A22660  38.484  27.619   8.250
 5989POPC   C3A22661  38.417  27.587   7.950
 5989POPC   C4A22662  38.464  27.610   7.650
 5989POPC   C1B22663  38.646  27.382   8.550
 5989POPC   C2B22664  38.586  27.424   8.250
 5989POPC   C3B22665  38.553  27.397   7.950
 5989POPC   C4B22666  38.641  27.353   7.650
 5990POPC   NC322667   2.775  36.120   9.450
 5990POPC   PO422668   2.747  36.103   9.150
 5990POPC   GL122669   2.750  36.139   8.850
 5990POPC   GL222670   2.854  36.209   8.850
 5990POPC   C1A22671   2.782  36.140   8.550
 5990POPC   D2A22672   2.733  36.120   8.250
 5990POPC   C3A22673   2.746  36.139   7.950
 5990POPC   C4A22674   2.746  36.139   7.650
 5990POPC   C1B22675   2.956  36.265   8.550
 5990POPC   C2B22676   2.985  36.291   8.250
 5990POPC   C3B22677   2.948  36.273   7.950
 5990POPC   C4B22678   3.001  36.301   7.650
 5991POPC   NC322679   0.415  18.280   9.450
 5991POPC   PO422680   0.465  18.271   9.150
 5991POPC   GL122681   0.400  18.292   8.850
 5991POPC   GL222682   0.553  18.205   8.850
 5991POPC   C1A22683   0.476  18.309   8.550
 5991POPC   D2A22684   0.457  18.299   8.250
 5991POPC   C3A22685   0.463  18.251   7.950
 5991POPC   C4A22686   0.428  18.323   7.650
 5991POPC   C1B22687   0.624  18.151   8.550
 5991POPC   C2B22688   0.675  18.185   8.250
 5991POPC   C3B22689   0.637  18.126   7.950
 5991POPC   C4B22690   0.702  18.135   7.650
 5992POPC   NC322691  22.963   2.781   9.450
 5992POPC   PO422692  22.907   2.796   9.150
 5992POPC   GL122693  22.981   2.792   8.850
 5992POPC   GL222694  23.069   2.680   8.850
 5992POPC   C1A22695  22.980   2.791   8.550
 5992POPC   D2A22696  22.955   2.759   8.250
 5992POPC   C3A22697  22.925   2.777   7.950
 5992POPC   C4A22698  22.913   2.743   7.650
 5992POPC   C1B22699  23.144   2.640   8.550
 5992POPC   C2B22700  23.184   2.728   8.250
 5992POPC   C3B22701  23.207   2.665   7.950
 5992POPC   C4B22702  23.191   2.725   7.650
 5993POPC   NC322703  23.674  32.288   9.450
 5993POPC   PO422704  23.753  32.259   9.150
 5993POPC   GL122705  23.724  32.251   8.850
 5993POPC   GL222706  23.813  32.255   8.850
 5993POPC   C1A22707  23.694  32.216   8.550
 5993POPC   D2A22708  23.705  32.221   8.250
 5993POPC   C3A22709  23.704  32.254   7.950
 5993POPC   C4A22710  23.691  32.298   7.650
 5993POPC   C1B22711  23.950  32.357   8.550
 5993POPC   C2B22712  23.987  32.312   8.250
 5993POPC   C3B22713  23.919  32.287   7.950
 5993POPC   C4B22714  23.908  32.346   7.650
 5994POPC   NC322715  17.474  21.350   9.450
 5994POPC   PO422716  17.479  21.371   9.150
 5994POPC   GL122717  17.549  21.337   8.850
 5994POPC   GL222718  17.529  21.501   8.850
 5994POPC   C1A22719  17.518  21.380   8.550
 5994POPC   D2A22720  17.536  21.386   8.250
 5994POPC   C3A22721  17.554  21.354   7.950
 5994POPC   C4A22722  17.526  21.378   7.650
 5994POPC   C1B22723  17.592  21.574   8.550
 5994POPC   C2B22724  17.583  21.650   8.250
 5994POPC   C3B22725  17.593  21.606   7.950
 5994POPC   C4B22726  17.559  21.640   7.650
 5995POPC   NC322727   4.319  27.600   9.450
 5995POPC   PO422728   4.295  27.586   9.150
 5995POPC   GL122729   4.345  27.556   8.850
 5995POPC   GL222730   4.429  27.558   8.850
 5995POPC   C1A22731   4.349  27.609   8.550
 5995POPC   D2A22732   4.308  27.565   8.250
 5995POPC   C3A22733   4.302  27.618   7.950
 5995POPC   C4A22734   4.281  27.569   7.650
 5995POPC   C1B22735   4.522  27.461   8.550
 5995POPC   C2B22736   4.550  27.397   8.250
 5995POPC   C3B22737   4.487  27.415   7.950
 5995POPC   C4B22738   4.523  27.460   7.650
 5996POPC   NC322739  11.296  31.511   9.450
 5996POPC   PO422740  11.312  31.459   9.150
 5996POPC   GL122741  11.321  31.449   8.850
 5996POPC   GL222742  11.184  31.515   8.850
 5996POPC   C1A22743  11.335  31.472   8.550
 5996POPC   D2A22744  11.309  31.486   8.250
 5996POPC   C3A22745  11.277  31.499   7.950
 5996POPC   C4A22746  11.347  31.445   7.650
 5996POPC   C1B22747  11.111  31.600   8.550
 5996POPC   C2B22748  11.098  31.562   8.250
 5996POPC   C3B22749  11.049  31.569   7.950
 5996POPC   C4B22750  11.050  31.634   7.650
 5997POPC   NC322751  29.100  26.772   9.450
 5997POPC   PO422752  29.162  26.790   9.150
 5997POPC   GL122753  29.112  26.779   8.850
 5997POPC   GL222754  29.161  26.926   8.850
 5997POPC   C1A22755  29.143  26.773   8.550
 5997POPC   D2A22756  29.153  26.862   8.250
 5997POPC   C3A22757  29.157  26.787   7.950
 5997POPC   C4A22758  29.191  26.800   7.650
 5997POPC   C1B22759  29.184  27.074   8.550
 5997POPC   C2B22760  29.206  27.113   8.250
 5997POPC   C3B22761  29.189  27.104   7.950
 5997POPC   C4B22762  29.192  27.041   7.650
 5998POPC   NC322763  44.675  22.180   9.450
 5998POPC   PO422764  44.621  22.177   9.150
 5998POPC   GL122765  44.659  22.150   8.850
 5998POPC   GL222766  44.562  22.152   8.850
 5998POPC   C1A22767  44.673  22.154   8.550
 5998POPC   D2A22768  44.650  22.172   8.250
 5998POPC   C3A22769  44.664  22.129   7.950
 5998POPC   C4A22770  44.705  22.143   7.650
 5998POPC   C1B22771  44.437  22.176   8.550
 5998POPC   C2B22772  44.410  22.102   8.250
 5998POPC   C3B22773  44.363  22.095   7.950
 5998POPC   C4B22774  44.427  22.099   7.650
 5999POPC   NC322775  29.960   9.022   9.450
 5999POPC   PO422776  29.957   8.933   9.150
 5999POPC   GL122777  29.920   8.994   8.850
 5999POPC   GL222778  29.998   8.926   8.850
 5999POPC   C1A22779  29.943   9.000   8.550
 5999POPC   D2A22780  29.965   8.978   8.250
 5999POPC   C3A22781  29.914   8.953   7.950
 5999POPC   C4A22782  29.875   9.000   7.650
 5999POPC   C1B22783  30.115   8.841   8.550
 5999POPC   C2B22784  30.197   8.897   8.250
 5999POPC   C3B22785  30.141   8.843   7.950
 5999POPC   C4B22786  30.136   8.855   7.650
 6000POPC   NC322787  12.809  35.344   9.450
 6000POPC   PO422788  12.872  35.361   9.150
 6000POPC   GL122789  12.882  35.303   8.850
 6000POPC   GL222790  12.684  35.290   8.850
 6000POPC   C1A22791  12.871  35.330   8.550
 6000POPC   D2A22792  12.860  35.336   8.250
 6000POPC   C3A22793  12.882  35.364   7.950
 6000POPC   C4A22794  12.877  35.326   7.650
 6000POPC   C1B22795  12.647  35.317   8.550
 6000POPC   C2B22796  12.596  35.282   8.250
 6000POPC   C3B22797  12.640  35.298   7.950
 6000POPC   C4B22798  12.572  35.317   7.650
 6001POPC   NC322799   0.472  21.387   9.450
 6001POPC   PO422800   0.485  21.391   9.150
 6001POPC   GL122801   0.478  21.405   8.850
 6001POPC   GL222802   0.319  21.403   8.850
 6001POPC   C1A22803   0.397  21.387   8.550
 6001POPC   D2A22804   0.468  21.349   8.250
 6001POPC   C3A22805   0.456  21.433   7.950
 6001POPC   C4A22806   0.431  21.348   7.650
 6001POPC   C1B22807   0.175  21.514   8.550
 6001POPC   C2B22808   0.242  21.521   8.250
 6001POPC   C3B22809   0.199  21.502   7.950
 6001POPC   C4B22810   0.211  21.535   7.650
 6002POPC   NC322811  29.135   2.732   9.450
 6002POPC   PO422812  29.130   2.752   9.150
 6002POPC   GL122813  29.188   2.771   8.850
 6002POPC   GL222814  29.136   2.885   8.850
 6002POPC   C1A22815  29.129   2.738   8.550
 6002POPC   D2A22816  29.123   2.786   8.250
 6002POPC   C3A22817  29.153   2.785   7.950
 6002POPC   C4A22818  29.101   2.773   7.650
 6002POPC   C1B22819  29.063   2.992   8.550
 6002POPC   C2B22820  29.045   2.983   8.250
 6002POPC   C3B22821  29.080   2.999   7.950
 6002POPC   C4B22822  29.092   2.986   7.650
 6003POPC   NC322823  11.260  12.102   9.450
 6003POPC   PO422824  11.324  12.042   9.150
 6003POPC   GL122825  11.270  12.064   8.850
 6003POPC   GL222826  11.276  11.957   8.850
 6003POPC   C1A22827  11.341  12.060   8.550
 6003POPC   D2A22828  11.253  12.072   8.250
 6003POPC   C3A22829  11.349  12.049   7.950
 6003POPC   C4A22830  11.311  12.037   7.650
 6003POPC   C1B22831  11.190  11.812   8.550
 6003POPC   C2B22832  11.198  11.813   8.250
 6003POPC   C3B22833  11.226  11.803   7.950
 6003POPC   C4B22834  11.251  11.847   7.650
 6004POPC   NC322835  24.498  38.456   9.450
 6004POPC   PO422836  24.468  38.490   9.150
 6004POPC   GL122837  24.503  38.411   8.850
 6004POPC   GL222838  24.499  38.541   8.850
 6004POPC   C1A22839  24.444  38.472   8.550
 6004POPC   D2A22840  24.497  38.503   8.250
 6004POPC   C3A22841  24.521  38.503   7.950
 6004POPC   C4A22842  24.478  38.445   7.650
 6004POPC   C1B22843  24.403  38.650   8.550
 6004POPC   C2B22844  24.435  38.655   8.250
 6004POPC   C3B22845  24.376  38.665   7.950
 6004POPC   C4B22846  24.380  38.718   7.650
 6005POPC   NC322847  44.680  29.967   9.450
 6005POPC   PO422848  44.664  29.963   9.150
 6005POPC   GL122849  44.682  29.933   8.850
 6005POPC   GL222850  44.781  30.039   8.850
 6005POPC   C1A22851  44.670  29.952   8.550
 6005POPC   D2A22852  44.690  29.904   8.250
 6005POPC   C3A22853  44.623  29.884   7.950
 6005POPC   C4A22854  44.621  29.963   7.650
 6005POPC   C1B22855  44.830  30.110   8.550
 6005POPC   C2B22856  44.799  30.124   8.250
 6005POPC   C3B22857  44.832  30.099   7.950
 6005POPC   C4B22858  44.854  30.123   7.650
 6006POPC   NC322859  33.799  10.524   9.450
 6006POPC   PO422860  33.752  10.559   9.150
 6006POPC   GL122861  33.813  10.573   8.850
 6006POPC   GL222862  33.947  10.508   8.850
 6006POPC   C1A22863  33.806  10.557   8.550
 6006POPC   D2A22864  33.799  10.497   8.250
 6006POPC   C3A22865  33.755  10.525   7.950
 6006POPC   C4A22866  33.806  10.490   7.650
 6006POPC   C1B22867  34.097  10.494   8.550
 6006POPC   C2B22868  34.091  10.577   8.250
 6006POPC   C3B22869  34.080  10.548   7.950
 6006POPC   C4B22870  34.062  10.512   7.650
 6007POPC   NC322871  20.632  19.809   9.450
 6007POPC   PO422872  20.623  19.854   9.150
 6007POPC   GL122873  20.656  19.811   8.850
 6007POPC   GL222874  20.551  19.894   8.850
 6007POPC   C1A22875  20.624  19.793   8.550
 6007POPC   D2A22876  20.578  19.865   8.250
 6007POPC   C3A22877  20.568  19.814   7.950
 6007POPC   C4A22878  20.593  19.793   7.650
 6007POPC   C1B22879  20.397  19.944   8.550
 6007POPC   C2B22880  20.460  19.949   8.250
 6007POPC   C3B22881  20.371  20.023   7.950
 6007POPC   C4B22882  20.370  20.022   7.650
 6008POPC   NC322883  12.122  12.064   9.450
 6008POPC   PO422884  12.119  12.085   9.150
 6008POPC   GL122885  12.035  12.064   8.850
 6008POPC   GL222886  12.066  11.992   8.850
 6008POPC   C1A22887  12.037  12.106   8.550
 6008POPC   D2A22888  12.105  12.051   8.250
 6008POPC   C3A22889  12.108  12.068   7.950
 6008POPC   C4A22890  12.119  12.031   7.650
 6008POPC   C1B22891  11.931  11.877   8.550
 6008POPC   C2B22892  12.012  11.889   8.250
 6008POPC   C3B22893  11.970  11.829   7.950
 6008POPC   C4B22894  11.973  11.881   7.650
 6009POPC   NC322895  28.399   2.803   9.450
 6009POPC   PO422896  28.327   2.771   9.150
 6009POPC   GL122897  28.368   2.759   8.850
 6009POPC   GL222898  28.424   2.682   8.850
 6009POPC   C1A22899  28.397   2.810   8.550
 6009POPC   D2A22900  28.352   2.759   8.250
 6009POPC   C3A22901  28.346   2.766   7.950
 6009POPC   C4A22902  28.362   2.773   7.650
 6009POPC   C1B22903  28.438   2.567   8.550
 6009POPC   C2B22904  28.494   2.498   8.250
 6009POPC   C3B22905  28.494   2.509   7.950
 6009POPC   C4B22906  28.435   2.554   7.650
 6010POPC   NC322907  14.362  30.655   9.450
 6010POPC   PO422908  14.358  30.652   9.150
 6010POPC   GL122909  14.429  30.744   8.850
 6010POPC   GL222910  14.529  30.685   8.850
 6010POPC   C1A22911  14.387  30.728   8.550
 6010POPC   D2A22912  14.448  30.723   8.250
 6010POPC   C3A22913  14.361  30.665   7.950
 6010POPC   C4A22914  14.449  30.739   7.650
 6010POPC   C1B22915  14.698  30.693   8.550
 6010POPC   C2B22916  14.643  30.693   8.250
 6010POPC   C3B22917  14.654  30.742   7.950
 6010POPC   C4B22918  14.610  30.756   7.650
 6011POPC   NC322919  33.772   7.424   9.450
 6011POPC   PO422920  33.763   7.380   9.150
 6011POPC   GL122921  33.760   7.467   8.850
 6011POPC   GL222922  33.758   7.325   8.850
 6011POPC   C1A22923  33.761   7.399   8.550
 6011POPC   D2A22924  33.803   7.371   8.250
 6011POPC   C3A22925  33.759   7.403   7.950
 6011POPC   C4A22926  33.761   7.433   7.650
 6011POPC   C1B22927  33.719   7.221   8.550
 6011POPC   C2B22928  33.725   7.179   8.250
 6011POPC   C3B22929  33.738   7.154   7.950
 6011POPC   C4B22930  33.765   7.133   7.650
 6012POPC   NC322931  42.340   2.759   9.450
 6012POPC   PO422932  42.350   2.747   9.150
 6012POPC   GL122933  42.369   2.752   8.850
 6012POPC   GL222934  42.425   2.663   8.850
 6012POPC   C1A22935  42.383   2.718   8.550
 6012POPC   D2A22936  42.363   2.724   8.250
 6012POPC   C3A22937  42.298   2.746   7.950
 6012POPC   C4A22938  42.337   2.742   7.650
 6012POPC   C1B22939  42.431   2.567   8.550
 6012POPC   C2B22940  42.522   2.530   8.250
 6012POPC   C3B22941  42.511   2.530   7.950
 6012POPC   C4B22942  42.459   2.595   7.650
 6013POPC   NC322943  33.783  30.720   9.450
 6013POPC   PO422944  33.750  30.710   9.150
 6013POPC   GL122945  33.778  30.654   8.850
 6013POPC   GL222946  33.731  30.544   8.850
 6013POPC   C1A22947  33.839  30.653   8.550
 6013POPC   D2A22948  33.846  30.678   8.250
 6013POPC   C3A22949  33.807  30.704   7.950
 6013POPC   C4A22950  33.784  30.690   7.650
 6013POPC   C1B22951  33.731  30.465   8.550
 6013POPC   C2B22952  33.706  30.478   8.250
 6013POPC   C3B22953  33.717  30.426   7.950
 6013POPC   C4B22954  33.733  30.477   7.650
 6014POPC   NC322955  19.815  40.736   9.450
 6014POPC   PO422956  19.826  40.794   9.150
 6014POPC   GL122957  19.818  40.828   8.850
 6014POPC   GL222958  19.908  40.690   8.850
 6014POPC   C1A22959  19.825  40.764   8.550
 6014POPC   D2A22960  19.884  40.750   8.250
 6014POPC   C3A22961  19.844  40.789   7.950
 6014POPC   C4A22962  19.792  40.777   7.650
 6014POPC   C1B22963  19.978  40.578   8.550
 6014POPC   C2B22964  19.934  40.565   8.250
 6014POPC   C3B22965  19.946  40.539   7.950
 6014POPC   C4B22966  20.004  40.552   7.650
 6015POPC   NC322967  30.724  26.824   9.450
 6015POPC   PO422968  30.707  26.854   9.150
 6015POPC   GL122969  30.683  26.771   8.850
 6015POPC   GL222970  30.706  26.730   8.850
 6015POPC   C1A22971  30.746  26.813   8.550
 6015POPC   D2A22972  30.652  26.816   8.250
 6015POPC   C3A22973  30.736  26.784   7.950
 6015POPC   C4A22974  30.729  26.798   7.650
 6015POPC   C1B22975  30.678  26.579   8.550
 6015POPC   C2B22976  30.623  26.528   8.250
 6015POPC   C3B22977  30.700  26.533   7.950
 6015POPC   C4B22978  30.650  26.567   7.650
 6016POPC   NC322979  19.102  30.730   9.450
 6016POPC   PO422980  19.046  30.696   9.150
 6016POPC   GL122981  19.064  30.691   8.850
 6016POPC   GL222982  19.179  30.621   8.850
 6016POPC   C1A22983  19.084  30.664   8.550
 6016POPC   D2A22984  19.049  30.664   8.250
 6016POPC   C3A22985  19.077  30.655   7.950
 6016POPC   C4A22986  19.041  30.676   7.650
 6016POPC   C1B22987  19.177  30.544   8.550
 6016POPC   C2B22988  19.249  30.498   8.250
 6016POPC   C3B22989  19.229  30.477   7.950
 6016POPC   C4B22990  19.243  30.485   7.650
 6017POPC   NC322991   3.553   8.925   9.450
 6017POPC   PO422992   3.501   8.937   9.150
 6017POPC   GL122993   3.575   9.001   8.850
 6017POPC   GL222994   3.402   8.956   8.850
 6017POPC   C1A22995   3.569   8.994   8.550
 6017POPC   D2A22996   3.535   8.942   8.250
 6017POPC   C3A22997   3.496   8.963   7.950
 6017POPC   C4A22998   3.589   8.970   7.650
 6017POPC   C1B22999   3.314   8.870   8.550
 6017POPC   C2B23000   3.271   8.926   8.250
 6017POPC   C3B23001   3.328   8.920   7.950
 6017POPC   C4B23002   3.265   8.927   7.650
 6018POPC   NC323003  43.061  13.625   9.450
 6018POPC   PO423004  43.069  13.642   9.150
 6018POPC   GL123005  43.097  13.672   8.850
 6018POPC   GL223006  43.171  13.695   8.850
 6018POPC   C1A23007  43.160  13.637   8.550
 6018POPC   D2A23008  43.132  13.611   8.250
 6018POPC   C3A23009  43.133  13.609   7.950
 6018POPC   C4A23010  43.153  13.666   7.650
 6018POPC   C1B23011  43.309  13.769   8.550
 6018POPC   C2B23012  43.252  13.844   8.250
 6018POPC   C3B23013  43.268  13.782   7.950
 6018POPC   C4B23014  43.301  13.801   7.650
 6019POPC   NC323015  21.402  21.380   9.450
 6019POPC   PO423016  21.339  21.435   9.150
 6019POPC   GL123017  21.363  21.375   8.850
 6019POPC   GL223018  21.406  21.244   8.850
 6019POPC   C1A23019  21.347  21.384   8.550
 6019POPC   D2A23020  21.348  21.356   8.250
 6019POPC   C3A23021  21.422  21.432   7.950
 6019POPC   C4A23022  21.397  21.425   7.650
 6019POPC   C1B23023  21.436  21.131   8.550
 6019POPC   C2B23024  21.448  21.155   8.250
 6019POPC   C3B23025  21.427  21.131   7.950
 6019POPC   C4B23026  21.426  21.145   7.650
 6020POPC   NC323027  12.116  44.652   9.450
 6020POPC   PO423028  12.033  44.636   9.150
 6020POPC   GL123029  12.084  44.616   8.850
 6020POPC   GL223030  12.014  44.578   8.850
 6020POPC   C1A23031  12.103  44.636   8.550
 6020POPC   D2A23032  12.073  44.682   8.250
 6020POPC   C3A23033  12.114  44.662   7.950
 6020POPC   C4A23034  12.060  44.635   7.650
 6020POPC   C1B23035  11.969  44.473   8.550
 6020POPC   C2B23036  11.990  44.466   8.250
 6020POPC   C3B23037  11.960  44.422   7.950
 6020POPC   C4B23038  11.997  44.420   7.650
 6021POPC   NC323039  26.803  31.445   9.450
 6021POPC   PO423040  26.777  31.514   9.150
 6021POPC   GL123041  26.842  31.430   8.850
 6021POPC   GL223042  26.943  31.387   8.850
 6021POPC   C1A23043  26.823  31.486   8.550
 6021POPC   D2A23044  26.844  31.514   8.250
 6021POPC   C3A23045  26.828  31.488   7.950
 6021POPC   C4A23046  26.825  31.451   7.650
 6021POPC   C1B23047  26.971  31.347   8.550
 6021POPC   C2B23048  26.957  31.308   8.250
 6021POPC   C3B23049  27.019  31.277   7.950
 6021POPC   C4B23050  27.008  31.292   7.650
 6022POPC   NC323051   8.203  39.224   9.450
 6022POPC   PO423052   8.180  39.250   9.150
 6022POPC   GL123053   8.221  39.190   8.850
 6022POPC   GL223054   8.350  39.253   8.850
 6022POPC   C1A23055   8.243  39.194   8.550
 6022POPC   D2A23056   8.192  39.258   8.250
 6022POPC   C3A23057   8.149  39.264   7.950
 6022POPC   C4A23058   8.235  39.234   7.650
 6022POPC   C1B23059   8.452  39.254   8.550
 6022POPC   C2B23060   8.403  39.268   8.250
 6022POPC   C3B23061   8.456  39.246   7.950
 6022POPC   C4B23062   8.468  39.199   7.650
 6023POPC   NC323063  31.428  42.309   9.450
 6023POPC   PO423064  31.468  42.285   9.150
 6023POPC   GL123065  31.468  42.351   8.850
 6023POPC   GL223066  31.346  42.397   8.850
 6023POPC   C1A23067  31.481  42.357   8.550
 6023POPC   D2A23068  31.515  42.326   8.250
 6023POPC   C3A23069  31.467  42.380   7.950
 6023POPC   C4A23070  31.432  42.297   7.650
 6023POPC   C1B23071  31.232  42.454   8.550
 6023POPC   C2B23072  31.280  42.496   8.250
 6023POPC   C3B23073  31.290  42.449   7.950
 6023POPC   C4B23074  31.254  42.489   7.650
 6024POPC   NC323075  12.807  37.702   9.450
 6024POPC   PO423076  12.804  37.676   9.150
 6024POPC   GL123077  12.890  37.656   8.850
 6024POPC   GL223078  13.022  37.708   8.850
 6024POPC   C1A23079  12.885  37.711   8.550
 6024POPC   D2A23080  12.845  37.680   8.250
 6024POPC   C3A23081  12.871  37.713   7.950
 6024POPC   C4A23082  12.901  37.698   7.650
 6024POPC   C1B23083  13.119  37.662   8.550
 6024POPC   C2B23084  13.093  37.650   8.250
 6024POPC   C3B23085  13.109  37.672   7.950
 6024POPC   C4B23086  13.076  37.650   7.650
 6025POPC   NC323087  26.013  27.561   9.450
 6025POPC   PO423088  26.043  27.545   9.150
 6025POPC   GL123089  26.080  27.629   8.850
 6025POPC   GL223090  26.003  27.462   8.850
 6025POPC   C1A23091  26.010  27.588   8.550
 6025POPC   D2A23092  26.084  27.553   8.250
 6025POPC   C3A23093  26.084  27.603   7.950
 6025POPC   C4A23094  26.014  27.576   7.650
 6025POPC   C1B23095  26.035  27.342   8.550
 6025POPC   C2B23096  26.078  27.342   8.250
 6025POPC   C3B23097  26.040  27.343   7.950
 6025POPC   C4B23098  26.001  27.362   7.650
 6026POPC   NC323099   0.466  12.877   9.450
 6026POPC   PO423100   0.445  12.875   9.150
 6026POPC   GL123101   0.431  12.843   8.850
 6026POPC   GL223102   0.324  12.976   8.850
 6026POPC   C1A23103   0.441  12.878   8.550
 6026POPC   D2A23104   0.441  12.896   8.250
 6026POPC   C3A23105   0.403  12.851   7.950
 6026POPC   C4A23106   0.396  12.820   7.650
 6026POPC   C1B23107   0.333  13.092   8.550
 6026POPC   C2B23108   0.241  13.062   8.250
 6026POPC   C3B23109   0.301  13.011   7.950
 6026POPC   C4B23110   0.270  13.030   7.650
 6027POPC   NC323111  37.648  14.356   9.450
 6027POPC   PO423112  37.720  14.358   9.150
 6027POPC   GL123113  37.697  14.444   8.850
 6027POPC   GL223114  37.721  14.274   8.850
 6027POPC   C1A23115  37.642  14.393   8.550
 6027POPC   D2A23116  37.674  14.403   8.250
 6027POPC   C3A23117  37.652  14.432   7.950
 6027POPC   C4A23118  37.704  14.365   7.650
 6027POPC   C1B23119  37.839  14.247   8.550
 6027POPC   C2B23120  37.811  14.192   8.250
 6027POPC   C3B23121  37.821  14.183   7.950
 6027POPC   C4B23122  37.871  14.198   7.650
 6028POPC   NC323123   8.228  42.366   9.450
 6028POPC   PO423124   8.167  42.302   9.150
 6028POPC   GL123125   8.165  42.334   8.850
 6028POPC   GL223126   8.119  42.347   8.850
 6028POPC   C1A23127   8.209  42.309   8.550
 6028POPC   D2A23128   8.179  42.318   8.250
 6028POPC   C3A23129   8.173  42.304   7.950
 6028POPC   C4A23130   8.232  42.315   7.650
 6028POPC   C1B23131   8.003  42.430   8.550
 6028POPC   C2B23132   7.936  42.438   8.250
 6028POPC   C3B23133   7.905  42.357   7.950
 6028POPC   C4B23134   8.002  42.420   7.650
 6029POPC   NC323135   2.808  31.512   9.450
 6029POPC   PO423136   2.762  31.518   9.150
 6029POPC   GL123137   2.814  31.452   8.850
 6029POPC   GL223138   2.906  31.407   8.850
 6029POPC   C1A23139   2.785  31.475   8.550
 6029POPC   D2A23140   2.784  31.459   8.250
 6029POPC   C3A23141   2.784  31.436   7.950
 6029POPC   C4A23142   2.811  31.497   7.650
 6029POPC   C1B23143   2.970  31.380   8.550
 6029POPC   C2B23144   3.061  31.426   8.250
 6029POPC   C3B23145   3.027  31.438   7.950
 6029POPC   C4B23146   2.979  31.393   7.650
 6030POPC   NC323147   1.980  22.925   9.450
 6030POPC   PO423148   1.998  22.940   9.150
 6030POPC   GL123149   2.004  22.924   8.850
 6030POPC   GL223150   2.067  22.901   8.850
 6030POPC   C1A23151   1.982  22.900   8.550
 6030POPC   D2A23152   1.947  22.914   8.250
 6030POPC   C3A23153   2.029  22.940   7.950
 6030POPC   C4A23154   1.947  22.978   7.650
 6030POPC   C1B23155   2.242  22.884   8.550
 6030POPC   C2B23156   2.265  22.901   8.250
 6030POPC   C3B23157   2.236  22.909   7.950
 6030POPC   C4B23158   2.222  22.952   7.650
 6031POPC   NC323159  36.167  39.271   9.450
 6031POPC   PO423160  36.148  39.235   9.150
 6031POPC   GL123161  36.118  39.228   8.850
 6031POPC   GL223162  36.250  39.339   8.850
 6031POPC   C1A23163  36.166  39.183   8.550
 6031POPC   D2A23164  36.113  39.217   8.250
 6031POPC   C3A23165  36.143  39.256   7.950
 6031POPC   C4A23166  36.094  39.277   7.650
 6031POPC   C1B23167  36.291  39.421   8.550
 6031POPC   C2B23168  36.311  39.359   8.250
 6031POPC   C3B23169  36.339  39.356   7.950
 6031POPC   C4B23170  36.358  39.338   7.650
 6032POPC   NC323171  36.873  41.573   9.450
 6032POPC   PO423172  36.891  41.571   9.150
 6032POPC   GL123173  36.911  41.529   8.850
 6032POPC   GL223174  36.798  41.447   8.850
 6032POPC   C1A23175  36.878  41.542   8.550
 6032POPC   D2A23176  36.925  41.512   8.250
 6032POPC   C3A23177  36.855  41.556   7.950
 6032POPC   C4A23178  36.858  41.539   7.650
 6032POPC   C1B23179  36.656  41.471   8.550
 6032POPC   C2B23180  36.647  41.456   8.250
 6032POPC   C3B23181  36.694  41.435   7.950
 6032POPC   C4B23182  36.715  41.425   7.650
 6033POPC   NC323183  22.972  29.169   9.450
 6033POPC   PO423184  22.979  29.100   9.150
 6033POPC   GL123185  22.970  29.161   8.850
 6033POPC   GL223186  23.051  29.219   8.850
 6033POPC   C1A23187  22.945  29.158   8.550
 6033POPC   D2A23188  22.913  29.183   8.250
 6033POPC   C3A23189  22.920  29.140   7.950
 6033POPC   C4A23190  22.967  29.114   7.650
 6033POPC   C1B23191  23.094  29.370   8.550
 6033POPC   C2B23192  23.034  29.388   8.250
 6033POPC   C3B23193  23.119  29.360   7.950
 6033POPC   C4B23194  23.095  29.377   7.650
 6034POPC   NC323195  18.264  10.552   9.450
 6034POPC   PO423196  18.300  10.492   9.150
 6034POPC   GL123197  18.328  10.524   8.850
 6034POPC   GL223198  18.324  10.398   8.850
 6034POPC   C1A23199  18.327  10.489   8.550
 6034POPC   D2A23200  18.260  10.522   8.250
 6034POPC   C3A23201  18.296  10.494   7.950
 6034POPC   C4A23202  18.252  10.545   7.650
 6034POPC   C1B23203  18.414  10.354   8.550
 6034POPC   C2B23204  18.490  10.375   8.250
 6034POPC   C3B23205  18.499  10.338   7.950
 6034POPC   C4B23206  18.442  10.364   7.650
 6035POPC   NC323207  28.369   9.738   9.450
 6035POPC   PO423208  28.406   9.748   9.150
 6035POPC   GL123209  28.398   9.731   8.850
 6035POPC   GL223210  28.200   9.765   8.850
 6035POPC   C1A23211  28.334   9.704   8.550
 6035POPC   D2A23212  28.366   9.755   8.250
 6035POPC   C3A23213  28.405   9.776   7.950
 6035POPC   C4A23214  28.347   9.758   7.650
 6035POPC   C1B23215  28.176   9.855   8.550
 6035POPC   C2B23216  28.141   9.777   8.250
 6035POPC   C3B23217  28.121   9.795   7.950
 6035POPC   C4B23218  28.107   9.776   7.650
 6036POPC   NC323219  44.652  40.022   9.450
 6036POPC   PO423220  44.693  39.977   9.150
 6036POPC   GL123221  44.638  40.006   8.850
 6036POPC   GL223222  44.645  40.122   8.850
 6036POPC   C1A23223  44.630  40.004   8.550
 6036POPC   D2A23224  44.712  40.003   8.250
 6036POPC   C3A23225  44.626  40.021   7.950
 6036POPC   C4A23226  44.624  40.004   7.650
 6036POPC   C1B23227  44.573  40.284   8.550
 6036POPC   C2B23228  44.581  40.192   8.250
 6036POPC   C3B23229  44.558  40.254   7.950
 6036POPC   C4B23230  44.564  40.250   7.650
 6037POPC   NC323231  12.076   2.730   9.450
 6037POPC   PO423232  12.105   2.790   9.150
 6037POPC   GL123233  12.083   2.814   8.850
 6037POPC   GL223234  12.021   2.875   8.850
 6037POPC   C1A23235  12.073   2.806   8.550
 6037POPC   D2A23236  12.058   2.789   8.250
 6037POPC   C3A23237  12.105   2.803   7.950
 6037POPC   C4A23238  12.077   2.754   7.650
 6037POPC   C1B23239  11.950   3.002   8.550
 6037POPC   C2B23240  11.924   2.927   8.250
 6037POPC   C3B23241  11.910   2.999   7.950
 6037POPC   C4B23242  11.943   2.964   7.650
 6038POPC   NC323243   4.332  18.310   9.450
 6038POPC   PO423244   4.280  18.265   9.150
 6038POPC   GL123245   4.363  18.257   8.850
 6038POPC   GL223246   4.428  18.319   8.850
 6038POPC   C1A23247   4.354  18.279   8.550
 6038POPC   D2A23248   4.350  18.302   8.250
 6038POPC   C3A23249   4.355  18.312   7.950
 6038POPC   C4A23250   4.321  18.319   7.650
 6038POPC   C1B23251   4.601  18.341   8.550
 6038POPC   C2B23252   4.581  18.349   8.250
 6038POPC   C3B23253   4.573  18.306   7.950
 6038POPC   C4B23254   4.592  18.260   7.650
 6039POPC   NC323255  36.120  36.938   9.450
 6039POPC   PO423256  36.121  36.939   9.150
 6039POPC   GL123257  36.084  36.904   8.850
 6039POPC   GL223258  35.989  36.960   8.850
 6039POPC   C1A23259  36.138  36.946   8.550
 6039POPC   D2A23260  36.092  36.894   8.250
 6039POPC   C3A23261  36.139  36.874   7.950
 6039POPC   C4A23262  36.151  36.875   7.650
 6039POPC   C1B23263  35.882  36.887   8.550
 6039POPC   C2B23264  35.832  36.963   8.250
 6039POPC   C3B23265  35.892  36.895   7.950
 6039POPC   C4B23266  35.888  36.968   7.650
 6040POPC   NC323267  29.913  35.321   9.450
 6040POPC   PO423268  29.965  35.361   9.150
 6040POPC   GL123269  29.893  35.344   8.850
 6040POPC   GL223270  29.936  35.504   8.850
 6040POPC   C1A23271  29.900  35.387   8.550
 6040POPC   D2A23272  29.953  35.361   8.250
 6040POPC   C3A23273  29.941  35.343   7.950
 6040POPC   C4A23274  29.897  35.340   7.650
 6040POPC   C1B23275  30.012  35.597   8.550
 6040POPC   C2B23276  30.033  35.567   8.250
 6040POPC   C3B23277  29.989  35.579   7.950
 6040POPC   C4B23278  30.048  35.580   7.650
 6041POPC   NC323279  28.415  12.811   9.450
 6041POPC   PO423280  28.339  12.888   9.150
 6041POPC   GL123281  28.361  12.844   8.850
 6041POPC   GL223282  28.322  12.769   8.850
 6041POPC   C1A23283  28.371  12.863   8.550
 6041POPC   D2A23284  28.413  12.833   8.250
 6041POPC   C3A23285  28.325  12.815   7.950
 6041POPC   C4A23286  28.383  12.814   7.650
 6041POPC   C1B23287  28.322  12.561   8.550
 6041POPC   C2B23288  28.344  12.578   8.250
 6041POPC   C3B23289  28.346  12.627   7.950
 6041POPC   C4B23290  28.286  12.606   7.650
 6042POPC   NC323291  41.524  17.512   9.450
 6042POPC   PO423292  41.600  17.468   9.150
 6042POPC   GL123293  41.570  17.470   8.850
 6042POPC   GL223294  41.528  17.672   8.850
 6042POPC   C1A23295  41.581  17.463   8.550
 6042POPC   D2A23296  41.589  17.534   8.250
 6042POPC   C3A23297  41.509  17.548   7.950
 6042POPC   C4A23298  41.578  17.463   7.650
 6042POPC   C1B23299  41.511  17.719   8.550
 6042POPC   C2B23300  41.486  17.708   8.250
 6042POPC   C3B23301  41.509  17.754   7.950
 6042POPC   C4B23302  41.543  17.739   7.650
 6043POPC   NC323303  42.367  31.476   9.450
 6043POPC   PO423304  42.365  31.515   9.150
 6043POPC   GL123305  42.320  31.461   8.850
 6043POPC   GL223306  42.243  31.375   8.850
 6043POPC   C1A23307  42.335  31.429   8.550
 6043POPC   D2A23308  42.314  31.494   8.250
 6043POPC   C3A23309  42.317  31.481   7.950
 6043POPC   C4A23310  42.287  31.440   7.650
 6043POPC   C1B23311  42.262  31.253   8.550
 6043POPC   C2B23312  42.220  31.227   8.250
 6043POPC   C3B23313  42.213  31.262   7.950
 6043POPC   C4B23314  42.241  31.203   7.650
 6044POPC   NC323315  43.073  44.630   9.450
 6044POPC   PO423316  43.079  44.646   9.150
 6044POPC   GL123317  43.152  44.646   8.850
 6044POPC   GL223318  43.190  44.585   8.850
 6044POPC   C1A23319  43.153  44.617   8.550
 6044POPC   D2A23320  43.070  44.651   8.250
 6044POPC   C3A23321  43.063  44.660   7.950
 6044POPC   C4A23322  43.123  44.688   7.650
 6044POPC   C1B23323  43.299  44.494   8.550
 6044POPC   C2B23324  43.301  44.567   8.250
 6044POPC   C3B23325  43.322  44.484   7.950
 6044POPC   C4B23326  43.310  44.520   7.650
 6045POPC   NC323327  17.505   4.290   9.450
 6045POPC   PO423328  17.529   4.347   9.150
 6045POPC   GL123329  17.555   4.321   8.850
 6045POPC   GL223330  17.349   4.317   8.850
 6045POPC   C1A23331  17.524   4.314   8.550
 6045POPC   D2A23332  17.481   4.310   8.250
 6045POPC   C3A23333  17.473   4.354   7.950
 6045POPC   C4A23334  17.476   4.341   7.650
 6045POPC   C1B23335  17.210   4.324   8.550
 6045POPC   C2B23336  17.219   4.340   8.250
 6045POPC   C3B23337  17.225   4.344   7.950
 6045POPC   C4B23338  17.233   4.316   7.650
 6046POPC   NC323339  25.315   2.772   9.450
 6046POPC   PO423340  25.315   2.729   9.150
 6046POPC   GL123341  25.297   2.757   8.850
 6046POPC   GL223342  25.140   2.732   8.850
 6046POPC   C1A23343  25.232   2.756   8.550
 6046POPC   D2A23344  25.264   2.802   8.250
 6046POPC   C3A23345  25.230   2.738   7.950
 6046POPC   C4A23346  25.238   2.813   7.650
 6046POPC   C1B23347  25.072   2.628   8.550
 6046POPC   C2B23348  25.026   2.658   8.250
 6046POPC   C3B23349  25.022   2.614   7.950
 6046POPC   C4B23350  25.023   2.646   7.650
 6047POPC   NC323351  11.281   9.771   9.450
 6047POPC   PO423352  11.254   9.755   9.150
 6047POPC   GL123353  11.269   9.781   8.850
 6047POPC   GL223354  11.408   9.681   8.850
 6047POPC   C1A23355  11.350   9.713   8.550
 6047POPC   D2A23356  11.328   9.749   8.250
 6047POPC   C3A23357  11.268   9.716   7.950
 6047POPC   C4A23358  11.328   9.782   7.650
 6047POPC   C1B23359  11.484   9.592   8.550
 6047POPC   C2B23360  11.448   9.532   8.250
 6047POPC   C3B23361  11.450   9.574   7.950
 6047POPC   C4B23362  11.431   9.592   7.650
 6048POPC   NC323363  17.466  42.357   9.450
 6048POPC   PO423364  17.529  42.358   9.150
 6048POPC   GL123365  17.492  42.362   8.850
 6048POPC   GL223366  17.612  42.187   8.850
 6048POPC   C1A23367  17.550  42.322   8.550
 6048POPC   D2A23368  17.529  42.345   8.250
 6048POPC   C3A23369  17.540  42.370   7.950
 6048POPC   C4A23370  17.462  42.353   7.650
 6048POPC   C1B23371  17.622  42.115   8.550
 6048POPC   C2B23372  17.599  42.151   8.250
 6048POPC   C3B23373  17.614  42.127   7.950
 6048POPC   C4B23374  17.603  42.091   7.650
 6049POPC   NC323375  41.571  28.377   9.450
 6049POPC   PO423376  41.541  28.388   9.150
 6049POPC   GL123377  41.522  28.354   8.850
 6049POPC   GL223378  41.471  28.391   8.850
 6049POPC   C1A23379  41.572  28.319   8.550
 6049POPC   D2A23380  41.550  28.385   8.250
 6049POPC   C3A23381  41.565  28.406   7.950
 6049POPC   C4A23382  41.595  28.404   7.650
 6049POPC   C1B23383  41.328  28.487   8.550
 6049POPC   C2B23384  41.285  28.489   8.250
 6049POPC   C3B23385  41.296  28.423   7.950
 6049POPC   C4B23386  41.368  28.493   7.650
 6050POPC   NC323387  43.888   4.322   9.450
 6050POPC   PO423388  43.933   4.357   9.150
 6050POPC   GL123389  43.923   4.327   8.850
 6050POPC   GL223390  44.042   4.251   8.850
 6050POPC   C1A23391  43.873   4.269   8.550
 6050POPC   D2A23392  43.929   4.316   8.250
 6050POPC   C3A23393  43.871   4.271   7.950
 6050POPC   C4A23394  43.856   4.279   7.650
 6050POPC   C1B23395  44.108   4.315   8.550
 6050POPC   C2B23396  44.144   4.317   8.250
 6050POPC   C3B23397  44.166   4.245   7.950
 6050POPC   C4B23398  44.128   4.245   7.650
 6051POPC   NC323399  39.244  39.972   9.450
 6051POPC   PO423400  39.183  39.962   9.150
 6051POPC   GL123401  39.238  40.027   8.850
 6051POPC   GL223402  39.286  40.152   8.850
 6051POPC   C1A23403  39.206  40.034   8.550
 6051POPC   D2A23404  39.247  39.976   8.250
 6051POPC   C3A23405  39.209  39.971   7.950
 6051POPC   C4A23406  39.232  39.984   7.650
 6051POPC   C1B23407  39.365  40.162   8.550
 6051POPC   C2B23408  39.358  40.192   8.250
 6051POPC   C3B23409  39.425  40.240   7.950
 6051POPC   C4B23410  39.411  40.166   7.650
 6052POPC   NC323411  28.336  15.975   9.450
 6052POPC   PO423412  28.328  15.969   9.150
 6052POPC   GL123413  28.394  15.965   8.850
 6052POPC   GL223414  28.213  15.934   8.850
 6052POPC   C1A23415  28.411  15.964   8.550
 6052POPC   D2A23416  28.326  15.909   8.250
 6052POPC   C3A23417  28.397  15.937   7.950
 6052POPC   C4A23418  28.345  15.937   7.650
 6052POPC   C1B23419  28.119  15.917   8.550
 6052POPC   C2B23420  28.132  15.897   8.250
 6052POPC   C3B23421  28.093  15.930   7.950
 6052POPC   C4B23422  28.166  15.893   7.650
 6053POPC   NC323423  29.122  35.371   9.450
 6053POPC   PO423424  29.139  35.387   9.150
 6053POPC   GL123425  29.107  35.390   8.850
 6053POPC   GL223426  29.204  35.199   8.850
 6053POPC   C1A23427  29.155  35.354   8.550
 6053POPC   D2A23428  29.135  35.308   8.250
 6053POPC   C3A23429  29.111  35.396   7.950
 6053POPC   C4A23430  29.139  35.369   7.650
 6053POPC   C1B23431  29.156  35.088   8.550
 6053POPC   C2B23432  29.180  35.082   8.250
 6053POPC   C3B23433  29.192  35.114   7.950
 6053POPC   C4B23434  29.187  35.085   7.650
 6054POPC   NC323435  12.095  18.271   9.450
 6054POPC   PO423436  12.060  18.288   9.150
 6054POPC   GL123437  12.100  18.295   8.850
 6054POPC   GL223438  12.238  18.283   8.850
 6054POPC   C1A23439  12.033  18.271   8.550
 6054POPC   D2A23440  12.080  18.246   8.250
 6054POPC   C3A23441  12.098  18.269   7.950
 6054POPC   C4A23442  12.057  18.290   7.650
 6054POPC   C1B23443  12.329  18.267   8.550
 6054POPC   C2B23444  12.368  18.279   8.250
 6054POPC   C3B23445  12.315  18.338   7.950
 6054POPC   C4B23446  12.370  18.241   7.650
 6055POPC   NC323447  29.192  33.771   9.450
 6055POPC   PO423448  29.108  33.833   9.150
 6055POPC   GL123449  29.172  33.799   8.850
 6055POPC   GL223450  29.165  33.952   8.850
 6055POPC   C1A23451  29.100  33.836   8.550
 6055POPC   D2A23452  29.120  33.765   8.250
 6055POPC   C3A23453  29.184  33.785   7.950
 6055POPC   C4A23454  29.114  33.763   7.650
 6055POPC   C1B23455  29.229  34.070   8.550
 6055POPC   C2B23456  29.244  34.024   8.250
 6055POPC   C3B23457  29.198  34.070   7.950
 6055POPC   C4B23458  29.252  34.069   7.650
 6056POPC   NC323459  33.037  17.484   9.450
 6056POPC   PO423460  32.995  17.519   9.150
 6056POPC   GL123461  32.983  17.468   8.850
 6056POPC   GL223462  33.066  17.630   8.850
 6056POPC   C1A23463  33.050  17.542   8.550
 6056POPC   D2A23464  32.985  17.515   8.250
 6056POPC   C3A23465  33.004  17.462   7.950
 6056POPC   C4A23466  33.044  17.506   7.650
 6056POPC   C1B23467  33.115  17.765   8.550
 6056POPC   C2B23468  33.087  17.738   8.250
 6056POPC   C3B23469  33.151  17.773   7.950
 6056POPC   C4B23470  33.114  17.709   7.650
 6057POPC   NC323471  29.124  36.134   9.450
 6057POPC   PO423472  29.145  36.177   9.150
 6057POPC   GL123473  29.119  36.153   8.850
 6057POPC   GL223474  29.037  36.125   8.850
 6057POPC   C1A23475  29.112  36.109   8.550
 6057POPC   D2A23476  29.166  36.140   8.250
 6057POPC   C3A23477  29.105  36.162   7.950
 6057POPC   C4A23478  29.118  36.141   7.650
 6057POPC   C1B23479  28.870  36.005   8.550
 6057POPC   C2B23480  28.902  36.004   8.250
 6057POPC   C3B23481  28.929  36.066   7.950
 6057POPC   C4B23482  28.937  36.034   7.650
 6058POPC   NC323483   9.785  40.793   9.450
 6058POPC   PO423484   9.741  40.780   9.150
 6058POPC   GL123485   9.790  40.818   8.850
 6058POPC   GL223486   9.895  40.760   8.850
 6058POPC   C1A23487   9.741  40.756   8.550
 6058POPC   D2A23488   9.701  40.739   8.250
 6058POPC   C3A23489   9.785  40.821   7.950
 6058POPC   C4A23490   9.732  40.802   7.650
 6058POPC   C1B23491   9.997  40.712   8.550
 6058POPC   C2B23492   9.966  40.675   8.250
 6058POPC   C3B23493   9.954  40.706   7.950
 6058POPC   C4B23494   9.967  40.679   7.650
 6059POPC   NC323495   5.892   0.417   9.450
 6059POPC   PO423496   5.911   0.412   9.150
 6059POPC   GL123497   5.829   0.420   8.850
 6059POPC   GL223498   5.883   0.306   8.850
 6059POPC   C1A23499   5.865   0.488   8.550
 6059POPC   D2A23500   5.895   0.477   8.250
 6059POPC   C3A23501   5.882   0.421   7.950
 6059POPC   C4A23502   5.845   0.389   7.650
 6059POPC   C1B23503   5.853   0.157   8.550
 6059POPC   C2B23504   5.914   0.224   8.250
 6059POPC   C3B23505   5.863   0.217   7.950
 6059POPC   C4B23506   5.913   0.183   7.650
 6060POPC   NC323507   8.994  34.568   9.450
 6060POPC   PO423508   8.986  34.539   9.150
 6060POPC   GL123509   8.980  34.625   8.850
 6060POPC   GL223510   9.058  34.580   8.850
 6060POPC   C1A23511   8.953  34.552   8.550
 6060POPC   D2A23512   8.959  34.529   8.250
 6060POPC   C3A23513   8.980  34.529   7.950
 6060POPC   C4A23514   8.950  34.553   7.650
 6060POPC   C1B23515   9.220  34.519   8.550
 6060POPC   C2B23516   9.200  34.449   8.250
 6060POPC   C3B23517   9.202  34.527   7.950
 6060POPC   C4B23518   9.166  34.466   7.650
 6061POPC   NC323519  10.545  36.140   9.450
 6061POPC   PO423520  10.508  36.168   9.150
 6061POPC   GL123521  10.483  36.170   8.850
 6061POPC   GL223522  10.401  36.191   8.850
 6061POPC   C1A23523  10.562  36.102   8.550
 6061POPC   D2A23524  10.514  36.079   8.250
 6061POPC   C3A23525  10.562  36.084   7.950
 6061POPC   C4A23526  10.476  36.112   7.650
 6061POPC   C1B23527  10.340  36.269   8.550
 6061POPC   C2B23528  10.330  36.291   8.250
 6061POPC   C3B23529  10.359  36.310   7.950
 6061POPC   C4B23530  10.365  36.249   7.650
 6062POPC   NC323531  28.348   7.417   9.450
 6062POPC   PO423532  28.417   7.388   9.150
 6062POPC   GL123533  28.340   7.420   8.850
 6062POPC   GL223534  28.338   7.506   8.850
 6062POPC   C1A23535  28.388   7.464   8.550
 6062POPC   D2A23536  28.369   7.395   8.250
 6062POPC   C3A23537  28.346   7.410   7.950
 6062POPC   C4A23538  28.410   7.392   7.650
 6062POPC   C1B23539  28.266   7.594   8.550
 6062POPC   C2B23540  28.210   7.639   8.250
 6062POPC   C3B23541  28.235   7.642   7.950
 6062POPC   C4B23542  28.219   7.631   7.650
 6063POPC   NC323543  22.930  36.914   9.450
 6063POPC   PO423544  22.943  36.860   9.150
 6063POPC   GL123545  22.912  36.877   8.850
 6063POPC   GL223546  22.811  36.946   8.850
 6063POPC   C1A23547  22.964  36.873   8.550
 6063POPC   D2A23548  22.928  36.922   8.250
 6063POPC   C3A23549  22.937  36.866   7.950
 6063POPC   C4A23550  22.914  36.881   7.650
 6063POPC   C1B23551  22.719  37.029   8.550
 6063POPC   C2B23552  22.713  37.074   8.250
 6063POPC   C3B23553  22.695  37.012   7.950
 6063POPC   C4B23554  22.717  37.013   7.650
 6064POPC   NC323555  12.842  33.774   9.450
 6064POPC   PO423556  12.850  33.799   9.150
 6064POPC   GL123557  12.804  33.754   8.850
 6064POPC   GL223558  12.985  33.851   8.850
 6064POPC   C1A23559  12.879  33.782   8.550
 6064POPC   D2A23560  12.893  33.804   8.250
 6064POPC   C3A23561  12.841  33.840   7.950
 6064POPC   C4A23562  12.823  33.812   7.650
 6064POPC   C1B23563  13.094  33.816   8.550
 6064POPC   C2B23564  13.137  33.851   8.250
 6064POPC   C3B23565  13.150  33.797   7.950
 6064POPC   C4B23566  13.074  33.795   7.650
 6065POPC   NC323567  44.647  31.462   9.450
 6065POPC   PO423568  44.630  31.475   9.150
 6065POPC   GL123569  44.639  31.429   8.850
 6065POPC   GL223570  44.784  31.363   8.850
 6065POPC   C1A23571  44.705  31.482   8.550
 6065POPC   D2A23572  44.677  31.487   8.250
 6065POPC   C3A23573  44.625  31.435   7.950
 6065POPC   C4A23574  44.619  31.496   7.650
 6065POPC   C1B23575  44.852  31.377   8.550
 6065POPC   C2B23576  44.828  31.312   8.250
 6065POPC   C3B23577  44.907  31.307   7.950
 6065POPC   C4B23578  44.905  31.335   7.650
 6066POPC   NC323579   8.998  27.596   9.450
 6066POPC   PO423580   8.964  27.575   9.150
 6066POPC   GL123581   8.961  27.627   8.850
 6066POPC   GL223582   8.970  27.468   8.850
 6066POPC   C1A23583   9.009  27.556   8.550
 6066POPC   D2A23584   9.009  27.611   8.250
 6066POPC   C3A23585   8.954  27.586   7.950
 6066POPC   C4A23586   8.943  27.590   7.650
 6066POPC   C1B23587   8.985  27.332   8.550
 6066POPC   C2B23588   8.908  27.342   8.250
 6066POPC   C3B23589   8.994  27.348   7.950
 6066POPC   C4B23590   8.915  27.353   7.650
 6067POPC   NC323591   2.763  33.847   9.450
 6067POPC   PO423592   2.735  33.813   9.150
 6067POPC   GL123593   2.772  33.780   8.850
 6067POPC   GL223594   2.885  33.727   8.850
 6067POPC   C1A23595   2.717  33.820   8.550
 6067POPC   D2A23596   2.796  33.778   8.250
 6067POPC   C3A23597   2.785  33.815   7.950
 6067POPC   C4A23598   2.808  33.842   7.650
 6067POPC   C1B23599   2.895  33.627   8.550
 6067POPC   C2B23600   2.925  33.580   8.250
 6067POPC   C3B23601   2.946  33.589   7.950
 6067POPC   C4B23602   2.897  33.603   7.650
 6068POPC   NC323603  31.471   9.759   9.450
 6068POPC   PO423604  31.472   9.713   9.150
 6068POPC   GL123605  31.489   9.786   8.850
 6068POPC   GL223606  31.457   9.654   8.850
 6068POPC   C1A23607  31.477   9.754   8.550
 6068POPC   D2A23608  31.430   9.705   8.250
 6068POPC   C3A23609  31.437   9.785   7.950
 6068POPC   C4A23610  31.435   9.760   7.650
 6068POPC   C1B23611  31.475   9.545   8.550
 6068POPC   C2B23612  31.490   9.481   8.250
 6068POPC   C3B23613  31.497   9.546   7.950
 6068POPC   C4B23614  31.470   9.524   7.650
 6069POPC   NC323615  36.164  13.581   9.450
 6069POPC   PO423616  36.091  13.611   9.150
 6069POPC   GL123617  36.177  13.639   8.850
 6069POPC   GL223618  36.228  13.702   8.850
 6069POPC   C1A23619  36.163  13.666   8.550
 6069POPC   D2A23620  36.119  13.585   8.250
 6069POPC   C3A23621  36.170  13.636   7.950
 6069POPC   C4A23622  36.103  13.629   7.650
 6069POPC   C1B23623  36.295  13.800   8.550
 6069POPC   C2B23624  36.255  13.786   8.250
 6069POPC   C3B23625  36.257  13.819   7.950
 6069POPC   C4B23626  36.285  13.784   7.650
 6070POPC   NC323627  40.778  33.028   9.450
 6070POPC   PO423628  40.791  33.023   9.150
 6070POPC   GL123629  40.779  33.046   8.850
 6070POPC   GL223630  40.658  33.094   8.850
 6070POPC   C1A23631  40.813  33.052   8.550
 6070POPC   D2A23632  40.801  33.040   8.250
 6070POPC   C3A23633  40.783  33.074   7.950
 6070POPC   C4A23634  40.790  32.993   7.650
 6070POPC   C1B23635  40.613  33.225   8.550
 6070POPC   C2B23636  40.653  33.178   8.250
 6070POPC   C3B23637  40.625  33.242   7.950
 6070POPC   C4B23638  40.571  33.153   7.650
 6071POPC   NC323639  30.667  21.382   9.450
 6071POPC   PO423640  30.743  21.430   9.150
 6071POPC   GL123641  30.699  21.381   8.850
 6071POPC   GL223642  30.621  21.447   8.850
 6071POPC   C1A23643  30.685  21.416   8.550
 6071POPC   D2A23644  30.712  21.433   8.250
 6071POPC   C3A23645  30.672  21.376   7.950
 6071POPC   C4A23646  30.723  21.431   7.650
 6071POPC   C1B23647  30.489  21.520   8.550
 6071POPC   C2B23648  30.461  21.548   8.250
 6071POPC   C3B23649  30.484  21.484   7.950
 6071POPC   C4B23650  30.444  21.503   7.650
 6072POPC   NC323651   2.805   7.449   9.450
 6072POPC   PO423652   2.741   7.432   9.150
 6072POPC   GL123653   2.771   7.458   8.850
 6072POPC   GL223654   2.878   7.442   8.850
 6072POPC   C1A23655   2.811   7.431   8.550
 6072POPC   D2A23656   2.771   7.380   8.250
 6072POPC   C3A23657   2.739   7.451   7.950
 6072POPC   C4A23658   2.809   7.398   7.650
 6072POPC   C1B23659   3.037   7.448   8.550
 6072POPC   C2B23660   3.018   7.491   8.250
 6072POPC   C3B23661   3.029   7.506   7.950
 6072POPC   C4B23662   3.037   7.539   7.650
 6073POPC   NC323663  33.802  29.164   9.450
 6073POPC   PO423664  33.789  29.180   9.150
 6073POPC   GL123665  33.846  29.136   8.850
 6073POPC   GL223666  33.960  29.141   8.850
 6073POPC   C1A23667  33.798  29.132   8.550
 6073POPC   D2A23668  33.770  29.107   8.250
 6073POPC   C3A23669  33.806  29.149   7.950
 6073POPC   C4A23670  33.844  29.143   7.650
 6073POPC   C1B23671  34.054  29.101   8.550
 6073POPC   C2B23672  34.096  29.101   8.250
 6073POPC   C3B23673  34.012  29.079   7.950
 6073POPC   C4B23674  34.048  29.075   7.650
 6074POPC   NC323675   2.758  30.745   9.450
 6074POPC   PO423676   2.796  30.735   9.150
 6074POPC   GL123677   2.755  30.671   8.850
 6074POPC   GL223678   2.669  30.678   8.850
 6074POPC   C1A23679   2.735  30.667   8.550
 6074POPC   D2A23680   2.724  30.673   8.250
 6074POPC   C3A23681   2.772  30.694   7.950
 6074POPC   C4A23682   2.809  30.732   7.650
 6074POPC   C1B23683   2.543  30.768   8.550
 6074POPC   C2B23684   2.519  30.707   8.250
 6074POPC   C3B23685   2.523  30.791   7.950
 6074POPC   C4B23686   2.487  30.784   7.650
 6075POPC   NC323687  38.469   5.044   9.450
 6075POPC   PO423688  38.452   5.068   9.150
 6075POPC   GL123689  38.439   5.072   8.850
 6075POPC   GL223690  38.321   5.096   8.850
 6075POPC   C1A23691  38.467   5.076   8.550
 6075POPC   D2A23692  38.424   5.131   8.250
 6075POPC   C3A23693  38.479   5.141   7.950
 6075POPC   C4A23694  38.454   5.080   7.650
 6075POPC   C1B23695  38.238   5.081   8.550
 6075POPC   C2B23696  38.250   5.050   8.250
 6075POPC   C3B23697  38.156   5.133   7.950
 6075POPC   C4B23698  38.201   5.139   7.650
 6076POPC   NC323699  20.595  21.383   9.450
 6076POPC   PO423700  20.647  21.360   9.150
 6076POPC   GL123701  20.563  21.346   8.850
 6076POPC   GL223702  20.733  21.483   8.850
 6076POPC   C1A23703  20.652  21.369   8.550
 6076POPC   D2A23704  20.583  21.420   8.250
 6076POPC   C3A23705  20.615  21.343   7.950
 6076POPC   C4A23706  20.574  21.433   7.650
 6076POPC   C1B23707  20.754  21.564   8.550
 6076POPC   C2B23708  20.721  21.577   8.250
 6076POPC   C3B23709  20.798  21.626   7.950
 6076POPC   C4B23710  20.740  21.553   7.650
 6077POPC   NC323711  39.987  20.560   9.450
 6077POPC   PO423712  40.030  20.659   9.150
 6077POPC   GL123713  40.009  20.570   8.850
 6077POPC   GL223714  39.862  20.676   8.850
 6077POPC   C1A23715  40.032  20.656   8.550
 6077POPC   D2A23716  40.050  20.591   8.250
 6077POPC   C3A23717  40.010  20.630   7.950
 6077POPC   C4A23718  39.991  20.565   7.650
 6077POPC   C1B23719  39.723  20.632   8.550
 6077POPC   C2B23720  39.813  20.676   8.250
 6077POPC   C3B23721  39.803  20.688   7.950
 6077POPC   C4B23722  39.760  20.683   7.650
 6078POPC   NC323723  43.081  22.169   9.450
 6078POPC   PO423724  43.070  22.177   9.150
 6078POPC   GL123725  43.132  22.211   8.850
 6078POPC   GL223726  43.214  22.203   8.850
 6078POPC   C1A23727  43.128  22.182   8.550
 6078POPC   D2A23728  43.122  22.177   8.250
 6078POPC   C3A23729  43.136  22.201   7.950
 6078POPC   C4A23730  43.125  22.130   7.650
 6078POPC   C1B23731  43.351  22.228   8.550
 6078POPC   C2B23732  43.349  22.182   8.250
 6078POPC   C3B23733  43.388  22.155   7.950
 6078POPC   C4B23734  43.335  22.227   7.650
 6079POPC   NC323735  30.678  24.535   9.450
 6079POPC   PO423736  30.727  24.469   9.150
 6079POPC   GL123737  30.703  24.484   8.850
 6079POPC   GL223738  30.640  24.434   8.850
 6079POPC   C1A23739  30.695  24.472   8.550
 6079POPC   D2A23740  30.668  24.529   8.250
 6079POPC   C3A23741  30.697  24.482   7.950
 6079POPC   C4A23742  30.705  24.453   7.650
 6079POPC   C1B23743  30.504  24.338   8.550
 6079POPC   C2B23744  30.568  24.303   8.250
 6079POPC   C3B23745  30.532  24.253   7.950
 6079POPC   C4B23746  30.578  24.308   7.650
 6080POPC   NC323747   8.198  17.492   9.450
 6080POPC   PO423748   8.227  17.486   9.150
 6080POPC   GL123749   8.228  17.521   8.850
 6080POPC   GL223750   8.244  17.620   8.850
 6080POPC   C1A23751   8.166  17.499   8.550
 6080POPC   D2A23752   8.197  17.517   8.250
 6080POPC   C3A23753   8.227  17.546   7.950
 6080POPC   C4A23754   8.246  17.488   7.650
 6080POPC   C1B23755   8.347  17.752   8.550
 6080POPC   C2B23756   8.306  17.763   8.250
 6080POPC   C3B23757   8.291  17.702   7.950
 6080POPC   C4B23758   8.374  17.671   7.650
 6081POPC   NC323759  15.918  22.923   9.450
 6081POPC   PO423760  15.939  22.915   9.150
 6081POPC   GL123761  15.999  22.940   8.850
 6081POPC   GL223762  15.806  22.965   8.850
 6081POPC   C1A23763  16.003  22.891   8.550
 6081POPC   D2A23764  15.983  22.916   8.250
 6081POPC   C3A23765  15.996  22.985   7.950
 6081POPC   C4A23766  15.948  22.897   7.650
 6081POPC   C1B23767  15.704  23.026   8.550
 6081POPC   C2B23768  15.667  22.982   8.250
 6081POPC   C3B23769  15.722  22.994   7.950
 6081POPC   C4B23770  15.665  22.970   7.650
 6082POPC   NC323771  19.806  30.662   9.450
 6082POPC   PO423772  19.796  30.670   9.150
 6082POPC   GL123773  19.881  30.720   8.850
 6082POPC   GL223774  19.667  30.696   8.850
 6082POPC   C1A23775  19.821  30.726   8.550
 6082POPC   D2A23776  19.839  30.698   8.250
 6082POPC   C3A23777  19.852  30.699   7.950
 6082POPC   C4A23778  19.874  30.728   7.650
 6082POPC   C1B23779  19.629  30.643   8.550
 6082POPC   C2B23780  19.550  30.623   8.250
 6082POPC   C3B23781  19.546  30.677   7.950
 6082POPC   C4B23782  19.562  30.698   7.650
 6083POPC   NC323783  42.286  28.405   9.450
 6083POPC   PO423784  42.287  28.346   9.150
 6083POPC   GL123785  42.325  28.323   8.850
 6083POPC   GL223786  42.258  28.244   8.850
 6083POPC   C1A23787  42.289  28.381   8.550
 6083POPC   D2A23788  42.343  28.392   8.250
 6083POPC   C3A23789  42.285  28.387   7.950
 6083POPC   C4A23790  42.326  28.333   7.650
 6083POPC   C1B23791  42.163  28.259   8.550
 6083POPC   C2B23792  42.119  28.176   8.250
 6083POPC   C3B23793  42.108  28.186   7.950
 6083POPC   C4B23794  42.098  28.242   7.650
 6084POPC   NC323795  15.190  42.321   9.450
 6084POPC   PO423796  15.229  42.321   9.150
 6084POPC   GL123797  15.149  42.336   8.850
 6084POPC   GL223798  15.198  42.203   8.850
 6084POPC   C1A23799  15.177  42.300   8.550
 6084POPC   D2A23800  15.208  42.303   8.250
 6084POPC   C3A23801  15.160  42.301   7.950
 6084POPC   C4A23802  15.178  42.372   7.650
 6084POPC   C1B23803  15.197  42.093   8.550
 6084POPC   C2B23804  15.228  42.039   8.250
 6084POPC   C3B23805  15.194  42.097   7.950
 6084POPC   C4B23806  15.173  42.129   7.650
 6085POPC   NC323807   1.246  27.634   9.450
 6085POPC   PO423808   1.200  27.552   9.150
 6085POPC   GL123809   1.169  27.591   8.850
 6085POPC   GL223810   1.105  27.642   8.850
 6085POPC   C1A23811   1.230  27.607   8.550
 6085POPC   D2A23812   1.235  27.593   8.250
 6085POPC   C3A23813   1.233  27.599   7.950
 6085POPC   C4A23814   1.193  27.567   7.650
 6085POPC   C1B23815   1.074  27.741   8.550
 6085POPC   C2B23816   1.009  27.750   8.250
 6085POPC   C3B23817   1.000  27.710   7.950
 6085POPC   C4B23818   1.055  27.771   7.650
 6086POPC   NC323819  44.635  33.847   9.450
 6086POPC   PO423820  44.632  33.756   9.150
 6086POPC   GL123821  44.622  33.805   8.850
 6086POPC   GL223822  44.762  33.847   8.850
 6086POPC   C1A23823  44.634  33.849   8.550
 6086POPC   D2A23824  44.697  33.813   8.250
 6086POPC   C3A23825  44.640  33.825   7.950
 6086POPC   C4A23826  44.634  33.773   7.650
 6086POPC   C1B23827  44.794  33.964   8.550
 6086POPC   C2B23828  44.842  33.978   8.250
 6086POPC   C3B23829  44.785  33.939   7.950
 6086POPC   C4B23830  44.836  34.029   7.650
 6087POPC   NC323831  17.499   9.719   9.450
 6087POPC   PO423832  17.547   9.730   9.150
 6087POPC   GL123833  17.552   9.729   8.850
 6087POPC   GL223834  17.453   9.855   8.850
 6087POPC   C1A23835  17.483   9.722   8.550
 6087POPC   D2A23836  17.490   9.798   8.250
 6087POPC   C3A23837  17.529   9.751   7.950
 6087POPC   C4A23838  17.476   9.727   7.650
 6087POPC   C1B23839  17.465   9.954   8.550
 6087POPC   C2B23840  17.484   9.970   8.250
 6087POPC   C3B23841  17.459  10.029   7.950
 6087POPC   C4B23842  17.473   9.983   7.650
 6088POPC   NC323843  29.955   7.388   9.450
 6088POPC   PO423844  29.935   7.421   9.150
 6088POPC   GL123845  29.922   7.409   8.850
 6088POPC   GL223846  30.036   7.468   8.850
 6088POPC   C1A23847  29.873   7.378   8.550
 6088POPC   D2A23848  29.885   7.466   8.250
 6088POPC   C3A23849  29.920   7.384   7.950
 6088POPC   C4A23850  29.935   7.407   7.650
 6088POPC   C1B23851  30.132   7.536   8.550
 6088POPC   C2B23852  30.151   7.497   8.250
 6088POPC   C3B23853  30.175   7.540   7.950
 6088POPC   C4B23854  30.164   7.561   7.650
 6089POPC   NC323855  19.059  22.204   9.450
 6089POPC   PO423856  19.094  22.183   9.150
 6089POPC   GL123857  19.014  22.208   8.850
 6089POPC   GL223858  18.922  22.117   8.850
 6089POPC   C1A23859  19.106  22.140   8.550
 6089POPC   D2A23860  19.068  22.115   8.250
 6089POPC   C3A23861  19.074  22.180   7.950
 6089POPC   C4A23862  19.090  22.201   7.650
 6089POPC   C1B23863  18.874  22.037   8.550
 6089POPC   C2B23864  18.829  22.035   8.250
 6089POPC   C3B23865  18.797  22.016   7.950
 6089POPC   C4B23866  18.883  22.072   7.650
 6090POPC   NC323867  24.442  24.459   9.450
 6090POPC   PO423868  24.460  24.499   9.150
 6090POPC   GL123869  24.499  24.464   8.850
 6090POPC   GL223870  24.378  24.477   8.850
 6090POPC   C1A23871  24.465  24.520   8.550
 6090POPC   D2A23872  24.508  24.523   8.250
 6090POPC   C3A23873  24.479  24.540   7.950
 6090POPC   C4A23874  24.504  24.479   7.650
 6090POPC   C1B23875  24.214  24.438   8.550
 6090POPC   C2B23876  24.263  24.508   8.250
 6090POPC   C3B23877  24.211  24.465   7.950
 6090POPC   C4B23878  24.223  24.483   7.650
 6091POPC   NC323879   8.234   6.605   9.450
 6091POPC   PO423880   8.219   6.668   9.150
 6091POPC   GL123881   8.221   6.622   8.850
 6091POPC   GL223882   8.284   6.750   8.850
 6091POPC   C1A23883   8.188   6.695   8.550
 6091POPC   D2A23884   8.187   6.602   8.250
 6091POPC   C3A23885   8.234   6.664   7.950
 6091POPC   C4A23886   8.183   6.597   7.650
 6091POPC   C1B23887   8.387   6.828   8.550
 6091POPC   C2B23888   8.331   6.834   8.250
 6091POPC   C3B23889   8.358   6.801   7.950
 6091POPC   C4B23890   8.404   6.787   7.650
 6092POPC   NC323891  18.291  21.348   9.450
 6092POPC   PO423892  18.237  21.396   9.150
 6092POPC   GL123893  18.328  21.411   8.850
 6092POPC   GL223894  18.274  21.245   8.850
 6092POPC   C1A23895  18.306  21.373   8.550
 6092POPC   D2A23896  18.299  21.384   8.250
 6092POPC   C3A23897  18.233  21.430   7.950
 6092POPC   C4A23898  18.286  21.398   7.650
 6092POPC   C1B23899  18.338  21.146   8.550
 6092POPC   C2B23900  18.296  21.154   8.250
 6092POPC   C3B23901  18.379  21.161   7.950
 6092POPC   C4B23902  18.352  21.098   7.650
 6093POPC   NC323903  20.570   8.170   9.450
 6093POPC   PO423904  20.631   8.156   9.150
 6093POPC   GL123905  20.608   8.202   8.850
 6093POPC   GL223906  20.734   8.293   8.850
 6093POPC   C1A23907  20.566   8.235   8.550
 6093POPC   D2A23908  20.604   8.213   8.250
 6093POPC   C3A23909  20.642   8.147   7.950
 6093POPC   C4A23910  20.635   8.158   7.650
 6093POPC   C1B23911  20.816   8.430   8.550
 6093POPC   C2B23912  20.735   8.339   8.250
 6093POPC   C3B23913  20.773   8.380   7.950
 6093POPC   C4B23914  20.803   8.415   7.650
 6094POPC   NC323915   1.245  17.458   9.450
 6094POPC   PO423916   1.234  17.546   9.150
 6094POPC   GL123917   1.166  17.525   8.850
 6094POPC   GL223918   1.259  17.399   8.850
 6094POPC   C1A23919   1.248  17.533   8.550
 6094POPC   D2A23920   1.236  17.487   8.250
 6094POPC   C3A23921   1.179  17.553   7.950
 6094POPC   C4A23922   1.210  17.548   7.650
 6094POPC   C1B23923   1.225  17.281   8.550
 6094POPC   C2B23924   1.292  17.225   8.250
 6094POPC   C3B23925   1.255  17.269   7.950
 6094POPC   C4B23926   1.296  17.213   7.650
 6095POPC   NC323927  13.612   9.761   9.450
 6095POPC   PO423928  13.601   9.772   9.150
 6095POPC   GL123929  13.658   9.775   8.850
 6095POPC   GL223930  13.504   9.643   8.850
 6095POPC   C1A23931  13.665   9.743   8.550
 6095POPC   D2A23932  13.649   9.713   8.250
 6095POPC   C3A23933  13.606   9.731   7.950
 6095POPC   C4A23934  13.607   9.778   7.650
 6095POPC   C1B23935  13.412   9.586   8.550
 6095POPC   C2B23936  13.482   9.547   8.250
 6095POPC   C3B23937  13.481   9.528   7.950
 6095POPC   C4B23938  13.491   9.542   7.650
 6096POPC   NC323939   1.229  12.116   9.450
 6096POPC   PO423940   1.177  12.120   9.150
 6096POPC   GL123941   1.213  12.098   8.850
 6096POPC   GL223942   1.308  12.117   8.850
 6096POPC   C1A23943   1.180  12.037   8.550
 6096POPC   D2A23944   1.230  12.113   8.250
 6096POPC   C3A23945   1.198  12.122   7.950
 6096POPC   C4A23946   1.209  12.076   7.650
 6096POPC   C1B23947   1.490  12.119   8.550
 6096POPC   C2B23948   1.432  12.066   8.250
 6096POPC   C3B23949   1.466  12.126   7.950
 6096POPC   C4B23950   1.475  12.096   7.650
 6097POPC   NC323951  33.811   8.944   9.450
 6097POPC   PO423952  33.797   8.923   9.150
 6097POPC   GL123953  33.797   8.972   8.850
 6097POPC   GL223954  33.966   9.018   8.850
 6097POPC   C1A23955  33.810   8.942   8.550
 6097POPC   D2A23956  33.784   8.956   8.250
 6097POPC   C3A23957  33.847   9.022   7.950
 6097POPC   C4A23958  33.831   9.003   7.650
 6097POPC   C1B23959  34.076   9.047   8.550
 6097POPC   C2B23960  34.080   9.087   8.250
 6097POPC   C3B23961  34.039   9.070   7.950
 6097POPC   C4B23962  34.009   9.100   7.650
 6098POPC   NC323963  34.621   0.476   9.450
 6098POPC   PO423964  34.559   0.423   9.150
 6098POPC   GL123965  34.602   0.483   8.850
 6098POPC   GL223966  34.661   0.564   8.850
 6098POPC   C1A23967  34.607   0.434   8.550
 6098POPC   D2A23968  34.592   0.428   8.250
 6098POPC   C3A23969  34.563   0.458   7.950
 6098POPC   C4A23970  34.586   0.435   7.650
 6098POPC   C1B23971  34.771   0.570   8.550
 6098POPC   C2B23972  34.779   0.572   8.250
 6098POPC   C3B23973  34.798   0.615   7.950
 6098POPC   C4B23974  34.777   0.614   7.650
 6099POPC   NC323975  15.191  34.574   9.450
 6099POPC   PO423976  15.138  34.536   9.150
 6099POPC   GL123977  15.227  34.544   8.850
 6099POPC   GL223978  15.143  34.425   8.850
 6099POPC   C1A23979  15.178  34.531   8.550
 6099POPC   D2A23980  15.156  34.576   8.250
 6099POPC   C3A23981  15.205  34.572   7.950
 6099POPC   C4A23982  15.163  34.563   7.650
 6099POPC   C1B23983  15.183  34.335   8.550
 6099POPC   C2B23984  15.203  34.374   8.250
 6099POPC   C3B23985  15.174  34.319   7.950
 6099POPC   C4B23986  15.196  34.284   7.650
 6100POPC   NC323987  29.915  37.634   9.450
 6100POPC   PO423988  29.912  37.635   9.150
 6100POPC   GL123989  29.946  37.715   8.850
 6100POPC   GL223990  29.822  37.551   8.850
 6100POPC   C1A23991  29.951  37.692   8.550
 6100POPC   D2A23992  29.956  37.724   8.250
 6100POPC   C3A23993  29.915  37.709   7.950
 6100POPC   C4A23994  29.900  37.718   7.650
 6100POPC   C1B23995  29.798  37.454   8.550
 6100POPC   C2B23996  29.769  37.474   8.250
 6100POPC   C3B23997  29.760  37.459   7.950
 6100POPC   C4B23998  29.777  37.475   7.650
 6101POPC   NC323999  39.975  41.509   9.450
 6101POPC   PO424000  40.042  41.528   9.150
 6101POPC   GL124001  40.029  41.513   8.850
 6101POPC   GL224002  40.128  41.488   8.850
 6101POPC   C1A24003  39.961  41.570   8.550
 6101POPC   D2A24004  40.011  41.519   8.250
 6101POPC   C3A24005  39.977  41.526   7.950
 6101POPC   C4A24006  40.047  41.551   7.650
 6101POPC   C1B24007  40.259  41.458   8.550
 6101POPC   C2B24008  40.214  41.517   8.250
 6101POPC   C3B24009  40.267  41.537   7.950
 6101POPC   C4B24010  40.225  41.493   7.650
 6102POPC   NC324011  31.454  40.771   9.450
 6102POPC   PO424012  31.505  40.749   9.150
 6102POPC   GL124013  31.480  40.772   8.850
 6102POPC   GL224014  31.571  40.907   8.850
 6102POPC   C1A24015  31.425  40.739   8.550
 6102POPC   D2A24016  31.503  40.818   8.250
 6102POPC   C3A24017  31.438  40.771   7.950
 6102POPC   C4A24018  31.447  40.788   7.650
 6102POPC   C1B24019  31.715  40.919   8.550
 6102POPC   C2B24020  31.692  40.945   8.250
 6102POPC   C3B24021  31.684  40.959   7.950
 6102POPC   C4B24022  31.647  40.928   7.650
 6103POPC   NC324023  38.448  39.205   9.450
 6103POPC   PO424024  38.428  39.228   9.150
 6103POPC   GL124025  38.427  39.183   8.850
 6103POPC   GL224026  38.405  39.145   8.850
 6103POPC   C1A24027  38.413  39.230   8.550
 6103POPC   D2A24028  38.498  39.274   8.250
 6103POPC   C3A24029  38.451  39.182   7.950
 6103POPC   C4A24030  38.480  39.203   7.650
 6103POPC   C1B24031  38.264  39.056   8.550
 6103POPC   C2B24032  38.243  39.073   8.250
 6103POPC   C3B24033  38.280  39.032   7.950
 6103POPC   C4B24034  38.300  39.070   7.650
 6104POPC   NC324035   5.114   8.228   9.450
 6104POPC   PO424036   5.111   8.149   9.150
 6104POPC   GL124037   5.048   8.150   8.850
 6104POPC   GL224038   5.165   8.093   8.850
 6104POPC   C1A24039   5.055   8.181   8.550
 6104POPC   D2A24040   5.131   8.219   8.250
 6104POPC   C3A24041   5.056   8.225   7.950
 6104POPC   C4A24042   5.096   8.162   7.650
 6104POPC   C1B24043   5.142   7.911   8.550
 6104POPC   C2B24044   5.180   7.929   8.250
 6104POPC   C3B24045   5.140   7.974   7.950
 6104POPC   C4B24046   5.178   7.945   7.650
 6105POPC   NC324047  30.734  36.170   9.450
 6105POPC   PO424048  30.685  36.141   9.150
 6105POPC   GL124049  30.662  36.161   8.850
 6105POPC   GL224050  30.624  36.059   8.850
 6105POPC   C1A24051  30.727  36.126   8.550
 6105POPC   D2A24052  30.724  36.149   8.250
 6105POPC   C3A24053  30.702  36.162   7.950
 6105POPC   C4A24054  30.719  36.166   7.650
 6105POPC   C1B24055  30.512  35.900   8.550
 6105POPC   C2B24056  30.490  35.910   8.250
 6105POPC   C3B24057  30.500  35.945   7.950
 6105POPC   C4B24058  30.533  35.896   7.650
 6106POPC   NC324059  26.828   5.819   9.450
 6106POPC   PO424060  26.840   5.837   9.150
 6106POPC   GL124061  26.817   5.910   8.850
 6106POPC   GL224062  26.663   5.927   8.850
 6106POPC   C1A24063  26.851   5.834   8.550
 6106POPC   D2A24064  26.779   5.878   8.250
 6106POPC   C3A24065  26.812   5.913   7.950
 6106POPC   C4A24066  26.829   5.908   7.650
 6106POPC   C1B24067  26.618   5.931   8.550
 6106POPC   C2B24068  26.638   5.972   8.250
 6106POPC   C3B24069  26.622   5.953   7.950
 6106POPC   C4B24070  26.624   5.997   7.650
 6107POPC   NC324071  36.941  32.219   9.450
 6107POPC   PO424072  36.875  32.199   9.150
 6107POPC   GL124073  36.884  32.245   8.850
 6107POPC   GL224074  36.909  32.146   8.850
 6107POPC   C1A24075  36.878  32.276   8.550
 6107POPC   D2A24076  36.940  32.206   8.250
 6107POPC   C3A24077  36.902  32.268   7.950
 6107POPC   C4A24078  36.893  32.267   7.650
 6107POPC   C1B24079  36.899  32.035   8.550
 6107POPC   C2B24080  36.894  32.040   8.250
 6107POPC   C3B24081  36.965  32.020   7.950
 6107POPC   C4B24082  36.930  31.963   7.650
 6108POPC   NC324083  27.582  35.358   9.450
 6108POPC   PO424084  27.592  35.379   9.150
 6108POPC   GL124085  27.628  35.348   8.850
 6108POPC   GL224086  27.682  35.255   8.850
 6108POPC   C1A24087  27.615  35.365   8.550
 6108POPC   D2A24088  27.550  35.385   8.250
 6108POPC   C3A24089  27.641  35.308   7.950
 6108POPC   C4A24090  27.599  35.350   7.650
 6108POPC   C1B24091  27.849  35.258   8.550
 6108POPC   C2B24092  27.845  35.199   8.250
 6108POPC   C3B24093  27.765  35.258   7.950
 6108POPC   C4B24094  27.772  35.232   7.650
 6109POPC   NC324095  32.218  12.113   9.450
 6109POPC   PO424096  32.232  12.034   9.150
 6109POPC   GL124097  32.206  12.075   8.850
 6109POPC   GL224098  32.268  11.997   8.850
 6109POPC   C1A24099  32.205  12.026   8.550
 6109POPC   D2A24100  32.232  12.048   8.250
 6109POPC   C3A24101  32.256  12.046   7.950
 6109POPC   C4A24102  32.212  12.113   7.650
 6109POPC   C1B24103  32.381  11.856   8.550
 6109POPC   C2B24104  32.401  11.901   8.250
 6109POPC   C3B24105  32.329  11.834   7.950
 6109POPC   C4B24106  32.320  11.859   7.650
 6110POPC   NC324107  44.660  41.520   9.450
 6110POPC   PO424108  44.632  41.531   9.150
 6110POPC   GL124109  44.677  41.525   8.850
 6110POPC   GL224110  44.786  41.582   8.850
 6110POPC   C1A24111  44.645  41.553   8.550
 6110POPC   D2A24112  44.707  41.527   8.250
 6110POPC   C3A24113  44.691  41.580   7.950
 6110POPC   C4A24114  44.639  41.534   7.650
 6110POPC   C1B24115  44.894  41.638   8.550
 6110POPC   C2B24116  44.888  41.615   8.250
 6110POPC   C3B24117  44.864  41.649   7.950
 6110POPC   C4B24118  44.926  41.630   7.650
 6111POPC   NC324119  33.765  28.358   9.450
 6111POPC   PO424120  33.789  28.331   9.150
 6111POPC   GL124121  33.833  28.372   8.850
 6111POPC   GL224122  33.662  28.365   8.850
 6111POPC   C1A24123  33.790  28.343   8.550
 6111POPC   D2A24124  33.788  28.375   8.250
 6111POPC   C3A24125  33.804  28.338   7.950
 6111POPC   C4A24126  33.824  28.385   7.650
 6111POPC   C1B24127  33.585  28.261   8.550
 6111POPC   C2B24128  33.593  28.247   8.250
 6111POPC   C3B24129  33.515  28.322   7.950
 6111POPC   C4B24130  33.550  28.284   7.650
 6112POPC   NC324131  39.270  14.434   9.450
 6112POPC   PO424132  39.279  14.382   9.150
 6112POPC   GL124133  39.240  14.392   8.850
 6112POPC   GL224134  39.269  14.270   8.850
 6112POPC   C1A24135  39.215  14.374   8.550
 6112POPC   D2A24136  39.265  14.430   8.250
 6112POPC   C3A24137  39.187  14.438   7.950
 6112POPC   C4A24138  39.243  14.370   7.650
 6112POPC   C1B24139  39.244  14.171   8.550
 6112POPC   C2B24140  39.229  14.109   8.250
 6112POPC   C3B24141  39.226  14.129   7.950
 6112POPC   C4B24142  39.188  14.180   7.650
 6113POPC   NC324143  31.462  36.882   9.450
 6113POPC   PO424144  31.499  36.903   9.150
 6113POPC   GL124145  31.495  36.857   8.850
 6113POPC   GL224146  31.540  36.972   8.850
 6113POPC   C1A24147  31.486  36.899   8.550
 6113POPC   D2A24148  31.516  36.884   8.250
 6113POPC   C3A24149  31.508  36.856   7.950
 6113POPC   C4A24150  31.489  36.876   7.650
 6113POPC   C1B24151  31.662  36.979   8.550
 6113POPC   C2B24152  31.713  37.016   8.250
 6113POPC   C3B24153  31.725  37.045   7.950
 6113POPC   C4B24154  31.716  37.044   7.650
 6114POPC   NC324155  23.722  14.429   9.450
 6114POPC   PO424156  23.679  14.366   9.150
 6114POPC   GL124157  23.730  14.381   8.850
 6114POPC   GL224158  23.823  14.559   8.850
 6114POPC   C1A24159  23.761  14.419   8.550
 6114POPC   D2A24160  23.763  14.399   8.250
 6114POPC   C3A24161  23.677  14.381   7.950
 6114POPC   C4A24162  23.730  14.391   7.650
 6114POPC   C1B24163  23.879  14.641   8.550
 6114POPC   C2B24164  23.875  14.623   8.250
 6114POPC   C3B24165  23.831  14.570   7.950
 6114POPC   C4B24166  23.843  14.570   7.650
 6115POPC   NC324167   8.152  44.662   9.450
 6115POPC   PO424168   8.156  44.642   9.150
 6115POPC   GL124169   8.243  44.704   8.850
 6115POPC   GL224170   8.084  44.525   8.850
 6115POPC   C1A24171   8.244  44.678   8.550
 6115POPC   D2A24172   8.167  44.679   8.250
 6115POPC   C3A24173   8.181  44.618   7.950
 6115POPC   C4A24174   8.193  44.700   7.650
 6115POPC   C1B24175   8.060  44.464   8.550
 6115POPC   C2B24176   8.030  44.528   8.250
 6115POPC   C3B24177   8.061  44.525   7.950
 6115POPC   C4B24178   8.072  44.452   7.650
 6116POPC   NC324179  36.084  26.867   9.450
 6116POPC   PO424180  36.099  26.781   9.150
 6116POPC   GL124181  36.144  26.778   8.850
 6116POPC   GL224182  36.229  26.745   8.850
 6116POPC   C1A24183  36.080  26.773   8.550
 6116POPC   D2A24184  36.130  26.801   8.250
 6116POPC   C3A24185  36.100  26.771   7.950
 6116POPC   C4A24186  36.092  26.847   7.650
 6116POPC   C1B24187  36.303  26.663   8.550
 6116POPC   C2B24188  36.315  26.644   8.250
 6116POPC   C3B24189  36.340  26.659   7.950
 6116POPC   C4B24190  36.284  26.618   7.650
 6117POPC   NC324191  22.127  30.716   9.450
 6117POPC   PO424192  22.140  30.652   9.150
 6117POPC   GL124193  22.124  30.662   8.850
 6117POPC   GL224194  22.294  30.730   8.850
 6117POPC   C1A24195  22.139  30.677   8.550
 6117POPC   D2A24196  22.161  30.670   8.250
 6117POPC   C3A24197  22.186  30.709   7.950
 6117POPC   C4A24198  22.162  30.661   7.650
 6117POPC   C1B24199  22.414  30.760   8.550
 6117POPC   C2B24200  22.400  30.749   8.250
 6117POPC   C3B24201  22.393  30.830   7.950
 6117POPC   C4B24202  22.365  30.776   7.650
 6118POPC   NC324203   5.914  31.474   9.450
 6118POPC   PO424204   5.850  31.426   9.150
 6118POPC   GL124205   5.846  31.423   8.850
 6118POPC   GL224206   5.921  31.568   8.850
 6118POPC   C1A24207   5.917  31.522   8.550
 6118POPC   D2A24208   5.917  31.460   8.250
 6118POPC   C3A24209   5.847  31.464   7.950
 6118POPC   C4A24210   5.918  31.470   7.650
 6118POPC   C1B24211   6.042  31.620   8.550
 6118POPC   C2B24212   6.019  31.677   8.250
 6118POPC   C3B24213   6.060  31.642   7.950
 6118POPC   C4B24214   6.009  31.706   7.650
 6119POPC   NC324215  43.844  43.083   9.450
 6119POPC   PO424216  43.883  43.139   9.150
 6119POPC   GL124217  43.841  43.099   8.850
 6119POPC   GL224218  44.011  43.065   8.850
 6119POPC   C1A24219  43.896  43.105   8.550
 6119POPC   D2A24220  43.854  43.102   8.250
 6119POPC   C3A24221  43.868  43.126   7.950
 6119POPC   C4A24222  43.920  43.113   7.650
 6119POPC   C1B24223  44.056  42.899   8.550
 6119POPC   C2B24224  44.092  42.969   8.250
 6119POPC   C3B24225  44.063  42.925   7.950
 6119POPC   C4B24226  44.053  42.926   7.650
 6120POPC   NC324227  12.859  25.291   9.450
 6120POPC   PO424228  12.827  25.295   9.150
 6120POPC   GL124229  12.881  25.221   8.850
 6120POPC   GL224230  12.971  25.205   8.850
 6120POPC   C1A24231  12.822  25.280   8.550
 6120POPC   D2A24232  12.851  25.279   8.250
 6120POPC   C3A24233  12.837  25.273   7.950
 6120POPC   C4A24234  12.832  25.307   7.650
 6120POPC   C1B24235  13.124  25.213   8.550
 6120POPC   C2B24236  13.101  25.212   8.250
 6120POPC   C3B24237  13.074  25.254   7.950
 6120POPC   C4B24238  13.125  25.254   7.650
 6121POPC   NC324239  36.119  32.997   9.450
 6121POPC   PO424240  36.173  33.029   9.150
 6121POPC   GL124241  36.134  33.038   8.850
 6121POPC   GL224242  36.107  33.150   8.850
 6121POPC   C1A24243  36.113  33.040   8.550
 6121POPC   D2A24244  36.163  33.043   8.250
 6121POPC   C3A24245  36.167  33.062   7.950
 6121POPC   C4A24246  36.161  32.984   7.650
 6121POPC   C1B24247  36.019  33.280   8.550
 6121POPC   C2B24248  36.024  33.264   8.250
 6121POPC   C3B24249  36.042  33.235   7.950
 6121POPC   C4B24250  35.986  33.278   7.650
 6122POPC   NC324251  19.874  43.096   9.450
 6122POPC   PO424252  19.841  43.102   9.150
 6122POPC   GL124253  19.879  43.074   8.850
 6122POPC   GL224254  19.741  43.155   8.850
 6122POPC   C1A24255  19.882  43.101   8.550
 6122POPC   D2A24256  19.828  43.094   8.250
 6122POPC   C3A24257  19.793  43.146   7.950
 6122POPC   C4A24258  19.844  43.157   7.650
 6122POPC   C1B24259  19.592  43.200   8.550
 6122POPC   C2B24260  19.590  43.259   8.250
 6122POPC   C3B24261  19.619  43.202   7.950
 6122POPC   C4B24262  19.579  43.167   7.650
 6123POPC   NC324263  36.920  26.771   9.450
 6123POPC   PO424264  36.866  26.849   9.150
 6123POPC   GL124265  36.872  26.866   8.850
 6123POPC   GL224266  36.815  26.737   8.850
 6123POPC   C1A24267  36.909  26.797   8.550
 6123POPC   D2A24268  36.894  26.777   8.250
 6123POPC   C3A24269  36.941  26.819   7.950
 6123POPC   C4A24270  36.922  26.796   7.650
 6123POPC   C1B24271  36.718  26.662   8.550
 6123POPC   C2B24272  36.693  26.639   8.250
 6123POPC   C3B24273  36.752  26.675   7.950
 6123POPC   C4B24274  36.714  26.598   7.650
 6124POPC   NC324275  19.859  34.607   9.450
 6124POPC   PO424276  19.825  34.533   9.150
 6124POPC   GL124277  19.874  34.601   8.850
 6124POPC   GL224278  19.738  34.680   8.850
 6124POPC   C1A24279  19.820  34.622   8.550
 6124POPC   D2A24280  19.837  34.538   8.250
 6124POPC   C3A24281  19.807  34.563   7.950
 6124POPC   C4A24282  19.838  34.544   7.650
 6124POPC   C1B24283  19.681  34.736   8.550
 6124POPC   C2B24284  19.696  34.826   8.250
 6124POPC   C3B24285  19.732  34.793   7.950
 6124POPC   C4B24286  19.662  34.774   7.650
 6125POPC   NC324287  29.899  22.971   9.450
 6125POPC   PO424288  29.954  22.972   9.150
 6125POPC   GL124289  29.939  22.977   8.850
 6125POPC   GL224290  29.988  22.943   8.850
 6125POPC   C1A24291  29.897  22.915   8.550
 6125POPC   D2A24292  29.883  22.985   8.250
 6125POPC   C3A24293  29.920  22.927   7.950
 6125POPC   C4A24294  29.914  22.963   7.650
 6125POPC   C1B24295  30.195  23.046   8.550
 6125POPC   C2B24296  30.117  23.011   8.250
 6125POPC   C3B24297  30.198  23.028   7.950
 6125POPC   C4B24298  30.184  22.990   7.650
 6126POPC   NC324299  10.482  10.546   9.450
 6126POPC   PO424300  10.474  10.478   9.150
 6126POPC   GL124301  10.505  10.567   8.850
 6126POPC   GL224302  10.638  10.591   8.850
 6126POPC   C1A24303  10.555  10.574   8.550
 6126POPC   D2A24304  10.559  10.523   8.250
 6126POPC   C3A24305  10.491  10.538   7.950
 6126POPC   C4A24306  10.573  10.512   7.650
 6126POPC   C1B24307  10.747  10.657   8.550
 6126POPC   C2B24308  10.770  10.624   8.250
 6126POPC   C3B24309  10.687  10.612   7.950
 6126POPC   C4B24310  10.764  10.622   7.650
 6127POPC   NC324311  30.692  12.080   9.450
 6127POPC   PO424312  30.730  12.082   9.150
 6127POPC   GL124313  30.730  12.062   8.850
 6127POPC   GL224314  30.844  12.021   8.850
 6127POPC   C1A24315  30.733  12.125   8.550
 6127POPC   D2A24316  30.725  12.074   8.250
 6127POPC   C3A24317  30.663  12.103   7.950
 6127POPC   C4A24318  30.668  12.055   7.650
 6127POPC   C1B24319  30.913  11.874   8.550
 6127POPC   C2B24320  30.890  11.921   8.250
 6127POPC   C3B24321  30.870  11.892   7.950
 6127POPC   C4B24322  30.846  11.911   7.650
 6128POPC   NC324323  19.841   5.134   9.450
 6128POPC   PO424324  19.869   5.057   9.150
 6128POPC   GL124325  19.878   5.073   8.850
 6128POPC   GL224326  19.875   5.226   8.850
 6128POPC   C1A24327  19.878   5.058   8.550
 6128POPC   D2A24328  19.859   5.096   8.250
 6128POPC   C3A24329  19.800   5.117   7.950
 6128POPC   C4A24330  19.861   5.085   7.650
 6128POPC   C1B24331  19.900   5.340   8.550
 6128POPC   C2B24332  19.906   5.378   8.250
 6128POPC   C3B24333  19.949   5.373   7.950
 6128POPC   C4B24334  19.912   5.334   7.650
 6129POPC   NC324335   4.297  35.319   9.450
 6129POPC   PO424336   4.281  35.392   9.150
 6129POPC   GL124337   4.276  35.302   8.850
 6129POPC   GL224338   4.169  35.375   8.850
 6129POPC   C1A24339   4.332  35.314   8.550
 6129POPC   D2A24340   4.319  35.366   8.250
 6129POPC   C3A24341   4.317  35.316   7.950
 6129POPC   C4A24342   4.339  35.362   7.650
 6129POPC   C1B24343   4.041  35.454   8.550
 6129POPC   C2B24344   4.058  35.400   8.250
 6129POPC   C3B24345   4.076  35.421   7.950
 6129POPC   C4B24346   4.049  35.449   7.650
 6130POPC   NC324347  15.168  28.322   9.450
 6130POPC   PO424348  15.182  28.343   9.150
 6130POPC   GL124349  15.228  28.375   8.850
 6130POPC   GL224350  15.209  28.493   8.850
 6130POPC   C1A24351  15.176  28.387   8.550
 6130POPC   D2A24352  15.166  28.332   8.250
 6130POPC   C3A24353  15.205  28.329   7.950
 6130POPC   C4A24354  15.195  28.321   7.650
 6130POPC   C1B24355  15.146  28.626   8.550
 6130POPC   C2B24356  15.199  28.592   8.250
 6130POPC   C3B24357  15.156  28.614   7.950
 6130POPC   C4B24358  15.187  28.582   7.650
 6131POPC   NC324359  13.654  23.678   9.450
 6131POPC   PO424360  13.668  23.761   9.150
 6131POPC   GL124361  13.609  23.735   8.850
 6131POPC   GL224362  13.481  23.809   8.850
 6131POPC   C1A24363  13.596  23.666   8.550
 6131POPC   D2A24364  13.579  23.745   8.250
 6131POPC   C3A24365  13.605  23.685   7.950
 6131POPC   C4A24366  13.676  23.676   7.650
 6131POPC   C1B24367  13.415  23.819   8.550
 6131POPC   C2B24368  13.402  23.799   8.250
 6131POPC   C3B24369  13.423  23.778   7.950
 6131POPC   C4B24370  13.367  23.848   7.650
 6132POPC   NC324371  22.946  40.798   9.450
 6132POPC   PO424372  22.955  40.741   9.150
 6132POPC   GL124373  22.943  40.822   8.850
 6132POPC   GL224374  22.989  40.678   8.850
 6132POPC   C1A24375  22.971  40.832   8.550
 6132POPC   D2A24376  22.947  40.771   8.250
 6132POPC   C3A24377  22.954  40.791   7.950
 6132POPC   C4A24378  22.980  40.772   7.650
 6132POPC   C1B24379  23.166  40.606   8.550
 6132POPC   C2B24380  23.118  40.580   8.250
 6132POPC   C3B24381  23.087  40.614   7.950
 6132POPC   C4B24382  23.097  40.611   7.650
 6133POPC   NC324383   7.391  13.625   9.450
 6133POPC   PO424384   7.383  13.666   9.150
 6133POPC   GL124385   7.374  13.676   8.850
 6133POPC   GL224386   7.459  13.771   8.850
 6133POPC   C1A24387   7.429  13.644   8.550
 6133POPC   D2A24388   7.386  13.614   8.250
 6133POPC   C3A24389   7.456  13.669   7.950
 6133POPC   C4A24390   7.411  13.585   7.650
 6133POPC   C1B24391   7.497  13.858   8.550
 6133POPC   C2B24392   7.502  13.865   8.250
 6133POPC   C3B24393   7.521  13.862   7.950
 6133POPC   C4B24394   7.516  13.866   7.650
 6134POPC   NC324395  43.878  18.315   9.450
 6134POPC   PO424396  43.845  18.269   9.150
 6134POPC   GL124397  43.872  18.266   8.850
 6134POPC   GL224398  43.873  18.376   8.850
 6134POPC   C1A24399  43.917  18.250   8.550
 6134POPC   D2A24400  43.904  18.280   8.250
 6134POPC   C3A24401  43.918  18.292   7.950
 6134POPC   C4A24402  43.858  18.282   7.650
 6134POPC   C1B24403  43.852  18.523   8.550
 6134POPC   C2B24404  43.895  18.548   8.250
 6134POPC   C3B24405  43.912  18.533   7.950
 6134POPC   C4B24406  43.940  18.484   7.650
 6135POPC   NC324407  12.887  28.347   9.450
 6135POPC   PO424408  12.802  28.384   9.150
 6135POPC   GL124409  12.842  28.338   8.850
 6135POPC   GL224410  12.860  28.466   8.850
 6135POPC   C1A24411  12.890  28.326   8.550
 6135POPC   D2A24412  12.825  28.368   8.250
 6135POPC   C3A24413  12.848  28.399   7.950
 6135POPC   C4A24414  12.848  28.340   7.650
 6135POPC   C1B24415  12.830  28.607   8.550
 6135POPC   C2B24416  12.864  28.645   8.250
 6135POPC   C3B24417  12.838  28.642   7.950
 6135POPC   C4B24418  12.806  28.624   7.650
 6136POPC   NC324419  14.431  38.494   9.450
 6136POPC   PO424420  14.425  38.447   9.150
 6136POPC   GL124421  14.400  38.469   8.850
 6136POPC   GL224422  14.412  38.333   8.850
 6136POPC   C1A24423  14.388  38.442   8.550
 6136POPC   D2A24424  14.374  38.504   8.250
 6136POPC   C3A24425  14.381  38.501   7.950
 6136POPC   C4A24426  14.396  38.473   7.650
 6136POPC   C1B24427  14.508  38.196   8.550
 6136POPC   C2B24428  14.467  38.229   8.250
 6136POPC   C3B24429  14.518  38.266   7.950
 6136POPC   C4B24430  14.477  38.206   7.650
 6137POPC   NC324431  26.829   7.433   9.450
 6137POPC   PO424432  26.843   7.425   9.150
 6137POPC   GL124433  26.808   7.387   8.850
 6137POPC   GL224434  26.816   7.555   8.850
 6137POPC   C1A24435  26.799   7.422   8.550
 6137POPC   D2A24436  26.790   7.417   8.250
 6137POPC   C3A24437  26.789   7.426   7.950
 6137POPC   C4A24438  26.798   7.434   7.650
 6137POPC   C1B24439  26.815   7.706   8.550
 6137POPC   C2B24440  26.827   7.682   8.250
 6137POPC   C3B24441  26.850   7.633   7.950
 6137POPC   C4B24442  26.816   7.642   7.650
 6138POPC   NC324443  11.336  36.925   9.450
 6138POPC   PO424444  11.323  36.874   9.150
 6138POPC   GL124445  11.276  36.882   8.850
 6138POPC   GL224446  11.176  36.917   8.850
 6138POPC   C1A24447  11.342  36.897   8.550
 6138POPC   D2A24448  11.343  36.860   8.250
 6138POPC   C3A24449  11.347  36.947   7.950
 6138POPC   C4A24450  11.305  36.889   7.650
 6138POPC   C1B24451  11.040  36.862   8.550
 6138POPC   C2B24452  11.048  36.894   8.250
 6138POPC   C3B24453  11.094  36.897   7.950
 6138POPC   C4B24454  11.061  36.861   7.650
 6139POPC   NC324455   1.169  11.310   9.450
 6139POPC   PO424456   1.240  11.326   9.150
 6139POPC   GL124457   1.181  11.291   8.850
 6139POPC   GL224458   1.274  11.204   8.850
 6139POPC   C1A24459   1.180  11.349   8.550
 6139POPC   D2A24460   1.255  11.288   8.250
 6139POPC   C3A24461   1.253  11.281   7.950
 6139POPC   C4A24462   1.195  11.293   7.650
 6139POPC   C1B24463   1.224  11.007   8.550
 6139POPC   C2B24464   1.199  11.009   8.250
 6139POPC   C3B24465   1.217  11.015   7.950
 6139POPC   C4B24466   1.266  11.071   7.650
 6140POPC   NC324467   3.546  37.659   9.450
 6140POPC   PO424468   3.586  37.644   9.150
 6140POPC   GL124469   3.540  37.649   8.850
 6140POPC   GL224470   3.645  37.598   8.850
 6140POPC   C1A24471   3.557  37.646   8.550
 6140POPC   D2A24472   3.527  37.660   8.250
 6140POPC   C3A24473   3.513  37.643   7.950
 6140POPC   C4A24474   3.569  37.644   7.650
 6140POPC   C1B24475   3.726  37.459   8.550
 6140POPC   C2B24476   3.715  37.453   8.250
 6140POPC   C3B24477   3.663  37.508   7.950
 6140POPC   C4B24478   3.687  37.520   7.650
 6141POPC   NC324479  37.653  29.891   9.450
 6141POPC   PO424480  37.664  29.946   9.150
 6141POPC   GL124481  37.666  29.925   8.850
 6141POPC   GL224482  37.714  30.093   8.850
 6141POPC   C1A24483  37.662  29.951   8.550
 6141POPC   D2A24484  37.648  29.946   8.250
 6141POPC   C3A24485  37.684  29.905   7.950
 6141POPC   C4A24486  37.687  29.970   7.650
 6141POPC   C1B24487  37.620  30.167   8.550
 6141POPC   C2B24488  37.693  30.179   8.250
 6141POPC   C3B24489  37.678  30.121   7.950
 6141POPC   C4B24490  37.704  30.166   7.650
 6142POPC   NC324491  26.071  26.021   9.450
 6142POPC   PO424492  26.008  25.999   9.150
 6142POPC   GL124493  26.074  26.042   8.850
 6142POPC   GL224494  25.898  26.080   8.850
 6142POPC   C1A24495  26.019  26.061   8.550
 6142POPC   D2A24496  26.084  26.049   8.250
 6142POPC   C3A24497  26.063  26.027   7.950
 6142POPC   C4A24498  26.018  26.056   7.650
 6142POPC   C1B24499  25.860  26.149   8.550
 6142POPC   C2B24500  25.857  26.163   8.250
 6142POPC   C3B24501  25.868  26.148   7.950
 6142POPC   C4B24502  25.838  26.183   7.650
 6143POPC   NC324503  41.570  18.269   9.450
 6143POPC   PO424504  41.601  18.253   9.150
 6143POPC   GL124505  41.566  18.318   8.850
 6143POPC   GL224506  41.629  18.173   8.850
 6143POPC   C1A24507  41.597  18.273   8.550
 6143POPC   D2A24508  41.572  18.297   8.250
 6143POPC   C3A24509  41.527  18.299   7.950
 6143POPC   C4A24510  41.547  18.326   7.650
 6143POPC   C1B24511  41.614  18.082   8.550
 6143POPC   C2B24512  41.659  18.032   8.250
 6143POPC   C3B24513  41.664  17.993   7.950
 6143POPC   C4B24514  41.609  18.012   7.650
 6144POPC   NC324515   0.417  30.662   9.450
 6144POPC   PO424516   0.405  30.697   9.150
 6144POPC   GL124517   0.388  30.682   8.850
 6144POPC   GL224518   0.369  30.789   8.850
 6144POPC   C1A24519   0.434  30.685   8.550
 6144POPC   D2A24520   0.434  30.721   8.250
 6144POPC   C3A24521   0.462  30.663   7.950
 6144POPC   C4A24522   0.452  30.743   7.650
 6144POPC   C1B24523   0.280  30.933   8.550
 6144POPC   C2B24524   0.334  30.894   8.250
 6144POPC   C3B24525   0.238  30.936   7.950
 6144POPC   C4B24526   0.237  30.924   7.650
 6145POPC   NC324527  26.830  40.739   9.450
 6145POPC   PO424528  26.822  40.763   9.150
 6145POPC   GL124529  26.831  40.788   8.850
 6145POPC   GL224530  26.705  40.706   8.850
 6145POPC   C1A24531  26.839  40.783   8.550
 6145POPC   D2A24532  26.822  40.823   8.250
 6145POPC   C3A24533  26.773  40.811   7.950
 6145POPC   C4A24534  26.841  40.763   7.650
 6145POPC   C1B24535  26.713  40.556   8.550
 6145POPC   C2B24536  26.670  40.525   8.250
 6145POPC   C3B24537  26.697  40.615   7.950
 6145POPC   C4B24538  26.653  40.608   7.650
 6146POPC   NC324539  22.922  42.325   9.450
 6146POPC   PO424540  22.924  42.321   9.150
 6146POPC   GL124541  22.928  42.351   8.850
 6146POPC   GL224542  22.856  42.191   8.850
 6146POPC   C1A24543  22.928  42.384   8.550
 6146POPC   D2A24544  22.962  42.309   8.250
 6146POPC   C3A24545  22.983  42.288   7.950
 6146POPC   C4A24546  22.987  42.352   7.650
 6146POPC   C1B24547  22.754  42.100   8.550
 6146POPC   C2B24548  22.803  42.155   8.250
 6146POPC   C3B24549  22.774  42.122   7.950
 6146POPC   C4B24550  22.818  42.108   7.650
 6147POPC   NC324551  43.079  23.763   9.450
 6147POPC   PO424552  43.122  23.679   9.150
 6147POPC   GL124553  43.146  23.739   8.850
 6147POPC   GL224554  43.124  23.794   8.850
 6147POPC   C1A24555  43.082  23.734   8.550
 6147POPC   D2A24556  43.089  23.687   8.250
 6147POPC   C3A24557  43.118  23.760   7.950
 6147POPC   C4A24558  43.068  23.670   7.650
 6147POPC   C1B24559  43.069  23.959   8.550
 6147POPC   C2B24560  43.118  23.968   8.250
 6147POPC   C3B24561  43.036  23.957   7.950
 6147POPC   C4B24562  43.098  23.942   7.650
 6148POPC   NC324563  22.205  44.703   9.450
 6148POPC   PO424564  22.149  44.674   9.150
 6148POPC   GL124565  22.168  44.700   8.850
 6148POPC   GL224566  22.161  44.779   8.850
 6148POPC   C1A24567  22.173  44.647   8.550
 6148POPC   D2A24568  22.143  44.649   8.250
 6148POPC   C3A24569  22.147  44.622   7.950
 6148POPC   C4A24570  22.122  44.664   7.650
 6148POPC   C1B24571  22.156  44.916   8.550
 6148POPC   C2B24572  22.144  44.890   8.250
 6148POPC   C3B24573  22.159  44.865   7.950
 6148POPC   C4B24574  22.130  44.923   7.650
 6149POPC   NC324575  22.171  20.592   9.450
 6149POPC   PO424576  22.155  20.592   9.150
 6149POPC   GL124577  22.126  20.609   8.850
 6149POPC   GL224578  22.309  20.646   8.850
 6149POPC   C1A24579  22.183  20.641   8.550
 6149POPC   D2A24580  22.203  20.578   8.250
 6149POPC   C3A24581  22.170  20.617   7.950
 6149POPC   C4A24582  22.151  20.581   7.650
 6149POPC   C1B24583  22.399  20.774   8.550
 6149POPC   C2B24584  22.431  20.697   8.250
 6149POPC   C3B24585  22.338  20.775   7.950
 6149POPC   C4B24586  22.372  20.775   7.650
 6150POPC   NC324587  34.615  44.649   9.450
 6150POPC   PO424588  34.569  44.614   9.150
 6150POPC   GL124589  34.576  44.651   8.850
 6150POPC   GL224590  34.667  44.720   8.850
 6150POPC   C1A24591  34.559  44.633   8.550
 6150POPC   D2A24592  34.553  44.641   8.250
 6150POPC   C3A24593  34.596  44.620   7.950
 6150POPC   C4A24594  34.582  44.674   7.650
 6150POPC   C1B24595  34.802  44.785   8.550
 6150POPC   C2B24596  34.845  44.714   8.250
 6150POPC   C3B24597  34.846  44.694   7.950
 6150POPC   C4B24598  34.860  44.739   7.650
 6151POPC   NC324599   5.136  17.485   9.450
 6151POPC   PO424600   5.134  17.482   9.150
 6151POPC   GL124601   5.120  17.469   8.850
 6151POPC   GL224602   5.243  17.422   8.850
 6151POPC   C1A24603   5.131  17.471   8.550
 6151POPC   D2A24604   5.136  17.475   8.250
 6151POPC   C3A24605   5.070  17.487   7.950
 6151POPC   C4A24606   5.096  17.484   7.650
 6151POPC   C1B24607   5.341  17.340   8.550
 6151POPC   C2B24608   5.304  17.353   8.250
 6151POPC   C3B24609   5.336  17.356   7.950
 6151POPC   C4B24610   5.348  17.383   7.650
 6152POPC   NC324611  27.608  10.511   9.450
 6152POPC   PO424612  27.571  10.547   9.150
 6152POPC   GL124613  27.609  10.537   8.850
 6152POPC   GL224614  27.607  10.372   8.850
 6152POPC   C1A24615  27.600  10.547   8.550
 6152POPC   D2A24616  27.639  10.535   8.250
 6152POPC   C3A24617  27.639  10.487   7.950
 6152POPC   C4A24618  27.564  10.564   7.650
 6152POPC   C1B24619  27.683  10.292   8.550
 6152POPC   C2B24620  27.610  10.246   8.250
 6152POPC   C3B24621  27.645  10.237   7.950
 6152POPC   C4B24622  27.612  10.259   7.650
 6153POPC   NC324623   8.151  37.680   9.450
 6153POPC   PO424624   8.173  37.691   9.150
 6153POPC   GL124625   8.242  37.645   8.850
 6153POPC   GL224626   8.319  37.633   8.850
 6153POPC   C1A24627   8.233  37.666   8.550
 6153POPC   D2A24628   8.225  37.682   8.250
 6153POPC   C3A24629   8.224  37.699   7.950
 6153POPC   C4A24630   8.181  37.684   7.650
 6153POPC   C1B24631   8.434  37.631   8.550
 6153POPC   C2B24632   8.421  37.584   8.250
 6153POPC   C3B24633   8.403  37.655   7.950
 6153POPC   C4B24634   8.477  37.621   7.650
 6154POPC   NC324635  15.223  12.895   9.450
 6154POPC   PO424636  15.198  12.836   9.150
 6154POPC   GL124637  15.176  12.808   8.850
 6154POPC   GL224638  15.092  12.865   8.850
 6154POPC   C1A24639  15.188  12.834   8.550
 6154POPC   D2A24640  15.204  12.889   8.250
 6154POPC   C3A24641  15.211  12.851   7.950
 6154POPC   C4A24642  15.197  12.804   7.650
 6154POPC   C1B24643  14.957  12.946   8.550
 6154POPC   C2B24644  14.946  12.936   8.250
 6154POPC   C3B24645  14.964  12.881   7.950
 6154POPC   C4B24646  14.926  12.897   7.650
 6155POPC   NC324647  21.422  40.791   9.450
 6155POPC   PO424648  21.422  40.764   9.150
 6155POPC   GL124649  21.397  40.804   8.850
 6155POPC   GL224650  21.416  40.931   8.850
 6155POPC   C1A24651  21.403  40.776   8.550
 6155POPC   D2A24652  21.383  40.742   8.250
 6155POPC   C3A24653  21.389  40.789   7.950
 6155POPC   C4A24654  21.348  40.830   7.650
 6155POPC   C1B24655  21.500  41.028   8.550
 6155POPC   C2B24656  21.490  40.980   8.250
 6155POPC   C3B24657  21.504  40.991   7.950
 6155POPC   C4B24658  21.537  41.021   7.650
 6156POPC   NC324659  28.367  26.835   9.450
 6156POPC   PO424660  28.336  26.783   9.150
 6156POPC   GL124661  28.376  26.816   8.850
 6156POPC   GL224662  28.452  26.670   8.850
 6156POPC   C1A24663  28.412  26.854   8.550
 6156POPC   D2A24664  28.353  26.867   8.250
 6156POPC   C3A24665  28.324  26.783   7.950
 6156POPC   C4A24666  28.418  26.826   7.650
 6156POPC   C1B24667  28.422  26.569   8.550
 6156POPC   C2B24668  28.489  26.532   8.250
 6156POPC   C3B24669  28.467  26.539   7.950
 6156POPC   C4B24670  28.475  26.531   7.650
 6157POPC   NC324671  33.046  32.292   9.450
 6157POPC   PO424672  33.055  32.282   9.150
 6157POPC   GL124673  33.039  32.217   8.850
 6157POPC   GL224674  33.101  32.163   8.850
 6157POPC   C1A24675  33.067  32.271   8.550
 6157POPC   D2A24676  33.013  32.219   8.250
 6157POPC   C3A24677  33.022  32.294   7.950
 6157POPC   C4A24678  32.996  32.208   7.650
 6157POPC   C1B24679  33.202  32.071   8.550
 6157POPC   C2B24680  33.243  32.105   8.250
 6157POPC   C3B24681  33.250  32.120   7.950
 6157POPC   C4B24682  33.207  32.103   7.650
 6158POPC   NC324683  41.564   3.576   9.450
 6158POPC   PO424684  41.552   3.491   9.150
 6158POPC   GL124685  41.525   3.508   8.850
 6158POPC   GL224686  41.705   3.544   8.850
 6158POPC   C1A24687  41.588   3.552   8.550
 6158POPC   D2A24688  41.582   3.582   8.250
 6158POPC   C3A24689  41.553   3.518   7.950
 6158POPC   C4A24690  41.533   3.530   7.650
 6158POPC   C1B24691  41.806   3.458   8.550
 6158POPC   C2B24692  41.843   3.477   8.250
 6158POPC   C3B24693  41.826   3.464   7.950
 6158POPC   C4B24694  41.809   3.515   7.650
 6159POPC   NC324695   1.182  39.979   9.450
 6159POPC   PO424696   1.244  40.026   9.150
 6159POPC   GL124697   1.250  40.023   8.850
 6159POPC   GL224698   1.105  40.064   8.850
 6159POPC   C1A24699   1.200  39.972   8.550
 6159POPC   D2A24700   1.207  40.021   8.250
 6159POPC   C3A24701   1.222  39.995   7.950
 6159POPC   C4A24702   1.256  40.027   7.650
 6159POPC   C1B24703   1.002  40.162   8.550
 6159POPC   C2B24704   1.072  40.203   8.250
 6159POPC   C3B24705   1.055  40.157   7.950
 6159POPC   C4B24706   1.050  40.229   7.650
 6160POPC   NC324707  32.270  15.160   9.450
 6160POPC   PO424708  32.228  15.170   9.150
 6160POPC   GL124709  32.264  15.144   8.850
 6160POPC   GL224710  32.302  15.349   8.850
 6160POPC   C1A24711  32.265  15.157   8.550
 6160POPC   D2A24712  32.232  15.163   8.250
 6160POPC   C3A24713  32.240  15.226   7.950
 6160POPC   C4A24714  32.298  15.192   7.650
 6160POPC   C1B24715  32.254  15.437   8.550
 6160POPC   C2B24716  32.268  15.432   8.250
 6160POPC   C3B24717  32.232  15.437   7.950
 6160POPC   C4B24718  32.230  15.435   7.650
 6161POPC   NC324719   0.474  32.248   9.450
 6161POPC   PO424720   0.458  32.244   9.150
 6161POPC   GL124721   0.406  32.292   8.850
 6161POPC   GL224722   0.339  32.343   8.850
 6161POPC   C1A24723   0.472  32.269   8.550
 6161POPC   D2A24724   0.462  32.229   8.250
 6161POPC   C3A24725   0.392  32.209   7.950
 6161POPC   C4A24726   0.434  32.257   7.650
 6161POPC   C1B24727   0.195  32.373   8.550
 6161POPC   C2B24728   0.203  32.392   8.250
 6161POPC   C3B24729   0.290  32.372   7.950
 6161POPC   C4B24730   0.269  32.443   7.650
 6162POPC   NC324731   5.099   6.639   9.450
 6162POPC   PO424732   5.058   6.694   9.150
 6162POPC   GL124733   5.078   6.606   8.850
 6162POPC   GL224734   5.123   6.529   8.850
 6162POPC   C1A24735   5.080   6.636   8.550
 6162POPC   D2A24736   5.060   6.677   8.250
 6162POPC   C3A24737   5.077   6.638   7.950
 6162POPC   C4A24738   5.129   6.646   7.650
 6162POPC   C1B24739   5.203   6.415   8.550
 6162POPC   C2B24740   5.148   6.422   8.250
 6162POPC   C3B24741   5.194   6.418   7.950
 6162POPC   C4B24742   5.191   6.412   7.650
 6163POPC   NC324743  29.878  20.646   9.450
 6163POPC   PO424744  29.875  20.650   9.150
 6163POPC   GL124745  29.927  20.567   8.850
 6163POPC   GL224746  30.017  20.503   8.850
 6163POPC   C1A24747  29.886  20.598   8.550
 6163POPC   D2A24748  29.920  20.568   8.250
 6163POPC   C3A24749  29.904  20.653   7.950
 6163POPC   C4A24750  29.877  20.601   7.650
 6163POPC   C1B24751  30.018  20.348   8.550
 6163POPC   C2B24752  30.079  20.375   8.250
 6163POPC   C3B24753  30.085  20.440   7.950
 6163POPC   C4B24754  30.010  20.420   7.650
 6164POPC   NC324755   2.737  38.432   9.450
 6164POPC   PO424756   2.790  38.419   9.150
 6164POPC   GL124757   2.783  38.495   8.850
 6164POPC   GL224758   2.903  38.440   8.850
 6164POPC   C1A24759   2.725  38.454   8.550
 6164POPC   D2A24760   2.765  38.406   8.250
 6164POPC   C3A24761   2.796  38.440   7.950
 6164POPC   C4A24762   2.774  38.493   7.650
 6164POPC   C1B24763   3.050  38.542   8.550
 6164POPC   C2B24764   3.013  38.566   8.250
 6164POPC   C3B24765   3.024  38.567   7.950
 6164POPC   C4B24766   3.046  38.550   7.650
 6165POPC   NC324767  24.513  34.577   9.450
 6165POPC   PO424768  24.484  34.613   9.150
 6165POPC   GL124769  24.463  34.535   8.850
 6165POPC   GL224770  24.464  34.481   8.850
 6165POPC   C1A24771  24.532  34.557   8.550
 6165POPC   D2A24772  24.455  34.600   8.250
 6165POPC   C3A24773  24.537  34.617   7.950
 6165POPC   C4A24774  24.525  34.542   7.650
 6165POPC   C1B24775  24.505  34.311   8.550
 6165POPC   C2B24776  24.467  34.335   8.250
 6165POPC   C3B24777  24.483  34.304   7.950
 6165POPC   C4B24778  24.471  34.285   7.650
 6166POPC   NC324779  16.760  23.718   9.450
 6166POPC   PO424780  16.767  23.736   9.150
 6166POPC   GL124781  16.779  23.707   8.850
 6166POPC   GL224782  16.606  23.772   8.850
 6166POPC   C1A24783  16.702  23.715   8.550
 6166POPC   D2A24784  16.768  23.741   8.250
 6166POPC   C3A24785  16.707  23.683   7.950
 6166POPC   C4A24786  16.710  23.736   7.650
 6166POPC   C1B24787  16.534  23.871   8.550
 6166POPC   C2B24788  16.535  23.885   8.250
 6166POPC   C3B24789  16.577  23.872   7.950
 6166POPC   C4B24790  16.546  23.851   7.650
 6167POPC   NC324791  30.693  42.379   9.450
 6167POPC   PO424792  30.730  42.347   9.150
 6167POPC   GL124793  30.653  42.351   8.850
 6167POPC   GL224794  30.705  42.231   8.850
 6167POPC   C1A24795  30.694  42.364   8.550
 6167POPC   D2A24796  30.726  42.327   8.250
 6167POPC   C3A24797  30.718  42.349   7.950
 6167POPC   C4A24798  30.654  42.303   7.650
 6167POPC   C1B24799  30.578  42.064   8.550
 6167POPC   C2B24800  30.603  42.133   8.250
 6167POPC   C3B24801  30.638  42.104   7.950
 6167POPC   C4B24802  30.643  42.061   7.650
 6168POPC   NC324803  39.994  35.381   9.450
 6168POPC   PO424804  39.982  35.393   9.150
 6168POPC   GL124805  40.001  35.336   8.850
 6168POPC   GL224806  39.879  35.363   8.850
 6168POPC   C1A24807  39.969  35.393   8.550
 6168POPC   D2A24808  40.053  35.372   8.250
 6168POPC   C3A24809  40.030  35.358   7.950
 6168POPC   C4A24810  39.977  35.329   7.650
 6168POPC   C1B24811  39.733  35.339   8.550
 6168POPC   C2B24812  39.743  35.293   8.250
 6168POPC   C3B24813  39.788  35.341   7.950
 6168POPC   C4B24814  39.771  35.327   7.650
 6169POPC   NC324815   4.362   8.967   9.450
 6169POPC   PO424816   4.287   8.953   9.150
 6169POPC   GL124817   4.323   8.972   8.850
 6169POPC   GL224818   4.255   8.867   8.850
 6169POPC   C1A24819   4.356   8.940   8.550
 6169POPC   D2A24820   4.292   9.019   8.250
 6169POPC   C3A24821   4.289   8.936   7.950
 6169POPC   C4A24822   4.366   8.965   7.650
 6169POPC   C1B24823   4.153   8.871   8.550
 6169POPC   C2B24824   4.066   8.791   8.250
 6169POPC   C3B24825   4.085   8.864   7.950
 6169POPC   C4B24826   4.079   8.787   7.650
 6170POPC   NC324827  14.383  19.808   9.450
 6170POPC   PO424828  14.369  19.871   9.150
 6170POPC   GL124829  14.390  19.849   8.850
 6170POPC   GL224830  14.328  19.969   8.850
 6170POPC   C1A24831  14.364  19.835   8.550
 6170POPC   D2A24832  14.373  19.808   8.250
 6170POPC   C3A24833  14.425  19.804   7.950
 6170POPC   C4A24834  14.385  19.799   7.650
 6170POPC   C1B24835  14.246  20.013   8.550
 6170POPC   C2B24836  14.206  19.976   8.250
 6170POPC   C3B24837  14.248  20.008   7.950
 6170POPC   C4B24838  14.186  19.995   7.650
 6171POPC   NC324839  23.686  19.820   9.450
 6171POPC   PO424840  23.748  19.817   9.150
 6171POPC   GL124841  23.683  19.869   8.850
 6171POPC   GL224842  23.634  19.768   8.850
 6171POPC   C1A24843  23.670  19.820   8.550
 6171POPC   D2A24844  23.734  19.870   8.250
 6171POPC   C3A24845  23.710  19.819   7.950
 6171POPC   C4A24846  23.717  19.867   7.650
 6171POPC   C1B24847  23.541  19.734   8.550
 6171POPC   C2B24848  23.496  19.689   8.250
 6171POPC   C3B24849  23.549  19.690   7.950
 6171POPC   C4B24850  23.541  19.721   7.650
 6172POPC   NC324851  36.107  40.776   9.450
 6172POPC   PO424852  36.142  40.817   9.150
 6172POPC   GL124853  36.134  40.802   8.850
 6172POPC   GL224854  36.179  40.861   8.850
 6172POPC   C1A24855  36.162  40.798   8.550
 6172POPC   D2A24856  36.134  40.747   8.250
 6172POPC   C3A24857  36.126  40.794   7.950
 6172POPC   C4A24858  36.143  40.750   7.650
 6172POPC   C1B24859  36.308  40.970   8.550
 6172POPC   C2B24860  36.259  40.926   8.250
 6172POPC   C3B24861  36.306  40.998   7.950
 6172POPC   C4B24862  36.279  40.927   7.650
 6173POPC   NC324863  37.729  21.376   9.450
 6173POPC   PO424864  37.712  21.349   9.150
 6173POPC   GL124865  37.692  21.361   8.850
 6173POPC   GL224866  37.748  21.351   8.850
 6173POPC   C1A24867  37.671  21.372   8.550
 6173POPC   D2A24868  37.696  21.423   8.250
 6173POPC   C3A24869  37.651  21.344   7.950
 6173POPC   C4A24870  37.719  21.386   7.650
 6173POPC   C1B24871  37.846  21.243   8.550
 6173POPC   C2B24872  37.917  21.257   8.250
 6173POPC   C3B24873  37.842  21.201   7.950
 6173POPC   C4B24874  37.868  21.267   7.650
 6174POPC   NC324875  12.066  40.798   9.450
 6174POPC   PO424876  12.052  40.735   9.150
 6174POPC   GL124877  12.091  40.740   8.850
 6174POPC   GL224878  12.113  40.846   8.850
 6174POPC   C1A24879  12.089  40.798   8.550
 6174POPC   D2A24880  12.110  40.771   8.250
 6174POPC   C3A24881  12.059  40.812   7.950
 6174POPC   C4A24882  12.110  40.823   7.650
 6174POPC   C1B24883  12.251  40.942   8.550
 6174POPC   C2B24884  12.220  40.982   8.250
 6174POPC   C3B24885  12.203  40.942   7.950
 6174POPC   C4B24886  12.238  40.977   7.650
 6175POPC   NC324887   8.164  33.784   9.450
 6175POPC   PO424888   8.192  33.795   9.150
 6175POPC   GL124889   8.191  33.772   8.850
 6175POPC   GL224890   8.045  33.789   8.850
 6175POPC   C1A24891   8.158  33.824   8.550
 6175POPC   D2A24892   8.176  33.838   8.250
 6175POPC   C3A24893   8.190  33.849   7.950
 6175POPC   C4A24894   8.169  33.801   7.650
 6175POPC   C1B24895   7.974  33.722   8.550
 6175POPC   C2B24896   7.936  33.716   8.250
 6175POPC   C3B24897   7.927  33.715   7.950
 6175POPC   C4B24898   7.965  33.673   7.650
 6176POPC   NC324899  30.701  15.151   9.450
 6176POPC   PO424900  30.708  15.153   9.150
 6176POPC   GL124901  30.730  15.139   8.850
 6176POPC   GL224902  30.849  15.181   8.850
 6176POPC   C1A24903  30.686  15.221   8.550
 6176POPC   D2A24904  30.665  15.220   8.250
 6176POPC   C3A24905  30.711  15.155   7.950
 6176POPC   C4A24906  30.661  15.143   7.650
 6176POPC   C1B24907  30.898  15.267   8.550
 6176POPC   C2B24908  30.935  15.262   8.250
 6176POPC   C3B24909  30.931  15.262   7.950
 6176POPC   C4B24910  30.902  15.210   7.650
 6177POPC   NC324911   8.939   8.213   9.450
 6177POPC   PO424912   8.964   8.231   9.150
 6177POPC   GL124913   9.004   8.215   8.850
 6177POPC   GL224914   9.043   8.270   8.850
 6177POPC   C1A24915   9.003   8.197   8.550
 6177POPC   D2A24916   8.939   8.238   8.250
 6177POPC   C3A24917   9.016   8.188   7.950
 6177POPC   C4A24918   8.931   8.219   7.650
 6177POPC   C1B24919   9.200   8.354   8.550
 6177POPC   C2B24920   9.149   8.299   8.250
 6177POPC   C3B24921   9.206   8.360   7.950
 6177POPC   C4B24922   9.225   8.304   7.650
 6178POPC   NC324923  21.410  20.632   9.450
 6178POPC   PO424924  21.370  20.587   9.150
 6178POPC   GL124925  21.363  20.588   8.850
 6178POPC   GL224926  21.453  20.464   8.850
 6178POPC   C1A24927  21.407  20.578   8.550
 6178POPC   D2A24928  21.345  20.657   8.250
 6178POPC   C3A24929  21.389  20.607   7.950
 6178POPC   C4A24930  21.353  20.590   7.650
 6178POPC   C1B24931  21.546  20.429   8.550
 6178POPC   C2B24932  21.548  20.351   8.250
 6178POPC   C3B24933  21.532  20.425   7.950
 6178POPC   C4B24934  21.479  20.439   7.650
 6179POPC   NC324935  22.212   2.013   9.450
 6179POPC   PO424936  22.208   2.034   9.150
 6179POPC   GL124937  22.128   1.962   8.850
 6179POPC   GL224938  22.111   2.033   8.850
 6179POPC   C1A24939  22.118   1.983   8.550
 6179POPC   D2A24940  22.170   2.034   8.250
 6179POPC   C3A24941  22.182   1.959   7.950
 6179POPC   C4A24942  22.186   1.998   7.650
 6179POPC   C1B24943  22.009   2.147   8.550
 6179POPC   C2B24944  21.980   2.175   8.250
 6179POPC   C3B24945  21.944   2.141   7.950
 6179POPC   C4B24946  22.038   2.163   7.650
 6180POPC   NC324947   0.448   7.404   9.450
 6180POPC   PO424948   0.473   7.412   9.150
 6180POPC   GL124949   0.388   7.413   8.850
 6180POPC   GL224950   0.436   7.310   8.850
 6180POPC   C1A24951   0.444   7.424   8.550
 6180POPC   D2A24952   0.440   7.409   8.250
 6180POPC   C3A24953   0.449   7.440   7.950
 6180POPC   C4A24954   0.415   7.419   7.650
 6180POPC   C1B24955   0.470   7.193   8.550
 6180POPC   C2B24956   0.452   7.223   8.250
 6180POPC   C3B24957   0.504   7.176   7.950
 6180POPC   C4B24958   0.529   7.172   7.650
 6181POPC   NC324959   5.891  34.566   9.450
 6181POPC   PO424960   5.842  34.540   9.150
 6181POPC   GL124961   5.878  34.569   8.850
 6181POPC   GL224962   5.930  34.499   8.850
 6181POPC   C1A24963   5.881  34.609   8.550
 6181POPC   D2A24964   5.912  34.548   8.250
 6181POPC   C3A24965   5.862  34.623   7.950
 6181POPC   C4A24966   5.865  34.590   7.650
 6181POPC   C1B24967   5.975  34.405   8.550
 6181POPC   C2B24968   6.033  34.334   8.250
 6181POPC   C3B24969   6.029  34.338   7.950
 6181POPC   C4B24970   6.037  34.401   7.650
 6182POPC   NC324971   0.442  10.484   9.450
 6182POPC   PO424972   0.411  10.515   9.150
 6182POPC   GL124973   0.476  10.512   8.850
 6182POPC   GL224974   0.573  10.545   8.850
 6182POPC   C1A24975   0.470  10.517   8.550
 6182POPC   D2A24976   0.416  10.504   8.250
 6182POPC   C3A24977   0.396  10.558   7.950
 6182POPC   C4A24978   0.485  10.561   7.650
 6182POPC   C1B24979   0.680  10.450   8.550
 6182POPC   C2B24980   0.652  10.474   8.250
 6182POPC   C3B24981   0.718  10.426   7.950
 6182POPC   C4B24982   0.636  10.484   7.650
 6183POPC   NC324983   2.804  22.115   9.450
 6183POPC   PO424984   2.791  22.178   9.150
 6183POPC   GL124985   2.733  22.133   8.850
 6183POPC   GL224986   2.625  22.154   8.850
 6183POPC   C1A24987   2.757  22.166   8.550
 6183POPC   D2A24988   2.779  22.172   8.250
 6183POPC   C3A24989   2.769  22.196   7.950
 6183POPC   C4A24990   2.786  22.123   7.650
 6183POPC   C1B24991   2.532  22.080   8.550
 6183POPC   C2B24992   2.549  22.098   8.250
 6183POPC   C3B24993   2.528  22.082   7.950
 6183POPC   C4B24994   2.545  22.094   7.650
 6184POPC   NC324995   9.769   7.411   9.450
 6184POPC   PO424996   9.766   7.447   9.150
 6184POPC   GL124997   9.738   7.432   8.850
 6184POPC   GL224998   9.611   7.349   8.850
 6184POPC   C1A24999   9.773   7.393   8.550
 6184POPC   D2A25000   9.766   7.470   8.250
 6184POPC   C3A25001   9.774   7.422   7.950
 6184POPC   C4A25002   9.721   7.429   7.650
 6184POPC   C1B25003   9.462   7.398   8.550
 6184POPC   C2B25004   9.550   7.381   8.250
 6184POPC   C3B25005   9.483   7.350   7.950
 6184POPC   C4B25006   9.546   7.391   7.650
 6185POPC   NC325007  33.030   3.533   9.450
 6185POPC   PO425008  32.990   3.498   9.150
 6185POPC   GL125009  33.067   3.557   8.850
 6185POPC   GL225010  32.984   3.401   8.850
 6185POPC   C1A25011  33.018   3.505   8.550
 6185POPC   D2A25012  33.062   3.532   8.250
 6185POPC   C3A25013  33.036   3.531   7.950
 6185POPC   C4A25014  33.034   3.516   7.650
 6185POPC   C1B25015  32.892   3.294   8.550
 6185POPC   C2B25016  32.928   3.282   8.250
 6185POPC   C3B25017  32.965   3.359   7.950
 6185POPC   C4B25018  32.957   3.353   7.650
 6186POPC   NC325019  29.126  29.911   9.450
 6186POPC   PO425020  29.111  29.964   9.150
 6186POPC   GL125021  29.162  29.932   8.850
 6186POPC   GL225022  29.229  29.985   8.850
 6186POPC   C1A25023  29.140  29.940   8.550
 6186POPC   D2A25024  29.098  29.936   8.250
 6186POPC   C3A25025  29.185  29.918   7.950
 6186POPC   C4A25026  29.129  29.915   7.650
 6186POPC   C1B25027  29.312  30.103   8.550
 6186POPC   C2B25028  29.294  30.109   8.250
 6186POPC   C3B25029  29.256  30.163   7.950
 6186POPC   C4B25030  29.334  30.138   7.650
 6187POPC   NC325031  10.507   5.054   9.450
 6187POPC   PO425032  10.477   5.093   9.150
 6187POPC   GL125033  10.553   5.107   8.850
 6187POPC   GL225034  10.695   5.076   8.850
 6187POPC   C1A25035  10.477   5.109   8.550
 6187POPC   D2A25036  10.533   5.090   8.250
 6187POPC   C3A25037  10.550   5.107   7.950
 6187POPC   C4A25038  10.539   5.101   7.650
 6187POPC   C1B25039  10.740   5.012   8.550
 6187POPC   C2B25040  10.747   5.095   8.250
 6187POPC   C3B25041  10.740   5.081   7.950
 6187POPC   C4B25042  10.725   5.057   7.650
 6188POPC   NC325043  41.548  12.844   9.450
 6188POPC   PO425044  41.600  12.902   9.150
 6188POPC   GL125045  41.551  12.841   8.850
 6188POPC   GL225046  41.623  12.752   8.850
 6188POPC   C1A25047  41.598  12.853   8.550
 6188POPC   D2A25048  41.578  12.822   8.250
 6188POPC   C3A25049  41.604  12.802   7.950
 6188POPC   C4A25050  41.551  12.805   7.650
 6188POPC   C1B25051  41.637  12.576   8.550
 6188POPC   C2B25052  41.602  12.626   8.250
 6188POPC   C3B25053  41.637  12.565   7.950
 6188POPC   C4B25054  41.659  12.592   7.650
 6189POPC   NC325055  26.774  26.008   9.450
 6189POPC   PO425056  26.863  26.063   9.150
 6189POPC   GL125057  26.786  26.021   8.850
 6189POPC   GL225058  26.870  25.976   8.850
 6189POPC   C1A25059  26.775  26.040   8.550
 6189POPC   D2A25060  26.815  26.047   8.250
 6189POPC   C3A25061  26.823  26.091   7.950
 6189POPC   C4A25062  26.858  26.054   7.650
 6189POPC   C1B25063  26.920  25.788   8.550
 6189POPC   C2B25064  26.986  25.881   8.250
 6189POPC   C3B25065  27.000  25.864   7.950
 6189POPC   C4B25066  26.982  25.871   7.650
 6190POPC   NC325067  26.799  15.942   9.450
 6190POPC   PO425068  26.791  15.907   9.150
 6190POPC   GL125069  26.850  15.970   8.850
 6190POPC   GL225070  26.744  15.871   8.850
 6190POPC   C1A25071  26.831  15.927   8.550
 6190POPC   D2A25072  26.773  15.984   8.250
 6190POPC   C3A25073  26.856  15.927   7.950
 6190POPC   C4A25074  26.819  15.994   7.650
 6190POPC   C1B25075  26.745  15.729   8.550
 6190POPC   C2B25076  26.733  15.700   8.250
 6190POPC   C3B25077  26.753  15.716   7.950
 6190POPC   C4B25078  26.778  15.714   7.650
 6191POPC   NC325079  30.706  30.691   9.450
 6191POPC   PO425080  30.738  30.727   9.150
 6191POPC   GL125081  30.672  30.682   8.850
 6191POPC   GL225082  30.851  30.748   8.850
 6191POPC   C1A25083  30.684  30.668   8.550
 6191POPC   D2A25084  30.731  30.698   8.250
 6191POPC   C3A25085  30.676  30.669   7.950
 6191POPC   C4A25086  30.733  30.735   7.650
 6191POPC   C1B25087  30.984  30.749   8.550
 6191POPC   C2B25088  30.981  30.769   8.250
 6191POPC   C3B25089  30.985  30.742   7.950
 6191POPC   C4B25090  30.928  30.741   7.650
 6192POPC   NC325091  41.601  30.682   9.450
 6192POPC   PO425092  41.556  30.698   9.150
 6192POPC   GL125093  41.529  30.684   8.850
 6192POPC   GL225094  41.491  30.591   8.850
 6192POPC   C1A25095  41.542  30.746   8.550
 6192POPC   D2A25096  41.547  30.664   8.250
 6192POPC   C3A25097  41.533  30.649   7.950
 6192POPC   C4A25098  41.553  30.660   7.650
 6192POPC   C1B25099  41.388  30.616   8.550
 6192POPC   C2B25100  41.300  30.608   8.250
 6192POPC   C3B25101  41.382  30.541   7.950
 6192POPC   C4B25102  41.368  30.613   7.650
 6193POPC   NC325103  33.044  19.024   9.450
 6193POPC   PO425104  33.023  19.041   9.150
 6193POPC   GL125105  33.074  19.030   8.850
 6193POPC   GL225106  33.022  19.214   8.850
 6193POPC   C1A25107  33.063  19.088   8.550
 6193POPC   D2A25108  33.067  19.074   8.250
 6193POPC   C3A25109  33.048  19.090   7.950
 6193POPC   C4A25110  32.985  19.016   7.650
 6193POPC   C1B25111  33.045  19.328   8.550
 6193POPC   C2B25112  33.019  19.335   8.250
 6193POPC   C3B25113  33.013  19.318   7.950
 6193POPC   C4B25114  33.018  19.353   7.650
 6194POPC   NC325115   3.531   6.683   9.450
 6194POPC   PO425116   3.493   6.619   9.150
 6194POPC   GL125117   3.578   6.641   8.850
 6194POPC   GL225118   3.493   6.591   8.850
 6194POPC   C1A25119   3.542   6.602   8.550
 6194POPC   D2A25120   3.589   6.673   8.250
 6194POPC   C3A25121   3.550   6.658   7.950
 6194POPC   C4A25122   3.579   6.630   7.650
 6194POPC   C1B25123   3.363   6.493   8.550
 6194POPC   C2B25124   3.327   6.498   8.250
 6194POPC   C3B25125   3.376   6.461   7.950
 6194POPC   C4B25126   3.356   6.444   7.650
 6195POPC   NC325127  20.607  17.489   9.450
 6195POPC   PO425128  20.646  17.476   9.150
 6195POPC   GL125129  20.630  17.474   8.850
 6195POPC   GL225130  20.455  17.420   8.850
 6195POPC   C1A25131  20.582  17.494   8.550
 6195POPC   D2A25132  20.632  17.555   8.250
 6195POPC   C3A25133  20.561  17.515   7.950
 6195POPC   C4A25134  20.601  17.520   7.650
 6195POPC   C1B25135  20.381  17.383   8.550
 6195POPC   C2B25136  20.425  17.412   8.250
 6195POPC   C3B25137  20.405  17.410   7.950
 6195POPC   C4B25138  20.374  17.382   7.650
 6196POPC   NC325139   1.953  31.521   9.450
 6196POPC   PO425140   2.009  31.463   9.150
 6196POPC   GL125141   1.992  31.438   8.850
 6196POPC   GL225142   2.126  31.568   8.850
 6196POPC   C1A25143   2.004  31.490   8.550
 6196POPC   D2A25144   1.996  31.511   8.250
 6196POPC   C3A25145   1.963  31.438   7.950
 6196POPC   C4A25146   1.941  31.512   7.650
 6196POPC   C1B25147   2.178  31.686   8.550
 6196POPC   C2B25148   2.221  31.634   8.250
 6196POPC   C3B25149   2.176  31.654   7.950
 6196POPC   C4B25150   2.180  31.651   7.650
 6197POPC   NC325151  36.893  29.126   9.450
 6197POPC   PO425152  36.863  29.130   9.150
 6197POPC   GL125153  36.861  29.120   8.850
 6197POPC   GL225154  36.806  29.221   8.850
 6197POPC   C1A25155  36.875  29.174   8.550
 6197POPC   D2A25156  36.953  29.105   8.250
 6197POPC   C3A25157  36.906  29.165   7.950
 6197POPC   C4A25158  36.932  29.137   7.650
 6197POPC   C1B25159  36.716  29.313   8.550
 6197POPC   C2B25160  36.770  29.367   8.250
 6197POPC   C3B25161  36.801  29.346   7.950
 6197POPC   C4B25162  36.739  29.339   7.650
 6198POPC   NC325163  35.394  24.469   9.450
 6198POPC   PO425164  35.364  24.461   9.150
 6198POPC   GL125165  35.397  24.489   8.850
 6198POPC   GL225166  35.318  24.387   8.850
 6198POPC   C1A25167  35.340  24.512   8.550
 6198POPC   D2A25168  35.401  24.502   8.250
 6198POPC   C3A25169  35.376  24.461   7.950
 6198POPC   C4A25170  35.353  24.484   7.650
 6198POPC   C1B25171  35.204  24.253   8.550
 6198POPC   C2B25172  35.139  24.252   8.250
 6198POPC   C3B25173  35.228  24.257   7.950
 6198POPC   C4B25174  35.230  24.344   7.650
 6199POPC   NC325175  43.920  27.592   9.450
 6199POPC   PO425176  43.916  27.601   9.150
 6199POPC   GL125177  43.909  27.635   8.850
 6199POPC   GL225178  43.777  27.698   8.850
 6199POPC   C1A25179  43.899  27.546   8.550
 6199POPC   D2A25180  43.857  27.642   8.250
 6199POPC   C3A25181  43.849  27.589   7.950
 6199POPC   C4A25182  43.928  27.586   7.650
 6199POPC   C1B25183  43.654  27.690   8.550
 6199POPC   C2B25184  43.718  27.723   8.250
 6199POPC   C3B25185  43.722  27.691   7.950
 6199POPC   C4B25186  43.692  27.717   7.650
 6200POPC   NC325187  37.720  29.154   9.450
 6200POPC   PO425188  37.649  29.099   9.150
 6200POPC   GL125189  37.644  29.154   8.850
 6200POPC   GL225190  37.616  29.241   8.850
 6200POPC   C1A25191  37.712  29.095   8.550
 6200POPC   D2A25192  37.659  29.184   8.250
 6200POPC   C3A25193  37.659  29.102   7.950
 6200POPC   C4A25194  37.672  29.171   7.650
 6200POPC   C1B25195  37.494  29.289   8.550
 6200POPC   C2B25196  37.492  29.349   8.250
 6200POPC   C3B25197  37.457  29.320   7.950
 6200POPC   C4B25198  37.488  29.338   7.650
 6201POPC   NC325199   9.705   8.223   9.450
 6201POPC   PO425200   9.766   8.196   9.150
 6201POPC   GL125201   9.704   8.237   8.850
 6201POPC   GL225202   9.683   8.106   8.850
 6201POPC   C1A25203   9.718   8.223   8.550
 6201POPC   D2A25204   9.743   8.198   8.250
 6201POPC   C3A25205   9.699   8.161   7.950
 6201POPC   C4A25206   9.704   8.241   7.650
 6201POPC   C1B25207   9.520   8.071   8.550
 6201POPC   C2B25208   9.540   8.114   8.250
 6201POPC   C3B25209   9.472   8.122   7.950
 6201POPC   C4B25210   9.491   8.110   7.650
 6202POPC   NC325211  39.210  10.574   9.450
 6202POPC   PO425212  39.199  10.516   9.150
 6202POPC   GL125213  39.208  10.487   8.850
 6202POPC   GL225214  39.249  10.612   8.850
 6202POPC   C1A25215  39.191  10.523   8.550
 6202POPC   D2A25216  39.277  10.549   8.250
 6202POPC   C3A25217  39.224  10.476   7.950
 6202POPC   C4A25218  39.184  10.513   7.650
 6202POPC   C1B25219  39.279  10.773   8.550
 6202POPC   C2B25220  39.330  10.739   8.250
 6202POPC   C3B25221  39.262  10.797   7.950
 6202POPC   C4B25222  39.253  10.736   7.650
 6203POPC   NC325223  22.203  34.556   9.450
 6203POPC   PO425224  22.119  34.584   9.150
 6203POPC   GL125225  22.113  34.608   8.850
 6203POPC   GL225226  22.038  34.573   8.850
 6203POPC   C1A25227  22.175  34.567   8.550
 6203POPC   D2A25228  22.166  34.584   8.250
 6203POPC   C3A25229  22.154  34.565   7.950
 6203POPC   C4A25230  22.198  34.588   7.650
 6203POPC   C1B25231  21.877  34.534   8.550
 6203POPC   C2B25232  21.955  34.554   8.250
 6203POPC   C3B25233  21.885  34.544   7.950
 6203POPC   C4B25234  21.914  34.536   7.650
 6204POPC   NC325235  27.635  25.256   9.450
 6204POPC   PO425236  27.576  25.269   9.150
 6204POPC   GL125237  27.590  25.232   8.850
 6204POPC   GL225238  27.672  25.316   8.850
 6204POPC   C1A25239  27.568  25.287   8.550
 6204POPC   D2A25240  27.606  25.287   8.250
 6204POPC   C3A25241  27.564  25.300   7.950
 6204POPC   C4A25242  27.641  25.286   7.650
 6204POPC   C1B25243  27.823  25.280   8.550
 6204POPC   C2B25244  27.840  25.359   8.250
 6204POPC   C3B25245  27.859  25.354   7.950
 6204POPC   C4B25246  27.841  25.315   7.650
 6205POPC   NC325247  18.247   5.843   9.450
 6205POPC   PO425248  18.299   5.857   9.150
 6205POPC   GL125249  18.321   5.868   8.850
 6205POPC   GL225250  18.265   5.795   8.850
 6205POPC   C1A25251  18.235   5.909   8.550
 6205POPC   D2A25252  18.295   5.894   8.250
 6205POPC   C3A25253  18.307   5.900   7.950
 6205POPC   C4A25254  18.299   5.850   7.650
 6205POPC   C1B25255  18.124   5.612   8.550
 6205POPC   C2B25256  18.160   5.673   8.250
 6205POPC   C3B25257  18.185   5.616   7.950
 6205POPC   C4B25258  18.136   5.604   7.650
 6206POPC   NC325259  23.748   1.944   9.450
 6206POPC   PO425260  23.734   2.029   9.150
 6206POPC   GL125261  23.754   1.973   8.850
 6206POPC   GL225262  23.658   2.127   8.850
 6206POPC   C1A25263  23.677   1.985   8.550
 6206POPC   D2A25264  23.708   1.962   8.250
 6206POPC   C3A25265  23.706   1.972   7.950
 6206POPC   C4A25266  23.688   2.021   7.650
 6206POPC   C1B25267  23.635   2.221   8.550
 6206POPC   C2B25268  23.632   2.197   8.250
 6206POPC   C3B25269  23.616   2.182   7.950
 6206POPC   C4B25270  23.597   2.191   7.650
 6207POPC   NC325271  17.537  10.557   9.450
 6207POPC   PO425272  17.556  10.556   9.150
 6207POPC   GL125273  17.473  10.498   8.850
 6207POPC   GL225274  17.619  10.592   8.850
 6207POPC   C1A25275  17.520  10.485   8.550
 6207POPC   D2A25276  17.498  10.547   8.250
 6207POPC   C3A25277  17.512  10.571   7.950
 6207POPC   C4A25278  17.549  10.491   7.650
 6207POPC   C1B25279  17.621  10.691   8.550
 6207POPC   C2B25280  17.648  10.767   8.250
 6207POPC   C3B25281  17.675  10.754   7.950
 6207POPC   C4B25282  17.663  10.730   7.650
 6208POPC   NC325283  22.892  27.642   9.450
 6208POPC   PO425284  22.961  27.598   9.150
 6208POPC   GL125285  22.911  27.628   8.850
 6208POPC   GL225286  22.854  27.755   8.850
 6208POPC   C1A25287  22.963  27.575   8.550
 6208POPC   D2A25288  22.896  27.630   8.250
 6208POPC   C3A25289  22.969  27.604   7.950
 6208POPC   C4A25290  22.940  27.604   7.650
 6208POPC   C1B25291  22.876  27.824   8.550
 6208POPC   C2B25292  22.842  27.849   8.250
 6208POPC   C3B25293  22.853  27.840   7.950
 6208POPC   C4B25294  22.864  27.799   7.650
 6209POPC   NC325295   8.231   0.432   9.450
 6209POPC   PO425296   8.209   0.484   9.150
 6209POPC   GL125297   8.199   0.441   8.850
 6209POPC   GL225298   8.128   0.323   8.850
 6209POPC   C1A25299   8.231   0.434   8.550
 6209POPC   D2A25300   8.225   0.479   8.250
 6209POPC   C3A25301   8.217   0.398   7.950
 6209POPC   C4A25302   8.197   0.462   7.650
 6209POPC   C1B25303   8.070   0.276   8.550
 6209POPC   C2B25304   8.045   0.224   8.250
 6209POPC   C3B25305   8.003   0.223   7.950
 6209POPC   C4B25306   8.020   0.206   7.650
 6210POPC   NC325307  40.000  15.979   9.450
 6210POPC   PO425308  39.983  15.925   9.150
 6210POPC   GL125309  40.002  15.922   8.850
 6210POPC   GL225310  40.109  16.004   8.850
 6210POPC   C1A25311  40.007  15.921   8.550
 6210POPC   D2A25312  39.990  15.960   8.250
 6210POPC   C3A25313  40.022  15.999   7.950
 6210POPC   C4A25314  40.002  15.997   7.650
 6210POPC   C1B25315  40.234  16.095   8.550
 6210POPC   C2B25316  40.202  16.110   8.250
 6210POPC   C3B25317  40.149  16.169   7.950
 6210POPC   C4B25318  40.167  16.123   7.650
 6211POPC   NC325319  30.647   3.590   9.450
 6211POPC   PO425320  30.685   3.552   9.150
 6211POPC   GL125321  30.676   3.588   8.850
 6211POPC   GL225322  30.602   3.513   8.850
 6211POPC   C1A25323  30.721   3.517   8.550
 6211POPC   D2A25324  30.678   3.503   8.250
 6211POPC   C3A25325  30.665   3.556   7.950
 6211POPC   C4A25326  30.714   3.493   7.650
 6211POPC   C1B25327  30.438   3.405   8.550
 6211POPC   C2B25328  30.459   3.432   8.250
 6211POPC   C3B25329  30.491   3.435   7.950
 6211POPC   C4B25330  30.520   3.476   7.650
 6212POPC   NC325331  26.015  31.489   9.450
 6212POPC   PO425332  26.074  31.503   9.150
 6212POPC   GL125333  26.009  31.455   8.850
 6212POPC   GL225334  25.936  31.429   8.850
 6212POPC   C1A25335  26.089  31.457   8.550
 6212POPC   D2A25336  26.068  31.503   8.250
 6212POPC   C3A25337  25.999  31.518   7.950
 6212POPC   C4A25338  26.085  31.433   7.650
 6212POPC   C1B25339  25.776  31.386   8.550
 6212POPC   C2B25340  25.790  31.376   8.250
 6212POPC   C3B25341  25.773  31.421   7.950
 6212POPC   C4B25342  25.767  31.403   7.650
 6213POPC   NC325343  24.505  26.788   9.450
 6213POPC   PO425344  24.490  26.779   9.150
 6213POPC   GL125345  24.457  26.833   8.850
 6213POPC   GL225346  24.547  26.925   8.850
 6213POPC   C1A25347  24.471  26.772   8.550
 6213POPC   D2A25348  24.504  26.812   8.250
 6213POPC   C3A25349  24.515  26.865   7.950
 6213POPC   C4A25350  24.500  26.787   7.650
 6213POPC   C1B25351  24.709  26.941   8.550
 6213POPC   C2B25352  24.697  26.943   8.250
 6213POPC   C3B25353  24.682  27.000   7.950
 6213POPC   C4B25354  24.695  26.929   7.650
 6214POPC   NC325355  35.365   4.350   9.450
 6214POPC   PO425356  35.358   4.354   9.150
 6214POPC   GL125357  35.311   4.280   8.850
 6214POPC   GL225358  35.396   4.170   8.850
 6214POPC   C1A25359  35.399   4.361   8.550
 6214POPC   D2A25360  35.357   4.285   8.250
 6214POPC   C3A25361  35.310   4.317   7.950
 6214POPC   C4A25362  35.313   4.273   7.650
 6214POPC   C1B25363  35.522   4.157   8.550
 6214POPC   C2B25364  35.492   4.114   8.250
 6214POPC   C3B25365  35.478   4.135   7.950
 6214POPC   C4B25366  35.523   4.065   7.650
 6215POPC   NC325367   9.778  39.966   9.450
 6215POPC   PO425368   9.763  39.988   9.150
 6215POPC   GL125369   9.742  40.045   8.850
 6215POPC   GL225370   9.580  40.010   8.850
 6215POPC   C1A25371   9.712  39.958   8.550
 6215POPC   D2A25372   9.726  39.964   8.250
 6215POPC   C3A25373   9.777  40.050   7.950
 6215POPC   C4A25374   9.746  40.043   7.650
 6215POPC   C1B25375   9.512  40.005   8.550
 6215POPC   C2B25376   9.503  39.969   8.250
 6215POPC   C3B25377   9.516  39.971   7.950
 6215POPC   C4B25378   9.463  40.023   7.650
 6216POPC   NC325379  44.633  19.854   9.450
 6216POPC   PO425380  44.662  19.799   9.150
 6216POPC   GL125381  44.633  19.868   8.850
 6216POPC   GL225382  44.648  19.925   8.850
 6216POPC   C1A25383  44.648  19.854   8.550
 6216POPC   D2A25384  44.686  19.855   8.250
 6216POPC   C3A25385  44.692  19.848   7.950
 6216POPC   C4A25386  44.646  19.862   7.650
 6216POPC   C1B25387  44.640  20.130   8.550
 6216POPC   C2B25388  44.654  20.035   8.250
 6216POPC   C3B25389  44.609  20.106   7.950
 6216POPC   C4B25390  44.693  20.053   7.650
 6217POPC   NC325391  24.451  19.853   9.450
 6217POPC   PO425392  24.469  19.884   9.150
 6217POPC   GL125393  24.511  19.859   8.850
 6217POPC   GL225394  24.559  19.988   8.850
 6217POPC   C1A25395  24.481  19.835   8.550
 6217POPC   D2A25396  24.513  19.812   8.250
 6217POPC   C3A25397  24.534  19.820   7.950
 6217POPC   C4A25398  24.539  19.794   7.650
 6217POPC   C1B25399  24.576  20.032   8.550
 6217POPC   C2B25400  24.606  20.068   8.250
 6217POPC   C3B25401  24.545  20.047   7.950
 6217POPC   C4B25402  24.604  20.045   7.650
 6218POPC   NC325403   8.938  12.057   9.450
 6218POPC   PO425404   8.937  12.083   9.150
 6218POPC   GL125405   8.999  12.083   8.850
 6218POPC   GL225406   9.056  12.152   8.850
 6218POPC   C1A25407   8.986  12.103   8.550
 6218POPC   D2A25408   8.951  12.074   8.250
 6218POPC   C3A25409   8.947  12.108   7.950
 6218POPC   C4A25410   9.007  12.047   7.650
 6218POPC   C1B25411   9.138  12.270   8.550
 6218POPC   C2B25412   9.097  12.339   8.250
 6218POPC   C3B25413   9.144  12.326   7.950
 6218POPC   C4B25414   9.115  12.256   7.650
 6219POPC   NC325415  26.087  39.987   9.450
 6219POPC   PO425416  26.072  39.986   9.150
 6219POPC   GL125417  26.063  39.986   8.850
 6219POPC   GL225418  26.165  39.974   8.850
 6219POPC   C1A25419  26.084  39.995   8.550
 6219POPC   D2A25420  26.036  39.987   8.250
 6219POPC   C3A25421  26.063  40.023   7.950
 6219POPC   C4A25422  26.070  40.052   7.650
 6219POPC   C1B25423  26.236  39.856   8.550
 6219POPC   C2B25424  26.315  39.858   8.250
 6219POPC   C3B25425  26.305  39.895   7.950
 6219POPC   C4B25426  26.237  39.904   7.650
 6220POPC   NC325427  24.519  30.724   9.450
 6220POPC   PO425428  24.520  30.738   9.150
 6220POPC   GL125429  24.469  30.698   8.850
 6220POPC   GL225430  24.328  30.642   8.850
 6220POPC   C1A25431  24.488  30.739   8.550
 6220POPC   D2A25432  24.493  30.662   8.250
 6220POPC   C3A25433  24.481  30.717   7.950
 6220POPC   C4A25434  24.482  30.669   7.650
 6220POPC   C1B25435  24.249  30.609   8.550
 6220POPC   C2B25436  24.222  30.544   8.250
 6220POPC   C3B25437  24.220  30.565   7.950
 6220POPC   C4B25438  24.301  30.542   7.650
 6221POPC   NC325439  39.200  12.872   9.450
 6221POPC   PO425440  39.231  12.838   9.150
 6221POPC   GL125441  39.240  12.896   8.850
 6221POPC   GL225442  39.104  12.785   8.850
 6221POPC   C1A25443  39.261  12.889   8.550
 6221POPC   D2A25444  39.203  12.808   8.250
 6221POPC   C3A25445  39.267  12.883   7.950
 6221POPC   C4A25446  39.244  12.871   7.650
 6221POPC   C1B25447  39.056  12.676   8.550
 6221POPC   C2B25448  39.038  12.644   8.250
 6221POPC   C3B25449  39.076  12.614   7.950
 6221POPC   C4B25450  39.107  12.630   7.650
 6222POPC   NC325451  22.202  29.934   9.450
 6222POPC   PO425452  22.172  29.953   9.150
 6222POPC   GL125453  22.175  29.881   8.850
 6222POPC   GL225454  22.257  29.949   8.850
 6222POPC   C1A25455  22.112  29.959   8.550
 6222POPC   D2A25456  22.191  29.930   8.250
 6222POPC   C3A25457  22.207  29.907   7.950
 6222POPC   C4A25458  22.129  29.915   7.650
 6222POPC   C1B25459  22.417  30.070   8.550
 6222POPC   C2B25460  22.352  30.102   8.250
 6222POPC   C3B25461  22.328  30.084   7.950
 6222POPC   C4B25462  22.355  30.077   7.650
 6223POPC   NC325463  29.157  16.724   9.450
 6223POPC   PO425464  29.136  16.689   9.150
 6223POPC   GL125465  29.127  16.767   8.850
 6223POPC   GL225466  29.214  16.757   8.850
 6223POPC   C1A25467  29.172  16.731   8.550
 6223POPC   D2A25468  29.113  16.681   8.250
 6223POPC   C3A25469  29.144  16.696   7.950
 6223POPC   C4A25470  29.148  16.743   7.650
 6223POPC   C1B25471  29.418  16.794   8.550
 6223POPC   C2B25472  29.367  16.859   8.250
 6223POPC   C3B25473  29.331  16.814   7.950
 6223POPC   C4B25474  29.329  16.774   7.650
 6224POPC   NC325475   2.775   6.617   9.450
 6224POPC   PO425476   2.777   6.664   9.150
 6224POPC   GL125477   2.755   6.604   8.850
 6224POPC   GL225478   2.637   6.684   8.850
 6224POPC   C1A25479   2.800   6.626   8.550
 6224POPC   D2A25480   2.773   6.692   8.250
 6224POPC   C3A25481   2.720   6.643   7.950
 6224POPC   C4A25482   2.722   6.675   7.650
 6224POPC   C1B25483   2.494   6.708   8.550
 6224POPC   C2B25484   2.536   6.744   8.250
 6224POPC   C3B25485   2.492   6.798   7.950
 6224POPC   C4B25486   2.585   6.780   7.650
 6225POPC   NC325487  29.936  44.697   9.450
 6225POPC   PO425488  29.877  44.701   9.150
 6225POPC   GL125489  29.909  44.657   8.850
 6225POPC   GL225490  30.042  44.684   8.850
 6225POPC   C1A25491  29.914  44.659   8.550
 6225POPC   D2A25492  29.920  44.661   8.250
 6225POPC   C3A25493  29.954  44.668   7.950
 6225POPC   C4A25494  29.897  44.615   7.650
 6225POPC   C1B25495  30.165  44.606   8.550
 6225POPC   C2B25496  30.208  44.641   8.250
 6225POPC   C3B25497  30.128  44.658   7.950
 6225POPC   C4B25498  30.214  44.575   7.650
 6226POPC   NC325499  29.962   0.430   9.450
 6226POPC   PO425500  29.881   0.445   9.150
 6226POPC   GL125501  29.939   0.465   8.850
 6226POPC   GL225502  30.063   0.436   8.850
 6226POPC   C1A25503  29.966   0.477   8.550
 6226POPC   D2A25504  29.960   0.414   8.250
 6226POPC   C3A25505  29.908   0.475   7.950
 6226POPC   C4A25506  29.914   0.465   7.650
 6226POPC   C1B25507  30.194   0.411   8.550
 6226POPC   C2B25508  30.120   0.403   8.250
 6226POPC   C3B25509  30.165   0.429   7.950
 6226POPC   C4B25510  30.189   0.350   7.650
 6227POPC   NC325511  19.873  31.473   9.450
 6227POPC   PO425512  19.832  31.504   9.150
 6227POPC   GL125513  19.795  31.514   8.850
 6227POPC   GL225514  19.897  31.612   8.850
 6227POPC   C1A25515  19.814  31.447   8.550
 6227POPC   D2A25516  19.810  31.513   8.250
 6227POPC   C3A25517  19.833  31.489   7.950
 6227POPC   C4A25518  19.840  31.510   7.650
 6227POPC   C1B25519  20.055  31.616   8.550
 6227POPC   C2B25520  19.981  31.640   8.250
 6227POPC   C3B25521  20.039  31.629   7.950
 6227POPC   C4B25522  20.047  31.690   7.650
 6228POPC   NC325523  28.322  32.280   9.450
 6228POPC   PO425524  28.402  32.220   9.150
 6228POPC   GL125525  28.336  32.269   8.850
 6228POPC   GL225526  28.452  32.175   8.850
 6228POPC   C1A25527  28.407  32.249   8.550
 6228POPC   D2A25528  28.405  32.281   8.250
 6228POPC   C3A25529  28.403  32.217   7.950
 6228POPC   C4A25530  28.372  32.228   7.650
 6228POPC   C1B25531  28.568  32.159   8.550
 6228POPC   C2B25532  28.648  32.174   8.250
 6228POPC   C3B25533  28.619  32.195   7.950
 6228POPC   C4B25534  28.636  32.154   7.650
 6229POPC   NC325535  20.613   6.648   9.450
 6229POPC   PO425536  20.627   6.634   9.150
 6229POPC   GL125537  20.636   6.646   8.850
 6229POPC   GL225538  20.590   6.792   8.850
 6229POPC   C1A25539  20.564   6.635   8.550
 6229POPC   D2A25540  20.607   6.648   8.250
 6229POPC   C3A25541  20.567   6.610   7.950
 6229POPC   C4A25542  20.592   6.666   7.650
 6229POPC   C1B25543  20.545   6.876   8.550
 6229POPC   C2B25544  20.492   6.922   8.250
 6229POPC   C3B25545  20.460   6.871   7.950
 6229POPC   C4B25546  20.539   6.869   7.650
 6230POPC   NC325547  39.228   8.948   9.450
 6230POPC   PO425548  39.260   9.011   9.150
 6230POPC   GL125549  39.184   9.009   8.850
 6230POPC   GL225550  39.285   9.106   8.850
 6230POPC   C1A25551  39.255   8.961   8.550
 6230POPC   D2A25552  39.273   9.005   8.250
 6230POPC   C3A25553  39.217   8.943   7.950
 6230POPC   C4A25554  39.251   9.021   7.650
 6230POPC   C1B25555  39.336   9.181   8.550
 6230POPC   C2B25556  39.341   9.140   8.250
 6230POPC   C3B25557  39.355   9.219   7.950
 6230POPC   C4B25558  39.388   9.178   7.650
 6231POPC   NC325559  33.751  22.904   9.450
 6231POPC   PO425560  33.819  22.977   9.150
 6231POPC   GL125561  33.795  22.958   8.850
 6231POPC   GL225562  33.723  22.994   8.850
 6231POPC   C1A25563  33.788  22.888   8.550
 6231POPC   D2A25564  33.775  22.956   8.250
 6231POPC   C3A25565  33.815  22.983   7.950
 6231POPC   C4A25566  33.850  22.945   7.650
 6231POPC   C1B25567  33.604  23.095   8.550
 6231POPC   C2B25568  33.546  23.054   8.250
 6231POPC   C3B25569  33.555  23.037   7.950
 6231POPC   C4B25570  33.627  23.028   7.650
 6232POPC   NC325571  41.575  22.985   9.450
 6232POPC   PO425572  41.584  22.980   9.150
 6232POPC   GL125573  41.562  22.909   8.850
 6232POPC   GL225574  41.540  23.099   8.850
 6232POPC   C1A25575  41.555  22.914   8.550
 6232POPC   D2A25576  41.593  22.942   8.250
 6232POPC   C3A25577  41.598  22.959   7.950
 6232POPC   C4A25578  41.521  22.903   7.650
 6232POPC   C1B25579  41.487  23.188   8.550
 6232POPC   C2B25580  41.518  23.204   8.250
 6232POPC   C3B25581  41.520  23.146   7.950
 6232POPC   C4B25582  41.542  23.159   7.650
 6233POPC   NC325583  43.844  22.979   9.450
 6233POPC   PO425584  43.857  22.976   9.150
 6233POPC   GL125585  43.893  22.904   8.850
 6233POPC   GL225586  43.997  22.928   8.850
 6233POPC   C1A25587  43.936  22.922   8.550
 6233POPC   D2A25588  43.901  22.930   8.250
 6233POPC   C3A25589  43.909  22.896   7.950
 6233POPC   C4A25590  43.894  22.929   7.650
 6233POPC   C1B25591  44.157  22.828   8.550
 6233POPC   C2B25592  44.170  22.894   8.250
 6233POPC   C3B25593  44.173  22.907   7.950
 6233POPC   C4B25594  44.078  22.896   7.650
 6234POPC   NC325595  43.899  40.023   9.450
 6234POPC   PO425596  43.912  40.039   9.150
 6234POPC   GL125597  43.886  39.977   8.850
 6234POPC   GL225598  44.048  40.052   8.850
 6234POPC   C1A25599  43.899  40.053   8.550
 6234POPC   D2A25600  43.847  39.958   8.250
 6234POPC   C3A25601  43.874  39.987   7.950
 6234POPC   C4A25602  43.929  40.017   7.650
 6234POPC   C1B25603  44.090  40.061   8.550
 6234POPC   C2B25604  44.147  40.104   8.250
 6234POPC   C3B25605  44.146  40.080   7.950
 6234POPC   C4B25606  44.177  40.097   7.650
 6235POPC   NC325607  29.925   1.210   9.450
 6235POPC   PO425608  29.891   1.216   9.150
 6235POPC   GL125609  29.881   1.240   8.850
 6235POPC   GL225610  30.003   1.104   8.850
 6235POPC   C1A25611  29.955   1.242   8.550
 6235POPC   D2A25612  29.879   1.209   8.250
 6235POPC   C3A25613  29.946   1.192   7.950
 6235POPC   C4A25614  29.894   1.170   7.650
 6235POPC   C1B25615  30.064   1.017   8.550
 6235POPC   C2B25616  30.063   0.992   8.250
 6235POPC   C3B25617  30.017   0.976   7.950
 6235POPC   C4B25618  30.062   0.979   7.650
 6236POPC   NC325619  36.134  38.455   9.450
 6236POPC   PO425620  36.134  38.425   9.150
 6236POPC   GL125621  36.103  38.496   8.850
 6236POPC   GL225622  36.233  38.490   8.850
 6236POPC   C1A25623  36.116  38.414   8.550
 6236POPC   D2A25624  36.146  38.468   8.250
 6236POPC   C3A25625  36.082  38.500   7.950
 6236POPC   C4A25626  36.152  38.477   7.650
 6236POPC   C1B25627  36.380  38.539   8.550
 6236POPC   C2B25628  36.354  38.620   8.250
 6236POPC   C3B25629  36.347  38.558   7.950
 6236POPC   C4B25630  36.386  38.549   7.650
 6237POPC   NC325631  34.550  42.366   9.450
 6237POPC   PO425632  34.589  42.370   9.150
 6237POPC   GL125633  34.576  42.287   8.850
 6237POPC   GL225634  34.501  42.449   8.850
 6237POPC   C1A25635  34.603  42.320   8.550
 6237POPC   D2A25636  34.565  42.308   8.250
 6237POPC   C3A25637  34.545  42.380   7.950
 6237POPC   C4A25638  34.594  42.335   7.650
 6237POPC   C1B25639  34.429  42.526   8.550
 6237POPC   C2B25640  34.425  42.492   8.250
 6237POPC   C3B25641  34.354  42.468   7.950
 6237POPC   C4B25642  34.358  42.491   7.650
 6238POPC   NC325643  15.189  32.288   9.450
 6238POPC   PO425644  15.205  32.203   9.150
 6238POPC   GL125645  15.155  32.280   8.850
 6238POPC   GL225646  15.088  32.305   8.850
 6238POPC   C1A25647  15.138  32.258   8.550
 6238POPC   D2A25648  15.136  32.239   8.250
 6238POPC   C3A25649  15.163  32.214   7.950
 6238POPC   C4A25650  15.185  32.262   7.650
 6238POPC   C1B25651  14.976  32.386   8.550
 6238POPC   C2B25652  14.986  32.463   8.250
 6238POPC   C3B25653  15.054  32.447   7.950
 6238POPC   C4B25654  15.032  32.445   7.650
 6239POPC   NC325655  12.812   1.177   9.450
 6239POPC   PO425656  12.864   1.171   9.150
 6239POPC   GL125657  12.879   1.213   8.850
 6239POPC   GL225658  12.857   1.332   8.850
 6239POPC   C1A25659  12.810   1.235   8.550
 6239POPC   D2A25660  12.870   1.257   8.250
 6239POPC   C3A25661  12.836   1.237   7.950
 6239POPC   C4A25662  12.804   1.215   7.650
 6239POPC   C1B25663  12.827   1.460   8.550
 6239POPC   C2B25664  12.825   1.440   8.250
 6239POPC   C3B25665  12.840   1.430   7.950
 6239POPC   C4B25666  12.844   1.449   7.650
 6240POPC   NC325667   6.647  37.664   9.450
 6240POPC   PO425668   6.653  37.711   9.150
 6240POPC   GL125669   6.629  37.683   8.850
 6240POPC   GL225670   6.628  37.837   8.850
 6240POPC   C1A25671   6.691  37.644   8.550
 6240POPC   D2A25672   6.645  37.713   8.250
 6240POPC   C3A25673   6.689  37.716   7.950
 6240POPC   C4A25674   6.621  37.710   7.650
 6240POPC   C1B25675   6.698  37.891   8.550
 6240POPC   C2B25676   6.712  37.905   8.250
 6240POPC   C3B25677   6.705  37.948   7.950
 6240POPC   C4B25678   6.704  37.940   7.650
 6241POPC   NC325679  11.328  33.767   9.450
 6241POPC   PO425680  11.338  33.846   9.150
 6241POPC   GL125681  11.273  33.775   8.850
 6241POPC   GL225682  11.208  33.735   8.850
 6241POPC   C1A25683  11.347  33.848   8.550
 6241POPC   D2A25684  11.299  33.752   8.250
 6241POPC   C3A25685  11.318  33.833   7.950
 6241POPC   C4A25686  11.252  33.824   7.650
 6241POPC   C1B25687  11.047  33.688   8.550
 6241POPC   C2B25688  11.078  33.734   8.250
 6241POPC   C3B25689  11.038  33.764   7.950
 6241POPC   C4B25690  11.055  33.757   7.650
 6242POPC   NC325691  33.064  21.427   9.450
 6242POPC   PO425692  33.030  21.344   9.150
 6242POPC   GL125693  32.981  21.337   8.850
 6242POPC   GL225694  33.081  21.285   8.850
 6242POPC   C1A25695  33.038  21.373   8.550
 6242POPC   D2A25696  33.041  21.365   8.250
 6242POPC   C3A25697  33.070  21.390   7.950
 6242POPC   C4A25698  33.049  21.375   7.650
 6242POPC   C1B25699  33.100  21.095   8.550
 6242POPC   C2B25700  33.069  21.091   8.250
 6242POPC   C3B25701  33.076  21.164   7.950
 6242POPC   C4B25702  33.072  21.132   7.650
 6243POPC   NC325703  20.653  38.438   9.450
 6243POPC   PO425704  20.572  38.415   9.150
 6243POPC   GL125705  20.615  38.465   8.850
 6243POPC   GL225706  20.653  38.616   8.850
 6243POPC   C1A25707  20.609  38.491   8.550
 6243POPC   D2A25708  20.579  38.488   8.250
 6243POPC   C3A25709  20.584  38.461   7.950
 6243POPC   C4A25710  20.566  38.500   7.650
 6243POPC   C1B25711  20.680  38.707   8.550
 6243POPC   C2B25712  20.728  38.653   8.250
 6243POPC   C3B25713  20.732  38.718   7.950
 6243POPC   C4B25714  20.729  38.729   7.650
 6244POPC   NC325715  24.518   7.402   9.450
 6244POPC   PO425716  24.467   7.436   9.150
 6244POPC   GL125717  24.479   7.396   8.850
 6244POPC   GL225718  24.544   7.506   8.850
 6244POPC   C1A25719  24.535   7.434   8.550
 6244POPC   D2A25720  24.513   7.439   8.250
 6244POPC   C3A25721  24.530   7.430   7.950
 6244POPC   C4A25722  24.458   7.465   7.650
 6244POPC   C1B25723  24.569   7.612   8.550
 6244POPC   C2B25724  24.589   7.671   8.250
 6244POPC   C3B25725  24.626   7.661   7.950
 6244POPC   C4B25726  24.589   7.641   7.650
 6245POPC   NC325727  25.302   5.104   9.450
 6245POPC   PO425728  25.233   5.139   9.150
 6245POPC   GL125729  25.257   5.143   8.850
 6245POPC   GL225730  25.203   5.145   8.850
 6245POPC   C1A25731  25.315   5.090   8.550
 6245POPC   D2A25732  25.288   5.106   8.250
 6245POPC   C3A25733  25.217   5.050   7.950
 6245POPC   C4A25734  25.220   5.070   7.650
 6245POPC   C1B25735  25.072   5.301   8.550
 6245POPC   C2B25736  25.117   5.259   8.250
 6245POPC   C3B25737  25.082   5.232   7.950
 6245POPC   C4B25738  25.042   5.265   7.650
 6246POPC   NC325739  40.014   3.514   9.450
 6246POPC   PO425740  39.982   3.503   9.150
 6246POPC   GL125741  39.972   3.555   8.850
 6246POPC   GL225742  39.936   3.614   8.850
 6246POPC   C1A25743  39.995   3.526   8.550
 6246POPC   D2A25744  40.011   3.537   8.250
 6246POPC   C3A25745  40.007   3.503   7.950
 6246POPC   C4A25746  39.983   3.579   7.650
 6246POPC   C1B25747  39.881   3.821   8.550
 6246POPC   C2B25748  39.898   3.803   8.250
 6246POPC   C3B25749  39.911   3.818   7.950
 6246POPC   C4B25750  39.962   3.785   7.650
 6247POPC   NC325751  34.573  12.119   9.450
 6247POPC   PO425752  34.548  12.028   9.150
 6247POPC   GL125753  34.545  12.115   8.850
 6247POPC   GL225754  34.460  12.204   8.850
 6247POPC   C1A25755  34.570  12.113   8.550
 6247POPC   D2A25756  34.546  12.050   8.250
 6247POPC   C3A25757  34.605  12.126   7.950
 6247POPC   C4A25758  34.607  12.044   7.650
 6247POPC   C1B25759  34.394  12.241   8.550
 6247POPC   C2B25760  34.440  12.256   8.250
 6247POPC   C3B25761  34.453  12.262   7.950
 6247POPC   C4B25762  34.418  12.280   7.650
 6248POPC   NC325763  39.274   5.907   9.450
 6248POPC   PO425764  39.195   5.858   9.150
 6248POPC   GL125765  39.264   5.858   8.850
 6248POPC   GL225766  39.082   5.899   8.850
 6248POPC   C1A25767  39.235   5.883   8.550
 6248POPC   D2A25768  39.281   5.897   8.250
 6248POPC   C3A25769  39.218   5.900   7.950
 6248POPC   C4A25770  39.194   5.865   7.650
 6248POPC   C1B25771  38.989   5.970   8.550
 6248POPC   C2B25772  39.075   5.995   8.250
 6248POPC   C3B25773  39.040   6.029   7.950
 6248POPC   C4B25774  39.003   6.006   7.650
 6249POPC   NC325775  24.450  27.607   9.450
 6249POPC   PO425776  24.463  27.579   9.150
 6249POPC   GL125777  24.466  27.603   8.850
 6249POPC   GL225778  24.653  27.616   8.850
 6249POPC   C1A25779  24.502  27.603   8.550
 6249POPC   D2A25780  24.508  27.559   8.250
 6249POPC   C3A25781  24.531  27.565   7.950
 6249POPC   C4A25782  24.453  27.629   7.650
 6249POPC   C1B25783  24.787  27.632   8.550
 6249POPC   C2B25784  24.754  27.608   8.250
 6249POPC   C3B25785  24.780  27.653   7.950
 6249POPC   C4B25786  24.700  27.590   7.650
 6250POPC   NC325787  19.040  19.869   9.450
 6250POPC   PO425788  19.098  19.839   9.150
 6250POPC   GL125789  19.021  19.872   8.850
 6250POPC   GL225790  19.166  19.733   8.850
 6250POPC   C1A25791  19.075  19.844   8.550
 6250POPC   D2A25792  19.063  19.795   8.250
 6250POPC   C3A25793  19.011  19.854   7.950
 6250POPC   C4A25794  19.079  19.790   7.650
 6250POPC   C1B25795  19.202  19.664   8.550
 6250POPC   C2B25796  19.214  19.639   8.250
 6250POPC   C3B25797  19.194  19.630   7.950
 6250POPC   C4B25798  19.191  19.625   7.650
 6251POPC   NC325799   0.408  33.846   9.450
 6251POPC   PO425800   0.452  33.849   9.150
 6251POPC   GL125801   0.481  33.824   8.850
 6251POPC   GL225802   0.442  33.880   8.850
 6251POPC   C1A25803   0.413  33.845   8.550
 6251POPC   D2A25804   0.425  33.752   8.250
 6251POPC   C3A25805   0.449  33.801   7.950
 6251POPC   C4A25806   0.480  33.769   7.650
 6251POPC   C1B25807   0.496  34.071   8.550
 6251POPC   C2B25808   0.505  34.017   8.250
 6251POPC   C3B25809   0.491  34.041   7.950
 6251POPC   C4B25810   0.513  34.038   7.650
 6252POPC   NC325811  44.679  16.780   9.450
 6252POPC   PO425812  44.639  16.731   9.150
 6252POPC   GL125813  44.682  16.747   8.850
 6252POPC   GL225814  44.610  16.856   8.850
 6252POPC   C1A25815  44.620  16.751   8.550
 6252POPC   D2A25816  44.677  16.762   8.250
 6252POPC   C3A25817  44.661  16.705   7.950
 6252POPC   C4A25818  44.638  16.695   7.650
 6252POPC   C1B25819  44.497  16.925   8.550
 6252POPC   C2B25820  44.525  16.893   8.250
 6252POPC   C3B25821  44.468  16.891   7.950
 6252POPC   C4B25822  44.506  16.963   7.650
 6253POPC   NC325823  18.298  22.889   9.450
 6253POPC   PO425824  18.255  22.934   9.150
 6253POPC   GL125825  18.287  22.914   8.850
 6253POPC   GL225826  18.357  22.817   8.850
 6253POPC   C1A25827  18.309  22.924   8.550
 6253POPC   D2A25828  18.329  22.972   8.250
 6253POPC   C3A25829  18.309  22.908   7.950
 6253POPC   C4A25830  18.291  22.915   7.650
 6253POPC   C1B25831  18.366  22.702   8.550
 6253POPC   C2B25832  18.370  22.702   8.250
 6253POPC   C3B25833  18.387  22.707   7.950
 6253POPC   C4B25834  18.411  22.746   7.650
 6254POPC   NC325835  40.734  26.076   9.450
 6254POPC   PO425836  40.788  26.028   9.150
 6254POPC   GL125837  40.737  26.091   8.850
 6254POPC   GL225838  40.678  25.930   8.850
 6254POPC   C1A25839  40.817  26.016   8.550
 6254POPC   D2A25840  40.740  26.089   8.250
 6254POPC   C3A25841  40.823  26.030   7.950
 6254POPC   C4A25842  40.808  26.082   7.650
 6254POPC   C1B25843  40.683  25.873   8.550
 6254POPC   C2B25844  40.688  25.801   8.250
 6254POPC   C3B25845  40.648  25.801   7.950
 6254POPC   C4B25846  40.700  25.868   7.650
 6255POPC   NC325847   1.230  44.663   9.450
 6255POPC   PO425848   1.191  44.647   9.150
 6255POPC   GL125849   1.202  44.617   8.850
 6255POPC   GL225850   1.315  44.724   8.850
 6255POPC   C1A25851   1.183  44.679   8.550
 6255POPC   D2A25852   1.166  44.656   8.250
 6255POPC   C3A25853   1.166  44.622   7.950
 6255POPC   C4A25854   1.202  44.658   7.650
 6255POPC   C1B25855   1.349  44.874   8.550
 6255POPC   C2B25856   1.399  44.868   8.250
 6255POPC   C3B25857   1.377  44.816   7.950
 6255POPC   C4B25858   1.415  44.888   7.650
 6256POPC   NC325859  33.067  16.682   9.450
 6256POPC   PO425860  32.997  16.740   9.150
 6256POPC   GL125861  32.987  16.750   8.850
 6256POPC   GL225862  33.157  16.659   8.850
 6256POPC   C1A25863  33.062  16.705   8.550
 6256POPC   D2A25864  33.049  16.757   8.250
 6256POPC   C3A25865  33.069  16.736   7.950
 6256POPC   C4A25866  33.007  16.759   7.650
 6256POPC   C1B25867  33.264  16.629   8.550
 6256POPC   C2B25868  33.268  16.612   8.250
 6256POPC   C3B25869  33.216  16.579   7.950
 6256POPC   C4B25870  33.184  16.596   7.650
 6257POPC   NC325871  26.773  21.434   9.450
 6257POPC   PO425872  26.767  21.412   9.150
 6257POPC   GL125873  26.833  21.416   8.850
 6257POPC   GL225874  26.662  21.358   8.850
 6257POPC   C1A25875  26.808  21.376   8.550
 6257POPC   D2A25876  26.802  21.431   8.250
 6257POPC   C3A25877  26.835  21.348   7.950
 6257POPC   C4A25878  26.789  21.420   7.650
 6257POPC   C1B25879  26.565  21.310   8.550
 6257POPC   C2B25880  26.627  21.298   8.250
 6257POPC   C3B25881  26.606  21.303   7.950
 6257POPC   C4B25882  26.609  21.268   7.650
 6258POPC   NC325883   8.244  18.277   9.450
 6258POPC   PO425884   8.202  18.239   9.150
 6258POPC   GL125885   8.213  18.257   8.850
 6258POPC   GL225886   8.287  18.238   8.850
 6258POPC   C1A25887   8.212  18.316   8.550
 6258POPC   D2A25888   8.216  18.240   8.250
 6258POPC   C3A25889   8.230  18.301   7.950
 6258POPC   C4A25890   8.242  18.290   7.650
 6258POPC   C1B25891   8.446  18.191   8.550
 6258POPC   C2B25892   8.434  18.200   8.250
 6258POPC   C3B25893   8.417  18.155   7.950
 6258POPC   C4B25894   8.418  18.134   7.650
 6259POPC   NC325895  40.741  10.510   9.450
 6259POPC   PO425896  40.828  10.486   9.150
 6259POPC   GL125897  40.797  10.529   8.850
 6259POPC   GL225898  40.832  10.436   8.850
 6259POPC   C1A25899  40.804  10.555   8.550
 6259POPC   D2A25900  40.764  10.479   8.250
 6259POPC   C3A25901  40.819  10.547   7.950
 6259POPC   C4A25902  40.750  10.497   7.650
 6259POPC   C1B25903  40.986  10.377   8.550
 6259POPC   C2B25904  40.982  10.286   8.250
 6259POPC   C3B25905  40.898  10.310   7.950
 6259POPC   C4B25906  40.926  10.284   7.650
 6260POPC   NC325907   9.708  27.634   9.450
 6260POPC   PO425908   9.776  27.594   9.150
 6260POPC   GL125909   9.757  27.608   8.850
 6260POPC   GL225910   9.756  27.493   8.850
 6260POPC   C1A25911   9.789  27.551   8.550
 6260POPC   D2A25912   9.716  27.557   8.250
 6260POPC   C3A25913   9.731  27.615   7.950
 6260POPC   C4A25914   9.764  27.607   7.650
 6260POPC   C1B25915   9.749  27.355   8.550
 6260POPC   C2B25916   9.736  27.373   8.250
 6260POPC   C3B25917   9.720  27.320   7.950
 6260POPC   C4B25918   9.723  27.301   7.650
 6261POPC   NC325919  22.193   8.191   9.450
 6261POPC   PO425920  22.127   8.229   9.150
 6261POPC   GL125921  22.194   8.181   8.850
 6261POPC   GL225922  22.054   8.120   8.850
 6261POPC   C1A25923  22.196   8.216   8.550
 6261POPC   D2A25924  22.204   8.157   8.250
 6261POPC   C3A25925  22.202   8.147   7.950
 6261POPC   C4A25926  22.160   8.152   7.650
 6261POPC   C1B25927  21.920   8.074   8.550
 6261POPC   C2B25928  21.915   8.030   8.250
 6261POPC   C3B25929  21.985   8.090   7.950
 6261POPC   C4B25930  21.921   8.064   7.650
 6262POPC   NC325931  21.355  35.364   9.450
 6262POPC   PO425932  21.411  35.390   9.150
 6262POPC   GL125933  21.338  35.340   8.850
 6262POPC   GL225934  21.305  35.458   8.850
 6262POPC   C1A25935  21.336  35.367   8.550
 6262POPC   D2A25936  21.345  35.392   8.250
 6262POPC   C3A25937  21.356  35.310   7.950
 6262POPC   C4A25938  21.396  35.311   7.650
 6262POPC   C1B25939  21.345  35.616   8.550
 6262POPC   C2B25940  21.358  35.568   8.250
 6262POPC   C3B25941  21.265  35.576   7.950
 6262POPC   C4B25942  21.346  35.558   7.650
 6263POPC   NC325943  34.568  23.686   9.450
 6263POPC   PO425944  34.583  23.726   9.150
 6263POPC   GL125945  34.539  23.759   8.850
 6263POPC   GL225946  34.689  23.776   8.850
 6263POPC   C1A25947  34.552  23.762   8.550
 6263POPC   D2A25948  34.532  23.734   8.250
 6263POPC   C3A25949  34.561  23.697   7.950
 6263POPC   C4A25950  34.561  23.734   7.650
 6263POPC   C1B25951  34.804  23.726   8.550
 6263POPC   C2B25952  34.782  23.722   8.250
 6263POPC   C3B25953  34.782  23.726   7.950
 6263POPC   C4B25954  34.791  23.757   7.650
 6264POPC   NC325955  41.513   5.128   9.450
 6264POPC   PO425956  41.584   5.137   9.150
 6264POPC   GL125957  41.583   5.082   8.850
 6264POPC   GL225958  41.639   5.153   8.850
 6264POPC   C1A25959  41.606   5.089   8.550
 6264POPC   D2A25960  41.517   5.073   8.250
 6264POPC   C3A25961  41.599   5.061   7.950
 6264POPC   C4A25962  41.570   5.057   7.650
 6264POPC   C1B25963  41.722   5.200   8.550
 6264POPC   C2B25964  41.739   5.213   8.250
 6264POPC   C3B25965  41.785   5.273   7.950
 6264POPC   C4B25966  41.724   5.277   7.650
 6265POPC   NC325967  36.885  24.513   9.450
 6265POPC   PO425968  36.881  24.470   9.150
 6265POPC   GL125969  36.908  24.525   8.850
 6265POPC   GL225970  36.980  24.522   8.850
 6265POPC   C1A25971  36.893  24.456   8.550
 6265POPC   D2A25972  36.907  24.512   8.250
 6265POPC   C3A25973  36.950  24.475   7.950
 6265POPC   C4A25974  36.935  24.516   7.650
 6265POPC   C1B25975  37.124  24.628   8.550
 6265POPC   C2B25976  37.164  24.603   8.250
 6265POPC   C3B25977  37.097  24.622   7.950
 6265POPC   C4B25978  37.148  24.597   7.650
 6266POPC   NC325979  44.627   3.588   9.450
 6266POPC   PO425980  44.649   3.527   9.150
 6266POPC   GL125981  44.663   3.496   8.850
 6266POPC   GL225982  44.602   3.652   8.850
 6266POPC   C1A25983  44.687   3.502   8.550
 6266POPC   D2A25984  44.690   3.550   8.250
 6266POPC   C3A25985  44.686   3.567   7.950
 6266POPC   C4A25986  44.692   3.560   7.650
 6266POPC   C1B25987  44.508   3.789   8.550
 6266POPC   C2B25988  44.584   3.817   8.250
 6266POPC   C3B25989  44.548   3.718   7.950
 6266POPC   C4B25990  44.574   3.733   7.650
 6267POPC   NC325991  12.054  26.795   9.450
 6267POPC   PO425992  12.048  26.815   9.150
 6267POPC   GL125993  12.120  26.862   8.850
 6267POPC   GL225994  12.048  26.954   8.850
 6267POPC   C1A25995  12.040  26.830   8.550
 6267POPC   D2A25996  12.065  26.839   8.250
 6267POPC   C3A25997  12.075  26.860   7.950
 6267POPC   C4A25998  12.058  26.797   7.650
 6267POPC   C1B25999  12.050  27.074   8.550
 6267POPC   C2B26000  12.090  27.102   8.250
 6267POPC   C3B26001  12.049  27.021   7.950
 6267POPC   C4B26002  12.053  27.025   7.650
 6268POPC   NC326003  28.370  12.083   9.450
 6268POPC   PO426004  28.367  12.105   9.150
 6268POPC   GL126005  28.373  12.052   8.850
 6268POPC   GL226006  28.531  12.033   8.850
 6268POPC   C1A26007  28.325  12.055   8.550
 6268POPC   D2A26008  28.348  12.084   8.250
 6268POPC   C3A26009  28.323  12.093   7.950
 6268POPC   C4A26010  28.368  12.082   7.650
 6268POPC   C1B26011  28.600  12.058   8.550
 6268POPC   C2B26012  28.571  12.024   8.250
 6268POPC   C3B26013  28.630  12.065   7.950
 6268POPC   C4B26014  28.620  12.081   7.650
 6269POPC   NC326015  34.618   8.928   9.450
 6269POPC   PO426016  34.562   8.954   9.150
 6269POPC   GL126017  34.624   8.934   8.850
 6269POPC   GL226018  34.479   9.043   8.850
 6269POPC   C1A26019  34.565   8.963   8.550
 6269POPC   D2A26020  34.606   8.925   8.250
 6269POPC   C3A26021  34.533   8.992   7.950
 6269POPC   C4A26022  34.619   9.014   7.650
 6269POPC   C1B26023  34.381   9.171   8.550
 6269POPC   C2B26024  34.427   9.146   8.250
 6269POPC   C3B26025  34.441   9.098   7.950
 6269POPC   C4B26026  34.369   9.156   7.650
 6270POPC   NC326027  20.658  36.111   9.450
 6270POPC   PO426028  20.579  36.139   9.150
 6270POPC   GL126029  20.638  36.140   8.850
 6270POPC   GL226030  20.629  36.264   8.850
 6270POPC   C1A26031  20.636  36.159   8.550
 6270POPC   D2A26032  20.596  36.102   8.250
 6270POPC   C3A26033  20.657  36.135   7.950
 6270POPC   C4A26034  20.569  36.128   7.650
 6270POPC   C1B26035  20.541  36.323   8.550
 6270POPC   C2B26036  20.561  36.418   8.250
 6270POPC   C3B26037  20.578  36.381   7.950
 6270POPC   C4B26038  20.564  36.414   7.650
 6271POPC   NC326039  30.683   0.481   9.450
 6271POPC   PO426040  30.671   0.453   9.150
 6271POPC   GL126041  30.664   0.456   8.850
 6271POPC   GL226042  30.750   0.535   8.850
 6271POPC   C1A26043  30.697   0.414   8.550
 6271POPC   D2A26044  30.663   0.472   8.250
 6271POPC   C3A26045  30.661   0.438   7.950
 6271POPC   C4A26046  30.693   0.450   7.650
 6271POPC   C1B26047  30.772   0.703   8.550
 6271POPC   C2B26048  30.831   0.708   8.250
 6271POPC   C3B26049  30.764   0.715   7.950
 6271POPC   C4B26050  30.819   0.670   7.650
 6272POPC   NC326051  22.928  36.158   9.450
 6272POPC   PO426052  22.942  36.172   9.150
 6272POPC   GL126053  22.954  36.128   8.850
 6272POPC   GL226054  23.035  36.178   8.850
 6272POPC   C1A26055  22.946  36.098   8.550
 6272POPC   D2A26056  22.888  36.108   8.250
 6272POPC   C3A26057  22.970  36.145   7.950
 6272POPC   C4A26058  22.922  36.082   7.650
 6272POPC   C1B26059  23.129  36.300   8.550
 6272POPC   C2B26060  23.108  36.350   8.250
 6272POPC   C3B26061  23.074  36.320   7.950
 6272POPC   C4B26062  23.145  36.286   7.650
 6273POPC   NC326063  32.237  19.060   9.450
 6273POPC   PO426064  32.268  19.062   9.150
 6273POPC   GL126065  32.209  19.082   8.850
 6273POPC   GL226066  32.133  18.976   8.850
 6273POPC   C1A26067  32.225  19.095   8.550
 6273POPC   D2A26068  32.273  19.085   8.250
 6273POPC   C3A26069  32.220  19.057   7.950
 6273POPC   C4A26070  32.209  19.068   7.650
 6273POPC   C1B26071  31.962  19.003   8.550
 6273POPC   C2B26072  31.991  18.960   8.250
 6273POPC   C3B26073  32.055  18.995   7.950
 6273POPC   C4B26074  32.002  18.971   7.650
 6274POPC   NC326075  33.068  13.627   9.450
 6274POPC   PO426076  32.976  13.652   9.150
 6274POPC   GL126077  33.056  13.648   8.850
 6274POPC   GL226078  33.051  13.760   8.850
 6274POPC   C1A26079  33.026  13.664   8.550
 6274POPC   D2A26080  32.991  13.582   8.250
 6274POPC   C3A26081  33.071  13.677   7.950
 6274POPC   C4A26082  33.027  13.622   7.650
 6274POPC   C1B26083  33.118  13.859   8.550
 6274POPC   C2B26084  33.101  13.847   8.250
 6274POPC   C3B26085  33.108  13.858   7.950
 6274POPC   C4B26086  33.049  13.868   7.650
 6275POPC   NC326087  25.306  35.317   9.450
 6275POPC   PO426088  25.312  35.335   9.150
 6275POPC   GL126089  25.272  35.342   8.850
 6275POPC   GL226090  25.109  35.261   8.850
 6275POPC   C1A26091  25.292  35.334   8.550
 6275POPC   D2A26092  25.265  35.360   8.250
 6275POPC   C3A26093  25.248  35.361   7.950
 6275POPC   C4A26094  25.314  35.370   7.650
 6275POPC   C1B26095  25.084  35.225   8.550
 6275POPC   C2B26096  25.037  35.202   8.250
 6275POPC   C3B26097  25.072  35.202   7.950
 6275POPC   C4B26098  25.018  35.249   7.650
 6276POPC   NC326099  35.332  29.117   9.450
 6276POPC   PO426100  35.321  29.115   9.150
 6276POPC   GL126101  35.356  29.141   8.850
 6276POPC   GL226102  35.227  29.206   8.850
 6276POPC   C1A26103  35.327  29.096   8.550
 6276POPC   D2A26104  35.328  29.165   8.250
 6276POPC   C3A26105  35.334  29.101   7.950
 6276POPC   C4A26106  35.354  29.178   7.650
 6276POPC   C1B26107  35.189  29.345   8.550
 6276POPC   C2B26108  35.158  29.293   8.250
 6276POPC   C3B26109  35.181  29.355   7.950
 6276POPC   C4B26110  35.122  29.260   7.650
 6277POPC   NC326111  22.179  23.694   9.450
 6277POPC   PO426112  22.125  23.733   9.150
 6277POPC   GL126113  22.172  23.671   8.850
 6277POPC   GL226114  22.191  23.541   8.850
 6277POPC   C1A26115  22.157  23.696   8.550
 6277POPC   D2A26116  22.164  23.702   8.250
 6277POPC   C3A26117  22.167  23.739   7.950
 6277POPC   C4A26118  22.147  23.734   7.650
 6277POPC   C1B26119  22.185  23.503   8.550
 6277POPC   C2B26120  22.128  23.435   8.250
 6277POPC   C3B26121  22.154  23.426   7.950
 6277POPC   C4B26122  22.124  23.503   7.650
 6278POPC   NC326123   7.451  16.774   9.450
 6278POPC   PO426124   7.372  16.766   9.150
 6278POPC   GL126125   7.386  16.685   8.850
 6278POPC   GL226126   7.547  16.779   8.850
 6278POPC   C1A26127   7.376  16.766   8.550
 6278POPC   D2A26128   7.437  16.694   8.250
 6278POPC   C3A26129   7.384  16.730   7.950
 6278POPC   C4A26130   7.433  16.704   7.650
 6278POPC   C1B26131   7.608  16.872   8.550
 6278POPC   C2B26132   7.655  16.836   8.250
 6278POPC   C3B26133   7.632  16.819   7.950
 6278POPC   C4B26134   7.611  16.823   7.650
 6279POPC   NC326135  35.388  16.758   9.450
 6279POPC   PO426136  35.303  16.718   9.150
 6279POPC   GL126137  35.396  16.758   8.850
 6279POPC   GL226138  35.208  16.680   8.850
 6279POPC   C1A26139  35.381  16.708   8.550
 6279POPC   D2A26140  35.367  16.747   8.250
 6279POPC   C3A26141  35.320  16.753   7.950
 6279POPC   C4A26142  35.315  16.713   7.650
 6279POPC   C1B26143  35.124  16.606   8.550
 6279POPC   C2B26144  35.099  16.605   8.250
 6279POPC   C3B26145  35.083  16.654   7.950
 6279POPC   C4B26146  35.097  16.641   7.650
 6280POPC   NC326147  20.632   0.400   9.450
 6280POPC   PO426148  20.639   0.421   9.150
 6280POPC   GL126149  20.613   0.484   8.850
 6280POPC   GL226150  20.687   0.511   8.850
 6280POPC   C1A26151  20.646   0.390   8.550
 6280POPC   D2A26152  20.562   0.428   8.250
 6280POPC   C3A26153  20.589   0.480   7.950
 6280POPC   C4A26154  20.647   0.404   7.650
 6280POPC   C1B26155  20.755   0.632   8.550
 6280POPC   C2B26156  20.742   0.667   8.250
 6280POPC   C3B26157  20.721   0.697   7.950
 6280POPC   C4B26158  20.671   0.702   7.650
 6281POPC   NC326159  36.083  10.540   9.450
 6281POPC   PO426160  36.102  10.550   9.150
 6281POPC   GL126161  36.083  10.507   8.850
 6281POPC   GL226162  35.974  10.506   8.850
 6281POPC   C1A26163  36.097  10.573   8.550
 6281POPC   D2A26164  36.160  10.558   8.250
 6281POPC   C3A26165  36.085  10.522   7.950
 6281POPC   C4A26166  36.090  10.513   7.650
 6281POPC   C1B26167  35.940  10.372   8.550
 6281POPC   C2B26168  35.909  10.366   8.250
 6281POPC   C3B26169  35.916  10.416   7.950
 6281POPC   C4B26170  35.914  10.394   7.650
 6282POPC   NC326171  43.857  19.051   9.450
 6282POPC   PO426172  43.855  19.081   9.150
 6282POPC   GL126173  43.883  19.044   8.850
 6282POPC   GL226174  43.825  18.932   8.850
 6282POPC   C1A26175  43.926  19.086   8.550
 6282POPC   D2A26176  43.838  19.100   8.250
 6282POPC   C3A26177  43.854  19.016   7.950
 6282POPC   C4A26178  43.900  19.047   7.650
 6282POPC   C1B26179  43.731  18.835   8.550
 6282POPC   C2B26180  43.803  18.808   8.250
 6282POPC   C3B26181  43.742  18.822   7.950
 6282POPC   C4B26182  43.782  18.832   7.650
 6283POPC   NC326183  32.241  33.064   9.450
 6283POPC   PO426184  32.211  33.003   9.150
 6283POPC   GL126185  32.207  33.056   8.850
 6283POPC   GL226186  32.149  32.973   8.850
 6283POPC   C1A26187  32.275  33.066   8.550
 6283POPC   D2A26188  32.252  32.983   8.250
 6283POPC   C3A26189  32.276  33.055   7.950
 6283POPC   C4A26190  32.249  33.055   7.650
 6283POPC   C1B26191  32.041  33.017   8.550
 6283POPC   C2B26192  31.989  33.027   8.250
 6283POPC   C3B26193  31.958  33.023   7.950
 6283POPC   C4B26194  31.968  33.018   7.650
 6284POPC   NC326195  11.306   6.641   9.450
 6284POPC   PO426196  11.328   6.687   9.150
 6284POPC   GL126197  11.268   6.617   8.850
 6284POPC   GL226198  11.306   6.506   8.850
 6284POPC   C1A26199  11.284   6.621   8.550
 6284POPC   D2A26200  11.343   6.601   8.250
 6284POPC   C3A26201  11.339   6.654   7.950
 6284POPC   C4A26202  11.261   6.598   7.650
 6284POPC   C1B26203  11.296   6.399   8.550
 6284POPC   C2B26204  11.226   6.359   8.250
 6284POPC   C3B26205  11.290   6.405   7.950
 6284POPC   C4B26206  11.248   6.399   7.650
 6285POPC   NC326207  43.081  10.506   9.450
 6285POPC   PO426208  43.154  10.537   9.150
 6285POPC   GL126209  43.079  10.539   8.850
 6285POPC   GL226210  42.942  10.571   8.850
 6285POPC   C1A26211  43.138  10.475   8.550
 6285POPC   D2A26212  43.107  10.538   8.250
 6285POPC   C3A26213  43.071  10.552   7.950
 6285POPC   C4A26214  43.067  10.527   7.650
 6285POPC   C1B26215  42.906  10.619   8.550
 6285POPC   C2B26216  42.861  10.566   8.250
 6285POPC   C3B26217  42.880  10.535   7.950
 6285POPC   C4B26218  42.844  10.541   7.650
 6286POPC   NC326219  23.723  29.881   9.450
 6286POPC   PO426220  23.680  29.970   9.150
 6286POPC   GL126221  23.692  29.959   8.850
 6286POPC   GL226222  23.619  29.844   8.850
 6286POPC   C1A26223  23.698  29.877   8.550
 6286POPC   D2A26224  23.706  29.874   8.250
 6286POPC   C3A26225  23.666  29.929   7.950
 6286POPC   C4A26226  23.736  29.918   7.650
 6286POPC   C1B26227  23.451  29.883   8.550
 6286POPC   C2B26228  23.468  29.887   8.250
 6286POPC   C3B26229  23.465  29.837   7.950
 6286POPC   C4B26230  23.499  29.853   7.650
 6287POPC   NC326231  40.746  19.013   9.450
 6287POPC   PO426232  40.737  19.089   9.150
 6287POPC   GL126233  40.735  19.085   8.850
 6287POPC   GL226234  40.714  19.111   8.850
 6287POPC   C1A26235  40.808  19.054   8.550
 6287POPC   D2A26236  40.743  19.023   8.250
 6287POPC   C3A26237  40.786  19.015   7.950
 6287POPC   C4A26238  40.759  19.028   7.650
 6287POPC   C1B26239  40.545  19.184   8.550
 6287POPC   C2B26240  40.621  19.214   8.250
 6287POPC   C3B26241  40.578  19.167   7.950
 6287POPC   C4B26242  40.573  19.158   7.650
 6288POPC   NC326243  30.654  39.187   9.450
 6288POPC   PO426244  30.666  39.232   9.150
 6288POPC   GL126245  30.702  39.211   8.850
 6288POPC   GL226246  30.696  39.344   8.850
 6288POPC   C1A26247  30.687  39.278   8.550
 6288POPC   D2A26248  30.721  39.273   8.250
 6288POPC   C3A26249  30.745  39.212   7.950
 6288POPC   C4A26250  30.666  39.263   7.650
 6288POPC   C1B26251  30.685  39.487   8.550
 6288POPC   C2B26252  30.701  39.501   8.250
 6288POPC   C3B26253  30.651  39.506   7.950
 6288POPC   C4B26254  30.713  39.487   7.650
 6289POPC   NC326255   3.557  29.913   9.450
 6289POPC   PO426256   3.507  29.954   9.150
 6289POPC   GL126257   3.543  29.912   8.850
 6289POPC   GL226258   3.655  29.966   8.850
 6289POPC   C1A26259   3.590  29.924   8.550
 6289POPC   D2A26260   3.566  29.902   8.250
 6289POPC   C3A26261   3.582  29.964   7.950
 6289POPC   C4A26262   3.557  29.904   7.650
 6289POPC   C1B26263   3.758  30.028   8.550
 6289POPC   C2B26264   3.781  29.970   8.250
 6289POPC   C3B26265   3.743  30.003   7.950
 6289POPC   C4B26266   3.774  30.014   7.650
 6290POPC   NC326267  32.999  19.804   9.450
 6290POPC   PO426268  33.001  19.832   9.150
 6290POPC   GL126269  33.062  19.787   8.850
 6290POPC   GL226270  33.149  19.758   8.850
 6290POPC   C1A26271  33.009  19.789   8.550
 6290POPC   D2A26272  33.048  19.880   8.250
 6290POPC   C3A26273  33.037  19.857   7.950
 6290POPC   C4A26274  32.977  19.855   7.650
 6290POPC   C1B26275  33.241  19.676   8.550
 6290POPC   C2B26276  33.247  19.747   8.250
 6290POPC   C3B26277  33.265  19.723   7.950
 6290POPC   C4B26278  33.220  19.689   7.650
 6291POPC   NC326279  19.032  20.616   9.450
 6291POPC   PO426280  19.091  20.583   9.150
 6291POPC   GL126281  19.056  20.597   8.850
 6291POPC   GL226282  19.030  20.443   8.850
 6291POPC   C1A26283  19.075  20.574   8.550
 6291POPC   D2A26284  19.058  20.630   8.250
 6291POPC   C3A26285  19.052  20.583   7.950
 6291POPC   C4A26286  19.087  20.575   7.650
 6291POPC   C1B26287  19.027  20.350   8.550
 6291POPC   C2B26288  19.011  20.338   8.250
 6291POPC   C3B26289  19.038  20.407   7.950
 6291POPC   C4B26290  19.012  20.356   7.650
 6292POPC   NC326291  33.751  38.428   9.450
 6292POPC   PO426292  33.834  38.445   9.150
 6292POPC   GL126293  33.800  38.476   8.850
 6292POPC   GL226294  33.717  38.435   8.850
 6292POPC   C1A26295  33.809  38.423   8.550
 6292POPC   D2A26296  33.791  38.429   8.250
 6292POPC   C3A26297  33.763  38.444   7.950
 6292POPC   C4A26298  33.837  38.419   7.650
 6292POPC   C1B26299  33.553  38.434   8.550
 6292POPC   C2B26300  33.520  38.455   8.250
 6292POPC   C3B26301  33.502  38.420   7.950
 6292POPC   C4B26302  33.597  38.380   7.650
 6293POPC   NC326303  22.147   0.397   9.450
 6293POPC   PO426304  22.184   0.458   9.150
 6293POPC   GL126305  22.208   0.418   8.850
 6293POPC   GL226306  22.027   0.511   8.850
 6293POPC   C1A26307  22.116   0.422   8.550
 6293POPC   D2A26308  22.127   0.412   8.250
 6293POPC   C3A26309  22.206   0.463   7.950
 6293POPC   C4A26310  22.165   0.407   7.650
 6293POPC   C1B26311  21.897   0.521   8.550
 6293POPC   C2B26312  21.906   0.566   8.250
 6293POPC   C3B26313  21.945   0.517   7.950
 6293POPC   C4B26314  21.923   0.514   7.650
 6294POPC   NC326315  33.065  26.851   9.450
 6294POPC   PO426316  33.035  26.819   9.150
 6294POPC   GL126317  32.984  26.795   8.850
 6294POPC   GL226318  32.927  26.838   8.850
 6294POPC   C1A26319  32.979  26.866   8.550
 6294POPC   D2A26320  32.976  26.838   8.250
 6294POPC   C3A26321  32.988  26.841   7.950
 6294POPC   C4A26322  33.011  26.794   7.650
 6294POPC   C1B26323  32.795  26.841   8.550
 6294POPC   C2B26324  32.755  26.857   8.250
 6294POPC   C3B26325  32.734  26.815   7.950
 6294POPC   C4B26326  32.783  26.838   7.650
 6295POPC   NC326327  34.553  43.101   9.450
 6295POPC   PO426328  34.622  43.155   9.150
 6295POPC   GL126329  34.607  43.134   8.850
 6295POPC   GL226330  34.678  43.170   8.850
 6295POPC   C1A26331  34.616  43.109   8.550
 6295POPC   D2A26332  34.529  43.085   8.250
 6295POPC   C3A26333  34.614  43.090   7.950
 6295POPC   C4A26334  34.595  43.139   7.650
 6295POPC   C1B26335  34.745  43.282   8.550
 6295POPC   C2B26336  34.834  43.250   8.250
 6295POPC   C3B26337  34.794  43.226   7.950
 6295POPC   C4B26338  34.780  43.191   7.650
 6296POPC   NC326339  28.405  17.469   9.450
 6296POPC   PO426340  28.357  17.475   9.150
 6296POPC   GL126341  28.415  17.461   8.850
 6296POPC   GL226342  28.275  17.425   8.850
 6296POPC   C1A26343  28.321  17.458   8.550
 6296POPC   D2A26344  28.333  17.481   8.250
 6296POPC   C3A26345  28.398  17.459   7.950
 6296POPC   C4A26346  28.351  17.516   7.650
 6296POPC   C1B26347  28.120  17.366   8.550
 6296POPC   C2B26348  28.098  17.416   8.250
 6296POPC   C3B26349  28.107  17.423   7.950
 6296POPC   C4B26350  28.146  17.404   7.650
 6297POPC   NC326351  31.515   7.436   9.450
 6297POPC   PO426352  31.467   7.467   9.150
 6297POPC   GL126353  31.522   7.450   8.850
 6297POPC   GL226354  31.625   7.386   8.850
 6297POPC   C1A26355  31.471   7.452   8.550
 6297POPC   D2A26356  31.423   7.439   8.250
 6297POPC   C3A26357  31.501   7.388   7.950
 6297POPC   C4A26358  31.490   7.465   7.650
 6297POPC   C1B26359  31.694   7.421   8.550
 6297POPC   C2B26360  31.762   7.443   8.250
 6297POPC   C3B26361  31.740   7.433   7.950
 6297POPC   C4B26362  31.768   7.408   7.650
 6298POPC   NC326363   4.293  19.073   9.450
 6298POPC   PO426364   4.301  19.044   9.150
 6298POPC   GL126365   4.271  19.017   8.850
 6298POPC   GL226366   4.254  19.161   8.850
 6298POPC   C1A26367   4.333  19.081   8.550
 6298POPC   D2A26368   4.286  19.070   8.250
 6298POPC   C3A26369   4.319  19.078   7.950
 6298POPC   C4A26370   4.337  19.051   7.650
 6298POPC   C1B26371   4.119  19.170   8.550
 6298POPC   C2B26372   4.047  19.144   8.250
 6298POPC   C3B26373   4.064  19.159   7.950
 6298POPC   C4B26374   4.093  19.121   7.650
 6299POPC   NC326375  19.880  36.144   9.450
 6299POPC   PO426376  19.852  36.091   9.150
 6299POPC   GL126377  19.836  36.078   8.850
 6299POPC   GL226378  19.760  36.133   8.850
 6299POPC   C1A26379  19.796  36.085   8.550
 6299POPC   D2A26380  19.881  36.122   8.250
 6299POPC   C3A26381  19.829  36.111   7.950
 6299POPC   C4A26382  19.870  36.083   7.650
 6299POPC   C1B26383  19.553  36.169   8.550
 6299POPC   C2B26384  19.621  36.184   8.250
 6299POPC   C3B26385  19.643  36.209   7.950
 6299POPC   C4B26386  19.561  36.238   7.650
 6300POPC   NC326387  38.449  33.828   9.450
 6300POPC   PO426388  38.497  33.803   9.150
 6300POPC   GL126389  38.486  33.768   8.850
 6300POPC   GL226390  38.595  33.897   8.850
 6300POPC   C1A26391  38.482  33.795   8.550
 6300POPC   D2A26392  38.483  33.845   8.250
 6300POPC   C3A26393  38.493  33.773   7.950
 6300POPC   C4A26394  38.474  33.845   7.650
 6300POPC   C1B26395  38.706  33.952   8.550
 6300POPC   C2B26396  38.633  33.908   8.250
 6300POPC   C3B26397  38.704  33.912   7.950
 6300POPC   C4B26398  38.633  33.940   7.650
 6301POPC   NC326399  17.469  33.820   9.450
 6301POPC   PO426400  17.467  33.788   9.150
 6301POPC   GL126401  17.482  33.832   8.850
 6301POPC   GL226402  17.635  33.733   8.850
 6301POPC   C1A26403  17.477  33.785   8.550
 6301POPC   D2A26404  17.481  33.786   8.250
 6301POPC   C3A26405  17.475  33.804   7.950
 6301POPC   C4A26406  17.531  33.781   7.650
 6301POPC   C1B26407  17.664  33.598   8.550
 6301POPC   C2B26408  17.687  33.661   8.250
 6301POPC   C3B26409  17.660  33.606   7.950
 6301POPC   C4B26410  17.692  33.629   7.650
 6302POPC   NC326411  29.188  30.745   9.450
 6302POPC   PO426412  29.100  30.655   9.150
 6302POPC   GL126413  29.106  30.654   8.850
 6302POPC   GL226414  29.062  30.670   8.850
 6302POPC   C1A26415  29.163  30.724   8.550
 6302POPC   D2A26416  29.164  30.702   8.250
 6302POPC   C3A26417  29.141  30.651   7.950
 6302POPC   C4A26418  29.149  30.743   7.650
 6302POPC   C1B26419  28.862  30.646   8.550
 6302POPC   C2B26420  28.872  30.694   8.250
 6302POPC   C3B26421  28.927  30.620   7.950
 6302POPC   C4B26422  28.884  30.688   7.650
 6303POPC   NC326423  27.634  15.919   9.450
 6303POPC   PO426424  27.623  15.924   9.150
 6303POPC   GL126425  27.563  15.981   8.850
 6303POPC   GL226426  27.621  16.031   8.850
 6303POPC   C1A26427  27.625  15.982   8.550
 6303POPC   D2A26428  27.599  15.973   8.250
 6303POPC   C3A26429  27.556  15.941   7.950
 6303POPC   C4A26430  27.559  15.941   7.650
 6303POPC   C1B26431  27.569  16.225   8.550
 6303POPC   C2B26432  27.633  16.254   8.250
 6303POPC   C3B26433  27.619  16.170   7.950
 6303POPC   C4B26434  27.615  16.161   7.650
 6304POPC   NC326435  33.067  25.271   9.450
 6304POPC   PO426436  32.986  25.230   9.150
 6304POPC   GL126437  33.024  25.241   8.850
 6304POPC   GL226438  33.112  25.194   8.850
 6304POPC   C1A26439  33.061  25.257   8.550
 6304POPC   D2A26440  32.979  25.236   8.250
 6304POPC   C3A26441  33.060  25.217   7.950
 6304POPC   C4A26442  32.990  25.226   7.650
 6304POPC   C1B26443  33.078  25.048   8.550
 6304POPC   C2B26444  33.110  25.070   8.250
 6304POPC   C3B26445  33.151  25.005   7.950
 6304POPC   C4B26446  33.074  25.038   7.650
 6305POPC   NC326447  19.046   4.277   9.450
 6305POPC   PO426448  19.094   4.345   9.150
 6305POPC   GL126449  19.070   4.295   8.850
 6305POPC   GL226450  18.961   4.397   8.850
 6305POPC   C1A26451  19.069   4.305   8.550
 6305POPC   D2A26452  19.089   4.324   8.250
 6305POPC   C3A26453  19.103   4.328   7.950
 6305POPC   C4A26454  19.061   4.287   7.650
 6305POPC   C1B26455  18.885   4.530   8.550
 6305POPC   C2B26456  18.927   4.490   8.250
 6305POPC   C3B26457  18.960   4.544   7.950
 6305POPC   C4B26458  18.936   4.506   7.650
 6306POPC   NC326459   2.751  27.579   9.450
 6306POPC   PO426460   2.773  27.594   9.150
 6306POPC   GL126461   2.799  27.555   8.850
 6306POPC   GL226462   2.610  27.671   8.850
 6306POPC   C1A26463   2.744  27.544   8.550
 6306POPC   D2A26464   2.723  27.627   8.250
 6306POPC   C3A26465   2.801  27.642   7.950
 6306POPC   C4A26466   2.793  27.546   7.650
 6306POPC   C1B26467   2.521  27.745   8.550
 6306POPC   C2B26468   2.556  27.704   8.250
 6306POPC   C3B26469   2.528  27.769   7.950
 6306POPC   C4B26470   2.586  27.739   7.650
 6307POPC   NC326471  35.390   5.089   9.450
 6307POPC   PO426472  35.322   5.069   9.150
 6307POPC   GL126473  35.315   5.049   8.850
 6307POPC   GL226474  35.426   5.066   8.850
 6307POPC   C1A26475  35.397   5.085   8.550
 6307POPC   D2A26476  35.377   5.122   8.250
 6307POPC   C3A26477  35.350   5.068   7.950
 6307POPC   C4A26478  35.398   5.113   7.650
 6307POPC   C1B26479  35.586   5.010   8.550
 6307POPC   C2B26480  35.545   4.956   8.250
 6307POPC   C3B26481  35.621   4.979   7.950
 6307POPC   C4B26482  35.550   5.050   7.650
 6308POPC   NC326483  23.762  26.018   9.450
 6308POPC   PO426484  23.689  26.047   9.150
 6308POPC   GL126485  23.686  26.064   8.850
 6308POPC   GL226486  23.635  25.967   8.850
 6308POPC   C1A26487  23.707  26.087   8.550
 6308POPC   D2A26488  23.745  26.046   8.250
 6308POPC   C3A26489  23.709  25.995   7.950
 6308POPC   C4A26490  23.762  26.075   7.650
 6308POPC   C1B26491  23.549  25.861   8.550
 6308POPC   C2B26492  23.493  25.922   8.250
 6308POPC   C3B26493  23.535  25.855   7.950
 6308POPC   C4B26494  23.489  25.930   7.650
 6309POPC   NC326495  44.661  27.639   9.450
 6309POPC   PO426496  44.678  27.552   9.150
 6309POPC   GL126497  44.696  27.584   8.850
 6309POPC   GL226498  44.808  27.615   8.850
 6309POPC   C1A26499  44.707  27.631   8.550
 6309POPC   D2A26500  44.639  27.593   8.250
 6309POPC   C3A26501  44.614  27.544   7.950
 6309POPC   C4A26502  44.676  27.622   7.650
 6309POPC   C1B26503  44.860  27.660   8.550
 6309POPC   C2B26504  44.928  27.745   8.250
 6309POPC   C3B26505  44.850  27.651   7.950
 6309POPC   C4B26506  44.894  27.655   7.650
 6310POPC   NC326507   2.787  39.232   9.450
 6310POPC   PO426508   2.781  39.263   9.150
 6310POPC   GL126509   2.735  39.186   8.850
 6310POPC   GL226510   2.684  39.333   8.850
 6310POPC   C1A26511   2.721  39.211   8.550
 6310POPC   D2A26512   2.763  39.247   8.250
 6310POPC   C3A26513   2.788  39.208   7.950
 6310POPC   C4A26514   2.766  39.197   7.650
 6310POPC   C1B26515   2.667  39.435   8.550
 6310POPC   C2B26516   2.642  39.466   8.250
 6310POPC   C3B26517   2.641  39.475   7.950
 6310POPC   C4B26518   2.677  39.416   7.650
 6311POPC   NC326519  19.107   1.964   9.450
 6311POPC   PO426520  19.087   1.955   9.150
 6311POPC   GL126521  19.079   1.979   8.850
 6311POPC   GL226522  18.951   2.100   8.850
 6311POPC   C1A26523  19.056   2.012   8.550
 6311POPC   D2A26524  19.075   2.003   8.250
 6311POPC   C3A26525  19.059   2.037   7.950
 6311POPC   C4A26526  19.039   2.035   7.650
 6311POPC   C1B26527  18.883   2.123   8.550
 6311POPC   C2B26528  18.829   2.120   8.250
 6311POPC   C3B26529  18.830   2.117   7.950
 6311POPC   C4B26530  18.897   2.176   7.650
 6312POPC   NC326531  15.149  12.125   9.450
 6312POPC   PO426532  15.200  12.078   9.150
 6312POPC   GL126533  15.173  12.115   8.850
 6312POPC   GL226534  15.255  12.117   8.850
 6312POPC   C1A26535  15.177  12.111   8.550
 6312POPC   D2A26536  15.177  12.121   8.250
 6312POPC   C3A26537  15.161  12.072   7.950
 6312POPC   C4A26538  15.134  12.058   7.650
 6312POPC   C1B26539  15.371  12.191   8.550
 6312POPC   C2B26540  15.394  12.149   8.250
 6312POPC   C3B26541  15.367  12.150   7.950
 6312POPC   C4B26542  15.422  12.204   7.650
 6313POPC   NC326543  40.038  13.636   9.450
 6313POPC   PO426544  40.024  13.588   9.150
 6313POPC   GL126545  40.043  13.676   8.850
 6313POPC   GL226546  39.983  13.486   8.850
 6313POPC   C1A26547  40.041  13.607   8.550
 6313POPC   D2A26548  40.053  13.581   8.250
 6313POPC   C3A26549  40.015  13.630   7.950
 6313POPC   C4A26550  40.015  13.637   7.650
 6313POPC   C1B26551  39.823  13.419   8.550
 6313POPC   C2B26552  39.852  13.382   8.250
 6313POPC   C3B26553  39.899  13.406   7.950
 6313POPC   C4B26554  39.841  13.385   7.650
 6314POPC   NC326555  32.986   4.346   9.450
 6314POPC   PO426556  33.037   4.298   9.150
 6314POPC   GL126557  32.988   4.279   8.850
 6314POPC   GL226558  32.993   4.235   8.850
 6314POPC   C1A26559  33.039   4.344   8.550
 6314POPC   D2A26560  33.000   4.329   8.250
 6314POPC   C3A26561  33.022   4.269   7.950
 6314POPC   C4A26562  32.995   4.360   7.650
 6314POPC   C1B26563  32.919   4.034   8.550
 6314POPC   C2B26564  32.954   4.065   8.250
 6314POPC   C3B26565  32.938   4.096   7.950
 6314POPC   C4B26566  32.913   4.091   7.650
 6315POPC   NC326567  44.632  15.986   9.450
 6315POPC   PO426568  44.613  15.960   9.150
 6315POPC   GL126569  44.619  15.943   8.850
 6315POPC   GL226570  44.592  16.075   8.850
 6315POPC   C1A26571  44.689  15.942   8.550
 6315POPC   D2A26572  44.653  15.973   8.250
 6315POPC   C3A26573  44.676  15.914   7.950
 6315POPC   C4A26574  44.664  15.951   7.650
 6315POPC   C1B26575  44.504  16.153   8.550
 6315POPC   C2B26576  44.414  16.142   8.250
 6315POPC   C3B26577  44.480  16.114   7.950
 6315POPC   C4B26578  44.500  16.142   7.650
 6316POPC   NC326579  26.829   8.228   9.450
 6316POPC   PO426580  26.825   8.190   9.150
 6316POPC   GL126581  26.859   8.212   8.850
 6316POPC   GL226582  26.697   8.116   8.850
 6316POPC   C1A26583  26.811   8.232   8.550
 6316POPC   D2A26584  26.840   8.208   8.250
 6316POPC   C3A26585  26.864   8.215   7.950
 6316POPC   C4A26586  26.865   8.237   7.650
 6316POPC   C1B26587  26.632   8.037   8.550
 6316POPC   C2B26588  26.554   8.034   8.250
 6316POPC   C3B26589  26.588   8.040   7.950
 6316POPC   C4B26590  26.569   8.054   7.650
 6317POPC   NC326591   2.751  11.285   9.450
 6317POPC   PO426592   2.794  11.350   9.150
 6317POPC   GL126593   2.801  11.319   8.850
 6317POPC   GL226594   2.757  11.446   8.850
 6317POPC   C1A26595   2.752  11.252   8.550
 6317POPC   D2A26596   2.802  11.303   8.250
 6317POPC   C3A26597   2.725  11.313   7.950
 6317POPC   C4A26598   2.745  11.346   7.650
 6317POPC   C1B26599   2.719  11.565   8.550
 6317POPC   C2B26600   2.721  11.502   8.250
 6317POPC   C3B26601   2.636  11.562   7.950
 6317POPC   C4B26602   2.711  11.566   7.650
 6318POPC   NC326603  20.647   2.767   9.450
 6318POPC   PO426604  20.650   2.767   9.150
 6318POPC   GL126605  20.577   2.734   8.850
 6318POPC   GL226606  20.625   2.935   8.850
 6318POPC   C1A26607  20.657   2.814   8.550
 6318POPC   D2A26608  20.607   2.810   8.250
 6318POPC   C3A26609  20.628   2.752   7.950
 6318POPC   C4A26610  20.569   2.742   7.650
 6318POPC   C1B26611  20.694   2.981   8.550
 6318POPC   C2B26612  20.649   3.000   8.250
 6318POPC   C3B26613  20.635   3.034   7.950
 6318POPC   C4B26614  20.645   2.998   7.650
 6319POPC   NC326615  13.631  16.719   9.450
 6319POPC   PO426616  13.629  16.695   9.150
 6319POPC   GL126617  13.638  16.773   8.850
 6319POPC   GL226618  13.694  16.624   8.850
 6319POPC   C1A26619  13.600  16.775   8.550
 6319POPC   D2A26620  13.621  16.733   8.250
 6319POPC   C3A26621  13.668  16.774   7.950
 6319POPC   C4A26622  13.594  16.739   7.650
 6319POPC   C1B26623  13.819  16.650   8.550
 6319POPC   C2B26624  13.818  16.595   8.250
 6319POPC   C3B26625  13.886  16.648   7.950
 6319POPC   C4B26626  13.845  16.574   7.650
 6320POPC   NC326627  15.963  42.373   9.450
 6320POPC   PO426628  15.955  42.297   9.150
 6320POPC   GL126629  15.918  42.291   8.850
 6320POPC   GL226630  15.847  42.408   8.850
 6320POPC   C1A26631  15.992  42.308   8.550
 6320POPC   D2A26632  16.004  42.321   8.250
 6320POPC   C3A26633  15.973  42.312   7.950
 6320POPC   C4A26634  15.966  42.325   7.650
 6320POPC   C1B26635  15.787  42.569   8.550
 6320POPC   C2B26636  15.781  42.574   8.250
 6320POPC   C3B26637  15.807  42.569   7.950
 6320POPC   C4B26638  15.812  42.522   7.650
 6321POPC   NC326639  40.808   1.978   9.450
 6321POPC   PO426640  40.750   1.946   9.150
 6321POPC   GL126641  40.741   1.988   8.850
 6321POPC   GL226642  40.799   2.086   8.850
 6321POPC   C1A26643  40.734   1.944   8.550
 6321POPC   D2A26644  40.780   1.954   8.250
 6321POPC   C3A26645  40.736   1.999   7.950
 6321POPC   C4A26646  40.772   2.032   7.650
 6321POPC   C1B26647  40.810   2.212   8.550
 6321POPC   C2B26648  40.858   2.235   8.250
 6321POPC   C3B26649  40.847   2.236   7.950
 6321POPC   C4B26650  40.858   2.249   7.650
 6322POPC   NC326651  12.111  17.488   9.450
 6322POPC   PO426652  12.045  17.488   9.150
 6322POPC   GL126653  12.085  17.521   8.850
 6322POPC   GL226654  12.146  17.572   8.850
 6322POPC   C1A26655  12.041  17.539   8.550
 6322POPC   D2A26656  12.071  17.556   8.250
 6322POPC   C3A26657  12.102  17.464   7.950
 6322POPC   C4A26658  12.122  17.500   7.650
 6322POPC   C1B26659  12.231  17.674   8.550
 6322POPC   C2B26660  12.202  17.669   8.250
 6322POPC   C3B26661  12.244  17.729   7.950
 6322POPC   C4B26662  12.266  17.693   7.650
 6323POPC   NC326663  37.658  10.487   9.450
 6323POPC   PO426664  37.697  10.483   9.150
 6323POPC   GL126665  37.681  10.561   8.850
 6323POPC   GL226666  37.675  10.622   8.850
 6323POPC   C1A26667  37.658  10.534   8.550
 6323POPC   D2A26668  37.683  10.484   8.250
 6323POPC   C3A26669  37.634  10.512   7.950
 6323POPC   C4A26670  37.685  10.481   7.650
 6323POPC   C1B26671  37.728  10.817   8.550
 6323POPC   C2B26672  37.734  10.803   8.250
 6323POPC   C3B26673  37.701  10.755   7.950
 6323POPC   C4B26674  37.713  10.763   7.650
 6324POPC   NC326675  35.393  35.352   9.450
 6324POPC   PO426676  35.348  35.401   9.150
 6324POPC   GL126677  35.389  35.336   8.850
 6324POPC   GL226678  35.257  35.409   8.850
 6324POPC   C1A26679  35.382  35.308   8.550
 6324POPC   D2A26680  35.319  35.402   8.250
 6324POPC   C3A26681  35.304  35.352   7.950
 6324POPC   C4A26682  35.380  35.350   7.650
 6324POPC   C1B26683  35.090  35.484   8.550
 6324POPC   C2B26684  35.078  35.491   8.250
 6324POPC   C3B26685  35.089  35.399   7.950
 6324POPC   C4B26686  35.145  35.436   7.650
 6325POPC   NC326687   8.176   9.710   9.450
 6325POPC   PO426688   8.223   9.730   9.150
 6325POPC   GL126689   8.162   9.729   8.850
 6325POPC   GL226690   8.089   9.695   8.850
 6325POPC   C1A26691   8.180   9.723   8.550
 6325POPC   D2A26692   8.233   9.730   8.250
 6325POPC   C3A26693   8.199   9.771   7.950
 6325POPC   C4A26694   8.147   9.719   7.650
 6325POPC   C1B26695   7.973   9.687   8.550
 6325POPC   C2B26696   7.950   9.655   8.250
 6325POPC   C3B26697   7.995   9.657   7.950
 6325POPC   C4B26698   7.956   9.693   7.650
 6326POPC   NC326699  36.937  15.947   9.450
 6326POPC   PO426700  36.912  15.939   9.150
 6326POPC   GL126701  36.868  15.980   8.850
 6326POPC   GL226702  37.046  15.888   8.850
 6326POPC   C1A26703  36.890  15.960   8.550
 6326POPC   D2A26704  36.893  15.915   8.250
 6326POPC   C3A26705  36.899  15.927   7.950
 6326POPC   C4A26706  36.884  15.927   7.650
 6326POPC   C1B26707  37.121  15.819   8.550
 6326POPC   C2B26708  37.089  15.834   8.250
 6326POPC   C3B26709  37.058  15.806   7.950
 6326POPC   C4B26710  37.104  15.832   7.650
 6327POPC   NC326711  29.915  43.126   9.450
 6327POPC   PO426712  29.890  43.078   9.150
 6327POPC   GL126713  29.900  43.093   8.850
 6327POPC   GL226714  29.856  43.047   8.850
 6327POPC   C1A26715  29.963  43.127   8.550
 6327POPC   D2A26716  29.884  43.110   8.250
 6327POPC   C3A26717  29.888  43.156   7.950
 6327POPC   C4A26718  29.906  43.141   7.650
 6327POPC   C1B26719  29.711  42.974   8.550
 6327POPC   C2B26720  29.699  42.916   8.250
 6327POPC   C3B26721  29.783  42.895   7.950
 6327POPC   C4B26722  29.749  42.955   7.650
 6328POPC   NC326723   2.729  10.524   9.450
 6328POPC   PO426724   2.733  10.503   9.150
 6328POPC   GL126725   2.777  10.490   8.850
 6328POPC   GL226726   2.743  10.395   8.850
 6328POPC   C1A26727   2.753  10.569   8.550
 6328POPC   D2A26728   2.718  10.518   8.250
 6328POPC   C3A26729   2.766  10.501   7.950
 6328POPC   C4A26730   2.790  10.504   7.650
 6328POPC   C1B26731   2.645  10.237   8.550
 6328POPC   C2B26732   2.693  10.308   8.250
 6328POPC   C3B26733   2.691  10.333   7.950
 6328POPC   C4B26734   2.687  10.307   7.650
 6329POPC   NC326735  15.922  13.612   9.450
 6329POPC   PO426736  15.939  13.664   9.150
 6329POPC   GL126737  16.000  13.581   8.850
 6329POPC   GL226738  16.074  13.625   8.850
 6329POPC   C1A26739  16.004  13.653   8.550
 6329POPC   D2A26740  15.984  13.617   8.250
 6329POPC   C3A26741  16.005  13.601   7.950
 6329POPC   C4A26742  15.932  13.600   7.650
 6329POPC   C1B26743  16.147  13.743   8.550
 6329POPC   C2B26744  16.241  13.730   8.250
 6329POPC   C3B26745  16.185  13.684   7.950
 6329POPC   C4B26746  16.232  13.679   7.650
 6330POPC   NC326747   2.797   8.199   9.450
 6330POPC   PO426748   2.727   8.175   9.150
 6330POPC   GL126749   2.757   8.203   8.850
 6330POPC   GL226750   2.903   8.170   8.850
 6330POPC   C1A26751   2.726   8.147   8.550
 6330POPC   D2A26752   2.722   8.230   8.250
 6330POPC   C3A26753   2.782   8.163   7.950
 6330POPC   C4A26754   2.729   8.213   7.650
 6330POPC   C1B26755   3.048   8.089   8.550
 6330POPC   C2B26756   2.961   8.127   8.250
 6330POPC   C3B26757   2.988   8.180   7.950
 6330POPC   C4B26758   2.965   8.170   7.650
 6331POPC   NC326759  12.803  26.070   9.450
 6331POPC   PO426760  12.876  26.013   9.150
 6331POPC   GL126761  12.807  26.055   8.850
 6331POPC   GL226762  12.965  25.914   8.850
 6331POPC   C1A26763  12.880  26.025   8.550
 6331POPC   D2A26764  12.850  26.010   8.250
 6331POPC   C3A26765  12.889  26.079   7.950
 6331POPC   C4A26766  12.805  26.000   7.650
 6331POPC   C1B26767  13.034  25.833   8.550
 6331POPC   C2B26768  12.991  25.885   8.250
 6331POPC   C3B26769  13.006  25.837   7.950
 6331POPC   C4B26770  13.048  25.841   7.650
 6332POPC   NC326771  31.490  16.730   9.450
 6332POPC   PO426772  31.493  16.687   9.150
 6332POPC   GL126773  31.492  16.683   8.850
 6332POPC   GL226774  31.622  16.769   8.850
 6332POPC   C1A26775  31.493  16.732   8.550
 6332POPC   D2A26776  31.470  16.713   8.250
 6332POPC   C3A26777  31.495  16.773   7.950
 6332POPC   C4A26778  31.472  16.770   7.650
 6332POPC   C1B26779  31.735  16.695   8.550
 6332POPC   C2B26780  31.725  16.772   8.250
 6332POPC   C3B26781  31.772  16.752   7.950
 6332POPC   C4B26782  31.687  16.743   7.650
 6333POPC   NC326783  26.039  20.573   9.450
 6333POPC   PO426784  26.031  20.606   9.150
 6333POPC   GL126785  26.069  20.651   8.850
 6333POPC   GL226786  26.142  20.706   8.850
 6333POPC   C1A26787  26.053  20.624   8.550
 6333POPC   D2A26788  26.061  20.652   8.250
 6333POPC   C3A26789  26.035  20.615   7.950
 6333POPC   C4A26790  26.057  20.604   7.650
 6333POPC   C1B26791  26.298  20.693   8.550
 6333POPC   C2B26792  26.228  20.691   8.250
 6333POPC   C3B26793  26.269  20.677   7.950
 6333POPC   C4B26794  26.318  20.734   7.650
 6334POPC   NC326795  33.813  29.965   9.450
 6334POPC   PO426796  33.804  29.879   9.150
 6334POPC   GL126797  33.798  29.962   8.850
 6334POPC   GL226798  33.879  29.979   8.850
 6334POPC   C1A26799  33.772  29.950   8.550
 6334POPC   D2A26800  33.830  29.924   8.250
 6334POPC   C3A26801  33.750  29.914   7.950
 6334POPC   C4A26802  33.792  29.933   7.650
 6334POPC   C1B26803  34.018  30.082   8.550
 6334POPC   C2B26804  33.999  30.056   8.250
 6334POPC   C3B26805  34.010  30.107   7.950
 6334POPC   C4B26806  33.991  30.095   7.650
 6335POPC   NC326807  26.811  40.011   9.450
 6335POPC   PO426808  26.860  39.988   9.150
 6335POPC   GL126809  26.793  39.962   8.850
 6335POPC   GL226810  26.801  39.939   8.850
 6335POPC   C1A26811  26.841  40.014   8.550
 6335POPC   D2A26812  26.860  40.035   8.250
 6335POPC   C3A26813  26.793  39.967   7.950
 6335POPC   C4A26814  26.821  39.975   7.650
 6335POPC   C1B26815  26.645  39.801   8.550
 6335POPC   C2B26816  26.696  39.806   8.250
 6335POPC   C3B26817  26.658  39.836   7.950
 6335POPC   C4B26818  26.720  39.816   7.650
 6336POPC   NC326819  34.609  21.342   9.450
 6336POPC   PO426820  34.621  21.405   9.150
 6336POPC   GL126821  34.579  21.433   8.850
 6336POPC   GL226822  34.677  21.374   8.850
 6336POPC   C1A26823  34.573  21.346   8.550
 6336POPC   D2A26824  34.555  21.392   8.250
 6336POPC   C3A26825  34.545  21.371   7.950
 6336POPC   C4A26826  34.588  21.393   7.650
 6336POPC   C1B26827  34.784  21.459   8.550
 6336POPC   C2B26828  34.767  21.441   8.250
 6336POPC   C3B26829  34.832  21.462   7.950
 6336POPC   C4B26830  34.821  21.420   7.650
 6337POPC   NC326831  29.157   9.014   9.450
 6337POPC   PO426832  29.177   9.020   9.150
 6337POPC   GL126833  29.107   8.925   8.850
 6337POPC   GL226834  29.161   8.846   8.850
 6337POPC   C1A26835  29.117   8.949   8.550
 6337POPC   D2A26836  29.142   8.977   8.250
 6337POPC   C3A26837  29.176   9.017   7.950
 6337POPC   C4A26838  29.144   9.017   7.650
 6337POPC   C1B26839  29.169   8.698   8.550
 6337POPC   C2B26840  29.172   8.730   8.250
 6337POPC   C3B26841  29.162   8.743   7.950
 6337POPC   C4B26842  29.249   8.696   7.650
 6338POPC   NC326843  36.112  12.820   9.450
 6338POPC   PO426844  36.100  12.802   9.150
 6338POPC   GL126845  36.085  12.900   8.850
 6338POPC   GL226846  36.267  12.744   8.850
 6338POPC   C1A26847  36.102  12.852   8.550
 6338POPC   D2A26848  36.087  12.855   8.250
 6338POPC   C3A26849  36.168  12.859   7.950
 6338POPC   C4A26850  36.129  12.808   7.650
 6338POPC   C1B26851  36.365  12.749   8.550
 6338POPC   C2B26852  36.301  12.708   8.250
 6338POPC   C3B26853  36.362  12.736   7.950
 6338POPC   C4B26854  36.349  12.711   7.650
 6339POPC   NC326855   1.168  10.526   9.450
 6339POPC   PO426856   1.251  10.520   9.150
 6339POPC   GL126857   1.185  10.477   8.850
 6339POPC   GL226858   1.296  10.463   8.850
 6339POPC   C1A26859   1.170  10.532   8.550
 6339POPC   D2A26860   1.254  10.484   8.250
 6339POPC   C3A26861   1.242  10.478   7.950
 6339POPC   C4A26862   1.262  10.502   7.650
 6339POPC   C1B26863   1.414  10.416   8.550
 6339POPC   C2B26864   1.414  10.389   8.250
 6339POPC   C3B26865   1.395  10.433   7.950
 6339POPC   C4B26866   1.436  10.367   7.650
 6340POPC   NC326867  23.745  15.192   9.450
 6340POPC   PO426868  23.748  15.218   9.150
 6340POPC   GL126869  23.693  15.173   8.850
 6340POPC   GL226870  23.549  15.111   8.850
 6340POPC   C1A26871  23.664  15.175   8.550
 6340POPC   D2A26872  23.723  15.208   8.250
 6340POPC   C3A26873  23.706  15.138   7.950
 6340POPC   C4A26874  23.668  15.140   7.650
 6340POPC   C1B26875  23.499  15.161   8.550
 6340POPC   C2B26876  23.486  15.091   8.250
 6340POPC   C3B26877  23.452  15.175   7.950
 6340POPC   C4B26878  23.417  15.187   7.650
 6341POPC   NC326879  39.182   2.720   9.450
 6341POPC   PO426880  39.212   2.740   9.150
 6341POPC   GL126881  39.235   2.751   8.850
 6341POPC   GL226882  39.225   2.840   8.850
 6341POPC   C1A26883  39.265   2.720   8.550
 6341POPC   D2A26884  39.206   2.752   8.250
 6341POPC   C3A26885  39.207   2.724   7.950
 6341POPC   C4A26886  39.221   2.803   7.650
 6341POPC   C1B26887  39.080   2.945   8.550
 6341POPC   C2B26888  39.127   2.970   8.250
 6341POPC   C3B26889  39.073   2.946   7.950
 6341POPC   C4B26890  39.072   2.962   7.650
 6342POPC   NC326891   0.483  29.917   9.450
 6342POPC   PO426892   0.478  29.876   9.150
 6342POPC   GL126893   0.420  29.925   8.850
 6342POPC   GL226894   0.475  29.826   8.850
 6342POPC   C1A26895   0.393  29.880   8.550
 6342POPC   D2A26896   0.466  29.876   8.250
 6342POPC   C3A26897   0.391  29.876   7.950
 6342POPC   C4A26898   0.402  29.905   7.650
 6342POPC   C1B26899   0.563  29.729   8.550
 6342POPC   C2B26900   0.590  29.731   8.250
 6342POPC   C3B26901   0.522  29.707   7.950
 6342POPC   C4B26902   0.537  29.663   7.650
 6343POPC   NC326903  19.821  42.324   9.450
 6343POPC   PO426904  19.788  42.359   9.150
 6343POPC   GL126905  19.842  42.359   8.850
 6343POPC   GL226906  19.961  42.381   8.850
 6343POPC   C1A26907  19.834  42.353   8.550
 6343POPC   D2A26908  19.799  42.334   8.250
 6343POPC   C3A26909  19.812  42.340   7.950
 6343POPC   C4A26910  19.866  42.320   7.650
 6343POPC   C1B26911  20.088  42.447   8.550
 6343POPC   C2B26912  20.007  42.488   8.250
 6343POPC   C3B26913  20.066  42.505   7.950
 6343POPC   C4B26914  20.076  42.445   7.650
 6344POPC   NC326915  21.414   7.470   9.450
 6344POPC   PO426916  21.403   7.394   9.150
 6344POPC   GL126917  21.384   7.392   8.850
 6344POPC   GL226918  21.275   7.344   8.850
 6344POPC   C1A26919  21.408   7.395   8.550
 6344POPC   D2A26920  21.431   7.434   8.250
 6344POPC   C3A26921  21.415   7.455   7.950
 6344POPC   C4A26922  21.345   7.452   7.650
 6344POPC   C1B26923  21.194   7.313   8.550
 6344POPC   C2B26924  21.114   7.338   8.250
 6344POPC   C3B26925  21.125   7.311   7.950
 6344POPC   C4B26926  21.105   7.314   7.650
 6345POPC   NC326927   7.437  38.466   9.450
 6345POPC   PO426928   7.453  38.436   9.150
 6345POPC   GL126929   7.411  38.458   8.850
 6345POPC   GL226930   7.274  38.554   8.850
 6345POPC   C1A26931   7.452  38.425   8.550
 6345POPC   D2A26932   7.398  38.429   8.250
 6345POPC   C3A26933   7.399  38.492   7.950
 6345POPC   C4A26934   7.469  38.455   7.650
 6345POPC   C1B26935   7.191  38.519   8.550
 6345POPC   C2B26936   7.172  38.530   8.250
 6345POPC   C3B26937   7.183  38.586   7.950
 6345POPC   C4B26938   7.232  38.585   7.650
 6346POPC   NC326939  28.393  21.385   9.450
 6346POPC   PO426940  28.386  21.416   9.150
 6346POPC   GL126941  28.367  21.420   8.850
 6346POPC   GL226942  28.312  21.227   8.850
 6346POPC   C1A26943  28.334  21.348   8.550
 6346POPC   D2A26944  28.324  21.378   8.250
 6346POPC   C3A26945  28.379  21.412   7.950
 6346POPC   C4A26946  28.362  21.341   7.650
 6346POPC   C1B26947  28.301  21.107   8.550
 6346POPC   C2B26948  28.257  21.154   8.250
 6346POPC   C3B26949  28.277  21.119   7.950
 6346POPC   C4B26950  28.315  21.187   7.650
 6347POPC   NC326951  43.913  41.594   9.450
 6347POPC   PO426952  43.846  41.510   9.150
 6347POPC   GL126953  43.869  41.571   8.850
 6347POPC   GL226954  43.813  41.688   8.850
 6347POPC   C1A26955  43.915  41.602   8.550
 6347POPC   D2A26956  43.894  41.548   8.250
 6347POPC   C3A26957  43.908  41.595   7.950
 6347POPC   C4A26958  43.919  41.606   7.650
 6347POPC   C1B26959  43.824  41.811   8.550
 6347POPC   C2B26960  43.788  41.777   8.250
 6347POPC   C3B26961  43.837  41.795   7.950
 6347POPC   C4B26962  43.845  41.827   7.650
 6348POPC   NC326963  10.555  26.038   9.450
 6348POPC   PO426964  10.516  26.016   9.150
 6348POPC   GL126965  10.525  26.058   8.850
 6348POPC   GL226966  10.521  25.884   8.850
 6348POPC   C1A26967  10.550  26.008   8.550
 6348POPC   D2A26968  10.557  25.992   8.250
 6348POPC   C3A26969  10.510  26.006   7.950
 6348POPC   C4A26970  10.487  26.005   7.650
 6348POPC   C1B26971  10.436  25.754   8.550
 6348POPC   C2B26972  10.432  25.804   8.250
 6348POPC   C3B26973  10.499  25.794   7.950
 6348POPC   C4B26974  10.488  25.774   7.650
 6349POPC   NC326975  44.631  22.906   9.450
 6349POPC   PO426976  44.663  22.940   9.150
 6349POPC   GL126977  44.651  22.972   8.850
 6349POPC   GL226978  44.554  23.009   8.850
 6349POPC   C1A26979  44.645  22.968   8.550
 6349POPC   D2A26980  44.652  22.914   8.250
 6349POPC   C3A26981  44.659  22.973   7.950
 6349POPC   C4A26982  44.662  22.953   7.650
 6349POPC   C1B26983  44.529  23.154   8.550
 6349POPC   C2B26984  44.524  23.146   8.250
 6349POPC   C3B26985  44.501  23.166   7.950
 6349POPC   C4B26986  44.507  23.111   7.650
 6350POPC   NC326987   3.492  23.667   9.450
 6350POPC   PO426988   3.510  23.726   9.150
 6350POPC   GL126989   3.542  23.684   8.850
 6350POPC   GL226990   3.706  23.675   8.850
 6350POPC   C1A26991   3.546  23.753   8.550
 6350POPC   D2A26992   3.525  23.733   8.250
 6350POPC   C3A26993   3.504  23.751   7.950
 6350POPC   C4A26994   3.537  23.676   7.650
 6350POPC   C1B26995   3.780  23.705   8.550
 6350POPC   C2B26996   3.828  23.714   8.250
 6350POPC   C3B26997   3.809  23.716   7.950
 6350POPC   C4B26998   3.771  23.748   7.650
 6351POPC   NC326999   3.534  33.039   9.450
 6351POPC   PO427000   3.492  32.991   9.150
 6351POPC   GL127001   3.514  32.984   8.850
 6351POPC   GL227002   3.709  33.031   8.850
 6351POPC   C1A27003   3.537  33.063   8.550
 6351POPC   D2A27004   3.591  32.992   8.250
 6351POPC   C3A27005   3.506  33.033   7.950
 6351POPC   C4A27006   3.581  32.999   7.650
 6351POPC   C1B27007   3.752  33.034   8.550
 6351POPC   C2B27008   3.750  33.068   8.250
 6351POPC   C3B27009   3.821  33.050   7.950
 6351POPC   C4B27010   3.804  33.098   7.650
 6352POPC   NC327011  40.734  20.592   9.450
 6352POPC   PO427012  40.754  20.649   9.150
 6352POPC   GL127013  40.820  20.593   8.850
 6352POPC   GL227014  40.889  20.644   8.850
 6352POPC   C1A27015  40.737  20.605   8.550
 6352POPC   D2A27016  40.752  20.567   8.250
 6352POPC   C3A27017  40.813  20.591   7.950
 6352POPC   C4A27018  40.757  20.617   7.650
 6352POPC   C1B27019  40.986  20.635   8.550
 6352POPC   C2B27020  41.043  20.588   8.250
 6352POPC   C3B27021  40.994  20.564   7.950
 6352POPC   C4B27022  41.082  20.612   7.650
 6353POPC   NC327023  42.292  15.143   9.450
 6353POPC   PO427024  42.306  15.219   9.150
 6353POPC   GL127025  42.369  15.197   8.850
 6353POPC   GL227026  42.461  15.135   8.850
 6353POPC   C1A27027  42.288  15.210   8.550
 6353POPC   D2A27028  42.312  15.162   8.250
 6353POPC   C3A27029  42.324  15.202   7.950
 6353POPC   C4A27030  42.338  15.161   7.650
 6353POPC   C1B27031  42.602  15.153   8.550
 6353POPC   C2B27032  42.627  15.100   8.250
 6353POPC   C3B27033  42.584  15.156   7.950
 6353POPC   C4B27034  42.580  15.176   7.650
 6354POPC   NC327035   9.708  17.506   9.450
 6354POPC   PO427036   9.724  17.509   9.150
 6354POPC   GL127037   9.713  17.543   8.850
 6354POPC   GL227038   9.892  17.529   8.850
 6354POPC   C1A27039   9.731  17.511   8.550
 6354POPC   D2A27040   9.703  17.552   8.250
 6354POPC   C3A27041   9.794  17.528   7.950
 6354POPC   C4A27042   9.762  17.518   7.650
 6354POPC   C1B27043  10.044  17.462   8.550
 6354POPC   C2B27044   9.959  17.453   8.250
 6354POPC   C3B27045   9.984  17.457   7.950
 6354POPC   C4B27046  10.044  17.502   7.650
 6355POPC   NC327047  42.286  26.839   9.450
 6355POPC   PO427048  42.384  26.774   9.150
 6355POPC   GL127049  42.365  26.858   8.850
 6355POPC   GL227050  42.396  26.743   8.850
 6355POPC   C1A27051  42.346  26.774   8.550
 6355POPC   D2A27052  42.337  26.831   8.250
 6355POPC   C3A27053  42.306  26.774   7.950
 6355POPC   C4A27054  42.354  26.852   7.650
 6355POPC   C1B27055  42.376  26.579   8.550
 6355POPC   C2B27056  42.433  26.568   8.250
 6355POPC   C3B27057  42.390  26.576   7.950
 6355POPC   C4B27058  42.378  26.569   7.650
 6356POPC   NC327059  32.987  42.309   9.450
 6356POPC   PO427060  32.988  42.334   9.150
 6356POPC   GL127061  33.058  42.311   8.850
 6356POPC   GL227062  33.012  42.258   8.850
 6356POPC   C1A27063  32.997  42.307   8.550
 6356POPC   D2A27064  32.993  42.371   8.250
 6356POPC   C3A27065  33.006  42.349   7.950
 6356POPC   C4A27066  32.978  42.337   7.650
 6356POPC   C1B27067  32.999  42.121   8.550
 6356POPC   C2B27068  33.037  42.042   8.250
 6356POPC   C3B27069  33.006  42.080   7.950
 6356POPC   C4B27070  33.086  42.131   7.650
 6357POPC   NC327071  38.500  40.746   9.450
 6357POPC   PO427072  38.436  40.753   9.150
 6357POPC   GL127073  38.412  40.810   8.850
 6357POPC   GL227074  38.430  40.660   8.850
 6357POPC   C1A27075  38.480  40.750   8.550
 6357POPC   D2A27076  38.424  40.825   8.250
 6357POPC   C3A27077  38.483  40.821   7.950
 6357POPC   C4A27078  38.413  40.809   7.650
 6357POPC   C1B27079  38.452  40.531   8.550
 6357POPC   C2B27080  38.435  40.492   8.250
 6357POPC   C3B27081  38.436  40.508   7.950
 6357POPC   C4B27082  38.369  40.584   7.650
 6358POPC   NC327083   7.453  44.704   9.450
 6358POPC   PO427084   7.464  44.702   9.150
 6358POPC   GL127085   7.415  44.625   8.850
 6358POPC   GL227086   7.397  44.818   8.850
 6358POPC   C1A27087   7.453  44.613   8.550
 6358POPC   D2A27088   7.450  44.656   8.250
 6358POPC   C3A27089   7.463  44.702   7.950
 6358POPC   C4A27090   7.458  44.692   7.650
 6358POPC   C1B27091   7.373  44.899   8.550
 6358POPC   C2B27092   7.407  44.919   8.250
 6358POPC   C3B27093   7.385  44.909   7.950
 6358POPC   C4B27094   7.329  44.866   7.650
 6359POPC   NC327095  16.715  40.758   9.450
 6359POPC   PO427096  16.777  40.756   9.150
 6359POPC   GL127097  16.747  40.782   8.850
 6359POPC   GL227098  16.643  40.754   8.850
 6359POPC   C1A27099  16.727  40.789   8.550
 6359POPC   D2A27100  16.745  40.754   8.250
 6359POPC   C3A27101  16.771  40.765   7.950
 6359POPC   C4A27102  16.710  40.787   7.650
 6359POPC   C1B27103  16.477  40.830   8.550
 6359POPC   C2B27104  16.445  40.802   8.250
 6359POPC   C3B27105  16.523  40.798   7.950
 6359POPC   C4B27106  16.473  40.801   7.650
 6360POPC   NC327107  16.001  35.339   9.450
 6360POPC   PO427108  15.988  35.335   9.150
 6360POPC   GL127109  15.965  35.343   8.850
 6360POPC   GL227110  15.872  35.416   8.850
 6360POPC   C1A27111  15.979  35.323   8.550
 6360POPC   D2A27112  15.946  35.355   8.250
 6360POPC   C3A27113  15.992  35.397   7.950
 6360POPC   C4A27114  15.929  35.334   7.650
 6360POPC   C1B27115  15.739  35.494   8.550
 6360POPC   C2B27116  15.769  35.446   8.250
 6360POPC   C3B27117  15.750  35.522   7.950
 6360POPC   C4B27118  15.761  35.464   7.650
 6361POPC   NC327119  39.268  29.963   9.450
 6361POPC   PO427120  39.246  29.939   9.150
 6361POPC   GL127121  39.216  29.884   8.850
 6361POPC   GL227122  39.155  29.997   8.850
 6361POPC   C1A27123  39.260  29.918   8.550
 6361POPC   D2A27124  39.275  29.873   8.250
 6361POPC   C3A27125  39.195  29.963   7.950
 6361POPC   C4A27126  39.264  29.924   7.650
 6361POPC   C1B27127  38.946  30.025   8.550
 6361POPC   C2B27128  39.015  30.014   8.250
 6361POPC   C3B27129  38.943  30.036   7.950
 6361POPC   C4B27130  38.994  29.947   7.650
 6362POPC   NC327131  13.673  32.267   9.450
 6362POPC   PO427132  13.677  32.243   9.150
 6362POPC   GL127133  13.614  32.227   8.850
 6362POPC   GL227134  13.502  32.263   8.850
 6362POPC   C1A27135  13.604  32.213   8.550
 6362POPC   D2A27136  13.632  32.268   8.250
 6362POPC   C3A27137  13.605  32.216   7.950
 6362POPC   C4A27138  13.642  32.244   7.650
 6362POPC   C1B27139  13.405  32.235   8.550
 6362POPC   C2B27140  13.339  32.156   8.250
 6362POPC   C3B27141  13.388  32.207   7.950
 6362POPC   C4B27142  13.372  32.238   7.650
 6363POPC   NC327143   1.990  37.704   9.450
 6363POPC   PO427144   1.960  37.638   9.150
 6363POPC   GL127145   1.946  37.697   8.850
 6363POPC   GL227146   2.046  37.799   8.850
 6363POPC   C1A27147   1.942  37.720   8.550
 6363POPC   D2A27148   1.950  37.728   8.250
 6363POPC   C3A27149   2.027  37.686   7.950
 6363POPC   C4A27150   1.985  37.719   7.650
 6363POPC   C1B27151   2.116  37.877   8.550
 6363POPC   C2B27152   2.141  37.884   8.250
 6363POPC   C3B27153   2.055  37.935   7.950
 6363POPC   C4B27154   2.147  37.904   7.650
 6364POPC   NC327155  16.756  12.109   9.450
 6364POPC   PO427156  16.712  12.032   9.150
 6364POPC   GL127157  16.738  12.098   8.850
 6364POPC   GL227158  16.809  12.024   8.850
 6364POPC   C1A27159  16.778  12.062   8.550
 6364POPC   D2A27160  16.776  12.120   8.250
 6364POPC   C3A27161  16.687  12.107   7.950
 6364POPC   C4A27162  16.724  12.053   7.650
 6364POPC   C1B27163  16.925  11.993   8.550
 6364POPC   C2B27164  16.970  11.951   8.250
 6364POPC   C3B27165  16.980  11.923   7.950
 6364POPC   C4B27166  16.929  11.989   7.650
 6365POPC   NC327167   6.692  17.510   9.450
 6365POPC   PO427168   6.628  17.496   9.150
 6365POPC   GL127169   6.654  17.493   8.850
 6365POPC   GL227170   6.545  17.540   8.850
 6365POPC   C1A27171   6.635  17.550   8.550
 6365POPC   D2A27172   6.598  17.489   8.250
 6365POPC   C3A27173   6.598  17.486   7.950
 6365POPC   C4A27174   6.618  17.528   7.650
 6365POPC   C1B27175   6.463  17.628   8.550
 6365POPC   C2B27176   6.431  17.678   8.250
 6365POPC   C3B27177   6.435  17.598   7.950
 6365POPC   C4B27178   6.418  17.626   7.650
 6366POPC   NC327179   5.128  35.362   9.450
 6366POPC   PO427180   5.108  35.385   9.150
 6366POPC   GL127181   5.114  35.352   8.850
 6366POPC   GL227182   5.203  35.302   8.850
 6366POPC   C1A27183   5.059  35.339   8.550
 6366POPC   D2A27184   5.103  35.346   8.250
 6366POPC   C3A27185   5.065  35.333   7.950
 6366POPC   C4A27186   5.106  35.382   7.650
 6366POPC   C1B27187   5.368  35.326   8.550
 6366POPC   C2B27188   5.367  35.350   8.250
 6366POPC   C3B27189   5.365  35.378   7.950
 6366POPC   C4B27190   5.327  35.302   7.650
 6367POPC   NC327191  26.025  23.670   9.450
 6367POPC   PO427192  26.017  23.755   9.150
 6367POPC   GL127193  26.079  23.728   8.850
 6367POPC   GL227194  25.986  23.787   8.850
 6367POPC   C1A27195  26.088  23.702   8.550
 6367POPC   D2A27196  26.073  23.727   8.250
 6367POPC   C3A27197  26.088  23.721   7.950
 6367POPC   C4A27198  26.086  23.731   7.650
 6367POPC   C1B27199  25.842  23.883   8.550
 6367POPC   C2B27200  25.923  23.920   8.250
 6367POPC   C3B27201  25.904  23.902   7.950
 6367POPC   C4B27202  25.868  23.863   7.650
 6368POPC   NC327203  36.899  40.056   9.450
 6368POPC   PO427204  36.913  39.994   9.150
 6368POPC   GL127205  36.931  39.980   8.850
 6368POPC   GL227206  36.938  40.111   8.850
 6368POPC   C1A27207  36.939  40.050   8.550
 6368POPC   D2A27208  36.913  39.962   8.250
 6368POPC   C3A27209  36.856  40.021   7.950
 6368POPC   C4A27210  36.864  39.989   7.650
 6368POPC   C1B27211  37.106  40.200   8.550
 6368POPC   C2B27212  37.037  40.159   8.250
 6368POPC   C3B27213  37.046  40.160   7.950
 6368POPC   C4B27214  37.078  40.158   7.650
 6369POPC   NC327215  41.597   4.337   9.450
 6369POPC   PO427216  41.584   4.302   9.150
 6369POPC   GL127217  41.554   4.356   8.850
 6369POPC   GL227218  41.695   4.233   8.850
 6369POPC   C1A27219  41.540   4.281   8.550
 6369POPC   D2A27220  41.558   4.357   8.250
 6369POPC   C3A27221  41.550   4.351   7.950
 6369POPC   C4A27222  41.577   4.341   7.650
 6369POPC   C1B27223  41.776   4.144   8.550
 6369POPC   C2B27224  41.750   4.166   8.250
 6369POPC   C3B27225  41.751   4.198   7.950
 6369POPC   C4B27226  41.743   4.135   7.650
 6370POPC   NC327227  10.555  32.264   9.450
 6370POPC   PO427228  10.511  32.273   9.150
 6370POPC   GL127229  10.567  32.240   8.850
 6370POPC   GL227230  10.617  32.263   8.850
 6370POPC   C1A27231  10.570  32.270   8.550
 6370POPC   D2A27232  10.542  32.238   8.250
 6370POPC   C3A27233  10.529  32.284   7.950
 6370POPC   C4A27234  10.542  32.209   7.650
 6370POPC   C1B27235  10.749  32.199   8.550
 6370POPC   C2B27236  10.787  32.187   8.250
 6370POPC   C3B27237  10.742  32.192   7.950
 6370POPC   C4B27238  10.743  32.212   7.650
 6371POPC   NC327239  42.306  33.794   9.450
 6371POPC   PO427240  42.356  33.802   9.150
 6371POPC   GL127241  42.300  33.788   8.850
 6371POPC   GL227242  42.223  33.735   8.850
 6371POPC   C1A27243  42.317  33.849   8.550
 6371POPC   D2A27244  42.368  33.825   8.250
 6371POPC   C3A27245  42.328  33.822   7.950
 6371POPC   C4A27246  42.343  33.809   7.650
 6371POPC   C1B27247  42.138  33.655   8.550
 6371POPC   C2B27248  42.165  33.650   8.250
 6371POPC   C3B27249  42.090  33.685   7.950
 6371POPC   C4B27250  42.072  33.645   7.650
 6372POPC   NC327251  37.663   6.691   9.450
 6372POPC   PO427252  37.719   6.601   9.150
 6372POPC   GL127253  37.723   6.650   8.850
 6372POPC   GL227254  37.623   6.760   8.850
 6372POPC   C1A27255  37.631   6.659   8.550
 6372POPC   D2A27256  37.691   6.650   8.250
 6372POPC   C3A27257  37.649   6.611   7.950
 6372POPC   C4A27258  37.720   6.651   7.650
 6372POPC   C1B27259  37.639   6.877   8.550
 6372POPC   C2B27260  37.615   6.928   8.250
 6372POPC   C3B27261  37.664   6.900   7.950
 6372POPC   C4B27262  37.611   6.842   7.650
 6373POPC   NC327263  19.108  31.469   9.450
 6373POPC   PO427264  19.093  31.425   9.150
 6373POPC   GL127265  19.076  31.463   8.850
 6373POPC   GL227266  19.124  31.427   8.850
 6373POPC   C1A27267  19.069  31.505   8.550
 6373POPC   D2A27268  19.015  31.522   8.250
 6373POPC   C3A27269  19.043  31.480   7.950
 6373POPC   C4A27270  19.019  31.446   7.650
 6373POPC   C1B27271  19.288  31.387   8.550
 6373POPC   C2B27272  19.252  31.350   8.250
 6373POPC   C3B27273  19.301  31.374   7.950
 6373POPC   C4B27274  19.234  31.388   7.650
 6374POPC   NC327275  18.304  35.352   9.450
 6374POPC   PO427276  18.265  35.307   9.150
 6374POPC   GL127277  18.305  35.379   8.850
 6374POPC   GL227278  18.251  35.452   8.850
 6374POPC   C1A27279  18.234  35.390   8.550
 6374POPC   D2A27280  18.276  35.390   8.250
 6374POPC   C3A27281  18.279  35.339   7.950
 6374POPC   C4A27282  18.307  35.341   7.650
 6374POPC   C1B27283  18.251  35.644   8.550
 6374POPC   C2B27284  18.221  35.626   8.250
 6374POPC   C3B27285  18.222  35.646   7.950
 6374POPC   C4B27286  18.265  35.600   7.650
 6375POPC   NC327287  11.260  42.323   9.450
 6375POPC   PO427288  11.292  42.369   9.150
 6375POPC   GL127289  11.333  42.370   8.850
 6375POPC   GL227290  11.460  42.333   8.850
 6375POPC   C1A27291  11.259  42.298   8.550
 6375POPC   D2A27292  11.272  42.344   8.250
 6375POPC   C3A27293  11.315  42.371   7.950
 6375POPC   C4A27294  11.313  42.333   7.650
 6375POPC   C1B27295  11.583  42.327   8.550
 6375POPC   C2B27296  11.594  42.375   8.250
 6375POPC   C3B27297  11.500  42.343   7.950
 6375POPC   C4B27298  11.535  42.379   7.650
 6376POPC   NC327299  13.673  35.374   9.450
 6376POPC   PO427300  13.639  35.303   9.150
 6376POPC   GL127301  13.638  35.383   8.850
 6376POPC   GL227302  13.543  35.456   8.850
 6376POPC   C1A27303  13.611  35.342   8.550
 6376POPC   D2A27304  13.643  35.351   8.250
 6376POPC   C3A27305  13.582  35.377   7.950
 6376POPC   C4A27306  13.633  35.391   7.650
 6376POPC   C1B27307  13.527  35.586   8.550
 6376POPC   C2B27308  13.526  35.557   8.250
 6376POPC   C3B27309  13.580  35.563   7.950
 6376POPC   C4B27310  13.572  35.625   7.650
 6377POPC   NC327311   6.672  29.153   9.450
 6377POPC   PO427312   6.679  29.194   9.150
 6377POPC   GL127313   6.654  29.103   8.850
 6377POPC   GL227314   6.583  29.022   8.850
 6377POPC   C1A27315   6.603  29.173   8.550
 6377POPC   D2A27316   6.646  29.105   8.250
 6377POPC   C3A27317   6.659  29.191   7.950
 6377POPC   C4A27318   6.660  29.167   7.650
 6377POPC   C1B27319   6.474  28.955   8.550
 6377POPC   C2B27320   6.434  29.012   8.250
 6377POPC   C3B27321   6.510  28.980   7.950
 6377POPC   C4B27322   6.497  28.962   7.650
 6378POPC   NC327323  39.978  32.243   9.450
 6378POPC   PO427324  39.975  32.238   9.150
 6378POPC   GL127325  40.021  32.222   8.850
 6378POPC   GL227326  40.123  32.310   8.850
 6378POPC   C1A27327  39.967  32.214   8.550
 6378POPC   D2A27328  39.998  32.260   8.250
 6378POPC   C3A27329  39.978  32.259   7.950
 6378POPC   C4A27330  40.027  32.289   7.650
 6378POPC   C1B27331  40.204  32.281   8.550
 6378POPC   C2B27332  40.240  32.327   8.250
 6378POPC   C3B27333  40.227  32.319   7.950
 6378POPC   C4B27334  40.236  32.266   7.650
 6379POPC   NC327335  29.967   2.729   9.450
 6379POPC   PO427336  29.880   2.782   9.150
 6379POPC   GL127337  29.951   2.731   8.850
 6379POPC   GL227338  29.840   2.716   8.850
 6379POPC   C1A27339  29.936   2.789   8.550
 6379POPC   D2A27340  29.902   2.788   8.250
 6379POPC   C3A27341  29.967   2.786   7.950
 6379POPC   C4A27342  29.959   2.752   7.650
 6379POPC   C1B27343  29.738   2.644   8.550
 6379POPC   C2B27344  29.778   2.565   8.250
 6379POPC   C3B27345  29.683   2.612   7.950
 6379POPC   C4B27346  29.694   2.552   7.650
 6380POPC   NC327347  26.052  29.913   9.450
 6380POPC   PO427348  26.054  29.881   9.150
 6380POPC   GL127349  26.065  29.933   8.850
 6380POPC   GL227350  26.100  29.987   8.850
 6380POPC   C1A27351  26.050  29.892   8.550
 6380POPC   D2A27352  26.060  29.887   8.250
 6380POPC   C3A27353  26.019  29.881   7.950
 6380POPC   C4A27354  26.046  29.961   7.650
 6380POPC   C1B27355  26.219  30.109   8.550
 6380POPC   C2B27356  26.181  30.141   8.250
 6380POPC   C3B27357  26.258  30.058   7.950
 6380POPC   C4B27358  26.176  30.049   7.650
 6381POPC   NC327359  26.826  26.806   9.450
 6381POPC   PO427360  26.841  26.789   9.150
 6381POPC   GL127361  26.858  26.817   8.850
 6381POPC   GL227362  26.806  26.932   8.850
 6381POPC   C1A27363  26.828  26.771   8.550
 6381POPC   D2A27364  26.776  26.816   8.250
 6381POPC   C3A27365  26.770  26.790   7.950
 6381POPC   C4A27366  26.861  26.800   7.650
 6381POPC   C1B27367  26.812  27.086   8.550
 6381POPC   C2B27368  26.822  27.027   8.250
 6381POPC   C3B27369  26.804  27.022   7.950
 6381POPC   C4B27370  26.800  27.039   7.650
 6382POPC   NC327371  30.729  18.248   9.450
 6382POPC   PO427372  30.673  18.275   9.150
 6382POPC   GL127373  30.741  18.240   8.850
 6382POPC   GL227374  30.674  18.371   8.850
 6382POPC   C1A27375  30.730  18.297   8.550
 6382POPC   D2A27376  30.683  18.291   8.250
 6382POPC   C3A27377  30.692  18.315   7.950
 6382POPC   C4A27378  30.726  18.332   7.650
 6382POPC   C1B27379  30.596  18.486   8.550
 6382POPC   C2B27380  30.531  18.511   8.250
 6382POPC   C3B27381  30.522  18.469   7.950
 6382POPC   C4B27382  30.554  18.521   7.650
 6383POPC   NC327383  31.522  38.476   9.450
 6383POPC   PO427384  31.452  38.502   9.150
 6383POPC   GL127385  31.428  38.422   8.850
 6383POPC   GL227386  31.434  38.619   8.850
 6383POPC   C1A27387  31.453  38.483   8.550
 6383POPC   D2A27388  31.468  38.427   8.250
 6383POPC   C3A27389  31.469  38.469   7.950
 6383POPC   C4A27390  31.477  38.473   7.650
 6383POPC   C1B27391  31.471  38.699   8.550
 6383POPC   C2B27392  31.486  38.741   8.250
 6383POPC   C3B27393  31.429  38.718   7.950
 6383POPC   C4B27394  31.443  38.683   7.650
 6384POPC   NC327395  14.417  20.563   9.450
 6384POPC   PO427396  14.437  20.607   9.150
 6384POPC   GL127397  14.416  20.620   8.850
 6384POPC   GL227398  14.328  20.707   8.850
 6384POPC   C1A27399  14.426  20.649   8.550
 6384POPC   D2A27400  14.438  20.641   8.250
 6384POPC   C3A27401  14.444  20.634   7.950
 6384POPC   C4A27402  14.374  20.614   7.650
 6384POPC   C1B27403  14.322  20.871   8.550
 6384POPC   C2B27404  14.304  20.888   8.250
 6384POPC   C3B27405  14.332  20.835   7.950
 6384POPC   C4B27406  14.288  20.837   7.650
 6385POPC   NC327407   2.780  39.963   9.450
 6385POPC   PO427408   2.808  40.049   9.150
 6385POPC   GL127409   2.801  39.996   8.850
 6385POPC   GL227410   2.606  40.037   8.850
 6385POPC   C1A27411   2.720  40.020   8.550
 6385POPC   D2A27412   2.778  39.996   8.250
 6385POPC   C3A27413   2.765  39.960   7.950
 6385POPC   C4A27414   2.757  40.034   7.650
 6385POPC   C1B27415   2.506  40.051   8.550
 6385POPC   C2B27416   2.485  40.058   8.250
 6385POPC   C3B27417   2.469  39.979   7.950
 6385POPC   C4B27418   2.526  39.981   7.650
 6386POPC   NC327419  29.942  18.255   9.450
 6386POPC   PO427420  29.932  18.291   9.150
 6386POPC   GL127421  29.905  18.281   8.850
 6386POPC   GL227422  29.857  18.385   8.850
 6386POPC   C1A27423  29.873  18.306   8.550
 6386POPC   D2A27424  29.926  18.271   8.250
 6386POPC   C3A27425  29.942  18.237   7.950
 6386POPC   C4A27426  29.965  18.297   7.650
 6386POPC   C1B27427  29.713  18.472   8.550
 6386POPC   C2B27428  29.668  18.384   8.250
 6386POPC   C3B27429  29.670  18.391   7.950
 6386POPC   C4B27430  29.757  18.458   7.650
 6387POPC   NC327431  30.690  31.492   9.450
 6387POPC   PO427432  30.722  31.503   9.150
 6387POPC   GL127433  30.727  31.451   8.850
 6387POPC   GL227434  30.774  31.538   8.850
 6387POPC   C1A27435  30.741  31.504   8.550
 6387POPC   D2A27436  30.725  31.443   8.250
 6387POPC   C3A27437  30.657  31.468   7.950
 6387POPC   C4A27438  30.696  31.454   7.650
 6387POPC   C1B27439  30.963  31.515   8.550
 6387POPC   C2B27440  30.949  31.528   8.250
 6387POPC   C3B27441  30.895  31.546   7.950
 6387POPC   C4B27442  30.969  31.483   7.650
 6388POPC   NC327443  22.966  18.243   9.450
 6388POPC   PO427444  22.983  18.309   9.150
 6388POPC   GL127445  22.946  18.288   8.850
 6388POPC   GL227446  22.834  18.213   8.850
 6388POPC   C1A27447  22.926  18.247   8.550
 6388POPC   D2A27448  22.912  18.269   8.250
 6388POPC   C3A27449  22.924  18.249   7.950
 6388POPC   C4A27450  22.889  18.279   7.650
 6388POPC   C1B27451  22.785  18.094   8.550
 6388POPC   C2B27452  22.785  18.090   8.250
 6388POPC   C3B27453  22.778  18.139   7.950
 6388POPC   C4B27454  22.719  18.133   7.650
 6389POPC   NC327455  33.016  20.585   9.450
 6389POPC   PO427456  33.035  20.593   9.150
 6389POPC   GL127457  33.042  20.606   8.850
 6389POPC   GL227458  32.938  20.499   8.850
 6389POPC   C1A27459  33.028  20.623   8.550
 6389POPC   D2A27460  33.051  20.602   8.250
 6389POPC   C3A27461  33.058  20.639   7.950
 6389POPC   C4A27462  33.070  20.619   7.650
 6389POPC   C1B27463  32.786  20.525   8.550
 6389POPC   C2B27464  32.839  20.514   8.250
 6389POPC   C3B27465  32.814  20.492   7.950
 6389POPC   C4B27466  32.848  20.439   7.650
 6390POPC   NC327467  24.463  18.238   9.450
 6390POPC   PO427468  24.504  18.235   9.150
 6390POPC   GL127469  24.471  18.300   8.850
 6390POPC   GL227470  24.465  18.182   8.850
 6390POPC   C1A27471  24.447  18.327   8.550
 6390POPC   D2A27472  24.518  18.283   8.250
 6390POPC   C3A27473  24.461  18.302   7.950
 6390POPC   C4A27474  24.447  18.299   7.650
 6390POPC   C1B27475  24.357  18.070   8.550
 6390POPC   C2B27476  24.317  18.098   8.250
 6390POPC   C3B27477  24.309  18.097   7.950
 6390POPC   C4B27478  24.345  18.104   7.650
 6391POPC   NC327479  36.113  30.726   9.450
 6391POPC   PO427480  36.176  30.743   9.150
 6391POPC   GL127481  36.171  30.666   8.850
 6391POPC   GL227482  36.237  30.661   8.850
 6391POPC   C1A27483  36.166  30.733   8.550
 6391POPC   D2A27484  36.103  30.690   8.250
 6391POPC   C3A27485  36.151  30.707   7.950
 6391POPC   C4A27486  36.155  30.710   7.650
 6391POPC   C1B27487  36.283  30.507   8.550
 6391POPC   C2B27488  36.301  30.493   8.250
 6391POPC   C3B27489  36.313  30.526   7.950
 6391POPC   C4B27490  36.362  30.565   7.650
 6392POPC   NC327491  19.840   4.355   9.450
 6392POPC   PO427492  19.874   4.352   9.150
 6392POPC   GL127493  19.866   4.330   8.850
 6392POPC   GL227494  19.922   4.388   8.850
 6392POPC   C1A27495  19.854   4.280   8.550
 6392POPC   D2A27496  19.789   4.271   8.250
 6392POPC   C3A27497  19.849   4.283   7.950
 6392POPC   C4A27498  19.837   4.285   7.650
 6392POPC   C1B27499  19.962   4.489   8.550
 6392POPC   C2B27500  20.007   4.540   8.250
 6392POPC   C3B27501  19.998   4.570   7.950
 6392POPC   C4B27502  20.005   4.577   7.650
 6393POPC   NC327503  37.696  17.462   9.450
 6393POPC   PO427504  37.681  17.471   9.150
 6393POPC   GL127505  37.701  17.482   8.850
 6393POPC   GL227506  37.616  17.611   8.850
 6393POPC   C1A27507  37.644  17.463   8.550
 6393POPC   D2A27508  37.698  17.470   8.250
 6393POPC   C3A27509  37.728  17.529   7.950
 6393POPC   C4A27510  37.702  17.544   7.650
 6393POPC   C1B27511  37.454  17.641   8.550
 6393POPC   C2B27512  37.450  17.631   8.250
 6393POPC   C3B27513  37.459  17.623   7.950
 6393POPC   C4B27514  37.456  17.677   7.650
 6394POPC   NC327515  21.339  15.203   9.450
 6394POPC   PO427516  21.353  15.205   9.150
 6394POPC   GL127517  21.433  15.217   8.850
 6394POPC   GL227518  21.538  15.241   8.850
 6394POPC   C1A27519  21.426  15.198   8.550
 6394POPC   D2A27520  21.425  15.197   8.250
 6394POPC   C3A27521  21.355  15.181   7.950
 6394POPC   C4A27522  21.434  15.177   7.650
 6394POPC   C1B27523  21.627  15.272   8.550
 6394POPC   C2B27524  21.609  15.320   8.250
 6394POPC   C3B27525  21.653  15.283   7.950
 6394POPC   C4B27526  21.573  15.295   7.650
 6395POPC   NC327527   3.523  34.561   9.450
 6395POPC   PO427528   3.516  34.531   9.150
 6395POPC   GL127529   3.568  34.604   8.850
 6395POPC   GL227530   3.648  34.563   8.850
 6395POPC   C1A27531   3.560  34.555   8.550
 6395POPC   D2A27532   3.591  34.612   8.250
 6395POPC   C3A27533   3.529  34.558   7.950
 6395POPC   C4A27534   3.524  34.537   7.650
 6395POPC   C1B27535   3.755  34.481   8.550
 6395POPC   C2B27536   3.774  34.506   8.250
 6395POPC   C3B27537   3.800  34.442   7.950
 6395POPC   C4B27538   3.795  34.480   7.650
 6396POPC   NC327539  36.887  18.298   9.450
 6396POPC   PO427540  36.926  18.299   9.150
 6396POPC   GL127541  36.919  18.235   8.850
 6396POPC   GL227542  36.801  18.371   8.850
 6396POPC   C1A27543  36.881  18.290   8.550
 6396POPC   D2A27544  36.858  18.287   8.250
 6396POPC   C3A27545  36.931  18.319   7.950
 6396POPC   C4A27546  36.877  18.280   7.650
 6396POPC   C1B27547  36.620  18.418   8.550
 6396POPC   C2B27548  36.635  18.345   8.250
 6396POPC   C3B27549  36.677  18.402   7.950
 6396POPC   C4B27550  36.643  18.419   7.650
 6397POPC   NC327551  38.501   2.728   9.450
 6397POPC   PO427552  38.458   2.717   9.150
 6397POPC   GL127553  38.406   2.757   8.850
 6397POPC   GL227554  38.517   2.677   8.850
 6397POPC   C1A27555  38.504   2.722   8.550
 6397POPC   D2A27556  38.501   2.794   8.250
 6397POPC   C3A27557  38.421   2.766   7.950
 6397POPC   C4A27558  38.449   2.776   7.650
 6397POPC   C1B27559  38.571   2.509   8.550
 6397POPC   C2B27560  38.518   2.506   8.250
 6397POPC   C3B27561  38.517   2.486   7.950
 6397POPC   C4B27562  38.529   2.557   7.650
 6398POPC   NC327563   9.722  26.833   9.450
 6398POPC   PO427564   9.771  26.838   9.150
 6398POPC   GL127565   9.781  26.786   8.850
 6398POPC   GL227566   9.789  26.708   8.850
 6398POPC   C1A27567   9.780  26.819   8.550
 6398POPC   D2A27568   9.762  26.783   8.250
 6398POPC   C3A27569   9.770  26.774   7.950
 6398POPC   C4A27570   9.784  26.834   7.650
 6398POPC   C1B27571   9.888  26.608   8.550
 6398POPC   C2B27572   9.827  26.604   8.250
 6398POPC   C3B27573   9.876  26.599   7.950
 6398POPC   C4B27574   9.893  26.580   7.650
 6399POPC   NC327575  41.589  29.113   9.450
 6399POPC   PO427576  41.554  29.115   9.150
 6399POPC   GL127577  41.517  29.105   8.850
 6399POPC   GL227578  41.617  29.268   8.850
 6399POPC   C1A27579  41.588  29.178   8.550
 6399POPC   D2A27580  41.576  29.177   8.250
 6399POPC   C3A27581  41.532  29.165   7.950
 6399POPC   C4A27582  41.515  29.189   7.650
 6399POPC   C1B27583  41.732  29.309   8.550
 6399POPC   C2B27584  41.753  29.318   8.250
 6399POPC   C3B27585  41.799  29.337   7.950
 6399POPC   C4B27586  41.780  29.265   7.650
 6400POPC   NC327587  14.412  26.795   9.450
 6400POPC   PO427588  14.428  26.846   9.150
 6400POPC   GL127589  14.363  26.820   8.850
 6400POPC   GL227590  14.451  26.909   8.850
 6400POPC   C1A27591  14.369  26.844   8.550
 6400POPC   D2A27592  14.429  26.848   8.250
 6400POPC   C3A27593  14.404  26.849   7.950
 6400POPC   C4A27594  14.400  26.778   7.650
 6400POPC   C1B27595  14.616  27.020   8.550
 6400POPC   C2B27596  14.536  27.011   8.250
 6400POPC   C3B27597  14.529  26.954   7.950
 6400POPC   C4B27598  14.531  26.947   7.650
 6401POPC   NC327599   1.243  39.181   9.450
 6401POPC   PO427600   1.174  39.217   9.150
 6401POPC   GL127601   1.223  39.187   8.850
 6401POPC   GL227602   1.256  39.295   8.850
 6401POPC   C1A27603   1.222  39.209   8.550
 6401POPC   D2A27604   1.222  39.254   8.250
 6401POPC   C3A27605   1.243  39.190   7.950
 6401POPC   C4A27606   1.183  39.196   7.650
 6401POPC   C1B27607   1.362  39.414   8.550
 6401POPC   C2B27608   1.335  39.470   8.250
 6401POPC   C3B27609   1.331  39.400   7.950
 6401POPC   C4B27610   1.401  39.419   7.650
 6402POPC   NC327611  41.602  41.551   9.450
 6402POPC   PO427612  41.567  41.514   9.150
 6402POPC   GL127613  41.592  41.545   8.850
 6402POPC   GL227614  41.492  41.567   8.850
 6402POPC   C1A27615  41.579  41.546   8.550
 6402POPC   D2A27616  41.570  41.527   8.250
 6402POPC   C3A27617  41.588  41.510   7.950
 6402POPC   C4A27618  41.515  41.512   7.650
 6402POPC   C1B27619  41.313  41.640   8.550
 6402POPC   C2B27620  41.296  41.631   8.250
 6402POPC   C3B27621  41.327  41.699   7.950
 6402POPC   C4B27622  41.332  41.700   7.650
 6403POPC   NC327623  13.659  19.058   9.450
 6403POPC   PO427624  13.619  19.065   9.150
 6403POPC   GL127625  13.627  19.012   8.850
 6403POPC   GL227626  13.553  19.149   8.850
 6403POPC   C1A27627  13.633  19.093   8.550
 6403POPC   D2A27628  13.628  19.106   8.250
 6403POPC   C3A27629  13.634  19.066   7.950
 6403POPC   C4A27630  13.639  19.099   7.650
 6403POPC   C1B27631  13.426  19.171   8.550
 6403POPC   C2B27632  13.427  19.170   8.250
 6403POPC   C3B27633  13.434  19.146   7.950
 6403POPC   C4B27634  13.418  19.193   7.650
 6404POPC   NC327635   6.640  39.251   9.450
 6404POPC   PO427636   6.635  39.213   9.150
 6404POPC   GL127637   6.598  39.219   8.850
 6404POPC   GL227638   6.618  39.128   8.850
 6404POPC   C1A27639   6.643  39.202   8.550
 6404POPC   D2A27640   6.641  39.201   8.250
 6404POPC   C3A27641   6.599  39.188   7.950
 6404POPC   C4A27642   6.676  39.199   7.650
 6404POPC   C1B27643   6.572  39.003   8.550
 6404POPC   C2B27644   6.587  39.014   8.250
 6404POPC   C3B27645   6.577  39.011   7.950
 6404POPC   C4B27646   6.508  38.975   7.650
 6405POPC   NC327647   5.090  36.121   9.450
 6405POPC   PO427648   5.124  36.134   9.150
 6405POPC   GL127649   5.108  36.156   8.850
 6405POPC   GL227650   5.022  36.027   8.850
 6405POPC   C1A27651   5.110  36.169   8.550
 6405POPC   D2A27652   5.064  36.117   8.250
 6405POPC   C3A27653   5.142  36.140   7.950
 6405POPC   C4A27654   5.114  36.165   7.650
 6405POPC   C1B27655   4.987  35.916   8.550
 6405POPC   C2B27656   5.024  35.886   8.250
 6405POPC   C3B27657   5.002  35.928   7.950
 6405POPC   C4B27658   4.957  35.938   7.650
 6406POPC   NC327659  11.339   4.317   9.450
 6406POPC   PO427660  11.319   4.361   9.150
 6406POPC   GL127661  11.310   4.317   8.850
 6406POPC   GL227662  11.207   4.399   8.850
 6406POPC   C1A27663  11.320   4.305   8.550
 6406POPC   D2A27664  11.269   4.293   8.250
 6406POPC   C3A27665  11.307   4.322   7.950
 6406POPC   C4A27666  11.344   4.295   7.650
 6406POPC   C1B27667  11.062   4.411   8.550
 6406POPC   C2B27668  11.045   4.390   8.250
 6406POPC   C3B27669  11.093   4.386   7.950
 6406POPC   C4B27670  11.034   4.440   7.650
 6407POPC   NC327671  12.836   9.004   9.450
 6407POPC   PO427672  12.836   8.948   9.150
 6407POPC   GL127673  12.877   9.021   8.850
 6407POPC   GL227674  12.796   9.048   8.850
 6407POPC   C1A27675  12.837   9.011   8.550
 6407POPC   D2A27676  12.886   8.923   8.250
 6407POPC   C3A27677  12.856   8.992   7.950
 6407POPC   C4A27678  12.896   8.929   7.650
 6407POPC   C1B27679  12.675   9.135   8.550
 6407POPC   C2B27680  12.645   9.158   8.250
 6407POPC   C3B27681  12.638   9.147   7.950
 6407POPC   C4B27682  12.642   9.098   7.650
 6408POPC   NC327683  18.322   3.585   9.450
 6408POPC   PO427684  18.302   3.547   9.150
 6408POPC   GL127685  18.256   3.532   8.850
 6408POPC   GL227686  18.423   3.473   8.850
 6408POPC   C1A27687  18.312   3.519   8.550
 6408POPC   D2A27688  18.278   3.499   8.250
 6408POPC   C3A27689  18.331   3.516   7.950
 6408POPC   C4A27690  18.331   3.545   7.650
 6408POPC   C1B27691  18.535   3.435   8.550
 6408POPC   C2B27692  18.493   3.440   8.250
 6408POPC   C3B27693  18.568   3.511   7.950
 6408POPC   C4B27694  18.485   3.497   7.650
 6409POPC   NC327695  40.775  33.827   9.450
 6409POPC   PO427696  40.831  33.848   9.150
 6409POPC   GL127697  40.804  33.761   8.850
 6409POPC   GL227698  40.862  33.889   8.850
 6409POPC   C1A27699  40.764  33.769   8.550
 6409POPC   D2A27700  40.822  33.775   8.250
 6409POPC   C3A27701  40.821  33.761   7.950
 6409POPC   C4A27702  40.757  33.830   7.650
 6409POPC   C1B27703  40.904  34.024   8.550
 6409POPC   C2B27704  40.920  33.946   8.250
 6409POPC   C3B27705  40.958  33.984   7.950
 6409POPC   C4B27706  40.903  33.996   7.650
 6410POPC   NC327707  13.636  22.888   9.450
 6410POPC   PO427708  13.624  22.963   9.150
 6410POPC   GL127709  13.650  22.923   8.850
 6410POPC   GL227710  13.570  22.872   8.850
 6410POPC   C1A27711  13.655  22.893   8.550
 6410POPC   D2A27712  13.663  22.928   8.250
 6410POPC   C3A27713  13.589  22.971   7.950
 6410POPC   C4A27714  13.586  22.902   7.650
 6410POPC   C1B27715  13.434  22.750   8.550
 6410POPC   C2B27716  13.499  22.761   8.250
 6410POPC   C3B27717  13.434  22.718   7.950
 6410POPC   C4B27718  13.518  22.734   7.650
 6411POPC   NC327719  32.227  34.620   9.450
 6411POPC   PO427720  32.263  34.544   9.150
 6411POPC   GL127721  32.246  34.622   8.850
 6411POPC   GL227722  32.336  34.662   8.850
 6411POPC   C1A27723  32.276  34.594   8.550
 6411POPC   D2A27724  32.279  34.569   8.250
 6411POPC   C3A27725  32.220  34.602   7.950
 6411POPC   C4A27726  32.276  34.567   7.650
 6411POPC   C1B27727  32.358  34.844   8.550
 6411POPC   C2B27728  32.384  34.844   8.250
 6411POPC   C3B27729  32.316  34.782   7.950
 6411POPC   C4B27730  32.379  34.843   7.650
 6412POPC   NC327731  12.029  19.047   9.450
 6412POPC   PO427732  12.046  19.072   9.150
 6412POPC   GL127733  12.031  19.086   8.850
 6412POPC   GL227734  12.140  19.016   8.850
 6412POPC   C1A27735  12.082  19.047   8.550
 6412POPC   D2A27736  12.074  19.046   8.250
 6412POPC   C3A27737  12.096  19.014   7.950
 6412POPC   C4A27738  12.068  19.010   7.650
 6412POPC   C1B27739  12.252  18.944   8.550
 6412POPC   C2B27740  12.310  18.959   8.250
 6412POPC   C3B27741  12.294  18.898   7.950
 6412POPC   C4B27742  12.306  18.944   7.650
 6413POPC   NC327743  15.195  19.851   9.450
 6413POPC   PO427744  15.170  19.876   9.150
 6413POPC   GL127745  15.145  19.831   8.850
 6413POPC   GL227746  15.083  19.757   8.850
 6413POPC   C1A27747  15.199  19.796   8.550
 6413POPC   D2A27748  15.204  19.811   8.250
 6413POPC   C3A27749  15.182  19.815   7.950
 6413POPC   C4A27750  15.157  19.826   7.650
 6413POPC   C1B27751  15.038  19.627   8.550
 6413POPC   C2B27752  14.964  19.666   8.250
 6413POPC   C3B27753  15.046  19.617   7.950
 6413POPC   C4B27754  15.056  19.670   7.650
 6414POPC   NC327755  43.112   9.756   9.450
 6414POPC   PO427756  43.089   9.741   9.150
 6414POPC   GL127757  43.140   9.770   8.850
 6414POPC   GL227758  43.221   9.635   8.850
 6414POPC   C1A27759  43.133   9.757   8.550
 6414POPC   D2A27760  43.117   9.709   8.250
 6414POPC   C3A27761  43.121   9.785   7.950
 6414POPC   C4A27762  43.112   9.733   7.650
 6414POPC   C1B27763  43.255   9.612   8.550
 6414POPC   C2B27764  43.315   9.540   8.250
 6414POPC   C3B27765  43.305   9.565   7.950
 6414POPC   C4B27766  43.268   9.546   7.650
 6415POPC   NC327767   0.416   5.103   9.450
 6415POPC   PO427768   0.390   5.122   9.150
 6415POPC   GL127769   0.453   5.103   8.850
 6415POPC   GL227770   0.381   4.976   8.850
 6415POPC   C1A27771   0.402   5.044   8.550
 6415POPC   D2A27772   0.400   5.077   8.250
 6415POPC   C3A27773   0.391   5.128   7.950
 6415POPC   C4A27774   0.442   5.141   7.650
 6415POPC   C1B27775   0.337   4.895   8.550
 6415POPC   C2B27776   0.320   4.822   8.250
 6415POPC   C3B27777   0.319   4.835   7.950
 6415POPC   C4B27778   0.385   4.818   7.650
 6416POPC   NC327779   6.611  19.013   9.450
 6416POPC   PO427780   6.693  19.057   9.150
 6416POPC   GL127781   6.621  19.083   8.850
 6416POPC   GL227782   6.669  18.983   8.850
 6416POPC   C1A27783   6.684  19.048   8.550
 6416POPC   D2A27784   6.634  19.022   8.250
 6416POPC   C3A27785   6.649  19.106   7.950
 6416POPC   C4A27786   6.655  19.051   7.650
 6416POPC   C1B27787   6.778  18.853   8.550
 6416POPC   C2B27788   6.790  18.827   8.250
 6416POPC   C3B27789   6.805  18.874   7.950
 6416POPC   C4B27790   6.789  18.832   7.650
 6417POPC   NC327791  40.045   7.378   9.450
 6417POPC   PO427792  39.969   7.470   9.150
 6417POPC   GL127793  39.958   7.451   8.850
 6417POPC   GL227794  40.039   7.289   8.850
 6417POPC   C1A27795  40.028   7.398   8.550
 6417POPC   D2A27796  40.052   7.384   8.250
 6417POPC   C3A27797  40.044   7.468   7.950
 6417POPC   C4A27798  39.994   7.396   7.650
 6417POPC   C1B27799  40.024   7.198   8.550
 6417POPC   C2B27800  40.035   7.168   8.250
 6417POPC   C3B27801  40.014   7.196   7.950
 6417POPC   C4B27802  39.982   7.182   7.650
 6418POPC   NC327803  23.706  40.009   9.450
 6418POPC   PO427804  23.687  40.040   9.150
 6418POPC   GL127805  23.680  39.994   8.850
 6418POPC   GL227806  23.787  40.148   8.850
 6418POPC   C1A27807  23.717  40.021   8.550
 6418POPC   D2A27808  23.673  39.985   8.250
 6418POPC   C3A27809  23.742  40.012   7.950
 6418POPC   C4A27810  23.695  40.011   7.650
 6418POPC   C1B27811  23.851  40.279   8.550
 6418POPC   C2B27812  23.778  40.269   8.250
 6418POPC   C3B27813  23.846  40.276   7.950
 6418POPC   C4B27814  23.823  40.225   7.650
 6419POPC   NC327815  31.490  15.183   9.450
 6419POPC   PO427816  31.482  15.192   9.150
 6419POPC   GL127817  31.447  15.130   8.850
 6419POPC   GL227818  31.390  15.210   8.850
 6419POPC   C1A27819  31.440  15.201   8.550
 6419POPC   D2A27820  31.492  15.201   8.250
 6419POPC   C3A27821  31.425  15.173   7.950
 6419POPC   C4A27822  31.423  15.226   7.650
 6419POPC   C1B27823  31.205  15.186   8.550
 6419POPC   C2B27824  31.217  15.236   8.250
 6419POPC   C3B27825  31.191  15.227   7.950
 6419POPC   C4B27826  31.220  15.206   7.650
 6420POPC   NC327827  31.483  17.549   9.450
 6420POPC   PO427828  31.474  17.475   9.150
 6420POPC   GL127829  31.493  17.518   8.850
 6420POPC   GL227830  31.484  17.626   8.850
 6420POPC   C1A27831  31.498  17.485   8.550
 6420POPC   D2A27832  31.428  17.557   8.250
 6420POPC   C3A27833  31.518  17.509   7.950
 6420POPC   C4A27834  31.504  17.538   7.650
 6420POPC   C1B27835  31.485  17.741   8.550
 6420POPC   C2B27836  31.489  17.718   8.250
 6420POPC   C3B27837  31.480  17.740   7.950
 6420POPC   C4B27838  31.490  17.776   7.650
 6421POPC   NC327839   2.802  18.330   9.450
 6421POPC   PO427840   2.753  18.247   9.150
 6421POPC   GL127841   2.790  18.330   8.850
 6421POPC   GL227842   2.612  18.206   8.850
 6421POPC   C1A27843   2.727  18.306   8.550
 6421POPC   D2A27844   2.771  18.312   8.250
 6421POPC   C3A27845   2.780  18.234   7.950
 6421POPC   C4A27846   2.745  18.301   7.650
 6421POPC   C1B27847   2.533  18.147   8.550
 6421POPC   C2B27848   2.517  18.212   8.250
 6421POPC   C3B27849   2.555  18.209   7.950
 6421POPC   C4B27850   2.505  18.231   7.650
 6422POPC   NC327851  42.290   5.137   9.450
 6422POPC   PO427852  42.287   5.085   9.150
 6422POPC   GL127853  42.352   5.072   8.850
 6422POPC   GL227854  42.416   5.130   8.850
 6422POPC   C1A27855  42.317   5.116   8.550
 6422POPC   D2A27856  42.372   5.049   8.250
 6422POPC   C3A27857  42.315   5.120   7.950
 6422POPC   C4A27858  42.335   5.093   7.650
 6422POPC   C1B27859  42.548   5.154   8.550
 6422POPC   C2B27860  42.578   5.122   8.250
 6422POPC   C3B27861  42.578   5.121   7.950
 6422POPC   C4B27862  42.523   5.168   7.650
 6423POPC   NC327863  25.250  36.138   9.450
 6423POPC   PO427864  25.227  36.166   9.150
 6423POPC   GL127865  25.218  36.148   8.850
 6423POPC   GL227866  25.356  35.991   8.850
 6423POPC   C1A27867  25.245  36.147   8.550
 6423POPC   D2A27868  25.240  36.171   8.250
 6423POPC   C3A27869  25.258  36.146   7.950
 6423POPC   C4A27870  25.283  36.099   7.650
 6423POPC   C1B27871  25.348  35.940   8.550
 6423POPC   C2B27872  25.331  35.917   8.250
 6423POPC   C3B27873  25.372  35.850   7.950
 6423POPC   C4B27874  25.323  35.905   7.650
 6424POPC   NC327875  29.959  25.314   9.450
 6424POPC   PO427876  29.875  25.306   9.150
 6424POPC   GL127877  29.872  25.254   8.850
 6424POPC   GL227878  29.863  25.425   8.850
 6424POPC   C1A27879  29.919  25.271   8.550
 6424POPC   D2A27880  29.932  25.245   8.250
 6424POPC   C3A27881  29.956  25.291   7.950
 6424POPC   C4A27882  29.927  25.294   7.650
 6424POPC   C1B27883  29.817  25.519   8.550
 6424POPC   C2B27884  29.825  25.482   8.250
 6424POPC   C3B27885  29.891  25.464   7.950
 6424POPC   C4B27886  29.831  25.505   7.650
 6425POPC   NC327887  42.358  18.312   9.450
 6425POPC   PO427888  42.312  18.251   9.150
 6425POPC   GL127889  42.320  18.267   8.850
 6425POPC   GL227890  42.219  18.252   8.850
 6425POPC   C1A27891  42.380  18.317   8.550
 6425POPC   D2A27892  42.334  18.287   8.250
 6425POPC   C3A27893  42.374  18.304   7.950
 6425POPC   C4A27894  42.331  18.282   7.650
 6425POPC   C1B27895  42.096  18.188   8.550
 6425POPC   C2B27896  42.104  18.119   8.250
 6425POPC   C3B27897  42.147  18.179   7.950
 6425POPC   C4B27898  42.130  18.113   7.650
 6426POPC   NC327899  20.655   9.749   9.450
 6426POPC   PO427900  20.568   9.727   9.150
 6426POPC   GL127901  20.562   9.763   8.850
 6426POPC   GL227902  20.587   9.888   8.850
 6426POPC   C1A27903  20.657   9.796   8.550
 6426POPC   D2A27904  20.655   9.791   8.250
 6426POPC   C3A27905  20.656   9.780   7.950
 6426POPC   C4A27906  20.650   9.791   7.650
 6426POPC   C1B27907  20.524   9.969   8.550
 6426POPC   C2B27908  20.512   9.986   8.250
 6426POPC   C3B27909  20.541   9.974   7.950
 6426POPC   C4B27910  20.484   9.930   7.650
 6427POPC   NC327911  29.933  36.898   9.450
 6427POPC   PO427912  29.948  36.880   9.150
 6427POPC   GL127913  29.902  36.906   8.850
 6427POPC   GL227914  29.915  36.741   8.850
 6427POPC   C1A27915  29.888  36.935   8.550
 6427POPC   D2A27916  29.888  36.859   8.250
 6427POPC   C3A27917  29.931  36.894   7.950
 6427POPC   C4A27918  29.942  36.947   7.650
 6427POPC   C1B27919  30.004  36.709   8.550
 6427POPC   C2B27920  30.015  36.714   8.250
 6427POPC   C3B27921  29.967  36.645   7.950
 6427POPC   C4B27922  29.979  36.675   7.650
 6428POPC   NC327923   8.954  29.925   9.450
 6428POPC   PO427924   8.945  29.879   9.150
 6428POPC   GL127925   8.960  29.919   8.850
 6428POPC   GL227926   9.056  29.833   8.850
 6428POPC   C1A27927   8.958  29.902   8.550
 6428POPC   D2A27928   9.005  29.899   8.250
 6428POPC   C3A27929   8.932  29.944   7.950
 6428POPC   C4A27930   8.940  29.893   7.650
 6428POPC   C1B27931   9.166  29.695   8.550
 6428POPC   C2B27932   9.149  29.737   8.250
 6428POPC   C3B27933   9.188  29.735   7.950
 6428POPC   C4B27934   9.176  29.697   7.650
 6429POPC   NC327935  38.490   7.385   9.450
 6429POPC   PO427936  38.409   7.403   9.150
 6429POPC   GL127937  38.445   7.382   8.850
 6429POPC   GL227938  38.287   7.436   8.850
 6429POPC   C1A27939  38.467   7.394   8.550
 6429POPC   D2A27940  38.444   7.446   8.250
 6429POPC   C3A27941  38.496   7.374   7.950
 6429POPC   C4A27942  38.408   7.438   7.650
 6429POPC   C1B27943  38.201   7.387   8.550
 6429POPC   C2B27944  38.173   7.450   8.250
 6429POPC   C3B27945  38.173   7.440   7.950
 6429POPC   C4B27946  38.169   7.436   7.650
 6430POPC   NC327947  31.485  12.069   9.450
 6430POPC   PO427948  31.432  12.121   9.150
 6430POPC   GL127949  31.450  12.093   8.850
 6430POPC   GL227950  31.517  11.956   8.850
 6430POPC   C1A27951  31.439  12.083   8.550
 6430POPC   D2A27952  31.459  12.051   8.250
 6430POPC   C3A27953  31.511  12.061   7.950
 6430POPC   C4A27954  31.521  12.040   7.650
 6430POPC   C1B27955  31.500  11.796   8.550
 6430POPC   C2B27956  31.535  11.837   8.250
 6430POPC   C3B27957  31.470  11.834   7.950
 6430POPC   C4B27958  31.508  11.848   7.650
 6431POPC   NC327959  20.612  23.679   9.450
 6431POPC   PO427960  20.628  23.753   9.150
 6431POPC   GL127961  20.623  23.727   8.850
 6431POPC   GL227962  20.590  23.810   8.850
 6431POPC   C1A27963  20.638  23.718   8.550
 6431POPC   D2A27964  20.620  23.686   8.250
 6431POPC   C3A27965  20.655  23.680   7.950
 6431POPC   C4A27966  20.563  23.763   7.650
 6431POPC   C1B27967  20.644  23.919   8.550
 6431POPC   C2B27968  20.674  23.958   8.250
 6431POPC   C3B27969  20.593  23.979   7.950
 6431POPC   C4B27970  20.633  23.967   7.650
 6432POPC   NC327971  33.837  12.069   9.450
 6432POPC   PO427972  33.818  12.107   9.150
 6432POPC   GL127973  33.753  12.054   8.850
 6432POPC   GL227974  33.714  11.958   8.850
 6432POPC   C1A27975  33.814  12.122   8.550
 6432POPC   D2A27976  33.777  12.059   8.250
 6432POPC   C3A27977  33.821  12.042   7.950
 6432POPC   C4A27978  33.798  12.065   7.650
 6432POPC   C1B27979  33.616  11.892   8.550
 6432POPC   C2B27980  33.603  11.900   8.250
 6432POPC   C3B27981  33.643  11.901   7.950
 6432POPC   C4B27982  33.648  11.881   7.650
 6433POPC   NC327983  29.107   9.777   9.450
 6433POPC   PO427984  29.123   9.761   9.150
 6433POPC   GL127985  29.125   9.766   8.850
 6433POPC   GL227986  29.112   9.887   8.850
 6433POPC   C1A27987  29.110   9.744   8.550
 6433POPC   D2A27988  29.150   9.740   8.250
 6433POPC   C3A27989  29.181   9.726   7.950
 6433POPC   C4A27990  29.158   9.742   7.650
 6433POPC   C1B27991  29.025   9.996   8.550
 6433POPC   C2B27992  29.026   9.951   8.250
 6433POPC   C3B27993  29.061   9.988   7.950
 6433POPC   C4B27994  28.987  10.007   7.650
 6434POPC   NC327995  40.779  24.465   9.450
 6434POPC   PO427996  40.809  24.464   9.150
 6434POPC   GL127997  40.806  24.448   8.850
 6434POPC   GL227998  40.731  24.590   8.850
 6434POPC   C1A27999  40.813  24.514   8.550
 6434POPC   D2A28000  40.746  24.478   8.250
 6434POPC   C3A28001  40.801  24.496   7.950
 6434POPC   C4A28002  40.826  24.481   7.650
 6434POPC   C1B28003  40.762  24.784   8.550
 6434POPC   C2B28004  40.778  24.694   8.250
 6434POPC   C3B28005  40.779  24.787   7.950
 6434POPC   C4B28006  40.761  24.768   7.650
 6435POPC   NC328007  43.886  19.864   9.450
 6435POPC   PO428008  43.865  19.832   9.150
 6435POPC   GL128009  43.844  19.847   8.850
 6435POPC   GL228010  43.762  19.815   8.850
 6435POPC   C1A28011  43.856  19.829   8.550
 6435POPC   D2A28012  43.925  19.797   8.250
 6435POPC   C3A28013  43.923  19.795   7.950
 6435POPC   C4A28014  43.915  19.831   7.650
 6435POPC   C1B28015  43.622  19.692   8.550
 6435POPC   C2B28016  43.703  19.714   8.250
 6435POPC   C3B28017  43.616  19.745   7.950
 6435POPC   C4B28018  43.696  19.696   7.650
 6436POPC   NC328019  36.170   7.441   9.450
 6436POPC   PO428020  36.130   7.383   9.150
 6436POPC   GL128021  36.168   7.431   8.850
 6436POPC   GL228022  36.009   7.494   8.850
 6436POPC   C1A28023  36.172   7.468   8.550
 6436POPC   D2A28024  36.099   7.458   8.250
 6436POPC   C3A28025  36.176   7.408   7.950
 6436POPC   C4A28026  36.147   7.378   7.650
 6436POPC   C1B28027  36.003   7.563   8.550
 6436POPC   C2B28028  35.917   7.589   8.250
 6436POPC   C3B28029  35.945   7.617   7.950
 6436POPC   C4B28030  35.930   7.606   7.650
 6437POPC   NC328031  33.814  15.178   9.450
 6437POPC   PO428032  33.760  15.195   9.150
 6437POPC   GL128033  33.776  15.228   8.850
 6437POPC   GL228034  33.686  15.123   8.850
 6437POPC   C1A28035  33.776  15.217   8.550
 6437POPC   D2A28036  33.791  15.182   8.250
 6437POPC   C3A28037  33.753  15.178   7.950
 6437POPC   C4A28038  33.802  15.176   7.650
 6437POPC   C1B28039  33.615  15.043   8.550
 6437POPC   C2B28040  33.579  15.056   8.250
 6437POPC   C3B28041  33.614  15.078   7.950
 6437POPC   C4B28042  33.575  15.063   7.650
 6438POPC   NC328043   8.982  36.086   9.450
 6438POPC   PO428044   8.966  36.092   9.150
 6438POPC   GL128045   8.929  36.122   8.850
 6438POPC   GL228046   9.117  36.064   8.850
 6438POPC   C1A28047   8.964  36.120   8.550
 6438POPC   D2A28048   8.976  36.142   8.250
 6438POPC   C3A28049   9.006  36.142   7.950
 6438POPC   C4A28050   8.938  36.101   7.650
 6438POPC   C1B28051   9.210  36.019   8.550
 6438POPC   C2B28052   9.261  36.112   8.250
 6438POPC   C3B28053   9.208  36.107   7.950
 6438POPC   C4B28054   9.243  36.036   7.650
 6439POPC   NC328055   6.661  42.327   9.450
 6439POPC   PO428056   6.620  42.342   9.150
 6439POPC   GL128057   6.676  42.309   8.850
 6439POPC   GL228058   6.795  42.439   8.850
 6439POPC   C1A28059   6.654  42.355   8.550
 6439POPC   D2A28060   6.657  42.296   8.250
 6439POPC   C3A28061   6.689  42.344   7.950
 6439POPC   C4A28062   6.647  42.312   7.650
 6439POPC   C1B28063   6.836  42.441   8.550
 6439POPC   C2B28064   6.873  42.489   8.250
 6439POPC   C3B28065   6.814  42.490   7.950
 6439POPC   C4B28066   6.878  42.455   7.650
 6440POPC   NC328067  43.924  30.743   9.450
 6440POPC   PO428068  43.907  30.647   9.150
 6440POPC   GL128069  43.889  30.739   8.850
 6440POPC   GL228070  43.974  30.665   8.850
 6440POPC   C1A28071  43.910  30.687   8.550
 6440POPC   D2A28072  43.864  30.670   8.250
 6440POPC   C3A28073  43.874  30.663   7.950
 6440POPC   C4A28074  43.864  30.713   7.650
 6440POPC   C1B28075  44.107  30.716   8.550
 6440POPC   C2B28076  44.099  30.720   8.250
 6440POPC   C3B28077  44.102  30.755   7.950
 6440POPC   C4B28078  44.103  30.724   7.650
 6441POPC   NC328079  31.448   2.785   9.450
 6441POPC   PO428080  31.518   2.723   9.150
 6441POPC   GL128081  31.442   2.761   8.850
 6441POPC   GL228082  31.607   2.804   8.850
 6441POPC   C1A28083  31.429   2.722   8.550
 6441POPC   D2A28084  31.512   2.769   8.250
 6441POPC   C3A28085  31.459   2.769   7.950
 6441POPC   C4A28086  31.466   2.805   7.650
 6441POPC   C1B28087  31.700   2.909   8.550
 6441POPC   C2B28088  31.677   2.902   8.250
 6441POPC   C3B28089  31.693   2.856   7.950
 6441POPC   C4B28090  31.674   2.922   7.650
 6442POPC   NC328091   1.244  15.926   9.450
 6442POPC   PO428092   1.223  15.930   9.150
 6442POPC   GL128093   1.222  15.954   8.850
 6442POPC   GL228094   1.139  15.888   8.850
 6442POPC   C1A28095   1.225  15.907   8.550
 6442POPC   D2A28096   1.167  15.914   8.250
 6442POPC   C3A28097   1.186  15.929   7.950
 6442POPC   C4A28098   1.232  15.930   7.650
 6442POPC   C1B28099   1.084  15.755   8.550
 6442POPC   C2B28100   1.144  15.750   8.250
 6442POPC   C3B28101   1.150  15.747   7.950
 6442POPC   C4B28102   1.109  15.739   7.650
 6443POPC   NC328103  25.281  16.739   9.450
 6443POPC   PO428104  25.216  16.770   9.150
 6443POPC   GL128105  25.285  16.766   8.850
 6443POPC   GL228106  25.382  16.673   8.850
 6443POPC   C1A28107  25.222  16.695   8.550
 6443POPC   D2A28108  25.302  16.740   8.250
 6443POPC   C3A28109  25.294  16.702   7.950
 6443POPC   C4A28110  25.279  16.746   7.650
 6443POPC   C1B28111  25.442  16.609   8.550
 6443POPC   C2B28112  25.436  16.602   8.250
 6443POPC   C3B28113  25.428  16.573   7.950
 6443POPC   C4B28114  25.491  16.566   7.650
 6444POPC   NC328115  40.057  30.697   9.450
 6444POPC   PO428116  40.038  30.678   9.150
 6444POPC   GL128117  39.974  30.697   8.850
 6444POPC   GL228118  40.007  30.801   8.850
 6444POPC   C1A28119  40.050  30.727   8.550
 6444POPC   D2A28120  40.050  30.682   8.250
 6444POPC   C3A28121  39.986  30.663   7.950
 6444POPC   C4A28122  39.972  30.705   7.650
 6444POPC   C1B28123  40.017  30.961   8.550
 6444POPC   C2B28124  40.005  30.929   8.250
 6444POPC   C3B28125  40.029  30.904   7.950
 6444POPC   C4B28126  40.014  30.924   7.650
 6445POPC   NC328127   0.431  19.077   9.450
 6445POPC   PO428128   0.466  19.033   9.150
 6445POPC   GL128129   0.392  19.049   8.850
 6445POPC   GL228130   0.374  19.183   8.850
 6445POPC   C1A28131   0.432  19.102   8.550
 6445POPC   D2A28132   0.473  19.017   8.250
 6445POPC   C3A28133   0.412  19.081   7.950
 6445POPC   C4A28134   0.457  19.044   7.650
 6445POPC   C1B28135   0.355  19.283   8.550
 6445POPC   C2B28136   0.416  19.338   8.250
 6445POPC   C3B28137   0.352  19.296   7.950
 6445POPC   C4B28138   0.390  19.273   7.650
 6446POPC   NC328139   9.751  29.098   9.450
 6446POPC   PO428140   9.766  29.163   9.150
 6446POPC   GL128141   9.711  29.168   8.850
 6446POPC   GL228142   9.741  29.065   8.850
 6446POPC   C1A28143   9.730  29.119   8.550
 6446POPC   D2A28144   9.747  29.138   8.250
 6446POPC   C3A28145   9.794  29.125   7.950
 6446POPC   C4A28146   9.782  29.115   7.650
 6446POPC   C1B28147   9.635  28.924   8.550
 6446POPC   C2B28148   9.620  28.871   8.250
 6446POPC   C3B28149   9.620  28.957   7.950
 6446POPC   C4B28150   9.634  28.892   7.650
 6447POPC   NC328151  38.416  34.596   9.450
 6447POPC   PO428152  38.476  34.546   9.150
 6447POPC   GL128153  38.413  34.566   8.850
 6447POPC   GL228154  38.338  34.684   8.850
 6447POPC   C1A28155  38.437  34.530   8.550
 6447POPC   D2A28156  38.468  34.580   8.250
 6447POPC   C3A28157  38.419  34.560   7.950
 6447POPC   C4A28158  38.439  34.592   7.650
 6447POPC   C1B28159  38.300  34.779   8.550
 6447POPC   C2B28160  38.305  34.773   8.250
 6447POPC   C3B28161  38.248  34.775   7.950
 6447POPC   C4B28162  38.231  34.778   7.650
 6448POPC   NC328163  35.345  15.173   9.450
 6448POPC   PO428164  35.363  15.202   9.150
 6448POPC   GL128165  35.372  15.227   8.850
 6448POPC   GL228166  35.267  15.149   8.850
 6448POPC   C1A28167  35.333  15.157   8.550
 6448POPC   D2A28168  35.339  15.217   8.250
 6448POPC   C3A28169  35.320  15.155   7.950
 6448POPC   C4A28170  35.305  15.203   7.650
 6448POPC   C1B28171  35.103  15.171   8.550
 6448POPC   C2B28172  35.136  15.222   8.250
 6448POPC   C3B28173  35.086  15.227   7.950
 6448POPC   C4B28174  35.053  15.190   7.650
 6449POPC   NC328175  42.330   8.208   9.450
 6449POPC   PO428176  42.326   8.236   9.150
 6449POPC   GL128177  42.295   8.174   8.850
 6449POPC   GL228178  42.172   8.245   8.850
 6449POPC   C1A28179  42.329   8.211   8.550
 6449POPC   D2A28180  42.362   8.224   8.250
 6449POPC   C3A28181  42.350   8.165   7.950
 6449POPC   C4A28182  42.306   8.158   7.650
 6449POPC   C1B28183  42.093   8.325   8.550
 6449POPC   C2B28184  42.147   8.298   8.250
 6449POPC   C3B28185  42.092   8.300   7.950
 6449POPC   C4B28186  42.103   8.270   7.650
 6450POPC   NC328187  28.354  43.838   9.450
 6450POPC   PO428188  28.413  43.865   9.150
 6450POPC   GL128189  28.391  43.839   8.850
 6450POPC   GL228190  28.227  43.914   8.850
 6450POPC   C1A28191  28.359  43.874   8.550
 6450POPC   D2A28192  28.394  43.886   8.250
 6450POPC   C3A28193  28.364  43.925   7.950
 6450POPC   C4A28194  28.341  43.891   7.650
 6450POPC   C1B28195  28.154  44.000   8.550
 6450POPC   C2B28196  28.105  43.974   8.250
 6450POPC   C3B28197  28.152  44.012   7.950
 6450POPC   C4B28198  28.109  44.064   7.650
 6451POPC   NC328199  36.869  10.547   9.450
 6451POPC   PO428200  36.859  10.492   9.150
 6451POPC   GL128201  36.915  10.574   8.850
 6451POPC   GL228202  36.907  10.421   8.850
 6451POPC   C1A28203  36.925  10.543   8.550
 6451POPC   D2A28204  36.892  10.553   8.250
 6451POPC   C3A28205  36.876  10.489   7.950
 6451POPC   C4A28206  36.917  10.559   7.650
 6451POPC   C1B28207  36.859  10.254   8.550
 6451POPC   C2B28208  36.829  10.256   8.250
 6451POPC   C3B28209  36.834  10.288   7.950
 6451POPC   C4B28210  36.845  10.270   7.650
 6452POPC   NC328211  40.039  23.752   9.450
 6452POPC   PO428212  39.995  23.695   9.150
 6452POPC   GL128213  40.031  23.685   8.850
 6452POPC   GL228214  40.163  23.715   8.850
 6452POPC   C1A28215  40.015  23.680   8.550
 6452POPC   D2A28216  40.037  23.685   8.250
 6452POPC   C3A28217  39.998  23.706   7.950
 6452POPC   C4A28218  39.989  23.704   7.650
 6452POPC   C1B28219  40.294  23.742   8.550
 6452POPC   C2B28220  40.270  23.666   8.250
 6452POPC   C3B28221  40.227  23.736   7.950
 6452POPC   C4B28222  40.210  23.710   7.650
 6453POPC   NC328223  39.993  44.650   9.450
 6453POPC   PO428224  40.023  44.663   9.150
 6453POPC   GL128225  40.047  44.675   8.850
 6453POPC   GL228226  40.163  44.703   8.850
 6453POPC   C1A28227  40.033  44.640   8.550
 6453POPC   D2A28228  39.998  44.624   8.250
 6453POPC   C3A28229  39.969  44.710   7.950
 6453POPC   C4A28230  40.013  44.683   7.650
 6453POPC   C1B28231  40.224  44.639   8.550
 6453POPC   C2B28232  40.280  44.681   8.250
 6453POPC   C3B28233  40.302  44.644   7.950
 6453POPC   C4B28234  40.284  44.709   7.650
 6454POPC   NC328235  36.886  43.112   9.450
 6454POPC   PO428236  36.896  43.096   9.150
 6454POPC   GL128237  36.905  43.149   8.850
 6454POPC   GL228238  37.009  43.088   8.850
 6454POPC   C1A28239  36.929  43.101   8.550
 6454POPC   D2A28240  36.890  43.135   8.250
 6454POPC   C3A28241  36.878  43.062   7.950
 6454POPC   C4A28242  36.882  43.090   7.650
 6454POPC   C1B28243  37.154  42.950   8.550
 6454POPC   C2B28244  37.128  43.029   8.250
 6454POPC   C3B28245  37.152  42.948   7.950
 6454POPC   C4B28246  37.142  42.972   7.650
 6455POPC   NC328247  40.738  12.881   9.450
 6455POPC   PO428248  40.763  12.879   9.150
 6455POPC   GL128249  40.740  12.853   8.850
 6455POPC   GL228250  40.786  12.732   8.850
 6455POPC   C1A28251  40.801  12.804   8.550
 6455POPC   D2A28252  40.811  12.893   8.250
 6455POPC   C3A28253  40.772  12.807   7.950
 6455POPC   C4A28254  40.785  12.886   7.650
 6455POPC   C1B28255  40.847  12.560   8.550
 6455POPC   C2B28256  40.836  12.639   8.250
 6455POPC   C3B28257  40.794  12.655   7.950
 6455POPC   C4B28258  40.833  12.567   7.650
 6456POPC   NC328259  36.086  27.576   9.450
 6456POPC   PO428260  36.114  27.614   9.150
 6456POPC   GL128261  36.083  27.617   8.850
 6456POPC   GL228262  36.020  27.703   8.850
 6456POPC   C1A28263  36.123  27.624   8.550
 6456POPC   D2A28264  36.125  27.612   8.250
 6456POPC   C3A28265  36.089  27.624   7.950
 6456POPC   C4A28266  36.092  27.627   7.650
 6456POPC   C1B28267  35.969  27.769   8.550
 6456POPC   C2B28268  35.905  27.705   8.250
 6456POPC   C3B28269  35.969  27.744   7.950
 6456POPC   C4B28270  35.890  27.738   7.650
 6457POPC   NC328271  40.023   4.270   9.450
 6457POPC   PO428272  39.999   4.302   9.150
 6457POPC   GL128273  39.993   4.291   8.850
 6457POPC   GL228274  39.932   4.292   8.850
 6457POPC   C1A28275  40.000   4.296   8.550
 6457POPC   D2A28276  40.040   4.285   8.250
 6457POPC   C3A28277  39.996   4.281   7.950
 6457POPC   C4A28278  40.002   4.292   7.650
 6457POPC   C1B28279  39.746   4.257   8.550
 6457POPC   C2B28280  39.733   4.341   8.250
 6457POPC   C3B28281  39.798   4.274   7.950
 6457POPC   C4B28282  39.776   4.325   7.650
 6458POPC   NC328283   3.547  40.045   9.450
 6458POPC   PO428284   3.519  39.963   9.150
 6458POPC   GL128285   3.503  40.011   8.850
 6458POPC   GL228286   3.423  40.012   8.850
 6458POPC   C1A28287   3.516  40.007   8.550
 6458POPC   D2A28288   3.518  40.009   8.250
 6458POPC   C3A28289   3.496  40.028   7.950
 6458POPC   C4A28290   3.538  39.963   7.650
 6458POPC   C1B28291   3.325  40.047   8.550
 6458POPC   C2B28292   3.301  40.121   8.250
 6458POPC   C3B28293   3.308  40.081   7.950
 6458POPC   C4B28294   3.337  40.121   7.650
 6459POPC   NC328295  32.995  34.604   9.450
 6459POPC   PO428296  33.002  34.559   9.150
 6459POPC   GL128297  32.977  34.622   8.850
 6459POPC   GL228298  32.876  34.553   8.850
 6459POPC   C1A28299  32.998  34.550   8.550
 6459POPC   D2A28300  33.058  34.577   8.250
 6459POPC   C3A28301  33.046  34.611   7.950
 6459POPC   C4A28302  33.024  34.560   7.650
 6459POPC   C1B28303  32.759  34.507   8.550
 6459POPC   C2B28304  32.801  34.572   8.250
 6459POPC   C3B28305  32.744  34.514   7.950
 6459POPC   C4B28306  32.795  34.515   7.650
 6460POPC   NC328307  14.430   0.430   9.450
 6460POPC   PO428308  14.443   0.483   9.150
 6460POPC   GL128309  14.430   0.478   8.850
 6460POPC   GL228310  14.259   0.569   8.850
 6460POPC   C1A28311  14.443   0.477   8.550
 6460POPC   D2A28312  14.393   0.483   8.250
 6460POPC   C3A28313  14.357   0.468   7.950
 6460POPC   C4A28314  14.436   0.483   7.650
 6460POPC   C1B28315  14.237   0.619   8.550
 6460POPC   C2B28316  14.180   0.603   8.250
 6460POPC   C3B28317  14.234   0.561   7.950
 6460POPC   C4B28318  14.235   0.552   7.650
 6461POPC   NC328319  40.028  11.263   9.450
 6461POPC   PO428320  39.985  11.322   9.150
 6461POPC   GL128321  40.003  11.318   8.850
 6461POPC   GL228322  40.154  11.294   8.850
 6461POPC   C1A28323  40.004  11.264   8.550
 6461POPC   D2A28324  39.993  11.312   8.250
 6461POPC   C3A28325  39.982  11.295   7.950
 6461POPC   C4A28326  40.041  11.314   7.650
 6461POPC   C1B28327  40.235  11.311   8.550
 6461POPC   C2B28328  40.273  11.283   8.250
 6461POPC   C3B28329  40.225  11.237   7.950
 6461POPC   C4B28330  40.242  11.250   7.650
 6462POPC   NC328331  22.940  15.155   9.450
 6462POPC   PO428332  22.950  15.146   9.150
 6462POPC   GL128333  22.926  15.131   8.850
 6462POPC   GL228334  22.862  15.041   8.850
 6462POPC   C1A28335  22.895  15.182   8.550
 6462POPC   D2A28336  22.932  15.175   8.250
 6462POPC   C3A28337  22.981  15.137   7.950
 6462POPC   C4A28338  22.985  15.180   7.650
 6462POPC   C1B28339  22.839  14.947   8.550
 6462POPC   C2B28340  22.893  14.920   8.250
 6462POPC   C3B28341  22.818  14.940   7.950
 6462POPC   C4B28342  22.861  14.981   7.650
 6463POPC   NC328343  29.880   3.586   9.450
 6463POPC   PO428344  29.930   3.516   9.150
 6463POPC   GL128345  29.910   3.495   8.850
 6463POPC   GL228346  30.019   3.482   8.850
 6463POPC   C1A28347  29.958   3.574   8.550
 6463POPC   D2A28348  29.876   3.553   8.250
 6463POPC   C3A28349  29.912   3.588   7.950
 6463POPC   C4A28350  29.884   3.530   7.650
 6463POPC   C1B28351  30.174   3.429   8.550
 6463POPC   C2B28352  30.194   3.404   8.250
 6463POPC   C3B28353  30.163   3.484   7.950
 6463POPC   C4B28354  30.201   3.454   7.650
 6464POPC   NC328355  36.115  14.438   9.450
 6464POPC   PO428356  36.083  14.390   9.150
 6464POPC   GL128357  36.142  14.367   8.850
 6464POPC   GL228358  36.231  14.452   8.850
 6464POPC   C1A28359  36.168  14.411   8.550
 6464POPC   D2A28360  36.099  14.379   8.250
 6464POPC   C3A28361  36.085  14.396   7.950
 6464POPC   C4A28362  36.105  14.398   7.650
 6464POPC   C1B28363  36.407  14.489   8.550
 6464POPC   C2B28364  36.384  14.445   8.250
 6464POPC   C3B28365  36.357  14.496   7.950
 6464POPC   C4B28366  36.331  14.450   7.650
 6465POPC   NC328367  36.879  15.158   9.450
 6465POPC   PO428368  36.947  15.167   9.150
 6465POPC   GL128369  36.900  15.162   8.850
 6465POPC   GL228370  36.840  15.101   8.850
 6465POPC   C1A28371  36.948  15.227   8.550
 6465POPC   D2A28372  36.890  15.154   8.250
 6465POPC   C3A28373  36.876  15.170   7.950
 6465POPC   C4A28374  36.885  15.201   7.650
 6465POPC   C1B28375  36.808  14.914   8.550
 6465POPC   C2B28376  36.784  14.970   8.250
 6465POPC   C3B28377  36.824  14.905   7.950
 6465POPC   C4B28378  36.818  14.980   7.650
 6466POPC   NC328379   6.613  30.677   9.450
 6466POPC   PO428380   6.598  30.697   9.150
 6466POPC   GL128381   6.632  30.735   8.850
 6466POPC   GL228382   6.760  30.711   8.850
 6466POPC   C1A28383   6.639  30.689   8.550
 6466POPC   D2A28384   6.687  30.701   8.250
 6466POPC   C3A28385   6.630  30.718   7.950
 6466POPC   C4A28386   6.677  30.681   7.650
 6466POPC   C1B28387   6.898  30.697   8.550
 6466POPC   C2B28388   6.893  30.645   8.250
 6466POPC   C3B28389   6.856  30.650   7.950
 6466POPC   C4B28390   6.912  30.658   7.650
 6467POPC   NC328391  32.280  11.284   9.450
 6467POPC   PO428392  32.239  11.320   9.150
 6467POPC   GL128393  32.265  11.329   8.850
 6467POPC   GL228394  32.365  11.398   8.850
 6467POPC   C1A28395  32.201  11.273   8.550
 6467POPC   D2A28396  32.276  11.316   8.250
 6467POPC   C3A28397  32.245  11.307   7.950
 6467POPC   C4A28398  32.277  11.342   7.650
 6467POPC   C1B28399  32.439  11.371   8.550
 6467POPC   C2B28400  32.515  11.418   8.250
 6467POPC   C3B28401  32.476  11.414   7.950
 6467POPC   C4B28402  32.451  11.367   7.650
 6468POPC   NC328403   8.938  18.297   9.450
 6468POPC   PO428404   8.986  18.316   9.150
 6468POPC   GL128405   8.940  18.327   8.850
 6468POPC   GL228406   9.116  18.243   8.850
 6468POPC   C1A28407   8.986  18.317   8.550
 6468POPC   D2A28408   8.939  18.311   8.250
 6468POPC   C3A28409   9.020  18.295   7.950
 6468POPC   C4A28410   8.937  18.320   7.650
 6468POPC   C1B28411   9.165  18.159   8.550
 6468POPC   C2B28412   9.225  18.184   8.250
 6468POPC   C3B28413   9.153  18.145   7.950
 6468POPC   C4B28414   9.155  18.170   7.650
 6469POPC   NC328415  20.571  32.256   9.450
 6469POPC   PO428416  20.622  32.211   9.150
 6469POPC   GL128417  20.659  32.214   8.850
 6469POPC   GL228418  20.733  32.309   8.850
 6469POPC   C1A28419  20.605  32.242   8.550
 6469POPC   D2A28420  20.564  32.253   8.250
 6469POPC   C3A28421  20.624  32.226   7.950
 6469POPC   C4A28422  20.570  32.286   7.650
 6469POPC   C1B28423  20.882  32.304   8.550
 6469POPC   C2B28424  20.843  32.358   8.250
 6469POPC   C3B28425  20.830  32.328   7.950
 6469POPC   C4B28426  20.891  32.355   7.650
 6470POPC   NC328427  20.649   5.062   9.450
 6470POPC   PO428428  20.600   5.123   9.150
 6470POPC   GL128429  20.597   5.101   8.850
 6470POPC   GL228430  20.692   5.128   8.850
 6470POPC   C1A28431  20.562   5.107   8.550
 6470POPC   D2A28432  20.592   5.128   8.250
 6470POPC   C3A28433  20.562   5.079   7.950
 6470POPC   C4A28434  20.601   5.052   7.650
 6470POPC   C1B28435  20.812   5.217   8.550
 6470POPC   C2B28436  20.790   5.238   8.250
 6470POPC   C3B28437  20.849   5.205   7.950
 6470POPC   C4B28438  20.831   5.230   7.650
 6471POPC   NC328439  32.217  12.853   9.450
 6471POPC   PO428440  32.221  12.848   9.150
 6471POPC   GL128441  32.282  12.851   8.850
 6471POPC   GL228442  32.395  12.880   8.850
 6471POPC   C1A28443  32.223  12.850   8.550
 6471POPC   D2A28444  32.275  12.832   8.250
 6471POPC   C3A28445  32.231  12.847   7.950
 6471POPC   C4A28446  32.272  12.853   7.650
 6471POPC   C1B28447  32.501  13.042   8.550
 6471POPC   C2B28448  32.499  13.024   8.250
 6471POPC   C3B28449  32.433  13.000   7.950
 6471POPC   C4B28450  32.483  12.988   7.650
 6472POPC   NC328451   5.078  40.816   9.450
 6472POPC   PO428452   5.097  40.754   9.150
 6472POPC   GL128453   5.107  40.778   8.850
 6472POPC   GL228454   5.165  40.698   8.850
 6472POPC   C1A28455   5.085  40.776   8.550
 6472POPC   D2A28456   5.109  40.828   8.250
 6472POPC   C3A28457   5.127  40.825   7.950
 6472POPC   C4A28458   5.099  40.740   7.650
 6472POPC   C1B28459   5.327  40.721   8.550
 6472POPC   C2B28460   5.338  40.734   8.250
 6472POPC   C3B28461   5.329  40.725   7.950
 6472POPC   C4B28462   5.362  40.663   7.650
 6473POPC   NC328463  20.632  30.698   9.450
 6473POPC   PO428464  20.561  30.735   9.150
 6473POPC   GL128465  20.629  30.723   8.850
 6473POPC   GL228466  20.687  30.840   8.850
 6473POPC   C1A28467  20.609  30.746   8.550
 6473POPC   D2A28468  20.594  30.724   8.250
 6473POPC   C3A28469  20.584  30.727   7.950
 6473POPC   C4A28470  20.595  30.700   7.650
 6473POPC   C1B28471  20.682  30.929   8.550
 6473POPC   C2B28472  20.755  30.874   8.250
 6473POPC   C3B28473  20.738  30.932   7.950
 6473POPC   C4B28474  20.712  30.953   7.650
 6474POPC   NC328475  22.921   8.182   9.450
 6474POPC   PO428476  22.942   8.223   9.150
 6474POPC   GL128477  22.908   8.235   8.850
 6474POPC   GL228478  22.846   8.293   8.850
 6474POPC   C1A28479  22.893   8.225   8.550
 6474POPC   D2A28480  22.950   8.153   8.250
 6474POPC   C3A28481  22.970   8.147   7.950
 6474POPC   C4A28482  22.960   8.186   7.650
 6474POPC   C1B28483  22.803   8.435   8.550
 6474POPC   C2B28484  22.789   8.444   8.250
 6474POPC   C3B28485  22.781   8.442   7.950
 6474POPC   C4B28486  22.834   8.377   7.650
 6475POPC   NC328487   5.112  28.376   9.450
 6475POPC   PO428488   5.129  28.366   9.150
 6475POPC   GL128489   5.116  28.325   8.850
 6475POPC   GL228490   5.110  28.503   8.850
 6475POPC   C1A28491   5.138  28.366   8.550
 6475POPC   D2A28492   5.129  28.351   8.250
 6475POPC   C3A28493   5.106  28.323   7.950
 6475POPC   C4A28494   5.092  28.391   7.650
 6475POPC   C1B28495   5.070  28.651   8.550
 6475POPC   C2B28496   4.997  28.655   8.250
 6475POPC   C3B28497   4.995  28.653   7.950
 6475POPC   C4B28498   5.009  28.621   7.650
 6476POPC   NC328499  36.952  34.553   9.450
 6476POPC   PO428500  36.902  34.553   9.150
 6476POPC   GL128501  36.884  34.552   8.850
 6476POPC   GL228502  36.936  34.664   8.850
 6476POPC   C1A28503  36.869  34.536   8.550
 6476POPC   D2A28504  36.895  34.614   8.250
 6476POPC   C3A28505  36.948  34.539   7.950
 6476POPC   C4A28506  36.884  34.557   7.650
 6476POPC   C1B28507  36.969  34.833   8.550
 6476POPC   C2B28508  36.995  34.839   8.250
 6476POPC   C3B28509  37.001  34.820   7.950
 6476POPC   C4B28510  37.008  34.771   7.650
 6477POPC   NC328511  43.870  25.232   9.450
 6477POPC   PO428512  43.871  25.282   9.150
 6477POPC   GL128513  43.841  25.315   8.850
 6477POPC   GL228514  43.855  25.184   8.850
 6477POPC   C1A28515  43.893  25.295   8.550
 6477POPC   D2A28516  43.932  25.303   8.250
 6477POPC   C3A28517  43.889  25.261   7.950
 6477POPC   C4A28518  43.876  25.266   7.650
 6477POPC   C1B28519  43.811  25.007   8.550
 6477POPC   C2B28520  43.851  24.991   8.250
 6477POPC   C3B28521  43.845  25.021   7.950
 6477POPC   C4B28522  43.794  24.978   7.650
 6478POPC   NC328523  22.952  22.152   9.450
 6478POPC   PO428524  22.912  22.165   9.150
 6478POPC   GL128525  22.895  22.128   8.850
 6478POPC   GL228526  23.027  22.290   8.850
 6478POPC   C1A28527  22.893  22.163   8.550
 6478POPC   D2A28528  22.962  22.162   8.250
 6478POPC   C3A28529  22.906  22.194   7.950
 6478POPC   C4A28530  22.949  22.118   7.650
 6478POPC   C1B28531  23.106  22.317   8.550
 6478POPC   C2B28532  23.086  22.367   8.250
 6478POPC   C3B28533  23.092  22.332   7.950
 6478POPC   C4B28534  23.114  22.278   7.650
 6479POPC   NC328535  39.198  25.227   9.450
 6479POPC   PO428536  39.200  25.268   9.150
 6479POPC   GL128537  39.246  25.308   8.850
 6479POPC   GL228538  39.268  25.102   8.850
 6479POPC   C1A28539  39.201  25.231   8.550
 6479POPC   D2A28540  39.239  25.260   8.250
 6479POPC   C3A28541  39.182  25.223   7.950
 6479POPC   C4A28542  39.199  25.276   7.650
 6479POPC   C1B28543  39.198  24.999   8.550
 6479POPC   C2B28544  39.198  25.039   8.250
 6479POPC   C3B28545  39.205  24.979   7.950
 6479POPC   C4B28546  39.233  25.028   7.650
 6480POPC   NC328547   0.402  42.334   9.450
 6480POPC   PO428548   0.453  42.326   9.150
 6480POPC   GL128549   0.442  42.304   8.850
 6480POPC   GL228550   0.462  42.439   8.850
 6480POPC   C1A28551   0.439  42.365   8.550
 6480POPC   D2A28552   0.458  42.348   8.250
 6480POPC   C3A28553   0.453  42.368   7.950
 6480POPC   C4A28554   0.414  42.367   7.650
 6480POPC   C1B28555   0.433  42.612   8.550
 6480POPC   C2B28556   0.431  42.575   8.250
 6480POPC   C3B28557   0.442  42.581   7.950
 6480POPC   C4B28558   0.479  42.574   7.650
 6481POPC   NC328559   4.317   6.638   9.450
 6481POPC   PO428560   4.348   6.682   9.150
 6481POPC   GL128561   4.293   6.607   8.850
 6481POPC   GL228562   4.179   6.596   8.850
 6481POPC   C1A28563   4.353   6.597   8.550
 6481POPC   D2A28564   4.305   6.652   8.250
 6481POPC   C3A28565   4.366   6.621   7.950
 6481POPC   C4A28566   4.329   6.671   7.650
 6481POPC   C1B28567   4.131   6.494   8.550
 6481POPC   C2B28568   4.050   6.540   8.250
 6481POPC   C3B28569   4.085   6.547   7.950
 6481POPC   C4B28570   4.126   6.522   7.650
 6482POPC   NC328571   2.009  29.883   9.450
 6482POPC   PO428572   1.947  29.954   9.150
 6482POPC   GL128573   1.997  29.875   8.850
 6482POPC   GL228574   2.083  30.004   8.850
 6482POPC   C1A28575   2.022  29.893   8.550
 6482POPC   D2A28576   2.037  29.948   8.250
 6482POPC   C3A28577   1.945  29.946   7.950
 6482POPC   C4A28578   1.989  29.890   7.650
 6482POPC   C1B28579   2.181  30.058   8.550
 6482POPC   C2B28580   2.237  30.065   8.250
 6482POPC   C3B28581   2.169  30.050   7.950
 6482POPC   C4B28582   2.214  30.021   7.650
 6483POPC   NC328583  39.261   5.119   9.450
 6483POPC   PO428584  39.259   5.135   9.150
 6483POPC   GL128585  39.250   5.097   8.850
 6483POPC   GL228586  39.396   5.064   8.850
 6483POPC   C1A28587  39.222   5.143   8.550
 6483POPC   D2A28588  39.184   5.050   8.250
 6483POPC   C3A28589  39.252   5.105   7.950
 6483POPC   C4A28590  39.182   5.113   7.650
 6483POPC   C1B28591  39.439   4.996   8.550
 6483POPC   C2B28592  39.470   5.058   8.250
 6483POPC   C3B28593  39.459   4.987   7.950
 6483POPC   C4B28594  39.436   5.014   7.650
 6484POPC   NC328595   5.132  19.080   9.450
 6484POPC   PO428596   5.115  19.037   9.150
 6484POPC   GL128597   5.076  19.044   8.850
 6484POPC   GL228598   5.005  19.140   8.850
 6484POPC   C1A28599   5.117  19.091   8.550
 6484POPC   D2A28600   5.069  19.016   8.250
 6484POPC   C3A28601   5.065  19.090   7.950
 6484POPC   C4A28602   5.078  19.009   7.650
 6484POPC   C1B28603   5.044  19.283   8.550
 6484POPC   C2B28604   5.014  19.250   8.250
 6484POPC   C3B28605   4.951  19.310   7.950
 6484POPC   C4B28606   4.994  19.258   7.650
 6485POPC   NC328607  25.229  41.514   9.450
 6485POPC   PO428608  25.248  41.605   9.150
 6485POPC   GL128609  25.266  41.570   8.850
 6485POPC   GL228610  25.258  41.705   8.850
 6485POPC   C1A28611  25.271  41.556   8.550
 6485POPC   D2A28612  25.295  41.542   8.250
 6485POPC   C3A28613  25.265  41.525   7.950
 6485POPC   C4A28614  25.258  41.525   7.650
 6485POPC   C1B28615  25.270  41.794   8.550
 6485POPC   C2B28616  25.291  41.849   8.250
 6485POPC   C3B28617  25.272  41.803   7.950
 6485POPC   C4B28618  25.322  41.788   7.650
 6486POPC   NC328619  25.314  25.267   9.450
 6486POPC   PO428620  25.224  25.254   9.150
 6486POPC   GL128621  25.232  25.295   8.850
 6486POPC   GL228622  25.400  25.278   8.850
 6486POPC   C1A28623  25.270  25.313   8.550
 6486POPC   D2A28624  25.315  25.312   8.250
 6486POPC   C3A28625  25.239  25.234   7.950
 6486POPC   C4A28626  25.236  25.264   7.650
 6486POPC   C1B28627  25.519  25.306   8.550
 6486POPC   C2B28628  25.527  25.264   8.250
 6486POPC   C3B28629  25.534  25.281   7.950
 6486POPC   C4B28630  25.500  25.276   7.650
 6487POPC   NC328631  43.113  32.265   9.450
 6487POPC   PO428632  43.123  32.222   9.150
 6487POPC   GL128633  43.150  32.273   8.850
 6487POPC   GL228634  43.107  32.156   8.850
 6487POPC   C1A28635  43.107  32.224   8.550
 6487POPC   D2A28636  43.142  32.270   8.250
 6487POPC   C3A28637  43.080  32.257   7.950
 6487POPC   C4A28638  43.080  32.251   7.650
 6487POPC   C1B28639  43.098  32.019   8.550
 6487POPC   C2B28640  43.110  31.975   8.250
 6487POPC   C3B28641  43.148  31.969   7.950
 6487POPC   C4B28642  43.106  32.035   7.650
 6488POPC   NC328643  21.424  36.172   9.450
 6488POPC   PO428644  21.375  36.162   9.150
 6488POPC   GL128645  21.366  36.129   8.850
 6488POPC   GL228646  21.542  36.107   8.850
 6488POPC   C1A28647  21.400  36.092   8.550
 6488POPC   D2A28648  21.354  36.142   8.250
 6488POPC   C3A28649  21.355  36.167   7.950
 6488POPC   C4A28650  21.364  36.124   7.650
 6488POPC   C1B28651  21.625  36.147   8.550
 6488POPC   C2B28652  21.616  36.116   8.250
 6488POPC   C3B28653  21.586  36.094   7.950
 6488POPC   C4B28654  21.631  36.128   7.650
 6489POPC   NC328655  22.210  22.197   9.450
 6489POPC   PO428656  22.184  22.198   9.150
 6489POPC   GL128657  22.145  22.137   8.850
 6489POPC   GL228658  22.023  22.077   8.850
 6489POPC   C1A28659  22.156  22.158   8.550
 6489POPC   D2A28660  22.138  22.151   8.250
 6489POPC   C3A28661  22.180  22.138   7.950
 6489POPC   C4A28662  22.126  22.186   7.650
 6489POPC   C1B28663  21.959  22.015   8.550
 6489POPC   C2B28664  21.971  21.974   8.250
 6489POPC   C3B28665  21.917  22.053   7.950
 6489POPC   C4B28666  21.954  21.971   7.650
 6490POPC   NC328667  35.355   1.974   9.450
 6490POPC   PO428668  35.376   1.965   9.150
 6490POPC   GL128669  35.347   1.958   8.850
 6490POPC   GL228670  35.331   1.899   8.850
 6490POPC   C1A28671  35.391   2.009   8.550
 6490POPC   D2A28672  35.396   1.941   8.250
 6490POPC   C3A28673  35.361   1.944   7.950
 6490POPC   C4A28674  35.379   1.950   7.650
 6490POPC   C1B28675  35.237   1.733   8.550
 6490POPC   C2B28676  35.226   1.754   8.250
 6490POPC   C3B28677  35.291   1.786   7.950
 6490POPC   C4B28678  35.284   1.788   7.650
 6491POPC   NC328679   1.168  16.750   9.450
 6491POPC   PO428680   1.221  16.689   9.150
 6491POPC   GL128681   1.183  16.735   8.850
 6491POPC   GL228682   1.202  16.598   8.850
 6491POPC   C1A28683   1.168  16.745   8.550
 6491POPC   D2A28684   1.198  16.764   8.250
 6491POPC   C3A28685   1.254  16.767   7.950
 6491POPC   C4A28686   1.190  16.688   7.650
 6491POPC   C1B28687   1.125  16.541   8.550
 6491POPC   C2B28688   1.165  16.496   8.250
 6491POPC   C3B28689   1.111  16.539   7.950
 6491POPC   C4B28690   1.160  16.475   7.650
 6492POPC   NC328691  42.317  25.997   9.450
 6492POPC   PO428692  42.335  26.007   9.150
 6492POPC   GL128693  42.311  26.066   8.850
 6492POPC   GL228694  42.403  25.999   8.850
 6492POPC   C1A28695  42.301  26.077   8.550
 6492POPC   D2A28696  42.337  26.064   8.250
 6492POPC   C3A28697  42.285  26.075   7.950
 6492POPC   C4A28698  42.326  26.064   7.650
 6492POPC   C1B28699  42.507  25.888   8.550
 6492POPC   C2B28700  42.550  25.887   8.250
 6492POPC   C3B28701  42.557  25.894   7.950
 6492POPC   C4B28702  42.507  25.904   7.650
 6493POPC   NC328703  12.853  40.051   9.450
 6493POPC   PO428704  12.893  40.042   9.150
 6493POPC   GL128705  12.884  40.051   8.850
 6493POPC   GL228706  12.875  40.153   8.850
 6493POPC   C1A28707  12.814  39.975   8.550
 6493POPC   D2A28708  12.901  39.988   8.250
 6493POPC   C3A28709  12.860  40.025   7.950
 6493POPC   C4A28710  12.878  40.041   7.650
 6493POPC   C1B28711  12.837  40.294   8.550
 6493POPC   C2B28712  12.848  40.294   8.250
 6493POPC   C3B28713  12.782  40.209   7.950
 6493POPC   C4B28714  12.823  40.215   7.650
 6494POPC   NC328715  22.137  32.994   9.450
 6494POPC   PO428716  22.147  33.010   9.150
 6494POPC   GL128717  22.133  32.978   8.850
 6494POPC   GL228718  22.229  32.927   8.850
 6494POPC   C1A28719  22.144  33.016   8.550
 6494POPC   D2A28720  22.130  32.995   8.250
 6494POPC   C3A28721  22.126  33.059   7.950
 6494POPC   C4A28722  22.151  33.020   7.650
 6494POPC   C1B28723  22.175  32.812   8.550
 6494POPC   C2B28724  22.197  32.823   8.250
 6494POPC   C3B28725  22.200  32.730   7.950
 6494POPC   C4B28726  22.229  32.781   7.650
 6495POPC   NC328727  22.979  43.067   9.450
 6495POPC   PO428728  22.961  43.096   9.150
 6495POPC   GL128729  22.960  43.110   8.850
 6495POPC   GL228730  23.087  43.139   8.850
 6495POPC   C1A28731  22.988  43.146   8.550
 6495POPC   D2A28732  22.901  43.154   8.250
 6495POPC   C3A28733  22.953  43.111   7.950
 6495POPC   C4A28734  22.987  43.098   7.650
 6495POPC   C1B28735  23.160  43.172   8.550
 6495POPC   C2B28736  23.155  43.250   8.250
 6495POPC   C3B28737  23.138  43.220   7.950
 6495POPC   C4B28738  23.124  43.200   7.650
 6496POPC   NC328739  44.674   5.071   9.450
 6496POPC   PO428740  44.674   5.121   9.150
 6496POPC   GL128741  44.624   5.099   8.850
 6496POPC   GL228742  44.552   5.149   8.850
 6496POPC   C1A28743  44.660   5.123   8.550
 6496POPC   D2A28744  44.674   5.103   8.250
 6496POPC   C3A28745  44.661   5.054   7.950
 6496POPC   C4A28746  44.706   5.098   7.650
 6496POPC   C1B28747  44.432   5.145   8.550
 6496POPC   C2B28748  44.372   5.105   8.250
 6496POPC   C3B28749  44.391   5.146   7.950
 6496POPC   C4B28750  44.393   5.122   7.650
 6497POPC   NC328751   0.467  32.999   9.450
 6497POPC   PO428752   0.487  33.072   9.150
 6497POPC   GL128753   0.409  33.052   8.850
 6497POPC   GL228754   0.485  33.125   8.850
 6497POPC   C1A28755   0.395  33.005   8.550
 6497POPC   D2A28756   0.442  33.003   8.250
 6497POPC   C3A28757   0.410  33.020   7.950
 6497POPC   C4A28758   0.430  33.038   7.650
 6497POPC   C1B28759   0.586  33.189   8.550
 6497POPC   C2B28760   0.641  33.203   8.250
 6497POPC   C3B28761   0.568  33.215   7.950
 6497POPC   C4B28762   0.611  33.214   7.650
 6498POPC   NC328763  30.739  10.570   9.450
 6498POPC   PO428764  30.709  10.483   9.150
 6498POPC   GL128765  30.691  10.523   8.850
 6498POPC   GL228766  30.843  10.530   8.850
 6498POPC   C1A28767  30.652  10.506   8.550
 6498POPC   D2A28768  30.666  10.535   8.250
 6498POPC   C3A28769  30.718  10.563   7.950
 6498POPC   C4A28770  30.660  10.558   7.650
 6498POPC   C1B28771  30.930  10.554   8.550
 6498POPC   C2B28772  30.958  10.570   8.250
 6498POPC   C3B28773  30.930  10.535   7.950
 6498POPC   C4B28774  30.969  10.569   7.650
 6499POPC   NC328775  19.081  14.434   9.450
 6499POPC   PO428776  19.017  14.413   9.150
 6499POPC   GL128777  19.101  14.362   8.850
 6499POPC   GL228778  19.197  14.358   8.850
 6499POPC   C1A28779  19.020  14.396   8.550
 6499POPC   D2A28780  19.092  14.371   8.250
 6499POPC   C3A28781  19.063  14.382   7.950
 6499POPC   C4A28782  19.088  14.361   7.650
 6499POPC   C1B28783  19.262  14.221   8.550
 6499POPC   C2B28784  19.282  14.242   8.250
 6499POPC   C3B28785  19.224  14.271   7.950
 6499POPC   C4B28786  19.251  14.213   7.650
 6500POPC   NC328787   8.243  12.861   9.450
 6500POPC   PO428788   8.236  12.810   9.150
 6500POPC   GL128789   8.205  12.861   8.850
 6500POPC   GL228790   8.346  12.851   8.850
 6500POPC   C1A28791   8.239  12.802   8.550
 6500POPC   D2A28792   8.163  12.844   8.250
 6500POPC   C3A28793   8.156  12.808   7.950
 6500POPC   C4A28794   8.233  12.847   7.650
 6500POPC   C1B28795   8.482  12.898   8.550
 6500POPC   C2B28796   8.494  12.848   8.250
 6500POPC   C3B28797   8.442  12.835   7.950
 6500POPC   C4B28798   8.411  12.849   7.650
 6501POPC   NC328799  23.708   5.078   9.450
 6501POPC   PO428800  23.741   5.045   9.150
 6501POPC   GL128801  23.737   5.088   8.850
 6501POPC   GL228802  23.840   5.015   8.850
 6501POPC   C1A28803  23.748   5.076   8.550
 6501POPC   D2A28804  23.732   5.054   8.250
 6501POPC   C3A28805  23.758   5.118   7.950
 6501POPC   C4A28806  23.709   5.118   7.650
 6501POPC   C1B28807  23.866   4.966   8.550
 6501POPC   C2B28808  23.853   4.892   8.250
 6501POPC   C3B28809  23.878   4.931   7.950
 6501POPC   C4B28810  23.841   4.939   7.650
 6502POPC   NC328811  43.869   1.954   9.450
 6502POPC   PO428812  43.890   1.992   9.150
 6502POPC   GL128813  43.896   2.026   8.850
 6502POPC   GL228814  43.916   1.927   8.850
 6502POPC   C1A28815  43.853   2.040   8.550
 6502POPC   D2A28816  43.901   1.977   8.250
 6502POPC   C3A28817  43.854   1.995   7.950
 6502POPC   C4A28818  43.911   2.000   7.650
 6502POPC   C1B28819  44.043   1.802   8.550
 6502POPC   C2B28820  44.046   1.777   8.250
 6502POPC   C3B28821  43.983   1.762   7.950
 6502POPC   C4B28822  43.998   1.733   7.650
 6503POPC   NC328823  42.314   5.846   9.450
 6503POPC   PO428824  42.296   5.854   9.150
 6503POPC   GL128825  42.328   5.822   8.850
 6503POPC   GL228826  42.435   5.819   8.850
 6503POPC   C1A28827  42.342   5.824   8.550
 6503POPC   D2A28828  42.285   5.892   8.250
 6503POPC   C3A28829  42.353   5.859   7.950
 6503POPC   C4A28830  42.368   5.891   7.650
 6503POPC   C1B28831  42.591   5.756   8.550
 6503POPC   C2B28832  42.542   5.768   8.250
 6503POPC   C3B28833  42.588   5.766   7.950
 6503POPC   C4B28834  42.594   5.788   7.650
 6504POPC   NC328835  26.841  32.274   9.450
 6504POPC   PO428836  26.833  32.293   9.150
 6504POPC   GL128837  26.861  32.285   8.850
 6504POPC   GL228838  26.951  32.246   8.850
 6504POPC   C1A28839  26.780  32.261   8.550
 6504POPC   D2A28840  26.831  32.247   8.250
 6504POPC   C3A28841  26.864  32.246   7.950
 6504POPC   C4A28842  26.863  32.286   7.650
 6504POPC   C1B28843  27.072  32.193   8.550
 6504POPC   C2B28844  27.096  32.150   8.250
 6504POPC   C3B28845  27.004  32.190   7.950
 6504POPC   C4B28846  27.080  32.188   7.650
 6505POPC   NC328847  43.846  20.628   9.450
 6505POPC   PO428848  43.877  20.619   9.150
 6505POPC   GL128849  43.909  20.580   8.850
 6505POPC   GL228850  43.962  20.690   8.850
 6505POPC   C1A28851  43.844  20.608   8.550
 6505POPC   D2A28852  43.851  20.652   8.250
 6505POPC   C3A28853  43.858  20.585   7.950
 6505POPC   C4A28854  43.884  20.614   7.650
 6505POPC   C1B28855  44.061  20.781   8.550
 6505POPC   C2B28856  44.075  20.707   8.250
 6505POPC   C3B28857  44.054  20.725   7.950
 6505POPC   C4B28858  44.122  20.726   7.650
 6506POPC   NC328859  11.343  25.307   9.450
 6506POPC   PO428860  11.256  25.295   9.150
 6506POPC   GL128861  11.284  25.315   8.850
 6506POPC   GL228862  11.315  25.180   8.850
 6506POPC   C1A28863  11.289  25.231   8.550
 6506POPC   D2A28864  11.250  25.252   8.250
 6506POPC   C3A28865  11.333  25.300   7.950
 6506POPC   C4A28866  11.293  25.238   7.650
 6506POPC   C1B28867  11.302  25.017   8.550
 6506POPC   C2B28868  11.359  25.027   8.250
 6506POPC   C3B28869  11.332  25.028   7.950
 6506POPC   C4B28870  11.271  25.065   7.650
 6507POPC   NC328871   9.719  13.658   9.450
 6507POPC   PO428872   9.767  13.639   9.150
 6507POPC   GL128873   9.734  13.667   8.850
 6507POPC   GL228874   9.895  13.620   8.850
 6507POPC   C1A28875   9.766  13.587   8.550
 6507POPC   D2A28876   9.783  13.650   8.250
 6507POPC   C3A28877   9.797  13.641   7.950
 6507POPC   C4A28878   9.757  13.615   7.650
 6507POPC   C1B28879  10.015  13.726   8.550
 6507POPC   C2B28880  10.000  13.691   8.250
 6507POPC   C3B28881   9.954  13.742   7.950
 6507POPC   C4B28882   9.973  13.718   7.650
 6508POPC   NC328883  23.727  16.766   9.450
 6508POPC   PO428884  23.715  16.695   9.150
 6508POPC   GL128885  23.687  16.765   8.850
 6508POPC   GL228886  23.637  16.857   8.850
 6508POPC   C1A28887  23.740  16.720   8.550
 6508POPC   D2A28888  23.729  16.767   8.250
 6508POPC   C3A28889  23.675  16.772   7.950
 6508POPC   C4A28890  23.669  16.732   7.650
 6508POPC   C1B28891  23.526  16.921   8.550
 6508POPC   C2B28892  23.524  16.939   8.250
 6508POPC   C3B28893  23.537  16.934   7.950
 6508POPC   C4B28894  23.535  16.924   7.650
 6509POPC   NC328895  26.073  28.334   9.450
 6509POPC   PO428896  26.069  28.320   9.150
 6509POPC   GL128897  26.020  28.341   8.850
 6509POPC   GL228898  26.172  28.300   8.850
 6509POPC   C1A28899  25.994  28.360   8.550
 6509POPC   D2A28900  26.031  28.411   8.250
 6509POPC   C3A28901  26.001  28.388   7.950
 6509POPC   C4A28902  26.081  28.328   7.650
 6509POPC   C1B28903  26.309  28.332   8.550
 6509POPC   C2B28904  26.250  28.343   8.250
 6509POPC   C3B28905  26.266  28.258   7.950
 6509POPC   C4B28906  26.295  28.312   7.650
 6510POPC   NC328907  26.846  33.751   9.450
 6510POPC   PO428908  26.815  33.845   9.150
 6510POPC   GL128909  26.802  33.838   8.850
 6510POPC   GL228910  26.711  33.694   8.850
 6510POPC   C1A28911  26.784  33.781   8.550
 6510POPC   D2A28912  26.794  33.768   8.250
 6510POPC   C3A28913  26.866  33.796   7.950
 6510POPC   C4A28914  26.819  33.770   7.650
 6510POPC   C1B28915  26.594  33.681   8.550
 6510POPC   C2B28916  26.578  33.623   8.250
 6510POPC   C3B28917  26.602  33.653   7.950
 6510POPC   C4B28918  26.616  33.624   7.650
 6511POPC   NC328919   1.998  20.615   9.450
 6511POPC   PO428920   1.964  20.567   9.150
 6511POPC   GL128921   2.034  20.658   8.850
 6511POPC   GL228922   2.019  20.506   8.850
 6511POPC   C1A28923   1.996  20.659   8.550
 6511POPC   D2A28924   1.958  20.642   8.250
 6511POPC   C3A28925   1.958  20.654   7.950
 6511POPC   C4A28926   1.947  20.589   7.650
 6511POPC   C1B28927   2.002  20.379   8.550
 6511POPC   C2B28928   1.941  20.319   8.250
 6511POPC   C3B28929   1.959  20.338   7.950
 6511POPC   C4B28930   1.985  20.373   7.650
 6512POPC   NC328931  30.668  22.139   9.450
 6512POPC   PO428932  30.712  22.169   9.150
 6512POPC   GL128933  30.740  22.202   8.850
 6512POPC   GL228934  30.808  22.180   8.850
 6512POPC   C1A28935  30.647  22.206   8.550
 6512POPC   D2A28936  30.674  22.172   8.250
 6512POPC   C3A28937  30.663  22.151   7.950
 6512POPC   C4A28938  30.728  22.193   7.650
 6512POPC   C1B28939  30.918  22.281   8.550
 6512POPC   C2B28940  30.878  22.311   8.250
 6512POPC   C3B28941  30.917  22.289   7.950
 6512POPC   C4B28942  30.939  22.254   7.650
 6513POPC   NC328943  43.862  31.456   9.450
 6513POPC   PO428944  43.855  31.457   9.150
 6513POPC   GL128945  43.851  31.448   8.850
 6513POPC   GL228946  43.775  31.339   8.850
 6513POPC   C1A28947  43.884  31.483   8.550
 6513POPC   D2A28948  43.840  31.512   8.250
 6513POPC   C3A28949  43.854  31.425   7.950
 6513POPC   C4A28950  43.918  31.490   7.650
 6513POPC   C1B28951  43.773  31.323   8.550
 6513POPC   C2B28952  43.750  31.277   8.250
 6513POPC   C3B28953  43.769  31.269   7.950
 6513POPC   C4B28954  43.754  31.285   7.650
 6514POPC   NC328955  19.010   8.940   9.450
 6514POPC   PO428956  19.078   8.971   9.150
 6514POPC   GL128957  19.024   8.960   8.850
 6514POPC   GL228958  19.165   8.980   8.850
 6514POPC   C1A28959  19.039   8.973   8.550
 6514POPC   D2A28960  19.039   8.995   8.250
 6514POPC   C3A28961  19.044   9.000   7.950
 6514POPC   C4A28962  19.060   8.955   7.650
 6514POPC   C1B28963  19.296   8.984   8.550
 6514POPC   C2B28964  19.300   8.958   8.250
 6514POPC   C3B28965  19.355   9.009   7.950
 6514POPC   C4B28966  19.309   9.039   7.650
 6515POPC   NC328967  28.327   6.636   9.450
 6515POPC   PO428968  28.336   6.626   9.150
 6515POPC   GL128969  28.413   6.601   8.850
 6515POPC   GL228970  28.437   6.554   8.850
 6515POPC   C1A28971  28.359   6.654   8.550
 6515POPC   D2A28972  28.344   6.653   8.250
 6515POPC   C3A28973  28.410   6.608   7.950
 6515POPC   C4A28974  28.385   6.645   7.650
 6515POPC   C1B28975  28.406   6.363   8.550
 6515POPC   C2B28976  28.381   6.381   8.250
 6515POPC   C3B28977  28.393   6.425   7.950
 6515POPC   C4B28978  28.434   6.389   7.650
 6516POPC   NC328979   9.741  20.581   9.450
 6516POPC   PO428980   9.756  20.593   9.150
 6516POPC   GL128981   9.783  20.584   8.850
 6516POPC   GL228982   9.882  20.647   8.850
 6516POPC   C1A28983   9.725  20.563   8.550
 6516POPC   D2A28984   9.708  20.638   8.250
 6516POPC   C3A28985   9.706  20.565   7.950
 6516POPC   C4A28986   9.765  20.593   7.650
 6516POPC   C1B28987  10.015  20.727   8.550
 6516POPC   C2B28988   9.948  20.746   8.250
 6516POPC   C3B28989  10.002  20.776   7.950
 6516POPC   C4B28990   9.970  20.742   7.650
 6517POPC   NC328991  42.330   4.360   9.450
 6517POPC   PO428992  42.319   4.313   9.150
 6517POPC   GL128993  42.363   4.312   8.850
 6517POPC   GL228994  42.262   4.457   8.850
 6517POPC   C1A28995  42.303   4.280   8.550
 6517POPC   D2A28996  42.338   4.284   8.250
 6517POPC   C3A28997  42.345   4.332   7.950
 6517POPC   C4A28998  42.351   4.324   7.650
 6517POPC   C1B28999  42.192   4.584   8.550
 6517POPC   C2B29000  42.277   4.520   8.250
 6517POPC   C3B29001  42.218   4.532   7.950
 6517POPC   C4B29002  42.203   4.567   7.650
 6518POPC   NC329003  43.108  24.455   9.450
 6518POPC   PO429004  43.147  24.499   9.150
 6518POPC   GL129005  43.062  24.469   8.850
 6518POPC   GL229006  43.005  24.493   8.850
 6518POPC   C1A29007  43.096  24.491   8.550
 6518POPC   D2A29008  43.070  24.448   8.250
 6518POPC   C3A29009  43.092  24.519   7.950
 6518POPC   C4A29010  43.073  24.492   7.650
 6518POPC   C1B29011  42.844  24.603   8.550
 6518POPC   C2B29012  42.875  24.570   8.250
 6518POPC   C3B29013  42.837  24.617   7.950
 6518POPC   C4B29014  42.875  24.557   7.650
 6519POPC   NC329015  29.941   5.120   9.450
 6519POPC   PO429016  29.928   5.142   9.150
 6519POPC   GL129017  29.932   5.114   8.850
 6519POPC   GL229018  29.826   5.128   8.850
 6519POPC   C1A29019  29.927   5.080   8.550
 6519POPC   D2A29020  29.909   5.054   8.250
 6519POPC   C3A29021  29.881   5.093   7.950
 6519POPC   C4A29022  29.964   5.129   7.650
 6519POPC   C1B29023  29.688   5.127   8.550
 6519POPC   C2B29024  29.664   5.104   8.250
 6519POPC   C3B29025  29.637   5.173   7.950
 6519POPC   C4B29026  29.645   5.116   7.650
 6520POPC   NC329027   5.826  21.393   9.450
 6520POPC   PO429028   5.913  21.351   9.150
 6520POPC   GL129029   5.826  21.425   8.850
 6520POPC   GL229030   5.974  21.404   8.850
 6520POPC   C1A29031   5.878  21.381   8.550
 6520POPC   D2A29032   5.845  21.415   8.250
 6520POPC   C3A29033   5.822  21.406   7.950
 6520POPC   C4A29034   5.871  21.362   7.650
 6520POPC   C1B29035   6.035  21.468   8.550
 6520POPC   C2B29036   6.080  21.506   8.250
 6520POPC   C3B29037   6.128  21.547   7.950
 6520POPC   C4B29038   6.048  21.490   7.650
 6521POPC   NC329039   2.036  36.943   9.450
 6521POPC   PO429040   1.994  36.875   9.150
 6521POPC   GL129041   1.960  36.941   8.850
 6521POPC   GL229042   1.989  36.755   8.850
 6521POPC   C1A29043   2.017  36.931   8.550
 6521POPC   D2A29044   1.964  36.894   8.250
 6521POPC   C3A29045   1.993  36.866   7.950
 6521POPC   C4A29046   1.955  36.937   7.650
 6521POPC   C1B29047   1.940  36.653   8.550
 6521POPC   C2B29048   1.877  36.657   8.250
 6521POPC   C3B29049   1.902  36.631   7.950
 6521POPC   C4B29050   1.952  36.697   7.650
 6522POPC   NC329051  36.103  43.129   9.450
 6522POPC   PO429052  36.128  43.129   9.150
 6522POPC   GL129053  36.087  43.119   8.850
 6522POPC   GL229054  36.038  43.065   8.850
 6522POPC   C1A29055  36.156  43.068   8.550
 6522POPC   D2A29056  36.098  43.136   8.250
 6522POPC   C3A29057  36.153  43.097   7.950
 6522POPC   C4A29058  36.091  43.159   7.650
 6522POPC   C1B29059  35.882  43.075   8.550
 6522POPC   C2B29060  35.903  43.042   8.250
 6522POPC   C3B29061  35.876  43.039   7.950
 6522POPC   C4B29062  35.856  42.987   7.650
 6523POPC   NC329063  22.125   4.318   9.450
 6523POPC   PO429064  22.122   4.293   9.150
 6523POPC   GL129065  22.178   4.310   8.850
 6523POPC   GL229066  22.101   4.226   8.850
 6523POPC   C1A29067  22.118   4.354   8.550
 6523POPC   D2A29068  22.185   4.289   8.250
 6523POPC   C3A29069  22.122   4.297   7.950
 6523POPC   C4A29070  22.177   4.304   7.650
 6523POPC   C1B29071  22.016   4.121   8.550
 6523POPC   C2B29072  21.991   4.130   8.250
 6523POPC   C3B29073  21.992   4.091   7.950
 6523POPC   C4B29074  22.019   4.132   7.650
 6524POPC   NC329075  15.166  26.785   9.450
 6524POPC   PO429076  15.210  26.858   9.150
 6524POPC   GL129077  15.209  26.831   8.850
 6524POPC   GL229078  15.252  26.880   8.850
 6524POPC   C1A29079  15.136  26.811   8.550
 6524POPC   D2A29080  15.152  26.860   8.250
 6524POPC   C3A29081  15.151  26.825   7.950
 6524POPC   C4A29082  15.180  26.866   7.650
 6524POPC   C1B29083  15.312  26.968   8.550
 6524POPC   C2B29084  15.382  27.025   8.250
 6524POPC   C3B29085  15.343  26.979   7.950
 6524POPC   C4B29086  15.336  26.980   7.650
 6525POPC   NC329087  43.927  22.188   9.450
 6525POPC   PO429088  43.914  22.143   9.150
 6525POPC   GL129089  43.932  22.194   8.850
 6525POPC   GL229090  43.997  22.072   8.850
 6525POPC   C1A29091  43.856  22.198   8.550
 6525POPC   D2A29092  43.871  22.196   8.250
 6525POPC   C3A29093  43.880  22.123   7.950
 6525POPC   C4A29094  43.854  22.125   7.650
 6525POPC   C1B29095  44.049  21.932   8.550
 6525POPC   C2B29096  44.035  21.918   8.250
 6525POPC   C3B29097  43.992  21.954   7.950
 6525POPC   C4B29098  44.061  21.980   7.650
 6526POPC   NC329099  12.064  33.753   9.450
 6526POPC   PO429100  12.070  33.820   9.150
 6526POPC   GL129101  12.029  33.816   8.850
 6526POPC   GL229102  11.911  33.765   8.850
 6526POPC   C1A29103  12.074  33.823   8.550
 6526POPC   D2A29104  12.052  33.797   8.250
 6526POPC   C3A29105  12.107  33.768   7.950
 6526POPC   C4A29106  12.070  33.759   7.650
 6526POPC   C1B29107  11.881  33.711   8.550
 6526POPC   C2B29108  11.823  33.759   8.250
 6526POPC   C3B29109  11.830  33.757   7.950
 6526POPC   C4B29110  11.821  33.762   7.650
 6527POPC   NC329111  19.817  17.547   9.450
 6527POPC   PO429112  19.857  17.532   9.150
 6527POPC   GL129113  19.800  17.521   8.850
 6527POPC   GL229114  19.962  17.598   8.850
 6527POPC   C1A29115  19.878  17.466   8.550
 6527POPC   D2A29116  19.791  17.461   8.250
 6527POPC   C3A29117  19.843  17.526   7.950
 6527POPC   C4A29118  19.843  17.491   7.650
 6527POPC   C1B29119  19.975  17.709   8.550
 6527POPC   C2B29120  20.003  17.724   8.250
 6527POPC   C3B29121  19.975  17.663   7.950
 6527POPC   C4B29122  20.019  17.710   7.650
 6528POPC   NC329123   5.915  29.881   9.450
 6528POPC   PO429124   5.820  29.970   9.150
 6528POPC   GL129125   5.911  29.928   8.850
 6528POPC   GL229126   5.839  30.030   8.850
 6528POPC   C1A29127   5.871  29.924   8.550
 6528POPC   D2A29128   5.841  29.918   8.250
 6528POPC   C3A29129   5.850  29.885   7.950
 6528POPC   C4A29130   5.889  29.903   7.650
 6528POPC   C1B29131   5.777  30.156   8.550
 6528POPC   C2B29132   5.774  30.202   8.250
 6528POPC   C3B29133   5.771  30.116   7.950
 6528POPC   C4B29134   5.780  30.202   7.650
 6529POPC   NC329135  20.643  33.790   9.450
 6529POPC   PO429136  20.621  33.761   9.150
 6529POPC   GL129137  20.586  33.833   8.850
 6529POPC   GL229138  20.636  33.918   8.850
 6529POPC   C1A29139  20.653  33.801   8.550
 6529POPC   D2A29140  20.597  33.799   8.250
 6529POPC   C3A29141  20.575  33.817   7.950
 6529POPC   C4A29142  20.611  33.816   7.650
 6529POPC   C1B29143  20.653  34.012   8.550
 6529POPC   C2B29144  20.621  34.011   8.250
 6529POPC   C3B29145  20.614  34.009   7.950
 6529POPC   C4B29146  20.581  34.047   7.650
 6530POPC   NC329147  40.748   0.480   9.450
 6530POPC   PO429148  40.811   0.437   9.150
 6530POPC   GL129149  40.816   0.462   8.850
 6530POPC   GL229150  40.774   0.283   8.850
 6530POPC   C1A29151  40.787   0.425   8.550
 6530POPC   D2A29152  40.800   0.395   8.250
 6530POPC   C3A29153  40.754   0.448   7.950
 6530POPC   C4A29154  40.788   0.436   7.650
 6530POPC   C1B29155  40.817   0.192   8.550
 6530POPC   C2B29156  40.843   0.146   8.250
 6530POPC   C3B29157  40.829   0.162   7.950
 6530POPC   C4B29158  40.824   0.163   7.650
 6531POPC   NC329159  40.771   9.756   9.450
 6531POPC   PO429160  40.813   9.719   9.150
 6531POPC   GL129161  40.817   9.736   8.850
 6531POPC   GL229162  40.907   9.772   8.850
 6531POPC   C1A29163  40.828   9.708   8.550
 6531POPC   D2A29164  40.816   9.735   8.250
 6531POPC   C3A29165  40.755   9.728   7.950
 6531POPC   C4A29166  40.740   9.762   7.650
 6531POPC   C1B29167  41.048   9.809   8.550
 6531POPC   C2B29168  41.009   9.726   8.250
 6531POPC   C3B29169  40.993   9.807   7.950
 6531POPC   C4B29170  41.054   9.716   7.650
 6532POPC   NC329171  15.965  21.421   9.450
 6532POPC   PO429172  15.923  21.392   9.150
 6532POPC   GL129173  15.928  21.378   8.850
 6532POPC   GL229174  16.081  21.327   8.850
 6532POPC   C1A29175  15.945  21.350   8.550
 6532POPC   D2A29176  15.938  21.410   8.250
 6532POPC   C3A29177  15.935  21.432   7.950
 6532POPC   C4A29178  15.950  21.429   7.650
 6532POPC   C1B29179  16.190  21.347   8.550
 6532POPC   C2B29180  16.215  21.314   8.250
 6532POPC   C3B29181  16.221  21.328   7.950
 6532POPC   C4B29182  16.189  21.375   7.650
 6533POPC   NC329183  31.495  43.099   9.450
 6533POPC   PO429184  31.521  43.124   9.150
 6533POPC   GL129185  31.428  43.076   8.850
 6533POPC   GL229186  31.581  43.057   8.850
 6533POPC   C1A29187  31.514  43.082   8.550
 6533POPC   D2A29188  31.456  43.121   8.250
 6533POPC   C3A29189  31.460  43.084   7.950
 6533POPC   C4A29190  31.460  43.092   7.650
 6533POPC   C1B29191  31.639  42.878   8.550
 6533POPC   C2B29192  31.640  42.916   8.250
 6533POPC   C3B29193  31.690  42.923   7.950
 6533POPC   C4B29194  31.642  42.907   7.650
 6534POPC   NC329195  36.928   2.758   9.450
 6534POPC   PO429196  36.886   2.780   9.150
 6534POPC   GL129197  36.855   2.739   8.850
 6534POPC   GL229198  36.868   2.884   8.850
 6534POPC   C1A29199  36.865   2.790   8.550
 6534POPC   D2A29200  36.917   2.771   8.250
 6534POPC   C3A29201  36.932   2.783   7.950
 6534POPC   C4A29202  36.904   2.755   7.650
 6534POPC   C1B29203  36.695   2.939   8.550
 6534POPC   C2B29204  36.700   2.910   8.250
 6534POPC   C3B29205  36.722   2.960   7.950
 6534POPC   C4B29206  36.788   2.955   7.650
 6535POPC   NC329207   0.457   1.208   9.450
 6535POPC   PO429208   0.435   1.218   9.150
 6535POPC   GL129209   0.457   1.168   8.850
 6535POPC   GL229210   0.522   1.166   8.850
 6535POPC   C1A29211   0.450   1.219   8.550
 6535POPC   D2A29212   0.439   1.254   8.250
 6535POPC   C3A29213   0.420   1.210   7.950
 6535POPC   C4A29214   0.389   1.225   7.650
 6535POPC   C1B29215   0.706   1.186   8.550
 6535POPC   C2B29216   0.681   1.218   8.250
 6535POPC   C3B29217   0.702   1.201   7.950
 6535POPC   C4B29218   0.660   1.210   7.650
 6536POPC   NC329219  31.464  26.088   9.450
 6536POPC   PO429220  31.434  26.035   9.150
 6536POPC   GL129221  31.424  26.009   8.850
 6536POPC   GL229222  31.361  26.082   8.850
 6536POPC   C1A29223  31.508  26.074   8.550
 6536POPC   D2A29224  31.478  26.021   8.250
 6536POPC   C3A29225  31.440  26.091   7.950
 6536POPC   C4A29226  31.468  26.045   7.650
 6536POPC   C1B29227  31.272  26.254   8.550
 6536POPC   C2B29228  31.348  26.192   8.250
 6536POPC   C3B29229  31.342  26.229   7.950
 6536POPC   C4B29230  31.253  26.223   7.650
 6537POPC   NC329231   5.830  18.298   9.450
 6537POPC   PO429232   5.840  18.320   9.150
 6537POPC   GL129233   5.828  18.322   8.850
 6537POPC   GL229234   5.954  18.305   8.850
 6537POPC   C1A29235   5.830  18.317   8.550
 6537POPC   D2A29236   5.873  18.246   8.250
 6537POPC   C3A29237   5.885  18.291   7.950
 6537POPC   C4A29238   5.875  18.303   7.650
 6537POPC   C1B29239   6.146  18.268   8.550
 6537POPC   C2B29240   6.127  18.263   8.250
 6537POPC   C3B29241   6.104  18.208   7.950
 6537POPC   C4B29242   6.138  18.203   7.650
 6538POPC   NC329243   8.925  33.846   9.450
 6538POPC   PO429244   8.993  33.766   9.150
 6538POPC   GL129245   8.947  33.763   8.850
 6538POPC   GL229246   8.980  33.890   8.850
 6538POPC   C1A29247   9.006  33.823   8.550
 6538POPC   D2A29248   9.003  33.849   8.250
 6538POPC   C3A29249   8.929  33.818   7.950
 6538POPC   C4A29250   8.991  33.846   7.650
 6538POPC   C1B29251   9.113  34.001   8.550
 6538POPC   C2B29252   9.074  34.068   8.250
 6538POPC   C3B29253   9.065  34.059   7.950
 6538POPC   C4B29254   9.050  33.999   7.650
 6539POPC   NC329255  26.085   2.769   9.450
 6539POPC   PO429256  26.010   2.780   9.150
 6539POPC   GL129257  25.992   2.775   8.850
 6539POPC   GL229258  25.944   2.890   8.850
 6539POPC   C1A29259  26.039   2.748   8.550
 6539POPC   D2A29260  26.050   2.757   8.250
 6539POPC   C3A29261  26.030   2.765   7.950
 6539POPC   C4A29262  26.061   2.781   7.650
 6539POPC   C1B29263  25.910   2.960   8.550
 6539POPC   C2B29264  25.878   3.003   8.250
 6539POPC   C3B29265  25.936   2.999   7.950
 6539POPC   C4B29266  25.880   2.975   7.650
 6540POPC   NC329267  22.918   1.229   9.450
 6540POPC   PO429268  22.947   1.239   9.150
 6540POPC   GL129269  22.913   1.254   8.850
 6540POPC   GL229270  23.040   1.222   8.850
 6540POPC   C1A29271  22.920   1.205   8.550
 6540POPC   D2A29272  22.971   1.237   8.250
 6540POPC   C3A29273  22.969   1.209   7.950
 6540POPC   C4A29274  22.977   1.218   7.650
 6540POPC   C1B29275  23.146   1.248   8.550
 6540POPC   C2B29276  23.151   1.292   8.250
 6540POPC   C3B29277  23.177   1.248   7.950
 6540POPC   C4B29278  23.170   1.298   7.650
 6541POPC   NC329279  21.379   3.581   9.450
 6541POPC   PO429280  21.346   3.516   9.150
 6541POPC   GL129281  21.423   3.586   8.850
 6541POPC   GL229282  21.231   3.515   8.850
 6541POPC   C1A29283  21.405   3.528   8.550
 6541POPC   D2A29284  21.389   3.507   8.250
 6541POPC   C3A29285  21.356   3.577   7.950
 6541POPC   C4A29286  21.398   3.508   7.650
 6541POPC   C1B29287  21.175   3.399   8.550
 6541POPC   C2B29288  21.184   3.462   8.250
 6541POPC   C3B29289  21.173   3.443   7.950
 6541POPC   C4B29290  21.175   3.452   7.650
 6542POPC   NC329291  35.332  17.482   9.450
 6542POPC   PO429292  35.358  17.527   9.150
 6542POPC   GL129293  35.318  17.487   8.850
 6542POPC   GL229294  35.380  17.378   8.850
 6542POPC   C1A29295  35.388  17.476   8.550
 6542POPC   D2A29296  35.359  17.486   8.250
 6542POPC   C3A29297  35.327  17.523   7.950
 6542POPC   C4A29298  35.331  17.515   7.650
 6542POPC   C1B29299  35.326  17.258   8.550
 6542POPC   C2B29300  35.346  17.247   8.250
 6542POPC   C3B29301  35.334  17.248   7.950
 6542POPC   C4B29302  35.385  17.304   7.650
 6543POPC   NC329303  31.446   6.685   9.450
 6543POPC   PO429304  31.434   6.653   9.150
 6543POPC   GL129305  31.518   6.611   8.850
 6543POPC   GL229306  31.559   6.702   8.850
 6543POPC   C1A29307  31.434   6.669   8.550
 6543POPC   D2A29308  31.479   6.670   8.250
 6543POPC   C3A29309  31.448   6.679   7.950
 6543POPC   C4A29310  31.456   6.653   7.650
 6543POPC   C1B29311  31.638   6.794   8.550
 6543POPC   C2B29312  31.596   6.851   8.250
 6543POPC   C3B29313  31.607   6.801   7.950
 6543POPC   C4B29314  31.645   6.844   7.650
 6544POPC   NC329315  33.801  43.935   9.450
 6544POPC   PO429316  33.797  43.850   9.150
 6544POPC   GL129317  33.811  43.857   8.850
 6544POPC   GL229318  33.768  43.949   8.850
 6544POPC   C1A29319  33.760  43.855   8.550
 6544POPC   D2A29320  33.834  43.900   8.250
 6544POPC   C3A29321  33.772  43.912   7.950
 6544POPC   C4A29322  33.786  43.918   7.650
 6544POPC   C1B29323  33.657  44.094   8.550
 6544POPC   C2B29324  33.675  44.055   8.250
 6544POPC   C3B29325  33.674  44.091   7.950
 6544POPC   C4B29326  33.712  44.054   7.650
 6545POPC   NC329327  22.186  36.939   9.450
 6545POPC   PO429328  22.176  36.952   9.150
 6545POPC   GL129329  22.182  36.913   8.850
 6545POPC   GL229330  22.221  37.051   8.850
 6545POPC   C1A29331  22.143  36.895   8.550
 6545POPC   D2A29332  22.114  36.895   8.250
 6545POPC   C3A29333  22.152  36.887   7.950
 6545POPC   C4A29334  22.152  36.887   7.650
 6545POPC   C1B29335  22.296  37.150   8.550
 6545POPC   C2B29336  22.267  37.135   8.250
 6545POPC   C3B29337  22.311  37.078   7.950
 6545POPC   C4B29338  22.286  37.078   7.650
 6546POPC   NC329339   1.197  31.459   9.450
 6546POPC   PO429340   1.168  31.441   9.150
 6546POPC   GL129341   1.258  31.508   8.850
 6546POPC   GL229342   1.281  31.577   8.850
 6546POPC   C1A29343   1.254  31.499   8.550
 6546POPC   D2A29344   1.172  31.480   8.250
 6546POPC   C3A29345   1.215  31.479   7.950
 6546POPC   C4A29346   1.212  31.516   7.650
 6546POPC   C1B29347   1.385  31.597   8.550
 6546POPC   C2B29348   1.432  31.656   8.250
 6546POPC   C3B29349   1.422  31.608   7.950
 6546POPC   C4B29350   1.403  31.565   7.650
 6547POPC   NC329351   6.608  16.722   9.450
 6547POPC   PO429352   6.670  16.766   9.150
 6547POPC   GL129353   6.636  16.758   8.850
 6547POPC   GL229354   6.644  16.600   8.850
 6547POPC   C1A29355   6.605  16.713   8.550
 6547POPC   D2A29356   6.615  16.733   8.250
 6547POPC   C3A29357   6.667  16.756   7.950
 6547POPC   C4A29358   6.691  16.768   7.650
 6547POPC   C1B29359   6.581  16.530   8.550
 6547POPC   C2B29360   6.601  16.470   8.250
 6547POPC   C3B29361   6.639  16.487   7.950
 6547POPC   C4B29362   6.609  16.452   7.650
 6548POPC   NC329363  36.876  37.649   9.450
 6548POPC   PO429364  36.870  37.687   9.150
 6548POPC   GL129365  36.913  37.729   8.850
 6548POPC   GL229366  36.828  37.551   8.850
 6548POPC   C1A29367  36.937  37.698   8.550
 6548POPC   D2A29368  36.861  37.657   8.250
 6548POPC   C3A29369  36.861  37.659   7.950
 6548POPC   C4A29370  36.924  37.640   7.650
 6548POPC   C1B29371  36.835  37.414   8.550
 6548POPC   C2B29372  36.806  37.395   8.250
 6548POPC   C3B29373  36.784  37.401   7.950
 6548POPC   C4B29374  36.854  37.440   7.650
 6549POPC   NC329375  18.237   8.233   9.450
 6549POPC   PO429376  18.331   8.213   9.150
 6549POPC   GL129377  18.244   8.190   8.850
 6549POPC   GL229378  18.389   8.134   8.850
 6549POPC   C1A29379  18.239   8.239   8.550
 6549POPC   D2A29380  18.320   8.245   8.250
 6549POPC   C3A29381  18.288   8.147   7.950
 6549POPC   C4A29382  18.263   8.199   7.650
 6549POPC   C1B29383  18.570   8.145   8.550
 6549POPC   C2B29384  18.564   8.087   8.250
 6549POPC   C3B29385  18.487   8.079   7.950
 6549POPC   C4B29386  18.499   8.154   7.650
 6550POPC   NC329387  35.368  31.444   9.450
 6550POPC   PO429388  35.318  31.443   9.150
 6550POPC   GL129389  35.373  31.459   8.850
 6550POPC   GL229390  35.466  31.446   8.850
 6550POPC   C1A29391  35.321  31.446   8.550
 6550POPC   D2A29392  35.397  31.428   8.250
 6550POPC   C3A29393  35.320  31.520   7.950
 6550POPC   C4A29394  35.311  31.503   7.650
 6550POPC   C1B29395  35.581  31.438   8.550
 6550POPC   C2B29396  35.579  31.358   8.250
 6550POPC   C3B29397  35.635  31.401   7.950
 6550POPC   C4B29398  35.593  31.432   7.650
 6551POPC   NC329399  34.596   5.141   9.450
 6551POPC   PO429400  34.596   5.133   9.150
 6551POPC   GL129401  34.602   5.117   8.850
 6551POPC   GL229402  34.661   5.040   8.850
 6551POPC   C1A29403  34.616   5.129   8.550
 6551POPC   D2A29404  34.605   5.069   8.250
 6551POPC   C3A29405  34.535   5.082   7.950
 6551POPC   C4A29406  34.585   5.085   7.650
 6551POPC   C1B29407  34.765   4.915   8.550
 6551POPC   C2B29408  34.686   4.905   8.250
 6551POPC   C3B29409  34.721   4.867   7.950
 6551POPC   C4B29410  34.753   4.939   7.650
 6552POPC   NC329411  36.086   3.560   9.450
 6552POPC   PO429412  36.130   3.557   9.150
 6552POPC   GL129413  36.109   3.564   8.850
 6552POPC   GL229414  36.159   3.657   8.850
 6552POPC   C1A29415  36.150   3.557   8.550
 6552POPC   D2A29416  36.148   3.537   8.250
 6552POPC   C3A29417  36.091   3.513   7.950
 6552POPC   C4A29418  36.079   3.571   7.650
 6552POPC   C1B29419  36.055   3.821   8.550
 6552POPC   C2B29420  36.054   3.788   8.250
 6552POPC   C3B29421  36.077   3.748   7.950
 6552POPC   C4B29422  36.066   3.838   7.650
 6553POPC   NC329423  35.379  12.064   9.450
 6553POPC   PO429424  35.324  12.048   9.150
 6553POPC   GL129425  35.320  12.094   8.850
 6553POPC   GL229426  35.487  12.115   8.850
 6553POPC   C1A29427  35.328  12.041   8.550
 6553POPC   D2A29428  35.309  12.100   8.250
 6553POPC   C3A29429  35.304  12.057   7.950
 6553POPC   C4A29430  35.342  12.037   7.650
 6553POPC   C1B29431  35.598  12.097   8.550
 6553POPC   C2B29432  35.554  12.131   8.250
 6553POPC   C3B29433  35.646  12.090   7.950
 6553POPC   C4B29434  35.636  12.118   7.650
 6554POPC   NC329435   5.141   0.463   9.450
 6554POPC   PO429436   5.109   0.466   9.150
 6554POPC   GL129437   5.068   0.461   8.850
 6554POPC   GL229438   5.076   0.570   8.850
 6554POPC   C1A29439   5.084   0.470   8.550
 6554POPC   D2A29440   5.082   0.420   8.250
 6554POPC   C3A29441   5.095   0.433   7.950
 6554POPC   C4A29442   5.121   0.411   7.650
 6554POPC   C1B29443   5.010   0.675   8.550
 6554POPC   C2B29444   5.046   0.717   8.250
 6554POPC   C3B29445   5.016   0.721   7.950
 6554POPC   C4B29446   5.094   0.706   7.650
 6555POPC   NC329447  28.394  25.275   9.450
 6555POPC   PO429448  28.386  25.268   9.150
 6555POPC   GL129449  28.346  25.305   8.850
 6555POPC   GL229450  28.313  25.395   8.850
 6555POPC   C1A29451  28.335  25.253   8.550
 6555POPC   D2A29452  28.381  25.297   8.250
 6555POPC   C3A29453  28.355  25.234   7.950
 6555POPC   C4A29454  28.330  25.250   7.650
 6555POPC   C1B29455  28.247  25.488   8.550
 6555POPC   C2B29456  28.322  25.497   8.250
 6555POPC   C3B29457  28.233  25.530   7.950
 6555POPC   C4B29458  28.296  25.477   7.650
 6556POPC   NC329459  23.700  19.040   9.450
 6556POPC   PO429460  23.741  19.066   9.150
 6556POPC   GL129461  23.756  19.084   8.850
 6556POPC   GL229462  23.767  19.158   8.850
 6556POPC   C1A29463  23.729  19.102   8.550
 6556POPC   D2A29464  23.753  19.050   8.250
 6556POPC   C3A29465  23.745  19.101   7.950
 6556POPC   C4A29466  23.711  19.025   7.650
 6556POPC   C1B29467  23.847  19.275   8.550
 6556POPC   C2B29468  23.864  19.232   8.250
 6556POPC   C3B29469  23.885  19.264   7.950
 6556POPC   C4B29470  23.900  19.234   7.650
 6557POPC   NC329471  43.892  33.842   9.450
 6557POPC   PO429472  43.865  33.808   9.150
 6557POPC   GL129473  43.854  33.810   8.850
 6557POPC   GL229474  43.807  33.856   8.850
 6557POPC   C1A29475  43.901  33.764   8.550
 6557POPC   D2A29476  43.893  33.822   8.250
 6557POPC   C3A29477  43.921  33.763   7.950
 6557POPC   C4A29478  43.895  33.794   7.650
 6557POPC   C1B29479  43.638  33.901   8.550
 6557POPC   C2B29480  43.670  33.829   8.250
 6557POPC   C3B29481  43.604  33.884   7.950
 6557POPC   C4B29482  43.602  33.849   7.650
 6558POPC   NC329483  42.364  32.232   9.450
 6558POPC   PO429484  42.354  32.209   9.150
 6558POPC   GL129485  42.372  32.202   8.850
 6558POPC   GL229486  42.411  32.236   8.850
 6558POPC   C1A29487  42.348  32.220   8.550
 6558POPC   D2A29488  42.378  32.214   8.250
 6558POPC   C3A29489  42.366  32.272   7.950
 6558POPC   C4A29490  42.333  32.206   7.650
 6558POPC   C1B29491  42.606  32.104   8.550
 6558POPC   C2B29492  42.550  32.194   8.250
 6558POPC   C3B29493  42.555  32.183   7.950
 6558POPC   C4B29494  42.562  32.163   7.650
 6559POPC   NC329495  18.257  32.279   9.450
 6559POPC   PO429496  18.249  32.204   9.150
 6559POPC   GL129497  18.257  32.277   8.850
 6559POPC   GL229498  18.368  32.367   8.850
 6559POPC   C1A29499  18.323  32.223   8.550
 6559POPC   D2A29500  18.235  32.232   8.250
 6559POPC   C3A29501  18.276  32.268   7.950
 6559POPC   C4A29502  18.301  32.242   7.650
 6559POPC   C1B29503  18.384  32.455   8.550
 6559POPC   C2B29504  18.445  32.510   8.250
 6559POPC   C3B29505  18.423  32.452   7.950
 6559POPC   C4B29506  18.383  32.442   7.650
 6560POPC   NC329507   8.177  15.177   9.450
 6560POPC   PO429508   8.169  15.204   9.150
 6560POPC   GL129509   8.191  15.207   8.850
 6560POPC   GL229510   8.213  15.090   8.850
 6560POPC   C1A29511   8.237  15.221   8.550
 6560POPC   D2A29512   8.236  15.215   8.250
 6560POPC   C3A29513   8.222  15.219   7.950
 6560POPC   C4A29514   8.188  15.229   7.650
 6560POPC   C1B29515   8.115  14.908   8.550
 6560POPC   C2B29516   8.132  14.930   8.250
 6560POPC   C3B29517   8.162  14.937   7.950
 6560POPC   C4B29518   8.114  14.910   7.650
 6561POPC   NC329519   1.261   3.513   9.450
 6561POPC   PO429520   1.173   3.575   9.150
 6561POPC   GL129521   1.225   3.581   8.850
 6561POPC   GL229522   1.106   3.513   8.850
 6561POPC   C1A29523   1.259   3.574   8.550
 6561POPC   D2A29524   1.176   3.591   8.250
 6561POPC   C3A29525   1.235   3.526   7.950
 6561POPC   C4A29526   1.253   3.541   7.650
 6561POPC   C1B29527   1.010   3.509   8.550
 6561POPC   C2B29528   0.978   3.493   8.250
 6561POPC   C3B29529   0.968   3.496   7.950
 6561POPC   C4B29530   0.996   3.518   7.650
 6562POPC   NC329531  12.898  23.706   9.450
 6562POPC   PO429532  12.856  23.745   9.150
 6562POPC   GL129533  12.831  23.701   8.850
 6562POPC   GL229534  12.766  23.627   8.850
 6562POPC   C1A29535  12.895  23.674   8.550
 6562POPC   D2A29536  12.877  23.737   8.250
 6562POPC   C3A29537  12.844  23.734   7.950
 6562POPC   C4A29538  12.819  23.689   7.650
 6562POPC   C1B29539  12.590  23.613   8.550
 6562POPC   C2B29540  12.625  23.684   8.250
 6562POPC   C3B29541  12.640  23.603   7.950
 6562POPC   C4B29542  12.594  23.608   7.650
 6563POPC   NC329543   1.251   6.615   9.450
 6563POPC   PO429544   1.177   6.620   9.150
 6563POPC   GL129545   1.175   6.667   8.850
 6563POPC   GL229546   1.081   6.600   8.850
 6563POPC   C1A29547   1.182   6.630   8.550
 6563POPC   D2A29548   1.198   6.622   8.250
 6563POPC   C3A29549   1.233   6.643   7.950
 6563POPC   C4A29550   1.213   6.693   7.650
 6563POPC   C1B29551   0.940   6.621   8.550
 6563POPC   C2B29552   0.977   6.689   8.250
 6563POPC   C3B29553   0.939   6.647   7.950
 6563POPC   C4B29554   0.951   6.689   7.650
 6564POPC   NC329555   5.916  17.556   9.450
 6564POPC   PO429556   5.858  17.507   9.150
 6564POPC   GL129557   5.842  17.498   8.850
 6564POPC   GL229558   5.816  17.541   8.850
 6564POPC   C1A29559   5.837  17.531   8.550
 6564POPC   D2A29560   5.890  17.511   8.250
 6564POPC   C3A29561   5.845  17.543   7.950
 6564POPC   C4A29562   5.872  17.489   7.650
 6564POPC   C1B29563   5.705  17.658   8.550
 6564POPC   C2B29564   5.645  17.691   8.250
 6564POPC   C3B29565   5.699  17.661   7.950
 6564POPC   C4B29566   5.649  17.683   7.650
 6565POPC   NC329567   5.108  43.110   9.450
 6565POPC   PO429568   5.059  43.132   9.150
 6565POPC   GL129569   5.120  43.080   8.850
 6565POPC   GL229570   4.955  42.996   8.850
 6565POPC   C1A29571   5.091  43.111   8.550
 6565POPC   D2A29572   5.118  43.107   8.250
 6565POPC   C3A29573   5.132  43.157   7.950
 6565POPC   C4A29574   5.076  43.093   7.650
 6565POPC   C1B29575   4.890  42.951   8.550
 6565POPC   C2B29576   4.930  42.952   8.250
 6565POPC   C3B29577   4.853  42.950   7.950
 6565POPC   C4B29578   4.858  42.998   7.650
 6566POPC   NC329579  36.953  21.344   9.450
 6566POPC   PO429580  36.947  21.391   9.150
 6566POPC   GL129581  36.892  21.412   8.850
 6566POPC   GL229582  36.967  21.319   8.850
 6566POPC   C1A29583  36.899  21.346   8.550
 6566POPC   D2A29584  36.931  21.409   8.250
 6566POPC   C3A29585  36.890  21.405   7.950
 6566POPC   C4A29586  36.940  21.339   7.650
 6566POPC   C1B29587  37.069  21.236   8.550
 6566POPC   C2B29588  37.037  21.172   8.250
 6566POPC   C3B29589  37.017  21.197   7.950
 6566POPC   C4B29590  37.067  21.201   7.650
 6567POPC   NC329591  29.134  38.427   9.450
 6567POPC   PO429592  29.108  38.408   9.150
 6567POPC   GL129593  29.120  38.492   8.850
 6567POPC   GL229594  29.073  38.371   8.850
 6567POPC   C1A29595  29.095  38.421   8.550
 6567POPC   D2A29596  29.152  38.419   8.250
 6567POPC   C3A29597  29.110  38.452   7.950
 6567POPC   C4A29598  29.150  38.490   7.650
 6567POPC   C1B29599  29.021  38.232   8.550
 6567POPC   C2B29600  28.992  38.212   8.250
 6567POPC   C3B29601  28.999  38.261   7.950
 6567POPC   C4B29602  28.957  38.215   7.650
 6568POPC   NC329603  21.344  23.671   9.450
 6568POPC   PO429604  21.340  23.689   9.150
 6568POPC   GL129605  21.398  23.742   8.850
 6568POPC   GL229606  21.351  23.584   8.850
 6568POPC   C1A29607  21.373  23.687   8.550
 6568POPC   D2A29608  21.425  23.740   8.250
 6568POPC   C3A29609  21.341  23.740   7.950
 6568POPC   C4A29610  21.429  23.741   7.650
 6568POPC   C1B29611  21.342  23.472   8.550
 6568POPC   C2B29612  21.335  23.514   8.250
 6568POPC   C3B29613  21.318  23.432   7.950
 6568POPC   C4B29614  21.283  23.517   7.650
 6569POPC   NC329615  35.381  10.515   9.450
 6569POPC   PO429616  35.364  10.495   9.150
 6569POPC   GL129617  35.395  10.516   8.850
 6569POPC   GL229618  35.419  10.599   8.850
 6569POPC   C1A29619  35.306  10.544   8.550
 6569POPC   D2A29620  35.385  10.560   8.250
 6569POPC   C3A29621  35.378  10.518   7.950
 6569POPC   C4A29622  35.363  10.548   7.650
 6569POPC   C1B29623  35.422  10.733   8.550
 6569POPC   C2B29624  35.480  10.731   8.250
 6569POPC   C3B29625  35.466  10.799   7.950
 6569POPC   C4B29626  35.461  10.722   7.650
 6570POPC   NC329627  43.079  40.802   9.450
 6570POPC   PO429628  43.125  40.795   9.150
 6570POPC   GL129629  43.129  40.811   8.850
 6570POPC   GL229630  43.139  40.922   8.850
 6570POPC   C1A29631  43.135  40.763   8.550
 6570POPC   D2A29632  43.159  40.812   8.250
 6570POPC   C3A29633  43.133  40.760   7.950
 6570POPC   C4A29634  43.112  40.818   7.650
 6570POPC   C1B29635  43.164  40.991   8.550
 6570POPC   C2B29636  43.142  41.064   8.250
 6570POPC   C3B29637  43.126  41.048   7.950
 6570POPC   C4B29638  43.197  40.982   7.650
 6571POPC   NC329639   4.347  33.043   9.450
 6571POPC   PO429640   4.305  33.028   9.150
 6571POPC   GL129641   4.319  33.043   8.850
 6571POPC   GL229642   4.346  32.868   8.850
 6571POPC   C1A29643   4.341  33.041   8.550
 6571POPC   D2A29644   4.302  33.057   8.250
 6571POPC   C3A29645   4.301  33.002   7.950
 6571POPC   C4A29646   4.310  32.977   7.650
 6571POPC   C1B29647   4.335  32.742   8.550
 6571POPC   C2B29648   4.330  32.815   8.250
 6571POPC   C3B29649   4.332  32.751   7.950
 6571POPC   C4B29650   4.316  32.807   7.650
 6572POPC   NC329651  10.548  21.354   9.450
 6572POPC   PO429652  10.511  21.436   9.150
 6572POPC   GL129653  10.530  21.386   8.850
 6572POPC   GL229654  10.425  21.497   8.850
 6572POPC   C1A29655  10.505  21.419   8.550
 6572POPC   D2A29656  10.498  21.338   8.250
 6572POPC   C3A29657  10.540  21.390   7.950
 6572POPC   C4A29658  10.490  21.396   7.650
 6572POPC   C1B29659  10.274  21.493   8.550
 6572POPC   C2B29660  10.356  21.519   8.250
 6572POPC   C3B29661  10.351  21.528   7.950
 6572POPC   C4B29662  10.320  21.552   7.650
 6573POPC   NC329663   2.766  37.663   9.450
 6573POPC   PO429664   2.793  37.655   9.150
 6573POPC   GL129665   2.815  37.637   8.850
 6573POPC   GL229666   2.849  37.655   8.850
 6573POPC   C1A29667   2.770  37.652   8.550
 6573POPC   D2A29668   2.787  37.713   8.250
 6573POPC   C3A29669   2.762  37.681   7.950
 6573POPC   C4A29670   2.779  37.659   7.650
 6573POPC   C1B29671   3.011  37.660   8.550
 6573POPC   C2B29672   2.966  37.653   8.250
 6573POPC   C3B29673   2.970  37.621   7.950
 6573POPC   C4B29674   3.052  37.602   7.650
 6574POPC   NC329675   5.130  31.489   9.450
 6574POPC   PO429676   5.111  31.490   9.150
 6574POPC   GL129677   5.094  31.435   8.850
 6574POPC   GL229678   5.027  31.321   8.850
 6574POPC   C1A29679   5.118  31.503   8.550
 6574POPC   D2A29680   5.046  31.492   8.250
 6574POPC   C3A29681   5.141  31.447   7.950
 6574POPC   C4A29682   5.049  31.456   7.650
 6574POPC   C1B29683   4.995  31.290   8.550
 6574POPC   C2B29684   4.910  31.314   8.250
 6574POPC   C3B29685   4.903  31.222   7.950
 6574POPC   C4B29686   4.902  31.314   7.650
 6575POPC   NC329687  36.157  20.604   9.450
 6575POPC   PO429688  36.083  20.590   9.150
 6575POPC   GL129689  36.175  20.648   8.850
 6575POPC   GL229690  36.221  20.564   8.850
 6575POPC   C1A29691  36.147  20.591   8.550
 6575POPC   D2A29692  36.172  20.616   8.250
 6575POPC   C3A29693  36.133  20.619   7.950
 6575POPC   C4A29694  36.090  20.648   7.650
 6575POPC   C1B29695  36.394  20.513   8.550
 6575POPC   C2B29696  36.390  20.557   8.250
 6575POPC   C3B29697  36.388  20.549   7.950
 6575POPC   C4B29698  36.414  20.583   7.650
 6576POPC   NC329699  21.380   6.610   9.450
 6576POPC   PO429700  21.382   6.623   9.150
 6576POPC   GL129701  21.399   6.600   8.850
 6576POPC   GL229702  21.249   6.641   8.850
 6576POPC   C1A29703  21.347   6.674   8.550
 6576POPC   D2A29704  21.346   6.601   8.250
 6576POPC   C3A29705  21.406   6.685   7.950
 6576POPC   C4A29706  21.348   6.665   7.650
 6576POPC   C1B29707  21.133   6.668   8.550
 6576POPC   C2B29708  21.184   6.615   8.250
 6576POPC   C3B29709  21.160   6.644   7.950
 6576POPC   C4B29710  21.109   6.583   7.650
 6577POPC   NC329711  35.304  18.328   9.450
 6577POPC   PO429712  35.354  18.243   9.150
 6577POPC   GL129713  35.364  18.271   8.850
 6577POPC   GL229714  35.412  18.369   8.850
 6577POPC   C1A29715  35.320  18.264   8.550
 6577POPC   D2A29716  35.352  18.280   8.250
 6577POPC   C3A29717  35.319  18.251   7.950
 6577POPC   C4A29718  35.361  18.332   7.650
 6577POPC   C1B29719  35.471  18.542   8.550
 6577POPC   C2B29720  35.476  18.484   8.250
 6577POPC   C3B29721  35.522  18.527   7.950
 6577POPC   C4B29722  35.500  18.478   7.650
 6578POPC   NC329723   7.418  28.388   9.450
 6578POPC   PO429724   7.371  28.369   9.150
 6578POPC   GL129725   7.462  28.419   8.850
 6578POPC   GL229726   7.417  28.245   8.850
 6578POPC   C1A29727   7.377  28.412   8.550
 6578POPC   D2A29728   7.452  28.343   8.250
 6578POPC   C3A29729   7.468  28.392   7.950
 6578POPC   C4A29730   7.428  28.411   7.650
 6578POPC   C1B29731   7.288  28.132   8.550
 6578POPC   C2B29732   7.352  28.109   8.250
 6578POPC   C3B29733   7.306  28.166   7.950
 6578POPC   C4B29734   7.387  28.165   7.650
 6579POPC   NC329735  19.837  12.114   9.450
 6579POPC   PO429736  19.831  12.097   9.150
 6579POPC   GL129737  19.793  12.040   8.850
 6579POPC   GL229738  19.729  12.186   8.850
 6579POPC   C1A29739  19.802  12.040   8.550
 6579POPC   D2A29740  19.855  12.033   8.250
 6579POPC   C3A29741  19.843  12.043   7.950
 6579POPC   C4A29742  19.862  12.084   7.650
 6579POPC   C1B29743  19.625  12.250   8.550
 6579POPC   C2B29744  19.646  12.199   8.250
 6579POPC   C3B29745  19.586  12.178   7.950
 6579POPC   C4B29746  19.622  12.176   7.650
 6580POPC   NC329747  11.326   5.049   9.450
 6580POPC   PO429748  11.276   5.142   9.150
 6580POPC   GL129749  11.269   5.107   8.850
 6580POPC   GL229750  11.240   5.039   8.850
 6580POPC   C1A29751  11.263   5.054   8.550
 6580POPC   D2A29752  11.318   5.109   8.250
 6580POPC   C3A29753  11.286   5.100   7.950
 6580POPC   C4A29754  11.267   5.055   7.650
 6580POPC   C1B29755  11.168   4.858   8.550
 6580POPC   C2B29756  11.134   4.875   8.250
 6580POPC   C3B29757  11.170   4.910   7.950
 6580POPC   C4B29758  11.105   4.924   7.650
 6581POPC   NC329759  31.460   0.463   9.450
 6581POPC   PO429760  31.513   0.417   9.150
 6581POPC   GL129761  31.443   0.472   8.850
 6581POPC   GL229762  31.540   0.564   8.850
 6581POPC   C1A29763  31.468   0.408   8.550
 6581POPC   D2A29764  31.442   0.484   8.250
 6581POPC   C3A29765  31.506   0.441   7.950
 6581POPC   C4A29766  31.470   0.456   7.650
 6581POPC   C1B29767  31.477   0.710   8.550
 6581POPC   C2B29768  31.477   0.650   8.250
 6581POPC   C3B29769  31.527   0.697   7.950
 6581POPC   C4B29770  31.493   0.663   7.650
 6582POPC   NC329771  21.423  43.087   9.450
 6582POPC   PO429772  21.426  43.089   9.150
 6582POPC   GL129773  21.390  43.158   8.850
 6582POPC   GL229774  21.358  42.999   8.850
 6582POPC   C1A29775  21.395  43.084   8.550
 6582POPC   D2A29776  21.417  43.145   8.250
 6582POPC   C3A29777  21.420  43.065   7.950
 6582POPC   C4A29778  21.341  43.123   7.650
 6582POPC   C1B29779  21.341  42.901   8.550
 6582POPC   C2B29780  21.362  42.898   8.250
 6582POPC   C3B29781  21.313  42.866   7.950
 6582POPC   C4B29782  21.345  42.901   7.650
 6583POPC   NC329783  41.562  19.878   9.450
 6583POPC   PO429784  41.558  19.831   9.150
 6583POPC   GL129785  41.532  19.801   8.850
 6583POPC   GL229786  41.639  19.869   8.850
 6583POPC   C1A29787  41.538  19.858   8.550
 6583POPC   D2A29788  41.568  19.785   8.250
 6583POPC   C3A29789  41.513  19.818   7.950
 6583POPC   C4A29790  41.542  19.823   7.650
 6583POPC   C1B29791  41.760  19.916   8.550
 6583POPC   C2B29792  41.733  19.977   8.250
 6583POPC   C3B29793  41.756  19.992   7.950
 6583POPC   C4B29794  41.734  19.928   7.650
 6584POPC   NC329795  40.029   0.430   9.450
 6584POPC   PO429796  40.044   0.457   9.150
 6584POPC   GL129797  39.991   0.410   8.850
 6584POPC   GL229798  40.095   0.384   8.850
 6584POPC   C1A29799  39.968   0.399   8.550
 6584POPC   D2A29800  40.011   0.448   8.250
 6584POPC   C3A29801  39.976   0.452   7.950
 6584POPC   C4A29802  40.052   0.460   7.650
 6584POPC   C1B29803  40.208   0.284   8.550
 6584POPC   C2B29804  40.228   0.337   8.250
 6584POPC   C3B29805  40.232   0.276   7.950
 6584POPC   C4B29806  40.219   0.300   7.650
 6585POPC   NC329807  24.531   5.118   9.450
 6585POPC   PO429808  24.533   5.076   9.150
 6585POPC   GL129809  24.497   5.124   8.850
 6585POPC   GL229810  24.348   5.183   8.850
 6585POPC   C1A29811  24.535   5.066   8.550
 6585POPC   D2A29812  24.499   5.047   8.250
 6585POPC   C3A29813  24.526   5.084   7.950
 6585POPC   C4A29814  24.495   5.129   7.650
 6585POPC   C1B29815  24.272   5.224   8.550
 6585POPC   C2B29816  24.231   5.220   8.250
 6585POPC   C3B29817  24.267   5.175   7.950
 6585POPC   C4B29818  24.300   5.258   7.650
 6586POPC   NC329819  31.469   2.006   9.450
 6586POPC   PO429820  31.499   1.943   9.150
 6586POPC   GL129821  31.485   1.980   8.850
 6586POPC   GL229822  31.589   2.049   8.850
 6586POPC   C1A29823  31.519   2.038   8.550
 6586POPC   D2A29824  31.449   2.032   8.250
 6586POPC   C3A29825  31.428   1.949   7.950
 6586POPC   C4A29826  31.459   1.973   7.650
 6586POPC   C1B29827  31.725   2.149   8.550
 6586POPC   C2B29828  31.636   2.128   8.250
 6586POPC   C3B29829  31.729   2.084   7.950
 6586POPC   C4B29830  31.663   2.114   7.650
 6587POPC   NC329831  29.898  16.743   9.450
 6587POPC   PO429832  29.966  16.778   9.150
 6587POPC   GL129833  29.962  16.763   8.850
 6587POPC   GL229834  30.043  16.666   8.850
 6587POPC   C1A29835  29.945  16.774   8.550
 6587POPC   D2A29836  29.953  16.723   8.250
 6587POPC   C3A29837  29.941  16.686   7.950
 6587POPC   C4A29838  29.886  16.740   7.650
 6587POPC   C1B29839  30.195  16.675   8.550
 6587POPC   C2B29840  30.206  16.697   8.250
 6587POPC   C3B29841  30.129  16.713   7.950
 6587POPC   C4B29842  30.137  16.664   7.650
 6588POPC   NC329843   1.178  19.047   9.450
 6588POPC   PO429844   1.217  19.042   9.150
 6588POPC   GL129845   1.224  19.079   8.850
 6588POPC   GL229846   1.046  19.030   8.850
 6588POPC   C1A29847   1.182  19.062   8.550
 6588POPC   D2A29848   1.169  19.035   8.250
 6588POPC   C3A29849   1.257  19.029   7.950
 6588POPC   C4A29850   1.226  19.081   7.650
 6588POPC   C1B29851   0.951  19.080   8.550
 6588POPC   C2B29852   1.009  19.043   8.250
 6588POPC   C3B29853   0.968  19.102   7.950
 6588POPC   C4B29854   0.936  19.085   7.650
 6589POPC   NC329855  30.702  34.596   9.450
 6589POPC   PO429856  30.727  34.597   9.150
 6589POPC   GL129857  30.662  34.532   8.850
 6589POPC   GL229858  30.572  34.556   8.850
 6589POPC   C1A29859  30.667  34.563   8.550
 6589POPC   D2A29860  30.712  34.558   8.250
 6589POPC   C3A29861  30.694  34.560   7.950
 6589POPC   C4A29862  30.668  34.562   7.650
 6589POPC   C1B29863  30.494  34.666   8.550
 6589POPC   C2B29864  30.412  34.580   8.250
 6589POPC   C3B29865  30.501  34.618   7.950
 6589POPC   C4B29866  30.445  34.630   7.650
 6590POPC   NC329867  15.195  25.295   9.450
 6590POPC   PO429868  15.196  25.238   9.150
 6590POPC   GL129869  15.187  25.237   8.850
 6590POPC   GL229870  15.160  25.410   8.850
 6590POPC   C1A29871  15.153  25.297   8.550
 6590POPC   D2A29872  15.168  25.249   8.250
 6590POPC   C3A29873  15.157  25.221   7.950
 6590POPC   C4A29874  15.222  25.295   7.650
 6590POPC   C1B29875  15.123  25.550   8.550
 6590POPC   C2B29876  15.141  25.547   8.250
 6590POPC   C3B29877  15.135  25.471   7.950
 6590POPC   C4B29878  15.108  25.503   7.650
 6591POPC   NC329879   5.119   1.203   9.450
 6591POPC   PO429880   5.087   1.178   9.150
 6591POPC   GL129881   5.076   1.236   8.850
 6591POPC   GL229882   4.980   1.319   8.850
 6591POPC   C1A29883   5.051   1.185   8.550
 6591POPC   D2A29884   5.083   1.231   8.250
 6591POPC   C3A29885   5.099   1.190   7.950
 6591POPC   C4A29886   5.133   1.236   7.650
 6591POPC   C1B29887   4.925   1.309   8.550
 6591POPC   C2B29888   4.924   1.373   8.250
 6591POPC   C3B29889   4.914   1.327   7.950
 6591POPC   C4B29890   4.932   1.344   7.650
 6592POPC   NC329891  13.669  33.060   9.450
 6592POPC   PO429892  13.659  33.048   9.150
 6592POPC   GL129893  13.581  33.053   8.850
 6592POPC   GL229894  13.563  33.112   8.850
 6592POPC   C1A29895  13.603  33.059   8.550
 6592POPC   D2A29896  13.582  33.048   8.250
 6592POPC   C3A29897  13.634  33.052   7.950
 6592POPC   C4A29898  13.603  33.038   7.650
 6592POPC   C1B29899  13.449  33.213   8.550
 6592POPC   C2B29900  13.407  33.198   8.250
 6592POPC   C3B29901  13.442  33.192   7.950
 6592POPC   C4B29902  13.406  33.206   7.650
 6593POPC   NC329903  40.792   3.522   9.450
 6593POPC   PO429904  40.766   3.510   9.150
 6593POPC   GL129905  40.742   3.503   8.850
 6593POPC   GL229906  40.856   3.419   8.850
 6593POPC   C1A29907  40.811   3.528   8.550
 6593POPC   D2A29908  40.755   3.587   8.250
 6593POPC   C3A29909  40.796   3.528   7.950
 6593POPC   C4A29910  40.744   3.575   7.650
 6593POPC   C1B29911  40.989   3.407   8.550
 6593POPC   C2B29912  41.027   3.350   8.250
 6593POPC   C3B29913  40.957   3.394   7.950
 6593POPC   C4B29914  40.977   3.424   7.650
 6594POPC   NC329915  11.309  30.666   9.450
 6594POPC   PO429916  11.328  30.690   9.150
 6594POPC   GL129917  11.271  30.700   8.850
 6594POPC   GL229918  11.188  30.675   8.850
 6594POPC   C1A29919  11.333  30.716   8.550
 6594POPC   D2A29920  11.298  30.689   8.250
 6594POPC   C3A29921  11.300  30.666   7.950
 6594POPC   C4A29922  11.306  30.670   7.650
 6594POPC   C1B29923  11.088  30.741   8.550
 6594POPC   C2B29924  11.058  30.718   8.250
 6594POPC   C3B29925  11.057  30.739   7.950
 6594POPC   C4B29926  11.080  30.712   7.650
 6595POPC   NC329927   3.590  30.690   9.450
 6595POPC   PO429928   3.570  30.684   9.150
 6595POPC   GL129929   3.574  30.689   8.850
 6595POPC   GL229930   3.635  30.695   8.850
 6595POPC   C1A29931   3.527  30.724   8.550
 6595POPC   D2A29932   3.500  30.706   8.250
 6595POPC   C3A29933   3.585  30.677   7.950
 6595POPC   C4A29934   3.516  30.711   7.650
 6595POPC   C1B29935   3.765  30.599   8.550
 6595POPC   C2B29936   3.779  30.611   8.250
 6595POPC   C3B29937   3.811  30.642   7.950
 6595POPC   C4B29938   3.744  30.639   7.650
 6596POPC   NC329939  13.609  39.995   9.450
 6596POPC   PO429940  13.623  40.014   9.150
 6596POPC   GL129941  13.620  40.031   8.850
 6596POPC   GL229942  13.757  40.105   8.850
 6596POPC   C1A29943  13.599  40.038   8.550
 6596POPC   D2A29944  13.643  39.974   8.250
 6596POPC   C3A29945  13.612  40.023   7.950
 6596POPC   C4A29946  13.661  40.039   7.650
 6596POPC   C1B29947  13.785  40.224   8.550
 6596POPC   C2B29948  13.824  40.160   8.250
 6596POPC   C3B29949  13.850  40.158   7.950
 6596POPC   C4B29950  13.820  40.212   7.650
 6597POPC   NC329951  15.159  15.217   9.450
 6597POPC   PO429952  15.187  15.212   9.150
 6597POPC   GL129953  15.199  15.180   8.850
 6597POPC   GL229954  15.089  15.155   8.850
 6597POPC   C1A29955  15.181  15.175   8.550
 6597POPC   D2A29956  15.196  15.215   8.250
 6597POPC   C3A29957  15.213  15.193   7.950
 6597POPC   C4A29958  15.134  15.217   7.650
 6597POPC   C1B29959  14.983  15.085   8.550
 6597POPC   C2B29960  14.971  15.112   8.250
 6597POPC   C3B29961  14.911  15.043   7.950
 6597POPC   C4B29962  14.927  15.088   7.650
 6598POPC   NC329963  19.875  32.256   9.450
 6598POPC   PO429964  19.858  32.254   9.150
 6598POPC   GL129965  19.796  32.218   8.850
 6598POPC   GL229966  19.948  32.206   8.850
 6598POPC   C1A29967  19.871  32.278   8.550
 6598POPC   D2A29968  19.826  32.253   8.250
 6598POPC   C3A29969  19.821  32.281   7.950
 6598POPC   C4A29970  19.876  32.255   7.650
 6598POPC   C1B29971  20.053  32.126   8.550
 6598POPC   C2B29972  20.106  32.176   8.250
 6598POPC   C3B29973  20.065  32.150   7.950
 6598POPC   C4B29974  20.078  32.096   7.650
 6599POPC   NC329975  36.081  23.677   9.450
 6599POPC   PO429976  36.131  23.731   9.150
 6599POPC   GL129977  36.148  23.727   8.850
 6599POPC   GL229978  36.008  23.752   8.850
 6599POPC   C1A29979  36.162  23.710   8.550
 6599POPC   D2A29980  36.176  23.682   8.250
 6599POPC   C3A29981  36.107  23.730   7.950
 6599POPC   C4A29982  36.106  23.761   7.650
 6599POPC   C1B29983  35.927  23.708   8.550
 6599POPC   C2B29984  35.922  23.699   8.250
 6599POPC   C3B29985  35.879  23.688   7.950
 6599POPC   C4B29986  35.858  23.722   7.650
 6600POPC   NC329987  30.716   9.011   9.450
 6600POPC   PO429988  30.738   8.931   9.150
 6600POPC   GL129989  30.698   8.937   8.850
 6600POPC   GL229990  30.794   9.101   8.850
 6600POPC   C1A29991  30.666   8.958   8.550
 6600POPC   D2A29992  30.663   8.930   8.250
 6600POPC   C3A29993  30.715   8.924   7.950
 6600POPC   C4A29994  30.663   8.970   7.650
 6600POPC   C1B29995  30.812   9.196   8.550
 6600POPC   C2B29996  30.891   9.182   8.250
 6600POPC   C3B29997  30.862   9.117   7.950
 6600POPC   C4B29998  30.830   9.163   7.650
 6601POPC   NC329999  36.136  44.706   9.450
 6601POPC   PO430000  36.095  44.625   9.150
 6601POPC   GL130001  36.147  44.630   8.850
 6601POPC   GL230002  36.234  44.767   8.850
 6601POPC   C1A30003  36.138  44.708   8.550
 6601POPC   D2A30004  36.122  44.660   8.250
 6601POPC   C3A30005  36.093  44.647   7.950
 6601POPC   C4A30006  36.096  44.686   7.650
 6601POPC   C1B30007  36.294  44.913   8.550
 6601POPC   C2B30008  36.270  44.909   8.250
 6601POPC   C3B30009  36.233  44.861   7.950
 6601POPC   C4B30010  36.236  44.887   7.650
 6602POPC   NC330011   1.974  44.642   9.450
 6602POPC   PO430012   2.038  44.639   9.150
 6602POPC   GL130013   1.969  44.702   8.850
 6602POPC   GL230014   1.917  44.688   8.850
 6602POPC   C1A30015   1.985  44.631   8.550
 6602POPC   D2A30016   1.956  44.691   8.250
 6602POPC   C3A30017   2.003  44.619   7.950
 6602POPC   C4A30018   1.975  44.632   7.650
 6602POPC   C1B30019   1.808  44.783   8.550
 6602POPC   C2B30020   1.775  44.777   8.250
 6602POPC   C3B30021   1.742  44.788   7.950
 6602POPC   C4B30022   1.725  44.771   7.650
 6603POPC   NC330023  26.767  24.505   9.450
 6603POPC   PO430024  26.832  24.519   9.150
 6603POPC   GL130025  26.823  24.537   8.850
 6603POPC   GL230026  26.843  24.569   8.850
 6603POPC   C1A30027  26.844  24.446   8.550
 6603POPC   D2A30028  26.825  24.442   8.250
 6603POPC   C3A30029  26.768  24.508   7.950
 6603POPC   C4A30030  26.778  24.504   7.650
 6603POPC   C1B30031  26.792  24.774   8.550
 6603POPC   C2B30032  26.813  24.781   8.250
 6603POPC   C3B30033  26.765  24.744   7.950
 6603POPC   C4B30034  26.784  24.737   7.650
 6604POPC   NC330035   5.120  20.599   9.450
 6604POPC   PO430036   5.127  20.592   9.150
 6604POPC   GL130037   5.134  20.581   8.850
 6604POPC   GL230038   4.978  20.608   8.850
 6604POPC   C1A30039   5.135  20.657   8.550
 6604POPC   D2A30040   5.111  20.635   8.250
 6604POPC   C3A30041   5.110  20.585   7.950
 6604POPC   C4A30042   5.097  20.625   7.650
 6604POPC   C1B30043   4.856  20.638   8.550
 6604POPC   C2B30044   4.872  20.646   8.250
 6604POPC   C3B30045   4.869  20.673   7.950
 6604POPC   C4B30046   4.832  20.647   7.650
 6605POPC   NC330047  34.601  25.232   9.450
 6605POPC   PO430048  34.533  25.241   9.150
 6605POPC   GL130049  34.611  25.280   8.850
 6605POPC   GL230050  34.474  25.288   8.850
 6605POPC   C1A30051  34.553  25.242   8.550
 6605POPC   D2A30052  34.552  25.300   8.250
 6605POPC   C3A30053  34.615  25.246   7.950
 6605POPC   C4A30054  34.549  25.299   7.650
 6605POPC   C1B30055  34.387  25.346   8.550
 6605POPC   C2B30056  34.310  25.326   8.250
 6605POPC   C3B30057  34.291  25.298   7.950
 6605POPC   C4B30058  34.359  25.347   7.650
 6606POPC   NC330059  29.177  37.645   9.450
 6606POPC   PO430060  29.182  37.635   9.150
 6606POPC   GL130061  29.108  37.687   8.850
 6606POPC   GL230062  29.010  37.595   8.850
 6606POPC   C1A30063  29.185  37.703   8.550
 6606POPC   D2A30064  29.191  37.676   8.250
 6606POPC   C3A30065  29.151  37.666   7.950
 6606POPC   C4A30066  29.107  37.697   7.650
 6606POPC   C1B30067  28.961  37.473   8.550
 6606POPC   C2B30068  28.911  37.496   8.250
 6606POPC   C3B30069  28.911  37.556   7.950
 6606POPC   C4B30070  28.929  37.533   7.650
 6607POPC   NC330071  15.937  28.417   9.450
 6607POPC   PO430072  15.958  28.358   9.150
 6607POPC   GL130073  15.993  28.385   8.850
 6607POPC   GL230074  16.093  28.422   8.850
 6607POPC   C1A30075  15.919  28.390   8.550
 6607POPC   D2A30076  15.920  28.361   8.250
 6607POPC   C3A30077  16.003  28.362   7.950
 6607POPC   C4A30078  15.924  28.345   7.650
 6607POPC   C1B30079  16.151  28.482   8.550
 6607POPC   C2B30080  16.192  28.465   8.250
 6607POPC   C3B30081  16.164  28.476   7.950
 6607POPC   C4B30082  16.141  28.506   7.650
 6608POPC   NC330083  33.811  33.802   9.450
 6608POPC   PO430084  33.767  33.807   9.150
 6608POPC   GL130085  33.761  33.800   8.850
 6608POPC   GL230086  33.898  33.926   8.850
 6608POPC   C1A30087  33.826  33.779   8.550
 6608POPC   D2A30088  33.796  33.836   8.250
 6608POPC   C3A30089  33.828  33.791   7.950
 6608POPC   C4A30090  33.804  33.798   7.650
 6608POPC   C1B30091  33.899  34.038   8.550
 6608POPC   C2B30092  33.948  34.034   8.250
 6608POPC   C3B30093  33.865  34.047   7.950
 6608POPC   C4B30094  33.922  33.993   7.650
 6609POPC   NC330095  19.066  21.402   9.450
 6609POPC   PO430096  19.041  21.371   9.150
 6609POPC   GL130097  19.054  21.414   8.850
 6609POPC   GL230098  19.054  21.471   8.850
 6609POPC   C1A30099  19.072  21.340   8.550
 6609POPC   D2A30100  19.014  21.410   8.250
 6609POPC   C3A30101  19.080  21.385   7.950
 6609POPC   C4A30102  19.064  21.371   7.650
 6609POPC   C1B30103  19.122  21.611   8.550
 6609POPC   C2B30104  19.073  21.649   8.250
 6609POPC   C3B30105  19.145  21.676   7.950
 6609POPC   C4B30106  19.078  21.636   7.650
 6610POPC   NC330107  34.609  37.710   9.450
 6610POPC   PO430108  34.622  37.724   9.150
 6610POPC   GL130109  34.607  37.708   8.850
 6610POPC   GL230110  34.639  37.576   8.850
 6610POPC   C1A30111  34.600  37.708   8.550
 6610POPC   D2A30112  34.600  37.676   8.250
 6610POPC   C3A30113  34.607  37.682   7.950
 6610POPC   C4A30114  34.549  37.720   7.650
 6610POPC   C1B30115  34.791  37.559   8.550
 6610POPC   C2B30116  34.832  37.584   8.250
 6610POPC   C3B30117  34.782  37.541   7.950
 6610POPC   C4B30118  34.810  37.605   7.650
 6611POPC   NC330119  32.978  31.504   9.450
 6611POPC   PO430120  33.056  31.472   9.150
 6611POPC   GL130121  33.030  31.508   8.850
 6611POPC   GL230122  33.055  31.411   8.850
 6611POPC   C1A30123  33.043  31.507   8.550
 6611POPC   D2A30124  33.061  31.470   8.250
 6611POPC   C3A30125  33.024  31.482   7.950
 6611POPC   C4A30126  33.027  31.446   7.650
 6611POPC   C1B30127  33.134  31.262   8.550
 6611POPC   C2B30128  33.212  31.224   8.250
 6611POPC   C3B30129  33.188  31.245   7.950
 6611POPC   C4B30130  33.130  31.238   7.650
 6612POPC   NC330131   8.225  38.504   9.450
 6612POPC   PO430132   8.162  38.492   9.150
 6612POPC   GL130133   8.244  38.423   8.850
 6612POPC   GL230134   8.118  38.388   8.850
 6612POPC   C1A30135   8.191  38.483   8.550
 6612POPC   D2A30136   8.230  38.432   8.250
 6612POPC   C3A30137   8.226  38.432   7.950
 6612POPC   C4A30138   8.186  38.492   7.650
 6612POPC   C1B30139   8.063  38.320   8.550
 6612POPC   C2B30140   8.064  38.279   8.250
 6612POPC   C3B30141   8.019  38.276   7.950
 6612POPC   C4B30142   7.982  38.296   7.650
 6613POPC   NC330143  34.586  19.797   9.450
 6613POPC   PO430144  34.551  19.874   9.150
 6613POPC   GL130145  34.529  19.841   8.850
 6613POPC   GL230146  34.698  19.787   8.850
 6613POPC   C1A30147  34.623  19.878   8.550
 6613POPC   D2A30148  34.623  19.791   8.250
 6613POPC   C3A30149  34.545  19.813   7.950
 6613POPC   C4A30150  34.591  19.880   7.650
 6613POPC   C1B30151  34.726  19.656   8.550
 6613POPC   C2B30152  34.808  19.641   8.250
 6613POPC   C3B30153  34.786  19.636   7.950
 6613POPC   C4B30154  34.767  19.657   7.650
 6614POPC   NC330155   0.439  44.649   9.450
 6614POPC   PO430156   0.477  44.663   9.150
 6614POPC   GL130157   0.428  44.693   8.850
 6614POPC   GL230158   0.532  44.679   8.850
 6614POPC   C1A30159   0.462  44.698   8.550
 6614POPC   D2A30160   0.461  44.691   8.250
 6614POPC   C3A30161   0.474  44.661   7.950
 6614POPC   C4A30162   0.486  44.665   7.650
 6614POPC   C1B30163   0.725  44.685   8.550
 6614POPC   C2B30164   0.685  44.741   8.250
 6614POPC   C3B30165   0.701  44.757   7.950
 6614POPC   C4B30166   0.705  44.745   7.650
 6615POPC   NC330167  32.240  20.562   9.450
 6615POPC   PO430168  32.280  20.633   9.150
 6615POPC   GL130169  32.232  20.577   8.850
 6615POPC   GL230170  32.340  20.639   8.850
 6615POPC   C1A30171  32.238  20.624   8.550
 6615POPC   D2A30172  32.251  20.640   8.250
 6615POPC   C3A30173  32.249  20.629   7.950
 6615POPC   C4A30174  32.275  20.600   7.650
 6615POPC   C1B30175  32.518  20.747   8.550
 6615POPC   C2B30176  32.446  20.683   8.250
 6615POPC   C3B30177  32.461  20.718   7.950
 6615POPC   C4B30178  32.448  20.694   7.650
 6616POPC   NC330179  34.612  41.594   9.450
 6616POPC   PO430180  34.570  41.532   9.150
 6616POPC   GL130181  34.541  41.572   8.850
 6616POPC   GL230182  34.446  41.540   8.850
 6616POPC   C1A30183  34.580  41.527   8.550
 6616POPC   D2A30184  34.570  41.517   8.250
 6616POPC   C3A30185  34.607  41.598   7.950
 6616POPC   C4A30186  34.615  41.597   7.650
 6616POPC   C1B30187  34.325  41.582   8.550
 6616POPC   C2B30188  34.338  41.629   8.250
 6616POPC   C3B30189  34.371  41.551   7.950
 6616POPC   C4B30190  34.346  41.583   7.650
 6617POPC   NC330191   1.235  38.495   9.450
 6617POPC   PO430192   1.219  38.441   9.150
 6617POPC   GL130193   1.261  38.502   8.850
 6617POPC   GL230194   1.374  38.479   8.850
 6617POPC   C1A30195   1.244  38.491   8.550
 6617POPC   D2A30196   1.253  38.421   8.250
 6617POPC   C3A30197   1.183  38.408   7.950
 6617POPC   C4A30198   1.189  38.465   7.650
 6617POPC   C1B30199   1.432  38.492   8.550
 6617POPC   C2B30200   1.452  38.522   8.250
 6617POPC   C3B30201   1.472  38.470   7.950
 6617POPC   C4B30202   1.511  38.473   7.650
 6618POPC   NC330203  18.308  33.804   9.450
 6618POPC   PO430204  18.264  33.758   9.150
 6618POPC   GL130205  18.323  33.768   8.850
 6618POPC   GL230206  18.160  33.866   8.850
 6618POPC   C1A30207  18.270  33.829   8.550
 6618POPC   D2A30208  18.246  33.832   8.250
 6618POPC   C3A30209  18.316  33.766   7.950
 6618POPC   C4A30210  18.267  33.811   7.650
 6618POPC   C1B30211  18.057  33.960   8.550
 6618POPC   C2B30212  18.042  33.979   8.250
 6618POPC   C3B30213  18.115  33.961   7.950
 6618POPC   C4B30214  18.056  33.926   7.650
 6619POPC   NC330215   5.833  36.137   9.450
 6619POPC   PO430216   5.889  36.165   9.150
 6619POPC   GL130217   5.876  36.133   8.850
 6619POPC   GL230218   5.971  36.135   8.850
 6619POPC   C1A30219   5.906  36.177   8.550
 6619POPC   D2A30220   5.910  36.086   8.250
 6619POPC   C3A30221   5.853  36.167   7.950
 6619POPC   C4A30222   5.883  36.161   7.650
 6619POPC   C1B30223   6.166  36.148   8.550
 6619POPC   C2B30224   6.120  36.184   8.250
 6619POPC   C3B30225   6.083  36.147   7.950
 6619POPC   C4B30226   6.157  36.103   7.650
 6620POPC   NC330227  22.898  19.064   9.450
 6620POPC   PO430228  22.907  19.047   9.150
 6620POPC   GL130229  22.943  19.012   8.850
 6620POPC   GL230230  23.077  19.062   8.850
 6620POPC   C1A30231  22.950  19.074   8.550
 6620POPC   D2A30232  22.966  19.103   8.250
 6620POPC   C3A30233  22.893  19.070   7.950
 6620POPC   C4A30234  22.907  19.093   7.650
 6620POPC   C1B30235  23.186  19.032   8.550
 6620POPC   C2B30236  23.135  19.005   8.250
 6620POPC   C3B30237  23.196  19.028   7.950
 6620POPC   C4B30238  23.188  19.056   7.650
 6621POPC   NC330239  43.128  43.895   9.450
 6621POPC   PO430240  43.105  43.845   9.150
 6621POPC   GL130241  43.155  43.846   8.850
 6621POPC   GL230242  43.007  44.046   8.850
 6621POPC   C1A30243  43.155  43.855   8.550
 6621POPC   D2A30244  43.143  43.841   8.250
 6621POPC   C3A30245  43.063  43.857   7.950
 6621POPC   C4A30246  43.127  43.849   7.650
 6621POPC   C1B30247  42.992  44.127   8.550
 6621POPC   C2B30248  43.041  44.147   8.250
 6621POPC   C3B30249  43.045  44.062   7.950
 6621POPC   C4B30250  43.033  44.077   7.650
 6622POPC   NC330251  22.981  15.942   9.450
 6622POPC   PO430252  22.952  15.953   9.150
 6622POPC   GL130253  22.955  15.971   8.850
 6622POPC   GL230254  23.062  15.905   8.850
 6622POPC   C1A30255  22.933  15.910   8.550
 6622POPC   D2A30256  22.977  15.947   8.250
 6622POPC   C3A30257  22.951  15.960   7.950
 6622POPC   C4A30258  22.928  15.918   7.650
 6622POPC   C1B30259  23.131  15.848   8.550
 6622POPC   C2B30260  23.115  15.779   8.250
 6622POPC   C3B30261  23.144  15.848   7.950
 6622POPC   C4B30262  23.163  15.767   7.650
 6623POPC   NC330263  12.888  24.485   9.450
 6623POPC   PO430264  12.802  24.479   9.150
 6623POPC   GL130265  12.868  24.511   8.850
 6623POPC   GL230266  12.915  24.618   8.850
 6623POPC   C1A30267  12.816  24.464   8.550
 6623POPC   D2A30268  12.812  24.490   8.250
 6623POPC   C3A30269  12.810  24.529   7.950
 6623POPC   C4A30270  12.824  24.529   7.650
 6623POPC   C1B30271  12.941  24.713   8.550
 6623POPC   C2B30272  12.959  24.721   8.250
 6623POPC   C3B30273  12.954  24.696   7.950
 6623POPC   C4B30274  13.012  24.667   7.650
 6624POPC   NC330275  43.114  16.744   9.450
 6624POPC   PO430276  43.105  16.702   9.150
 6624POPC   GL130277  43.064  16.697   8.850
 6624POPC   GL230278  43.048  16.610   8.850
 6624POPC   C1A30279  43.119  16.773   8.550
 6624POPC   D2A30280  43.076  16.772   8.250
 6624POPC   C3A30281  43.117  16.756   7.950
 6624POPC   C4A30282  43.061  16.698   7.650
 6624POPC   C1B30283  42.983  16.559   8.550
 6624POPC   C2B30284  42.964  16.503   8.250
 6624POPC   C3B30285  42.979  16.550   7.950
 6624POPC   C4B30286  42.989  16.500   7.650
 6625POPC   NC330287  19.025  10.557   9.450
 6625POPC   PO430288  19.057  10.551   9.150
 6625POPC   GL130289  19.051  10.498   8.850
 6625POPC   GL230290  19.125  10.588   8.850
 6625POPC   C1A30291  19.031  10.524   8.550
 6625POPC   D2A30292  19.103  10.476   8.250
 6625POPC   C3A30293  19.100  10.506   7.950
 6625POPC   C4A30294  19.025  10.526   7.650
 6625POPC   C1B30295  19.241  10.604   8.550
 6625POPC   C2B30296  19.274  10.574   8.250
 6625POPC   C3B30297  19.242  10.672   7.950
 6625POPC   C4B30298  19.248  10.645   7.650
 6626POPC   NC330299  39.276  42.369   9.450
 6626POPC   PO430300  39.268  42.288   9.150
 6626POPC   GL130301  39.236  42.359   8.850
 6626POPC   GL230302  39.224  42.480   8.850
 6626POPC   C1A30303  39.258  42.343   8.550
 6626POPC   D2A30304  39.207  42.291   8.250
 6626POPC   C3A30305  39.219  42.314   7.950
 6626POPC   C4A30306  39.255  42.324   7.650
 6626POPC   C1B30307  39.247  42.530   8.550
 6626POPC   C2B30308  39.311  42.590   8.250
 6626POPC   C3B30309  39.282  42.563   7.950
 6626POPC   C4B30310  39.244  42.560   7.650
 6627POPC   NC330311  14.396  29.097   9.450
 6627POPC   PO430312  14.432  29.153   9.150
 6627POPC   GL130313  14.445  29.171   8.850
 6627POPC   GL230314  14.493  28.993   8.850
 6627POPC   C1A30315  14.382  29.176   8.550
 6627POPC   D2A30316  14.391  29.139   8.250
 6627POPC   C3A30317  14.356  29.172   7.950
 6627POPC   C4A30318  14.431  29.142   7.650
 6627POPC   C1B30319  14.470  28.865   8.550
 6627POPC   C2B30320  14.532  28.911   8.250
 6627POPC   C3B30321  14.523  28.878   7.950
 6627POPC   C4B30322  14.507  28.906   7.650
 6628POPC   NC330323  43.065  26.833   9.450
 6628POPC   PO430324  43.146  26.775   9.150
 6628POPC   GL130325  43.134  26.816   8.850
 6628POPC   GL230326  42.966  26.840   8.850
 6628POPC   C1A30327  43.096  26.856   8.550
 6628POPC   D2A30328  43.148  26.823   8.250
 6628POPC   C3A30329  43.080  26.830   7.950
 6628POPC   C4A30330  43.099  26.768   7.650
 6628POPC   C1B30331  42.941  26.923   8.550
 6628POPC   C2B30332  42.902  26.980   8.250
 6628POPC   C3B30333  42.846  26.992   7.950
 6628POPC   C4B30334  42.878  26.900   7.650
 6629POPC   NC330335  26.017  17.506   9.450
 6629POPC   PO430336  26.087  17.501   9.150
 6629POPC   GL130337  26.065  17.463   8.850
 6629POPC   GL230338  25.901  17.476   8.850
 6629POPC   C1A30339  26.040  17.504   8.550
 6629POPC   D2A30340  26.061  17.544   8.250
 6629POPC   C3A30341  26.021  17.461   7.950
 6629POPC   C4A30342  26.054  17.498   7.650
 6629POPC   C1B30343  25.827  17.398   8.550
 6629POPC   C2B30344  25.804  17.363   8.250
 6629POPC   C3B30345  25.821  17.414   7.950
 6629POPC   C4B30346  25.874  17.375   7.650
 6630POPC   NC330347  37.698  43.901   9.450
 6630POPC   PO430348  37.705  43.846   9.150
 6630POPC   GL130349  37.638  43.889   8.850
 6630POPC   GL230350  37.794  43.827   8.850
 6630POPC   C1A30351  37.680  43.892   8.550
 6630POPC   D2A30352  37.689  43.884   8.250
 6630POPC   C3A30353  37.657  43.877   7.950
 6630POPC   C4A30354  37.702  43.870   7.650
 6630POPC   C1B30355  37.935  43.814   8.550
 6630POPC   C2B30356  37.910  43.793   8.250
 6630POPC   C3B30357  37.876  43.804   7.950
 6630POPC   C4B30358  37.930  43.735   7.650
 6631POPC   NC330359  43.152  14.370   9.450
 6631POPC   PO430360  43.119  14.373   9.150
 6631POPC   GL130361  43.064  14.430   8.850
 6631POPC   GL230362  43.035  14.558   8.850
 6631POPC   C1A30363  43.093  14.377   8.550
 6631POPC   D2A30364  43.104  14.381   8.250
 6631POPC   C3A30365  43.061  14.423   7.950
 6631POPC   C4A30366  43.073  14.366   7.650
 6631POPC   C1B30367  43.031  14.625   8.550
 6631POPC   C2B30368  43.004  14.642   8.250
 6631POPC   C3B30369  43.033  14.613   7.950
 6631POPC   C4B30370  42.984  14.609   7.650
 6632POPC   NC330371  35.369  22.927   9.450
 6632POPC   PO430372  35.311  22.957   9.150
 6632POPC   GL130373  35.362  22.980   8.850
 6632POPC   GL230374  35.459  23.018   8.850
 6632POPC   C1A30375  35.339  22.905   8.550
 6632POPC   D2A30376  35.356  22.896   8.250
 6632POPC   C3A30377  35.310  22.915   7.950
 6632POPC   C4A30378  35.349  22.903   7.650
 6632POPC   C1B30379  35.546  22.981   8.550
 6632POPC   C2B30380  35.556  23.025   8.250
 6632POPC   C3B30381  35.598  23.064   7.950
 6632POPC   C4B30382  35.576  23.074   7.650
 6633POPC   NC330383  35.400  39.993   9.450
 6633POPC   PO430384  35.337  40.029   9.150
 6633POPC   GL130385  35.358  39.972   8.850
 6633POPC   GL230386  35.299  39.920   8.850
 6633POPC   C1A30387  35.380  40.057   8.550
 6633POPC   D2A30388  35.310  40.041   8.250
 6633POPC   C3A30389  35.374  40.031   7.950
 6633POPC   C4A30390  35.340  40.037   7.650
 6633POPC   C1B30391  35.277  39.748   8.550
 6633POPC   C2B30392  35.335  39.721   8.250
 6633POPC   C3B30393  35.369  39.789   7.950
 6633POPC   C4B30394  35.340  39.790   7.650
 6634POPC   NC330395  24.448   2.813   9.450
 6634POPC   PO430396  24.456   2.730   9.150
 6634POPC   GL130397  24.520   2.719   8.850
 6634POPC   GL230398  24.589   2.724   8.850
 6634POPC   C1A30399  24.537   2.772   8.550
 6634POPC   D2A30400  24.538   2.815   8.250
 6634POPC   C3A30401  24.529   2.727   7.950
 6634POPC   C4A30402  24.444   2.763   7.650
 6634POPC   C1B30403  24.713   2.665   8.550
 6634POPC   C2B30404  24.712   2.649   8.250
 6634POPC   C3B30405  24.671   2.676   7.950
 6634POPC   C4B30406  24.730   2.662   7.650
 6635POPC   NC330407   6.598  33.031   9.450
 6635POPC   PO430408   6.694  33.016   9.150
 6635POPC   GL130409   6.694  33.056   8.850
 6635POPC   GL230410   6.512  33.006   8.850
 6635POPC   C1A30411   6.631  33.007   8.550
 6635POPC   D2A30412   6.675  33.028   8.250
 6635POPC   C3A30413   6.693  33.073   7.950
 6635POPC   C4A30414   6.656  33.035   7.650
 6635POPC   C1B30415   6.445  32.959   8.550
 6635POPC   C2B30416   6.379  32.924   8.250
 6635POPC   C3B30417   6.432  33.003   7.950
 6635POPC   C4B30418   6.382  32.929   7.650
 6636POPC   NC330419   0.413   3.555   9.450
 6636POPC   PO430420   0.404   3.539   9.150
 6636POPC   GL130421   0.486   3.505   8.850
 6636POPC   GL230422   0.347   3.403   8.850
 6636POPC   C1A30423   0.465   3.530   8.550
 6636POPC   D2A30424   0.469   3.567   8.250
 6636POPC   C3A30425   0.423   3.574   7.950
 6636POPC   C4A30426   0.404   3.528   7.650
 6636POPC   C1B30427   0.301   3.347   8.550
 6636POPC   C2B30428   0.256   3.301   8.250
 6636POPC   C3B30429   0.244   3.369   7.950
 6636POPC   C4B30430   0.321   3.382   7.650
 6637POPC   NC330431  34.571  12.856   9.450
 6637POPC   PO430432  34.596  12.825   9.150
 6637POPC   GL130433  34.564  12.894   8.850
 6637POPC   GL230434  34.580  12.683   8.850
 6637POPC   C1A30435  34.559  12.830   8.550
 6637POPC   D2A30436  34.540  12.852   8.250
 6637POPC   C3A30437  34.614  12.813   7.950
 6637POPC   C4A30438  34.557  12.822   7.650
 6637POPC   C1B30439  34.490  12.639   8.550
 6637POPC   C2B30440  34.480  12.562   8.250
 6637POPC   C3B30441  34.559  12.563   7.950
 6637POPC   C4B30442  34.536  12.576   7.650
 6638POPC   NC330443   0.407  13.676   9.450
 6638POPC   PO430444   0.426  13.661   9.150
 6638POPC   GL130445   0.438  13.614   8.850
 6638POPC   GL230446   0.479  13.508   8.850
 6638POPC   C1A30447   0.487  13.590   8.550
 6638POPC   D2A30448   0.432  13.642   8.250
 6638POPC   C3A30449   0.397  13.589   7.950
 6638POPC   C4A30450   0.464  13.626   7.650
 6638POPC   C1B30451   0.571  13.446   8.550
 6638POPC   C2B30452   0.591  13.407   8.250
 6638POPC   C3B30453   0.551  13.414   7.950
 6638POPC   C4B30454   0.610  13.383   7.650
 6639POPC   NC330455   7.405  36.930   9.450
 6639POPC   PO430456   7.382  36.922   9.150
 6639POPC   GL130457   7.443  36.895   8.850
 6639POPC   GL230458   7.516  36.868   8.850
 6639POPC   C1A30459   7.436  36.869   8.550
 6639POPC   D2A30460   7.462  36.873   8.250
 6639POPC   C3A30461   7.456  36.940   7.950
 6639POPC   C4A30462   7.417  36.876   7.650
 6639POPC   C1B30463   7.601  36.841   8.550
 6639POPC   C2B30464   7.603  36.804   8.250
 6639POPC   C3B30465   7.635  36.767   7.950
 6639POPC   C4B30466   7.608  36.854   7.650
 6640POPC   NC330467  15.924  26.048   9.450
 6640POPC   PO430468  15.913  26.071   9.150
 6640POPC   GL130469  15.955  26.082   8.850
 6640POPC   GL230470  16.046  26.023   8.850
 6640POPC   C1A30471  15.980  25.994   8.550
 6640POPC   D2A30472  15.935  26.033   8.250
 6640POPC   C3A30473  15.971  26.033   7.950
 6640POPC   C4A30474  15.982  26.074   7.650
 6640POPC   C1B30475  16.165  25.943   8.550
 6640POPC   C2B30476  16.187  25.965   8.250
 6640POPC   C3B30477  16.215  25.959   7.950
 6640POPC   C4B30478  16.179  25.941   7.650
 6641POPC   NC330479  41.579  21.396   9.450
 6641POPC   PO430480  41.540  21.356   9.150
 6641POPC   GL130481  41.598  21.339   8.850
 6641POPC   GL230482  41.554  21.257   8.850
 6641POPC   C1A30483  41.563  21.398   8.550
 6641POPC   D2A30484  41.576  21.341   8.250
 6641POPC   C3A30485  41.605  21.373   7.950
 6641POPC   C4A30486  41.577  21.435   7.650
 6641POPC   C1B30487  41.596  21.095   8.550
 6641POPC   C2B30488  41.612  21.140   8.250
 6641POPC   C3B30489  41.604  21.170   7.950
 6641POPC   C4B30490  41.628  21.163   7.650
 6642POPC   NC330491  23.735   7.419   9.450
 6642POPC   PO430492  23.694   7.404   9.150
 6642POPC   GL130493  23.746   7.377   8.850
 6642POPC   GL230494  23.823   7.435   8.850
 6642POPC   C1A30495  23.680   7.384   8.550
 6642POPC   D2A30496  23.683   7.410   8.250
 6642POPC   C3A30497  23.725   7.453   7.950
 6642POPC   C4A30498  23.750   7.401   7.650
 6642POPC   C1B30499  23.999   7.486   8.550
 6642POPC   C2B30500  23.913   7.490   8.250
 6642POPC   C3B30501  23.937   7.530   7.950
 6642POPC   C4B30502  23.920   7.455   7.650
 6643POPC   NC330503  18.332   4.273   9.450
 6643POPC   PO430504  18.294   4.360   9.150
 6643POPC   GL130505  18.316   4.348   8.850
 6643POPC   GL230506  18.283   4.430   8.850
 6643POPC   C1A30507  18.306   4.318   8.550
 6643POPC   D2A30508  18.318   4.300   8.250
 6643POPC   C3A30509  18.269   4.279   7.950
 6643POPC   C4A30510  18.261   4.314   7.650
 6643POPC   C1B30511  18.272   4.590   8.550
 6643POPC   C2B30512  18.255   4.522   8.250
 6643POPC   C3B30513  18.203   4.556   7.950
 6643POPC   C4B30514  18.240   4.597   7.650
 6644POPC   NC330515  39.258  13.620   9.450
 6644POPC   PO430516  39.210  13.586   9.150
 6644POPC   GL130517  39.254  13.649   8.850
 6644POPC   GL230518  39.142  13.569   8.850
 6644POPC   C1A30519  39.274  13.599   8.550
 6644POPC   D2A30520  39.211  13.654   8.250
 6644POPC   C3A30521  39.211  13.584   7.950
 6644POPC   C4A30522  39.184  13.589   7.650
 6644POPC   C1B30523  39.079  13.458   8.550
 6644POPC   C2B30524  39.035  13.443   8.250
 6644POPC   C3B30525  39.088  13.409   7.950
 6644POPC   C4B30526  39.078  13.479   7.650
 6645POPC   NC330527  12.897   2.762   9.450
 6645POPC   PO430528  12.881   2.809   9.150
 6645POPC   GL130529  12.816   2.760   8.850
 6645POPC   GL230530  12.986   2.709   8.850
 6645POPC   C1A30531  12.811   2.722   8.550
 6645POPC   D2A30532  12.849   2.716   8.250
 6645POPC   C3A30533  12.852   2.805   7.950
 6645POPC   C4A30534  12.883   2.763   7.650
 6645POPC   C1B30535  12.989   2.590   8.550
 6645POPC   C2B30536  13.037   2.598   8.250
 6645POPC   C3B30537  13.064   2.586   7.950
 6645POPC   C4B30538  13.009   2.615   7.650
 6646POPC   NC330539  44.643  32.245   9.450
 6646POPC   PO430540  44.624  32.263   9.150
 6646POPC   GL130541  44.671  32.281   8.850
 6646POPC   GL230542  44.738  32.322   8.850
 6646POPC   C1A30543  44.688  32.269   8.550
 6646POPC   D2A30544  44.627  32.268   8.250
 6646POPC   C3A30545  44.623  32.245   7.950
 6646POPC   C4A30546  44.707  32.233   7.650
 6646POPC   C1B30547  44.885  32.435   8.550
 6646POPC   C2B30548  44.848  32.397   8.250
 6646POPC   C3B30549  44.859  32.374   7.950
 6646POPC   C4B30550  44.830  32.424   7.650
 6647POPC   NC330551  44.643  20.619   9.450
 6647POPC   PO430552  44.703  20.606   9.150
 6647POPC   GL130553  44.708  20.635   8.850
 6647POPC   GL230554  44.568  20.526   8.850
 6647POPC   C1A30555  44.639  20.642   8.550
 6647POPC   D2A30556  44.639  20.657   8.250
 6647POPC   C3A30557  44.614  20.655   7.950
 6647POPC   C4A30558  44.684  20.631   7.650
 6647POPC   C1B30559  44.493  20.427   8.550
 6647POPC   C2B30560  44.464  20.403   8.250
 6647POPC   C3B30561  44.479  20.377   7.950
 6647POPC   C4B30562  44.517  20.420   7.650
 6648POPC   NC330563  41.583  43.071   9.450
 6648POPC   PO430564  41.530  43.137   9.150
 6648POPC   GL130565  41.568  43.126   8.850
 6648POPC   GL230566  41.570  43.275   8.850
 6648POPC   C1A30567  41.553  43.118   8.550
 6648POPC   D2A30568  41.528  43.072   8.250
 6648POPC   C3A30569  41.575  43.143   7.950
 6648POPC   C4A30570  41.563  43.131   7.650
 6648POPC   C1B30571  41.617  43.397   8.550
 6648POPC   C2B30572  41.591  43.329   8.250
 6648POPC   C3B30573  41.636  43.317   7.950
 6648POPC   C4B30574  41.578  43.320   7.650
 6649POPC   NC330575  10.548  13.587   9.450
 6649POPC   PO430576  10.507  13.651   9.150
 6649POPC   GL130577  10.540  13.655   8.850
 6649POPC   GL230578  10.429  13.606   8.850
 6649POPC   C1A30579  10.527  13.611   8.550
 6649POPC   D2A30580  10.478  13.598   8.250
 6649POPC   C3A30581  10.523  13.608   7.950
 6649POPC   C4A30582  10.569  13.658   7.650
 6649POPC   C1B30583  10.296  13.646   8.550
 6649POPC   C2B30584  10.315  13.576   8.250
 6649POPC   C3B30585  10.289  13.617   7.950
 6649POPC   C4B30586  10.235  13.658   7.650
 6650POPC   NC330587  26.801  17.477   9.450
 6650POPC   PO430588  26.852  17.495   9.150
 6650POPC   GL130589  26.790  17.502   8.850
 6650POPC   GL230590  26.884  17.439   8.850
 6650POPC   C1A30591  26.855  17.467   8.550
 6650POPC   D2A30592  26.768  17.475   8.250
 6650POPC   C3A30593  26.789  17.543   7.950
 6650POPC   C4A30594  26.784  17.505   7.650
 6650POPC   C1B30595  27.075  17.407   8.550
 6650POPC   C2B30596  27.048  17.346   8.250
 6650POPC   C3B30597  27.011  17.410   7.950
 6650POPC   C4B30598  27.005  17.428   7.650
 6651POPC   NC330599   2.766  26.067   9.450
 6651POPC   PO430600   2.774  26.073   9.150
 6651POPC   GL130601   2.735  26.082   8.850
 6651POPC   GL230602   2.861  26.121   8.850
 6651POPC   C1A30603   2.732  26.031   8.550
 6651POPC   D2A30604   2.806  26.060   8.250
 6651POPC   C3A30605   2.757  26.004   7.950
 6651POPC   C4A30606   2.726  26.040   7.650
 6651POPC   C1B30607   2.859  26.271   8.550
 6651POPC   C2B30608   2.866  26.222   8.250
 6651POPC   C3B30609   2.901  26.255   7.950
 6651POPC   C4B30610   2.815  26.273   7.650
 6652POPC   NC330611  22.974  34.548   9.450
 6652POPC   PO430612  22.954  34.609   9.150
 6652POPC   GL130613  22.940  34.544   8.850
 6652POPC   GL230614  22.910  34.492   8.850
 6652POPC   C1A30615  22.952  34.540   8.550
 6652POPC   D2A30616  22.935  34.577   8.250
 6652POPC   C3A30617  22.917  34.625   7.950
 6652POPC   C4A30618  22.928  34.596   7.650
 6652POPC   C1B30619  22.879  34.301   8.550
 6652POPC   C2B30620  22.896  34.347   8.250
 6652POPC   C3B30621  22.845  34.359   7.950
 6652POPC   C4B30622  22.855  34.365   7.650
 6653POPC   NC330623  26.831   5.054   9.450
 6653POPC   PO430624  26.841   5.068   9.150
 6653POPC   GL130625  26.810   5.102   8.850
 6653POPC   GL230626  26.979   5.134   8.850
 6653POPC   C1A30627  26.821   5.079   8.550
 6653POPC   D2A30628  26.808   5.112   8.250
 6653POPC   C3A30629  26.852   5.108   7.950
 6653POPC   C4A30630  26.784   5.054   7.650
 6653POPC   C1B30631  27.038   5.157   8.550
 6653POPC   C2B30632  27.033   5.185   8.250
 6653POPC   C3B30633  27.039   5.134   7.950
 6653POPC   C4B30634  27.062   5.184   7.650
 6654POPC   NC330635  36.904  13.616   9.450
 6654POPC   PO430636  36.931  13.670   9.150
 6654POPC   GL130637  36.877  13.661   8.850
 6654POPC   GL230638  36.749  13.633   8.850
 6654POPC   C1A30639  36.928  13.650   8.550
 6654POPC   D2A30640  36.934  13.640   8.250
 6654POPC   C3A30641  36.874  13.634   7.950
 6654POPC   C4A30642  36.894  13.621   7.650
 6654POPC   C1B30643  36.664  13.515   8.550
 6654POPC   C2B30644  36.694  13.608   8.250
 6654POPC   C3B30645  36.628  13.585   7.950
 6654POPC   C4B30646  36.632  13.556   7.650
 6655POPC   NC330647  37.632  26.016   9.450
 6655POPC   PO430648  37.680  26.068   9.150
 6655POPC   GL130649  37.638  25.992   8.850
 6655POPC   GL230650  37.787  25.935   8.850
 6655POPC   C1A30651  37.642  26.040   8.550
 6655POPC   D2A30652  37.713  26.041   8.250
 6655POPC   C3A30653  37.659  26.055   7.950
 6655POPC   C4A30654  37.690  26.038   7.650
 6655POPC   C1B30655  37.922  25.878   8.550
 6655POPC   C2B30656  37.825  25.847   8.250
 6655POPC   C3B30657  37.832  25.927   7.950
 6655POPC   C4B30658  37.920  25.848   7.650
 6656POPC   NC330659  10.536   3.535   9.450
 6656POPC   PO430660  10.536   3.504   9.150
 6656POPC   GL130661  10.542   3.584   8.850
 6656POPC   GL230662  10.626   3.639   8.850
 6656POPC   C1A30663  10.571   3.499   8.550
 6656POPC   D2A30664  10.545   3.573   8.250
 6656POPC   C3A30665  10.566   3.541   7.950
 6656POPC   C4A30666  10.558   3.576   7.650
 6656POPC   C1B30667  10.696   3.671   8.550
 6656POPC   C2B30668  10.706   3.698   8.250
 6656POPC   C3B30669  10.701   3.733   7.950
 6656POPC   C4B30670  10.701   3.697   7.650
 6657POPC   NC330671  22.979  33.063   9.450
 6657POPC   PO430672  22.959  33.029   9.150
 6657POPC   GL130673  22.907  33.039   8.850
 6657POPC   GL230674  23.005  33.086   8.850
 6657POPC   C1A30675  22.931  32.989   8.550
 6657POPC   D2A30676  22.943  33.045   8.250
 6657POPC   C3A30677  22.925  32.977   7.950
 6657POPC   C4A30678  22.972  33.070   7.650
 6657POPC   C1B30679  23.178  33.171   8.550
 6657POPC   C2B30680  23.173  33.132   8.250
 6657POPC   C3B30681  23.161  33.215   7.950
 6657POPC   C4B30682  23.167  33.173   7.650
 6658POPC   NC330683   7.451  21.417   9.450
 6658POPC   PO430684   7.423  21.366   9.150
 6658POPC   GL130685   7.443  21.357   8.850
 6658POPC   GL230686   7.463  21.458   8.850
 6658POPC   C1A30687   7.422  21.364   8.550
 6658POPC   D2A30688   7.435  21.409   8.250
 6658POPC   C3A30689   7.408  21.383   7.950
 6658POPC   C4A30690   7.457  21.434   7.650
 6658POPC   C1B30691   7.523  21.545   8.550
 6658POPC   C2B30692   7.589  21.608   8.250
 6658POPC   C3B30693   7.607  21.605   7.950
 6658POPC   C4B30694   7.572  21.638   7.650
 6659POPC   NC330695  32.260  16.684   9.450
 6659POPC   PO430696  32.280  16.688   9.150
 6659POPC   GL130697  32.227  16.723   8.850
 6659POPC   GL230698  32.380  16.754   8.850
 6659POPC   C1A30699  32.264  16.734   8.550
 6659POPC   D2A30700  32.292  16.734   8.250
 6659POPC   C3A30701  32.296  16.718   7.950
 6659POPC   C4A30702  32.291  16.761   7.650
 6659POPC   C1B30703  32.500  16.689   8.550
 6659POPC   C2B30704  32.515  16.663   8.250
 6659POPC   C3B30705  32.451  16.681   7.950
 6659POPC   C4B30706  32.484  16.731   7.650
 6660POPC   NC330707   7.419  31.457   9.450
 6660POPC   PO430708   7.410  31.449   9.150
 6660POPC   GL130709   7.387  31.500   8.850
 6660POPC   GL230710   7.395  31.608   8.850
 6660POPC   C1A30711   7.468  31.508   8.550
 6660POPC   D2A30712   7.384  31.463   8.250
 6660POPC   C3A30713   7.423  31.518   7.950
 6660POPC   C4A30714   7.386  31.471   7.650
 6660POPC   C1B30715   7.400  31.731   8.550
 6660POPC   C2B30716   7.423  31.751   8.250
 6660POPC   C3B30717   7.386  31.729   7.950
 6660POPC   C4B30718   7.429  31.769   7.650
 6661POPC   NC330719  26.011  22.912   9.450
 6661POPC   PO430720  26.085  22.896   9.150
 6661POPC   GL130721  26.029  22.977   8.850
 6661POPC   GL230722  26.156  22.954   8.850
 6661POPC   C1A30723  26.043  22.950   8.550
 6661POPC   D2A30724  26.076  22.928   8.250
 6661POPC   C3A30725  26.074  22.974   7.950
 6661POPC   C4A30726  25.993  22.970   7.650
 6661POPC   C1B30727  26.236  23.076   8.550
 6661POPC   C2B30728  26.309  23.060   8.250
 6661POPC   C3B30729  26.299  23.019   7.950
 6661POPC   C4B30730  26.229  23.065   7.650
 6662POPC   NC330731  10.538  37.665   9.450
 6662POPC   PO430732  10.566  37.717   9.150
 6662POPC   GL130733  10.485  37.694   8.850
 6662POPC   GL230734  10.408  37.728   8.850
 6662POPC   C1A30735  10.564  37.639   8.550
 6662POPC   D2A30736  10.566  37.675   8.250
 6662POPC   C3A30737  10.560  37.695   7.950
 6662POPC   C4A30738  10.560  37.666   7.650
 6662POPC   C1B30739  10.306  37.727   8.550
 6662POPC   C2B30740  10.228  37.712   8.250
 6662POPC   C3B30741  10.258  37.696   7.950
 6662POPC   C4B30742  10.277  37.677   7.650
 6663POPC   NC330743  17.547  43.073   9.450
 6663POPC   PO430744  17.469  43.140   9.150
 6663POPC   GL130745  17.468  43.080   8.850
 6663POPC   GL230746  17.612  43.034   8.850
 6663POPC   C1A30747  17.463  43.159   8.550
 6663POPC   D2A30748  17.483  43.090   8.250
 6663POPC   C3A30749  17.510  43.111   7.950
 6663POPC   C4A30750  17.461  43.146   7.650
 6663POPC   C1B30751  17.722  43.010   8.550
 6663POPC   C2B30752  17.781  43.033   8.250
 6663POPC   C3B30753  17.716  43.078   7.950
 6663POPC   C4B30754  17.776  43.100   7.650
 6664POPC   NC330755  25.229   4.291   9.450
 6664POPC   PO430756  25.224   4.344   9.150
 6664POPC   GL130757  25.239   4.350   8.850
 6664POPC   GL230758  25.295   4.169   8.850
 6664POPC   C1A30759  25.311   4.357   8.550
 6664POPC   D2A30760  25.260   4.281   8.250
 6664POPC   C3A30761  25.274   4.351   7.950
 6664POPC   C4A30762  25.250   4.328   7.650
 6664POPC   C1B30763  25.390   4.109   8.550
 6664POPC   C2B30764  25.388   4.086   8.250
 6664POPC   C3B30765  25.393   4.112   7.950
 6664POPC   C4B30766  25.352   4.068   7.650
 6665POPC   NC330767  37.632  36.145   9.450
 6665POPC   PO430768  37.631  36.085   9.150
 6665POPC   GL130769  37.687  36.163   8.850
 6665POPC   GL230770  37.809  36.172   8.850
 6665POPC   C1A30771  37.631  36.119   8.550
 6665POPC   D2A30772  37.658  36.109   8.250
 6665POPC   C3A30773  37.656  36.160   7.950
 6665POPC   C4A30774  37.677  36.088   7.650
 6665POPC   C1B30775  37.915  36.172   8.550
 6665POPC   C2B30776  37.928  36.153   8.250
 6665POPC   C3B30777  37.900  36.131   7.950
 6665POPC   C4B30778  37.960  36.192   7.650
 6666POPC   NC330779  40.830   8.966   9.450
 6666POPC   PO430780  40.742   8.999   9.150
 6666POPC   GL130781  40.735   8.974   8.850
 6666POPC   GL230782  40.699   8.908   8.850
 6666POPC   C1A30783  40.807   8.931   8.550
 6666POPC   D2A30784  40.796   9.013   8.250
 6666POPC   C3A30785  40.804   9.007   7.950
 6666POPC   C4A30786  40.735   8.962   7.650
 6666POPC   C1B30787  40.510   8.829   8.550
 6666POPC   C2B30788  40.512   8.837   8.250
 6666POPC   C3B30789  40.582   8.897   7.950
 6666POPC   C4B30790  40.580   8.894   7.650
 6667POPC   NC330791  43.090   5.830   9.450
 6667POPC   PO430792  43.071   5.848   9.150
 6667POPC   GL130793  43.078   5.870   8.850
 6667POPC   GL230794  43.155   6.002   8.850
 6667POPC   C1A30795  43.075   5.902   8.550
 6667POPC   D2A30796  43.156   5.917   8.250
 6667POPC   C3A30797  43.086   5.857   7.950
 6667POPC   C4A30798  43.115   5.917   7.650
 6667POPC   C1B30799  43.156   6.084   8.550
 6667POPC   C2B30800  43.178   6.095   8.250
 6667POPC   C3B30801  43.172   6.124   7.950
 6667POPC   C4B30802  43.126   6.116   7.650
 6668POPC   NC330803  13.585  19.835   9.450
 6668POPC   PO430804  13.656  19.836   9.150
 6668POPC   GL130805  13.588  19.816   8.850
 6668POPC   GL230806  13.549  19.845   8.850
 6668POPC   C1A30807  13.633  19.856   8.550
 6668POPC   D2A30808  13.635  19.870   8.250
 6668POPC   C3A30809  13.662  19.883   7.950
 6668POPC   C4A30810  13.591  19.866   7.650
 6668POPC   C1B30811  13.411  19.929   8.550
 6668POPC   C2B30812  13.408  19.941   8.250
 6668POPC   C3B30813  13.410  19.986   7.950
 6668POPC   C4B30814  13.373  19.938   7.650
 6669POPC   NC330815   6.600  20.573   9.450
 6669POPC   PO430816   6.670  20.564   9.150
 6669POPC   GL130817   6.617  20.647   8.850
 6669POPC   GL230818   6.733  20.493   8.850
 6669POPC   C1A30819   6.638  20.614   8.550
 6669POPC   D2A30820   6.630  20.599   8.250
 6669POPC   C3A30821   6.649  20.612   7.950
 6669POPC   C4A30822   6.674  20.640   7.650
 6669POPC   C1B30823   6.789  20.371   8.550
 6669POPC   C2B30824   6.803  20.378   8.250
 6669POPC   C3B30825   6.781  20.383   7.950
 6669POPC   C4B30826   6.771  20.391   7.650
 6670POPC   NC330827  34.624   5.897   9.450
 6670POPC   PO430828  34.610   5.851   9.150
 6670POPC   GL130829  34.557   5.887   8.850
 6670POPC   GL230830  34.533   5.951   8.850
 6670POPC   C1A30831  34.615   5.828   8.550
 6670POPC   D2A30832  34.540   5.845   8.250
 6670POPC   C3A30833  34.577   5.836   7.950
 6670POPC   C4A30834  34.563   5.847   7.650
 6670POPC   C1B30835  34.428   6.126   8.550
 6670POPC   C2B30836  34.483   6.106   8.250
 6670POPC   C3B30837  34.457   6.058   7.950
 6670POPC   C4B30838  34.419   6.113   7.650
 6671POPC   NC330839  36.173  25.297   9.450
 6671POPC   PO430840  36.136  25.304   9.150
 6671POPC   GL130841  36.125  25.252   8.850
 6671POPC   GL230842  36.181  25.190   8.850
 6671POPC   C1A30843  36.128  25.261   8.550
 6671POPC   D2A30844  36.099  25.304   8.250
 6671POPC   C3A30845  36.123  25.283   7.950
 6671POPC   C4A30846  36.161  25.246   7.650
 6671POPC   C1B30847  36.286  25.100   8.550
 6671POPC   C2B30848  36.301  25.160   8.250
 6671POPC   C3B30849  36.276  25.159   7.950
 6671POPC   C4B30850  36.283  25.163   7.650
 6672POPC   NC330851  43.154  30.662   9.450
 6672POPC   PO430852  43.110  30.692   9.150
 6672POPC   GL130853  43.100  30.677   8.850
 6672POPC   GL230854  42.964  30.768   8.850
 6672POPC   C1A30855  43.123  30.720   8.550
 6672POPC   D2A30856  43.118  30.651   8.250
 6672POPC   C3A30857  43.142  30.707   7.950
 6672POPC   C4A30858  43.086  30.706   7.650
 6672POPC   C1B30859  42.930  30.798   8.550
 6672POPC   C2B30860  42.860  30.833   8.250
 6672POPC   C3B30861  42.915  30.800   7.950
 6672POPC   C4B30862  42.918  30.851   7.650
 6673POPC   NC330863  33.054  15.908   9.450
 6673POPC   PO430864  33.063  15.966   9.150
 6673POPC   GL130865  32.987  15.911   8.850
 6673POPC   GL230866  33.106  15.941   8.850
 6673POPC   C1A30867  33.050  15.960   8.550
 6673POPC   D2A30868  33.008  15.932   8.250
 6673POPC   C3A30869  33.036  15.906   7.950
 6673POPC   C4A30870  33.059  15.931   7.650
 6673POPC   C1B30871  33.265  15.863   8.550
 6673POPC   C2B30872  33.269  15.905   8.250
 6673POPC   C3B30873  33.275  15.882   7.950
 6673POPC   C4B30874  33.278  15.928   7.650
 6674POPC   NC330875   7.434  11.290   9.450
 6674POPC   PO430876   7.468  11.300   9.150
 6674POPC   GL130877   7.467  11.265   8.850
 6674POPC   GL230878   7.541  11.230   8.850
 6674POPC   C1A30879   7.412  11.278   8.550
 6674POPC   D2A30880   7.447  11.285   8.250
 6674POPC   C3A30881   7.393  11.323   7.950
 6674POPC   C4A30882   7.448  11.338   7.650
 6674POPC   C1B30883   7.679  11.202   8.550
 6674POPC   C2B30884   7.621  11.241   8.250
 6674POPC   C3B30885   7.609  11.230   7.950
 6674POPC   C4B30886   7.695  11.247   7.650
 6675POPC   NC330887   9.784  19.785   9.450
 6675POPC   PO430888   9.736  19.851   9.150
 6675POPC   GL130889   9.765  19.836   8.850
 6675POPC   GL230890   9.821  19.888   8.850
 6675POPC   C1A30891   9.755  19.823   8.550
 6675POPC   D2A30892   9.777  19.795   8.250
 6675POPC   C3A30893   9.770  19.847   7.950
 6675POPC   C4A30894   9.771  19.806   7.650
 6675POPC   C1B30895   9.940  19.988   8.550
 6675POPC   C2B30896   9.899  20.064   8.250
 6675POPC   C3B30897   9.899  19.998   7.950
 6675POPC   C4B30898   9.957  20.022   7.650
 6676POPC   NC330899  28.375  23.723   9.450
 6676POPC   PO430900  28.320  23.679   9.150
 6676POPC   GL130901  28.350  23.701   8.850
 6676POPC   GL230902  28.289  23.754   8.850
 6676POPC   C1A30903  28.405  23.693   8.550
 6676POPC   D2A30904  28.328  23.682   8.250
 6676POPC   C3A30905  28.376  23.709   7.950
 6676POPC   C4A30906  28.401  23.725   7.650
 6676POPC   C1B30907  28.232  23.898   8.550
 6676POPC   C2B30908  28.137  23.846   8.250
 6676POPC   C3B30909  28.199  23.887   7.950
 6676POPC   C4B30910  28.170  23.838   7.650
 6677POPC   NC330911  29.095  11.339   9.450
 6677POPC   PO430912  29.145  11.258   9.150
 6677POPC   GL130913  29.111  11.307   8.850
 6677POPC   GL230914  29.069  11.400   8.850
 6677POPC   C1A30915  29.164  11.264   8.550
 6677POPC   D2A30916  29.174  11.344   8.250
 6677POPC   C3A30917  29.186  11.294   7.950
 6677POPC   C4A30918  29.105  11.260   7.650
 6677POPC   C1B30919  28.950  11.448   8.550
 6677POPC   C2B30920  28.957  11.498   8.250
 6677POPC   C3B30921  28.938  11.422   7.950
 6677POPC   C4B30922  28.973  11.458   7.650
 6678POPC   NC330923  11.298  19.042   9.450
 6678POPC   PO430924  11.267  19.035   9.150
 6678POPC   GL130925  11.314  19.051   8.850
 6678POPC   GL230926  11.157  18.997   8.850
 6678POPC   C1A30927  11.319  19.051   8.550
 6678POPC   D2A30928  11.274  19.028   8.250
 6678POPC   C3A30929  11.311  19.071   7.950
 6678POPC   C4A30930  11.317  19.093   7.650
 6678POPC   C1B30931  11.075  18.982   8.550
 6678POPC   C2B30932  11.098  19.041   8.250
 6678POPC   C3B30933  11.019  19.005   7.950
 6678POPC   C4B30934  11.048  18.995   7.650
 6679POPC   NC330935   3.553  39.207   9.450
 6679POPC   PO430936   3.561  39.209   9.150
 6679POPC   GL130937   3.547  39.207   8.850
 6679POPC   GL230938   3.524  39.314   8.850
 6679POPC   C1A30939   3.560  39.206   8.550
 6679POPC   D2A30940   3.540  39.221   8.250
 6679POPC   C3A30941   3.503  39.250   7.950
 6679POPC   C4A30942   3.583  39.249   7.650
 6679POPC   C1B30943   3.452  39.447   8.550
 6679POPC   C2B30944   3.452  39.453   8.250
 6679POPC   C3B30945   3.509  39.461   7.950
 6679POPC   C4B30946   3.444  39.436   7.650
 6680POPC   NC330947  33.826   0.462   9.450
 6680POPC   PO430948  33.810   0.403   9.150
 6680POPC   GL130949  33.812   0.435   8.850
 6680POPC   GL230950  33.800   0.329   8.850
 6680POPC   C1A30951  33.786   0.431   8.550
 6680POPC   D2A30952  33.806   0.482   8.250
 6680POPC   C3A30953  33.791   0.431   7.950
 6680POPC   C4A30954  33.811   0.441   7.650
 6680POPC   C1B30955  33.744   0.213   8.550
 6680POPC   C2B30956  33.748   0.214   8.250
 6680POPC   C3B30957  33.790   0.208   7.950
 6680POPC   C4B30958  33.704   0.176   7.650
 6681POPC   NC330959  33.850  32.274   9.450
 6681POPC   PO430960  33.766  32.259   9.150
 6681POPC   GL130961  33.773  32.292   8.850
 6681POPC   GL230962  33.754  32.196   8.850
 6681POPC   C1A30963  33.779  32.202   8.550
 6681POPC   D2A30964  33.807  32.218   8.250
 6681POPC   C3A30965  33.844  32.287   7.950
 6681POPC   C4A30966  33.815  32.254   7.650
 6681POPC   C1B30967  33.600  32.024   8.550
 6681POPC   C2B30968  33.642  32.001   8.250
 6681POPC   C3B30969  33.605  32.011   7.950
 6681POPC   C4B30970  33.666  32.030   7.650
 6682POPC   NC330971  29.185  24.477   9.450
 6682POPC   PO430972  29.102  24.452   9.150
 6682POPC   GL130973  29.158  24.496   8.850
 6682POPC   GL230974  29.146  24.390   8.850
 6682POPC   C1A30975  29.110  24.491   8.550
 6682POPC   D2A30976  29.105  24.532   8.250
 6682POPC   C3A30977  29.183  24.463   7.950
 6682POPC   C4A30978  29.145  24.487   7.650
 6682POPC   C1B30979  29.160  24.212   8.550
 6682POPC   C2B30980  29.221  24.199   8.250
 6682POPC   C3B30981  29.174  24.212   7.950
 6682POPC   C4B30982  29.165  24.260   7.650
 6683POPC   NC330983  19.010  22.950   9.450
 6683POPC   PO430984  19.040  22.938   9.150
 6683POPC   GL130985  19.034  22.945   8.850
 6683POPC   GL230986  19.053  22.775   8.850
 6683POPC   C1A30987  19.060  22.899   8.550
 6683POPC   D2A30988  19.043  22.917   8.250
 6683POPC   C3A30989  19.016  22.937   7.950
 6683POPC   C4A30990  19.044  22.932   7.650
 6683POPC   C1B30991  18.987  22.714   8.550
 6683POPC   C2B30992  18.984  22.677   8.250
 6683POPC   C3B30993  19.070  22.648   7.950
 6683POPC   C4B30994  19.056  22.669   7.650
 6684POPC   NC330995  32.262  29.947   9.450
 6684POPC   PO430996  32.235  29.915   9.150
 6684POPC   GL130997  32.226  29.932   8.850
 6684POPC   GL230998  32.375  29.945   8.850
 6684POPC   C1A30999  32.260  29.956   8.550
 6684POPC   D2A31000  32.202  29.921   8.250
 6684POPC   C3A31001  32.218  29.879   7.950
 6684POPC   C4A31002  32.231  29.956   7.650
 6684POPC   C1B31003  32.471  30.025   8.550
 6684POPC   C2B31004  32.425  30.060   8.250
 6684POPC   C3B31005  32.432  30.082   7.950
 6684POPC   C4B31006  32.407  30.094   7.650
 6685POPC   NC331007  14.367  16.730   9.450
 6685POPC   PO431008  14.443  16.737   9.150
 6685POPC   GL131009  14.426  16.697   8.850
 6685POPC   GL231010  14.487  16.670   8.850
 6685POPC   C1A31011  14.368  16.711   8.550
 6685POPC   D2A31012  14.411  16.746   8.250
 6685POPC   C3A31013  14.422  16.719   7.950
 6685POPC   C4A31014  14.391  16.713   7.650
 6685POPC   C1B31015  14.600  16.569   8.550
 6685POPC   C2B31016  14.537  16.548   8.250
 6685POPC   C3B31017  14.595  16.508   7.950
 6685POPC   C4B31018  14.551  16.510   7.650
 6686POPC   NC331019  25.246  24.463   9.450
 6686POPC   PO431020  25.276  24.482   9.150
 6686POPC   GL131021  25.257  24.535   8.850
 6686POPC   GL231022  25.389  24.480   8.850
 6686POPC   C1A31023  25.298  24.529   8.550
 6686POPC   D2A31024  25.261  24.529   8.250
 6686POPC   C3A31025  25.252  24.442   7.950
 6686POPC   C4A31026  25.227  24.509   7.650
 6686POPC   C1B31027  25.473  24.535   8.550
 6686POPC   C2B31028  25.480  24.539   8.250
 6686POPC   C3B31029  25.484  24.493   7.950
 6686POPC   C4B31030  25.512  24.469   7.650
 6687POPC   NC331031  26.845  39.210   9.450
 6687POPC   PO431032  26.811  39.203   9.150
 6687POPC   GL131033  26.865  39.184   8.850
 6687POPC   GL231034  26.737  39.236   8.850
 6687POPC   C1A31035  26.838  39.237   8.550
 6687POPC   D2A31036  26.781  39.218   8.250
 6687POPC   C3A31037  26.841  39.207   7.950
 6687POPC   C4A31038  26.796  39.233   7.650
 6687POPC   C1B31039  26.533  39.276   8.550
 6687POPC   C2B31040  26.604  39.254   8.250
 6687POPC   C3B31041  26.534  39.300   7.950
 6687POPC   C4B31042  26.580  39.295   7.650
 6688POPC   NC331043  36.145  40.018   9.450
 6688POPC   PO431044  36.109  40.024   9.150
 6688POPC   GL131045  36.090  39.957   8.850
 6688POPC   GL231046  36.228  40.047   8.850
 6688POPC   C1A31047  36.177  40.027   8.550
 6688POPC   D2A31048  36.141  39.999   8.250
 6688POPC   C3A31049  36.119  40.014   7.950
 6688POPC   C4A31050  36.105  40.048   7.650
 6688POPC   C1B31051  36.360  39.988   8.550
 6688POPC   C2B31052  36.406  40.058   8.250
 6688POPC   C3B31053  36.357  39.983   7.950
 6688POPC   C4B31054  36.412  39.988   7.650
 6689POPC   NC331055  13.599  29.151   9.450
 6689POPC   PO431056  13.605  29.157   9.150
 6689POPC   GL131057  13.665  29.158   8.850
 6689POPC   GL231058  13.741  29.110   8.850
 6689POPC   C1A31059  13.654  29.166   8.550
 6689POPC   D2A31060  13.655  29.181   8.250
 6689POPC   C3A31061  13.651  29.193   7.950
 6689POPC   C4A31062  13.591  29.119   7.650
 6689POPC   C1B31063  13.907  29.015   8.550
 6689POPC   C2B31064  13.818  29.014   8.250
 6689POPC   C3B31065  13.885  29.044   7.950
 6689POPC   C4B31066  13.859  29.048   7.650
 6690POPC   NC331067  21.356  42.346   9.450
 6690POPC   PO431068  21.411  42.299   9.150
 6690POPC   GL131069  21.386  42.369   8.850
 6690POPC   GL231070  21.394  42.160   8.850
 6690POPC   C1A31071  21.366  42.307   8.550
 6690POPC   D2A31072  21.400  42.321   8.250
 6690POPC   C3A31073  21.348  42.308   7.950
 6690POPC   C4A31074  21.348  42.375   7.650
 6690POPC   C1B31075  21.448  42.048   8.550
 6690POPC   C2B31076  21.449  42.038   8.250
 6690POPC   C3B31077  21.446  42.131   7.950
 6690POPC   C4B31078  21.425  42.126   7.650
 6691POPC   NC331079  19.029  44.684   9.450
 6691POPC   PO431080  19.083  44.674   9.150
 6691POPC   GL131081  19.077  44.702   8.850
 6691POPC   GL231082  19.136  44.578   8.850
 6691POPC   C1A31083  19.053  44.668   8.550
 6691POPC   D2A31084  19.081  44.691   8.250
 6691POPC   C3A31085  19.011  44.699   7.950
 6691POPC   C4A31086  19.068  44.622   7.650
 6691POPC   C1B31087  19.269  44.521   8.550
 6691POPC   C2B31088  19.279  44.470   8.250
 6691POPC   C3B31089  19.273  44.476   7.950
 6691POPC   C4B31090  19.245  44.536   7.650
 6692POPC   NC331091   0.437  22.146   9.450
 6692POPC   PO431092   0.392  22.195   9.150
 6692POPC   GL131093   0.426  22.139   8.850
 6692POPC   GL231094   0.363  22.300   8.850
 6692POPC   C1A31095   0.478  22.194   8.550
 6692POPC   D2A31096   0.485  22.210   8.250
 6692POPC   C3A31097   0.392  22.146   7.950
 6692POPC   C4A31098   0.415  22.206   7.650
 6692POPC   C1B31099   0.349  22.446   8.550
 6692POPC   C2B31100   0.341  22.434   8.250
 6692POPC   C3B31101   0.399  22.384   7.950
 6692POPC   C4B31102   0.353  22.353   7.650
 6693POPC   NC331103   3.500  25.302   9.450
 6693POPC   PO431104   3.497  25.305   9.150
 6693POPC   GL131105   3.499  25.228   8.850
 6693POPC   GL231106   3.370  25.335   8.850
 6693POPC   C1A31107   3.568  25.230   8.550
 6693POPC   D2A31108   3.514  25.287   8.250
 6693POPC   C3A31109   3.562  25.218   7.950
 6693POPC   C4A31110   3.581  25.225   7.650
 6693POPC   C1B31111   3.307  25.341   8.550
 6693POPC   C2B31112   3.310  25.292   8.250
 6693POPC   C3B31113   3.277  25.280   7.950
 6693POPC   C4B31114   3.344  25.322   7.650
 6694POPC   NC331115  24.459   1.964   9.450
 6694POPC   PO431116  24.504   1.941   9.150
 6694POPC   GL131117  24.454   1.965   8.850
 6694POPC   GL231118  24.558   2.086   8.850
 6694POPC   C1A31119  24.468   1.970   8.550
 6694POPC   D2A31120  24.537   2.019   8.250
 6694POPC   C3A31121  24.507   1.979   7.950
 6694POPC   C4A31122  24.495   1.985   7.650
 6694POPC   C1B31123  24.645   2.229   8.550
 6694POPC   C2B31124  24.673   2.238   8.250
 6694POPC   C3B31125  24.614   2.193   7.950
 6694POPC   C4B31126  24.615   2.177   7.650
 6695POPC   NC331127   2.014   2.755   9.450
 6695POPC   PO431128   2.036   2.781   9.150
 6695POPC   GL131129   1.995   2.809   8.850
 6695POPC   GL231130   2.060   2.852   8.850
 6695POPC   C1A31131   1.987   2.749   8.550
 6695POPC   D2A31132   2.007   2.763   8.250
 6695POPC   C3A31133   1.996   2.730   7.950
 6695POPC   C4A31134   2.034   2.730   7.650
 6695POPC   C1B31135   2.141   3.011   8.550
 6695POPC   C2B31136   2.153   2.953   8.250
 6695POPC   C3B31137   2.156   3.019   7.950
 6695POPC   C4B31138   2.160   2.953   7.650
 6696POPC   NC331139  15.131  40.762   9.450
 6696POPC   PO431140  15.144  40.758   9.150
 6696POPC   GL131141  15.134  40.814   8.850
 6696POPC   GL231142  15.274  40.892   8.850
 6696POPC   C1A31143  15.186  40.782   8.550
 6696POPC   D2A31144  15.140  40.737   8.250
 6696POPC   C3A31145  15.192  40.797   7.950
 6696POPC   C4A31146  15.193  40.797   7.650
 6696POPC   C1B31147  15.276  41.047   8.550
 6696POPC   C2B31148  15.273  41.046   8.250
 6696POPC   C3B31149  15.268  40.952   7.950
 6696POPC   C4B31150  15.285  41.041   7.650
 6697POPC   NC331151   1.233  21.432   9.450
 6697POPC   PO431152   1.175  21.382   9.150
 6697POPC   GL131153   1.193  21.399   8.850
 6697POPC   GL231154   1.172  21.461   8.850
 6697POPC   C1A31155   1.208  21.345   8.550
 6697POPC   D2A31156   1.200  21.390   8.250
 6697POPC   C3A31157   1.241  21.418   7.950
 6697POPC   C4A31158   1.189  21.390   7.650
 6697POPC   C1B31159   1.139  21.650   8.550
 6697POPC   C2B31160   1.145  21.661   8.250
 6697POPC   C3B31161   1.164  21.610   7.950
 6697POPC   C4B31162   1.137  21.640   7.650
 6698POPC   NC331163  31.479  26.836   9.450
 6698POPC   PO431164  31.500  26.802   9.150
 6698POPC   GL131165  31.519  26.787   8.850
 6698POPC   GL231166  31.607  26.862   8.850
 6698POPC   C1A31167  31.506  26.823   8.550
 6698POPC   D2A31168  31.452  26.819   8.250
 6698POPC   C3A31169  31.424  26.821   7.950
 6698POPC   C4A31170  31.488  26.816   7.650
 6698POPC   C1B31171  31.659  26.929   8.550
 6698POPC   C2B31172  31.691  26.913   8.250
 6698POPC   C3B31173  31.693  26.963   7.950
 6698POPC   C4B31174  31.723  26.876   7.650
 6699POPC   NC331175   4.289  39.268   9.450
 6699POPC   PO431176   4.354  39.244   9.150
 6699POPC   GL131177   4.324  39.251   8.850
 6699POPC   GL231178   4.285  39.062   8.850
 6699POPC   C1A31179   4.298  39.223   8.550
 6699POPC   D2A31180   4.351  39.245   8.250
 6699POPC   C3A31181   4.358  39.256   7.950
 6699POPC   C4A31182   4.365  39.269   7.650
 6699POPC   C1B31183   4.257  38.948   8.550
 6699POPC   C2B31184   4.271  39.011   8.250
 6699POPC   C3B31185   4.217  39.035   7.950
 6699POPC   C4B31186   4.235  39.012   7.650
 6700POPC   NC331187  43.935  32.997   9.450
 6700POPC   PO431188  43.931  33.014   9.150
 6700POPC   GL131189  43.886  33.017   8.850
 6700POPC   GL231190  43.921  32.924   8.850
 6700POPC   C1A31191  43.843  33.040   8.550
 6700POPC   D2A31192  43.838  33.020   8.250
 6700POPC   C3A31193  43.859  33.008   7.950
 6700POPC   C4A31194  43.915  33.006   7.650
 6700POPC   C1B31195  43.923  32.770   8.550
 6700POPC   C2B31196  43.906  32.814   8.250
 6700POPC   C3B31197  43.880  32.750   7.950
 6700POPC   C4B31198  43.929  32.759   7.650
 6701POPC   NC331199   4.280  29.921   9.450
 6701POPC   PO431200   4.339  29.924   9.150
 6701POPC   GL131201   4.344  29.943   8.850
 6701POPC   GL231202   4.436  29.827   8.850
 6701POPC   C1A31203   4.276  29.924   8.550
 6701POPC   D2A31204   4.296  29.967   8.250
 6701POPC   C3A31205   4.331  29.884   7.950
 6701POPC   C4A31206   4.285  29.876   7.650
 6701POPC   C1B31207   4.525  29.760   8.550
 6701POPC   C2B31208   4.506  29.712   8.250
 6701POPC   C3B31209   4.469  29.735   7.950
 6701POPC   C4B31210   4.506  29.698   7.650
 6702POPC   NC331211  24.469  39.204   9.450
 6702POPC   PO431212  24.457  39.251   9.150
 6702POPC   GL131213  24.528  39.197   8.850
 6702POPC   GL231214  24.362  39.128   8.850
 6702POPC   C1A31215  24.477  39.247   8.550
 6702POPC   D2A31216  24.442  39.203   8.250
 6702POPC   C3A31217  24.493  39.221   7.950
 6702POPC   C4A31218  24.535  39.216   7.650
 6702POPC   C1B31219  24.336  39.033   8.550
 6702POPC   C2B31220  24.269  39.095   8.250
 6702POPC   C3B31221  24.324  39.031   7.950
 6702POPC   C4B31222  24.288  39.079   7.650
 6703POPC   NC331223  40.045  12.049   9.450
 6703POPC   PO431224  39.963  12.119   9.150
 6703POPC   GL131225  39.962  12.095   8.850
 6703POPC   GL231226  40.131  12.074   8.850
 6703POPC   C1A31227  40.006  12.034   8.550
 6703POPC   D2A31228  40.013  12.085   8.250
 6703POPC   C3A31229  40.013  12.072   7.950
 6703POPC   C4A31230  39.985  12.037   7.650
 6703POPC   C1B31231  40.257  12.099   8.550
 6703POPC   C2B31232  40.252  12.112   8.250
 6703POPC   C3B31233  40.235  12.107   7.950
 6703POPC   C4B31234  40.214  12.106   7.650
 6704POPC   NC331235   2.739  43.106   9.450
 6704POPC   PO431236   2.752  43.068   9.150
 6704POPC   GL131237   2.813  43.151   8.850
 6704POPC   GL231238   2.701  43.193   8.850
 6704POPC   C1A31239   2.753  43.093   8.550
 6704POPC   D2A31240   2.768  43.141   8.250
 6704POPC   C3A31241   2.781  43.089   7.950
 6704POPC   C4A31242   2.756  43.148   7.650
 6704POPC   C1B31243   2.721  43.314   8.550
 6704POPC   C2B31244   2.725  43.396   8.250
 6704POPC   C3B31245   2.675  43.304   7.950
 6704POPC   C4B31246   2.711  43.388   7.650
 6705POPC   NC331247  42.373   0.464   9.450
 6705POPC   PO431248  42.380   0.483   9.150
 6705POPC   GL131249  42.288   0.399   8.850
 6705POPC   GL231250  42.192   0.418   8.850
 6705POPC   C1A31251  42.382   0.465   8.550
 6705POPC   D2A31252  42.353   0.486   8.250
 6705POPC   C3A31253  42.314   0.393   7.950
 6705POPC   C4A31254  42.352   0.409   7.650
 6705POPC   C1B31255  42.071   0.285   8.550
 6705POPC   C2B31256  42.074   0.361   8.250
 6705POPC   C3B31257  42.112   0.351   7.950
 6705POPC   C4B31258  42.116   0.301   7.650
 6706POPC   NC331259  12.808  33.032   9.450
 6706POPC   PO431260  12.897  33.011   9.150
 6706POPC   GL131261  12.856  33.009   8.850
 6706POPC   GL231262  12.695  32.975   8.850
 6706POPC   C1A31263  12.832  32.998   8.550
 6706POPC   D2A31264  12.862  33.020   8.250
 6706POPC   C3A31265  12.805  33.070   7.950
 6706POPC   C4A31266  12.844  33.041   7.650
 6706POPC   C1B31267  12.656  32.907   8.550
 6706POPC   C2B31268  12.591  32.887   8.250
 6706POPC   C3B31269  12.627  32.902   7.950
 6706POPC   C4B31270  12.611  32.880   7.650
 6707POPC   NC331271   7.396  43.075   9.450
 6707POPC   PO431272   7.378  43.159   9.150
 6707POPC   GL131273   7.381  43.121   8.850
 6707POPC   GL231274   7.480  42.967   8.850
 6707POPC   C1A31275   7.374  43.068   8.550
 6707POPC   D2A31276   7.405  43.115   8.250
 6707POPC   C3A31277   7.413  43.116   7.950
 6707POPC   C4A31278   7.419  43.099   7.650
 6707POPC   C1B31279   7.486  42.919   8.550
 6707POPC   C2B31280   7.524  42.930   8.250
 6707POPC   C3B31281   7.533  42.903   7.950
 6707POPC   C4B31282   7.518  42.837   7.650
 6708POPC   NC331283  14.439  40.043   9.450
 6708POPC   PO431284  14.359  40.006   9.150
 6708POPC   GL131285  14.447  40.032   8.850
 6708POPC   GL231286  14.427  40.146   8.850
 6708POPC   C1A31287  14.389  39.975   8.550
 6708POPC   D2A31288  14.420  40.049   8.250
 6708POPC   C3A31289  14.355  40.031   7.950
 6708POPC   C4A31290  14.360  40.019   7.650
 6708POPC   C1B31291  14.377  40.252   8.550
 6708POPC   C2B31292  14.432  40.252   8.250
 6708POPC   C3B31293  14.343  40.305   7.950
 6708POPC   C4B31294  14.396  40.294   7.650
 6709POPC   NC331295   8.955  21.402   9.450
 6709POPC   PO431296   8.927  21.370   9.150
 6709POPC   GL131297   8.968  21.414   8.850
 6709POPC   GL231298   8.964  21.518   8.850
 6709POPC   C1A31299   8.971  21.337   8.550
 6709POPC   D2A31300   9.018  21.369   8.250
 6709POPC   C3A31301   8.967  21.435   7.950
 6709POPC   C4A31302   8.944  21.388   7.650
 6709POPC   C1B31303   8.929  21.604   8.550
 6709POPC   C2B31304   8.913  21.655   8.250
 6709POPC   C3B31305   8.949  21.625   7.950
 6709POPC   C4B31306   8.948  21.581   7.650
 6710POPC   NC331307   3.544  33.763   9.450
 6710POPC   PO431308   3.570  33.795   9.150
 6710POPC   GL131309   3.540  33.775   8.850
 6710POPC   GL231310   3.620  33.863   8.850
 6710POPC   C1A31311   3.571  33.831   8.550
 6710POPC   D2A31312   3.501  33.846   8.250
 6710POPC   C3A31313   3.556  33.795   7.950
 6710POPC   C4A31314   3.492  33.833   7.650
 6710POPC   C1B31315   3.765  33.938   8.550
 6710POPC   C2B31316   3.746  33.992   8.250
 6710POPC   C3B31317   3.734  34.017   7.950
 6710POPC   C4B31318   3.737  33.964   7.650
 6711POPC   NC331319   2.785  26.821   9.450
 6711POPC   PO431320   2.726  26.826   9.150
 6711POPC   GL131321   2.733  26.867   8.850
 6711POPC   GL231322   2.889  26.719   8.850
 6711POPC   C1A31323   2.805  26.786   8.550
 6711POPC   D2A31324   2.793  26.809   8.250
 6711POPC   C3A31325   2.734  26.841   7.950
 6711POPC   C4A31326   2.747  26.783   7.650
 6711POPC   C1B31327   2.978  26.688   8.550
 6711POPC   C2B31328   2.976  26.713   8.250
 6711POPC   C3B31329   2.932  26.674   7.950
 6711POPC   C4B31330   3.007  26.663   7.650
 6712POPC   NC331331   1.185  28.403   9.450
 6712POPC   PO431332   1.166  28.401   9.150
 6712POPC   GL131333   1.187  28.400   8.850
 6712POPC   GL231334   1.310  28.227   8.850
 6712POPC   C1A31335   1.257  28.322   8.550
 6712POPC   D2A31336   1.247  28.395   8.250
 6712POPC   C3A31337   1.242  28.404   7.950
 6712POPC   C4A31338   1.185  28.347   7.650
 6712POPC   C1B31339   1.366  28.151   8.550
 6712POPC   C2B31340   1.355  28.161   8.250
 6712POPC   C3B31341   1.421  28.148   7.950
 6712POPC   C4B31342   1.342  28.220   7.650
 6713POPC   NC331343  13.647   0.427   9.450
 6713POPC   PO431344  13.669   0.454   9.150
 6713POPC   GL131345  13.615   0.486   8.850
 6713POPC   GL231346  13.731   0.552   8.850
 6713POPC   C1A31347  13.601   0.441   8.550
 6713POPC   D2A31348  13.643   0.441   8.250
 6713POPC   C3A31349  13.609   0.471   7.950
 6713POPC   C4A31350  13.665   0.405   7.650
 6713POPC   C1B31351  13.755   0.626   8.550
 6713POPC   C2B31352  13.746   0.587   8.250
 6713POPC   C3B31353  13.785   0.604   7.950
 6713POPC   C4B31354  13.777   0.611   7.650
 6714POPC   NC331355  14.431  33.021   9.450
 6714POPC   PO431356  14.392  33.039   9.150
 6714POPC   GL131357  14.401  32.978   8.850
 6714POPC   GL231358  14.482  33.127   8.850
 6714POPC   C1A31359  14.412  33.041   8.550
 6714POPC   D2A31360  14.395  33.051   8.250
 6714POPC   C3A31361  14.436  33.008   7.950
 6714POPC   C4A31362  14.414  32.983   7.650
 6714POPC   C1B31363  14.526  33.293   8.550
 6714POPC   C2B31364  14.490  33.279   8.250
 6714POPC   C3B31365  14.448  33.307   7.950
 6714POPC   C4B31366  14.488  33.233   7.650
 6715POPC   NC331367   7.373  29.178   9.450
 6715POPC   PO431368   7.399  29.110   9.150
 6715POPC   GL131369   7.391  29.128   8.850
 6715POPC   GL231370   7.482  29.234   8.850
 6715POPC   C1A31371   7.429  29.191   8.550
 6715POPC   D2A31372   7.405  29.131   8.250
 6715POPC   C3A31373   7.418  29.102   7.950
 6715POPC   C4A31374   7.456  29.166   7.650
 6715POPC   C1B31375   7.582  29.327   8.550
 6715POPC   C2B31376   7.601  29.396   8.250
 6715POPC   C3B31377   7.558  29.353   7.950
 6715POPC   C4B31378   7.581  29.350   7.650
 6716POPC   NC331379   8.169  12.056   9.450
 6716POPC   PO431380   8.193  12.066   9.150
 6716POPC   GL131381   8.192  12.071   8.850
 6716POPC   GL231382   8.118  12.017   8.850
 6716POPC   C1A31383   8.153  12.105   8.550
 6716POPC   D2A31384   8.218  12.103   8.250
 6716POPC   C3A31385   8.164  12.057   7.950
 6716POPC   C4A31386   8.147  12.122   7.650
 6716POPC   C1B31387   7.943  12.077   8.550
 6716POPC   C2B31388   7.903  12.001   8.250
 6716POPC   C3B31389   7.944  12.040   7.950
 6716POPC   C4B31390   7.942  12.029   7.650
 6717POPC   NC331391  15.928  29.100   9.450
 6717POPC   PO431392  15.982  29.193   9.150
 6717POPC   GL131393  15.979  29.108   8.850
 6717POPC   GL231394  16.067  29.109   8.850
 6717POPC   C1A31395  15.979  29.128   8.550
 6717POPC   D2A31396  15.919  29.178   8.250
 6717POPC   C3A31397  15.997  29.146   7.950
 6717POPC   C4A31398  15.968  29.102   7.650
 6717POPC   C1B31399  16.168  29.070   8.550
 6717POPC   C2B31400  16.181  29.043   8.250
 6717POPC   C3B31401  16.217  28.987   7.950
 6717POPC   C4B31402  16.162  28.986   7.650
 6718POPC   NC331403  22.205   3.525   9.450
 6718POPC   PO431404  22.212   3.583   9.150
 6718POPC   GL131405  22.198   3.497   8.850
 6718POPC   GL231406  22.244   3.594   8.850
 6718POPC   C1A31407  22.139   3.553   8.550
 6718POPC   D2A31408  22.189   3.558   8.250
 6718POPC   C3A31409  22.184   3.506   7.950
 6718POPC   C4A31410  22.122   3.502   7.650
 6718POPC   C1B31411  22.332   3.678   8.550
 6718POPC   C2B31412  22.383   3.710   8.250
 6718POPC   C3B31413  22.364   3.667   7.950
 6718POPC   C4B31414  22.359   3.731   7.650
 6719POPC   NC331415  40.749  17.548   9.450
 6719POPC   PO431416  40.775  17.482   9.150
 6719POPC   GL131417  40.769  17.457   8.850
 6719POPC   GL231418  40.927  17.546   8.850
 6719POPC   C1A31419  40.808  17.459   8.550
 6719POPC   D2A31420  40.801  17.497   8.250
 6719POPC   C3A31421  40.828  17.543   7.950
 6719POPC   C4A31422  40.748  17.509   7.650
 6719POPC   C1B31423  40.994  17.564   8.550
 6719POPC   C2B31424  41.009  17.619   8.250
 6719POPC   C3B31425  40.982  17.565   7.950
 6719POPC   C4B31426  41.046  17.586   7.650
 6720POPC   NC331427  42.381  43.101   9.450
 6720POPC   PO431428  42.365  43.158   9.150
 6720POPC   GL131429  42.379  43.077   8.850
 6720POPC   GL231430  42.287  43.004   8.850
 6720POPC   C1A31431  42.330  43.134   8.550
 6720POPC   D2A31432  42.302  43.083   8.250
 6720POPC   C3A31433  42.305  43.069   7.950
 6720POPC   C4A31434  42.329  43.080   7.650
 6720POPC   C1B31435  42.170  42.933   8.550
 6720POPC   C2B31436  42.204  42.930   8.250
 6720POPC   C3B31437  42.230  42.888   7.950
 6720POPC   C4B31438  42.165  42.871   7.650
 6721POPC   NC331439   2.736  44.692   9.450
 6721POPC   PO431440   2.733  44.691   9.150
 6721POPC   GL131441   2.739  44.676   8.850
 6721POPC   GL231442   2.602  44.726   8.850
 6721POPC   C1A31443   2.791  44.668   8.550
 6721POPC   D2A31444   2.724  44.674   8.250
 6721POPC   C3A31445   2.812  44.688   7.950
 6721POPC   C4A31446   2.725  44.621   7.650
 6721POPC   C1B31447   2.538  44.718   8.550
 6721POPC   C2B31448   2.532  44.753   8.250
 6721POPC   C3B31449   2.493  44.697   7.950
 6721POPC   C4B31450   2.493  44.712   7.650
 6722POPC   NC331451  39.272  22.142   9.450
 6722POPC   PO431452  39.255  22.191   9.150
 6722POPC   GL131453  39.265  22.176   8.850
 6722POPC   GL231454  39.186  22.308   8.850
 6722POPC   C1A31455  39.192  22.173   8.550
 6722POPC   D2A31456  39.275  22.208   8.250
 6722POPC   C3A31457  39.254  22.118   7.950
 6722POPC   C4A31458  39.193  22.139   7.650
 6722POPC   C1B31459  39.065  22.342   8.550
 6722POPC   C2B31460  39.077  22.372   8.250
 6722POPC   C3B31461  39.101  22.364   7.950
 6722POPC   C4B31462  39.100  22.329   7.650
 6723POPC   NC331463  10.542  29.159   9.450
 6723POPC   PO431464  10.526  29.163   9.150
 6723POPC   GL131465  10.548  29.162   8.850
 6723POPC   GL231466  10.489  28.982   8.850
 6723POPC   C1A31467  10.515  29.157   8.550
 6723POPC   D2A31468  10.535  29.158   8.250
 6723POPC   C3A31469  10.513  29.180   7.950
 6723POPC   C4A31470  10.514  29.143   7.650
 6723POPC   C1B31471  10.536  28.869   8.550
 6723POPC   C2B31472  10.582  28.895   8.250
 6723POPC   C3B31473  10.539  28.906   7.950
 6723POPC   C4B31474  10.574  28.918   7.650
 6724POPC   NC331475  13.578   2.011   9.450
 6724POPC   PO431476  13.613   1.954   9.150
 6724POPC   GL131477  13.614   2.031   8.850
 6724POPC   GL231478  13.551   1.926   8.850
 6724POPC   C1A31479  13.654   1.985   8.550
 6724POPC   D2A31480  13.591   1.942   8.250
 6724POPC   C3A31481  13.579   1.975   7.950
 6724POPC   C4A31482  13.605   1.942   7.650
 6724POPC   C1B31483  13.488   1.810   8.550
 6724POPC   C2B31484  13.427   1.767   8.250
 6724POPC   C3B31485  13.505   1.801   7.950
 6724POPC   C4B31486  13.472   1.836   7.650
 6725POPC   NC331487  43.095   1.212   9.450
 6725POPC   PO431488  43.086   1.252   9.150
 6725POPC   GL131489  43.146   1.204   8.850
 6725POPC   GL231490  43.111   1.092   8.850
 6725POPC   C1A31491  43.114   1.255   8.550
 6725POPC   D2A31492  43.107   1.209   8.250
 6725POPC   C3A31493  43.118   1.184   7.950
 6725POPC   C4A31494  43.063   1.257   7.650
 6725POPC   C1B31495  43.210   0.966   8.550
 6725POPC   C2B31496  43.185   0.952   8.250
 6725POPC   C3B31497  43.155   0.999   7.950
 6725POPC   C4B31498  43.165   0.964   7.650
 6726POPC   NC331499  18.331  44.625   9.450
 6726POPC   PO431500  18.273  44.675   9.150
 6726POPC   GL131501  18.330  44.631   8.850
 6726POPC   GL231502  18.214  44.783   8.850
 6726POPC   C1A31503  18.277  44.668   8.550
 6726POPC   D2A31504  18.291  44.684   8.250
 6726POPC   C3A31505  18.265  44.704   7.950
 6726POPC   C4A31506  18.263  44.674   7.650
 6726POPC   C1B31507  18.148  44.877   8.550
 6726POPC   C2B31508  18.132  44.921   8.250
 6726POPC   C3B31509  18.136  44.841   7.950
 6726POPC   C4B31510  18.126  44.866   7.650
 6727POPC   NC331511  39.987  32.977   9.450
 6727POPC   PO431512  40.026  33.056   9.150
 6727POPC   GL131513  39.960  33.054   8.850
 6727POPC   GL231514  39.988  33.164   8.850
 6727POPC   C1A31515  39.997  32.984   8.550
 6727POPC   D2A31516  40.004  32.996   8.250
 6727POPC   C3A31517  40.004  33.036   7.950
 6727POPC   C4A31518  40.021  33.016   7.650
 6727POPC   C1B31519  39.925  33.319   8.550
 6727POPC   C2B31520  39.916  33.227   8.250
 6727POPC   C3B31521  39.938  33.267   7.950
 6727POPC   C4B31522  39.991  33.291   7.650
 6728POPC   NC331523  28.341   8.935   9.450
 6728POPC   PO431524  28.328   9.002   9.150
 6728POPC   GL131525  28.346   8.989   8.850
 6728POPC   GL231526  28.451   9.022   8.850
 6728POPC   C1A31527  28.417   8.975   8.550
 6728POPC   D2A31528  28.373   8.991   8.250
 6728POPC   C3A31529  28.385   8.984   7.950
 6728POPC   C4A31530  28.380   8.990   7.650
 6728POPC   C1B31531  28.550   9.088   8.550
 6728POPC   C2B31532  28.608   9.108   8.250
 6728POPC   C3B31533  28.579   9.096   7.950
 6728POPC   C4B31534  28.622   9.087   7.650
 6729POPC   NC331535  12.084  15.137   9.450
 6729POPC   PO431536  12.067  15.201   9.150
 6729POPC   GL131537  12.126  15.226   8.850
 6729POPC   GL231538  12.172  15.249   8.850
 6729POPC   C1A31539  12.032  15.138   8.550
 6729POPC   D2A31540  12.082  15.203   8.250
 6729POPC   C3A31541  12.111  15.225   7.950
 6729POPC   C4A31542  12.060  15.154   7.650
 6729POPC   C1B31543  12.269  15.421   8.550
 6729POPC   C2B31544  12.189  15.390   8.250
 6729POPC   C3B31545  12.188  15.378   7.950
 6729POPC   C4B31546  12.199  15.406   7.650
 6730POPC   NC331547  16.737  29.940   9.450
 6730POPC   PO431548  16.726  29.930   9.150
 6730POPC   GL131549  16.739  29.891   8.850
 6730POPC   GL231550  16.641  29.831   8.850
 6730POPC   C1A31551  16.780  29.943   8.550
 6730POPC   D2A31552  16.745  29.903   8.250
 6730POPC   C3A31553  16.764  29.872   7.950
 6730POPC   C4A31554  16.718  29.915   7.650
 6730POPC   C1B31555  16.536  29.735   8.550
 6730POPC   C2B31556  16.558  29.829   8.250
 6730POPC   C3B31557  16.481  29.832   7.950
 6730POPC   C4B31558  16.510  29.815   7.650
 6731POPC   NC331559  37.686  32.286   9.450
 6731POPC   PO431560  37.707  32.291   9.150
 6731POPC   GL131561  37.720  32.297   8.850
 6731POPC   GL231562  37.641  32.371   8.850
 6731POPC   C1A31563  37.646  32.232   8.550
 6731POPC   D2A31564  37.685  32.258   8.250
 6731POPC   C3A31565  37.722  32.271   7.950
 6731POPC   C4A31566  37.679  32.222   7.650
 6731POPC   C1B31567  37.555  32.498   8.550
 6731POPC   C2B31568  37.573  32.486   8.250
 6731POPC   C3B31569  37.562  32.498   7.950
 6731POPC   C4B31570  37.538  32.483   7.650
 6732POPC   NC331571  32.212  17.520   9.450
 6732POPC   PO431572  32.225  17.516   9.150
 6732POPC   GL131573  32.296  17.491   8.850
 6732POPC   GL231574  32.328  17.495   8.850
 6732POPC   C1A31575  32.201  17.531   8.550
 6732POPC   D2A31576  32.212  17.485   8.250
 6732POPC   C3A31577  32.273  17.482   7.950
 6732POPC   C4A31578  32.237  17.474   7.650
 6732POPC   C1B31579  32.524  17.542   8.550
 6732POPC   C2B31580  32.467  17.481   8.250
 6732POPC   C3B31581  32.542  17.515   7.950
 6732POPC   C4B31582  32.487  17.555   7.650
 6733POPC   NC331583  23.720  29.186   9.450
 6733POPC   PO431584  23.692  29.180   9.150
 6733POPC   GL131585  23.696  29.130   8.850
 6733POPC   GL231586  23.795  29.111   8.850
 6733POPC   C1A31587  23.674  29.169   8.550
 6733POPC   D2A31588  23.694  29.181   8.250
 6733POPC   C3A31589  23.755  29.134   7.950
 6733POPC   C4A31590  23.710  29.123   7.650
 6733POPC   C1B31591  23.894  28.965   8.550
 6733POPC   C2B31592  23.961  29.017   8.250
 6733POPC   C3B31593  23.947  28.980   7.950
 6733POPC   C4B31594  23.881  28.968   7.650
 6734POPC   NC331595   8.174  19.799   9.450
 6734POPC   PO431596   8.212  19.813   9.150
 6734POPC   GL131597   8.222  19.796   8.850
 6734POPC   GL231598   8.349  19.840   8.850
 6734POPC   C1A31599   8.177  19.849   8.550
 6734POPC   D2A31600   8.244  19.815   8.250
 6734POPC   C3A31601   8.154  19.806   7.950
 6734POPC   C4A31602   8.232  19.824   7.650
 6734POPC   C1B31603   8.444  19.737   8.550
 6734POPC   C2B31604   8.455  19.775   8.250
 6734POPC   C3B31605   8.414  19.782   7.950
 6734POPC   C4B31606   8.455  19.773   7.650
 6735POPC   NC331607   2.002  23.760   9.450
 6735POPC   PO431608   2.025  23.680   9.150
 6735POPC   GL131609   1.994  23.700   8.850
 6735POPC   GL231610   2.111  23.649   8.850
 6735POPC   C1A31611   2.016  23.717   8.550
 6735POPC   D2A31612   2.029  23.733   8.250
 6735POPC   C3A31613   1.955  23.753   7.950
 6735POPC   C4A31614   2.030  23.752   7.650
 6735POPC   C1B31615   2.201  23.590   8.550
 6735POPC   C2B31616   2.176  23.573   8.250
 6735POPC   C3B31617   2.240  23.609   7.950
 6735POPC   C4B31618   2.220  23.564   7.650
 6736POPC   NC331619  36.890   5.102   9.450
 6736POPC   PO431620  36.890   5.133   9.150
 6736POPC   GL131621  36.870   5.058   8.850
 6736POPC   GL231622  37.047   5.021   8.850
 6736POPC   C1A31623  36.952   5.071   8.550
 6736POPC   D2A31624  36.913   5.095   8.250
 6736POPC   C3A31625  36.863   5.105   7.950
 6736POPC   C4A31626  36.908   5.098   7.650
 6736POPC   C1B31627  37.135   4.976   8.550
 6736POPC   C2B31628  37.127   4.980   8.250
 6736POPC   C3B31629  37.053   4.941   7.950
 6736POPC   C4B31630  37.055   4.926   7.650
 6737POPC   NC331631  16.756   0.482   9.450
 6737POPC   PO431632  16.717   0.443   9.150
 6737POPC   GL131633  16.713   0.476   8.850
 6737POPC   GL231634  16.630   0.292   8.850
 6737POPC   C1A31635  16.697   0.468   8.550
 6737POPC   D2A31636  16.756   0.424   8.250
 6737POPC   C3A31637  16.728   0.482   7.950
 6737POPC   C4A31638  16.770   0.394   7.650
 6737POPC   C1B31639  16.617   0.188   8.550
 6737POPC   C2B31640  16.639   0.196   8.250
 6737POPC   C3B31641  16.657   0.243   7.950
 6737POPC   C4B31642  16.609   0.239   7.650
 6738POPC   NC331643  22.153  32.234   9.450
 6738POPC   PO431644  22.158  32.228   9.150
 6738POPC   GL131645  22.193  32.250   8.850
 6738POPC   GL231646  22.151  32.366   8.850
 6738POPC   C1A31647  22.203  32.218   8.550
 6738POPC   D2A31648  22.135  32.256   8.250
 6738POPC   C3A31649  22.208  32.218   7.950
 6738POPC   C4A31650  22.195  32.285   7.650
 6738POPC   C1B31651  22.182  32.481   8.550
 6738POPC   C2B31652  22.175  32.508   8.250
 6738POPC   C3B31653  22.155  32.464   7.950
 6738POPC   C4B31654  22.217  32.455   7.650
 6739POPC   NC331655  16.709  10.561   9.450
 6739POPC   PO431656  16.770  10.496   9.150
 6739POPC   GL131657  16.727  10.489   8.850
 6739POPC   GL231658  16.607  10.552   8.850
 6739POPC   C1A31659  16.763  10.476   8.550
 6739POPC   D2A31660  16.753  10.539   8.250
 6739POPC   C3A31661  16.760  10.521   7.950
 6739POPC   C4A31662  16.758  10.483   7.650
 6739POPC   C1B31663  16.509  10.610   8.550
 6739POPC   C2B31664  16.525  10.672   8.250
 6739POPC   C3B31665  16.494  10.622   7.950
 6739POPC   C4B31666  16.556  10.605   7.650
 6740POPC   NC331667  12.844  13.592   9.450
 6740POPC   PO431668  12.837  13.652   9.150
 6740POPC   GL131669  12.819  13.658   8.850
 6740POPC   GL231670  12.944  13.619   8.850
 6740POPC   C1A31671  12.848  13.658   8.550
 6740POPC   D2A31672  12.832  13.657   8.250
 6740POPC   C3A31673  12.841  13.665   7.950
 6740POPC   C4A31674  12.869  13.602   7.650
 6740POPC   C1B31675  13.089  13.559   8.550
 6740POPC   C2B31676  13.105  13.550   8.250
 6740POPC   C3B31677  13.046  13.528   7.950
 6740POPC   C4B31678  13.051  13.498   7.650
 6741POPC   NC331679   2.740  16.731   9.450
 6741POPC   PO431680   2.743  16.766   9.150
 6741POPC   GL131681   2.799  16.693   8.850
 6741POPC   GL231682   2.872  16.696   8.850
 6741POPC   C1A31683   2.731  16.732   8.550
 6741POPC   D2A31684   2.723  16.717   8.250
 6741POPC   C3A31685   2.743  16.715   7.950
 6741POPC   C4A31686   2.792  16.712   7.650
 6741POPC   C1B31687   3.052  16.644   8.550
 6741POPC   C2B31688   3.022  16.659   8.250
 6741POPC   C3B31689   3.036  16.648   7.950
 6741POPC   C4B31690   2.962  16.700   7.650
 6742POPC   NC331691  34.585  14.380   9.450
 6742POPC   PO431692  34.614  14.434   9.150
 6742POPC   GL131693  34.590  14.431   8.850
 6742POPC   GL231694  34.622  14.539   8.850
 6742POPC   C1A31695  34.572  14.413   8.550
 6742POPC   D2A31696  34.569  14.399   8.250
 6742POPC   C3A31697  34.579  14.415   7.950
 6742POPC   C4A31698  34.544  14.419   7.650
 6742POPC   C1B31699  34.597  14.615   8.550
 6742POPC   C2B31700  34.595  14.685   8.250
 6742POPC   C3B31701  34.669  14.697   7.950
 6742POPC   C4B31702  34.612  14.664   7.650
 6743POPC   NC331703  36.869  44.683   9.450
 6743POPC   PO431704  36.900  44.617   9.150
 6743POPC   GL131705  36.882  44.695   8.850
 6743POPC   GL231706  36.840  44.776   8.850
 6743POPC   C1A31707  36.863  44.653   8.550
 6743POPC   D2A31708  36.952  44.648   8.250
 6743POPC   C3A31709  36.936  44.649   7.950
 6743POPC   C4A31710  36.946  44.679   7.650
 6743POPC   C1B31711  36.706  44.869   8.550
 6743POPC   C2B31712  36.686  44.795   8.250
 6743POPC   C3B31713  36.712  44.848   7.950
 6743POPC   C4B31714  36.760  44.822   7.650
 6744POPC   NC331715  37.697  12.871   9.450
 6744POPC   PO431716  37.652  12.884   9.150
 6744POPC   GL131717  37.714  12.873   8.850
 6744POPC   GL231718  37.578  12.824   8.850
 6744POPC   C1A31719  37.728  12.802   8.550
 6744POPC   D2A31720  37.703  12.845   8.250
 6744POPC   C3A31721  37.661  12.865   7.950
 6744POPC   C4A31722  37.658  12.879   7.650
 6744POPC   C1B31723  37.522  12.665   8.550
 6744POPC   C2B31724  37.423  12.696   8.250
 6744POPC   C3B31725  37.458  12.681   7.950
 6744POPC   C4B31726  37.496  12.673   7.650
 6745POPC   NC331727  32.261   2.747   9.450
 6745POPC   PO431728  32.258   2.773   9.150
 6745POPC   GL131729  32.253   2.750   8.850
 6745POPC   GL231730  32.412   2.714   8.850
 6745POPC   C1A31731  32.237   2.731   8.550
 6745POPC   D2A31732  32.237   2.774   8.250
 6745POPC   C3A31733  32.244   2.815   7.950
 6745POPC   C4A31734  32.264   2.735   7.650
 6745POPC   C1B31735  32.514   2.644   8.550
 6745POPC   C2B31736  32.491   2.700   8.250
 6745POPC   C3B31737  32.445   2.706   7.950
 6745POPC   C4B31738  32.442   2.716   7.650
 6746POPC   NC331739  34.617  35.354   9.450
 6746POPC   PO431740  34.527  35.364   9.150
 6746POPC   GL131741  34.618  35.382   8.850
 6746POPC   GL231742  34.580  35.453   8.850
 6746POPC   C1A31743  34.527  35.352   8.550
 6746POPC   D2A31744  34.573  35.384   8.250
 6746POPC   C3A31745  34.583  35.362   7.950
 6746POPC   C4A31746  34.556  35.356   7.650
 6746POPC   C1B31747  34.586  35.552   8.550
 6746POPC   C2B31748  34.515  35.582   8.250
 6746POPC   C3B31749  34.557  35.635   7.950
 6746POPC   C4B31750  34.590  35.632   7.650
 6747POPC   NC331751   4.340  30.688   9.450
 6747POPC   PO431752   4.336  30.709   9.150
 6747POPC   GL131753   4.301  30.735   8.850
 6747POPC   GL231754   4.271  30.813   8.850
 6747POPC   C1A31755   4.330  30.675   8.550
 6747POPC   D2A31756   4.304  30.660   8.250
 6747POPC   C3A31757   4.276  30.660   7.950
 6747POPC   C4A31758   4.302  30.648   7.650
 6747POPC   C1B31759   4.272  30.905   8.550
 6747POPC   C2B31760   4.268  30.916   8.250
 6747POPC   C3B31761   4.317  30.988   7.950
 6747POPC   C4B31762   4.319  30.904   7.650
 6748POPC   NC331763  29.129  12.858   9.450
 6748POPC   PO431764  29.193  12.890   9.150
 6748POPC   GL131765  29.111  12.826   8.850
 6748POPC   GL231766  29.230  12.810   8.850
 6748POPC   C1A31767  29.191  12.886   8.550
 6748POPC   D2A31768  29.099  12.835   8.250
 6748POPC   C3A31769  29.169  12.879   7.950
 6748POPC   C4A31770  29.111  12.863   7.650
 6748POPC   C1B31771  29.347  12.829   8.550
 6748POPC   C2B31772  29.374  12.798   8.250
 6748POPC   C3B31773  29.364  12.734   7.950
 6748POPC   C4B31774  29.396  12.788   7.650
 6749POPC   NC331775   4.359  22.903   9.450
 6749POPC   PO431776   4.352  22.891   9.150
 6749POPC   GL131777   4.287  22.915   8.850
 6749POPC   GL231778   4.294  23.025   8.850
 6749POPC   C1A31779   4.297  22.969   8.550
 6749POPC   D2A31780   4.317  22.974   8.250
 6749POPC   C3A31781   4.337  22.979   7.950
 6749POPC   C4A31782   4.340  22.978   7.650
 6749POPC   C1B31783   4.322  23.234   8.550
 6749POPC   C2B31784   4.315  23.172   8.250
 6749POPC   C3B31785   4.280  23.172   7.950
 6749POPC   C4B31786   4.283  23.164   7.650
 6750POPC   NC331787   1.190  32.265   9.450
 6750POPC   PO431788   1.244  32.243   9.150
 6750POPC   GL131789   1.263  32.225   8.850
 6750POPC   GL231790   1.168  32.353   8.850
 6750POPC   C1A31791   1.261  32.210   8.550
 6750POPC   D2A31792   1.227  32.210   8.250
 6750POPC   C3A31793   1.239  32.238   7.950
 6750POPC   C4A31794   1.208  32.265   7.650
 6750POPC   C1B31795   1.128  32.435   8.550
 6750POPC   C2B31796   1.109  32.491   8.250
 6750POPC   C3B31797   1.141  32.455   7.950
 6750POPC   C4B31798   1.151  32.512   7.650
 6751POPC   NC331799  39.241  44.688   9.450
 6751POPC   PO431800  39.252  44.685   9.150
 6751POPC   GL131801  39.215  44.617   8.850
 6751POPC   GL231802  39.255  44.739   8.850
 6751POPC   C1A31803  39.203  44.694   8.550
 6751POPC   D2A31804  39.275  44.702   8.250
 6751POPC   C3A31805  39.226  44.698   7.950
 6751POPC   C4A31806  39.232  44.660   7.650
 6751POPC   C1B31807  39.273  44.943   8.550
 6751POPC   C2B31808  39.298  44.935   8.250
 6751POPC   C3B31809  39.245  44.893   7.950
 6751POPC   C4B31810  39.324  44.934   7.650
 6752POPC   NC331811  32.227  19.825   9.450
 6752POPC   PO431812  32.230  19.814   9.150
 6752POPC   GL131813  32.252  19.821   8.850
 6752POPC   GL231814  32.155  19.712   8.850
 6752POPC   C1A31815  32.297  19.788   8.550
 6752POPC   D2A31816  32.232  19.828   8.250
 6752POPC   C3A31817  32.261  19.875   7.950
 6752POPC   C4A31818  32.217  19.811   7.650
 6752POPC   C1B31819  32.117  19.621   8.550
 6752POPC   C2B31820  32.142  19.570   8.250
 6752POPC   C3B31821  32.197  19.571   7.950
 6752POPC   C4B31822  32.106  19.565   7.650
 6753POPC   NC331823  19.058  13.639   9.450
 6753POPC   PO431824  19.025  13.621   9.150
 6753POPC   GL131825  19.025  13.664   8.850
 6753POPC   GL231826  18.933  13.563   8.850
 6753POPC   C1A31827  19.013  13.582   8.550
 6753POPC   D2A31828  19.012  13.628   8.250
 6753POPC   C3A31829  19.033  13.637   7.950
 6753POPC   C4A31830  19.017  13.619   7.650
 6753POPC   C1B31831  18.869  13.540   8.550
 6753POPC   C2B31832  18.879  13.473   8.250
 6753POPC   C3B31833  18.847  13.515   7.950
 6753POPC   C4B31834  18.885  13.528   7.650
 6754POPC   NC331835  15.184  33.826   9.450
 6754POPC   PO431836  15.216  33.770   9.150
 6754POPC   GL131837  15.168  33.841   8.850
 6754POPC   GL231838  15.060  33.786   8.850
 6754POPC   C1A31839  15.184  33.850   8.550
 6754POPC   D2A31840  15.144  33.798   8.250
 6754POPC   C3A31841  15.136  33.783   7.950
 6754POPC   C4A31842  15.141  33.815   7.650
 6754POPC   C1B31843  14.937  33.851   8.550
 6754POPC   C2B31844  14.918  33.826   8.250
 6754POPC   C3B31845  14.964  33.818   7.950
 6754POPC   C4B31846  14.906  33.770   7.650
 6755POPC   NC331847   5.109  22.149   9.450
 6755POPC   PO431848   5.094  22.129   9.150
 6755POPC   GL131849   5.065  22.175   8.850
 6755POPC   GL231850   5.133  22.323   8.850
 6755POPC   C1A31851   5.120  22.144   8.550
 6755POPC   D2A31852   5.066  22.116   8.250
 6755POPC   C3A31853   5.077  22.204   7.950
 6755POPC   C4A31854   5.077  22.139   7.650
 6755POPC   C1B31855   5.174  22.438   8.550
 6755POPC   C2B31856   5.111  22.363   8.250
 6755POPC   C3B31857   5.153  22.436   7.950
 6755POPC   C4B31858   5.142  22.363   7.650
 6756POPC   NC331859  25.306  20.584   9.450
 6756POPC   PO431860  25.279  20.636   9.150
 6756POPC   GL131861  25.255  20.622   8.850
 6756POPC   GL231862  25.209  20.778   8.850
 6756POPC   C1A31863  25.264  20.628   8.550
 6756POPC   D2A31864  25.225  20.617   8.250
 6756POPC   C3A31865  25.289  20.561   7.950
 6756POPC   C4A31866  25.253  20.598   7.650
 6756POPC   C1B31867  25.218  20.839   8.550
 6756POPC   C2B31868  25.239  20.850   8.250
 6756POPC   C3B31869  25.269  20.836   7.950
 6756POPC   C4B31870  25.227  20.838   7.650
 6757POPC   NC331871   8.164  20.584   9.450
 6757POPC   PO431872   8.172  20.614   9.150
 6757POPC   GL131873   8.196  20.628   8.850
 6757POPC   GL231874   8.252  20.498   8.850
 6757POPC   C1A31875   8.186  20.632   8.550
 6757POPC   D2A31876   8.237  20.586   8.250
 6757POPC   C3A31877   8.246  20.624   7.950
 6757POPC   C4A31878   8.193  20.609   7.650
 6757POPC   C1B31879   8.284  20.382   8.550
 6757POPC   C2B31880   8.212  20.345   8.250
 6757POPC   C3B31881   8.195  20.320   7.950
 6757POPC   C4B31882   8.220  20.317   7.650
 6758POPC   NC331883   8.969  16.771   9.450
 6758POPC   PO431884   8.949  16.770   9.150
 6758POPC   GL131885   8.954  16.748   8.850
 6758POPC   GL231886   8.814  16.692   8.850
 6758POPC   C1A31887   9.009  16.767   8.550
 6758POPC   D2A31888   8.983  16.771   8.250
 6758POPC   C3A31889   8.924  16.715   7.950
 6758POPC   C4A31890   8.980  16.770   7.650
 6758POPC   C1B31891   8.701  16.721   8.550
 6758POPC   C2B31892   8.693  16.727   8.250
 6758POPC   C3B31893   8.700  16.765   7.950
 6758POPC   C4B31894   8.698  16.709   7.650
 6759POPC   NC331895  36.922  42.350   9.450
 6759POPC   PO431896  36.928  42.320   9.150
 6759POPC   GL131897  36.931  42.380   8.850
 6759POPC   GL231898  36.863  42.414   8.850
 6759POPC   C1A31899  36.929  42.290   8.550
 6759POPC   D2A31900  36.882  42.316   8.250
 6759POPC   C3A31901  36.922  42.340   7.950
 6759POPC   C4A31902  36.859  42.362   7.650
 6759POPC   C1B31903  36.831  42.539   8.550
 6759POPC   C2B31904  36.866  42.615   8.250
 6759POPC   C3B31905  36.844  42.586   7.950
 6759POPC   C4B31906  36.843  42.533   7.650
 6760POPC   NC331907   0.461  27.573   9.450
 6760POPC   PO431908   0.465  27.621   9.150
 6760POPC   GL131909   0.431  27.639   8.850
 6760POPC   GL231910   0.350  27.714   8.850
 6760POPC   C1A31911   0.408  27.581   8.550
 6760POPC   D2A31912   0.426  27.560   8.250
 6760POPC   C3A31913   0.428  27.615   7.950
 6760POPC   C4A31914   0.406  27.611   7.650
 6760POPC   C1B31915   0.369  27.857   8.550
 6760POPC   C2B31916   0.338  27.781   8.250
 6760POPC   C3B31917   0.393  27.860   7.950
 6760POPC   C4B31918   0.340  27.868   7.650
 6761POPC   NC331919  31.451  44.675   9.450
 6761POPC   PO431920  31.487  44.675   9.150
 6761POPC   GL131921  31.494  44.709   8.850
 6761POPC   GL231922  31.558  44.573   8.850
 6761POPC   C1A31923  31.445  44.663   8.550
 6761POPC   D2A31924  31.433  44.684   8.250
 6761POPC   C3A31925  31.501  44.682   7.950
 6761POPC   C4A31926  31.482  44.651   7.650
 6761POPC   C1B31927  31.623  44.480   8.550
 6761POPC   C2B31928  31.666  44.471   8.250
 6761POPC   C3B31929  31.650  44.448   7.950
 6761POPC   C4B31930  31.607  44.493   7.650
 6762POPC   NC331931  41.516  43.880   9.450
 6762POPC   PO431932  41.535  43.925   9.150
 6762POPC   GL131933  41.608  43.843   8.850
 6762POPC   GL231934  41.510  43.730   8.850
 6762POPC   C1A31935  41.517  43.897   8.550
 6762POPC   D2A31936  41.550  43.879   8.250
 6762POPC   C3A31937  41.588  43.869   7.950
 6762POPC   C4A31938  41.576  43.936   7.650
 6762POPC   C1B31939  41.544  43.661   8.550
 6762POPC   C2B31940  41.556  43.656   8.250
 6762POPC   C3B31941  41.544  43.623   7.950
 6762POPC   C4B31942  41.583  43.677   7.650
 6763POPC   NC331943  24.477  40.006   9.450
 6763POPC   PO431944  24.529  39.958   9.150
 6763POPC   GL131945  24.530  39.961   8.850
 6763POPC   GL231946  24.584  40.136   8.850
 6763POPC   C1A31947  24.505  39.990   8.550
 6763POPC   D2A31948  24.465  39.989   8.250
 6763POPC   C3A31949  24.511  39.970   7.950
 6763POPC   C4A31950  24.474  39.991   7.650
 6763POPC   C1B31951  24.617  40.208   8.550
 6763POPC   C2B31952  24.677  40.242   8.250
 6763POPC   C3B31953  24.649  40.229   7.950
 6763POPC   C4B31954  24.649  40.242   7.650
 6764POPC   NC331955  14.357  36.160   9.450
 6764POPC   PO431956  14.426  36.124   9.150
 6764POPC   GL131957  14.416  36.147   8.850
 6764POPC   GL231958  14.540  36.170   8.850
 6764POPC   C1A31959  14.453  36.136   8.550
 6764POPC   D2A31960  14.390  36.135   8.250
 6764POPC   C3A31961  14.354  36.127   7.950
 6764POPC   C4A31962  14.409  36.174   7.650
 6764POPC   C1B31963  14.630  36.249   8.550
 6764POPC   C2B31964  14.623  36.291   8.250
 6764POPC   C3B31965  14.577  36.286   7.950
 6764POPC   C4B31966  14.630  36.267   7.650
 6765POPC   NC331967   2.029   6.642   9.450
 6765POPC   PO431968   2.022   6.680   9.150
 6765POPC   GL131969   2.014   6.686   8.850
 6765POPC   GL231970   1.899   6.723   8.850
 6765POPC   C1A31971   2.019   6.642   8.550
 6765POPC   D2A31972   1.966   6.610   8.250
 6765POPC   C3A31973   1.955   6.680   7.950
 6765POPC   C4A31974   2.005   6.617   7.650
 6765POPC   C1B31975   1.713   6.714   8.550
 6765POPC   C2B31976   1.777   6.752   8.250
 6765POPC   C3B31977   1.796   6.739   7.950
 6765POPC   C4B31978   1.779   6.709   7.650
 6766POPC   NC331979  10.536  19.015   9.450
 6766POPC   PO431980  10.503  19.009   9.150
 6766POPC   GL131981  10.495  19.016   8.850
 6766POPC   GL231982  10.541  19.199   8.850
 6766POPC   C1A31983  10.566  19.093   8.550
 6766POPC   D2A31984  10.498  19.050   8.250
 6766POPC   C3A31985  10.560  19.064   7.950
 6766POPC   C4A31986  10.529  19.050   7.650
 6766POPC   C1B31987  10.533  19.321   8.550
 6766POPC   C2B31988  10.511  19.321   8.250
 6766POPC   C3B31989  10.548  19.262   7.950
 6766POPC   C4B31990  10.544  19.283   7.650
 6767POPC   NC331991   1.977  19.791   9.450
 6767POPC   PO431992   2.013  19.869   9.150
 6767POPC   GL131993   1.998  19.796   8.850
 6767POPC   GL231994   1.910  19.717   8.850
 6767POPC   C1A31995   1.958  19.851   8.550
 6767POPC   D2A31996   1.944  19.833   8.250
 6767POPC   C3A31997   2.026  19.843   7.950
 6767POPC   C4A31998   2.029  19.786   7.650
 6767POPC   C1B31999   1.910  19.626   8.550
 6767POPC   C2B32000   1.847  19.628   8.250
 6767POPC   C3B32001   1.925  19.580   7.950
 6767POPC   C4B32002   1.846  19.648   7.650
 6768POPC   NC332003  39.991  42.300   9.450
 6768POPC   PO432004  40.008  42.349   9.150
 6768POPC   GL132005  39.991  42.311   8.850
 6768POPC   GL232006  39.985  42.238   8.850
 6768POPC   C1A32007  39.977  42.318   8.550
 6768POPC   D2A32008  39.979  42.320   8.250
 6768POPC   C3A32009  39.993  42.307   7.950
 6768POPC   C4A32010  40.040  42.359   7.650
 6768POPC   C1B32011  39.939  42.114   8.550
 6768POPC   C2B32012  39.898  42.117   8.250
 6768POPC   C3B32013  39.930  42.128   7.950
 6768POPC   C4B32014  39.905  42.096   7.650
 6769POPC   NC332015  43.134  42.309   9.450
 6769POPC   PO432016  43.062  42.326   9.150
 6769POPC   GL132017  43.103  42.296   8.850
 6769POPC   GL232018  43.199  42.330   8.850
 6769POPC   C1A32019  43.070  42.343   8.550
 6769POPC   D2A32020  43.117  42.371   8.250
 6769POPC   C3A32021  43.114  42.373   7.950
 6769POPC   C4A32022  43.121  42.372   7.650
 6769POPC   C1B32023  43.315  42.305   8.550
 6769POPC   C2B32024  43.328  42.287   8.250
 6769POPC   C3B32025  43.335  42.294   7.950
 6769POPC   C4B32026  43.330  42.305   7.650
 6770POPC   NC332027  25.273  33.045   9.450
 6770POPC   PO432028  25.276  33.002   9.150
 6770POPC   GL132029  25.240  33.048   8.850
 6770POPC   GL232030  25.208  33.099   8.850
 6770POPC   C1A32031  25.267  32.984   8.550
 6770POPC   D2A32032  25.296  33.042   8.250
 6770POPC   C3A32033  25.221  33.061   7.950
 6770POPC   C4A32034  25.219  32.986   7.650
 6770POPC   C1B32035  25.114  33.168   8.550
 6770POPC   C2B32036  25.117  33.239   8.250
 6770POPC   C3B32037  25.098  33.207   7.950
 6770POPC   C4B32038  25.144  33.203   7.650
 6771POPC   NC332039  20.584  22.166   9.450
 6771POPC   PO432040  20.657  22.185   9.150
 6771POPC   GL132041  20.654  22.116   8.850
 6771POPC   GL232042  20.721  22.225   8.850
 6771POPC   C1A32043  20.624  22.150   8.550
 6771POPC   D2A32044  20.601  22.193   8.250
 6771POPC   C3A32045  20.628  22.207   7.950
 6771POPC   C4A32046  20.565  22.142   7.650
 6771POPC   C1B32047  20.878  22.274   8.550
 6771POPC   C2B32048  20.840  22.276   8.250
 6771POPC   C3B32049  20.801  22.226   7.950
 6771POPC   C4B32050  20.830  22.218   7.650
 6772POPC   NC332051  39.280   8.214   9.450
 6772POPC   PO432052  39.209   8.222   9.150
 6772POPC   GL132053  39.231   8.243   8.850
 6772POPC   GL232054  39.341   8.220   8.850
 6772POPC   C1A32055  39.254   8.229   8.550
 6772POPC   D2A32056  39.262   8.188   8.250
 6772POPC   C3A32057  39.195   8.186   7.950
 6772POPC   C4A32058  39.212   8.202   7.650
 6772POPC   C1B32059  39.528   8.213   8.550
 6772POPC   C2B32060  39.450   8.175   8.250
 6772POPC   C3B32061  39.482   8.154   7.950
 6772POPC   C4B32062  39.523   8.190   7.650
 6773POPC   NC332063  44.634  43.076   9.450
 6773POPC   PO432064  44.676  43.074   9.150
 6773POPC   GL132065  44.628  43.152   8.850
 6773POPC   GL232066  44.743  43.101   8.850
 6773POPC   C1A32067  44.688  43.142   8.550
 6773POPC   D2A32068  44.619  43.126   8.250
 6773POPC   C3A32069  44.698  43.090   7.950
 6773POPC   C4A32070  44.706  43.063   7.650
 6773POPC   C1B32071  44.918  43.035   8.550
 6773POPC   C2B32072  44.862  43.010   8.250
 6773POPC   C3B32073  44.845  43.053   7.950
 6773POPC   C4B32074  44.905  43.046   7.650
 6774POPC   NC332075   0.421  40.776   9.450
 6774POPC   PO432076   0.459  40.803   9.150
 6774POPC   GL132077   0.407  40.744   8.850
 6774POPC   GL232078   0.483  40.609   8.850
 6774POPC   C1A32079   0.482  40.740   8.550
 6774POPC   D2A32080   0.437  40.757   8.250
 6774POPC   C3A32081   0.410  40.822   7.950
 6774POPC   C4A32082   0.456  40.739   7.650
 6774POPC   C1B32083   0.416  40.572   8.550
 6774POPC   C2B32084   0.448  40.543   8.250
 6774POPC   C3B32085   0.433  40.539   7.950
 6774POPC   C4B32086   0.463  40.540   7.650
 6775POPC   NC332087  11.327  43.863   9.450
 6775POPC   PO432088  11.278  43.874   9.150
 6775POPC   GL132089  11.256  43.908   8.850
 6775POPC   GL232090  11.434  43.830   8.850
 6775POPC   C1A32091  11.310  43.894   8.550
 6775POPC   D2A32092  11.304  43.908   8.250
 6775POPC   C3A32093  11.304  43.926   7.950
 6775POPC   C4A32094  11.316  43.920   7.650
 6775POPC   C1B32095  11.485  43.734   8.550
 6775POPC   C2B32096  11.495  43.681   8.250
 6775POPC   C3B32097  11.503  43.677   7.950
 6775POPC   C4B32098  11.489  43.697   7.650
 6776POPC   NC332099   1.959  36.156   9.450
 6776POPC   PO432100   2.013  36.138   9.150
 6776POPC   GL132101   2.019  36.159   8.850
 6776POPC   GL232102   1.990  36.234   8.850
 6776POPC   C1A32103   1.956  36.134   8.550
 6776POPC   D2A32104   1.958  36.101   8.250
 6776POPC   C3A32105   2.024  36.137   7.950
 6776POPC   C4A32106   1.981  36.150   7.650
 6776POPC   C1B32107   1.883  36.381   8.550
 6776POPC   C2B32108   1.957  36.383   8.250
 6776POPC   C3B32109   1.937  36.346   7.950
 6776POPC   C4B32110   1.864  36.344   7.650
 6777POPC   NC332111  30.706  23.750   9.450
 6777POPC   PO432112  30.674  23.723   9.150
 6777POPC   GL132113  30.652  23.713   8.850
 6777POPC   GL232114  30.783  23.771   8.850
 6777POPC   C1A32115  30.704  23.748   8.550
 6777POPC   D2A32116  30.688  23.686   8.250
 6777POPC   C3A32117  30.689  23.716   7.950
 6777POPC   C4A32118  30.741  23.722   7.650
 6777POPC   C1B32119  30.930  23.858   8.550
 6777POPC   C2B32120  30.886  23.847   8.250
 6777POPC   C3B32121  30.881  23.891   7.950
 6777POPC   C4B32122  30.856  23.875   7.650
 6778POPC   NC332123  23.754  43.866   9.450
 6778POPC   PO432124  23.721  43.869   9.150
 6778POPC   GL132125  23.689  43.888   8.850
 6778POPC   GL232126  23.695  44.026   8.850
 6778POPC   C1A32127  23.676  43.884   8.550
 6778POPC   D2A32128  23.714  43.900   8.250
 6778POPC   C3A32129  23.672  43.905   7.950
 6778POPC   C4A32130  23.666  43.855   7.650
 6778POPC   C1B32131  23.764  44.099   8.550
 6778POPC   C2B32132  23.748  44.160   8.250
 6778POPC   C3B32133  23.730  44.179   7.950
 6778POPC   C4B32134  23.709  44.087   7.650
 6779POPC   NC332135   8.997  14.380   9.450
 6779POPC   PO432136   8.987  14.430   9.150
 6779POPC   GL132137   8.971  14.422   8.850
 6779POPC   GL232138   8.833  14.420   8.850
 6779POPC   C1A32139   8.925  14.358   8.550
 6779POPC   D2A32140   8.977  14.363   8.250
 6779POPC   C3A32141   9.018  14.431   7.950
 6779POPC   C4A32142   8.929  14.415   7.650
 6779POPC   C1B32143   8.758  14.405   8.550
 6779POPC   C2B32144   8.703  14.396   8.250
 6779POPC   C3B32145   8.685  14.356   7.950
 6779POPC   C4B32146   8.686  14.331   7.650
 6780POPC   NC332147   1.262  23.724   9.450
 6780POPC   PO432148   1.225  23.746   9.150
 6780POPC   GL132149   1.231  23.751   8.850
 6780POPC   GL232150   1.058  23.712   8.850
 6780POPC   C1A32151   1.248  23.687   8.550
 6780POPC   D2A32152   1.186  23.743   8.250
 6780POPC   C3A32153   1.255  23.681   7.950
 6780POPC   C4A32154   1.237  23.668   7.650
 6780POPC   C1B32155   0.922  23.671   8.550
 6780POPC   C2B32156   0.926  23.713   8.250
 6780POPC   C3B32157   1.009  23.697   7.950
 6780POPC   C4B32158   0.936  23.742   7.650
 6781POPC   NC332159   3.521   4.324   9.450
 6781POPC   PO432160   3.524   4.270   9.150
 6781POPC   GL132161   3.561   4.296   8.850
 6781POPC   GL232162   3.459   4.242   8.850
 6781POPC   C1A32163   3.554   4.346   8.550
 6781POPC   D2A32164   3.557   4.318   8.250
 6781POPC   C3A32165   3.546   4.292   7.950
 6781POPC   C4A32166   3.562   4.324   7.650
 6781POPC   C1B32167   3.445   4.063   8.550
 6781POPC   C2B32168   3.415   4.124   8.250
 6781POPC   C3B32169   3.445   4.150   7.950
 6781POPC   C4B32170   3.447   4.067   7.650
 6782POPC   NC332171  39.205  11.286   9.450
 6782POPC   PO432172  39.281  11.296   9.150
 6782POPC   GL132173  39.261  11.320   8.850
 6782POPC   GL232174  39.153  11.244   8.850
 6782POPC   C1A32175  39.225  11.346   8.550
 6782POPC   D2A32176  39.277  11.295   8.250
 6782POPC   C3A32177  39.238  11.257   7.950
 6782POPC   C4A32178  39.226  11.346   7.650
 6782POPC   C1B32179  38.978  11.155   8.550
 6782POPC   C2B32180  39.006  11.230   8.250
 6782POPC   C3B32181  39.014  11.234   7.950
 6782POPC   C4B32182  39.035  11.251   7.650
 6783POPC   NC332183  30.699  44.676   9.450
 6783POPC   PO432184  30.708  44.654   9.150
 6783POPC   GL132185  30.719  44.684   8.850
 6783POPC   GL232186  30.859  44.679   8.850
 6783POPC   C1A32187  30.731  44.696   8.550
 6783POPC   D2A32188  30.655  44.707   8.250
 6783POPC   C3A32189  30.725  44.668   7.950
 6783POPC   C4A32190  30.658  44.646   7.650
 6783POPC   C1B32191  30.897  44.554   8.550
 6783POPC   C2B32192  30.947  44.570   8.250
 6783POPC   C3B32193  30.946  44.604   7.950
 6783POPC   C4B32194  30.984  44.600   7.650
 6784POPC   NC332195  20.642  24.522   9.450
 6784POPC   PO432196  20.631  24.521   9.150
 6784POPC   GL132197  20.646  24.539   8.850
 6784POPC   GL232198  20.455  24.497   8.850
 6784POPC   C1A32199  20.567  24.464   8.550
 6784POPC   D2A32200  20.624  24.520   8.250
 6784POPC   C3A32201  20.634  24.519   7.950
 6784POPC   C4A32202  20.588  24.513   7.650
 6784POPC   C1B32203  20.391  24.523   8.550
 6784POPC   C2B32204  20.385  24.576   8.250
 6784POPC   C3B32205  20.350  24.557   7.950
 6784POPC   C4B32206  20.405  24.582   7.650
 6785POPC   NC332207  22.908  43.926   9.450
 6785POPC   PO432208  22.891  43.907   9.150
 6785POPC   GL132209  22.950  43.866   8.850
 6785POPC   GL232210  22.983  43.752   8.850
 6785POPC   C1A32211  22.901  43.875   8.550
 6785POPC   D2A32212  22.981  43.848   8.250
 6785POPC   C3A32213  22.966  43.898   7.950
 6785POPC   C4A32214  22.962  43.839   7.650
 6785POPC   C1B32215  22.975  43.686   8.550
 6785POPC   C2B32216  22.989  43.636   8.250
 6785POPC   C3B32217  22.975  43.640   7.950
 6785POPC   C4B32218  22.977  43.640   7.650
 6786POPC   NC332219  39.214  35.313   9.450
 6786POPC   PO432220  39.213  35.331   9.150
 6786POPC   GL132221  39.276  35.361   8.850
 6786POPC   GL232222  39.248  35.525   8.850
 6786POPC   C1A32223  39.271  35.354   8.550
 6786POPC   D2A32224  39.194  35.320   8.250
 6786POPC   C3A32225  39.201  35.372   7.950
 6786POPC   C4A32226  39.213  35.373   7.650
 6786POPC   C1B32227  39.237  35.599   8.550
 6786POPC   C2B32228  39.165  35.608   8.250
 6786POPC   C3B32229  39.226  35.615   7.950
 6786POPC   C4B32230  39.177  35.553   7.650
 6787POPC   NC332231  22.167  36.079   9.450
 6787POPC   PO432232  22.188  36.090   9.150
 6787POPC   GL132233  22.181  36.102   8.850
 6787POPC   GL232234  22.303  36.138   8.850
 6787POPC   C1A32235  22.164  36.092   8.550
 6787POPC   D2A32236  22.138  36.124   8.250
 6787POPC   C3A32237  22.131  36.083   7.950
 6787POPC   C4A32238  22.114  36.174   7.650
 6787POPC   C1B32239  22.418  36.132   8.550
 6787POPC   C2B32240  22.458  36.168   8.250
 6787POPC   C3B32241  22.388  36.130   7.950
 6787POPC   C4B32242  22.409  36.165   7.650
 6788POPC   NC332243  10.563   0.479   9.450
 6788POPC   PO432244  10.564   0.397   9.150
 6788POPC   GL132245  10.528   0.400   8.850
 6788POPC   GL232246  10.686   0.392   8.850
 6788POPC   C1A32247  10.508   0.400   8.550
 6788POPC   D2A32248  10.494   0.466   8.250
 6788POPC   C3A32249  10.556   0.421   7.950
 6788POPC   C4A32250  10.545   0.425   7.650
 6788POPC   C1B32251  10.787   0.339   8.550
 6788POPC   C2B32252  10.722   0.324   8.250
 6788POPC   C3B32253  10.764   0.364   7.950
 6788POPC   C4B32254  10.803   0.358   7.650
 6789POPC   NC332255  33.792  37.676   9.450
 6789POPC   PO432256  33.802  37.641   9.150
 6789POPC   GL132257  33.828  37.691   8.850
 6789POPC   GL232258  33.724  37.636   8.850
 6789POPC   C1A32259  33.813  37.668   8.550
 6789POPC   D2A32260  33.816  37.703   8.250
 6789POPC   C3A32261  33.816  37.653   7.950
 6789POPC   C4A32262  33.790  37.716   7.650
 6789POPC   C1B32263  33.586  37.574   8.550
 6789POPC   C2B32264  33.564  37.533   8.250
 6789POPC   C3B32265  33.627  37.590   7.950
 6789POPC   C4B32266  33.538  37.578   7.650
 6790POPC   NC332267  40.809  42.286   9.450
 6790POPC   PO432268  40.735  42.350   9.150
 6790POPC   GL132269  40.747  42.302   8.850
 6790POPC   GL232270  40.743  42.421   8.850
 6790POPC   C1A32271  40.754  42.288   8.550
 6790POPC   D2A32272  40.756  42.311   8.250
 6790POPC   C3A32273  40.753  42.351   7.950
 6790POPC   C4A32274  40.811  42.293   7.650
 6790POPC   C1B32275  40.671  42.516   8.550
 6790POPC   C2B32276  40.734  42.588   8.250
 6790POPC   C3B32277  40.645  42.533   7.950
 6790POPC   C4B32278  40.640  42.551   7.650
 6791POPC   NC332279  30.702   2.016   9.450
 6791POPC   PO432280  30.653   2.036   9.150
 6791POPC   GL132281  30.691   1.946   8.850
 6791POPC   GL232282  30.821   2.071   8.850
 6791POPC   C1A32283  30.727   1.949   8.550
 6791POPC   D2A32284  30.698   1.957   8.250
 6791POPC   C3A32285  30.658   1.989   7.950
 6791POPC   C4A32286  30.744   1.973   7.650
 6791POPC   C1B32287  30.904   2.202   8.550
 6791POPC   C2B32288  30.844   2.124   8.250
 6791POPC   C3B32289  30.924   2.140   7.950
 6791POPC   C4B32290  30.875   2.117   7.650
 6792POPC   NC332291  11.328  19.814   9.450
 6792POPC   PO432292  11.258  19.787   9.150
 6792POPC   GL132293  11.346  19.799   8.850
 6792POPC   GL232294  11.360  19.688   8.850
 6792POPC   C1A32295  11.309  19.866   8.550
 6792POPC   D2A32296  11.328  19.882   8.250
 6792POPC   C3A32297  11.263  19.842   7.950
 6792POPC   C4A32298  11.278  19.828   7.650
 6792POPC   C1B32299  11.363  19.549   8.550
 6792POPC   C2B32300  11.415  19.587   8.250
 6792POPC   C3B32301  11.404  19.586   7.950
 6792POPC   C4B32302  11.332  19.562   7.650
 6793POPC   NC332303  32.244  44.614   9.450
 6793POPC   PO432304  32.229  44.634   9.150
 6793POPC   GL132305  32.280  44.704   8.850
 6793POPC   GL232306  32.150  44.623   8.850
 6793POPC   C1A32307  32.201  44.654   8.550
 6793POPC   D2A32308  32.271  44.641   8.250
 6793POPC   C3A32309  32.261  44.695   7.950
 6793POPC   C4A32310  32.218  44.652   7.650
 6793POPC   C1B32311  32.038  44.575   8.550
 6793POPC   C2B32312  31.962  44.547   8.250
 6793POPC   C3B32313  32.051  44.615   7.950
 6793POPC   C4B32314  32.040  44.618   7.650
 6794POPC   NC332315   3.547  27.627   9.450
 6794POPC   PO432316   3.565  27.558   9.150
 6794POPC   GL132317   3.583  27.555   8.850
 6794POPC   GL232318   3.531  27.531   8.850
 6794POPC   C1A32319   3.518  27.545   8.550
 6794POPC   D2A32320   3.506  27.551   8.250
 6794POPC   C3A32321   3.570  27.629   7.950
 6794POPC   C4A32322   3.500  27.596   7.650
 6794POPC   C1B32323   3.378  27.350   8.550
 6794POPC   C2B32324   3.443  27.351   8.250
 6794POPC   C3B32325   3.469  27.332   7.950
 6794POPC   C4B32326   3.380  27.340   7.650
 6795POPC   NC332327  38.470   8.926   9.450
 6795POPC   PO432328  38.477   8.976   9.150
 6795POPC   GL132329  38.496   8.969   8.850
 6795POPC   GL232330  38.454   8.827   8.850
 6795POPC   C1A32331  38.473   8.972   8.550
 6795POPC   D2A32332  38.411   8.944   8.250
 6795POPC   C3A32333  38.440   8.986   7.950
 6795POPC   C4A32334  38.464   8.995   7.650
 6795POPC   C1B32335  38.399   8.762   8.550
 6795POPC   C2B32336  38.387   8.723   8.250
 6795POPC   C3B32337  38.442   8.745   7.950
 6795POPC   C4B32338  38.460   8.758   7.650
 6796POPC   NC332339  35.312  33.013   9.450
 6796POPC   PO432340  35.320  32.995   9.150
 6796POPC   GL132341  35.368  33.066   8.850
 6796POPC   GL232342  35.451  33.119   8.850
 6796POPC   C1A32343  35.388  32.976   8.550
 6796POPC   D2A32344  35.354  33.069   8.250
 6796POPC   C3A32345  35.312  33.031   7.950
 6796POPC   C4A32346  35.375  33.004   7.650
 6796POPC   C1B32347  35.446  33.231   8.550
 6796POPC   C2B32348  35.454  33.217   8.250
 6796POPC   C3B32349  35.433  33.265   7.950
 6796POPC   C4B32350  35.515  33.276   7.650
 6797POPC   NC332351  23.686  33.034   9.450
 6797POPC   PO432352  23.750  33.054   9.150
 6797POPC   GL132353  23.691  33.053   8.850
 6797POPC   GL232354  23.692  33.131   8.850
 6797POPC   C1A32355  23.681  33.040   8.550
 6797POPC   D2A32356  23.703  33.028   8.250
 6797POPC   C3A32357  23.700  32.981   7.950
 6797POPC   C4A32358  23.680  33.039   7.650
 6797POPC   C1B32359  23.601  33.230   8.550
 6797POPC   C2B32360  23.607  33.213   8.250
 6797POPC   C3B32361  23.604  33.290   7.950
 6797POPC   C4B32362  23.564  33.221   7.650
 6798POPC   NC332363   1.214  18.246   9.450
 6798POPC   PO432364   1.255  18.317   9.150
 6798POPC   GL132365   1.229  18.314   8.850
 6798POPC   GL232366   1.069  18.252   8.850
 6798POPC   C1A32367   1.214  18.259   8.550
 6798POPC   D2A32368   1.251  18.266   8.250
 6798POPC   C3A32369   1.252  18.265   7.950
 6798POPC   C4A32370   1.229  18.251   7.650
 6798POPC   C1B32371   0.936  18.240   8.550
 6798POPC   C2B32372   0.923  18.239   8.250
 6798POPC   C3B32373   0.941  18.255   7.950
 6798POPC   C4B32374   0.978  18.279   7.650
 6799POPC   NC332375  27.640  37.712   9.450
 6799POPC   PO432376  27.598  37.674   9.150
 6799POPC   GL132377  27.632  37.634   8.850
 6799POPC   GL232378  27.676  37.716   8.850
 6799POPC   C1A32379  27.570  37.695   8.550
 6799POPC   D2A32380  27.600  37.690   8.250
 6799POPC   C3A32381  27.594  37.660   7.950
 6799POPC   C4A32382  27.634  37.641   7.650
 6799POPC   C1B32383  27.798  37.647   8.550
 6799POPC   C2B32384  27.855  37.693   8.250
 6799POPC   C3B32385  27.888  37.619   7.950
 6799POPC   C4B32386  27.821  37.685   7.650
 6800POPC   NC332387  11.329   5.850   9.450
 6800POPC   PO432388  11.270   5.836   9.150
 6800POPC   GL132389  11.304   5.838   8.850
 6800POPC   GL232390  11.267   5.802   8.850
 6800POPC   C1A32391  11.313   5.910   8.550
 6800POPC   D2A32392  11.323   5.915   8.250
 6800POPC   C3A32393  11.330   5.883   7.950
 6800POPC   C4A32394  11.258   5.841   7.650
 6800POPC   C1B32395  11.107   5.629   8.550
 6800POPC   C2B32396  11.188   5.707   8.250
 6800POPC   C3B32397  11.115   5.689   7.950
 6800POPC   C4B32398  11.109   5.712   7.650
 6801POPC   NC332399  23.693  30.677   9.450
 6801POPC   PO432400  23.678  30.654   9.150
 6801POPC   GL132401  23.742  30.678   8.850
 6801POPC   GL232402  23.718  30.768   8.850
 6801POPC   C1A32403  23.722  30.658   8.550
 6801POPC   D2A32404  23.728  30.701   8.250
 6801POPC   C3A32405  23.745  30.685   7.950
 6801POPC   C4A32406  23.735  30.717   7.650
 6801POPC   C1B32407  23.850  30.936   8.550
 6801POPC   C2B32408  23.818  30.939   8.250
 6801POPC   C3B32409  23.759  30.964   7.950
 6801POPC   C4B32410  23.762  30.895   7.650
 6802POPC   NC332411   2.745   4.330   9.450
 6802POPC   PO432412   2.746   4.290   9.150
 6802POPC   GL132413   2.764   4.350   8.850
 6802POPC   GL232414   2.743   4.199   8.850
 6802POPC   C1A32415   2.790   4.283   8.550
 6802POPC   D2A32416   2.801   4.336   8.250
 6802POPC   C3A32417   2.802   4.282   7.950
 6802POPC   C4A32418   2.775   4.273   7.650
 6802POPC   C1B32419   2.641   4.088   8.550
 6802POPC   C2B32420   2.640   4.091   8.250
 6802POPC   C3B32421   2.606   4.085   7.950
 6802POPC   C4B32422   2.674   4.052   7.650
 6803POPC   NC332423  29.167  19.026   9.450
 6803POPC   PO432424  29.132  19.087   9.150
 6803POPC   GL132425  29.144  19.012   8.850
 6803POPC   GL232426  29.189  18.950   8.850
 6803POPC   C1A32427  29.178  19.017   8.550
 6803POPC   D2A32428  29.120  19.052   8.250
 6803POPC   C3A32429  29.105  19.022   7.950
 6803POPC   C4A32430  29.101  19.039   7.650
 6803POPC   C1B32431  29.266  18.852   8.550
 6803POPC   C2B32432  29.343  18.840   8.250
 6803POPC   C3B32433  29.322  18.867   7.950
 6803POPC   C4B32434  29.318  18.855   7.650
 6804POPC   NC332435  14.361  40.765   9.450
 6804POPC   PO432436  14.366  40.796   9.150
 6804POPC   GL132437  14.398  40.769   8.850
 6804POPC   GL232438  14.407  40.877   8.850
 6804POPC   C1A32439  14.391  40.832   8.550
 6804POPC   D2A32440  14.404  40.805   8.250
 6804POPC   C3A32441  14.433  40.768   7.950
 6804POPC   C4A32442  14.374  40.761   7.650
 6804POPC   C1B32443  14.411  41.056   8.550
 6804POPC   C2B32444  14.401  41.051   8.250
 6804POPC   C3B32445  14.354  41.042   7.950
 6804POPC   C4B32446  14.449  40.991   7.650
 6805POPC   NC332447  41.603  10.547   9.450
 6805POPC   PO432448  41.593  10.478   9.150
 6805POPC   GL132449  41.542  10.521   8.850
 6805POPC   GL232450  41.459  10.505   8.850
 6805POPC   C1A32451  41.517  10.560   8.550
 6805POPC   D2A32452  41.547  10.488   8.250
 6805POPC   C3A32453  41.512  10.536   7.950
 6805POPC   C4A32454  41.542  10.512   7.650
 6805POPC   C1B32455  41.358  10.506   8.550
 6805POPC   C2B32456  41.343  10.461   8.250
 6805POPC   C3B32457  41.326  10.479   7.950
 6805POPC   C4B32458  41.289  10.502   7.650
 6806POPC   NC332459   9.738  34.550   9.450
 6806POPC   PO432460   9.740  34.579   9.150
 6806POPC   GL132461   9.758  34.601   8.850
 6806POPC   GL232462   9.786  34.471   8.850
 6806POPC   C1A32463   9.746  34.541   8.550
 6806POPC   D2A32464   9.771  34.616   8.250
 6806POPC   C3A32465   9.704  34.528   7.950
 6806POPC   C4A32466   9.778  34.595   7.650
 6806POPC   C1B32467   9.834  34.326   8.550
 6806POPC   C2B32468   9.813  34.310   8.250
 6806POPC   C3B32469   9.807  34.299   7.950
 6806POPC   C4B32470   9.792  34.321   7.650
 6807POPC   NC332471  35.305  19.017   9.450
 6807POPC   PO432472  35.333  19.023   9.150
 6807POPC   GL132473  35.385  19.073   8.850
 6807POPC   GL232474  35.270  18.907   8.850
 6807POPC   C1A32475  35.302  19.065   8.550
 6807POPC   D2A32476  35.351  19.014   8.250
 6807POPC   C3A32477  35.383  19.048   7.950
 6807POPC   C4A32478  35.371  19.063   7.650
 6807POPC   C1B32479  35.273  18.875   8.550
 6807POPC   C2B32480  35.228  18.817   8.250
 6807POPC   C3B32481  35.197  18.806   7.950
 6807POPC   C4B32482  35.261  18.840   7.650
 6808POPC   NC332483  30.739   6.635   9.450
 6808POPC   PO432484  30.652   6.658   9.150
 6808POPC   GL132485  30.691   6.602   8.850
 6808POPC   GL232486  30.817   6.729   8.850
 6808POPC   C1A32487  30.650   6.651   8.550
 6808POPC   D2A32488  30.709   6.656   8.250
 6808POPC   C3A32489  30.661   6.651   7.950
 6808POPC   C4A32490  30.681   6.614   7.650
 6808POPC   C1B32491  30.922   6.822   8.550
 6808POPC   C2B32492  30.856   6.815   8.250
 6808POPC   C3B32493  30.854   6.857   7.950
 6808POPC   C4B32494  30.861   6.780   7.650
 6809POPC   NC332495   1.973  14.376   9.450
 6809POPC   PO432496   2.029  14.415   9.150
 6809POPC   GL132497   1.965  14.377   8.850
 6809POPC   GL232498   1.913  14.438   8.850
 6809POPC   C1A32499   1.968  14.366   8.550
 6809POPC   D2A32500   2.039  14.427   8.250
 6809POPC   C3A32501   1.958  14.373   7.950
 6809POPC   C4A32502   1.966  14.403   7.650
 6809POPC   C1B32503   1.759  14.424   8.550
 6809POPC   C2B32504   1.714  14.460   8.250
 6809POPC   C3B32505   1.722  14.430   7.950
 6809POPC   C4B32506   1.759  14.415   7.650
 6810POPC   NC332507  10.524   7.408   9.450
 6810POPC   PO432508  10.510   7.422   9.150
 6810POPC   GL132509  10.505   7.390   8.850
 6810POPC   GL232510  10.614   7.441   8.850
 6810POPC   C1A32511  10.565   7.404   8.550
 6810POPC   D2A32512  10.477   7.395   8.250
 6810POPC   C3A32513  10.544   7.402   7.950
 6810POPC   C4A32514  10.505   7.456   7.650
 6810POPC   C1B32515  10.747   7.475   8.550
 6810POPC   C2B32516  10.787   7.499   8.250
 6810POPC   C3B32517  10.722   7.507   7.950
 6810POPC   C4B32518  10.712   7.542   7.650
 6811POPC   NC332519  33.025  23.708   9.450
 6811POPC   PO432520  33.073  23.685   9.150
 6811POPC   GL132521  33.008  23.763   8.850
 6811POPC   GL232522  32.917  23.746   8.850
 6811POPC   C1A32523  33.068  23.671   8.550
 6811POPC   D2A32524  33.051  23.744   8.250
 6811POPC   C3A32525  32.993  23.705   7.950
 6811POPC   C4A32526  32.995  23.665   7.650
 6811POPC   C1B32527  32.847  23.860   8.550
 6811POPC   C2B32528  32.838  23.847   8.250
 6811POPC   C3B32529  32.754  23.832   7.950
 6811POPC   C4B32530  32.761  23.795   7.650
 6812POPC   NC332531   3.553  26.031   9.450
 6812POPC   PO432532   3.518  26.005   9.150
 6812POPC   GL132533   3.514  26.087   8.850
 6812POPC   GL232534   3.506  25.960   8.850
 6812POPC   C1A32535   3.590  26.072   8.550
 6812POPC   D2A32536   3.520  26.024   8.250
 6812POPC   C3A32537   3.513  26.069   7.950
 6812POPC   C4A32538   3.492  25.995   7.650
 6812POPC   C1B32539   3.531  25.779   8.550
 6812POPC   C2B32540   3.488  25.803   8.250
 6812POPC   C3B32541   3.551  25.813   7.950
 6812POPC   C4B32542   3.486  25.799   7.650
 6813POPC   NC332543  37.710  37.723   9.450
 6813POPC   PO432544  37.726  37.688   9.150
 6813POPC   GL132545  37.656  37.694   8.850
 6813POPC   GL232546  37.598  37.791   8.850
 6813POPC   C1A32547  37.677  37.633   8.550
 6813POPC   D2A32548  37.714  37.642   8.250
 6813POPC   C3A32549  37.644  37.681   7.950
 6813POPC   C4A32550  37.679  37.644   7.650
 6813POPC   C1B32551  37.508  37.901   8.550
 6813POPC   C2B32552  37.506  37.828   8.250
 6813POPC   C3B32553  37.487  37.916   7.950
 6813POPC   C4B32554  37.505  37.853   7.650
 6814POPC   NC332555  40.028   6.648   9.450
 6814POPC   PO432556  39.960   6.678   9.150
 6814POPC   GL132557  39.980   6.616   8.850
 6814POPC   GL232558  39.950   6.549   8.850
 6814POPC   C1A32559  39.994   6.622   8.550
 6814POPC   D2A32560  40.049   6.620   8.250
 6814POPC   C3A32561  40.031   6.684   7.950
 6814POPC   C4A32562  40.035   6.601   7.650
 6814POPC   C1B32563  40.005   6.372   8.550
 6814POPC   C2B32564  40.034   6.416   8.250
 6814POPC   C3B32565  39.976   6.413   7.950
 6814POPC   C4B32566  40.029   6.371   7.650
 6815POPC   NC332567  29.963  12.896   9.450
 6815POPC   PO432568  29.945  12.832   9.150
 6815POPC   GL132569  29.918  12.883   8.850
 6815POPC   GL232570  29.886  13.013   8.850
 6815POPC   C1A32571  29.902  12.832   8.550
 6815POPC   D2A32572  29.955  12.836   8.250
 6815POPC   C3A32573  29.965  12.857   7.950
 6815POPC   C4A32574  29.937  12.863   7.650
 6815POPC   C1B32575  29.806  13.054   8.550
 6815POPC   C2B32576  29.879  13.042   8.250
 6815POPC   C3B32577  29.871  13.071   7.950
 6815POPC   C4B32578  29.870  13.063   7.650
 6816POPC   NC332579  15.199  36.094   9.450
 6816POPC   PO432580  15.207  36.095   9.150
 6816POPC   GL132581  15.149  36.168   8.850
 6816POPC   GL232582  15.180  35.981   8.850
 6816POPC   C1A32583  15.183  36.081   8.550
 6816POPC   D2A32584  15.139  36.170   8.250
 6816POPC   C3A32585  15.157  36.086   7.950
 6816POPC   C4A32586  15.130  36.110   7.650
 6816POPC   C1B32587  15.298  35.851   8.550
 6816POPC   C2B32588  15.286  35.880   8.250
 6816POPC   C3B32589  15.261  35.926   7.950
 6816POPC   C4B32590  15.266  35.853   7.650
 6817POPC   NC332591  30.721  16.735   9.450
 6817POPC   PO432592  30.738  16.682   9.150
 6817POPC   GL132593  30.660  16.722   8.850
 6817POPC   GL232594  30.821  16.872   8.850
 6817POPC   C1A32595  30.676  16.767   8.550
 6817POPC   D2A32596  30.703  16.702   8.250
 6817POPC   C3A32597  30.707  16.721   7.950
 6817POPC   C4A32598  30.745  16.726   7.650
 6817POPC   C1B32599  30.813  16.901   8.550
 6817POPC   C2B32600  30.887  16.874   8.250
 6817POPC   C3B32601  30.863  16.957   7.950
 6817POPC   C4B32602  30.823  16.935   7.650
 6818POPC   NC332603   7.386  12.881   9.450
 6818POPC   PO432604   7.396  12.813   9.150
 6818POPC   GL132605   7.448  12.854   8.850
 6818POPC   GL232606   7.591  12.918   8.850
 6818POPC   C1A32607   7.461  12.855   8.550
 6818POPC   D2A32608   7.461  12.869   8.250
 6818POPC   C3A32609   7.406  12.877   7.950
 6818POPC   C4A32610   7.451  12.901   7.650
 6818POPC   C1B32611   7.677  12.904   8.550
 6818POPC   C2B32612   7.685  12.920   8.250
 6818POPC   C3B32613   7.662  12.928   7.950
 6818POPC   C4B32614   7.684  12.876   7.650
 6819POPC   NC332615  12.052  39.270   9.450
 6819POPC   PO432616  12.029  39.273   9.150
 6819POPC   GL132617  12.117  39.206   8.850
 6819POPC   GL232618  12.222  39.253   8.850
 6819POPC   C1A32619  12.097  39.186   8.550
 6819POPC   D2A32620  12.045  39.207   8.250
 6819POPC   C3A32621  12.059  39.208   7.950
 6819POPC   C4A32622  12.058  39.193   7.650
 6819POPC   C1B32623  12.333  39.342   8.550
 6819POPC   C2B32624  12.322  39.371   8.250
 6819POPC   C3B32625  12.327  39.375   7.950
 6819POPC   C4B32626  12.272  39.333   7.650
 6820POPC   NC332627  38.444  38.497   9.450
 6820POPC   PO432628  38.461  38.416   9.150
 6820POPC   GL132629  38.503  38.426   8.850
 6820POPC   GL232630  38.620  38.412   8.850
 6820POPC   C1A32631  38.438  38.479   8.550
 6820POPC   D2A32632  38.488  38.429   8.250
 6820POPC   C3A32633  38.470  38.422   7.950
 6820POPC   C4A32634  38.478  38.465   7.650
 6820POPC   C1B32635  38.656  38.425   8.550
 6820POPC   C2B32636  38.672  38.459   8.250
 6820POPC   C3B32637  38.701  38.446   7.950
 6820POPC   C4B32638  38.746  38.440   7.650
 6821POPC   NC332639  25.997  24.466   9.450
 6821POPC   PO432640  26.066  24.480   9.150
 6821POPC   GL132641  26.014  24.499   8.850
 6821POPC   GL232642  26.176  24.573   8.850
 6821POPC   C1A32643  25.998  24.495   8.550
 6821POPC   D2A32644  26.060  24.446   8.250
 6821POPC   C3A32645  26.011  24.536   7.950
 6821POPC   C4A32646  26.090  24.477   7.650
 6821POPC   C1B32647  26.225  24.660   8.550
 6821POPC   C2B32648  26.223  24.692   8.250
 6821POPC   C3B32649  26.194  24.674   7.950
 6821POPC   C4B32650  26.208  24.710   7.650
 6822POPC   NC332651  37.718  44.709   9.450
 6822POPC   PO432652  37.661  44.612   9.150
 6822POPC   GL132653  37.666  44.656   8.850
 6822POPC   GL232654  37.732  44.696   8.850
 6822POPC   C1A32655  37.717  44.636   8.550
 6822POPC   D2A32656  37.653  44.651   8.250
 6822POPC   C3A32657  37.673  44.685   7.950
 6822POPC   C4A32658  37.697  44.704   7.650
 6822POPC   C1B32659  37.856  44.771   8.550
 6822POPC   C2B32660  37.845  44.769   8.250
 6822POPC   C3B32661  37.857  44.784   7.950
 6822POPC   C4B32662  37.856  44.850   7.650
 6823POPC   NC332663  25.237  32.275   9.450
 6823POPC   PO432664  25.306  32.198   9.150
 6823POPC   GL132665  25.266  32.295   8.850
 6823POPC   GL232666  25.146  32.255   8.850
 6823POPC   C1A32667  25.270  32.221   8.550
 6823POPC   D2A32668  25.275  32.237   8.250
 6823POPC   C3A32669  25.283  32.210   7.950
 6823POPC   C4A32670  25.305  32.261   7.650
 6823POPC   C1B32671  25.007  32.306   8.550
 6823POPC   C2B32672  24.973  32.272   8.250
 6823POPC   C3B32673  25.021  32.294   7.950
 6823POPC   C4B32674  25.058  32.260   7.650
 6824POPC   NC332675   1.994   1.205   9.450
 6824POPC   PO432676   1.950   1.215   9.150
 6824POPC   GL132677   1.944   1.239   8.850
 6824POPC   GL232678   1.934   1.104   8.850
 6824POPC   C1A32679   2.028   1.247   8.550
 6824POPC   D2A32680   1.987   1.232   8.250
 6824POPC   C3A32681   1.975   1.255   7.950
 6824POPC   C4A32682   1.999   1.241   7.650
 6824POPC   C1B32683   1.836   1.074   8.550
 6824POPC   C2B32684   1.842   0.996   8.250
 6824POPC   C3B32685   1.799   1.054   7.950
 6824POPC   C4B32686   1.770   1.015   7.650
 6825POPC   NC332687   9.766   5.102   9.450
 6825POPC   PO432688   9.787   5.136   9.150
 6825POPC   GL132689   9.700   5.096   8.850
 6825POPC   GL232690   9.789   5.004   8.850
 6825POPC   C1A32691   9.770   5.135   8.550
 6825POPC   D2A32692   9.725   5.115   8.250
 6825POPC   C3A32693   9.730   5.122   7.950
 6825POPC   C4A32694   9.772   5.141   7.650
 6825POPC   C1B32695   9.751   4.829   8.550
 6825POPC   C2B32696   9.714   4.879   8.250
 6825POPC   C3B32697   9.798   4.850   7.950
 6825POPC   C4B32698   9.739   4.811   7.650
 6826POPC   NC332699  42.346   1.253   9.450
 6826POPC   PO432700  42.321   1.187   9.150
 6826POPC   GL132701  42.371   1.173   8.850
 6826POPC   GL232702  42.475   1.287   8.850
 6826POPC   C1A32703  42.353   1.201   8.550
 6826POPC   D2A32704  42.360   1.170   8.250
 6826POPC   C3A32705  42.360   1.165   7.950
 6826POPC   C4A32706  42.286   1.250   7.650
 6826POPC   C1B32707  42.552   1.345   8.550
 6826POPC   C2B32708  42.591   1.357   8.250
 6826POPC   C3B32709  42.596   1.358   7.950
 6826POPC   C4B32710  42.570   1.374   7.650
 6827POPC   NC332711  28.398  24.470   9.450
 6827POPC   PO432712  28.356  24.452   9.150
 6827POPC   GL132713  28.359  24.484   8.850
 6827POPC   GL232714  28.440  24.620   8.850
 6827POPC   C1A32715  28.373  24.507   8.550
 6827POPC   D2A32716  28.327  24.470   8.250
 6827POPC   C3A32717  28.352  24.491   7.950
 6827POPC   C4A32718  28.328  24.445   7.650
 6827POPC   C1B32719  28.476  24.654   8.550
 6827POPC   C2B32720  28.496  24.681   8.250
 6827POPC   C3B32721  28.530  24.657   7.950
 6827POPC   C4B32722  28.475  24.678   7.650
 6828POPC   NC332723  35.311  42.370   9.450
 6828POPC   PO432724  35.378  42.295   9.150
 6828POPC   GL132725  35.363  42.293   8.850
 6828POPC   GL232726  35.414  42.199   8.850
 6828POPC   C1A32727  35.392  42.362   8.550
 6828POPC   D2A32728  35.364  42.347   8.250
 6828POPC   C3A32729  35.317  42.355   7.950
 6828POPC   C4A32730  35.361  42.373   7.650
 6828POPC   C1B32731  35.552  42.095   8.550
 6828POPC   C2B32732  35.488  42.096   8.250
 6828POPC   C3B32733  35.510  42.138   7.950
 6828POPC   C4B32734  35.482  42.103   7.650
 6829POPC   NC332735  29.885  15.152   9.450
 6829POPC   PO432736  29.961  15.133   9.150
 6829POPC   GL132737  29.912  15.224   8.850
 6829POPC   GL232738  29.844  15.155   8.850
 6829POPC   C1A32739  29.938  15.203   8.550
 6829POPC   D2A32740  29.964  15.180   8.250
 6829POPC   C3A32741  29.953  15.178   7.950
 6829POPC   C4A32742  29.970  15.227   7.650
 6829POPC   C1B32743  29.718  15.069   8.550
 6829POPC   C2B32744  29.687  15.065   8.250
 6829POPC   C3B32745  29.737  15.035   7.950
 6829POPC   C4B32746  29.715  15.079   7.650
 6830POPC   NC332747  33.806  17.460   9.450
 6830POPC   PO432748  33.777  17.543   9.150
 6830POPC   GL132749  33.810  17.529   8.850
 6830POPC   GL232750  33.794  17.387   8.850
 6830POPC   C1A32751  33.777  17.488   8.550
 6830POPC   D2A32752  33.826  17.541   8.250
 6830POPC   C3A32753  33.788  17.531   7.950
 6830POPC   C4A32754  33.842  17.556   7.650
 6830POPC   C1B32755  33.702  17.286   8.550
 6830POPC   C2B32756  33.767  17.279   8.250
 6830POPC   C3B32757  33.765  17.216   7.950
 6830POPC   C4B32758  33.785  17.247   7.650
 6831POPC   NC332759  11.322  11.277   9.450
 6831POPC   PO432760  11.308  11.307   9.150
 6831POPC   GL132761  11.319  11.308   8.850
 6831POPC   GL232762  11.304  11.400   8.850
 6831POPC   C1A32763  11.319  11.301   8.550
 6831POPC   D2A32764  11.297  11.311   8.250
 6831POPC   C3A32765  11.278  11.253   7.950
 6831POPC   C4A32766  11.253  11.251   7.650
 6831POPC   C1B32767  11.241  11.515   8.550
 6831POPC   C2B32768  11.297  11.524   8.250
 6831POPC   C3B32769  11.261  11.569   7.950
 6831POPC   C4B32770  11.289  11.589   7.650
 6832POPC   NC332771  16.728  22.929   9.450
 6832POPC   PO432772  16.763  22.938   9.150
 6832POPC   GL132773  16.719  22.971   8.850
 6832POPC   GL232774  16.857  22.912   8.850
 6832POPC   C1A32775  16.768  22.979   8.550
 6832POPC   D2A32776  16.703  22.982   8.250
 6832POPC   C3A32777  16.699  22.986   7.950
 6832POPC   C4A32778  16.700  22.899   7.650
 6832POPC   C1B32779  16.957  22.861   8.550
 6832POPC   C2B32780  17.017  22.932   8.250
 6832POPC   C3B32781  16.991  22.929   7.950
 6832POPC   C4B32782  16.957  22.920   7.650
 6833POPC   NC332783  40.039   5.050   9.450
 6833POPC   PO432784  40.020   5.079   9.150
 6833POPC   GL132785  39.968   5.095   8.850
 6833POPC   GL232786  39.935   5.001   8.850
 6833POPC   C1A32787  40.042   5.076   8.550
 6833POPC   D2A32788  40.037   5.076   8.250
 6833POPC   C3A32789  39.980   5.079   7.950
 6833POPC   C4A32790  39.999   5.066   7.650
 6833POPC   C1B32791  39.880   4.902   8.550
 6833POPC   C2B32792  39.898   4.853   8.250
 6833POPC   C3B32793  39.947   4.853   7.950
 6833POPC   C4B32794  39.894   4.881   7.650
 6834POPC   NC332795  12.900  14.433   9.450
 6834POPC   PO432796  12.813  14.375   9.150
 6834POPC   GL132797  12.876  14.423   8.850
 6834POPC   GL232798  12.877  14.326   8.850
 6834POPC   C1A32799  12.887  14.378   8.550
 6834POPC   D2A32800  12.885  14.441   8.250
 6834POPC   C3A32801  12.855  14.356   7.950
 6834POPC   C4A32802  12.884  14.407   7.650
 6834POPC   C1B32803  12.818  14.193   8.550
 6834POPC   C2B32804  12.823  14.164   8.250
 6834POPC   C3B32805  12.879  14.176   7.950
 6834POPC   C4B32806  12.831  14.180   7.650
 6835POPC   NC332807  36.093  32.225   9.450
 6835POPC   PO432808  36.093  32.248   9.150
 6835POPC   GL132809  36.157  32.272   8.850
 6835POPC   GL232810  36.182  32.374   8.850
 6835POPC   C1A32811  36.152  32.246   8.550
 6835POPC   D2A32812  36.107  32.269   8.250
 6835POPC   C3A32813  36.175  32.233   7.950
 6835POPC   C4A32814  36.148  32.243   7.650
 6835POPC   C1B32815  36.228  32.456   8.550
 6835POPC   C2B32816  36.215  32.466   8.250
 6835POPC   C3B32817  36.232  32.480   7.950
 6835POPC   C4B32818  36.267  32.448   7.650
 6836POPC   NC332819  19.800   1.201   9.450
 6836POPC   PO432820  19.802   1.231   9.150
 6836POPC   GL132821  19.855   1.209   8.850
 6836POPC   GL232822  19.975   1.159   8.850
 6836POPC   C1A32823  19.813   1.200   8.550
 6836POPC   D2A32824  19.821   1.247   8.250
 6836POPC   C3A32825  19.848   1.176   7.950
 6836POPC   C4A32826  19.847   1.191   7.650
 6836POPC   C1B32827  20.014   1.115   8.550
 6836POPC   C2B32828  19.997   1.080   8.250
 6836POPC   C3B32829  20.010   1.084   7.950
 6836POPC   C4B32830  20.001   1.057   7.650
 6837POPC   NC332831  33.042  43.088   9.450
 6837POPC   PO432832  32.997  43.113   9.150
 6837POPC   GL132833  33.010  43.067   8.850
 6837POPC   GL232834  32.956  43.069   8.850
 6837POPC   C1A32835  33.045  43.148   8.550
 6837POPC   D2A32836  32.983  43.155   8.250
 6837POPC   C3A32837  32.995  43.079   7.950
 6837POPC   C4A32838  33.057  43.118   7.650
 6837POPC   C1B32839  32.821  43.000   8.550
 6837POPC   C2B32840  32.794  42.985   8.250
 6837POPC   C3B32841  32.814  42.963   7.950
 6837POPC   C4B32842  32.813  42.968   7.650
 6838POPC   NC332843  30.685  28.353   9.450
 6838POPC   PO432844  30.707  28.414   9.150
 6838POPC   GL132845  30.709  28.387   8.850
 6838POPC   GL232846  30.610  28.443   8.850
 6838POPC   C1A32847  30.704  28.351   8.550
 6838POPC   D2A32848  30.734  28.336   8.250
 6838POPC   C3A32849  30.658  28.412   7.950
 6838POPC   C4A32850  30.723  28.413   7.650
 6838POPC   C1B32851  30.463  28.455   8.550
 6838POPC   C2B32852  30.453  28.491   8.250
 6838POPC   C3B32853  30.524  28.476   7.950
 6838POPC   C4B32854  30.454  28.529   7.650
 6839POPC   NC332855  39.190  29.187   9.450
 6839POPC   PO432856  39.272  29.121   9.150
 6839POPC   GL132857  39.203  29.152   8.850
 6839POPC   GL232858  39.100  29.187   8.850
 6839POPC   C1A32859  39.206  29.137   8.550
 6839POPC   D2A32860  39.225  29.182   8.250
 6839POPC   C3A32861  39.214  29.178   7.950
 6839POPC   C4A32862  39.251  29.162   7.650
 6839POPC   C1B32863  39.048  29.333   8.550
 6839POPC   C2B32864  39.091  29.309   8.250
 6839POPC   C3B32865  39.013  29.278   7.950
 6839POPC   C4B32866  39.055  29.329   7.650
 6840POPC   NC332867  12.097  43.075   9.450
 6840POPC   PO432868  12.042  43.061   9.150
 6840POPC   GL132869  12.043  43.095   8.850
 6840POPC   GL232870  12.102  43.179   8.850
 6840POPC   C1A32871  12.088  43.069   8.550
 6840POPC   D2A32872  12.099  43.134   8.250
 6840POPC   C3A32873  12.115  43.148   7.950
 6840POPC   C4A32874  12.115  43.096   7.650
 6840POPC   C1B32875  12.212  43.350   8.550
 6840POPC   C2B32876  12.230  43.334   8.250
 6840POPC   C3B32877  12.268  43.328   7.950
 6840POPC   C4B32878  12.241  43.327   7.650
 6841POPC   NC332879  20.624  14.441   9.450
 6841POPC   PO432880  20.646  14.354   9.150
 6841POPC   GL132881  20.622  14.379   8.850
 6841POPC   GL232882  20.669  14.249   8.850
 6841POPC   C1A32883  20.602  14.428   8.550
 6841POPC   D2A32884  20.579  14.442   8.250
 6841POPC   C3A32885  20.606  14.359   7.950
 6841POPC   C4A32886  20.608  14.425   7.650
 6841POPC   C1B32887  20.710  14.179   8.550
 6841POPC   C2B32888  20.710  14.153   8.250
 6841POPC   C3B32889  20.710  14.172   7.950
 6841POPC   C4B32890  20.708  14.210   7.650
 6842POPC   NC332891  27.636  22.971   9.450
 6842POPC   PO432892  27.558  22.903   9.150
 6842POPC   GL132893  27.625  22.890   8.850
 6842POPC   GL232894  27.519  22.853   8.850
 6842POPC   C1A32895  27.636  22.919   8.550
 6842POPC   D2A32896  27.544  22.920   8.250
 6842POPC   C3A32897  27.579  22.974   7.950
 6842POPC   C4A32898  27.549  22.965   7.650
 6842POPC   C1B32899  27.515  22.740   8.550
 6842POPC   C2B32900  27.532  22.709   8.250
 6842POPC   C3B32901  27.518  22.673   7.950
 6842POPC   C4B32902  27.533  22.660   7.650
 6843POPC   NC332903  30.735  13.635   9.450
 6843POPC   PO432904  30.690  13.602   9.150
 6843POPC   GL132905  30.725  13.631   8.850
 6843POPC   GL232906  30.804  13.550   8.850
 6843POPC   C1A32907  30.735  13.581   8.550
 6843POPC   D2A32908  30.654  13.638   8.250
 6843POPC   C3A32909  30.712  13.645   7.950
 6843POPC   C4A32910  30.703  13.638   7.650
 6843POPC   C1B32911  30.943  13.519   8.550
 6843POPC   C2B32912  30.899  13.529   8.250
 6843POPC   C3B32913  30.927  13.481   7.950
 6843POPC   C4B32914  30.903  13.494   7.650
 6844POPC   NC332915   1.989   1.962   9.450
 6844POPC   PO432916   1.963   2.016   9.150
 6844POPC   GL132917   2.015   2.009   8.850
 6844POPC   GL232918   1.848   1.922   8.850
 6844POPC   C1A32919   1.980   2.029   8.550
 6844POPC   D2A32920   1.975   2.032   8.250
 6844POPC   C3A32921   1.959   1.949   7.950
 6844POPC   C4A32922   2.027   1.972   7.650
 6844POPC   C1B32923   1.787   1.880   8.550
 6844POPC   C2B32924   1.773   1.914   8.250
 6844POPC   C3B32925   1.708   1.933   7.950
 6844POPC   C4B32926   1.765   1.904   7.650
 6845POPC   NC332927  22.910  29.957   9.450
 6845POPC   PO432928  22.964  29.879   9.150
 6845POPC   GL132929  22.985  29.906   8.850
 6845POPC   GL232930  23.078  29.988   8.850
 6845POPC   C1A32931  22.903  29.878   8.550
 6845POPC   D2A32932  22.941  29.913   8.250
 6845POPC   C3A32933  22.944  29.873   7.950
 6845POPC   C4A32934  22.973  29.933   7.650
 6845POPC   C1B32935  23.130  30.103   8.550
 6845POPC   C2B32936  23.091  30.069   8.250
 6845POPC   C3B32937  23.111  30.071   7.950
 6845POPC   C4B32938  23.090  30.097   7.650
 6846POPC   NC332939   3.503  40.811   9.450
 6846POPC   PO432940   3.521  40.810   9.150
 6846POPC   GL132941   3.583  40.808   8.850
 6846POPC   GL232942   3.610  40.881   8.850
 6846POPC   C1A32943   3.578  40.780   8.550
 6846POPC   D2A32944   3.539  40.753   8.250
 6846POPC   C3A32945   3.539  40.739   7.950
 6846POPC   C4A32946   3.506  40.789   7.650
 6846POPC   C1B32947   3.727  40.986   8.550
 6846POPC   C2B32948   3.713  40.938   8.250
 6846POPC   C3B32949   3.717  40.978   7.950
 6846POPC   C4B32950   3.758  40.985   7.650
 6847POPC   NC332951  33.017  29.146   9.450
 6847POPC   PO432952  33.005  29.161   9.150
 6847POPC   GL132953  33.073  29.122   8.850
 6847POPC   GL232954  33.120  29.109   8.850
 6847POPC   C1A32955  33.015  29.131   8.550
 6847POPC   D2A32956  33.001  29.174   8.250
 6847POPC   C3A32957  33.037  29.193   7.950
 6847POPC   C4A32958  33.031  29.179   7.650
 6847POPC   C1B32959  33.299  29.037   8.550
 6847POPC   C2B32960  33.254  29.044   8.250
 6847POPC   C3B32961  33.255  29.053   7.950
 6847POPC   C4B32962  33.270  29.004   7.650
 6848POPC   NC332963  41.575  42.305   9.450
 6848POPC   PO432964  41.548  42.361   9.150
 6848POPC   GL132965  41.571  42.314   8.850
 6848POPC   GL232966  41.592  42.179   8.850
 6848POPC   C1A32967  41.583  42.292   8.550
 6848POPC   D2A32968  41.600  42.295   8.250
 6848POPC   C3A32969  41.593  42.296   7.950
 6848POPC   C4A32970  41.576  42.338   7.650
 6848POPC   C1B32971  41.488  42.081   8.550
 6848POPC   C2B32972  41.572  42.095   8.250
 6848POPC   C3B32973  41.511  42.134   7.950
 6848POPC   C4B32974  41.549  42.053   7.650
 6849POPC   NC332975   8.180  14.399   9.450
 6849POPC   PO432976   8.208  14.413   9.150
 6849POPC   GL132977   8.153  14.420   8.850
 6849POPC   GL232978   8.125  14.476   8.850
 6849POPC   C1A32979   8.213  14.404   8.550
 6849POPC   D2A32980   8.227  14.357   8.250
 6849POPC   C3A32981   8.228  14.373   7.950
 6849POPC   C4A32982   8.180  14.388   7.650
 6849POPC   C1B32983   8.038  14.584   8.550
 6849POPC   C2B32984   8.081  14.630   8.250
 6849POPC   C3B32985   8.013  14.649   7.950
 6849POPC   C4B32986   8.042  14.590   7.650
 6850POPC   NC332987  32.256   9.713   9.450
 6850POPC   PO432988  32.221   9.795   9.150
 6850POPC   GL132989  32.207   9.748   8.850
 6850POPC   GL232990  32.326   9.697   8.850
 6850POPC   C1A32991  32.221   9.707   8.550
 6850POPC   D2A32992  32.216   9.794   8.250
 6850POPC   C3A32993  32.224   9.747   7.950
 6850POPC   C4A32994  32.203   9.736   7.650
 6850POPC   C1B32995  32.431   9.624   8.550
 6850POPC   C2B32996  32.452   9.593   8.250
 6850POPC   C3B32997  32.393   9.578   7.950
 6850POPC   C4B32998  32.449   9.628   7.650
 6851POPC   NC332999  39.234   6.606   9.450
 6851POPC   PO433000  39.277   6.642   9.150
 6851POPC   GL133001  39.263   6.610   8.850
 6851POPC   GL233002  39.198   6.737   8.850
 6851POPC   C1A33003  39.209   6.603   8.550
 6851POPC   D2A33004  39.278   6.692   8.250
 6851POPC   C3A33005  39.194   6.620   7.950
 6851POPC   C4A33006  39.278   6.685   7.650
 6851POPC   C1B33007  39.135   6.930   8.550
 6851POPC   C2B33008  39.128   6.914   8.250
 6851POPC   C3B33009  39.108   6.904   7.950
 6851POPC   C4B33010  39.151   6.861   7.650
 6852POPC   NC333011  20.601  42.291   9.450
 6852POPC   PO433012  20.583  42.303   9.150
 6852POPC   GL133013  20.645  42.290   8.850
 6852POPC   GL233014  20.736  42.329   8.850
 6852POPC   C1A33015  20.565  42.286   8.550
 6852POPC   D2A33016  20.589  42.384   8.250
 6852POPC   C3A33017  20.642  42.374   7.950
 6852POPC   C4A33018  20.653  42.363   7.650
 6852POPC   C1B33019  20.896  42.259   8.550
 6852POPC   C2B33020  20.876  42.287   8.250
 6852POPC   C3B33021  20.800  42.222   7.950
 6852POPC   C4B33022  20.848  42.208   7.650
 6853POPC   NC333023   5.076  10.552   9.450
 6853POPC   PO433024   5.057  10.542   9.150
 6853POPC   GL133025   5.120  10.499   8.850
 6853POPC   GL233026   5.128  10.370   8.850
 6853POPC   C1A33027   5.103  10.544   8.550
 6853POPC   D2A33028   5.061  10.511   8.250
 6853POPC   C3A33029   5.077  10.571   7.950
 6853POPC   C4A33030   5.119  10.478   7.650
 6853POPC   C1B33031   5.018  10.318   8.550
 6853POPC   C2B33032   5.098  10.260   8.250
 6853POPC   C3B33033   5.048  10.237   7.950
 6853POPC   C4B33034   5.073  10.256   7.650
 6854POPC   NC333035  28.396  29.923   9.450
 6854POPC   PO433036  28.350  29.910   9.150
 6854POPC   GL133037  28.388  29.947   8.850
 6854POPC   GL233038  28.385  29.841   8.850
 6854POPC   C1A33039  28.410  29.968   8.550
 6854POPC   D2A33040  28.352  29.891   8.250
 6854POPC   C3A33041  28.321  29.967   7.950
 6854POPC   C4A33042  28.379  29.969   7.650
 6854POPC   C1B33043  28.268  29.671   8.550
 6854POPC   C2B33044  28.335  29.703   8.250
 6854POPC   C3B33045  28.272  29.650   7.950
 6854POPC   C4B33046  28.312  29.709   7.650
 6855POPC   NC333047  25.290  19.822   9.450
 6855POPC   PO433048  25.263  19.816   9.150
 6855POPC   GL133049  25.281  19.870   8.850
 6855POPC   GL233050  25.324  19.920   8.850
 6855POPC   C1A33051  25.285  19.795   8.550
 6855POPC   D2A33052  25.240  19.852   8.250
 6855POPC   C3A33053  25.252  19.810   7.950
 6855POPC   C4A33054  25.292  19.828   7.650
 6855POPC   C1B33055  25.275  20.052   8.550
 6855POPC   C2B33056  25.336  20.074   8.250
 6855POPC   C3B33057  25.289  20.097   7.950
 6855POPC   C4B33058  25.255  20.076   7.650
 6856POPC   NC333059  15.971  41.522   9.450
 6856POPC   PO433060  15.929  41.549   9.150
 6856POPC   GL133061  16.005  41.591   8.850
 6856POPC   GL233062  16.001  41.656   8.850
 6856POPC   C1A33063  15.969  41.557   8.550
 6856POPC   D2A33064  15.960  41.530   8.250
 6856POPC   C3A33065  15.991  41.543   7.950
 6856POPC   C4A33066  15.980  41.548   7.650
 6856POPC   C1B33067  16.008  41.772   8.550
 6856POPC   C2B33068  16.023  41.804   8.250
 6856POPC   C3B33069  16.030  41.808   7.950
 6856POPC   C4B33070  16.069  41.803   7.650
 6857POPC   NC333071  16.751  12.806   9.450
 6857POPC   PO433072  16.737  12.884   9.150
 6857POPC   GL133073  16.717  12.839   8.850
 6857POPC   GL233074  16.687  12.709   8.850
 6857POPC   C1A33075  16.703  12.887   8.550
 6857POPC   D2A33076  16.778  12.833   8.250
 6857POPC   C3A33077  16.758  12.809   7.950
 6857POPC   C4A33078  16.691  12.810   7.650
 6857POPC   C1B33079  16.557  12.661   8.550
 6857POPC   C2B33080  16.571  12.673   8.250
 6857POPC   C3B33081  16.608  12.661   7.950
 6857POPC   C4B33082  16.604  12.674   7.650
 6858POPC   NC333083   7.428  43.923   9.450
 6858POPC   PO433084   7.451  43.918   9.150
 6858POPC   GL133085   7.462  43.929   8.850
 6858POPC   GL233086   7.475  43.780   8.850
 6858POPC   C1A33087   7.434  43.878   8.550
 6858POPC   D2A33088   7.413  43.910   8.250
 6858POPC   C3A33089   7.448  43.855   7.950
 6858POPC   C4A33090   7.438  43.893   7.650
 6858POPC   C1B33091   7.574  43.712   8.550
 6858POPC   C2B33092   7.562  43.743   8.250
 6858POPC   C3B33093   7.557  43.660   7.950
 6858POPC   C4B33094   7.584  43.697   7.650
 6859POPC   NC333095   9.012  37.695   9.450
 6859POPC   PO433096   9.012  37.696   9.150
 6859POPC   GL133097   8.998  37.698   8.850
 6859POPC   GL233098   9.003  37.829   8.850
 6859POPC   C1A33099   8.971  37.652   8.550
 6859POPC   D2A33100   8.932  37.655   8.250
 6859POPC   C3A33101   8.957  37.727   7.950
 6859POPC   C4A33102   8.982  37.689   7.650
 6859POPC   C1B33103   9.085  37.881   8.550
 6859POPC   C2B33104   9.046  37.893   8.250
 6859POPC   C3B33105   9.058  37.863   7.950
 6859POPC   C4B33106   9.082  37.951   7.650
 6860POPC   NC333107  43.074   7.458   9.450
 6860POPC   PO433108  43.078   7.469   9.150
 6860POPC   GL133109  43.099   7.387   8.850
 6860POPC   GL233110  43.093   7.340   8.850
 6860POPC   C1A33111  43.069   7.466   8.550
 6860POPC   D2A33112  43.110   7.384   8.250
 6860POPC   C3A33113  43.060   7.435   7.950
 6860POPC   C4A33114  43.112   7.413   7.650
 6860POPC   C1B33115  43.132   7.130   8.550
 6860POPC   C2B33116  43.220   7.143   8.250
 6860POPC   C3B33117  43.135   7.216   7.950
 6860POPC   C4B33118  43.222   7.200   7.650
 6861POPC   NC333119   3.563  35.370   9.450
 6861POPC   PO433120   3.506  35.306   9.150
 6861POPC   GL133121   3.550  35.362   8.850
 6861POPC   GL233122   3.482  35.229   8.850
 6861POPC   C1A33123   3.513  35.387   8.550
 6861POPC   D2A33124   3.524  35.400   8.250
 6861POPC   C3A33125   3.549  35.335   7.950
 6861POPC   C4A33126   3.579  35.317   7.650
 6861POPC   C1B33127   3.425  35.135   8.550
 6861POPC   C2B33128   3.430  35.113   8.250
 6861POPC   C3B33129   3.457  35.096   7.950
 6861POPC   C4B33130   3.474  35.169   7.650
 6862POPC   NC333131  33.810  24.525   9.450
 6862POPC   PO433132  33.784  24.466   9.150
 6862POPC   GL133133  33.785  24.451   8.850
 6862POPC   GL233134  33.706  24.442   8.850
 6862POPC   C1A33135  33.799  24.526   8.550
 6862POPC   D2A33136  33.840  24.472   8.250
 6862POPC   C3A33137  33.796  24.451   7.950
 6862POPC   C4A33138  33.753  24.531   7.650
 6862POPC   C1B33139  33.606  24.351   8.550
 6862POPC   C2B33140  33.606  24.343   8.250
 6862POPC   C3B33141  33.587  24.310   7.950
 6862POPC   C4B33142  33.643  24.354   7.650
 6863POPC   NC333143  12.078   8.930   9.450
 6863POPC   PO433144  12.051   8.974   9.150
 6863POPC   GL133145  12.116   8.944   8.850
 6863POPC   GL233146  12.056   8.900   8.850
 6863POPC   C1A33147  12.070   8.971   8.550
 6863POPC   D2A33148  12.027   8.960   8.250
 6863POPC   C3A33149  12.066   8.985   7.950
 6863POPC   C4A33150  12.055   8.977   7.650
 6863POPC   C1B33151  12.099   8.713   8.550
 6863POPC   C2B33152  12.084   8.740   8.250
 6863POPC   C3B33153  12.175   8.718   7.950
 6863POPC   C4B33154  12.086   8.754   7.650
 6864POPC   NC333155  34.616  34.595   9.450
 6864POPC   PO433156  34.622  34.552   9.150
 6864POPC   GL133157  34.561  34.564   8.850
 6864POPC   GL233158  34.672  34.645   8.850
 6864POPC   C1A33159  34.576  34.534   8.550
 6864POPC   D2A33160  34.532  34.529   8.250
 6864POPC   C3A33161  34.621  34.583   7.950
 6864POPC   C4A33162  34.536  34.553   7.650
 6864POPC   C1B33163  34.705  34.822   8.550
 6864POPC   C2B33164  34.739  34.798   8.250
 6864POPC   C3B33165  34.756  34.836   7.950
 6864POPC   C4B33166  34.731  34.741   7.650
 6865POPC   NC333167  27.632  19.022   9.450
 6865POPC   PO433168  27.591  19.085   9.150
 6865POPC   GL133169  27.638  19.090   8.850
 6865POPC   GL233170  27.483  18.990   8.850
 6865POPC   C1A33171  27.546  19.078   8.550
 6865POPC   D2A33172  27.543  19.102   8.250
 6865POPC   C3A33173  27.630  19.048   7.950
 6865POPC   C4A33174  27.638  19.062   7.650
 6865POPC   C1B33175  27.495  18.802   8.550
 6865POPC   C2B33176  27.434  18.875   8.250
 6865POPC   C3B33177  27.430  18.802   7.950
 6865POPC   C4B33178  27.429  18.815   7.650
 6866POPC   NC333179  27.598  33.850   9.450
 6866POPC   PO433180  27.568  33.812   9.150
 6866POPC   GL133181  27.617  33.758   8.850
 6866POPC   GL233182  27.591  33.935   8.850
 6866POPC   C1A33183  27.589  33.838   8.550
 6866POPC   D2A33184  27.585  33.831   8.250
 6866POPC   C3A33185  27.587  33.767   7.950
 6866POPC   C4A33186  27.616  33.817   7.650
 6866POPC   C1B33187  27.552  33.990   8.550
 6866POPC   C2B33188  27.466  34.072   8.250
 6866POPC   C3B33189  27.522  34.082   7.950
 6866POPC   C4B33190  27.456  34.008   7.650
 6867POPC   NC333191   5.047   9.764   9.450
 6867POPC   PO433192   5.073   9.718   9.150
 6867POPC   GL133193   5.113   9.769   8.850
 6867POPC   GL233194   4.957   9.644   8.850
 6867POPC   C1A33195   5.101   9.707   8.550
 6867POPC   D2A33196   5.105   9.782   8.250
 6867POPC   C3A33197   5.066   9.773   7.950
 6867POPC   C4A33198   5.070   9.730   7.650
 6867POPC   C1B33199   4.900   9.652   8.550
 6867POPC   C2B33200   4.913   9.599   8.250
 6867POPC   C3B33201   4.924   9.590   7.950
 6867POPC   C4B33202   4.881   9.651   7.650
 6868POPC   NC333203   1.942  38.435   9.450
 6868POPC   PO433204   1.951  38.443   9.150
 6868POPC   GL133205   1.980  38.491   8.850
 6868POPC   GL233206   1.908  38.473   8.850
 6868POPC   C1A33207   2.004  38.434   8.550
 6868POPC   D2A33208   1.950  38.498   8.250
 6868POPC   C3A33209   2.000  38.458   7.950
 6868POPC   C4A33210   1.995  38.477   7.650
 6868POPC   C1B33211   1.747  38.595   8.550
 6868POPC   C2B33212   1.805  38.510   8.250
 6868POPC   C3B33213   1.788  38.504   7.950
 6868POPC   C4B33214   1.725  38.575   7.650
 6869POPC   NC333215  31.495  15.936   9.450
 6869POPC   PO433216  31.476  15.972   9.150
 6869POPC   GL133217  31.476  15.922   8.850
 6869POPC   GL233218  31.350  15.967   8.850
 6869POPC   C1A33219  31.520  15.971   8.550
 6869POPC   D2A33220  31.515  15.949   8.250
 6869POPC   C3A33221  31.489  15.959   7.950
 6869POPC   C4A33222  31.464  15.911   7.650
 6869POPC   C1B33223  31.221  15.927   8.550
 6869POPC   C2B33224  31.203  15.913   8.250
 6869POPC   C3B33225  31.239  15.964   7.950
 6869POPC   C4B33226  31.228  15.979   7.650
 6870POPC   NC333227  29.930  43.910   9.450
 6870POPC   PO433228  29.900  43.887   9.150
 6870POPC   GL133229  29.910  43.929   8.850
 6870POPC   GL233230  29.789  43.910   8.850
 6870POPC   C1A33231  29.952  43.932   8.550
 6870POPC   D2A33232  29.962  43.841   8.250
 6870POPC   C3A33233  29.966  43.846   7.950
 6870POPC   C4A33234  29.920  43.900   7.650
 6870POPC   C1B33235  29.663  43.953   8.550
 6870POPC   C2B33236  29.684  43.962   8.250
 6870POPC   C3B33237  29.649  43.957   7.950
 6870POPC   C4B33238  29.708  44.030   7.650
 6871POPC   NC333239  36.942   4.279   9.450
 6871POPC   PO433240  36.881   4.362   9.150
 6871POPC   GL133241  36.930   4.329   8.850
 6871POPC   GL233242  36.908   4.143   8.850
 6871POPC   C1A33243  36.886   4.351   8.550
 6871POPC   D2A33244  36.929   4.301   8.250
 6871POPC   C3A33245  36.933   4.340   7.950
 6871POPC   C4A33246  36.873   4.290   7.650
 6871POPC   C1B33247  36.955   4.061   8.550
 6871POPC   C2B33248  36.966   4.065   8.250
 6871POPC   C3B33249  36.877   4.052   7.950
 6871POPC   C4B33250  36.895   4.100   7.650
 6872POPC   NC333251  10.518  43.114   9.450
 6872POPC   PO433252  10.491  43.148   9.150
 6872POPC   GL133253  10.552  43.156   8.850
 6872POPC   GL233254  10.676  43.045   8.850
 6872POPC   C1A33255  10.573  43.081   8.550
 6872POPC   D2A33256  10.516  43.109   8.250
 6872POPC   C3A33257  10.547  43.145   7.950
 6872POPC   C4A33258  10.477  43.076   7.650
 6872POPC   C1B33259  10.714  42.965   8.550
 6872POPC   C2B33260  10.790  42.996   8.250
 6872POPC   C3B33261  10.790  43.022   7.950
 6872POPC   C4B33262  10.723  43.007   7.650
 6873POPC   NC333263  29.903   9.782   9.450
 6873POPC   PO433264  29.939   9.739   9.150
 6873POPC   GL133265  29.942   9.788   8.850
 6873POPC   GL233266  29.825   9.696   8.850
 6873POPC   C1A33267  29.901   9.737   8.550
 6873POPC   D2A33268  29.913   9.795   8.250
 6873POPC   C3A33269  29.950   9.719   7.950
 6873POPC   C4A33270  29.877   9.753   7.650
 6873POPC   C1B33271  29.665   9.733   8.550
 6873POPC   C2B33272  29.662   9.756   8.250
 6873POPC   C3B33273  29.627   9.730   7.950
 6873POPC   C4B33274  29.634   9.684   7.650
 6874POPC   NC333275   8.206  22.164   9.450
 6874POPC   PO433276   8.238  22.125   9.150
 6874POPC   GL133277   8.185  22.162   8.850
 6874POPC   GL233278   8.271  22.029   8.850
 6874POPC   C1A33279   8.165  22.207   8.550
 6874POPC   D2A33280   8.165  22.181   8.250
 6874POPC   C3A33281   8.228  22.142   7.950
 6874POPC   C4A33282   8.149  22.123   7.650
 6874POPC   C1B33283   8.250  21.899   8.550
 6874POPC   C2B33284   8.275  21.870   8.250
 6874POPC   C3B33285   8.266  21.907   7.950
 6874POPC   C4B33286   8.216  21.921   7.650
 6875POPC   NC333287  44.658  11.325   9.450
 6875POPC   PO433288  44.644  11.251   9.150
 6875POPC   GL133289  44.618  11.320   8.850
 6875POPC   GL233290  44.604  11.431   8.850
 6875POPC   C1A33291  44.667  11.319   8.550
 6875POPC   D2A33292  44.684  11.321   8.250
 6875POPC   C3A33293  44.661  11.256   7.950
 6875POPC   C4A33294  44.669  11.292   7.650
 6875POPC   C1B33295  44.563  11.564   8.550
 6875POPC   C2B33296  44.566  11.494   8.250
 6875POPC   C3B33297  44.611  11.518   7.950
 6875POPC   C4B33298  44.582  11.538   7.650
 6876POPC   NC333299  35.368  25.274   9.450
 6876POPC   PO433300  35.319  25.283   9.150
 6876POPC   GL133301  35.393  25.222   8.850
 6876POPC   GL233302  35.209  25.375   8.850
 6876POPC   C1A33303  35.337  25.230   8.550
 6876POPC   D2A33304  35.360  25.302   8.250
 6876POPC   C3A33305  35.308  25.299   7.950
 6876POPC   C4A33306  35.396  25.273   7.650
 6876POPC   C1B33307  35.143  25.420   8.550
 6876POPC   C2B33308  35.153  25.411   8.250
 6876POPC   C3B33309  35.111  25.343   7.950
 6876POPC   C4B33310  35.137  25.353   7.650
 6877POPC   NC333311  27.572  19.803   9.450
 6877POPC   PO433312  27.546  19.824   9.150
 6877POPC   GL133313  27.610  19.814   8.850
 6877POPC   GL233314  27.614  19.724   8.850
 6877POPC   C1A33315  27.639  19.834   8.550
 6877POPC   D2A33316  27.564  19.810   8.250
 6877POPC   C3A33317  27.578  19.829   7.950
 6877POPC   C4A33318  27.641  19.823   7.650
 6877POPC   C1B33319  27.604  19.621   8.550
 6877POPC   C2B33320  27.596  19.561   8.250
 6877POPC   C3B33321  27.596  19.541   7.950
 6877POPC   C4B33322  27.583  19.627   7.650
 6878POPC   NC333323   5.830  43.095   9.450
 6878POPC   PO433324   5.903  43.125   9.150
 6878POPC   GL133325   5.890  43.071   8.850
 6878POPC   GL233326   5.805  43.271   8.850
 6878POPC   C1A33327   5.883  43.129   8.550
 6878POPC   D2A33328   5.849  43.111   8.250
 6878POPC   C3A33329   5.866  43.066   7.950
 6878POPC   C4A33330   5.883  43.135   7.650
 6878POPC   C1B33331   5.781  43.389   8.550
 6878POPC   C2B33332   5.871  43.344   8.250
 6878POPC   C3B33333   5.807  43.346   7.950
 6878POPC   C4B33334   5.808  43.406   7.650
 6879POPC   NC333335  21.382  19.872   9.450
 6879POPC   PO433336  21.387  19.806   9.150
 6879POPC   GL133337  21.417  19.818   8.850
 6879POPC   GL233338  21.327  19.960   8.850
 6879POPC   C1A33339  21.403  19.879   8.550
 6879POPC   D2A33340  21.414  19.833   8.250
 6879POPC   C3A33341  21.434  19.844   7.950
 6879POPC   C4A33342  21.356  19.839   7.650
 6879POPC   C1B33343  21.289  20.105   8.550
 6879POPC   C2B33344  21.318  20.114   8.250
 6879POPC   C3B33345  21.370  20.118   7.950
 6879POPC   C4B33346  21.364  20.077   7.650
 6880POPC   NC333347  42.373  44.635   9.450
 6880POPC   PO433348  42.323  44.636   9.150
 6880POPC   GL133349  42.291  44.636   8.850
 6880POPC   GL233350  42.480  44.700   8.850
 6880POPC   C1A33351  42.302  44.640   8.550
 6880POPC   D2A33352  42.328  44.613   8.250
 6880POPC   C3A33353  42.345  44.635   7.950
 6880POPC   C4A33354  42.366  44.706   7.650
 6880POPC   C1B33355  42.548  44.844   8.550
 6880POPC   C2B33356  42.505  44.810   8.250
 6880POPC   C3B33357  42.585  44.803   7.950
 6880POPC   C4B33358  42.499  44.814   7.650
 6881POPC   NC333359  10.474  16.769   9.450
 6881POPC   PO433360  10.555  16.754   9.150
 6881POPC   GL133361  10.572  16.762   8.850
 6881POPC   GL233362  10.492  16.806   8.850
 6881POPC   C1A33363  10.545  16.690   8.550
 6881POPC   D2A33364  10.564  16.722   8.250
 6881POPC   C3A33365  10.475  16.727   7.950
 6881POPC   C4A33366  10.559  16.733   7.650
 6881POPC   C1B33367  10.394  16.889   8.550
 6881POPC   C2B33368  10.372  16.888   8.250
 6881POPC   C3B33369  10.351  16.890   7.950
 6881POPC   C4B33370  10.381  16.977   7.650
 6882POPC   NC333371  44.691   0.480   9.450
 6882POPC   PO433372  44.622   0.429   9.150
 6882POPC   GL133373  44.658   0.472   8.850
 6882POPC   GL233374  44.539   0.393   8.850
 6882POPC   C1A33375  44.636   0.424   8.550
 6882POPC   D2A33376  44.669   0.428   8.250
 6882POPC   C3A33377  44.626   0.468   7.950
 6882POPC   C4A33378  44.644   0.411   7.650
 6882POPC   C1B33379  44.515   0.276   8.550
 6882POPC   C2B33380  44.513   0.260   8.250
 6882POPC   C3B33381  44.477   0.306   7.950
 6882POPC   C4B33382  44.503   0.272   7.650
 6883POPC   NC333383   2.036   3.565   9.450
 6883POPC   PO433384   1.989   3.498   9.150
 6883POPC   GL133385   1.987   3.555   8.850
 6883POPC   GL233386   1.921   3.609   8.850
 6883POPC   C1A33387   2.022   3.499   8.550
 6883POPC   D2A33388   1.988   3.538   8.250
 6883POPC   C3A33389   1.983   3.546   7.950
 6883POPC   C4A33390   1.998   3.492   7.650
 6883POPC   C1B33391   1.810   3.729   8.550
 6883POPC   C2B33392   1.782   3.732   8.250
 6883POPC   C3B33393   1.810   3.656   7.950
 6883POPC   C4B33394   1.756   3.745   7.650
 6884POPC   NC333395  12.046  33.049   9.450
 6884POPC   PO433396  12.080  32.985   9.150
 6884POPC   GL133397  12.042  33.005   8.850
 6884POPC   GL233398  12.058  33.176   8.850
 6884POPC   C1A33399  12.101  33.001   8.550
 6884POPC   D2A33400  12.071  32.978   8.250
 6884POPC   C3A33401  12.106  33.042   7.950
 6884POPC   C4A33402  12.078  33.005   7.650
 6884POPC   C1B33403  12.124  33.236   8.550
 6884POPC   C2B33404  12.109  33.254   8.250
 6884POPC   C3B33405  12.146  33.308   7.950
 6884POPC   C4B33406  12.101  33.231   7.650
 6885POPC   NC333407  27.551  41.528   9.450
 6885POPC   PO433408  27.608  41.516   9.150
 6885POPC   GL133409  27.572  41.516   8.850
 6885POPC   GL233410  27.431  41.578   8.850
 6885POPC   C1A33411  27.614  41.579   8.550
 6885POPC   D2A33412  27.547  41.532   8.250
 6885POPC   C3A33413  27.620  41.539   7.950
 6885POPC   C4A33414  27.559  41.595   7.650
 6885POPC   C1B33415  27.335  41.577   8.550
 6885POPC   C2B33416  27.345  41.631   8.250
 6885POPC   C3B33417  27.363  41.625   7.950
 6885POPC   C4B33418  27.301  41.606   7.650
 6886POPC   NC333419  42.303  14.409   9.450
 6886POPC   PO433420  42.291  14.358   9.150
 6886POPC   GL133421  42.306  14.390   8.850
 6886POPC   GL233422  42.390  14.492   8.850
 6886POPC   C1A33423  42.374  14.453   8.550
 6886POPC   D2A33424  42.358  14.364   8.250
 6886POPC   C3A33425  42.359  14.452   7.950
 6886POPC   C4A33426  42.302  14.380   7.650
 6886POPC   C1B33427  42.472  14.602   8.550
 6886POPC   C2B33428  42.490  14.592   8.250
 6886POPC   C3B33429  42.444  14.643   7.950
 6886POPC   C4B33430  42.425  14.666   7.650
 6887POPC   NC333431  31.506  35.347   9.450
 6887POPC   PO433432  31.520  35.335   9.150
 6887POPC   GL133433  31.470  35.326   8.850
 6887POPC   GL233434  31.532  35.437   8.850
 6887POPC   C1A33435  31.458  35.305   8.550
 6887POPC   D2A33436  31.472  35.401   8.250
 6887POPC   C3A33437  31.470  35.354   7.950
 6887POPC   C4A33438  31.459  35.377   7.650
 6887POPC   C1B33439  31.518  35.594   8.550
 6887POPC   C2B33440  31.482  35.593   8.250
 6887POPC   C3B33441  31.527  35.605   7.950
 6887POPC   C4B33442  31.539  35.599   7.650
 6888POPC   NC333443  13.586  36.146   9.450
 6888POPC   PO433444  13.653  36.128   9.150
 6888POPC   GL133445  13.619  36.096   8.850
 6888POPC   GL233446  13.544  36.234   8.850
 6888POPC   C1A33447  13.623  36.169   8.550
 6888POPC   D2A33448  13.620  36.085   8.250
 6888POPC   C3A33449  13.649  36.147   7.950
 6888POPC   C4A33450  13.657  36.136   7.650
 6888POPC   C1B33451  13.554  36.311   8.550
 6888POPC   C2B33452  13.519  36.339   8.250
 6888POPC   C3B33453  13.558  36.334   7.950
 6888POPC   C4B33454  13.485  36.349   7.650
 6889POPC   NC333455  32.203  43.069   9.450
 6889POPC   PO433456  32.234  43.159   9.150
 6889POPC   GL133457  32.263  43.069   8.850
 6889POPC   GL233458  32.236  43.244   8.850
 6889POPC   C1A33459  32.201  43.148   8.550
 6889POPC   D2A33460  32.247  43.157   8.250
 6889POPC   C3A33461  32.260  43.106   7.950
 6889POPC   C4A33462  32.201  43.122   7.650
 6889POPC   C1B33463  32.271  43.318   8.550
 6889POPC   C2B33464  32.282  43.312   8.250
 6889POPC   C3B33465  32.280  43.345   7.950
 6889POPC   C4B33466  32.244  43.326   7.650
 6890POPC   NC333467  42.373  29.881   9.450
 6890POPC   PO433468  42.285  29.971   9.150
 6890POPC   GL133469  42.339  29.948   8.850
 6890POPC   GL233470  42.333  29.803   8.850
 6890POPC   C1A33471  42.339  29.967   8.550
 6890POPC   D2A33472  42.316  29.940   8.250
 6890POPC   C3A33473  42.352  29.949   7.950
 6890POPC   C4A33474  42.334  29.960   7.650
 6890POPC   C1B33475  42.292  29.626   8.550
 6890POPC   C2B33476  42.326  29.712   8.250
 6890POPC   C3B33477  42.279  29.632   7.950
 6890POPC   C4B33478  42.275  29.626   7.650
 6891POPC   NC333479  41.531   0.435   9.450
 6891POPC   PO433480  41.549   0.474   9.150
 6891POPC   GL133481  41.587   0.448   8.850
 6891POPC   GL233482  41.681   0.500   8.850
 6891POPC   C1A33483  41.586   0.423   8.550
 6891POPC   D2A33484  41.595   0.456   8.250
 6891POPC   C3A33485  41.555   0.472   7.950
 6891POPC   C4A33486  41.549   0.423   7.650
 6891POPC   C1B33487  41.764   0.495   8.550
 6891POPC   C2B33488  41.812   0.477   8.250
 6891POPC   C3B33489  41.817   0.480   7.950
 6891POPC   C4B33490  41.774   0.472   7.650
 6892POPC   NC333491  12.877  32.204   9.450
 6892POPC   PO433492  12.838  32.252   9.150
 6892POPC   GL133493  12.845  32.245   8.850
 6892POPC   GL233494  12.914  32.115   8.850
 6892POPC   C1A33495  12.853  32.213   8.550
 6892POPC   D2A33496  12.877  32.263   8.250
 6892POPC   C3A33497  12.877  32.284   7.950
 6892POPC   C4A33498  12.867  32.266   7.650
 6892POPC   C1B33499  13.013  32.101   8.550
 6892POPC   C2B33500  12.992  32.046   8.250
 6892POPC   C3B33501  13.066  32.062   7.950
 6892POPC   C4B33502  13.034  32.047   7.650
 6893POPC   NC333503  11.278  29.970   9.450
 6893POPC   PO433504  11.292  29.904   9.150
 6893POPC   GL133505  11.288  29.921   8.850
 6893POPC   GL233506  11.201  29.844   8.850
 6893POPC   C1A33507  11.346  29.887   8.550
 6893POPC   D2A33508  11.261  29.906   8.250
 6893POPC   C3A33509  11.281  29.960   7.950
 6893POPC   C4A33510  11.262  29.898   7.650
 6893POPC   C1B33511  11.126  29.764   8.550
 6893POPC   C2B33512  11.093  29.754   8.250
 6893POPC   C3B33513  11.090  29.777   7.950
 6893POPC   C4B33514  11.096  29.802   7.650
 6894POPC   NC333515  43.906  26.806   9.450
 6894POPC   PO433516  43.864  26.792   9.150
 6894POPC   GL133517  43.889  26.775   8.850
 6894POPC   GL233518  43.954  26.735   8.850
 6894POPC   C1A33519  43.933  26.840   8.550
 6894POPC   D2A33520  43.922  26.805   8.250
 6894POPC   C3A33521  43.841  26.793   7.950
 6894POPC   C4A33522  43.855  26.824   7.650
 6894POPC   C1B33523  44.032  26.640   8.550
 6894POPC   C2B33524  44.027  26.592   8.250
 6894POPC   C3B33525  44.033  26.587   7.950
 6894POPC   C4B33526  43.991  26.559   7.650
 6895POPC   NC333527  39.204  39.238   9.450
 6895POPC   PO433528  39.248  39.240   9.150
 6895POPC   GL133529  39.242  39.187   8.850
 6895POPC   GL233530  39.227  39.381   8.850
 6895POPC   C1A33531  39.214  39.241   8.550
 6895POPC   D2A33532  39.214  39.255   8.250
 6895POPC   C3A33533  39.250  39.261   7.950
 6895POPC   C4A33534  39.203  39.274   7.650
 6895POPC   C1B33535  39.231  39.473   8.550
 6895POPC   C2B33536  39.193  39.521   8.250
 6895POPC   C3B33537  39.233  39.501   7.950
 6895POPC   C4B33538  39.174  39.526   7.650
 6896POPC   NC333539   7.405  18.261   9.450
 6896POPC   PO433540   7.453  18.296   9.150
 6896POPC   GL133541   7.457  18.301   8.850
 6896POPC   GL233542   7.322  18.298   8.850
 6896POPC   C1A33543   7.383  18.255   8.550
 6896POPC   D2A33544   7.383  18.272   8.250
 6896POPC   C3A33545   7.399  18.320   7.950
 6896POPC   C4A33546   7.427  18.277   7.650
 6896POPC   C1B33547   7.194  18.220   8.550
 6896POPC   C2B33548   7.218  18.254   8.250
 6896POPC   C3B33549   7.142  18.281   7.950
 6896POPC   C4B33550   7.194  18.254   7.650
 6897POPC   NC333551  37.694  16.711   9.450
 6897POPC   PO433552  37.727  16.733   9.150
 6897POPC   GL133553  37.638  16.691   8.850
 6897POPC   GL233554  37.597  16.783   8.850
 6897POPC   C1A33555  37.677  16.760   8.550
 6897POPC   D2A33556  37.716  16.774   8.250
 6897POPC   C3A33557  37.712  16.692   7.950
 6897POPC   C4A33558  37.689  16.752   7.650
 6897POPC   C1B33559  37.426  16.727   8.550
 6897POPC   C2B33560  37.396  16.768   8.250
 6897POPC   C3B33561  37.455  16.702   7.950
 6897POPC   C4B33562  37.458  16.715   7.650
 6898POPC   NC333563  22.986  25.257   9.450
 6898POPC   PO433564  22.970  25.261   9.150
 6898POPC   GL133565  22.930  25.245   8.850
 6898POPC   GL233566  23.017  25.313   8.850
 6898POPC   C1A33567  22.915  25.239   8.550
 6898POPC   D2A33568  22.933  25.275   8.250
 6898POPC   C3A33569  22.948  25.239   7.950
 6898POPC   C4A33570  22.947  25.316   7.650
 6898POPC   C1B33571  23.215  25.301   8.550
 6898POPC   C2B33572  23.142  25.297   8.250
 6898POPC   C3B33573  23.175  25.303   7.950
 6898POPC   C4B33574  23.171  25.299   7.650
 6899POPC   NC333575  15.960  15.206   9.450
 6899POPC   PO433576  15.914  15.201   9.150
 6899POPC   GL133577  15.947  15.194   8.850
 6899POPC   GL233578  16.050  15.038   8.850
 6899POPC   C1A33579  15.985  15.162   8.550
 6899POPC   D2A33580  15.967  15.166   8.250
 6899POPC   C3A33581  15.954  15.204   7.950
 6899POPC   C4A33582  15.941  15.172   7.650
 6899POPC   C1B33583  16.091  15.003   8.550
 6899POPC   C2B33584  16.049  14.968   8.250
 6899POPC   C3B33585  16.098  14.942   7.950
 6899POPC   C4B33586  16.116  14.932   7.650
 6900POPC   NC333587  32.233   8.233   9.450
 6900POPC   PO433588  32.232   8.192   9.150
 6900POPC   GL133589  32.282   8.240   8.850
 6900POPC   GL233590  32.134   8.257   8.850
 6900POPC   C1A33591  32.235   8.164   8.550
 6900POPC   D2A33592  32.229   8.220   8.250
 6900POPC   C3A33593  32.259   8.186   7.950
 6900POPC   C4A33594  32.257   8.153   7.650
 6900POPC   C1B33595  32.155   8.426   8.550
 6900POPC   C2B33596  32.132   8.399   8.250
 6900POPC   C3B33597  32.099   8.433   7.950
 6900POPC   C4B33598  32.086   8.437   7.650
 6901POPC   NC333599  42.362   9.784   9.450
 6901POPC   PO433600  42.351   9.708   9.150
 6901POPC   GL133601  42.371   9.709   8.850
 6901POPC   GL233602  42.431   9.701   8.850
 6901POPC   C1A33603  42.327   9.787   8.550
 6901POPC   D2A33604  42.299   9.747   8.250
 6901POPC   C3A33605  42.348   9.772   7.950
 6901POPC   C4A33606  42.297   9.722   7.650
 6901POPC   C1B33607  42.487   9.513   8.550
 6901POPC   C2B33608  42.475   9.600   8.250
 6901POPC   C3B33609  42.451   9.528   7.950
 6901POPC   C4B33610  42.546   9.542   7.650
 6902POPC   NC333611  29.166  20.628   9.450
 6902POPC   PO433612  29.117  20.598   9.150
 6902POPC   GL133613  29.098  20.617   8.850
 6902POPC   GL233614  29.015  20.646   8.850
 6902POPC   C1A33615  29.140  20.650   8.550
 6902POPC   D2A33616  29.133  20.599   8.250
 6902POPC   C3A33617  29.166  20.651   7.950
 6902POPC   C4A33618  29.173  20.621   7.650
 6902POPC   C1B33619  28.879  20.674   8.550
 6902POPC   C2B33620  28.944  20.634   8.250
 6902POPC   C3B33621  28.894  20.600   7.950
 6902POPC   C4B33622  28.868  20.653   7.650
 6903POPC   NC333623   7.407  40.823   9.450
 6903POPC   PO433624   7.435  40.824   9.150
 6903POPC   GL133625   7.469  40.823   8.850
 6903POPC   GL233626   7.377  40.860   8.850
 6903POPC   C1A33627   7.467  40.760   8.550
 6903POPC   D2A33628   7.428  40.774   8.250
 6903POPC   C3A33629   7.445  40.800   7.950
 6903POPC   C4A33630   7.414  40.814   7.650
 6903POPC   C1B33631   7.406  40.986   8.550
 6903POPC   C2B33632   7.434  41.022   8.250
 6903POPC   C3B33633   7.393  40.997   7.950
 6903POPC   C4B33634   7.359  41.075   7.650
 6904POPC   NC333635  30.685  20.644   9.450
 6904POPC   PO433636  30.670  20.595   9.150
 6904POPC   GL133637  30.718  20.605   8.850
 6904POPC   GL233638  30.640  20.469   8.850
 6904POPC   C1A33639  30.680  20.577   8.550
 6904POPC   D2A33640  30.686  20.635   8.250
 6904POPC   C3A33641  30.669  20.580   7.950
 6904POPC   C4A33642  30.671  20.635   7.650
 6904POPC   C1B33643  30.677  20.350   8.550
 6904POPC   C2B33644  30.638  20.384   8.250
 6904POPC   C3B33645  30.604  20.324   7.950
 6904POPC   C4B33646  30.614  20.341   7.650
 6905POPC   NC333647  22.197  35.346   9.450
 6905POPC   PO433648  22.170  35.348   9.150
 6905POPC   GL133649  22.205  35.323   8.850
 6905POPC   GL233650  22.255  35.479   8.850
 6905POPC   C1A33651  22.129  35.302   8.550
 6905POPC   D2A33652  22.181  35.396   8.250
 6905POPC   C3A33653  22.134  35.309   7.950
 6905POPC   C4A33654  22.131  35.353   7.650
 6905POPC   C1B33655  22.339  35.598   8.550
 6905POPC   C2B33656  22.346  35.601   8.250
 6905POPC   C3B33657  22.322  35.518   7.950
 6905POPC   C4B33658  22.279  35.521   7.650
 6906POPC   NC333659   8.931  24.534   9.450
 6906POPC   PO433660   8.976  24.532   9.150
 6906POPC   GL133661   8.953  24.447   8.850
 6906POPC   GL233662   8.945  24.574   8.850
 6906POPC   C1A33663   8.993  24.508   8.550
 6906POPC   D2A33664   8.982  24.483   8.250
 6906POPC   C3A33665   9.000  24.539   7.950
 6906POPC   C4A33666   9.017  24.539   7.650
 6906POPC   C1B33667   8.989  24.745   8.550
 6906POPC   C2B33668   9.021  24.740   8.250
 6906POPC   C3B33669   9.014  24.707   7.950
 6906POPC   C4B33670   9.018  24.704   7.650
 6907POPC   NC333671   2.772   9.707   9.450
 6907POPC   PO433672   2.814   9.767   9.150
 6907POPC   GL133673   2.760   9.754   8.850
 6907POPC   GL233674   2.758   9.822   8.850
 6907POPC   C1A33675   2.764   9.716   8.550
 6907POPC   D2A33676   2.742   9.726   8.250
 6907POPC   C3A33677   2.724   9.773   7.950
 6907POPC   C4A33678   2.723   9.783   7.650
 6907POPC   C1B33679   2.657  10.019   8.550
 6907POPC   C2B33680   2.681   9.998   8.250
 6907POPC   C3B33681   2.683   9.977   7.950
 6907POPC   C4B33682   2.655   9.982   7.650
 6908POPC   NC333683   2.733   2.757   9.450
 6908POPC   PO433684   2.742   2.795   9.150
 6908POPC   GL133685   2.718   2.753   8.850
 6908POPC   GL233686   2.910   2.776   8.850
 6908POPC   C1A33687   2.764   2.760   8.550
 6908POPC   D2A33688   2.791   2.781   8.250
 6908POPC   C3A33689   2.815   2.754   7.950
 6908POPC   C4A33690   2.733   2.747   7.650
 6908POPC   C1B33691   2.974   2.853   8.550
 6908POPC   C2B33692   2.955   2.885   8.250
 6908POPC   C3B33693   2.987   2.811   7.950
 6908POPC   C4B33694   2.969   2.840   7.650
 6909POPC   NC333695  43.852  10.560   9.450
 6909POPC   PO433696  43.854  10.515   9.150
 6909POPC   GL133697  43.925  10.560   8.850
 6909POPC   GL233698  43.738  10.499   8.850
 6909POPC   C1A33699  43.878  10.498   8.550
 6909POPC   D2A33700  43.858  10.488   8.250
 6909POPC   C3A33701  43.843  10.487   7.950
 6909POPC   C4A33702  43.873  10.502   7.650
 6909POPC   C1B33703  43.613  10.457   8.550
 6909POPC   C2B33704  43.683  10.428   8.250
 6909POPC   C3B33705  43.679  10.451   7.950
 6909POPC   C4B33706  43.663  10.450   7.650
 6910POPC   NC333707  29.878  39.999   9.450
 6910POPC   PO433708  29.961  39.985   9.150
 6910POPC   GL133709  29.901  39.984   8.850
 6910POPC   GL233710  30.041  39.858   8.850
 6910POPC   C1A33711  29.905  40.010   8.550
 6910POPC   D2A33712  29.964  40.043   8.250
 6910POPC   C3A33713  29.893  39.971   7.950
 6910POPC   C4A33714  29.960  40.056   7.650
 6910POPC   C1B33715  30.103  39.814   8.550
 6910POPC   C2B33716  30.029  39.807   8.250
 6910POPC   C3B33717  30.046  39.844   7.950
 6910POPC   C4B33718  30.073  39.852   7.650
 6911POPC   NC333719  36.091  37.654   9.450
 6911POPC   PO433720  36.139  37.684   9.150
 6911POPC   GL133721  36.082  37.642   8.850
 6911POPC   GL233722  36.050  37.713   8.850
 6911POPC   C1A33723  36.092  37.720   8.550
 6911POPC   D2A33724  36.120  37.694   8.250
 6911POPC   C3A33725  36.103  37.719   7.950
 6911POPC   C4A33726  36.163  37.679   7.650
 6911POPC   C1B33727  35.864  37.749   8.550
 6911POPC   C2B33728  35.888  37.715   8.250
 6911POPC   C3B33729  35.889  37.761   7.950
 6911POPC   C4B33730  35.933  37.777   7.650
 6912POPC   NC333731  19.816   5.841   9.450
 6912POPC   PO433732  19.828   5.913   9.150
 6912POPC   GL133733  19.791   5.899   8.850
 6912POPC   GL233734  19.825   6.016   8.850
 6912POPC   C1A33735  19.786   5.838   8.550
 6912POPC   D2A33736  19.871   5.899   8.250
 6912POPC   C3A33737  19.849   5.903   7.950
 6912POPC   C4A33738  19.806   5.827   7.650
 6912POPC   C1B33739  19.871   6.106   8.550
 6912POPC   C2B33740  19.861   6.110   8.250
 6912POPC   C3B33741  19.796   6.106   7.950
 6912POPC   C4B33742  19.843   6.157   7.650
 6913POPC   NC333743  24.464  26.041   9.450
 6913POPC   PO433744  24.533  25.993   9.150
 6913POPC   GL133745  24.490  26.074   8.850
 6913POPC   GL233746  24.575  26.137   8.850
 6913POPC   C1A33747  24.533  26.001   8.550
 6913POPC   D2A33748  24.473  26.041   8.250
 6913POPC   C3A33749  24.502  26.046   7.950
 6913POPC   C4A33750  24.498  26.054   7.650
 6913POPC   C1B33751  24.602  26.242   8.550
 6913POPC   C2B33752  24.587  26.239   8.250
 6913POPC   C3B33753  24.570  26.288   7.950
 6913POPC   C4B33754  24.630  26.254   7.650
 6914POPC   NC333755   8.938  40.031   9.450
 6914POPC   PO433756   8.956  39.986   9.150
 6914POPC   GL133757   8.999  40.034   8.850
 6914POPC   GL233758   9.092  40.037   8.850
 6914POPC   C1A33759   9.014  39.986   8.550
 6914POPC   D2A33760   8.940  40.052   8.250
 6914POPC   C3A33761   8.935  40.056   7.950
 6914POPC   C4A33762   8.993  40.035   7.650
 6914POPC   C1B33763   9.189  39.988   8.550
 6914POPC   C2B33764   9.191  39.984   8.250
 6914POPC   C3B33765   9.222  39.974   7.950
 6914POPC   C4B33766   9.192  40.029   7.650
 6915POPC   NC333767  43.878  21.375   9.450
 6915POPC   PO433768  43.855  21.355   9.150
 6915POPC   GL133769  43.929  21.432   8.850
 6915POPC   GL233770  43.834  21.435   8.850
 6915POPC   C1A33771  43.904  21.412   8.550
 6915POPC   D2A33772  43.921  21.390   8.250
 6915POPC   C3A33773  43.844  21.419   7.950
 6915POPC   C4A33774  43.932  21.429   7.650
 6915POPC   C1B33775  43.737  21.584   8.550
 6915POPC   C2B33776  43.698  21.590   8.250
 6915POPC   C3B33777  43.716  21.529   7.950
 6915POPC   C4B33778  43.740  21.597   7.650
 6916POPC   NC333779  32.240  36.146   9.450
 6916POPC   PO433780  32.249  36.083   9.150
 6916POPC   GL133781  32.281  36.096   8.850
 6916POPC   GL233782  32.132  36.023   8.850
 6916POPC   C1A33783  32.297  36.116   8.550
 6916POPC   D2A33784  32.252  36.164   8.250
 6916POPC   C3A33785  32.210  36.101   7.950
 6916POPC   C4A33786  32.234  36.173   7.650
 6916POPC   C1B33787  32.155  35.873   8.550
 6916POPC   C2B33788  32.134  35.968   8.250
 6916POPC   C3B33789  32.095  35.947   7.950
 6916POPC   C4B33790  32.155  35.894   7.650
 6917POPC   NC333791  36.107  16.732   9.450
 6917POPC   PO433792  36.142  16.731   9.150
 6917POPC   GL133793  36.160  16.720   8.850
 6917POPC   GL233794  36.101  16.661   8.850
 6917POPC   C1A33795  36.177  16.709   8.550
 6917POPC   D2A33796  36.133  16.712   8.250
 6917POPC   C3A33797  36.111  16.742   7.950
 6917POPC   C4A33798  36.115  16.688   7.650
 6917POPC   C1B33799  36.040  16.486   8.550
 6917POPC   C2B33800  35.995  16.520   8.250
 6917POPC   C3B33801  36.005  16.502   7.950
 6917POPC   C4B33802  36.034  16.534   7.650
 6918POPC   NC333803   2.765  19.826   9.450
 6918POPC   PO433804   2.726  19.834   9.150
 6918POPC   GL133805   2.773  19.854   8.850
 6918POPC   GL233806   2.779  19.957   8.850
 6918POPC   C1A33807   2.751  19.854   8.550
 6918POPC   D2A33808   2.738  19.815   8.250
 6918POPC   C3A33809   2.768  19.823   7.950
 6918POPC   C4A33810   2.802  19.832   7.650
 6918POPC   C1B33811   2.676  20.082   8.550
 6918POPC   C2B33812   2.671  20.099   8.250
 6918POPC   C3B33813   2.732  20.070   7.950
 6918POPC   C4B33814   2.703  20.071   7.650
 6919POPC   NC333815  33.794  12.861   9.450
 6919POPC   PO433816  33.840  12.870   9.150
 6919POPC   GL133817  33.833  12.894   8.850
 6919POPC   GL233818  33.641  12.801   8.850
 6919POPC   C1A33819  33.827  12.901   8.550
 6919POPC   D2A33820  33.767  12.893   8.250
 6919POPC   C3A33821  33.838  12.809   7.950
 6919POPC   C4A33822  33.760  12.835   7.650
 6919POPC   C1B33823  33.585  12.792   8.550
 6919POPC   C2B33824  33.522  12.823   8.250
 6919POPC   C3B33825  33.566  12.843   7.950
 6919POPC   C4B33826  33.570  12.770   7.650
 6920POPC   NC333827   1.211   5.056   9.450
 6920POPC   PO433828   1.231   5.137   9.150
 6920POPC   GL133829   1.203   5.072   8.850
 6920POPC   GL233830   1.145   5.163   8.850
 6920POPC   C1A33831   1.261   5.118   8.550
 6920POPC   D2A33832   1.188   5.089   8.250
 6920POPC   C3A33833   1.249   5.047   7.950
 6920POPC   C4A33834   1.249   5.061   7.650
 6920POPC   C1B33835   1.073   5.295   8.550
 6920POPC   C2B33836   1.073   5.338   8.250
 6920POPC   C3B33837   1.053   5.334   7.950
 6920POPC   C4B33838   1.142   5.271   7.650
 6921POPC   NC333839  23.727  38.434   9.450
 6921POPC   PO433840  23.756  38.479   9.150
 6921POPC   GL133841  23.671  38.410   8.850
 6921POPC   GL233842  23.795  38.571   8.850
 6921POPC   C1A33843  23.708  38.487   8.550
 6921POPC   D2A33844  23.744  38.442   8.250
 6921POPC   C3A33845  23.684  38.499   7.950
 6921POPC   C4A33846  23.689  38.472   7.650
 6921POPC   C1B33847  23.738  38.669   8.550
 6921POPC   C2B33848  23.821  38.654   8.250
 6921POPC   C3B33849  23.783  38.733   7.950
 6921POPC   C4B33850  23.735  38.672   7.650
 6922POPC   NC333851  40.764  29.125   9.450
 6922POPC   PO433852  40.760  29.181   9.150
 6922POPC   GL133853  40.792  29.170   8.850
 6922POPC   GL233854  40.696  29.245   8.850
 6922POPC   C1A33855  40.821  29.181   8.550
 6922POPC   D2A33856  40.739  29.192   8.250
 6922POPC   C3A33857  40.776  29.181   7.950
 6922POPC   C4A33858  40.757  29.121   7.650
 6922POPC   C1B33859  40.625  29.369   8.550
 6922POPC   C2B33860  40.696  29.349   8.250
 6922POPC   C3B33861  40.703  29.331   7.950
 6922POPC   C4B33862  40.632  29.360   7.650
 6923POPC   NC333863  43.061   5.106   9.450
 6923POPC   PO433864  43.136   5.133   9.150
 6923POPC   GL133865  43.110   5.120   8.850
 6923POPC   GL233866  43.061   5.240   8.850
 6923POPC   C1A33867  43.156   5.088   8.550
 6923POPC   D2A33868  43.155   5.101   8.250
 6923POPC   C3A33869  43.142   5.142   7.950
 6923POPC   C4A33870  43.093   5.125   7.650
 6923POPC   C1B33871  43.004   5.315   8.550
 6923POPC   C2B33872  43.053   5.326   8.250
 6923POPC   C3B33873  43.029   5.302   7.950
 6923POPC   C4B33874  43.003   5.374   7.650
 6924POPC   NC333875  37.667  31.477   9.450
 6924POPC   PO433876  37.698  31.426   9.150
 6924POPC   GL133877  37.705  31.442   8.850
 6924POPC   GL233878  37.656  31.381   8.850
 6924POPC   C1A33879  37.674  31.463   8.550
 6924POPC   D2A33880  37.642  31.486   8.250
 6924POPC   C3A33881  37.650  31.438   7.950
 6924POPC   C4A33882  37.669  31.448   7.650
 6924POPC   C1B33883  37.736  31.203   8.550
 6924POPC   C2B33884  37.702  31.209   8.250
 6924POPC   C3B33885  37.694  31.226   7.950
 6924POPC   C4B33886  37.720  31.252   7.650
 6925POPC   NC333887   8.180  34.576   9.450
 6925POPC   PO433888   8.150  34.625   9.150
 6925POPC   GL133889   8.167  34.589   8.850
 6925POPC   GL233890   8.282  34.657   8.850
 6925POPC   C1A33891   8.187  34.594   8.550
 6925POPC   D2A33892   8.172  34.569   8.250
 6925POPC   C3A33893   8.190  34.598   7.950
 6925POPC   C4A33894   8.210  34.564   7.650
 6925POPC   C1B33895   8.369  34.728   8.550
 6925POPC   C2B33896   8.423  34.679   8.250
 6925POPC   C3B33897   8.463  34.661   7.950
 6925POPC   C4B33898   8.409  34.715   7.650
 6926POPC   NC333899  15.965   4.360   9.450
 6926POPC   PO433900  15.912   4.328   9.150
 6926POPC   GL133901  15.967   4.276   8.850
 6926POPC   GL233902  15.823   4.301   8.850
 6926POPC   C1A33903  15.950   4.344   8.550
 6926POPC   D2A33904  15.914   4.308   8.250
 6926POPC   C3A33905  15.922   4.340   7.950
 6926POPC   C4A33906  15.985   4.295   7.650
 6926POPC   C1B33907  15.776   4.189   8.550
 6926POPC   C2B33908  15.765   4.188   8.250
 6926POPC   C3B33909  15.688   4.201   7.950
 6926POPC   C4B33910  15.749   4.208   7.650
 6927POPC   NC333911  29.134  27.639   9.450
 6927POPC   PO433912  29.104  27.578   9.150
 6927POPC   GL133913  29.159  27.554   8.850
 6927POPC   GL233914  29.174  27.446   8.850
 6927POPC   C1A33915  29.095  27.603   8.550
 6927POPC   D2A33916  29.099  27.573   8.250
 6927POPC   C3A33917  29.155  27.551   7.950
 6927POPC   C4A33918  29.137  27.622   7.650
 6927POPC   C1B33919  29.084  27.391   8.550
 6927POPC   C2B33920  29.058  27.368   8.250
 6927POPC   C3B33921  29.085  27.395   7.950
 6927POPC   C4B33922  29.114  27.338   7.650
 6928POPC   NC333923  37.683  19.090   9.450
 6928POPC   PO433924  37.675  19.104   9.150
 6928POPC   GL133925  37.699  19.108   8.850
 6928POPC   GL233926  37.754  19.208   8.850
 6928POPC   C1A33927  37.642  19.023   8.550
 6928POPC   D2A33928  37.676  19.093   8.250
 6928POPC   C3A33929  37.650  19.088   7.950
 6928POPC   C4A33930  37.713  19.069   7.650
 6928POPC   C1B33931  37.829  19.293   8.550
 6928POPC   C2B33932  37.861  19.298   8.250
 6928POPC   C3B33933  37.818  19.307   7.950
 6928POPC   C4B33934  37.803  19.235   7.650
 6929POPC   NC333935  37.711  22.891   9.450
 6929POPC   PO433936  37.728  22.917   9.150
 6929POPC   GL133937  37.723  22.914   8.850
 6929POPC   GL233938  37.536  23.012   8.850
 6929POPC   C1A33939  37.702  22.939   8.550
 6929POPC   D2A33940  37.675  22.890   8.250
 6929POPC   C3A33941  37.676  22.963   7.950
 6929POPC   C4A33942  37.684  22.953   7.650
 6929POPC   C1B33943  37.448  22.986   8.550
 6929POPC   C2B33944  37.431  22.981   8.250
 6929POPC   C3B33945  37.401  23.025   7.950
 6929POPC   C4B33946  37.431  22.998   7.650
 6930POPC   NC333947  35.369  36.125   9.450
 6930POPC   PO433948  35.382  36.088   9.150
 6930POPC   GL133949  35.389  36.161   8.850
 6930POPC   GL233950  35.423  36.167   8.850
 6930POPC   C1A33951  35.322  36.096   8.550
 6930POPC   D2A33952  35.347  36.086   8.250
 6930POPC   C3A33953  35.397  36.122   7.950
 6930POPC   C4A33954  35.330  36.127   7.650
 6930POPC   C1B33955  35.516  36.323   8.550
 6930POPC   C2B33956  35.590  36.281   8.250
 6930POPC   C3B33957  35.496  36.319   7.950
 6930POPC   C4B33958  35.536  36.310   7.650
 6931POPC   NC333959  44.709  34.620   9.450
 6931POPC   PO433960  44.696  34.584   9.150
 6931POPC   GL133961  44.644  34.614   8.850
 6931POPC   GL233962  44.593  34.553   8.850
 6931POPC   C1A33963  44.675  34.552   8.550
 6931POPC   D2A33964  44.643  34.568   8.250
 6931POPC   C3A33965  44.627  34.592   7.950
 6931POPC   C4A33966  44.643  34.536   7.650
 6931POPC   C1B33967  44.445  34.470   8.550
 6931POPC   C2B33968  44.450  34.417   8.250
 6931POPC   C3B33969  44.496  34.450   7.950
 6931POPC   C4B33970  44.467  34.433   7.650
 6932POPC   NC333971  38.434  22.959   9.450
 6932POPC   PO433972  38.426  22.926   9.150
 6932POPC   GL133973  38.491  22.919   8.850
 6932POPC   GL233974  38.443  22.824   8.850
 6932POPC   C1A33975  38.450  22.908   8.550
 6932POPC   D2A33976  38.500  22.987   8.250
 6932POPC   C3A33977  38.432  22.936   7.950
 6932POPC   C4A33978  38.478  22.966   7.650
 6932POPC   C1B33979  38.400  22.738   8.550
 6932POPC   C2B33980  38.367  22.675   8.250
 6932POPC   C3B33981  38.371  22.659   7.950
 6932POPC   C4B33982  38.374  22.694   7.650
 6933POPC   NC333983  40.057  19.058   9.450
 6933POPC   PO433984  39.959  19.094   9.150
 6933POPC   GL133985  39.969  19.021   8.850
 6933POPC   GL233986  40.083  18.895   8.850
 6933POPC   C1A33987  40.055  19.012   8.550
 6933POPC   D2A33988  39.994  19.015   8.250
 6933POPC   C3A33989  40.038  19.083   7.950
 6933POPC   C4A33990  39.973  19.105   7.650
 6933POPC   C1B33991  40.128  18.817   8.550
 6933POPC   C2B33992  40.085  18.778   8.250
 6933POPC   C3B33993  40.091  18.864   7.950
 6933POPC   C4B33994  40.136  18.827   7.650
 6934POPC   NC333995  34.551  22.928   9.450
 6934POPC   PO433996  34.602  22.972   9.150
 6934POPC   GL133997  34.596  22.904   8.850
 6934POPC   GL233998  34.419  22.985   8.850
 6934POPC   C1A33999  34.585  22.890   8.550
 6934POPC   D2A34000  34.613  22.935   8.250
 6934POPC   C3A34001  34.616  22.911   7.950
 6934POPC   C4A34002  34.585  22.965   7.650
 6934POPC   C1B34003  34.356  23.103   8.550
 6934POPC   C2B34004  34.356  23.024   8.250
 6934POPC   C3B34005  34.381  23.069   7.950
 6934POPC   C4B34006  34.347  23.055   7.650
 6935POPC   NC334007  18.310  22.193   9.450
 6935POPC   PO434008  18.280  22.147   9.150
 6935POPC   GL134009  18.269  22.123   8.850
 6935POPC   GL234010  18.353  22.058   8.850
 6935POPC   C1A34011  18.297  22.186   8.550
 6935POPC   D2A34012  18.248  22.122   8.250
 6935POPC   C3A34013  18.274  22.162   7.950
 6935POPC   C4A34014  18.317  22.202   7.650
 6935POPC   C1B34015  18.372  21.963   8.550
 6935POPC   C2B34016  18.391  21.958   8.250
 6935POPC   C3B34017  18.397  21.899   7.950
 6935POPC   C4B34018  18.398  21.902   7.650
 6936POPC   NC334019  26.045   4.299   9.450
 6936POPC   PO434020  25.997   4.353   9.150
 6936POPC   GL134021  26.034   4.344   8.850
 6936POPC   GL234022  25.918   4.354   8.850
 6936POPC   C1A34023  26.089   4.318   8.550
 6936POPC   D2A34024  26.006   4.289   8.250
 6936POPC   C3A34025  26.041   4.285   7.950
 6936POPC   C4A34026  26.002   4.345   7.650
 6936POPC   C1B34027  25.800   4.422   8.550
 6936POPC   C2B34028  25.767   4.394   8.250
 6936POPC   C3B34029  25.817   4.394   7.950
 6936POPC   C4B34030  25.818   4.417   7.650
 6937POPC   NC334031  42.333  15.964   9.450
 6937POPC   PO434032  42.330  15.954   9.150
 6937POPC   GL134033  42.354  15.970   8.850
 6937POPC   GL234034  42.267  15.844   8.850
 6937POPC   C1A34035  42.340  15.907   8.550
 6937POPC   D2A34036  42.343  15.953   8.250
 6937POPC   C3A34037  42.374  15.955   7.950
 6937POPC   C4A34038  42.362  15.954   7.650
 6937POPC   C1B34039  42.177  15.718   8.550
 6937POPC   C2B34040  42.172  15.739   8.250
 6937POPC   C3B34041  42.160  15.722   7.950
 6937POPC   C4B34042  42.146  15.739   7.650
 6938POPC   NC334043  11.303  22.984   9.450
 6938POPC   PO434044  11.330  22.897   9.150
 6938POPC   GL134045  11.304  22.928   8.850
 6938POPC   GL234046  11.312  23.015   8.850
 6938POPC   C1A34047  11.251  22.979   8.550
 6938POPC   D2A34048  11.297  22.973   8.250
 6938POPC   C3A34049  11.343  22.926   7.950
 6938POPC   C4A34050  11.252  22.889   7.650
 6938POPC   C1B34051  11.456  23.176   8.550
 6938POPC   C2B34052  11.379  23.153   8.250
 6938POPC   C3B34053  11.446  23.175   7.950
 6938POPC   C4B34054  11.411  23.117   7.650
 6939POPC   NC334055  21.425  30.685   9.450
 6939POPC   PO434056  21.405  30.738   9.150
 6939POPC   GL134057  21.408  30.716   8.850
 6939POPC   GL234058  21.555  30.644   8.850
 6939POPC   C1A34059  21.338  30.716   8.550
 6939POPC   D2A34060  21.367  30.684   8.250
 6939POPC   C3A34061  21.393  30.710   7.950
 6939POPC   C4A34062  21.379  30.670   7.650
 6939POPC   C1B34063  21.654  30.674   8.550
 6939POPC   C2B34064  21.649  30.638   8.250
 6939POPC   C3B34065  21.621  30.700   7.950
 6939POPC   C4B34066  21.678  30.674   7.650
 6940POPC   NC334067  40.047  16.725   9.450
 6940POPC   PO434068  40.053  16.731   9.150
 6940POPC   GL134069  40.021  16.703   8.850
 6940POPC   GL234070  40.126  16.604   8.850
 6940POPC   C1A34071  40.038  16.723   8.550
 6940POPC   D2A34072  40.009  16.730   8.250
 6940POPC   C3A34073  40.004  16.744   7.950
 6940POPC   C4A34074  39.963  16.735   7.650
 6940POPC   C1B34075  40.122  16.563   8.550
 6940POPC   C2B34076  40.128  16.543   8.250
 6940POPC   C3B34077  40.186  16.507   7.950
 6940POPC   C4B34078  40.142  16.528   7.650
 6941POPC   NC334079  24.486   3.560   9.450
 6941POPC   PO434080  24.479   3.531   9.150
 6941POPC   GL134081  24.489   3.525   8.850
 6941POPC   GL234082  24.378   3.600   8.850
 6941POPC   C1A34083  24.536   3.556   8.550
 6941POPC   D2A34084  24.487   3.545   8.250
 6941POPC   C3A34085  24.470   3.521   7.950
 6941POPC   C4A34086  24.532   3.557   7.650
 6941POPC   C1B34087  24.230   3.636   8.550
 6941POPC   C2B34088  24.205   3.573   8.250
 6941POPC   C3B34089  24.231   3.625   7.950
 6941POPC   C4B34090  24.226   3.650   7.650
 6942POPC   NC334091  22.914   7.394   9.450
 6942POPC   PO434092  22.938   7.393   9.150
 6942POPC   GL134093  22.957   7.404   8.850
 6942POPC   GL234094  22.816   7.340   8.850
 6942POPC   C1A34095  22.919   7.420   8.550
 6942POPC   D2A34096  22.963   7.441   8.250
 6942POPC   C3A34097  22.890   7.460   7.950
 6942POPC   C4A34098  22.942   7.450   7.650
 6942POPC   C1B34099  22.719   7.357   8.550
 6942POPC   C2B34100  22.700   7.325   8.250
 6942POPC   C3B34101  22.702   7.322   7.950
 6942POPC   C4B34102  22.723   7.360   7.650
 6943POPC   NC334103  26.836  15.184   9.450
 6943POPC   PO434104  26.800  15.147   9.150
 6943POPC   GL134105  26.843  15.138   8.850
 6943POPC   GL234106  26.902  15.101   8.850
 6943POPC   C1A34107  26.797  15.191   8.550
 6943POPC   D2A34108  26.789  15.147   8.250
 6943POPC   C3A34109  26.815  15.215   7.950
 6943POPC   C4A34110  26.832  15.186   7.650
 6943POPC   C1B34111  26.916  14.945   8.550
 6943POPC   C2B34112  26.961  14.964   8.250
 6943POPC   C3B34113  26.970  14.945   7.950
 6943POPC   C4B34114  26.933  14.965   7.650
 6944POPC   NC334115  32.281  28.374   9.450
 6944POPC   PO434116  32.275  28.393   9.150
 6944POPC   GL134117  32.289  28.359   8.850
 6944POPC   GL234118  32.273  28.431   8.850
 6944POPC   C1A34119  32.215  28.367   8.550
 6944POPC   D2A34120  32.271  28.390   8.250
 6944POPC   C3A34121  32.215  28.384   7.950
 6944POPC   C4A34122  32.254  28.322   7.650
 6944POPC   C1B34123  32.396  28.605   8.550
 6944POPC   C2B34124  32.387  28.545   8.250
 6944POPC   C3B34125  32.342  28.615   7.950
 6944POPC   C4B34126  32.353  28.627   7.650
 6945POPC   NC334127  12.832  30.723   9.450
 6945POPC   PO434128  12.884  30.743   9.150
 6945POPC   GL134129  12.879  30.673   8.850
 6945POPC   GL234130  12.961  30.694   8.850
 6945POPC   C1A34131  12.827  30.688   8.550
 6945POPC   D2A34132  12.871  30.724   8.250
 6945POPC   C3A34133  12.815  30.706   7.950
 6945POPC   C4A34134  12.844  30.718   7.650
 6945POPC   C1B34135  13.056  30.706   8.550
 6945POPC   C2B34136  13.087  30.703   8.250
 6945POPC   C3B34137  13.070  30.662   7.950
 6945POPC   C4B34138  13.099  30.729   7.650
 6946POPC   NC334139  39.240   1.977   9.450
 6946POPC   PO434140  39.236   1.966   9.150
 6946POPC   GL134141  39.272   2.017   8.850
 6946POPC   GL234142  39.152   2.079   8.850
 6946POPC   C1A34143  39.184   2.007   8.550
 6946POPC   D2A34144  39.199   1.948   8.250
 6946POPC   C3A34145  39.244   1.948   7.950
 6946POPC   C4A34146  39.221   1.996   7.650
 6946POPC   C1B34147  39.064   2.160   8.550
 6946POPC   C2B34148  39.101   2.176   8.250
 6946POPC   C3B34149  39.132   2.174   7.950
 6946POPC   C4B34150  39.109   2.170   7.650
 6947POPC   NC334151  24.469  15.908   9.450
 6947POPC   PO434152  24.447  15.920   9.150
 6947POPC   GL134153  24.481  15.962   8.850
 6947POPC   GL234154  24.550  16.037   8.850
 6947POPC   C1A34155  24.461  15.906   8.550
 6947POPC   D2A34156  24.516  15.979   8.250
 6947POPC   C3A34157  24.472  15.997   7.950
 6947POPC   C4A34158  24.477  15.999   7.650
 6947POPC   C1B34159  24.691  16.107   8.550
 6947POPC   C2B34160  24.669  16.089   8.250
 6947POPC   C3B34161  24.661  16.086   7.950
 6947POPC   C4B34162  24.668  16.118   7.650
 6948POPC   NC334163  35.322  43.140   9.450
 6948POPC   PO434164  35.306  43.092   9.150
 6948POPC   GL134165  35.377  43.149   8.850
 6948POPC   GL234166  35.283  42.945   8.850
 6948POPC   C1A34167  35.334  43.154   8.550
 6948POPC   D2A34168  35.368  43.155   8.250
 6948POPC   C3A34169  35.362  43.098   7.950
 6948POPC   C4A34170  35.327  43.150   7.650
 6948POPC   C1B34171  35.290  42.917   8.550
 6948POPC   C2B34172  35.230  42.911   8.250
 6948POPC   C3B34173  35.236  42.867   7.950
 6948POPC   C4B34174  35.213  42.915   7.650
 6949POPC   NC334175  27.573   8.220   9.450
 6949POPC   PO434176  27.553   8.240   9.150
 6949POPC   GL134177  27.570   8.172   8.850
 6949POPC   GL234178  27.550   8.054   8.850
 6949POPC   C1A34179  27.563   8.239   8.550
 6949POPC   D2A34180  27.640   8.185   8.250
 6949POPC   C3A34181  27.561   8.179   7.950
 6949POPC   C4A34182  27.566   8.197   7.650
 6949POPC   C1B34183  27.496   7.966   8.550
 6949POPC   C2B34184  27.503   7.941   8.250
 6949POPC   C3B34185  27.484   7.934   7.950
 6949POPC   C4B34186  27.514   7.984   7.650
 6950POPC   NC334187  32.205  32.212   9.450
 6950POPC   PO434188  32.251  32.252   9.150
 6950POPC   GL134189  32.234  32.292   8.850
 6950POPC   GL234190  32.171  32.245   8.850
 6950POPC   C1A34191  32.294  32.274   8.550
 6950POPC   D2A34192  32.284  32.201   8.250
 6950POPC   C3A34193  32.231  32.287   7.950
 6950POPC   C4A34194  32.277  32.292   7.650
 6950POPC   C1B34195  32.058  32.286   8.550
 6950POPC   C2B34196  32.035  32.372   8.250
 6950POPC   C3B34197  32.007  32.357   7.950
 6950POPC   C4B34198  31.971  32.338   7.650
 6951POPC   NC334199  15.923  43.921   9.450
 6951POPC   PO434200  15.921  43.885   9.150
 6951POPC   GL134201  15.963  43.853   8.850
 6951POPC   GL234202  15.920  44.017   8.850
 6951POPC   C1A34203  15.963  43.912   8.550
 6951POPC   D2A34204  15.962  43.902   8.250
 6951POPC   C3A34205  15.962  43.923   7.950
 6951POPC   C4A34206  15.980  43.875   7.650
 6951POPC   C1B34207  15.873  44.170   8.550
 6951POPC   C2B34208  15.854  44.178   8.250
 6951POPC   C3B34209  15.865  44.115   7.950
 6951POPC   C4B34210  15.895  44.130   7.650
 6952POPC   NC334211  20.585  12.068   9.450
 6952POPC   PO434212  20.637  12.105   9.150
 6952POPC   GL134213  20.592  12.057   8.850
 6952POPC   GL234214  20.617  12.249   8.850
 6952POPC   C1A34215  20.585  12.097   8.550
 6952POPC   D2A34216  20.659  12.030   8.250
 6952POPC   C3A34217  20.629  12.117   7.950
 6952POPC   C4A34218  20.625  12.125   7.650
 6952POPC   C1B34219  20.540  12.331   8.550
 6952POPC   C2B34220  20.570  12.294   8.250
 6952POPC   C3B34221  20.622  12.356   7.950
 6952POPC   C4B34222  20.580  12.304   7.650
 6953POPC   NC334223   8.211  16.765   9.450
 6953POPC   PO434224   8.190  16.749   9.150
 6953POPC   GL134225   8.239  16.757   8.850
 6953POPC   GL234226   8.155  16.888   8.850
 6953POPC   C1A34227   8.153  16.719   8.550
 6953POPC   D2A34228   8.190  16.684   8.250
 6953POPC   C3A34229   8.220  16.780   7.950
 6953POPC   C4A34230   8.169  16.702   7.650
 6953POPC   C1B34231   8.147  16.991   8.550
 6953POPC   C2B34232   8.076  16.993   8.250
 6953POPC   C3B34233   8.160  16.995   7.950
 6953POPC   C4B34234   8.075  16.966   7.650
 6954POPC   NC334235  11.259  22.206   9.450
 6954POPC   PO434236  11.256  22.181   9.150
 6954POPC   GL134237  11.311  22.159   8.850
 6954POPC   GL234238  11.473  22.139   8.850
 6954POPC   C1A34239  11.340  22.167   8.550
 6954POPC   D2A34240  11.297  22.193   8.250
 6954POPC   C3A34241  11.297  22.179   7.950
 6954POPC   C4A34242  11.319  22.132   7.650
 6954POPC   C1B34243  11.577  22.100   8.550
 6954POPC   C2B34244  11.586  22.178   8.250
 6954POPC   C3B34245  11.541  22.145   7.950
 6954POPC   C4B34246  11.543  22.116   7.650
 6955POPC   NC334247  34.609  22.170   9.450
 6955POPC   PO434248  34.616  22.133   9.150
 6955POPC   GL134249  34.559  22.158   8.850
 6955POPC   GL234250  34.540  22.010   8.850
 6955POPC   C1A34251  34.558  22.194   8.550
 6955POPC   D2A34252  34.594  22.125   8.250
 6955POPC   C3A34253  34.598  22.139   7.950
 6955POPC   C4A34254  34.568  22.150   7.650
 6955POPC   C1B34255  34.538  21.941   8.550
 6955POPC   C2B34256  34.603  21.929   8.250
 6955POPC   C3B34257  34.569  21.893   7.950
 6955POPC   C4B34258  34.563  21.923   7.650
 6956POPC   NC334259   8.203  36.095   9.450
 6956POPC   PO434260   8.193  36.134   9.150
 6956POPC   GL134261   8.241  36.168   8.850
 6956POPC   GL234262   8.324  36.023   8.850
 6956POPC   C1A34263   8.201  36.177   8.550
 6956POPC   D2A34264   8.185  36.087   8.250
 6956POPC   C3A34265   8.162  36.158   7.950
 6956POPC   C4A34266   8.211  36.125   7.650
 6956POPC   C1B34267   8.451  35.996   8.550
 6956POPC   C2B34268   8.361  36.009   8.250
 6956POPC   C3B34269   8.415  35.984   7.950
 6956POPC   C4B34270   8.391  36.000   7.650
 6957POPC   NC334271   1.940  24.457   9.450
 6957POPC   PO434272   1.997  24.538   9.150
 6957POPC   GL134273   1.965  24.498   8.850
 6957POPC   GL234274   1.973  24.373   8.850
 6957POPC   C1A34275   2.017  24.459   8.550
 6957POPC   D2A34276   2.028  24.484   8.250
 6957POPC   C3A34277   2.019  24.468   7.950
 6957POPC   C4A34278   1.966  24.461   7.650
 6957POPC   C1B34279   1.865  24.275   8.550
 6957POPC   C2B34280   1.907  24.246   8.250
 6957POPC   C3B34281   1.844  24.260   7.950
 6957POPC   C4B34282   1.831  24.222   7.650
 6958POPC   NC334283  12.871  40.778   9.450
 6958POPC   PO434284  12.810  40.765   9.150
 6958POPC   GL134285  12.808  40.824   8.850
 6958POPC   GL234286  12.956  40.737   8.850
 6958POPC   C1A34287  12.824  40.770   8.550
 6958POPC   D2A34288  12.874  40.762   8.250
 6958POPC   C3A34289  12.855  40.800   7.950
 6958POPC   C4A34290  12.850  40.756   7.650
 6958POPC   C1B34291  13.116  40.670   8.550
 6958POPC   C2B34292  13.066  40.646   8.250
 6958POPC   C3B34293  13.107  40.723   7.950
 6958POPC   C4B34294  13.114  40.718   7.650
 6959POPC   NC334295  27.600   6.676   9.450
 6959POPC   PO434296  27.610   6.626   9.150
 6959POPC   GL134297  27.579   6.624   8.850
 6959POPC   GL234298  27.670   6.648   8.850
 6959POPC   C1A34299  27.575   6.606   8.550
 6959POPC   D2A34300  27.635   6.615   8.250
 6959POPC   C3A34301  27.603   6.616   7.950
 6959POPC   C4A34302  27.587   6.646   7.650
 6959POPC   C1B34303  27.820   6.556   8.550
 6959POPC   C2B34304  27.828   6.586   8.250
 6959POPC   C3B34305  27.820   6.556   7.950
 6959POPC   C4B34306  27.839   6.624   7.650
 6960POPC   NC334307  13.599  10.507   9.450
 6960POPC   PO434308  13.607  10.506   9.150
 6960POPC   GL134309  13.588  10.555   8.850
 6960POPC   GL234310  13.697  10.482   8.850
 6960POPC   C1A34311  13.671  10.514   8.550
 6960POPC   D2A34312  13.580  10.491   8.250
 6960POPC   C3A34313  13.675  10.568   7.950
 6960POPC   C4A34314  13.650  10.518   7.650
 6960POPC   C1B34315  13.828  10.412   8.550
 6960POPC   C2B34316  13.865  10.375   8.250
 6960POPC   C3B34317  13.852  10.386   7.950
 6960POPC   C4B34318  13.846  10.403   7.650
 6961POPC   NC334319   5.126  39.974   9.450
 6961POPC   PO434320   5.086  39.975   9.150
 6961POPC   GL134321   5.143  40.011   8.850
 6961POPC   GL234322   4.965  39.973   8.850
 6961POPC   C1A34323   5.135  39.984   8.550
 6961POPC   D2A34324   5.137  39.964   8.250
 6961POPC   C3A34325   5.138  39.989   7.950
 6961POPC   C4A34326   5.137  40.040   7.650
 6961POPC   C1B34327   4.869  39.908   8.550
 6961POPC   C2B34328   4.853  39.921   8.250
 6961POPC   C3B34329   4.883  39.916   7.950
 6961POPC   C4B34330   4.884  39.945   7.650
 6962POPC   NC334331  13.660  36.883   9.450
 6962POPC   PO434332  13.673  36.939   9.150
 6962POPC   GL134333  13.674  36.925   8.850
 6962POPC   GL234334  13.734  36.799   8.850
 6962POPC   C1A34335  13.593  36.900   8.550
 6962POPC   D2A34336  13.656  36.858   8.250
 6962POPC   C3A34337  13.674  36.913   7.950
 6962POPC   C4A34338  13.609  36.858   7.650
 6962POPC   C1B34339  13.787  36.729   8.550
 6962POPC   C2B34340  13.833  36.793   8.250
 6962POPC   C3B34341  13.843  36.733   7.950
 6962POPC   C4B34342  13.820  36.804   7.650
 6963POPC   NC334343   8.923   8.928   9.450
 6963POPC   PO434344   8.979   8.950   9.150
 6963POPC   GL134345   8.972   8.999   8.850
 6963POPC   GL234346   8.834   8.912   8.850
 6963POPC   C1A34347   9.008   8.950   8.550
 6963POPC   D2A34348   8.936   8.957   8.250
 6963POPC   C3A34349   8.958   8.947   7.950
 6963POPC   C4A34350   8.989   8.939   7.650
 6963POPC   C1B34351   8.797   8.848   8.550
 6963POPC   C2B34352   8.730   8.877   8.250
 6963POPC   C3B34353   8.742   8.891   7.950
 6963POPC   C4B34354   8.707   8.898   7.650
 6964POPC   NC334355  35.332  39.183   9.450
 6964POPC   PO434356  35.324  39.278   9.150
 6964POPC   GL134357  35.357  39.227   8.850
 6964POPC   GL234358  35.216  39.311   8.850
 6964POPC   C1A34359  35.379  39.269   8.550
 6964POPC   D2A34360  35.306  39.231   8.250
 6964POPC   C3A34361  35.364  39.281   7.950
 6964POPC   C4A34362  35.397  39.250   7.650
 6964POPC   C1B34363  35.066  39.280   8.550
 6964POPC   C2B34364  35.105  39.314   8.250
 6964POPC   C3B34365  35.100  39.325   7.950
 6964POPC   C4B34366  35.090  39.295   7.650
 6965POPC   NC334367  36.861  22.144   9.450
 6965POPC   PO434368  36.937  22.167   9.150
 6965POPC   GL134369  36.917  22.192   8.850
 6965POPC   GL234370  36.780  22.231   8.850
 6965POPC   C1A34371  36.912  22.197   8.550
 6965POPC   D2A34372  36.858  22.124   8.250
 6965POPC   C3A34373  36.927  22.149   7.950
 6965POPC   C4A34374  36.899  22.117   7.650
 6965POPC   C1B34375  36.793  22.358   8.550
 6965POPC   C2B34376  36.736  22.325   8.250
 6965POPC   C3B34377  36.728  22.341   7.950
 6965POPC   C4B34378  36.753  22.398   7.650
 6966POPC   NC334379  11.341   8.211   9.450
 6966POPC   PO434380  11.254   8.226   9.150
 6966POPC   GL134381  11.297   8.245   8.850
 6966POPC   GL234382  11.226   8.152   8.850
 6966POPC   C1A34383  11.313   8.246   8.550
 6966POPC   D2A34384  11.337   8.195   8.250
 6966POPC   C3A34385  11.307   8.174   7.950
 6966POPC   C4A34386  11.306   8.210   7.650
 6966POPC   C1B34387  11.092   8.087   8.550
 6966POPC   C2B34388  11.093   8.044   8.250
 6966POPC   C3B34389  11.067   8.030   7.950
 6966POPC   C4B34390  11.069   8.043   7.650
 6967POPC   NC334391  40.789  15.202   9.450
 6967POPC   PO434392  40.818  15.209   9.150
 6967POPC   GL134393  40.808  15.206   8.850
 6967POPC   GL234394  40.707  15.302   8.850
 6967POPC   C1A34395  40.814  15.221   8.550
 6967POPC   D2A34396  40.745  15.148   8.250
 6967POPC   C3A34397  40.831  15.168   7.950
 6967POPC   C4A34398  40.823  15.167   7.650
 6967POPC   C1B34399  40.651  15.355   8.550
 6967POPC   C2B34400  40.669  15.345   8.250
 6967POPC   C3B34401  40.648  15.426   7.950
 6967POPC   C4B34402  40.609  15.438   7.650
 6968POPC   NC334403  43.146   4.307   9.450
 6968POPC   PO434404  43.109   4.278   9.150
 6968POPC   GL134405  43.103   4.333   8.850
 6968POPC   GL234406  43.205   4.342   8.850
 6968POPC   C1A34407  43.108   4.289   8.550
 6968POPC   D2A34408  43.124   4.336   8.250
 6968POPC   C3A34409  43.089   4.280   7.950
 6968POPC   C4A34410  43.148   4.330   7.650
 6968POPC   C1B34411  43.401   4.272   8.550
 6968POPC   C2B34412  43.379   4.237   8.250
 6968POPC   C3B34413  43.339   4.297   7.950
 6968POPC   C4B34414  43.358   4.292   7.650
 6969POPC   NC334415  32.998  27.550   9.450
 6969POPC   PO434416  32.989  27.596   9.150
 6969POPC   GL134417  32.990  27.630   8.850
 6969POPC   GL234418  33.183  27.655   8.850
 6969POPC   C1A34419  33.005  27.575   8.550
 6969POPC   D2A34420  33.006  27.568   8.250
 6969POPC   C3A34421  33.046  27.605   7.950
 6969POPC   C4A34422  32.986  27.637   7.650
 6969POPC   C1B34423  33.226  27.688   8.550
 6969POPC   C2B34424  33.258  27.685   8.250
 6969POPC   C3B34425  33.282  27.689   7.950
 6969POPC   C4B34426  33.228  27.723   7.650
 6970POPC   NC334427  40.829  31.484   9.450
 6970POPC   PO434428  40.761  31.477   9.150
 6970POPC   GL134429  40.780  31.460   8.850
 6970POPC   GL234430  40.659  31.417   8.850
 6970POPC   C1A34431  40.768  31.454   8.550
 6970POPC   D2A34432  40.737  31.489   8.250
 6970POPC   C3A34433  40.794  31.512   7.950
 6970POPC   C4A34434  40.777  31.429   7.650
 6970POPC   C1B34435  40.622  31.366   8.550
 6970POPC   C2B34436  40.588  31.334   8.250
 6970POPC   C3B34437  40.589  31.344   7.950
 6970POPC   C4B34438  40.538  31.381   7.650
 6971POPC   NC334439  31.514  30.720   9.450
 6971POPC   PO434440  31.489  30.727   9.150
 6971POPC   GL134441  31.513  30.695   8.850
 6971POPC   GL234442  31.387  30.634   8.850
 6971POPC   C1A34443  31.449  30.733   8.550
 6971POPC   D2A34444  31.469  30.737   8.250
 6971POPC   C3A34445  31.489  30.682   7.950
 6971POPC   C4A34446  31.508  30.711   7.650
 6971POPC   C1B34447  31.323  30.536   8.550
 6971POPC   C2B34448  31.319  30.593   8.250
 6971POPC   C3B34449  31.243  30.538   7.950
 6971POPC   C4B34450  31.254  30.563   7.650
 6972POPC   NC334451  15.199   1.973   9.450
 6972POPC   PO434452  15.184   1.968   9.150
 6972POPC   GL134453  15.172   1.950   8.850
 6972POPC   GL234454  15.181   2.133   8.850
 6972POPC   C1A34455  15.137   1.970   8.550
 6972POPC   D2A34456  15.194   2.022   8.250
 6972POPC   C3A34457  15.208   1.970   7.950
 6972POPC   C4A34458  15.167   1.984   7.650
 6972POPC   C1B34459  15.176   2.255   8.550
 6972POPC   C2B34460  15.109   2.287   8.250
 6972POPC   C3B34461  15.130   2.229   7.950
 6972POPC   C4B34462  15.170   2.226   7.650
 6973POPC   NC334463  28.381  33.838   9.450
 6973POPC   PO434464  28.346  33.762   9.150
 6973POPC   GL134465  28.406  33.810   8.850
 6973POPC   GL234466  28.222  33.846   8.850
 6973POPC   C1A34467  28.379  33.831   8.550
 6973POPC   D2A34468  28.331  33.842   8.250
 6973POPC   C3A34469  28.348  33.750   7.950
 6973POPC   C4A34470  28.338  33.780   7.650
 6973POPC   C1B34471  28.115  33.781   8.550
 6973POPC   C2B34472  28.132  33.781   8.250
 6973POPC   C3B34473  28.076  33.828   7.950
 6973POPC   C4B34474  28.105  33.776   7.650
 6974POPC   NC334475  16.723  35.364   9.450
 6974POPC   PO434476  16.741  35.362   9.150
 6974POPC   GL134477  16.777  35.360   8.850
 6974POPC   GL234478  16.698  35.462   8.850
 6974POPC   C1A34479  16.754  35.370   8.550
 6974POPC   D2A34480  16.747  35.319   8.250
 6974POPC   C3A34481  16.749  35.335   7.950
 6974POPC   C4A34482  16.715  35.349   7.650
 6974POPC   C1B34483  16.602  35.559   8.550
 6974POPC   C2B34484  16.597  35.547   8.250
 6974POPC   C3B34485  16.579  35.593   7.950
 6974POPC   C4B34486  16.596  35.608   7.650
 6975POPC   NC334487  25.236  30.726   9.450
 6975POPC   PO434488  25.283  30.743   9.150
 6975POPC   GL134489  25.301  30.680   8.850
 6975POPC   GL234490  25.351  30.746   8.850
 6975POPC   C1A34491  25.246  30.657   8.550
 6975POPC   D2A34492  25.242  30.691   8.250
 6975POPC   C3A34493  25.269  30.737   7.950
 6975POPC   C4A34494  25.223  30.663   7.650
 6975POPC   C1B34495  25.527  30.786   8.550
 6975POPC   C2B34496  25.513  30.842   8.250
 6975POPC   C3B34497  25.477  30.836   7.950
 6975POPC   C4B34498  25.459  30.827   7.650
 6976POPC   NC334499  12.052  35.364   9.450
 6976POPC   PO434500  12.052  35.343   9.150
 6976POPC   GL134501  12.033  35.331   8.850
 6976POPC   GL234502  12.042  35.255   8.850
 6976POPC   C1A34503  12.068  35.394   8.550
 6976POPC   D2A34504  12.113  35.310   8.250
 6976POPC   C3A34505  12.059  35.337   7.950
 6976POPC   C4A34506  12.095  35.346   7.650
 6976POPC   C1B34507  12.075  35.100   8.550
 6976POPC   C2B34508  12.066  35.078   8.250
 6976POPC   C3B34509  12.033  35.108   7.950
 6976POPC   C4B34510  12.066  35.129   7.650
 6977POPC   NC334511  39.188  43.918   9.450
 6977POPC   PO434512  39.190  43.848   9.150
 6977POPC   GL134513  39.280  43.876   8.850
 6977POPC   GL234514  39.096  43.918   8.850
 6977POPC   C1A34515  39.188  43.855   8.550
 6977POPC   D2A34516  39.259  43.907   8.250
 6977POPC   C3A34517  39.233  43.907   7.950
 6977POPC   C4A34518  39.256  43.863   7.650
 6977POPC   C1B34519  39.044  43.958   8.550
 6977POPC   C2B34520  38.991  43.983   8.250
 6977POPC   C3B34521  38.963  43.958   7.950
 6977POPC   C4B34522  39.013  43.983   7.650
 6978POPC   NC334523   0.426   2.797   9.450
 6978POPC   PO434524   0.412   2.746   9.150
 6978POPC   GL134525   0.436   2.793   8.850
 6978POPC   GL234526   0.543   2.727   8.850
 6978POPC   C1A34527   0.457   2.729   8.550
 6978POPC   D2A34528   0.410   2.753   8.250
 6978POPC   C3A34529   0.430   2.777   7.950
 6978POPC   C4A34530   0.416   2.775   7.650
 6978POPC   C1B34531   0.643   2.777   8.550
 6978POPC   C2B34532   0.717   2.718   8.250
 6978POPC   C3B34533   0.661   2.721   7.950
 6978POPC   C4B34534   0.692   2.714   7.650
 6979POPC   NC334535   5.056  19.854   9.450
 6979POPC   PO434536   5.052  19.810   9.150
 6979POPC   GL134537   5.059  19.804   8.850
 6979POPC   GL234538   5.156  19.777   8.850
 6979POPC   C1A34539   5.125  19.819   8.550
 6979POPC   D2A34540   5.096  19.879   8.250
 6979POPC   C3A34541   5.109  19.870   7.950
 6979POPC   C4A34542   5.054  19.873   7.650
 6979POPC   C1B34543   5.220  19.637   8.550
 6979POPC   C2B34544   5.189  19.609   8.250
 6979POPC   C3B34545   5.188  19.661   7.950
 6979POPC   C4B34546   5.242  19.674   7.650
 6980POPC   NC334547   8.961  20.599   9.450
 6980POPC   PO434548   8.989  20.594   9.150
 6980POPC   GL134549   9.019  20.600   8.850
 6980POPC   GL234550   8.890  20.586   8.850
 6980POPC   C1A34551   8.926  20.602   8.550
 6980POPC   D2A34552   8.962  20.596   8.250
 6980POPC   C3A34553   8.957  20.601   7.950
 6980POPC   C4A34554   8.959  20.593   7.650
 6980POPC   C1B34555   8.776  20.482   8.550
 6980POPC   C2B34556   8.749  20.462   8.250
 6980POPC   C3B34557   8.798  20.504   7.950
 6980POPC   C4B34558   8.778  20.480   7.650
 6981POPC   NC334559  12.810  29.131   9.450
 6981POPC   PO434560  12.888  29.170   9.150
 6981POPC   GL134561  12.864  29.107   8.850
 6981POPC   GL234562  12.921  29.237   8.850
 6981POPC   C1A34563  12.821  29.102   8.550
 6981POPC   D2A34564  12.842  29.164   8.250
 6981POPC   C3A34565  12.894  29.144   7.950
 6981POPC   C4A34566  12.839  29.194   7.650
 6981POPC   C1B34567  12.942  29.392   8.550
 6981POPC   C2B34568  12.931  29.355   8.250
 6981POPC   C3B34569  12.945  29.315   7.950
 6981POPC   C4B34570  12.987  29.389   7.650
 6982POPC   NC334571  23.735  36.134   9.450
 6982POPC   PO434572  23.701  36.154   9.150
 6982POPC   GL134573  23.680  36.118   8.850
 6982POPC   GL234574  23.856  36.059   8.850
 6982POPC   C1A34575  23.668  36.158   8.550
 6982POPC   D2A34576  23.742  36.106   8.250
 6982POPC   C3A34577  23.733  36.118   7.950
 6982POPC   C4A34578  23.754  36.129   7.650
 6982POPC   C1B34579  23.915  36.076   8.550
 6982POPC   C2B34580  23.905  36.068   8.250
 6982POPC   C3B34581  23.912  36.071   7.950
 6982POPC   C4B34582  23.984  36.094   7.650
 6983POPC   NC334583  27.556   5.904   9.450
 6983POPC   PO434584  27.630   5.843   9.150
 6983POPC   GL134585  27.560   5.864   8.850
 6983POPC   GL234586  27.452   5.877   8.850
 6983POPC   C1A34587  27.559   5.899   8.550
 6983POPC   D2A34588  27.553   5.870   8.250
 6983POPC   C3A34589  27.567   5.904   7.950
 6983POPC   C4A34590  27.582   5.861   7.650
 6983POPC   C1B34591  27.319   5.806   8.550
 6983POPC   C2B34592  27.325   5.772   8.250
 6983POPC   C3B34593  27.359   5.820   7.950
 6983POPC   C4B34594  27.394   5.782   7.650
 6984POPC   NC334595  26.038  13.654   9.450
 6984POPC   PO434596  25.998  13.670   9.150
 6984POPC   GL134597  26.054  13.650   8.850
 6984POPC   GL234598  26.029  13.532   8.850
 6984POPC   C1A34599  25.996  13.604   8.550
 6984POPC   D2A34600  26.000  13.657   8.250
 6984POPC   C3A34601  26.075  13.592   7.950
 6984POPC   C4A34602  26.039  13.648   7.650
 6984POPC   C1B34603  26.067  13.340   8.550
 6984POPC   C2B34604  26.004  13.390   8.250
 6984POPC   C3B34605  25.992  13.409   7.950
 6984POPC   C4B34606  26.086  13.338   7.650
 6985POPC   NC334607  42.288  43.874   9.450
 6985POPC   PO434608  42.317  43.843   9.150
 6985POPC   GL134609  42.295  43.912   8.850
 6985POPC   GL234610  42.185  43.971   8.850
 6985POPC   C1A34611  42.380  43.923   8.550
 6985POPC   D2A34612  42.359  43.846   8.250
 6985POPC   C3A34613  42.295  43.879   7.950
 6985POPC   C4A34614  42.340  43.845   7.650
 6985POPC   C1B34615  42.152  44.054   8.550
 6985POPC   C2B34616  42.102  43.976   8.250
 6985POPC   C3B34617  42.084  44.046   7.950
 6985POPC   C4B34618  42.145  43.969   7.650
 6986POPC   NC334619  15.973  26.843   9.450
 6986POPC   PO434620  15.958  26.865   9.150
 6986POPC   GL134621  15.936  26.792   8.850
 6986POPC   GL234622  16.109  26.757   8.850
 6986POPC   C1A34623  15.973  26.796   8.550
 6986POPC   D2A34624  15.973  26.807   8.250
 6986POPC   C3A34625  15.944  26.821   7.950
 6986POPC   C4A34626  15.967  26.856   7.650
 6986POPC   C1B34627  16.222  26.719   8.550
 6986POPC   C2B34628  16.138  26.753   8.250
 6986POPC   C3B34629  16.225  26.677   7.950
 6986POPC   C4B34630  16.172  26.665   7.650
 6987POPC   NC334631  17.468  30.648   9.450
 6987POPC   PO434632  17.549  30.707   9.150
 6987POPC   GL134633  17.556  30.743   8.850
 6987POPC   GL234634  17.382  30.698   8.850
 6987POPC   C1A34635  17.526  30.702   8.550
 6987POPC   D2A34636  17.495  30.658   8.250
 6987POPC   C3A34637  17.490  30.725   7.950
 6987POPC   C4A34638  17.511  30.729   7.650
 6987POPC   C1B34639  17.298  30.677   8.550
 6987POPC   C2B34640  17.217  30.699   8.250
 6987POPC   C3B34641  17.233  30.676   7.950
 6987POPC   C4B34642  17.291  30.669   7.650
 6988POPC   NC334643   8.208  30.667   9.450
 6988POPC   PO434644   8.224  30.674   9.150
 6988POPC   GL134645   8.176  30.686   8.850
 6988POPC   GL234646   8.186  30.796   8.850
 6988POPC   C1A34647   8.170  30.706   8.550
 6988POPC   D2A34648   8.176  30.732   8.250
 6988POPC   C3A34649   8.208  30.727   7.950
 6988POPC   C4A34650   8.203  30.718   7.650
 6988POPC   C1B34651   8.230  30.989   8.550
 6988POPC   C2B34652   8.218  30.958   8.250
 6988POPC   C3B34653   8.211  30.930   7.950
 6988POPC   C4B34654   8.274  30.940   7.650
 6989POPC   NC334655  29.169   4.326   9.450
 6989POPC   PO434656  29.116   4.311   9.150
 6989POPC   GL134657  29.192   4.341   8.850
 6989POPC   GL234658  29.025   4.430   8.850
 6989POPC   C1A34659  29.129   4.335   8.550
 6989POPC   D2A34660  29.101   4.314   8.250
 6989POPC   C3A34661  29.108   4.269   7.950
 6989POPC   C4A34662  29.105   4.280   7.650
 6989POPC   C1B34663  28.926   4.475   8.550
 6989POPC   C2B34664  28.939   4.446   8.250
 6989POPC   C3B34665  28.995   4.485   7.950
 6989POPC   C4B34666  28.978   4.506   7.650
 6990POPC   NC334667  12.862  39.248   9.450
 6990POPC   PO434668  12.815  39.267   9.150
 6990POPC   GL134669  12.828  39.281   8.850
 6990POPC   GL234670  12.729  39.300   8.850
 6990POPC   C1A34671  12.815  39.216   8.550
 6990POPC   D2A34672  12.825  39.251   8.250
 6990POPC   C3A34673  12.876  39.275   7.950
 6990POPC   C4A34674  12.864  39.216   7.650
 6990POPC   C1B34675  12.595  39.342   8.550
 6990POPC   C2B34676  12.596  39.367   8.250
 6990POPC   C3B34677  12.638  39.362   7.950
 6990POPC   C4B34678  12.575  39.366   7.650
 6991POPC   NC334679  34.615  28.408   9.450
 6991POPC   PO434680  34.564  28.342   9.150
 6991POPC   GL134681  34.556  28.382   8.850
 6991POPC   GL234682  34.468  28.503   8.850
 6991POPC   C1A34683  34.582  28.380   8.550
 6991POPC   D2A34684  34.562  28.342   8.250
 6991POPC   C3A34685  34.618  28.361   7.950
 6991POPC   C4A34686  34.605  28.333   7.650
 6991POPC   C1B34687  34.490  28.630   8.550
 6991POPC   C2B34688  34.480  28.635   8.250
 6991POPC   C3B34689  34.479  28.631   7.950
 6991POPC   C4B34690  34.449  28.551   7.650
 6992POPC   NC334691  36.111   9.722   9.450
 6992POPC   PO434692  36.094   9.794   9.150
 6992POPC   GL134693  36.122   9.733   8.850
 6992POPC   GL234694  35.967   9.784   8.850
 6992POPC   C1A34695  36.151   9.725   8.550
 6992POPC   D2A34696  36.148   9.748   8.250
 6992POPC   C3A34697  36.128   9.774   7.950
 6992POPC   C4A34698  36.113   9.797   7.650
 6992POPC   C1B34699  35.885   9.819   8.550
 6992POPC   C2B34700  35.908   9.750   8.250
 6992POPC   C3B34701  35.856   9.811   7.950
 6992POPC   C4B34702  35.850   9.787   7.650
 6993POPC   NC334703  10.525   8.994   9.450
 6993POPC   PO434704  10.535   9.011   9.150
 6993POPC   GL134705  10.528   9.001   8.850
 6993POPC   GL234706  10.536   9.114   8.850
 6993POPC   C1A34707  10.501   8.991   8.550
 6993POPC   D2A34708  10.570   9.017   8.250
 6993POPC   C3A34709  10.513   8.927   7.950
 6993POPC   C4A34710  10.523   8.975   7.650
 6993POPC   C1B34711  10.498   9.192   8.550
 6993POPC   C2B34712  10.474   9.227   8.250
 6993POPC   C3B34713  10.461   9.174   7.950
 6993POPC   C4B34714  10.505   9.228   7.650
 6994POPC   NC334715   3.589   0.479   9.450
 6994POPC   PO434716   3.529   0.425   9.150
 6994POPC   GL134717   3.541   0.413   8.850
 6994POPC   GL234718   3.487   0.571   8.850
 6994POPC   C1A34719   3.492   0.444   8.550
 6994POPC   D2A34720   3.545   0.410   8.250
 6994POPC   C3A34721   3.530   0.442   7.950
 6994POPC   C4A34722   3.503   0.482   7.650
 6994POPC   C1B34723   3.406   0.630   8.550
 6994POPC   C2B34724   3.352   0.589   8.250
 6994POPC   C3B34725   3.421   0.648   7.950
 6994POPC   C4B34726   3.369   0.663   7.650
 6995POPC   NC334727   1.980  25.247   9.450
 6995POPC   PO434728   1.940  25.262   9.150
 6995POPC   GL134729   1.981  25.313   8.850
 6995POPC   GL234730   1.839  25.179   8.850
 6995POPC   C1A34731   1.988  25.294   8.550
 6995POPC   D2A34732   1.960  25.283   8.250
 6995POPC   C3A34733   1.972  25.258   7.950
 6995POPC   C4A34734   1.963  25.267   7.650
 6995POPC   C1B34735   1.776  25.152   8.550
 6995POPC   C2B34736   1.750  25.120   8.250
 6995POPC   C3B34737   1.763  25.103   7.950
 6995POPC   C4B34738   1.742  25.145   7.650
 6996POPC   NC334739  38.477  15.161   9.450
 6996POPC   PO434740  38.487  15.208   9.150
 6996POPC   GL134741  38.500  15.157   8.850
 6996POPC   GL234742  38.361  15.056   8.850
 6996POPC   C1A34743  38.485  15.213   8.550
 6996POPC   D2A34744  38.423  15.168   8.250
 6996POPC   C3A34745  38.429  15.178   7.950
 6996POPC   C4A34746  38.487  15.138   7.650
 6996POPC   C1B34747  38.246  15.041   8.550
 6996POPC   C2B34748  38.241  15.055   8.250
 6996POPC   C3B34749  38.212  15.076   7.950
 6996POPC   C4B34750  38.279  15.018   7.650
 6997POPC   NC334751  43.065  19.014   9.450
 6997POPC   PO434752  43.150  19.012   9.150
 6997POPC   GL134753  43.072  19.075   8.850
 6997POPC   GL234754  43.012  19.137   8.850
 6997POPC   C1A34755  43.105  19.047   8.550
 6997POPC   D2A34756  43.142  19.086   8.250
 6997POPC   C3A34757  43.088  19.039   7.950
 6997POPC   C4A34758  43.072  19.083   7.650
 6997POPC   C1B34759  42.926  19.197   8.550
 6997POPC   C2B34760  42.836  19.196   8.250
 6997POPC   C3B34761  42.875  19.202   7.950
 6997POPC   C4B34762  42.917  19.115   7.650
 6998POPC   NC334763  26.045  34.565   9.450
 6998POPC   PO434764  26.001  34.583   9.150
 6998POPC   GL134765  26.078  34.572   8.850
 6998POPC   GL234766  25.947  34.643   8.850
 6998POPC   C1A34767  26.013  34.608   8.550
 6998POPC   D2A34768  26.076  34.552   8.250
 6998POPC   C3A34769  26.036  34.571   7.950
 6998POPC   C4A34770  26.036  34.591   7.650
 6998POPC   C1B34771  25.918  34.786   8.550
 6998POPC   C2B34772  25.890  34.742   8.250
 6998POPC   C3B34773  25.955  34.836   7.950
 6998POPC   C4B34774  25.886  34.783   7.650
 6999POPC   NC334775   7.378  19.068   9.450
 6999POPC   PO434776   7.467  19.032   9.150
 6999POPC   GL134777   7.390  19.050   8.850
 6999POPC   GL234778   7.294  19.052   8.850
 6999POPC   C1A34779   7.417  19.086   8.550
 6999POPC   D2A34780   7.452  19.034   8.250
 6999POPC   C3A34781   7.437  19.073   7.950
 6999POPC   C4A34782   7.410  19.036   7.650
 6999POPC   C1B34783   7.141  19.103   8.550
 6999POPC   C2B34784   7.126  19.053   8.250
 6999POPC   C3B34785   7.157  19.052   7.950
 6999POPC   C4B34786   7.187  19.069   7.650
 7000POPC   NC334787  22.143  16.747   9.450
 7000POPC   PO434788  22.189  16.762   9.150
 7000POPC   GL134789  22.176  16.719   8.850
 7000POPC   GL234790  22.257  16.818   8.850
 7000POPC   C1A34791  22.200  16.775   8.550
 7000POPC   D2A34792  22.204  16.688   8.250
 7000POPC   C3A34793  22.182  16.726   7.950
 7000POPC   C4A34794  22.181  16.722   7.650
 7000POPC   C1B34795  22.338  16.875   8.550
 7000POPC   C2B34796  22.351  16.906   8.250
 7000POPC   C3B34797  22.326  16.924   7.950
 7000POPC   C4B34798  22.365  16.874   7.650
 7001POPC   NC334799  19.827  12.858   9.450
 7001POPC   PO434800  19.840  12.821   9.150
 7001POPC   GL134801  19.820  12.805   8.850
 7001POPC   GL234802  19.930  12.724   8.850
 7001POPC   C1A34803  19.880  12.808   8.550
 7001POPC   D2A34804  19.828  12.846   8.250
 7001POPC   C3A34805  19.865  12.893   7.950
 7001POPC   C4A34806  19.857  12.858   7.650
 7001POPC   C1B34807  19.917  12.591   8.550
 7001POPC   C2B34808  19.961  12.578   8.250
 7001POPC   C3B34809  19.929  12.602   7.950
 7001POPC   C4B34810  19.903  12.628   7.650
 7002POPC   NC334811  43.113  15.986   9.450
 7002POPC   PO434812  43.124  15.976   9.150
 7002POPC   GL134813  43.133  15.922   8.850
 7002POPC   GL234814  43.164  15.792   8.850
 7002POPC   C1A34815  43.147  15.946   8.550
 7002POPC   D2A34816  43.116  15.928   8.250
 7002POPC   C3A34817  43.159  15.928   7.950
 7002POPC   C4A34818  43.070  15.909   7.650
 7002POPC   C1B34819  43.139  15.657   8.550
 7002POPC   C2B34820  43.126  15.743   8.250
 7002POPC   C3B34821  43.130  15.739   7.950
 7002POPC   C4B34822  43.163  15.701   7.650
 7003POPC   NC334823   9.705  32.213   9.450
 7003POPC   PO434824   9.778  32.295   9.150
 7003POPC   GL134825   9.731  32.254   8.850
 7003POPC   GL234826   9.851  32.229   8.850
 7003POPC   C1A34827   9.712  32.265   8.550
 7003POPC   D2A34828   9.767  32.208   8.250
 7003POPC   C3A34829   9.788  32.273   7.950
 7003POPC   C4A34830   9.725  32.214   7.650
 7003POPC   C1B34831  10.025  32.186   8.550
 7003POPC   C2B34832   9.956  32.243   8.250
 7003POPC   C3B34833   9.992  32.254   7.950
 7003POPC   C4B34834   9.976  32.232   7.650
 7004POPC   NC334835  42.290  19.868   9.450
 7004POPC   PO434836  42.365  19.797   9.150
 7004POPC   GL134837  42.294  19.806   8.850
 7004POPC   GL234838  42.207  19.872   8.850
 7004POPC   C1A34839  42.318  19.812   8.550
 7004POPC   D2A34840  42.363  19.851   8.250
 7004POPC   C3A34841  42.287  19.809   7.950
 7004POPC   C4A34842  42.367  19.816   7.650
 7004POPC   C1B34843  42.177  20.021   8.550
 7004POPC   C2B34844  42.179  19.971   8.250
 7004POPC   C3B34845  42.136  19.971   7.950
 7004POPC   C4B34846  42.148  20.042   7.650
 7005POPC   NC334847  26.775  36.873   9.450
 7005POPC   PO434848  26.808  36.925   9.150
 7005POPC   GL134849  26.862  36.856   8.850
 7005POPC   GL234850  26.690  37.040   8.850
 7005POPC   C1A34851  26.801  36.861   8.550
 7005POPC   D2A34852  26.777  36.898   8.250
 7005POPC   C3A34853  26.864  36.914   7.950
 7005POPC   C4A34854  26.824  36.875   7.650
 7005POPC   C1B34855  26.678  37.114   8.550
 7005POPC   C2B34856  26.627  37.065   8.250
 7005POPC   C3B34857  26.691  37.055   7.950
 7005POPC   C4B34858  26.655  37.119   7.650
 7006POPC   NC334859   3.509  20.609   9.450
 7006POPC   PO434860   3.581  20.635   9.150
 7006POPC   GL134861   3.500  20.609   8.850
 7006POPC   GL234862   3.463  20.646   8.850
 7006POPC   C1A34863   3.540  20.659   8.550
 7006POPC   D2A34864   3.569  20.638   8.250
 7006POPC   C3A34865   3.507  20.592   7.950
 7006POPC   C4A34866   3.505  20.612   7.650
 7006POPC   C1B34867   3.336  20.689   8.550
 7006POPC   C2B34868   3.365  20.702   8.250
 7006POPC   C3B34869   3.294  20.731   7.950
 7006POPC   C4B34870   3.359  20.719   7.650
 7007POPC   NC334871  36.119  34.608   9.450
 7007POPC   PO434872  36.146  34.571   9.150
 7007POPC   GL134873  36.122  34.541   8.850
 7007POPC   GL234874  36.256  34.567   8.850
 7007POPC   C1A34875  36.113  34.576   8.550
 7007POPC   D2A34876  36.087  34.599   8.250
 7007POPC   C3A34877  36.154  34.540   7.950
 7007POPC   C4A34878  36.119  34.622   7.650
 7007POPC   C1B34879  36.386  34.465   8.550
 7007POPC   C2B34880  36.395  34.445   8.250
 7007POPC   C3B34881  36.321  34.510   7.950
 7007POPC   C4B34882  36.319  34.415   7.650
 7008POPC   NC334883   7.408  39.200   9.450
 7008POPC   PO434884   7.446  39.277   9.150
 7008POPC   GL134885   7.431  39.194   8.850
 7008POPC   GL234886   7.457  39.116   8.850
 7008POPC   C1A34887   7.400  39.265   8.550
 7008POPC   D2A34888   7.469  39.219   8.250
 7008POPC   C3A34889   7.426  39.253   7.950
 7008POPC   C4A34890   7.371  39.221   7.650
 7008POPC   C1B34891   7.407  38.940   8.550
 7008POPC   C2B34892   7.404  38.969   8.250
 7008POPC   C3B34893   7.419  38.988   7.950
 7008POPC   C4B34894   7.475  38.953   7.650
 7009POPC   NC334895  29.877  13.623   9.450
 7009POPC   PO434896  29.943  13.645   9.150
 7009POPC   GL134897  29.966  13.654   8.850
 7009POPC   GL234898  29.979  13.737   8.850
 7009POPC   C1A34899  29.904  13.629   8.550
 7009POPC   D2A34900  29.932  13.606   8.250
 7009POPC   C3A34901  29.955  13.600   7.950
 7009POPC   C4A34902  29.880  13.644   7.650
 7009POPC   C1B34903  30.081  13.776   8.550
 7009POPC   C2B34904  30.115  13.762   8.250
 7009POPC   C3B34905  30.070  13.796   7.950
 7009POPC   C4B34906  30.089  13.819   7.650
 7010POPC   NC334907   3.561  41.550   9.450
 7010POPC   PO434908   3.494  41.567   9.150
 7010POPC   GL134909   3.586  41.581   8.850
 7010POPC   GL234910   3.416  41.635   8.850
 7010POPC   C1A34911   3.520  41.560   8.550
 7010POPC   D2A34912   3.590  41.590   8.250
 7010POPC   C3A34913   3.560  41.565   7.950
 7010POPC   C4A34914   3.501  41.519   7.650
 7010POPC   C1B34915   3.341  41.614   8.550
 7010POPC   C2B34916   3.356  41.665   8.250
 7010POPC   C3B34917   3.280  41.629   7.950
 7010POPC   C4B34918   3.326  41.608   7.650
 7011POPC   NC334919  36.178   6.671   9.450
 7011POPC   PO434920  36.085   6.621   9.150
 7011POPC   GL134921  36.095   6.651   8.850
 7011POPC   GL234922  36.168   6.793   8.850
 7011POPC   C1A34923  36.125   6.690   8.550
 7011POPC   D2A34924  36.150   6.688   8.250
 7011POPC   C3A34925  36.107   6.636   7.950
 7011POPC   C4A34926  36.162   6.675   7.650
 7011POPC   C1B34927  36.219   6.889   8.550
 7011POPC   C2B34928  36.163   6.931   8.250
 7011POPC   C3B34929  36.188   6.931   7.950
 7011POPC   C4B34930  36.173   6.921   7.650
 7012POPC   NC334931  13.613   1.181   9.450
 7012POPC   PO434932  13.584   1.212   9.150
 7012POPC   GL134933  13.584   1.221   8.850
 7012POPC   GL234934  13.694   1.382   8.850
 7012POPC   C1A34935  13.657   1.214   8.550
 7012POPC   D2A34936  13.600   1.241   8.250
 7012POPC   C3A34937  13.589   1.166   7.950
 7012POPC   C4A34938  13.642   1.169   7.650
 7012POPC   C1B34939  13.739   1.461   8.550
 7012POPC   C2B34940  13.674   1.458   8.250
 7012POPC   C3B34941  13.743   1.499   7.950
 7012POPC   C4B34942  13.652   1.450   7.650
 7013POPC   NC334943  31.477  18.326   9.450
 7013POPC   PO434944  31.466  18.278   9.150
 7013POPC   GL134945  31.522  18.290   8.850
 7013POPC   GL234946  31.378  18.405   8.850
 7013POPC   C1A34947  31.519  18.319   8.550
 7013POPC   D2A34948  31.479  18.316   8.250
 7013POPC   C3A34949  31.471  18.293   7.950
 7013POPC   C4A34950  31.456  18.310   7.650
 7013POPC   C1B34951  31.420  18.556   8.550
 7013POPC   C2B34952  31.359  18.543   8.250
 7013POPC   C3B34953  31.384  18.491   7.950
 7013POPC   C4B34954  31.386  18.548   7.650
 7014POPC   NC334955  43.115  19.866   9.450
 7014POPC   PO434956  43.069  19.864   9.150
 7014POPC   GL134957  43.153  19.828   8.850
 7014POPC   GL234958  43.059  19.900   8.850
 7014POPC   C1A34959  43.141  19.874   8.550
 7014POPC   D2A34960  43.129  19.812   8.250
 7014POPC   C3A34961  43.127  19.792   7.950
 7014POPC   C4A34962  43.068  19.820   7.650
 7014POPC   C1B34963  43.004  20.048   8.550
 7014POPC   C2B34964  43.046  20.094   8.250
 7014POPC   C3B34965  43.032  20.101   7.950
 7014POPC   C4B34966  43.054  20.025   7.650
 7015POPC   NC334967  31.481   5.848   9.450
 7015POPC   PO434968  31.473   5.897   9.150
 7015POPC   GL134969  31.494   5.882   8.850
 7015POPC   GL234970  31.537   6.029   8.850
 7015POPC   C1A34971  31.506   5.860   8.550
 7015POPC   D2A34972  31.503   5.891   8.250
 7015POPC   C3A34973  31.442   5.888   7.950
 7015POPC   C4A34974  31.502   5.865   7.650
 7015POPC   C1B34975  31.591   6.144   8.550
 7015POPC   C2B34976  31.609   6.066   8.250
 7015POPC   C3B34977  31.581   6.072   7.950
 7015POPC   C4B34978  31.534   6.056   7.650
 7016POPC   NC334979   5.837  16.749   9.450
 7016POPC   PO434980   5.883  16.710   9.150
 7016POPC   GL134981   5.899  16.693   8.850
 7016POPC   GL234982   5.849  16.899   8.850
 7016POPC   C1A34983   5.881  16.774   8.550
 7016POPC   D2A34984   5.847  16.700   8.250
 7016POPC   C3A34985   5.827  16.717   7.950
 7016POPC   C4A34986   5.892  16.758   7.650
 7016POPC   C1B34987   5.811  17.011   8.550
 7016POPC   C2B34988   5.832  16.970   8.250
 7016POPC   C3B34989   5.775  17.005   7.950
 7016POPC   C4B34990   5.803  16.977   7.650
 7017POPC   NC334991   2.801  43.852   9.450
 7017POPC   PO434992   2.759  43.916   9.150
 7017POPC   GL134993   2.758  43.880   8.850
 7017POPC   GL234994   2.632  43.886   8.850
 7017POPC   C1A34995   2.783  43.930   8.550
 7017POPC   D2A34996   2.719  43.884   8.250
 7017POPC   C3A34997   2.783  43.864   7.950
 7017POPC   C4A34998   2.737  43.875   7.650
 7017POPC   C1B34999   2.501  43.839   8.550
 7017POPC   C2B35000   2.564  43.863   8.250
 7017POPC   C3B35001   2.558  43.780   7.950
 7017POPC   C4B35002   2.516  43.824   7.650
 7018POPC   NC335003  34.604   6.603   9.450
 7018POPC   PO435004  34.609   6.686   9.150
 7018POPC   GL135005  34.588   6.686   8.850
 7018POPC   GL235006  34.652   6.745   8.850
 7018POPC   C1A35007  34.619   6.658   8.550
 7018POPC   D2A35008  34.558   6.649   8.250
 7018POPC   C3A35009  34.530   6.611   7.950
 7018POPC   C4A35010  34.622   6.607   7.650
 7018POPC   C1B35011  34.791   6.719   8.550
 7018POPC   C2B35012  34.825   6.708   8.250
 7018POPC   C3B35013  34.836   6.710   7.950
 7018POPC   C4B35014  34.839   6.719   7.650
 7019POPC   NC335015  16.749   9.729   9.450
 7019POPC   PO435016  16.693   9.736   9.150
 7019POPC   GL135017  16.698   9.757   8.850
 7019POPC   GL235018  16.622   9.780   8.850
 7019POPC   C1A35019  16.753   9.750   8.550
 7019POPC   D2A35020  16.764   9.790   8.250
 7019POPC   C3A35021  16.706   9.769   7.950
 7019POPC   C4A35022  16.757   9.779   7.650
 7019POPC   C1B35023  16.441   9.836   8.550
 7019POPC   C2B35024  16.469   9.783   8.250
 7019POPC   C3B35025  16.495   9.838   7.950
 7019POPC   C4B35026  16.479   9.774   7.650
 7020POPC   NC335027  26.012  22.125   9.450
 7020POPC   PO435028  26.004  22.144   9.150
 7020POPC   GL135029  26.033  22.169   8.850
 7020POPC   GL235030  26.141  22.070   8.850
 7020POPC   C1A35031  26.000  22.129   8.550
 7020POPC   D2A35032  26.042  22.188   8.250
 7020POPC   C3A35033  26.090  22.120   7.950
 7020POPC   C4A35034  25.995  22.116   7.650
 7020POPC   C1B35035  26.208  21.999   8.550
 7020POPC   C2B35036  26.209  21.979   8.250
 7020POPC   C3B35037  26.231  22.046   7.950
 7020POPC   C4B35038  26.208  22.014   7.650
 7021POPC   NC335039  28.337   8.237   9.450
 7021POPC   PO435040  28.410   8.238   9.150
 7021POPC   GL135041  28.333   8.203   8.850
 7021POPC   GL235042  28.410   8.330   8.850
 7021POPC   C1A35043  28.351   8.199   8.550
 7021POPC   D2A35044  28.337   8.232   8.250
 7021POPC   C3A35045  28.404   8.167   7.950
 7021POPC   C4A35046  28.370   8.220   7.650
 7021POPC   C1B35047  28.454   8.432   8.550
 7021POPC   C2B35048  28.427   8.482   8.250
 7021POPC   C3B35049  28.426   8.422   7.950
 7021POPC   C4B35050  28.419   8.394   7.650
 7022POPC   NC335051  20.567  11.288   9.450
 7022POPC   PO435052  20.655  11.324   9.150
 7022POPC   GL135053  20.587  11.321   8.850
 7022POPC   GL235054  20.694  11.257   8.850
 7022POPC   C1A35055  20.643  11.253   8.550
 7022POPC   D2A35056  20.570  11.312   8.250
 7022POPC   C3A35057  20.607  11.304   7.950
 7022POPC   C4A35058  20.564  11.282   7.650
 7022POPC   C1B35059  20.823  11.269   8.550
 7022POPC   C2B35060  20.863  11.228   8.250
 7022POPC   C3B35061  20.821  11.219   7.950
 7022POPC   C4B35062  20.842  11.195   7.650
 7023POPC   NC335063  35.315  30.672   9.450
 7023POPC   PO435064  35.313  30.717   9.150
 7023POPC   GL135065  35.309  30.691   8.850
 7023POPC   GL235066  35.411  30.615   8.850
 7023POPC   C1A35067  35.386  30.731   8.550
 7023POPC   D2A35068  35.364  30.713   8.250
 7023POPC   C3A35069  35.380  30.706   7.950
 7023POPC   C4A35070  35.366  30.738   7.650
 7023POPC   C1B35071  35.404  30.432   8.550
 7023POPC   C2B35072  35.416  30.442   8.250
 7023POPC   C3B35073  35.404  30.495   7.950
 7023POPC   C4B35074  35.431  30.463   7.650
 7024POPC   NC335075  36.930  22.889   9.450
 7024POPC   PO435076  36.866  22.952   9.150
 7024POPC   GL135077  36.902  22.946   8.850
 7024POPC   GL235078  37.029  22.989   8.850
 7024POPC   C1A35079  36.925  22.977   8.550
 7024POPC   D2A35080  36.877  22.961   8.250
 7024POPC   C3A35081  36.921  22.925   7.950
 7024POPC   C4A35082  36.884  22.973   7.650
 7024POPC   C1B35083  37.142  23.081   8.550
 7024POPC   C2B35084  37.164  23.046   8.250
 7024POPC   C3B35085  37.129  23.026   7.950
 7024POPC   C4B35086  37.149  23.032   7.650
 7025POPC   NC335087  33.761   2.013   9.450
 7025POPC   PO435088  33.766   2.012   9.150
 7025POPC   GL135089  33.848   2.009   8.850
 7025POPC   GL235090  33.882   1.928   8.850
 7025POPC   C1A35091  33.754   2.005   8.550
 7025POPC   D2A35092  33.822   1.949   8.250
 7025POPC   C3A35093  33.777   1.949   7.950
 7025POPC   C4A35094  33.764   2.027   7.650
 7025POPC   C1B35095  34.014   1.835   8.550
 7025POPC   C2B35096  33.981   1.798   8.250
 7025POPC   C3B35097  34.033   1.821   7.950
 7025POPC   C4B35098  34.036   1.816   7.650
 7026POPC   NC335099  26.054  18.258   9.450
 7026POPC   PO435100  26.075  18.310   9.150
 7026POPC   GL135101  26.016  18.271   8.850
 7026POPC   GL235102  25.966  18.169   8.850
 7026POPC   C1A35103  26.047  18.305   8.550
 7026POPC   D2A35104  26.053  18.313   8.250
 7026POPC   C3A35105  26.016  18.288   7.950
 7026POPC   C4A35106  26.009  18.289   7.650
 7026POPC   C1B35107  25.830  18.164   8.550
 7026POPC   C2B35108  25.790  18.150   8.250
 7026POPC   C3B35109  25.848  18.143   7.950
 7026POPC   C4B35110  25.791  18.102   7.650
 7027POPC   NC335111  12.084  26.075   9.450
 7027POPC   PO435112  12.041  26.010   9.150
 7027POPC   GL135113  12.095  26.077   8.850
 7027POPC   GL235114  11.952  26.074   8.850
 7027POPC   C1A35115  12.071  26.070   8.550
 7027POPC   D2A35116  12.114  26.059   8.250
 7027POPC   C3A35117  12.093  26.040   7.950
 7027POPC   C4A35118  12.125  26.016   7.650
 7027POPC   C1B35119  11.805  26.011   8.550
 7027POPC   C2B35120  11.859  26.009   8.250
 7027POPC   C3B35121  11.779  25.980   7.950
 7027POPC   C4B35122  11.804  26.040   7.650
 7028POPC   NC335123  27.577  20.652   9.450
 7028POPC   PO435124  27.617  20.568   9.150
 7028POPC   GL135125  27.626  20.594   8.850
 7028POPC   GL235126  27.764  20.553   8.850
 7028POPC   C1A35127  27.623  20.576   8.550
 7028POPC   D2A35128  27.599  20.621   8.250
 7028POPC   C3A35129  27.591  20.575   7.950
 7028POPC   C4A35130  27.590  20.629   7.650
 7028POPC   C1B35131  27.881  20.613   8.550
 7028POPC   C2B35132  27.888  20.553   8.250
 7028POPC   C3B35133  27.813  20.564   7.950
 7028POPC   C4B35134  27.817  20.587   7.650
 7029POPC   NC335135  43.916   5.142   9.450
 7029POPC   PO435136  43.912   5.054   9.150
 7029POPC   GL135137  43.922   5.082   8.850
 7029POPC   GL235138  43.986   5.002   8.850
 7029POPC   C1A35139  43.850   5.126   8.550
 7029POPC   D2A35140  43.884   5.063   8.250
 7029POPC   C3A35141  43.859   5.114   7.950
 7029POPC   C4A35142  43.917   5.132   7.650
 7029POPC   C1B35143  44.044   4.920   8.550
 7029POPC   C2B35144  44.004   4.897   8.250
 7029POPC   C3B35145  44.053   4.851   7.950
 7029POPC   C4B35146  44.040   4.883   7.650
 7030POPC   NC335147   4.268  21.346   9.450
 7030POPC   PO435148   4.297  21.425   9.150
 7030POPC   GL135149   4.324  21.385   8.850
 7030POPC   GL235150   4.230  21.520   8.850
 7030POPC   C1A35151   4.311  21.353   8.550
 7030POPC   D2A35152   4.300  21.389   8.250
 7030POPC   C3A35153   4.309  21.346   7.950
 7030POPC   C4A35154   4.284  21.338   7.650
 7030POPC   C1B35155   4.095  21.509   8.550
 7030POPC   C2B35156   4.108  21.574   8.250
 7030POPC   C3B35157   4.141  21.553   7.950
 7030POPC   C4B35158   4.148  21.538   7.650
 7031POPC   NC335159   9.773  42.373   9.450
 7031POPC   PO435160   9.720  42.295   9.150
 7031POPC   GL135161   9.771  42.336   8.850
 7031POPC   GL235162   9.752  42.243   8.850
 7031POPC   C1A35163   9.771  42.321   8.550
 7031POPC   D2A35164   9.701  42.323   8.250
 7031POPC   C3A35165   9.774  42.336   7.950
 7031POPC   C4A35166   9.734  42.299   7.650
 7031POPC   C1B35167   9.780  42.118   8.550
 7031POPC   C2B35168   9.758  42.063   8.250
 7031POPC   C3B35169   9.781  42.109   7.950
 7031POPC   C4B35170   9.805  42.140   7.650
 7032POPC   NC335171   2.026  11.302   9.450
 7032POPC   PO435172   1.954  11.316   9.150
 7032POPC   GL135173   1.963  11.317   8.850
 7032POPC   GL235174   1.957  11.180   8.850
 7032POPC   C1A35175   2.015  11.293   8.550
 7032POPC   D2A35176   2.034  11.338   8.250
 7032POPC   C3A35177   1.984  11.293   7.950
 7032POPC   C4A35178   2.007  11.331   7.650
 7032POPC   C1B35179   1.810  11.111   8.550
 7032POPC   C2B35180   1.817  11.122   8.250
 7032POPC   C3B35181   1.819  11.110   7.950
 7032POPC   C4B35182   1.842  11.078   7.650
 7033POPC   NC335183  13.673  28.364   9.450
 7033POPC   PO435184  13.654  28.413   9.150
 7033POPC   GL135185  13.605  28.390   8.850
 7033POPC   GL235186  13.790  28.389   8.850
 7033POPC   C1A35187  13.596  28.321   8.550
 7033POPC   D2A35188  13.597  28.325   8.250
 7033POPC   C3A35189  13.621  28.405   7.950
 7033POPC   C4A35190  13.602  28.403   7.650
 7033POPC   C1B35191  13.834  28.358   8.550
 7033POPC   C2B35192  13.875  28.320   8.250
 7033POPC   C3B35193  13.862  28.391   7.950
 7033POPC   C4B35194  13.844  28.302   7.650
 7034POPC   NC335195  43.132  28.415   9.450
 7034POPC   PO435196  43.077  28.361   9.150
 7034POPC   GL135197  43.084  28.388   8.850
 7034POPC   GL235198  43.184  28.512   8.850
 7034POPC   C1A35199  43.154  28.404   8.550
 7034POPC   D2A35200  43.123  28.410   8.250
 7034POPC   C3A35201  43.105  28.341   7.950
 7034POPC   C4A35202  43.148  28.374   7.650
 7034POPC   C1B35203  43.169  28.615   8.550
 7034POPC   C2B35204  43.251  28.642   8.250
 7034POPC   C3B35205  43.241  28.571   7.950
 7034POPC   C4B35206  43.173  28.559   7.650
 7035POPC   NC335207  29.161  14.360   9.450
 7035POPC   PO435208  29.113  14.445   9.150
 7035POPC   GL135209  29.144  14.429   8.850
 7035POPC   GL235210  29.033  14.334   8.850
 7035POPC   C1A35211  29.170  14.364   8.550
 7035POPC   D2A35212  29.187  14.432   8.250
 7035POPC   C3A35213  29.098  14.369   7.950
 7035POPC   C4A35214  29.124  14.374   7.650
 7035POPC   C1B35215  28.966  14.190   8.550
 7035POPC   C2B35216  28.973  14.217   8.250
 7035POPC   C3B35217  28.942  14.207   7.950
 7035POPC   C4B35218  28.973  14.167   7.650
 7036POPC   NC335219  26.083   5.871   9.450
 7036POPC   PO435220  26.015   5.910   9.150
 7036POPC   GL135221  26.001   5.828   8.850
 7036POPC   GL235222  25.886   5.887   8.850
 7036POPC   C1A35223  26.022   5.825   8.550
 7036POPC   D2A35224  26.022   5.836   8.250
 7036POPC   C3A35225  26.081   5.887   7.950
 7036POPC   C4A35226  26.041   5.897   7.650
 7036POPC   C1B35227  25.789   5.895   8.550
 7036POPC   C2B35228  25.743   5.898   8.250
 7036POPC   C3B35229  25.778   5.906   7.950
 7036POPC   C4B35230  25.745   5.924   7.650
 7037POPC   NC335231  11.291   1.955   9.450
 7037POPC   PO435232  11.328   2.020   9.150
 7037POPC   GL135233  11.258   1.953   8.850
 7037POPC   GL235234  11.350   1.842   8.850
 7037POPC   C1A35235  11.319   1.944   8.550
 7037POPC   D2A35236  11.336   1.951   8.250
 7037POPC   C3A35237  11.343   1.961   7.950
 7037POPC   C4A35238  11.327   2.016   7.650
 7037POPC   C1B35239  11.327   1.739   8.550
 7037POPC   C2B35240  11.336   1.772   8.250
 7037POPC   C3B35241  11.327   1.791   7.950
 7037POPC   C4B35242  11.310   1.720   7.650
 7038POPC   NC335243  12.113  28.395   9.450
 7038POPC   PO435244  12.075  28.379   9.150
 7038POPC   GL135245  12.056  28.343   8.850
 7038POPC   GL235246  12.087  28.518   8.850
 7038POPC   C1A35247  12.066  28.377   8.550
 7038POPC   D2A35248  12.109  28.417   8.250
 7038POPC   C3A35249  12.056  28.398   7.950
 7038POPC   C4A35250  12.067  28.398   7.650
 7038POPC   C1B35251  12.162  28.570   8.550
 7038POPC   C2B35252  12.091  28.564   8.250
 7038POPC   C3B35253  12.107  28.612   7.950
 7038POPC   C4B35254  12.177  28.604   7.650
 7039POPC   NC335255  26.026  30.679   9.450
 7039POPC   PO435256  26.009  30.655   9.150
 7039POPC   GL135257  26.087  30.669   8.850
 7039POPC   GL235258  26.107  30.614   8.850
 7039POPC   C1A35259  26.036  30.649   8.550
 7039POPC   D2A35260  26.086  30.735   8.250
 7039POPC   C3A35261  26.058  30.740   7.950
 7039POPC   C4A35262  26.010  30.702   7.650
 7039POPC   C1B35263  26.127  30.445   8.550
 7039POPC   C2B35264  26.116  30.455   8.250
 7039POPC   C3B35265  26.139  30.511   7.950
 7039POPC   C4B35266  26.178  30.434   7.650
 7040POPC   NC335267  42.352  25.283   9.450
 7040POPC   PO435268  42.305  25.221   9.150
 7040POPC   GL135269  42.318  25.270   8.850
 7040POPC   GL235270  42.321  25.392   8.850
 7040POPC   C1A35271  42.309  25.267   8.550
 7040POPC   D2A35272  42.362  25.279   8.250
 7040POPC   C3A35273  42.326  25.309   7.950
 7040POPC   C4A35274  42.362  25.288   7.650
 7040POPC   C1B35275  42.319  25.475   8.550
 7040POPC   C2B35276  42.293  25.511   8.250
 7040POPC   C3B35277  42.244  25.502   7.950
 7040POPC   C4B35278  42.286  25.460   7.650
 7041POPC   NC335279  37.633  39.239   9.450
 7041POPC   PO435280  37.671  39.182   9.150
 7041POPC   GL135281  37.668  39.277   8.850
 7041POPC   GL235282  37.806  39.205   8.850
 7041POPC   C1A35283  37.669  39.252   8.550
 7041POPC   D2A35284  37.671  39.213   8.250
 7041POPC   C3A35285  37.665  39.220   7.950
 7041POPC   C4A35286  37.714  39.247   7.650
 7041POPC   C1B35287  37.901  39.132   8.550
 7041POPC   C2B35288  37.918  39.098   8.250
 7041POPC   C3B35289  37.836  39.102   7.950
 7041POPC   C4B35290  37.924  39.131   7.650
 7042POPC   NC335291  31.483   8.983   9.450
 7042POPC   PO435292  31.460   8.981   9.150
 7042POPC   GL135293  31.507   8.992   8.850
 7042POPC   GL235294  31.552   9.064   8.850
 7042POPC   C1A35295  31.455   8.941   8.550
 7042POPC   D2A35296  31.482   8.946   8.250
 7042POPC   C3A35297  31.493   8.998   7.950
 7042POPC   C4A35298  31.490   8.971   7.650
 7042POPC   C1B35299  31.668   9.130   8.550
 7042POPC   C2B35300  31.728   9.065   8.250
 7042POPC   C3B35301  31.713   9.070   7.950
 7042POPC   C4B35302  31.664   9.050   7.650
 7043POPC   NC335303   7.448  22.905   9.450
 7043POPC   PO435304   7.422  22.894   9.150
 7043POPC   GL135305   7.437  22.956   8.850
 7043POPC   GL235306   7.269  22.895   8.850
 7043POPC   C1A35307   7.398  22.966   8.550
 7043POPC   D2A35308   7.445  22.903   8.250
 7043POPC   C3A35309   7.395  22.953   7.950
 7043POPC   C4A35310   7.410  22.956   7.650
 7043POPC   C1B35311   7.128  22.949   8.550
 7043POPC   C2B35312   7.177  22.900   8.250
 7043POPC   C3B35313   7.176  22.936   7.950
 7043POPC   C4B35314   7.171  22.932   7.650
 7044POPC   NC335315  10.486  12.865   9.450
 7044POPC   PO435316  10.520  12.835   9.150
 7044POPC   GL135317  10.524  12.832   8.850
 7044POPC   GL235318  10.573  12.974   8.850
 7044POPC   C1A35319  10.548  12.862   8.550
 7044POPC   D2A35320  10.521  12.816   8.250
 7044POPC   C3A35321  10.515  12.861   7.950
 7044POPC   C4A35322  10.479  12.892   7.650
 7044POPC   C1B35323  10.648  13.064   8.550
 7044POPC   C2B35324  10.608  13.078   8.250
 7044POPC   C3B35325  10.642  13.057   7.950
 7044POPC   C4B35326  10.643  13.102   7.650
 7045POPC   NC335327  29.115   3.492   9.450
 7045POPC   PO435328  29.109   3.572   9.150
 7045POPC   GL135329  29.185   3.545   8.850
 7045POPC   GL235330  28.992   3.533   8.850
 7045POPC   C1A35331  29.130   3.576   8.550
 7045POPC   D2A35332  29.098   3.535   8.250
 7045POPC   C3A35333  29.166   3.554   7.950
 7045POPC   C4A35334  29.118   3.496   7.650
 7045POPC   C1B35335  28.872   3.500   8.550
 7045POPC   C2B35336  28.916   3.498   8.250
 7045POPC   C3B35337  28.871   3.543   7.950
 7045POPC   C4B35338  28.889   3.541   7.650
 7046POPC   NC335339   4.340   9.780   9.450
 7046POPC   PO435340   4.300   9.703   9.150
 7046POPC   GL135341   4.363   9.779   8.850
 7046POPC   GL235342   4.276   9.838   8.850
 7046POPC   C1A35343   4.294   9.766   8.550
 7046POPC   D2A35344   4.284   9.712   8.250
 7046POPC   C3A35345   4.326   9.794   7.950
 7046POPC   C4A35346   4.300   9.795   7.650
 7046POPC   C1B35347   4.272  10.000   8.550
 7046POPC   C2B35348   4.293  10.002   8.250
 7046POPC   C3B35349   4.241   9.975   7.950
 7046POPC   C4B35350   4.297   9.977   7.650
 7047POPC   NC335351   5.882  41.538   9.450
 7047POPC   PO435352   5.916  41.531   9.150
 7047POPC   GL135353   5.857  41.552   8.850
 7047POPC   GL235354   5.865  41.730   8.850
 7047POPC   C1A35355   5.864  41.599   8.550
 7047POPC   D2A35356   5.876  41.510   8.250
 7047POPC   C3A35357   5.915  41.532   7.950
 7047POPC   C4A35358   5.882  41.600   7.650
 7047POPC   C1B35359   5.973  41.792   8.550
 7047POPC   C2B35360   5.900  41.786   8.250
 7047POPC   C3B35361   5.978  41.768   7.950
 7047POPC   C4B35362   5.915  41.774   7.650
 7048POPC   NC335363  14.389   1.218   9.450
 7048POPC   PO435364  14.423   1.170   9.150
 7048POPC   GL135365  14.371   1.202   8.850
 7048POPC   GL235366  14.312   1.314   8.850
 7048POPC   C1A35367  14.371   1.182   8.550
 7048POPC   D2A35368  14.369   1.216   8.250
 7048POPC   C3A35369  14.360   1.232   7.950
 7048POPC   C4A35370  14.363   1.246   7.650
 7048POPC   C1B35371  14.202   1.385   8.550
 7048POPC   C2B35372  14.254   1.409   8.250
 7048POPC   C3B35373  14.260   1.386   7.950
 7048POPC   C4B35374  14.237   1.432   7.650
 7049POPC   NC335375  34.582  33.012   9.450
 7049POPC   PO435376  34.560  33.011   9.150
 7049POPC   GL135377  34.618  32.989   8.850
 7049POPC   GL235378  34.431  33.109   8.850
 7049POPC   C1A35379  34.608  33.045   8.550
 7049POPC   D2A35380  34.545  33.029   8.250
 7049POPC   C3A35381  34.571  32.988   7.950
 7049POPC   C4A35382  34.599  33.058   7.650
 7049POPC   C1B35383  34.350  33.206   8.550
 7049POPC   C2B35384  34.381  33.227   8.250
 7049POPC   C3B35385  34.427  33.200   7.950
 7049POPC   C4B35386  34.379  33.166   7.650
 7050POPC   NC335387  22.159  26.853   9.450
 7050POPC   PO435388  22.187  26.814   9.150
 7050POPC   GL135389  22.189  26.776   8.850
 7050POPC   GL235390  22.018  26.865   8.850
 7050POPC   C1A35391  22.130  26.857   8.550
 7050POPC   D2A35392  22.150  26.804   8.250
 7050POPC   C3A35393  22.198  26.858   7.950
 7050POPC   C4A35394  22.149  26.788   7.650
 7050POPC   C1B35395  21.916  26.852   8.550
 7050POPC   C2B35396  21.877  26.912   8.250
 7050POPC   C3B35397  21.947  26.906   7.950
 7050POPC   C4B35398  21.958  26.899   7.650
 7051POPC   NC335399   1.967  39.981   9.450
 7051POPC   PO435400   1.985  39.980   9.150
 7051POPC   GL135401   2.032  40.033   8.850
 7051POPC   GL235402   2.057  40.073   8.850
 7051POPC   C1A35403   1.970  40.018   8.550
 7051POPC   D2A35404   1.954  39.994   8.250
 7051POPC   C3A35405   1.953  39.977   7.950
 7051POPC   C4A35406   1.975  39.999   7.650
 7051POPC   C1B35407   2.189  40.105   8.550
 7051POPC   C2B35408   2.264  40.080   8.250
 7051POPC   C3B35409   2.216  40.124   7.950
 7051POPC   C4B35410   2.180  40.119   7.650
 7052POPC   NC335411  19.025  15.205   9.450
 7052POPC   PO435412  19.055  15.226   9.150
 7052POPC   GL135413  19.022  15.207   8.850
 7052POPC   GL235414  18.919  15.188   8.850
 7052POPC   C1A35415  19.103  15.163   8.550
 7052POPC   D2A35416  19.107  15.214   8.250
 7052POPC   C3A35417  19.036  15.218   7.950
 7052POPC   C4A35418  19.035  15.216   7.650
 7052POPC   C1B35419  18.799  15.175   8.550
 7052POPC   C2B35420  18.806  15.206   8.250
 7052POPC   C3B35421  18.806  15.180   7.950
 7052POPC   C4B35422  18.837  15.169   7.650
 7053POPC   NC335423  14.396  14.356   9.450
 7053POPC   PO435424  14.436  14.363   9.150
 7053POPC   GL135425  14.376  14.386   8.850
 7053POPC   GL235426  14.427  14.516   8.850
 7053POPC   C1A35427  14.420  14.380   8.550
 7053POPC   D2A35428  14.395  14.358   8.250
 7053POPC   C3A35429  14.449  14.403   7.950
 7053POPC   C4A35430  14.442  14.381   7.650
 7053POPC   C1B35431  14.412  14.602   8.550
 7053POPC   C2B35432  14.455  14.654   8.250
 7053POPC   C3B35433  14.387  14.621   7.950
 7053POPC   C4B35434  14.393  14.701   7.650
 7054POPC   NC335435  34.562  17.556   9.450
 7054POPC   PO435436  34.595  17.518   9.150
 7054POPC   GL135437  34.608  17.463   8.850
 7054POPC   GL235438  34.590  17.658   8.850
 7054POPC   C1A35439  34.623  17.469   8.550
 7054POPC   D2A35440  34.543  17.487   8.250
 7054POPC   C3A35441  34.612  17.527   7.950
 7054POPC   C4A35442  34.539  17.545   7.650
 7054POPC   C1B35443  34.689  17.729   8.550
 7054POPC   C2B35444  34.699  17.678   8.250
 7054POPC   C3B35445  34.662  17.765   7.950
 7054POPC   C4B35446  34.705  17.706   7.650
 7055POPC   NC335447  19.026  41.555   9.450
 7055POPC   PO435448  19.095  41.605   9.150
 7055POPC   GL135449  19.064  41.605   8.850
 7055POPC   GL235450  19.139  41.407   8.850
 7055POPC   C1A35451  19.027  41.519   8.550
 7055POPC   D2A35452  19.035  41.515   8.250
 7055POPC   C3A35453  19.029  41.529   7.950
 7055POPC   C4A35454  19.087  41.523   7.650
 7055POPC   C1B35455  19.122  41.318   8.550
 7055POPC   C2B35456  19.114  41.341   8.250
 7055POPC   C3B35457  19.134  41.344   7.950
 7055POPC   C4B35458  19.136  41.370   7.650
 7056POPC   NC335459  19.859  33.019   9.450
 7056POPC   PO435460  19.806  33.071   9.150
 7056POPC   GL135461  19.849  32.985   8.850
 7056POPC   GL235462  19.910  32.894   8.850
 7056POPC   C1A35463  19.793  32.990   8.550
 7056POPC   D2A35464  19.813  33.007   8.250
 7056POPC   C3A35465  19.855  33.057   7.950
 7056POPC   C4A35466  19.800  33.016   7.650
 7056POPC   C1B35467  19.920  32.764   8.550
 7056POPC   C2B35468  19.911  32.749   8.250
 7056POPC   C3B35469  19.918  32.798   7.950
 7056POPC   C4B35470  19.921  32.776   7.650
 7057POPC   NC335471   3.508  24.453   9.450
 7057POPC   PO435472   3.540  24.482   9.150
 7057POPC   GL135473   3.536  24.480   8.850
 7057POPC   GL235474   3.529  24.350   8.850
 7057POPC   C1A35475   3.574  24.502   8.550
 7057POPC   D2A35476   3.566  24.469   8.250
 7057POPC   C3A35477   3.513  24.537   7.950
 7057POPC   C4A35478   3.494  24.466   7.650
 7057POPC   C1B35479   3.559  24.236   8.550
 7057POPC   C2B35480   3.588  24.205   8.250
 7057POPC   C3B35481   3.585  24.256   7.950
 7057POPC   C4B35482   3.605  24.215   7.650
 7058POPC   NC335483  38.420  15.996   9.450
 7058POPC   PO435484  38.416  15.913   9.150
 7058POPC   GL135485  38.484  15.914   8.850
 7058POPC   GL235486  38.536  15.982   8.850
 7058POPC   C1A35487  38.464  15.912   8.550
 7058POPC   D2A35488  38.417  15.922   8.250
 7058POPC   C3A35489  38.460  15.924   7.950
 7058POPC   C4A35490  38.471  15.942   7.650
 7058POPC   C1B35491  38.740  16.006   8.550
 7058POPC   C2B35492  38.707  15.966   8.250
 7058POPC   C3B35493  38.694  16.017   7.950
 7058POPC   C4B35494  38.664  16.042   7.650
 7059POPC   NC335495  30.664  19.094   9.450
 7059POPC   PO435496  30.651  19.040   9.150
 7059POPC   GL135497  30.708  19.074   8.850
 7059POPC   GL235498  30.856  19.064   8.850
 7059POPC   C1A35499  30.668  19.027   8.550
 7059POPC   D2A35500  30.710  19.012   8.250
 7059POPC   C3A35501  30.667  19.020   7.950
 7059POPC   C4A35502  30.729  19.022   7.650
 7059POPC   C1B35503  30.986  19.063   8.550
 7059POPC   C2B35504  30.992  19.068   8.250
 7059POPC   C3B35505  30.921  19.038   7.950
 7059POPC   C4B35506  30.991  19.097   7.650
 7060POPC   NC335507  23.715  33.774   9.450
 7060POPC   PO435508  23.746  33.811   9.150
 7060POPC   GL135509  23.726  33.849   8.850
 7060POPC   GL235510  23.646  33.749   8.850
 7060POPC   C1A35511  23.747  33.820   8.550
 7060POPC   D2A35512  23.738  33.833   8.250
 7060POPC   C3A35513  23.723  33.772   7.950
 7060POPC   C4A35514  23.690  33.786   7.650
 7060POPC   C1B35515  23.453  33.738   8.550
 7060POPC   C2B35516  23.499  33.744   8.250
 7060POPC   C3B35517  23.519  33.659   7.950
 7060POPC   C4B35518  23.508  33.650   7.650
 7061POPC   NC335519   4.344  36.909   9.450
 7061POPC   PO435520   4.362  36.870   9.150
 7061POPC   GL135521   4.343  36.932   8.850
 7061POPC   GL235522   4.174  36.908   8.850
 7061POPC   C1A35523   4.323  36.894   8.550
 7061POPC   D2A35524   4.348  36.945   8.250
 7061POPC   C3A35525   4.277  36.940   7.950
 7061POPC   C4A35526   4.364  36.915   7.650
 7061POPC   C1B35527   4.108  36.974   8.550
 7061POPC   C2B35528   4.046  36.945   8.250
 7061POPC   C3B35529   4.065  36.969   7.950
 7061POPC   C4B35530   4.057  36.904   7.650
 7062POPC   NC335531  40.740  44.640   9.450
 7062POPC   PO435532  40.784  44.622   9.150
 7062POPC   GL135533  40.780  44.647   8.850
 7062POPC   GL235534  40.840  44.583   8.850
 7062POPC   C1A35535  40.764  44.628   8.550
 7062POPC   D2A35536  40.814  44.644   8.250
 7062POPC   C3A35537  40.746  44.687   7.950
 7062POPC   C4A35538  40.819  44.678   7.650
 7062POPC   C1B35539  40.973  44.467   8.550
 7062POPC   C2B35540  40.999  44.491   8.250
 7062POPC   C3B35541  41.007  44.530   7.950
 7062POPC   C4B35542  40.922  44.451   7.650
 7063POPC   NC335543   1.234  29.970   9.450
 7063POPC   PO435544   1.261  29.936   9.150
 7063POPC   GL135545   1.179  29.966   8.850
 7063POPC   GL235546   1.169  30.058   8.850
 7063POPC   C1A35547   1.237  29.962   8.550
 7063POPC   D2A35548   1.242  29.942   8.250
 7063POPC   C3A35549   1.216  29.892   7.950
 7063POPC   C4A35550   1.195  29.963   7.650
 7063POPC   C1B35551   1.091  30.176   8.550
 7063POPC   C2B35552   1.167  30.126   8.250
 7063POPC   C3B35553   1.165  30.133   7.950
 7063POPC   C4B35554   1.104  30.113   7.650
 7064POPC   NC335555  25.262  15.187   9.450
 7064POPC   PO435556  25.220  15.136   9.150
 7064POPC   GL135557  25.292  15.169   8.850
 7064POPC   GL235558  25.297  15.318   8.850
 7064POPC   C1A35559  25.288  15.220   8.550
 7064POPC   D2A35560  25.312  15.209   8.250
 7064POPC   C3A35561  25.260  15.173   7.950
 7064POPC   C4A35562  25.306  15.141   7.650
 7064POPC   C1B35563  25.285  15.404   8.550
 7064POPC   C2B35564  25.199  15.402   8.250
 7064POPC   C3B35565  25.216  15.471   7.950
 7064POPC   C4B35566  25.232  15.438   7.650
 7065POPC   NC335567  32.232  13.658   9.450
 7065POPC   PO435568  32.227  13.597   9.150
 7065POPC   GL135569  32.275  13.672   8.850
 7065POPC   GL235570  32.083  13.589   8.850
 7065POPC   C1A35571  32.257  13.583   8.550
 7065POPC   D2A35572  32.280  13.630   8.250
 7065POPC   C3A35573  32.245  13.592   7.950
 7065POPC   C4A35574  32.253  13.588   7.650
 7065POPC   C1B35575  31.998  13.542   8.550
 7065POPC   C2B35576  31.958  13.584   8.250
 7065POPC   C3B35577  32.005  13.611   7.950
 7065POPC   C4B35578  31.968  13.562   7.650
 7066POPC   NC335579   7.402  29.907   9.450
 7066POPC   PO435580   7.379  29.935   9.150
 7066POPC   GL135581   7.409  29.889   8.850
 7066POPC   GL235582   7.397  30.076   8.850
 7066POPC   C1A35583   7.427  29.967   8.550
 7066POPC   D2A35584   7.390  29.967   8.250
 7066POPC   C3A35585   7.394  29.942   7.950
 7066POPC   C4A35586   7.403  29.925   7.650
 7066POPC   C1B35587   7.291  30.197   8.550
 7066POPC   C2B35588   7.275  30.145   8.250
 7066POPC   C3B35589   7.334  30.105   7.950
 7066POPC   C4B35590   7.294  30.137   7.650
 7067POPC   NC335591  32.297  33.791   9.450
 7067POPC   PO435592  32.209  33.809   9.150
 7067POPC   GL135593  32.252  33.764   8.850
 7067POPC   GL235594  32.376  33.812   8.850
 7067POPC   C1A35595  32.219  33.786   8.550
 7067POPC   D2A35596  32.236  33.792   8.250
 7067POPC   C3A35597  32.252  33.849   7.950
 7067POPC   C4A35598  32.229  33.760   7.650
 7067POPC   C1B35599  32.526  33.680   8.550
 7067POPC   C2B35600  32.537  33.682   8.250
 7067POPC   C3B35601  32.508  33.729   7.950
 7067POPC   C4B35602  32.457  33.737   7.650
 7068POPC   NC335603   1.201  37.719   9.450
 7068POPC   PO435604   1.239  37.658   9.150
 7068POPC   GL135605   1.210  37.660   8.850
 7068POPC   GL235606   1.094  37.701   8.850
 7068POPC   C1A35607   1.194  37.633   8.550
 7068POPC   D2A35608   1.229  37.630   8.250
 7068POPC   C3A35609   1.211  37.683   7.950
 7068POPC   C4A35610   1.197  37.661   7.650
 7068POPC   C1B35611   1.001  37.626   8.550
 7068POPC   C2B35612   1.017  37.650   8.250
 7068POPC   C3B35613   1.003  37.575   7.950
 7068POPC   C4B35614   1.007  37.613   7.650
 7069POPC   NC335615  10.480  27.599   9.450
 7069POPC   PO435616  10.557  27.608   9.150
 7069POPC   GL135617  10.557  27.548   8.850
 7069POPC   GL235618  10.406  27.564   8.850
 7069POPC   C1A35619  10.474  27.623   8.550
 7069POPC   D2A35620  10.554  27.581   8.250
 7069POPC   C3A35621  10.477  27.622   7.950
 7069POPC   C4A35622  10.536  27.555   7.650
 7069POPC   C1B35623  10.280  27.519   8.550
 7069POPC   C2B35624  10.300  27.579   8.250
 7069POPC   C3B35625  10.256  27.534   7.950
 7069POPC   C4B35626  10.319  27.577   7.650
 7070POPC   NC335627   8.934  32.254   9.450
 7070POPC   PO435628   8.997  32.291   9.150
 7070POPC   GL135629   8.949  32.206   8.850
 7070POPC   GL235630   9.118  32.172   8.850
 7070POPC   C1A35631   8.979  32.268   8.550
 7070POPC   D2A35632   8.979  32.251   8.250
 7070POPC   C3A35633   8.986  32.294   7.950
 7070POPC   C4A35634   8.929  32.224   7.650
 7070POPC   C1B35635   9.211  32.079   8.550
 7070POPC   C2B35636   9.207  32.055   8.250
 7070POPC   C3B35637   9.160  32.111   7.950
 7070POPC   C4B35638   9.148  32.104   7.650
 7071POPC   NC335639  28.391   4.366   9.450
 7071POPC   PO435640  28.385   4.343   9.150
 7071POPC   GL135641  28.370   4.347   8.850
 7071POPC   GL235642  28.356   4.472   8.850
 7071POPC   C1A35643  28.338   4.350   8.550
 7071POPC   D2A35644  28.398   4.348   8.250
 7071POPC   C3A35645  28.373   4.303   7.950
 7071POPC   C4A35646  28.405   4.348   7.650
 7071POPC   C1B35647  28.268   4.550   8.550
 7071POPC   C2B35648  28.223   4.542   8.250
 7071POPC   C3B35649  28.219   4.583   7.950
 7071POPC   C4B35650  28.259   4.519   7.650
 7072POPC   NC335651  43.108  25.234   9.450
 7072POPC   PO435652  43.150  25.274   9.150
 7072POPC   GL135653  43.080  25.229   8.850
 7072POPC   GL235654  42.988  25.258   8.850
 7072POPC   C1A35655  43.147  25.282   8.550
 7072POPC   D2A35656  43.086  25.233   8.250
 7072POPC   C3A35657  43.134  25.293   7.950
 7072POPC   C4A35658  43.145  25.236   7.650
 7072POPC   C1B35659  42.829  25.319   8.550
 7072POPC   C2B35660  42.813  25.314   8.250
 7072POPC   C3B35661  42.865  25.325   7.950
 7072POPC   C4B35662  42.882  25.233   7.650
 7073POPC   NC335663  10.491  11.270   9.450
 7073POPC   PO435664  10.490  11.347   9.150
 7073POPC   GL135665  10.487  11.321   8.850
 7073POPC   GL235666  10.692  11.286   8.850
 7073POPC   C1A35667  10.539  11.284   8.550
 7073POPC   D2A35668  10.529  11.307   8.250
 7073POPC   C3A35669  10.574  11.303   7.950
 7073POPC   C4A35670  10.527  11.309   7.650
 7073POPC   C1B35671  10.821  11.278   8.550
 7073POPC   C2B35672  10.813  11.311   8.250
 7073POPC   C3B35673  10.781  11.271   7.950
 7073POPC   C4B35674  10.816  11.265   7.650
 7074POPC   NC335675   9.743  31.491   9.450
 7074POPC   PO435676   9.785  31.517   9.150
 7074POPC   GL135677   9.733  31.430   8.850
 7074POPC   GL235678   9.851  31.475   8.850
 7074POPC   C1A35679   9.719  31.502   8.550
 7074POPC   D2A35680   9.724  31.466   8.250
 7074POPC   C3A35681   9.716  31.470   7.950
 7074POPC   C4A35682   9.782  31.480   7.650
 7074POPC   C1B35683  10.012  31.426   8.550
 7074POPC   C2B35684  10.010  31.431   8.250
 7074POPC   C3B35685   9.967  31.351   7.950
 7074POPC   C4B35686   9.979  31.427   7.650
 7075POPC   NC335687  14.444  15.942   9.450
 7075POPC   PO435688  14.444  15.968   9.150
 7075POPC   GL135689  14.428  15.945   8.850
 7075POPC   GL235690  14.509  15.897   8.850
 7075POPC   C1A35691  14.373  15.985   8.550
 7075POPC   D2A35692  14.447  15.924   8.250
 7075POPC   C3A35693  14.387  15.976   7.950
 7075POPC   C4A35694  14.389  15.998   7.650
 7075POPC   C1B35695  14.638  15.826   8.550
 7075POPC   C2B35696  14.575  15.864   8.250
 7075POPC   C3B35697  14.568  15.837   7.950
 7075POPC   C4B35698  14.572  15.803   7.650
 7076POPC   NC335699  19.873   7.418   9.450
 7076POPC   PO435700  19.840   7.422   9.150
 7076POPC   GL135701  19.797   7.402   8.850
 7076POPC   GL235702  19.812   7.324   8.850
 7076POPC   C1A35703  19.848   7.395   8.550
 7076POPC   D2A35704  19.833   7.381   8.250
 7076POPC   C3A35705  19.826   7.409   7.950
 7076POPC   C4A35706  19.806   7.377   7.650
 7076POPC   C1B35707  19.882   7.136   8.550
 7076POPC   C2B35708  19.865   7.171   8.250
 7076POPC   C3B35709  19.904   7.126   7.950
 7076POPC   C4B35710  19.842   7.165   7.650
 7077POPC   NC335711  33.784  13.580   9.450
 7077POPC   PO435712  33.792  13.615   9.150
 7077POPC   GL135713  33.758  13.660   8.850
 7077POPC   GL235714  33.723  13.723   8.850
 7077POPC   C1A35715  33.775  13.597   8.550
 7077POPC   D2A35716  33.763  13.667   8.250
 7077POPC   C3A35717  33.784  13.655   7.950
 7077POPC   C4A35718  33.820  13.615   7.650
 7077POPC   C1B35719  33.658  13.814   8.550
 7077POPC   C2B35720  33.682  13.801   8.250
 7077POPC   C3B35721  33.617  13.809   7.950
 7077POPC   C4B35722  33.684  13.849   7.650
 7078POPC   NC335723  40.006  26.083   9.450
 7078POPC   PO435724  39.960  26.002   9.150
 7078POPC   GL135725  39.971  25.997   8.850
 7078POPC   GL235726  40.158  26.056   8.850
 7078POPC   C1A35727  40.039  25.996   8.550
 7078POPC   D2A35728  39.960  26.001   8.250
 7078POPC   C3A35729  40.010  26.065   7.950
 7078POPC   C4A35730  40.003  26.035   7.650
 7078POPC   C1B35731  40.192  26.164   8.550
 7078POPC   C2B35732  40.196  26.171   8.250
 7078POPC   C3B35733  40.180  26.166   7.950
 7078POPC   C4B35734  40.271  26.181   7.650
 7079POPC   NC335735   7.448  20.592   9.450
 7079POPC   PO435736   7.437  20.660   9.150
 7079POPC   GL135737   7.414  20.620   8.850
 7079POPC   GL235738   7.515  20.556   8.850
 7079POPC   C1A35739   7.410  20.615   8.550
 7079POPC   D2A35740   7.421  20.656   8.250
 7079POPC   C3A35741   7.380  20.634   7.950
 7079POPC   C4A35742   7.421  20.589   7.650
 7079POPC   C1B35743   7.607  20.432   8.550
 7079POPC   C2B35744   7.535  20.406   8.250
 7079POPC   C3B35745   7.551  20.435   7.950
 7079POPC   C4B35746   7.579  20.380   7.650
 7080POPC   NC335747  17.508   1.213   9.450
 7080POPC   PO435748  17.536   1.170   9.150
 7080POPC   GL135749  17.502   1.198   8.850
 7080POPC   GL235750  17.397   1.291   8.850
 7080POPC   C1A35751  17.482   1.193   8.550
 7080POPC   D2A35752  17.535   1.220   8.250
 7080POPC   C3A35753  17.509   1.165   7.950
 7080POPC   C4A35754  17.550   1.185   7.650
 7080POPC   C1B35755  17.436   1.450   8.550
 7080POPC   C2B35756  17.409   1.407   8.250
 7080POPC   C3B35757  17.396   1.477   7.950
 7080POPC   C4B35758  17.383   1.460   7.650
 7081POPC   NC335759  19.038   5.103   9.450
 7081POPC   PO435760  19.046   5.093   9.150
 7081POPC   GL135761  19.054   5.045   8.850
 7081POPC   GL235762  18.983   5.086   8.850
 7081POPC   C1A35763  19.051   5.057   8.550
 7081POPC   D2A35764  19.100   5.058   8.250
 7081POPC   C3A35765  19.063   5.119   7.950
 7081POPC   C4A35766  19.070   5.140   7.650
 7081POPC   C1B35767  18.789   5.036   8.550
 7081POPC   C2B35768  18.840   5.027   8.250
 7081POPC   C3B35769  18.788   5.085   7.950
 7081POPC   C4B35770  18.778   5.103   7.650
 7082POPC   NC335771  13.670   2.736   9.450
 7082POPC   PO435772  13.620   2.803   9.150
 7082POPC   GL135773  13.662   2.795   8.850
 7082POPC   GL235774  13.719   2.712   8.850
 7082POPC   C1A35775  13.608   2.742   8.550
 7082POPC   D2A35776  13.586   2.742   8.250
 7082POPC   C3A35777  13.657   2.806   7.950
 7082POPC   C4A35778  13.602   2.745   7.650
 7082POPC   C1B35779  13.888   2.675   8.550
 7082POPC   C2B35780  13.820   2.675   8.250
 7082POPC   C3B35781  13.912   2.677   7.950
 7082POPC   C4B35782  13.861   2.677   7.650
 7083POPC   NC335783  40.039  39.960   9.450
 7083POPC   PO435784  40.049  39.989   9.150
 7083POPC   GL135785  40.019  39.992   8.850
 7083POPC   GL235786  40.146  40.042   8.850
 7083POPC   C1A35787  40.011  40.001   8.550
 7083POPC   D2A35788  39.965  40.005   8.250
 7083POPC   C3A35789  39.960  40.057   7.950
 7083POPC   C4A35790  39.966  40.012   7.650
 7083POPC   C1B35791  40.200  40.165   8.550
 7083POPC   C2B35792  40.263  40.110   8.250
 7083POPC   C3B35793  40.277  40.101   7.950
 7083POPC   C4B35794  40.203  40.120   7.650
 7084POPC   NC335795  11.311   1.205   9.450
 7084POPC   PO435796  11.316   1.232   9.150
 7084POPC   GL135797  11.260   1.230   8.850
 7084POPC   GL235798  11.340   1.361   8.850
 7084POPC   C1A35799  11.272   1.168   8.550
 7084POPC   D2A35800  11.311   1.173   8.250
 7084POPC   C3A35801  11.257   1.236   7.950
 7084POPC   C4A35802  11.283   1.246   7.650
 7084POPC   C1B35803  11.412   1.402   8.550
 7084POPC   C2B35804  11.428   1.478   8.250
 7084POPC   C3B35805  11.424   1.480   7.950
 7084POPC   C4B35806  11.339   1.468   7.650
 7085POPC   NC335807  12.113  11.279   9.450
 7085POPC   PO435808  12.101  11.327   9.150
 7085POPC   GL135809  12.113  11.311   8.850
 7085POPC   GL235810  12.006  11.443   8.850
 7085POPC   C1A35811  12.105  11.346   8.550
 7085POPC   D2A35812  12.091  11.254   8.250
 7085POPC   C3A35813  12.091  11.338   7.950
 7085POPC   C4A35814  12.062  11.344   7.650
 7085POPC   C1B35815  12.003  11.500   8.550
 7085POPC   C2B35816  11.997  11.581   8.250
 7085POPC   C3B35817  11.956  11.530   7.950
 7085POPC   C4B35818  12.004  11.576   7.650
 7086POPC   NC335819  34.562  39.992   9.450
 7086POPC   PO435820  34.568  39.974   9.150
 7086POPC   GL135821  34.567  40.036   8.850
 7086POPC   GL235822  34.661  40.056   8.850
 7086POPC   C1A35823  34.563  39.960   8.550
 7086POPC   D2A35824  34.597  40.009   8.250
 7086POPC   C3A35825  34.558  40.004   7.950
 7086POPC   C4A35826  34.561  40.047   7.650
 7086POPC   C1B35827  34.855  40.046   8.550
 7086POPC   C2B35828  34.782  40.063   8.250
 7086POPC   C3B35829  34.828  40.125   7.950
 7086POPC   C4B35830  34.855  40.047   7.650
 7087POPC   NC335831  19.066   0.454   9.450
 7087POPC   PO435832  19.107   0.454   9.150
 7087POPC   GL135833  19.097   0.440   8.850
 7087POPC   GL235834  19.083   0.535   8.850
 7087POPC   C1A35835  19.068   0.450   8.550
 7087POPC   D2A35836  19.094   0.389   8.250
 7087POPC   C3A35837  19.065   0.390   7.950
 7087POPC   C4A35838  19.049   0.405   7.650
 7087POPC   C1B35839  19.077   0.645   8.550
 7087POPC   C2B35840  19.126   0.719   8.250
 7087POPC   C3B35841  19.120   0.720   7.950
 7087POPC   C4B35842  19.104   0.706   7.650
 7088POPC   NC335843  38.418  32.274   9.450
 7088POPC   PO435844  38.484  32.261   9.150
 7088POPC   GL135845  38.457  32.218   8.850
 7088POPC   GL235846  38.581  32.322   8.850
 7088POPC   C1A35847  38.413  32.269   8.550
 7088POPC   D2A35848  38.466  32.264   8.250
 7088POPC   C3A35849  38.456  32.287   7.950
 7088POPC   C4A35850  38.485  32.269   7.650
 7088POPC   C1B35851  38.632  32.475   8.550
 7088POPC   C2B35852  38.597  32.422   8.250
 7088POPC   C3B35853  38.624  32.479   7.950
 7088POPC   C4B35854  38.623  32.415   7.650
 7089POPC   NC335855  37.662  18.295   9.450
 7089POPC   PO435856  37.719  18.302   9.150
 7089POPC   GL135857  37.695  18.251   8.850
 7089POPC   GL235858  37.541  18.243   8.850
 7089POPC   C1A35859  37.699  18.249   8.550
 7089POPC   D2A35860  37.658  18.276   8.250
 7089POPC   C3A35861  37.723  18.329   7.950
 7089POPC   C4A35862  37.633  18.301   7.650
 7089POPC   C1B35863  37.507  18.175   8.550
 7089POPC   C2B35864  37.472  18.162   8.250
 7089POPC   C3B35865  37.525  18.089   7.950
 7089POPC   C4B35866  37.463  18.120   7.650
 7090POPC   NC335867  26.038   8.161   9.450
 7090POPC   PO435868  26.001   8.196   9.150
 7090POPC   GL135869  26.091   8.210   8.850
 7090POPC   GL235870  25.923   8.094   8.850
 7090POPC   C1A35871  26.082   8.190   8.550
 7090POPC   D2A35872  26.058   8.197   8.250
 7090POPC   C3A35873  26.038   8.182   7.950
 7090POPC   C4A35874  26.017   8.245   7.650
 7090POPC   C1B35875  25.807   8.037   8.550
 7090POPC   C2B35876  25.785   8.085   8.250
 7090POPC   C3B35877  25.798   8.083   7.950
 7090POPC   C4B35878  25.833   8.106   7.650
 7091POPC   NC335879  36.146  17.466   9.450
 7091POPC   PO435880  36.164  17.519   9.150
 7091POPC   GL135881  36.110  17.515   8.850
 7091POPC   GL235882  36.126  17.343   8.850
 7091POPC   C1A35883  36.158  17.478   8.550
 7091POPC   D2A35884  36.154  17.550   8.250
 7091POPC   C3A35885  36.120  17.551   7.950
 7091POPC   C4A35886  36.131  17.533   7.650
 7091POPC   C1B35887  36.085  17.212   8.550
 7091POPC   C2B35888  36.085  17.212   8.250
 7091POPC   C3B35889  36.087  17.294   7.950
 7091POPC   C4B35890  36.101  17.309   7.650
 7092POPC   NC335891  29.924  40.822   9.450
 7092POPC   PO435892  29.950  40.806   9.150
 7092POPC   GL135893  29.886  40.763   8.850
 7092POPC   GL235894  29.966  40.875   8.850
 7092POPC   C1A35895  29.882  40.811   8.550
 7092POPC   D2A35896  29.961  40.797   8.250
 7092POPC   C3A35897  29.934  40.799   7.950
 7092POPC   C4A35898  29.917  40.828   7.650
 7092POPC   C1B35899  30.139  40.969   8.550
 7092POPC   C2B35900  30.065  40.931   8.250
 7092POPC   C3B35901  30.131  40.919   7.950
 7092POPC   C4B35902  30.101  40.936   7.650
 7093POPC   NC335903   9.012  33.001   9.450
 7093POPC   PO435904   8.926  33.004   9.150
 7093POPC   GL135905   8.948  33.009   8.850
 7093POPC   GL235906   8.898  32.914   8.850
 7093POPC   C1A35907   9.020  33.029   8.550
 7093POPC   D2A35908   8.990  33.036   8.250
 7093POPC   C3A35909   9.016  33.042   7.950
 7093POPC   C4A35910   8.954  33.034   7.650
 7093POPC   C1B35911   8.775  32.847   8.550
 7093POPC   C2B35912   8.759  32.822   8.250
 7093POPC   C3B35913   8.857  32.877   7.950
 7093POPC   C4B35914   8.820  32.796   7.650
 7094POPC   NC335915  29.148  15.934   9.450
 7094POPC   PO435916  29.173  15.966   9.150
 7094POPC   GL135917  29.118  15.933   8.850
 7094POPC   GL235918  29.152  16.069   8.850
 7094POPC   C1A35919  29.125  15.937   8.550
 7094POPC   D2A35920  29.112  15.921   8.250
 7094POPC   C3A35921  29.109  15.943   7.950
 7094POPC   C4A35922  29.174  15.910   7.650
 7094POPC   C1B35923  29.155  16.162   8.550
 7094POPC   C2B35924  29.143  16.185   8.250
 7094POPC   C3B35925  29.171  16.185   7.950
 7094POPC   C4B35926  29.135  16.173   7.650
 7095POPC   NC335927   3.499  42.288   9.450
 7095POPC   PO435928   3.519  42.291   9.150
 7095POPC   GL135929   3.542  42.345   8.850
 7095POPC   GL235930   3.560  42.251   8.850
 7095POPC   C1A35931   3.546  42.317   8.550
 7095POPC   D2A35932   3.565  42.308   8.250
 7095POPC   C3A35933   3.539  42.297   7.950
 7095POPC   C4A35934   3.589  42.322   7.650
 7095POPC   C1B35935   3.696  42.120   8.550
 7095POPC   C2B35936   3.689  42.154   8.250
 7095POPC   C3B35937   3.638  42.112   7.950
 7095POPC   C4B35938   3.649  42.169   7.650
 7096POPC   NC335939  10.572   9.710   9.450
 7096POPC   PO435940  10.565   9.791   9.150
 7096POPC   GL135941  10.544   9.752   8.850
 7096POPC   GL235942  10.460   9.847   8.850
 7096POPC   C1A35943  10.516   9.770   8.550
 7096POPC   D2A35944  10.553   9.785   8.250
 7096POPC   C3A35945  10.568   9.797   7.950
 7096POPC   C4A35946  10.535   9.763   7.650
 7096POPC   C1B35947  10.476   9.961   8.550
 7096POPC   C2B35948  10.471  10.032   8.250
 7096POPC   C3B35949  10.512  10.039   7.950
 7096POPC   C4B35950  10.429   9.972   7.650
 7097POPC   NC335951   2.762  42.358   9.450
 7097POPC   PO435952   2.768  42.351   9.150
 7097POPC   GL135953   2.738  42.383   8.850
 7097POPC   GL235954   2.859  42.263   8.850
 7097POPC   C1A35955   2.808  42.290   8.550
 7097POPC   D2A35956   2.791  42.344   8.250
 7097POPC   C3A35957   2.784  42.379   7.950
 7097POPC   C4A35958   2.766  42.321   7.650
 7097POPC   C1B35959   2.966  42.171   8.550
 7097POPC   C2B35960   2.937  42.139   8.250
 7097POPC   C3B35961   2.950  42.118   7.950
 7097POPC   C4B35962   2.978  42.158   7.650
 7098POPC   NC335963  36.157  19.815   9.450
 7098POPC   PO435964  36.105  19.849   9.150
 7098POPC   GL135965  36.142  19.844   8.850
 7098POPC   GL235966  36.281  19.770   8.850
 7098POPC   C1A35967  36.140  19.831   8.550
 7098POPC   D2A35968  36.133  19.874   8.250
 7098POPC   C3A35969  36.092  19.830   7.950
 7098POPC   C4A35970  36.139  19.787   7.650
 7098POPC   C1B35971  36.358  19.830   8.550
 7098POPC   C2B35972  36.378  19.778   8.250
 7098POPC   C3B35973  36.402  19.816   7.950
 7098POPC   C4B35974  36.378  19.833   7.650
 7099POPC   NC335975  41.600  12.087   9.450
 7099POPC   PO435976  41.558  12.087   9.150
 7099POPC   GL135977  41.545  12.109   8.850
 7099POPC   GL235978  41.662  12.107   8.850
 7099POPC   C1A35979  41.528  12.117   8.550
 7099POPC   D2A35980  41.547  12.073   8.250
 7099POPC   C3A35981  41.547  12.033   7.950
 7099POPC   C4A35982  41.570  12.111   7.650
 7099POPC   C1B35983  41.835  12.123   8.550
 7099POPC   C2B35984  41.839  12.065   8.250
 7099POPC   C3B35985  41.843  12.123   7.950
 7099POPC   C4B35986  41.773  12.129   7.650
 7100POPC   NC335987   1.261  19.842   9.450
 7100POPC   PO435988   1.233  19.828   9.150
 7100POPC   GL135989   1.167  19.811   8.850
 7100POPC   GL235990   1.144  19.818   8.850
 7100POPC   C1A35991   1.191  19.831   8.550
 7100POPC   D2A35992   1.245  19.856   8.250
 7100POPC   C3A35993   1.189  19.838   7.950
 7100POPC   C4A35994   1.186  19.836   7.650
 7100POPC   C1B35995   0.963  19.705   8.550
 7100POPC   C2B35996   1.003  19.773   8.250
 7100POPC   C3B35997   1.007  19.736   7.950
 7100POPC   C4B35998   1.012  19.735   7.650
 7101POPC   NC335999  22.928  26.050   9.450
 7101POPC   PO436000  22.943  25.999   9.150
 7101POPC   GL136001  22.962  26.011   8.850
 7101POPC   GL236002  23.043  26.045   8.850
 7101POPC   C1A36003  22.931  26.073   8.550
 7101POPC   D2A36004  22.977  26.083   8.250
 7101POPC   C3A36005  22.954  26.042   7.950
 7101POPC   C4A36006  22.974  26.066   7.650
 7101POPC   C1B36007  23.158  26.152   8.550
 7101POPC   C2B36008  23.144  26.177   8.250
 7101POPC   C3B36009  23.158  26.148   7.950
 7101POPC   C4B36010  23.136  26.139   7.650
 7102POPC   NC336011  17.473   3.522   9.450
 7102POPC   PO436012  17.476   3.504   9.150
 7102POPC   GL136013  17.541   3.498   8.850
 7102POPC   GL236014  17.519   3.607   8.850
 7102POPC   C1A36015  17.536   3.555   8.550
 7102POPC   D2A36016  17.527   3.505   8.250
 7102POPC   C3A36017  17.524   3.503   7.950
 7102POPC   C4A36018  17.477   3.560   7.650
 7102POPC   C1B36019  17.636   3.751   8.550
 7102POPC   C2B36020  17.661   3.803   8.250
 7102POPC   C3B36021  17.607   3.767   7.950
 7102POPC   C4B36022  17.659   3.793   7.650
 7103POPC   NC336023  40.822  43.095   9.450
 7103POPC   PO436024  40.740  43.143   9.150
 7103POPC   GL136025  40.744  43.114   8.850
 7103POPC   GL236026  40.950  43.175   8.850
 7103POPC   C1A36027  40.742  43.082   8.550
 7103POPC   D2A36028  40.795  43.148   8.250
 7103POPC   C3A36029  40.735  43.123   7.950
 7103POPC   C4A36030  40.777  43.150   7.650
 7103POPC   C1B36031  40.994  43.135   8.550
 7103POPC   C2B36032  41.045  43.221   8.250
 7103POPC   C3B36033  41.009  43.182   7.950
 7103POPC   C4B36034  41.043  43.170   7.650
 7104POPC   NC336035   8.927  11.257   9.450
 7104POPC   PO436036   8.992  11.348   9.150
 7104POPC   GL136037   8.925  11.282   8.850
 7104POPC   GL236038   9.046  11.420   8.850
 7104POPC   C1A36039   8.953  11.261   8.550
 7104POPC   D2A36040   8.983  11.274   8.250
 7104POPC   C3A36041   9.013  11.288   7.950
 7104POPC   C4A36042   9.022  11.321   7.650
 7104POPC   C1B36043   9.150  11.523   8.550
 7104POPC   C2B36044   9.113  11.461   8.250
 7104POPC   C3B36045   9.143  11.522   7.950
 7104POPC   C4B36046   9.088  11.524   7.650
 7105POPC   NC336047  20.632  43.151   9.450
 7105POPC   PO436048  20.659  43.120   9.150
 7105POPC   GL136049  20.653  43.099   8.850
 7105POPC   GL236050  20.689  43.061   8.850
 7105POPC   C1A36051  20.632  43.123   8.550
 7105POPC   D2A36052  20.594  43.140   8.250
 7105POPC   C3A36053  20.600  43.133   7.950
 7105POPC   C4A36054  20.636  43.123   7.650
 7105POPC   C1B36055  20.786  42.997   8.550
 7105POPC   C2B36056  20.822  42.993   8.250
 7105POPC   C3B36057  20.778  42.967   7.950
 7105POPC   C4B36058  20.770  42.905   7.650
 7106POPC   NC336059   9.752  43.072   9.450
 7106POPC   PO436060   9.703  43.110   9.150
 7106POPC   GL136061   9.701  43.071   8.850
 7106POPC   GL236062   9.813  43.223   8.850
 7106POPC   C1A36063   9.755  43.121   8.550
 7106POPC   D2A36064   9.763  43.065   8.250
 7106POPC   C3A36065   9.772  43.064   7.950
 7106POPC   C4A36066   9.763  43.146   7.650
 7106POPC   C1B36067   9.770  43.360   8.550
 7106POPC   C2B36068   9.791  43.313   8.250
 7106POPC   C3B36069   9.818  43.317   7.950
 7106POPC   C4B36070   9.771  43.396   7.650
 7107POPC   NC336071  24.537  16.714   9.450
 7107POPC   PO436072  24.529  16.777   9.150
 7107POPC   GL136073  24.468  16.778   8.850
 7107POPC   GL236074  24.624  16.660   8.850
 7107POPC   C1A36075  24.487  16.762   8.550
 7107POPC   D2A36076  24.511  16.773   8.250
 7107POPC   C3A36077  24.453  16.721   7.950
 7107POPC   C4A36078  24.520  16.780   7.650
 7107POPC   C1B36079  24.693  16.590   8.550
 7107POPC   C2B36080  24.669  16.607   8.250
 7107POPC   C3B36081  24.659  16.549   7.950
 7107POPC   C4B36082  24.650  16.577   7.650
 7108POPC   NC336083  39.212  20.585   9.450
 7108POPC   PO436084  39.243  20.576   9.150
 7108POPC   GL136085  39.244  20.574   8.850
 7108POPC   GL236086  39.210  20.449   8.850
 7108POPC   C1A36087  39.242  20.617   8.550
 7108POPC   D2A36088  39.231  20.603   8.250
 7108POPC   C3A36089  39.227  20.585   7.950
 7108POPC   C4A36090  39.213  20.604   7.650
 7108POPC   C1B36091  39.090  20.333   8.550
 7108POPC   C2B36092  39.173  20.367   8.250
 7108POPC   C3B36093  39.095  20.381   7.950
 7108POPC   C4B36094  39.183  20.422   7.650
 7109POPC   NC336095  21.355  18.241   9.450
 7109POPC   PO436096  21.395  18.331   9.150
 7109POPC   GL136097  21.390  18.249   8.850
 7109POPC   GL236098  21.276  18.266   8.850
 7109POPC   C1A36099  21.388  18.261   8.550
 7109POPC   D2A36100  21.362  18.332   8.250
 7109POPC   C3A36101  21.379  18.269   7.950
 7109POPC   C4A36102  21.427  18.287   7.650
 7109POPC   C1B36103  21.166  18.222   8.550
 7109POPC   C2B36104  21.157  18.216   8.250
 7109POPC   C3B36105  21.188  18.206   7.950
 7109POPC   C4B36106  21.178  18.172   7.650
 7110POPC   NC336107   1.167  41.598   9.450
 7110POPC   PO436108   1.213  41.556   9.150
 7110POPC   GL136109   1.232  41.591   8.850
 7110POPC   GL236110   1.243  41.646   8.850
 7110POPC   C1A36111   1.192  41.526   8.550
 7110POPC   D2A36112   1.185  41.561   8.250
 7110POPC   C3A36113   1.174  41.516   7.950
 7110POPC   C4A36114   1.193  41.588   7.650
 7110POPC   C1B36115   1.288  41.779   8.550
 7110POPC   C2B36116   1.267  41.823   8.250
 7110POPC   C3B36117   1.244  41.759   7.950
 7110POPC   C4B36118   1.311  41.790   7.650
 7111POPC   NC336119   0.425  43.132   9.450
 7111POPC   PO436120   0.427  43.132   9.150
 7111POPC   GL136121   0.455  43.158   8.850
 7111POPC   GL236122   0.454  43.273   8.850
 7111POPC   C1A36123   0.460  43.104   8.550
 7111POPC   D2A36124   0.463  43.157   8.250
 7111POPC   C3A36125   0.426  43.153   7.950
 7111POPC   C4A36126   0.478  43.114   7.650
 7111POPC   C1B36127   0.458  43.320   8.550
 7111POPC   C2B36128   0.397  43.367   8.250
 7111POPC   C3B36129   0.475  43.383   7.950
 7111POPC   C4B36130   0.484  43.369   7.650
 7112POPC   NC336131  22.152   6.597   9.450
 7112POPC   PO436132  22.199   6.618   9.150
 7112POPC   GL136133  22.145   6.679   8.850
 7112POPC   GL236134  21.994   6.619   8.850
 7112POPC   C1A36135  22.208   6.600   8.550
 7112POPC   D2A36136  22.206   6.644   8.250
 7112POPC   C3A36137  22.207   6.610   7.950
 7112POPC   C4A36138  22.143   6.623   7.650
 7112POPC   C1B36139  21.880   6.530   8.550
 7112POPC   C2B36140  21.962   6.577   8.250
 7112POPC   C3B36141  21.902   6.529   7.950
 7112POPC   C4B36142  21.966   6.587   7.650
 7113POPC   NC336143  43.101   6.602   9.450
 7113POPC   PO436144  43.149   6.671   9.150
 7113POPC   GL136145  43.144   6.666   8.850
 7113POPC   GL236146  42.979   6.620   8.850
 7113POPC   C1A36147  43.065   6.607   8.550
 7113POPC   D2A36148  43.148   6.652   8.250
 7113POPC   C3A36149  43.067   6.625   7.950
 7113POPC   C4A36150  43.081   6.665   7.650
 7113POPC   C1B36151  42.891   6.502   8.550
 7113POPC   C2B36152  42.929   6.456   8.250
 7113POPC   C3B36153  42.863   6.465   7.950
 7113POPC   C4B36154  42.898   6.539   7.650
 7114POPC   NC336155  19.059  12.826   9.450
 7114POPC   PO436156  19.038  12.821   9.150
 7114POPC   GL136157  19.089  12.847   8.850
 7114POPC   GL236158  18.940  12.960   8.850
 7114POPC   C1A36159  19.098  12.802   8.550
 7114POPC   D2A36160  19.091  12.811   8.250
 7114POPC   C3A36161  19.096  12.842   7.950
 7114POPC   C4A36162  19.024  12.878   7.650
 7114POPC   C1B36163  18.832  12.938   8.550
 7114POPC   C2B36164  18.847  13.023   8.250
 7114POPC   C3B36165  18.871  12.975   7.950
 7114POPC   C4B36166  18.840  13.027   7.650
 7115POPC   NC336167  31.511  36.122   9.450
 7115POPC   PO436168  31.521  36.085   9.150
 7115POPC   GL136169  31.427  36.109   8.850
 7115POPC   GL236170  31.636  36.123   8.850
 7115POPC   C1A36171  31.432  36.086   8.550
 7115POPC   D2A36172  31.481  36.146   8.250
 7115POPC   C3A36173  31.482  36.090   7.950
 7115POPC   C4A36174  31.493  36.127   7.650
 7115POPC   C1B36175  31.687  36.092   8.550
 7115POPC   C2B36176  31.708  36.124   8.250
 7115POPC   C3B36177  31.731  36.152   7.950
 7115POPC   C4B36178  31.762  36.147   7.650
 7116POPC   NC336179  32.983  10.521   9.450
 7116POPC   PO436180  33.014  10.491   9.150
 7116POPC   GL136181  32.986  10.510   8.850
 7116POPC   GL236182  33.093  10.418   8.850
 7116POPC   C1A36183  32.983  10.502   8.550
 7116POPC   D2A36184  32.974  10.479   8.250
 7116POPC   C3A36185  32.982  10.530   7.950
 7116POPC   C4A36186  33.007  10.541   7.650
 7116POPC   C1B36187  33.126  10.304   8.550
 7116POPC   C2B36188  33.126  10.320   8.250
 7116POPC   C3B36189  33.117  10.288   7.950
 7116POPC   C4B36190  33.127  10.307   7.650
 7117POPC   NC336191  17.553  35.329   9.450
 7117POPC   PO436192  17.482  35.391   9.150
 7117POPC   GL136193  17.461  35.381   8.850
 7117POPC   GL236194  17.408  35.488   8.850
 7117POPC   C1A36195  17.495  35.360   8.550
 7117POPC   D2A36196  17.490  35.353   8.250
 7117POPC   C3A36197  17.535  35.393   7.950
 7117POPC   C4A36198  17.525  35.339   7.650
 7117POPC   C1B36199  17.375  35.594   8.550
 7117POPC   C2B36200  17.383  35.576   8.250
 7117POPC   C3B36201  17.378  35.566   7.950
 7117POPC   C4B36202  17.327  35.551   7.650
 7118POPC   NC336203  33.072  40.779   9.450
 7118POPC   PO436204  33.050  40.742   9.150
 7118POPC   GL136205  33.050  40.833   8.850
 7118POPC   GL236206  32.942  40.784   8.850
 7118POPC   C1A36207  33.011  40.792   8.550
 7118POPC   D2A36208  33.044  40.801   8.250
 7118POPC   C3A36209  33.067  40.733   7.950
 7118POPC   C4A36210  33.030  40.772   7.650
 7118POPC   C1B36211  32.805  40.726   8.550
 7118POPC   C2B36212  32.764  40.686   8.250
 7118POPC   C3B36213  32.791  40.665   7.950
 7118POPC   C4B36214  32.765  40.730   7.650
 7119POPC   NC336215  37.721  36.915   9.450
 7119POPC   PO436216  37.637  36.863   9.150
 7119POPC   GL136217  37.695  36.863   8.850
 7119POPC   GL236218  37.511  36.951   8.850
 7119POPC   C1A36219  37.726  36.874   8.550
 7119POPC   D2A36220  37.729  36.877   8.250
 7119POPC   C3A36221  37.715  36.876   7.950
 7119POPC   C4A36222  37.654  36.944   7.650
 7119POPC   C1B36223  37.417  36.973   8.550
 7119POPC   C2B36224  37.446  36.974   8.250
 7119POPC   C3B36225  37.394  36.912   7.950
 7119POPC   C4B36226  37.405  36.914   7.650
 7120POPC   NC336227  33.026  30.648   9.450
 7120POPC   PO436228  33.060  30.720   9.150
 7120POPC   GL136229  33.048  30.663   8.850
 7120POPC   GL236230  33.109  30.569   8.850
 7120POPC   C1A36231  33.045  30.680   8.550
 7120POPC   D2A36232  33.018  30.662   8.250
 7120POPC   C3A36233  33.047  30.721   7.950
 7120POPC   C4A36234  33.049  30.685   7.650
 7120POPC   C1B36235  33.237  30.555   8.550
 7120POPC   C2B36236  33.151  30.503   8.250
 7120POPC   C3B36237  33.173  30.517   7.950
 7120POPC   C4B36238  33.143  30.495   7.650
 7121POPC   NC336239  30.726  11.329   9.450
 7121POPC   PO436240  30.658  11.333   9.150
 7121POPC   GL136241  30.714  11.252   8.850
 7121POPC   GL236242  30.605  11.211   8.850
 7121POPC   C1A36243  30.698  11.277   8.550
 7121POPC   D2A36244  30.712  11.337   8.250
 7121POPC   C3A36245  30.661  11.277   7.950
 7121POPC   C4A36246  30.652  11.342   7.650
 7121POPC   C1B36247  30.495  11.234   8.550
 7121POPC   C2B36248  30.502  11.164   8.250
 7121POPC   C3B36249  30.482  11.248   7.950
 7121POPC   C4B36250  30.437  11.201   7.650
 7122POPC   NC336251  19.844  43.841   9.450
 7122POPC   PO436252  19.803  43.904   9.150
 7122POPC   GL136253  19.789  43.909   8.850
 7122POPC   GL236254  19.854  43.979   8.850
 7122POPC   C1A36255  19.821  43.871   8.550
 7122POPC   D2A36256  19.814  43.926   8.250
 7122POPC   C3A36257  19.858  43.911   7.950
 7122POPC   C4A36258  19.814  43.838   7.650
 7122POPC   C1B36259  19.871  44.112   8.550
 7122POPC   C2B36260  19.899  44.185   8.250
 7122POPC   C3B36261  19.824  44.139   7.950
 7122POPC   C4B36262  19.825  44.123   7.650
 7123POPC   NC336263  44.664  18.273   9.450
 7123POPC   PO436264  44.677  18.309   9.150
 7123POPC   GL136265  44.622  18.303   8.850
 7123POPC   GL236266  44.659  18.383   8.850
 7123POPC   C1A36267  44.669  18.247   8.550
 7123POPC   D2A36268  44.677  18.327   8.250
 7123POPC   C3A36269  44.614  18.323   7.950
 7123POPC   C4A36270  44.661  18.312   7.650
 7123POPC   C1B36271  44.560  18.483   8.550
 7123POPC   C2B36272  44.610  18.481   8.250
 7123POPC   C3B36273  44.558  18.475   7.950
 7123POPC   C4B36274  44.605  18.547   7.650
 7124POPC   NC336275   8.949  19.104   9.450
 7124POPC   PO436276   8.960  19.034   9.150
 7124POPC   GL136277   8.935  19.074   8.850
 7124POPC   GL236278   9.109  19.042   8.850
 7124POPC   C1A36279   8.922  19.090   8.550
 7124POPC   D2A36280   8.986  19.038   8.250
 7124POPC   C3A36281   8.931  19.016   7.950
 7124POPC   C4A36282   8.997  19.103   7.650
 7124POPC   C1B36283   9.207  19.003   8.550
 7124POPC   C2B36284   9.246  18.993   8.250
 7124POPC   C3B36285   9.173  19.020   7.950
 7124POPC   C4B36286   9.230  18.947   7.650
 7125POPC   NC336287   5.875   9.774   9.450
 7125POPC   PO436288   5.899   9.717   9.150
 7125POPC   GL136289   5.886   9.711   8.850
 7125POPC   GL236290   5.995   9.658   8.850
 7125POPC   C1A36291   5.893   9.746   8.550
 7125POPC   D2A36292   5.903   9.739   8.250
 7125POPC   C3A36293   5.872   9.794   7.950
 7125POPC   C4A36294   5.831   9.753   7.650
 7125POPC   C1B36295   6.080   9.550   8.550
 7125POPC   C2B36296   6.022   9.588   8.250
 7125POPC   C3B36297   6.041   9.576   7.950
 7125POPC   C4B36298   6.085   9.560   7.650
 7126POPC   NC336299  21.369  24.453   9.450
 7126POPC   PO436300  21.430  24.456   9.150
 7126POPC   GL136301  21.407  24.478   8.850
 7126POPC   GL236302  21.510  24.418   8.850
 7126POPC   C1A36303  21.351  24.478   8.550
 7126POPC   D2A36304  21.387  24.442   8.250
 7126POPC   C3A36305  21.365  24.443   7.950
 7126POPC   C4A36306  21.353  24.490   7.650
 7126POPC   C1B36307  21.599  24.380   8.550
 7126POPC   C2B36308  21.580  24.402   8.250
 7126POPC   C3B36309  21.602  24.377   7.950
 7126POPC   C4B36310  21.628  24.378   7.650
 7127POPC   NC336311  15.193  20.568   9.450
 7127POPC   PO436312  15.182  20.573   9.150
 7127POPC   GL136313  15.170  20.610   8.850
 7127POPC   GL236314  15.020  20.527   8.850
 7127POPC   C1A36315  15.162  20.608   8.550
 7127POPC   D2A36316  15.140  20.630   8.250
 7127POPC   C3A36317  15.220  20.595   7.950
 7127POPC   C4A36318  15.157  20.588   7.650
 7127POPC   C1B36319  14.949  20.494   8.550
 7127POPC   C2B36320  14.894  20.569   8.250
 7127POPC   C3B36321  14.984  20.543   7.950
 7127POPC   C4B36322  14.919  20.581   7.650
 7128POPC   NC336323   9.003  13.646   9.450
 7128POPC   PO436324   8.999  13.677   9.150
 7128POPC   GL136325   8.990  13.660   8.850
 7128POPC   GL236326   8.936  13.770   8.850
 7128POPC   C1A36327   9.001  13.603   8.550
 7128POPC   D2A36328   9.002  13.633   8.250
 7128POPC   C3A36329   9.008  13.653   7.950
 7128POPC   C4A36330   8.927  13.579   7.650
 7128POPC   C1B36331   9.006  13.839   8.550
 7128POPC   C2B36332   8.964  13.864   8.250
 7128POPC   C3B36333   9.043  13.918   7.950
 7128POPC   C4B36334   8.996  13.894   7.650
 7129POPC   NC336335   1.252  26.826   9.450
 7129POPC   PO436336   1.232  26.768   9.150
 7129POPC   GL136337   1.223  26.831   8.850
 7129POPC   GL236338   1.186  26.961   8.850
 7129POPC   C1A36339   1.230  26.844   8.550
 7129POPC   D2A36340   1.193  26.856   8.250
 7129POPC   C3A36341   1.214  26.801   7.950
 7129POPC   C4A36342   1.195  26.842   7.650
 7129POPC   C1B36343   1.212  27.070   8.550
 7129POPC   C2B36344   1.181  27.066   8.250
 7129POPC   C3B36345   1.193  27.046   7.950
 7129POPC   C4B36346   1.147  27.103   7.650
 7130POPC   NC336347   9.725   8.989   9.450
 7130POPC   PO436348   9.726   8.958   9.150
 7130POPC   GL136349   9.775   8.930   8.850
 7130POPC   GL236350   9.804   9.056   8.850
 7130POPC   C1A36351   9.764   8.937   8.550
 7130POPC   D2A36352   9.757   9.007   8.250
 7130POPC   C3A36353   9.754   9.017   7.950
 7130POPC   C4A36354   9.759   9.018   7.650
 7130POPC   C1B36355   9.794   9.197   8.550
 7130POPC   C2B36356   9.791   9.215   8.250
 7130POPC   C3B36357   9.779   9.221   7.950
 7130POPC   C4B36358   9.793   9.241   7.650
 7131POPC   NC336359  22.150  19.855   9.450
 7131POPC   PO436360  22.134  19.848   9.150
 7131POPC   GL136361  22.197  19.811   8.850
 7131POPC   GL236362  22.188  19.698   8.850
 7131POPC   C1A36363  22.128  19.859   8.550
 7131POPC   D2A36364  22.203  19.848   8.250
 7131POPC   C3A36365  22.189  19.844   7.950
 7131POPC   C4A36366  22.139  19.798   7.650
 7131POPC   C1B36367  22.152  19.550   8.550
 7131POPC   C2B36368  22.125  19.587   8.250
 7131POPC   C3B36369  22.139  19.599   7.950
 7131POPC   C4B36370  22.131  19.632   7.650
 7132POPC   NC336371   8.946  31.516   9.450
 7132POPC   PO436372   8.936  31.505   9.150
 7132POPC   GL136373   9.007  31.431   8.850
 7132POPC   GL236374   8.884  31.501   8.850
 7132POPC   C1A36375   8.957  31.441   8.550
 7132POPC   D2A36376   8.964  31.509   8.250
 7132POPC   C3A36377   8.995  31.473   7.950
 7132POPC   C4A36378   8.988  31.432   7.650
 7132POPC   C1B36379   8.738  31.530   8.550
 7132POPC   C2B36380   8.711  31.513   8.250
 7132POPC   C3B36381   8.711  31.554   7.950
 7132POPC   C4B36382   8.774  31.580   7.650
 7133POPC   NC336383  36.914   5.911   9.450
 7133POPC   PO436384  36.913   5.839   9.150
 7133POPC   GL136385  36.919   5.835   8.850
 7133POPC   GL236386  37.016   5.853   8.850
 7133POPC   C1A36387  36.951   5.849   8.550
 7133POPC   D2A36388  36.876   5.844   8.250
 7133POPC   C3A36389  36.922   5.890   7.950
 7133POPC   C4A36390  36.897   5.891   7.650
 7133POPC   C1B36391  37.202   5.840   8.550
 7133POPC   C2B36392  37.117   5.838   8.250
 7133POPC   C3B36393  37.124   5.861   7.950
 7133POPC   C4B36394  37.141   5.905   7.650
 7134POPC   NC336395  15.180   2.799   9.450
 7134POPC   PO436396  15.199   2.777   9.150
 7134POPC   GL136397  15.206   2.755   8.850
 7134POPC   GL236398  15.217   2.905   8.850
 7134POPC   C1A36399  15.173   2.800   8.550
 7134POPC   D2A36400  15.161   2.810   8.250
 7134POPC   C3A36401  15.219   2.798   7.950
 7134POPC   C4A36402  15.132   2.794   7.650
 7134POPC   C1B36403  15.157   3.035   8.550
 7134POPC   C2B36404  15.218   3.057   8.250
 7134POPC   C3B36405  15.183   2.970   7.950
 7134POPC   C4B36406  15.221   2.991   7.650
 7135POPC   NC336407  19.856  21.341   9.450
 7135POPC   PO436408  19.818  21.339   9.150
 7135POPC   GL136409  19.821  21.417   8.850
 7135POPC   GL236410  19.976  21.287   8.850
 7135POPC   C1A36411  19.816  21.388   8.550
 7135POPC   D2A36412  19.842  21.430   8.250
 7135POPC   C3A36413  19.833  21.343   7.950
 7135POPC   C4A36414  19.806  21.430   7.650
 7135POPC   C1B36415  20.002  21.223   8.550
 7135POPC   C2B36416  20.002  21.209   8.250
 7135POPC   C3B36417  20.068  21.285   7.950
 7135POPC   C4B36418  20.052  21.273   7.650
 7136POPC   NC336419  44.614  30.681   9.450
 7136POPC   PO436420  44.681  30.652   9.150
 7136POPC   GL136421  44.692  30.667   8.850
 7136POPC   GL236422  44.706  30.613   8.850
 7136POPC   C1A36423  44.669  30.670   8.550
 7136POPC   D2A36424  44.621  30.701   8.250
 7136POPC   C3A36425  44.698  30.696   7.950
 7136POPC   C4A36426  44.649  30.719   7.650
 7136POPC   C1B36427  44.834  30.505   8.550
 7136POPC   C2B36428  44.807  30.504   8.250
 7136POPC   C3B36429  44.817  30.486   7.950
 7136POPC   C4B36430  44.825  30.511   7.650
 7137POPC   NC336431  27.546  17.515   9.450
 7137POPC   PO436432  27.600  17.520   9.150
 7137POPC   GL136433  27.559  17.495   8.850
 7137POPC   GL236434  27.728  17.636   8.850
 7137POPC   C1A36435  27.616  17.495   8.550
 7137POPC   D2A36436  27.605  17.480   8.250
 7137POPC   C3A36437  27.545  17.474   7.950
 7137POPC   C4A36438  27.592  17.471   7.650
 7137POPC   C1B36439  27.738  17.681   8.550
 7137POPC   C2B36440  27.765  17.695   8.250
 7137POPC   C3B36441  27.755  17.632   7.950
 7137POPC   C4B36442  27.732  17.648   7.650
 7138POPC   NC336443   5.880  11.295   9.450
 7138POPC   PO436444   5.917  11.324   9.150
 7138POPC   GL136445   5.913  11.256   8.850
 7138POPC   GL236446   6.023  11.325   8.850
 7138POPC   C1A36447   5.901  11.318   8.550
 7138POPC   D2A36448   5.880  11.304   8.250
 7138POPC   C3A36449   5.870  11.257   7.950
 7138POPC   C4A36450   5.895  11.319   7.650
 7138POPC   C1B36451   6.073  11.405   8.550
 7138POPC   C2B36452   6.061  11.357   8.250
 7138POPC   C3B36453   6.094  11.407   7.950
 7138POPC   C4B36454   6.101  11.425   7.650
 7139POPC   NC336455  36.856  12.116   9.450
 7139POPC   PO436456  36.951  12.076   9.150
 7139POPC   GL136457  36.900  12.052   8.850
 7139POPC   GL236458  36.956  12.105   8.850
 7139POPC   C1A36459  36.882  12.111   8.550
 7139POPC   D2A36460  36.898  12.063   8.250
 7139POPC   C3A36461  36.869  12.076   7.950
 7139POPC   C4A36462  36.857  12.049   7.650
 7139POPC   C1B36463  37.072  12.221   8.550
 7139POPC   C2B36464  37.135  12.190   8.250
 7139POPC   C3B36465  37.104  12.180   7.950
 7139POPC   C4B36466  37.136  12.260   7.650
 7140POPC   NC336467  33.071   2.736   9.450
 7140POPC   PO436468  32.991   2.786   9.150
 7140POPC   GL136469  32.998   2.759   8.850
 7140POPC   GL236470  33.062   2.888   8.850
 7140POPC   C1A36471  33.018   2.779   8.550
 7140POPC   D2A36472  32.977   2.736   8.250
 7140POPC   C3A36473  33.010   2.716   7.950
 7140POPC   C4A36474  33.048   2.727   7.650
 7140POPC   C1B36475  33.084   2.971   8.550
 7140POPC   C2B36476  33.013   3.021   8.250
 7140POPC   C3B36477  33.043   3.008   7.950
 7140POPC   C4B36478  33.001   2.973   7.650
 7141POPC   NC336479  12.085  23.736   9.450
 7141POPC   PO436480  12.122  23.671   9.150
 7141POPC   GL136481  12.077  23.704   8.850
 7141POPC   GL236482  12.150  23.746   8.850
 7141POPC   C1A36483  12.093  23.740   8.550
 7141POPC   D2A36484  12.058  23.763   8.250
 7141POPC   C3A36485  12.117  23.762   7.950
 7141POPC   C4A36486  12.084  23.726   7.650
 7141POPC   C1B36487  12.274  23.838   8.550
 7141POPC   C2B36488  12.292  23.820   8.250
 7141POPC   C3B36489  12.310  23.891   7.950
 7141POPC   C4B36490  12.262  23.881   7.650
 7142POPC   NC336491   8.216  35.378   9.450
 7142POPC   PO436492   8.226  35.390   9.150
 7142POPC   GL136493   8.245  35.361   8.850
 7142POPC   GL236494   8.092  35.392   8.850
 7142POPC   C1A36495   8.185  35.348   8.550
 7142POPC   D2A36496   8.176  35.360   8.250
 7142POPC   C3A36497   8.169  35.333   7.950
 7142POPC   C4A36498   8.224  35.370   7.650
 7142POPC   C1B36499   8.033  35.516   8.550
 7142POPC   C2B36500   7.955  35.474   8.250
 7142POPC   C3B36501   7.957  35.460   7.950
 7142POPC   C4B36502   8.022  35.469   7.650
 7143POPC   NC336503  40.042  29.120   9.450
 7143POPC   PO436504  40.056  29.157   9.150
 7143POPC   GL136505  39.994  29.110   8.850
 7143POPC   GL236506  40.081  29.200   8.850
 7143POPC   C1A36507  40.000  29.137   8.550
 7143POPC   D2A36508  40.042  29.193   8.250
 7143POPC   C3A36509  39.971  29.178   7.950
 7143POPC   C4A36510  39.998  29.182   7.650
 7143POPC   C1B36511  40.270  29.257   8.550
 7143POPC   C2B36512  40.287  29.235   8.250
 7143POPC   C3B36513  40.281  29.225   7.950
 7143POPC   C4B36514  40.281  29.232   7.650
 7144POPC   NC336515  41.542  44.620   9.450
 7144POPC   PO436516  41.527  44.693   9.150
 7144POPC   GL136517  41.555  44.652   8.850
 7144POPC   GL236518  41.439  44.732   8.850
 7144POPC   C1A36519  41.600  44.678   8.550
 7144POPC   D2A36520  41.543  44.636   8.250
 7144POPC   C3A36521  41.599  44.667   7.950
 7144POPC   C4A36522  41.509  44.645   7.650
 7144POPC   C1B36523  41.418  44.784   8.550
 7144POPC   C2B36524  41.373  44.782   8.250
 7144POPC   C3B36525  41.380  44.835   7.950
 7144POPC   C4B36526  41.344  44.783   7.650
 7145POPC   NC336527  33.817   5.050   9.450
 7145POPC   PO436528  33.757   5.067   9.150
 7145POPC   GL136529  33.826   5.089   8.850
 7145POPC   GL236530  33.881   4.989   8.850
 7145POPC   C1A36531  33.810   5.070   8.550
 7145POPC   D2A36532  33.849   5.087   8.250
 7145POPC   C3A36533  33.805   5.109   7.950
 7145POPC   C4A36534  33.761   5.044   7.650
 7145POPC   C1B36535  33.930   4.861   8.550
 7145POPC   C2B36536  33.914   4.847   8.250
 7145POPC   C3B36537  33.918   4.880   7.950
 7145POPC   C4B36538  33.938   4.907   7.650
 7146POPC   NC336539  10.565   8.160   9.450
 7146POPC   PO436540  10.500   8.155   9.150
 7146POPC   GL136541  10.507   8.238   8.850
 7146POPC   GL236542  10.652   8.274   8.850
 7146POPC   C1A36543  10.515   8.233   8.550
 7146POPC   D2A36544  10.477   8.152   8.250
 7146POPC   C3A36545  10.525   8.202   7.950
 7146POPC   C4A36546  10.546   8.194   7.650
 7146POPC   C1B36547  10.702   8.349   8.550
 7146POPC   C2B36548  10.738   8.353   8.250
 7146POPC   C3B36549  10.724   8.303   7.950
 7146POPC   C4B36550  10.764   8.300   7.650
 7147POPC   NC336551  27.550  22.200   9.450
 7147POPC   PO436552  27.630  22.209   9.150
 7147POPC   GL136553  27.572  22.205   8.850
 7147POPC   GL236554  27.680  22.027   8.850
 7147POPC   C1A36555  27.557  22.151   8.550
 7147POPC   D2A36556  27.606  22.130   8.250
 7147POPC   C3A36557  27.594  22.195   7.950
 7147POPC   C4A36558  27.579  22.184   7.650
 7147POPC   C1B36559  27.700  21.892   8.550
 7147POPC   C2B36560  27.746  21.887   8.250
 7147POPC   C3B36561  27.690  21.890   7.950
 7147POPC   C4B36562  27.676  21.959   7.650
 7148POPC   NC336563  27.635  14.451   9.450
 7148POPC   PO436564  27.615  14.355   9.150
 7148POPC   GL136565  27.605  14.385   8.850
 7148POPC   GL236566  27.441  14.434   8.850
 7148POPC   C1A36567  27.557  14.437   8.550
 7148POPC   D2A36568  27.577  14.442   8.250
 7148POPC   C3A36569  27.621  14.394   7.950
 7148POPC   C4A36570  27.548  14.377   7.650
 7148POPC   C1B36571  27.306  14.422   8.550
 7148POPC   C2B36572  27.375  14.495   8.250
 7148POPC   C3B36573  27.342  14.472   7.950
 7148POPC   C4B36574  27.311  14.452   7.650
 7149POPC   NC336575  29.103   6.607   9.450
 7149POPC   PO436576  29.112   6.670   9.150
 7149POPC   GL136577  29.150   6.679   8.850
 7149POPC   GL236578  29.012   6.697   8.850
 7149POPC   C1A36579  29.158   6.692   8.550
 7149POPC   D2A36580  29.133   6.635   8.250
 7149POPC   C3A36581  29.152   6.688   7.950
 7149POPC   C4A36582  29.192   6.608   7.650
 7149POPC   C1B36583  28.922   6.776   8.550
 7149POPC   C2B36584  28.937   6.833   8.250
 7149POPC   C3B36585  28.968   6.842   7.950
 7149POPC   C4B36586  28.920   6.810   7.650
 7150POPC   NC336587  31.431  14.413   9.450
 7150POPC   PO436588  31.456  14.415   9.150
 7150POPC   GL136589  31.490  14.373   8.850
 7150POPC   GL236590  31.441  14.266   8.850
 7150POPC   C1A36591  31.514  14.428   8.550
 7150POPC   D2A36592  31.430  14.371   8.250
 7150POPC   C3A36593  31.428  14.413   7.950
 7150POPC   C4A36594  31.477  14.399   7.650
 7150POPC   C1B36595  31.333  14.200   8.550
 7150POPC   C2B36596  31.387  14.222   8.250
 7150POPC   C3B36597  31.368  14.161   7.950
 7150POPC   C4B36598  31.336  14.184   7.650
 7151POPC   NC336599  36.144  36.114   9.450
 7151POPC   PO436600  36.097  36.144   9.150
 7151POPC   GL136601  36.111  36.093   8.850
 7151POPC   GL236602  36.190  36.028   8.850
 7151POPC   C1A36603  36.109  36.170   8.550
 7151POPC   D2A36604  36.115  36.092   8.250
 7151POPC   C3A36605  36.155  36.094   7.950
 7151POPC   C4A36606  36.122  36.155   7.650
 7151POPC   C1B36607  36.252  35.865   8.550
 7151POPC   C2B36608  36.234  35.946   8.250
 7151POPC   C3B36609  36.245  35.931   7.950
 7151POPC   C4B36610  36.277  35.863   7.650
 7152POPC   NC336611  33.772  15.925   9.450
 7152POPC   PO436612  33.754  15.911   9.150
 7152POPC   GL136613  33.847  15.995   8.850
 7152POPC   GL236614  33.696  15.933   8.850
 7152POPC   C1A36615  33.759  15.991   8.550
 7152POPC   D2A36616  33.795  15.936   8.250
 7152POPC   C3A36617  33.786  15.931   7.950
 7152POPC   C4A36618  33.789  15.915   7.650
 7152POPC   C1B36619  33.512  15.963   8.550
 7152POPC   C2B36620  33.534  15.992   8.250
 7152POPC   C3B36621  33.537  15.935   7.950
 7152POPC   C4B36622  33.567  15.975   7.650
 7153POPC   NC336623  29.168  17.554   9.450
 7153POPC   PO436624  29.124  17.530   9.150
 7153POPC   GL136625  29.098  17.470   8.850
 7153POPC   GL236626  29.071  17.644   8.850
 7153POPC   C1A36627  29.119  17.514   8.550
 7153POPC   D2A36628  29.139  17.521   8.250
 7153POPC   C3A36629  29.132  17.485   7.950
 7153POPC   C4A36630  29.132  17.543   7.650
 7153POPC   C1B36631  28.998  17.698   8.550
 7153POPC   C2B36632  29.009  17.730   8.250
 7153POPC   C3B36633  28.978  17.729   7.950
 7153POPC   C4B36634  28.956  17.687   7.650
 7154POPC   NC336635  12.038  31.470   9.450
 7154POPC   PO436636  12.044  31.512   9.150
 7154POPC   GL136637  12.035  31.496   8.850
 7154POPC   GL236638  11.975  31.431   8.850
 7154POPC   C1A36639  12.051  31.483   8.550
 7154POPC   D2A36640  12.075  31.461   8.250
 7154POPC   C3A36641  12.074  31.447   7.950
 7154POPC   C4A36642  12.095  31.439   7.650
 7154POPC   C1B36643  11.837  31.446   8.550
 7154POPC   C2B36644  11.871  31.378   8.250
 7154POPC   C3B36645  11.831  31.401   7.950
 7154POPC   C4B36646  11.823  31.420   7.650
 7155POPC   NC336647  27.584  26.796   9.450
 7155POPC   PO436648  27.643  26.771   9.150
 7155POPC   GL136649  27.557  26.795   8.850
 7155POPC   GL236650  27.459  26.779   8.850
 7155POPC   C1A36651  27.640  26.862   8.550
 7155POPC   D2A36652  27.641  26.779   8.250
 7155POPC   C3A36653  27.623  26.825   7.950
 7155POPC   C4A36654  27.579  26.777   7.650
 7155POPC   C1B36655  27.384  26.733   8.550
 7155POPC   C2B36656  27.390  26.737   8.250
 7155POPC   C3B36657  27.407  26.695   7.950
 7155POPC   C4B36658  27.405  26.725   7.650
 7156POPC   NC336659  29.134  22.926   9.450
 7156POPC   PO436660  29.149  22.978   9.150
 7156POPC   GL136661  29.116  22.929   8.850
 7156POPC   GL236662  29.285  22.917   8.850
 7156POPC   C1A36663  29.103  22.933   8.550
 7156POPC   D2A36664  29.165  22.933   8.250
 7156POPC   C3A36665  29.194  22.981   7.950
 7156POPC   C4A36666  29.140  22.937   7.650
 7156POPC   C1B36667  29.421  22.940   8.550
 7156POPC   C2B36668  29.343  22.929   8.250
 7156POPC   C3B36669  29.438  22.987   7.950
 7156POPC   C4B36670  29.406  22.922   7.650
 7157POPC   NC336671   5.103  41.509   9.450
 7157POPC   PO436672   5.080  41.514   9.150
 7157POPC   GL136673   5.095  41.528   8.850
 7157POPC   GL236674   4.995  41.624   8.850
 7157POPC   C1A36675   5.096  41.535   8.550
 7157POPC   D2A36676   5.093  41.510   8.250
 7157POPC   C3A36677   5.066  41.604   7.950
 7157POPC   C4A36678   5.066  41.557   7.650
 7157POPC   C1B36679   4.898  41.665   8.550
 7157POPC   C2B36680   4.862  41.700   8.250
 7157POPC   C3B36681   4.850  41.721   7.950
 7157POPC   C4B36682   4.909  41.663   7.650
 7158POPC   NC336683  21.350   2.756   9.450
 7158POPC   PO436684  21.347   2.719   9.150
 7158POPC   GL136685  21.423   2.743   8.850
 7158POPC   GL236686  21.382   2.610   8.850
 7158POPC   C1A36687  21.400   2.775   8.550
 7158POPC   D2A36688  21.392   2.765   8.250
 7158POPC   C3A36689  21.404   2.733   7.950
 7158POPC   C4A36690  21.428   2.789   7.650
 7158POPC   C1B36691  21.442   2.500   8.550
 7158POPC   C2B36692  21.444   2.555   8.250
 7158POPC   C3B36693  21.440   2.539   7.950
 7158POPC   C4B36694  21.436   2.469   7.650
 7159POPC   NC336695   7.416  37.727   9.450
 7159POPC   PO436696   7.469  37.696   9.150
 7159POPC   GL136697   7.435  37.723   8.850
 7159POPC   GL236698   7.552  37.779   8.850
 7159POPC   C1A36699   7.448  37.685   8.550
 7159POPC   D2A36700   7.443  37.707   8.250
 7159POPC   C3A36701   7.423  37.701   7.950
 7159POPC   C4A36702   7.373  37.707   7.650
 7159POPC   C1B36703   7.652  37.841   8.550
 7159POPC   C2B36704   7.633  37.810   8.250
 7159POPC   C3B36705   7.632  37.833   7.950
 7159POPC   C4B36706   7.650  37.848   7.650
 7160POPC   NC336707  38.475  37.727   9.450
 7160POPC   PO436708  38.448  37.665   9.150
 7160POPC   GL136709  38.439  37.670   8.850
 7160POPC   GL236710  38.483  37.844   8.850
 7160POPC   C1A36711  38.424  37.727   8.550
 7160POPC   D2A36712  38.410  37.703   8.250
 7160POPC   C3A36713  38.422  37.681   7.950
 7160POPC   C4A36714  38.492  37.636   7.650
 7160POPC   C1B36715  38.440  37.916   8.550
 7160POPC   C2B36716  38.497  37.915   8.250
 7160POPC   C3B36717  38.505  37.884   7.950
 7160POPC   C4B36718  38.474  37.954   7.650
 7161POPC   NC336719  12.084  29.918   9.450
 7161POPC   PO436720  12.042  29.921   9.150
 7161POPC   GL136721  12.082  29.899   8.850
 7161POPC   GL236722  12.128  29.995   8.850
 7161POPC   C1A36723  12.089  29.969   8.550
 7161POPC   D2A36724  12.054  29.946   8.250
 7161POPC   C3A36725  12.061  29.925   7.950
 7161POPC   C4A36726  12.110  29.915   7.650
 7161POPC   C1B36727  12.214  30.142   8.550
 7161POPC   C2B36728  12.253  30.112   8.250
 7161POPC   C3B36729  12.213  30.101   7.950
 7161POPC   C4B36730  12.224  30.064   7.650
 7162POPC   NC336731  18.308  33.046   9.450
 7162POPC   PO436732  18.328  32.986   9.150
 7162POPC   GL136733  18.266  32.989   8.850
 7162POPC   GL236734  18.417  32.984   8.850
 7162POPC   C1A36735  18.320  33.013   8.550
 7162POPC   D2A36736  18.261  33.039   8.250
 7162POPC   C3A36737  18.301  33.061   7.950
 7162POPC   C4A36738  18.310  33.034   7.650
 7162POPC   C1B36739  18.564  32.942   8.550
 7162POPC   C2B36740  18.524  32.977   8.250
 7162POPC   C3B36741  18.519  32.948   7.950
 7162POPC   C4B36742  18.532  32.974   7.650
 7163POPC   NC336743  13.675  22.120   9.450
 7163POPC   PO436744  13.585  22.209   9.150
 7163POPC   GL136745  13.608  22.190   8.850
 7163POPC   GL236746  13.577  22.281   8.850
 7163POPC   C1A36747  13.672  22.186   8.550
 7163POPC   D2A36748  13.635  22.124   8.250
 7163POPC   C3A36749  13.667  22.121   7.950
 7163POPC   C4A36750  13.608  22.133   7.650
 7163POPC   C1B36751  13.411  22.326   8.550
 7163POPC   C2B36752  13.453  22.309   8.250
 7163POPC   C3B36753  13.401  22.327   7.950
 7163POPC   C4B36754  13.431  22.305   7.650
 7164POPC   NC336755  21.417  11.265   9.450
 7164POPC   PO436756  21.396  11.255   9.150
 7164POPC   GL136757  21.378  11.321   8.850
 7164POPC   GL236758  21.494  11.259   8.850
 7164POPC   C1A36759  21.400  11.279   8.550
 7164POPC   D2A36760  21.370  11.265   8.250
 7164POPC   C3A36761  21.419  11.319   7.950
 7164POPC   C4A36762  21.353  11.320   7.650
 7164POPC   C1B36763  21.607  11.223   8.550
 7164POPC   C2B36764  21.616  11.238   8.250
 7164POPC   C3B36765  21.598  11.278   7.950
 7164POPC   C4B36766  21.627  11.299   7.650
 7165POPC   NC336767   1.242  43.881   9.450
 7165POPC   PO436768   1.234  43.893   9.150
 7165POPC   GL136769   1.234  43.855   8.850
 7165POPC   GL236770   1.112  43.899   8.850
 7165POPC   C1A36771   1.176  43.930   8.550
 7165POPC   D2A36772   1.246  43.933   8.250
 7165POPC   C3A36773   1.198  43.885   7.950
 7165POPC   C4A36774   1.182  43.864   7.650
 7165POPC   C1B36775   1.010  43.881   8.550
 7165POPC   C2B36776   0.953  43.916   8.250
 7165POPC   C3B36777   1.003  43.859   7.950
 7165POPC   C4B36778   0.979  43.908   7.650
 7166POPC   NC336779  29.889  29.903   9.450
 7166POPC   PO436780  29.892  29.874   9.150
 7166POPC   GL136781  29.883  29.966   8.850
 7166POPC   GL236782  29.984  29.755   8.850
 7166POPC   C1A36783  29.965  29.932   8.550
 7166POPC   D2A36784  29.921  29.911   8.250
 7166POPC   C3A36785  29.970  29.885   7.950
 7166POPC   C4A36786  29.915  29.927   7.650
 7166POPC   C1B36787  29.998  29.716   8.550
 7166POPC   C2B36788  29.990  29.638   8.250
 7166POPC   C3B36789  30.008  29.669   7.950
 7166POPC   C4B36790  29.961  29.659   7.650
 7167POPC   NC336791   0.470  31.426   9.450
 7167POPC   PO436792   0.459  31.484   9.150
 7167POPC   GL136793   0.396  31.422   8.850
 7167POPC   GL236794   0.338  31.471   8.850
 7167POPC   C1A36795   0.398  31.442   8.550
 7167POPC   D2A36796   0.411  31.489   8.250
 7167POPC   C3A36797   0.409  31.441   7.950
 7167POPC   C4A36798   0.477  31.423   7.650
 7167POPC   C1B36799   0.169  31.518   8.550
 7167POPC   C2B36800   0.187  31.539   8.250
 7167POPC   C3B36801   0.182  31.551   7.950
 7167POPC   C4B36802   0.184  31.509   7.650
 7168POPC   NC336803  15.950  34.551   9.450
 7168POPC   PO436804  15.958  34.579   9.150
 7168POPC   GL136805  15.942  34.623   8.850
 7168POPC   GL236806  16.009  34.483   8.850
 7168POPC   C1A36807  15.986  34.583   8.550
 7168POPC   D2A36808  15.915  34.621   8.250
 7168POPC   C3A36809  15.963  34.548   7.950
 7168POPC   C4A36810  15.959  34.543   7.650
 7168POPC   C1B36811  16.119  34.373   8.550
 7168POPC   C2B36812  16.131  34.404   8.250
 7168POPC   C3B36813  16.100  34.386   7.950
 7168POPC   C4B36814  16.151  34.357   7.650
 7169POPC   NC336815  37.689  15.937   9.450
 7169POPC   PO436816  37.654  15.992   9.150
 7169POPC   GL136817  37.726  15.979   8.850
 7169POPC   GL236818  37.522  15.978   8.850
 7169POPC   C1A36819  37.729  15.957   8.550
 7169POPC   D2A36820  37.710  15.921   8.250
 7169POPC   C3A36821  37.664  15.958   7.950
 7169POPC   C4A36822  37.648  15.952   7.650
 7169POPC   C1B36823  37.402  15.880   8.550
 7169POPC   C2B36824  37.467  15.919   8.250
 7169POPC   C3B36825  37.424  15.901   7.950
 7169POPC   C4B36826  37.476  15.883   7.650
 7170POPC   NC336827  38.416  21.388   9.450
 7170POPC   PO436828  38.497  21.357   9.150
 7170POPC   GL136829  38.407  21.359   8.850
 7170POPC   GL236830  38.443  21.239   8.850
 7170POPC   C1A36831  38.472  21.389   8.550
 7170POPC   D2A36832  38.477  21.358   8.250
 7170POPC   C3A36833  38.490  21.365   7.950
 7170POPC   C4A36834  38.478  21.428   7.650
 7170POPC   C1B36835  38.452  21.125   8.550
 7170POPC   C2B36836  38.472  21.135   8.250
 7170POPC   C3B36837  38.511  21.106   7.950
 7170POPC   C4B36838  38.529  21.151   7.650
 7171POPC   NC336839   9.022  12.823   9.450
 7171POPC   PO436840   9.011  12.838   9.150
 7171POPC   GL136841   9.000  12.839   8.850
 7171POPC   GL236842   9.084  12.939   8.850
 7171POPC   C1A36843   9.008  12.841   8.550
 7171POPC   D2A36844   8.978  12.860   8.250
 7171POPC   C3A36845   8.929  12.890   7.950
 7171POPC   C4A36846   8.947  12.881   7.650
 7171POPC   C1B36847   9.246  12.958   8.550
 7171POPC   C2B36848   9.194  12.915   8.250
 7171POPC   C3B36849   9.193  12.912   7.950
 7171POPC   C4B36850   9.221  12.971   7.650
 7172POPC   NC336851  43.852  24.524   9.450
 7172POPC   PO436852  43.902  24.463   9.150
 7172POPC   GL136853  43.848  24.495   8.850
 7172POPC   GL236854  43.783  24.372   8.850
 7172POPC   C1A36855  43.905  24.529   8.550
 7172POPC   D2A36856  43.903  24.500   8.250
 7172POPC   C3A36857  43.915  24.449   7.950
 7172POPC   C4A36858  43.889  24.503   7.650
 7172POPC   C1B36859  43.698  24.264   8.550
 7172POPC   C2B36860  43.758  24.264   8.250
 7172POPC   C3B36861  43.738  24.305   7.950
 7172POPC   C4B36862  43.691  24.321   7.650
 7173POPC   NC336863  26.003   6.610   9.450
 7173POPC   PO436864  26.072   6.670   9.150
 7173POPC   GL136865  26.080   6.620   8.850
 7173POPC   GL236866  26.194   6.576   8.850
 7173POPC   C1A36867  26.018   6.667   8.550
 7173POPC   D2A36868  26.013   6.667   8.250
 7173POPC   C3A36869  26.049   6.595   7.950
 7173POPC   C4A36870  26.062   6.602   7.650
 7173POPC   C1B36871  26.252   6.552   8.550
 7173POPC   C2B36872  26.201   6.541   8.250
 7173POPC   C3B36873  26.294   6.458   7.950
 7173POPC   C4B36874  26.234   6.459   7.650
 7174POPC   NC336875  38.488  12.062   9.450
 7174POPC   PO436876  38.482  12.075   9.150
 7174POPC   GL136877  38.500  12.062   8.850
 7174POPC   GL236878  38.424  12.010   8.850
 7174POPC   C1A36879  38.452  12.063   8.550
 7174POPC   D2A36880  38.453  12.103   8.250
 7174POPC   C3A36881  38.441  12.026   7.950
 7174POPC   C4A36882  38.460  12.041   7.650
 7174POPC   C1B36883  38.328  11.845   8.550
 7174POPC   C2B36884  38.265  11.865   8.250
 7174POPC   C3B36885  38.278  11.882   7.950
 7174POPC   C4B36886  38.260  11.907   7.650
 7175POPC   NC336887  18.315  43.892   9.450
 7175POPC   PO436888  18.302  43.892   9.150
 7175POPC   GL136889  18.301  43.858   8.850
 7175POPC   GL236890  18.392  43.809   8.850
 7175POPC   C1A36891  18.297  43.853   8.550
 7175POPC   D2A36892  18.255  43.934   8.250
 7175POPC   C3A36893  18.295  43.859   7.950
 7175POPC   C4A36894  18.317  43.890   7.650
 7175POPC   C1B36895  18.537  43.838   8.550
 7175POPC   C2B36896  18.571  43.849   8.250
 7175POPC   C3B36897  18.498  43.828   7.950
 7175POPC   C4B36898  18.507  43.836   7.650
 7176POPC   NC336899  20.653  39.981   9.450
 7176POPC   PO436900  20.621  39.984   9.150
 7176POPC   GL136901  20.632  39.982   8.850
 7176POPC   GL236902  20.517  39.950   8.850
 7176POPC   C1A36903  20.635  39.990   8.550
 7176POPC   D2A36904  20.565  40.026   8.250
 7176POPC   C3A36905  20.603  39.992   7.950
 7176POPC   C4A36906  20.577  39.970   7.650
 7176POPC   C1B36907  20.437  39.893   8.550
 7176POPC   C2B36908  20.421  39.890   8.250
 7176POPC   C3B36909  20.394  39.878   7.950
 7176POPC   C4B36910  20.391  39.865   7.650
 7177POPC   NC336911  29.166  13.638   9.450
 7177POPC   PO436912  29.103  13.637   9.150
 7177POPC   GL136913  29.111  13.598   8.850
 7177POPC   GL236914  29.130  13.724   8.850
 7177POPC   C1A36915  29.143  13.597   8.550
 7177POPC   D2A36916  29.110  13.610   8.250
 7177POPC   C3A36917  29.131  13.667   7.950
 7177POPC   C4A36918  29.146  13.611   7.650
 7177POPC   C1B36919  29.201  13.884   8.550
 7177POPC   C2B36920  29.182  13.845   8.250
 7177POPC   C3B36921  29.107  13.834   7.950
 7177POPC   C4B36922  29.179  13.840   7.650
 7178POPC   NC336923   9.752  15.136   9.450
 7178POPC   PO436924   9.734  15.138   9.150
 7178POPC   GL136925   9.765  15.174   8.850
 7178POPC   GL236926   9.638  15.175   8.850
 7178POPC   C1A36927   9.709  15.139   8.550
 7178POPC   D2A36928   9.771  15.174   8.250
 7178POPC   C3A36929   9.796  15.192   7.950
 7178POPC   C4A36930   9.782  15.150   7.650
 7178POPC   C1B36931   9.474  15.159   8.550
 7178POPC   C2B36932   9.489  15.168   8.250
 7178POPC   C3B36933   9.529  15.139   7.950
 7178POPC   C4B36934   9.549  15.148   7.650
 7179POPC   NC336935  20.570  44.705   9.450
 7179POPC   PO436936  20.567  44.675   9.150
 7179POPC   GL136937  20.601  44.687   8.850
 7179POPC   GL236938  20.520  44.754   8.850
 7179POPC   C1A36939  20.619  44.653   8.550
 7179POPC   D2A36940  20.593  44.699   8.250
 7179POPC   C3A36941  20.601  44.623   7.950
 7179POPC   C4A36942  20.563  44.686   7.650
 7179POPC   C1B36943  20.534  44.855   8.550
 7179POPC   C2B36944  20.440  44.896   8.250
 7179POPC   C3B36945  20.497  44.838   7.950
 7179POPC   C4B36946  20.494  44.918   7.650
 7180POPC   NC336947  31.436  34.589   9.450
 7180POPC   PO436948  31.504  34.575   9.150
 7180POPC   GL136949  31.442  34.620   8.850
 7180POPC   GL236950  31.414  34.455   8.850
 7180POPC   C1A36951  31.484  34.622   8.550
 7180POPC   D2A36952  31.468  34.568   8.250
 7180POPC   C3A36953  31.482  34.610   7.950
 7180POPC   C4A36954  31.454  34.592   7.650
 7180POPC   C1B36955  31.375  34.328   8.550
 7180POPC   C2B36956  31.329  34.334   8.250
 7180POPC   C3B36957  31.330  34.364   7.950
 7180POPC   C4B36958  31.302  34.308   7.650
 7181POPC   NC336959   8.983  40.771   9.450
 7181POPC   PO436960   8.964  40.734   9.150
 7181POPC   GL136961   8.924  40.750   8.850
 7181POPC   GL236962   8.967  40.702   8.850
 7181POPC   C1A36963   9.014  40.743   8.550
 7181POPC   D2A36964   8.952  40.817   8.250
 7181POPC   C3A36965   8.983  40.821   7.950
 7181POPC   C4A36966   8.995  40.755   7.650
 7181POPC   C1B36967   9.012  40.540   8.550
 7181POPC   C2B36968   9.010  40.576   8.250
 7181POPC   C3B36969   8.935  40.526   7.950
 7181POPC   C4B36970   8.998  40.575   7.650
 7182POPC   NC336971  36.145  22.132   9.450
 7182POPC   PO436972  36.176  22.208   9.150
 7182POPC   GL136973  36.083  22.137   8.850
 7182POPC   GL236974  36.092  22.309   8.850
 7182POPC   C1A36975  36.087  22.204   8.550
 7182POPC   D2A36976  36.084  22.121   8.250
 7182POPC   C3A36977  36.173  22.188   7.950
 7182POPC   C4A36978  36.078  22.183   7.650
 7182POPC   C1B36979  36.068  22.457   8.550
 7182POPC   C2B36980  36.066  22.408   8.250
 7182POPC   C3B36981  36.070  22.454   7.950
 7182POPC   C4B36982  36.125  22.394   7.650
 7183POPC   NC336983  11.272  14.422   9.450
 7183POPC   PO436984  11.279  14.374   9.150
 7183POPC   GL136985  11.296  14.360   8.850
 7183POPC   GL236986  11.407  14.404   8.850
 7183POPC   C1A36987  11.304  14.374   8.550
 7183POPC   D2A36988  11.323  14.444   8.250
 7183POPC   C3A36989  11.262  14.446   7.950
 7183POPC   C4A36990  11.280  14.419   7.650
 7183POPC   C1B36991  11.504  14.319   8.550
 7183POPC   C2B36992  11.568  14.358   8.250
 7183POPC   C3B36993  11.510  14.331   7.950
 7183POPC   C4B36994  11.545  14.321   7.650
 7184POPC   NC336995  11.265  36.126   9.450
 7184POPC   PO436996  11.324  36.144   9.150
 7184POPC   GL136997  11.305  36.128   8.850
 7184POPC   GL236998  11.225  36.277   8.850
 7184POPC   C1A36999  11.346  36.114   8.550
 7184POPC   D2A37000  11.265  36.109   8.250
 7184POPC   C3A37001  11.311  36.111   7.950
 7184POPC   C4A37002  11.272  36.100   7.650
 7184POPC   C1B37003  11.222  36.391   8.550
 7184POPC   C2B37004  11.245  36.370   8.250
 7184POPC   C3B37005  11.257  36.341   7.950
 7184POPC   C4B37006  11.290  36.328   7.650
 7185POPC   NC337007  41.595  34.601   9.450
 7185POPC   PO437008  41.517  34.550   9.150
 7185POPC   GL137009  41.559  34.580   8.850
 7185POPC   GL237010  41.477  34.520   8.850
 7185POPC   C1A37011  41.568  34.575   8.550
 7185POPC   D2A37012  41.561  34.536   8.250
 7185POPC   C3A37013  41.560  34.564   7.950
 7185POPC   C4A37014  41.576  34.569   7.650
 7185POPC   C1B37015  41.405  34.439   8.550
 7185POPC   C2B37016  41.373  34.470   8.250
 7185POPC   C3B37017  41.317  34.441   7.950
 7185POPC   C4B37018  41.378  34.455   7.650
 7186POPC   NC337019  34.571   4.277   9.450
 7186POPC   PO437020  34.573   4.276   9.150
 7186POPC   GL137021  34.580   4.321   8.850
 7186POPC   GL237022  34.655   4.188   8.850
 7186POPC   C1A37023  34.534   4.293   8.550
 7186POPC   D2A37024  34.535   4.334   8.250
 7186POPC   C3A37025  34.583   4.362   7.950
 7186POPC   C4A37026  34.565   4.353   7.650
 7186POPC   C1B37027  34.685   4.120   8.550
 7186POPC   C2B37028  34.695   4.073   8.250
 7186POPC   C3B37029  34.674   4.113   7.950
 7186POPC   C4B37030  34.702   4.087   7.650
 7187POPC   NC337031  32.288   5.895   9.450
 7187POPC   PO437032  32.260   5.883   9.150
 7187POPC   GL137033  32.245   5.865   8.850
 7187POPC   GL237034  32.216   5.983   8.850
 7187POPC   C1A37035  32.292   5.871   8.550
 7187POPC   D2A37036  32.200   5.838   8.250
 7187POPC   C3A37037  32.239   5.887   7.950
 7187POPC   C4A37038  32.269   5.828   7.650
 7187POPC   C1B37039  32.203   6.147   8.550
 7187POPC   C2B37040  32.193   6.105   8.250
 7187POPC   C3B37041  32.169   6.143   7.950
 7187POPC   C4B37042  32.210   6.129   7.650
 7188POPC   NC337043   2.031   4.319   9.450
 7188POPC   PO437044   2.021   4.302   9.150
 7188POPC   GL137045   2.035   4.298   8.850
 7188POPC   GL237046   2.024   4.222   8.850
 7188POPC   C1A37047   2.034   4.350   8.550
 7188POPC   D2A37048   2.032   4.341   8.250
 7188POPC   C3A37049   1.940   4.277   7.950
 7188POPC   C4A37050   1.981   4.343   7.650
 7188POPC   C1B37051   2.101   4.074   8.550
 7188POPC   C2B37052   2.164   4.110   8.250
 7188POPC   C3B37053   2.170   4.156   7.950
 7188POPC   C4B37054   2.087   4.061   7.650
 7189POPC   NC337055   6.662  40.039   9.450
 7189POPC   PO437056   6.617  39.968   9.150
 7189POPC   GL137057   6.685  40.010   8.850
 7189POPC   GL237058   6.576  39.932   8.850
 7189POPC   C1A37059   6.620  40.005   8.550
 7189POPC   D2A37060   6.626  40.009   8.250
 7189POPC   C3A37061   6.604  40.011   7.950
 7189POPC   C4A37062   6.690  40.014   7.650
 7189POPC   C1B37063   6.555  39.788   8.550
 7189POPC   C2B37064   6.531  39.765   8.250
 7189POPC   C3B37065   6.609  39.723   7.950
 7189POPC   C4B37066   6.564  39.740   7.650
 7190POPC   NC337067  15.176  30.729   9.450
 7190POPC   PO437068  15.195  30.660   9.150
 7190POPC   GL137069  15.197  30.682   8.850
 7190POPC   GL237070  15.315  30.601   8.850
 7190POPC   C1A37071  15.219  30.730   8.550
 7190POPC   D2A37072  15.199  30.671   8.250
 7190POPC   C3A37073  15.139  30.655   7.950
 7190POPC   C4A37074  15.177  30.723   7.650
 7190POPC   C1B37075  15.435  30.567   8.550
 7190POPC   C2B37076  15.390  30.617   8.250
 7190POPC   C3B37077  15.412  30.572   7.950
 7190POPC   C4B37078  15.380  30.590   7.650
 7191POPC   NC337079  13.629   3.501   9.450
 7191POPC   PO437080  13.587   3.567   9.150
 7191POPC   GL137081  13.581   3.583   8.850
 7191POPC   GL237082  13.612   3.452   8.850
 7191POPC   C1A37083  13.611   3.587   8.550
 7191POPC   D2A37084  13.616   3.581   8.250
 7191POPC   C3A37085  13.676   3.543   7.950
 7191POPC   C4A37086  13.640   3.582   7.650
 7191POPC   C1B37087  13.583   3.278   8.550
 7191POPC   C2B37088  13.533   3.334   8.250
 7191POPC   C3B37089  13.573   3.323   7.950
 7191POPC   C4B37090  13.526   3.314   7.650
 7192POPC   NC337091  39.209  15.940   9.450
 7192POPC   PO437092  39.217  15.945   9.150
 7192POPC   GL137093  39.276  15.943   8.850
 7192POPC   GL237094  39.172  15.893   8.850
 7192POPC   C1A37095  39.272  15.973   8.550
 7192POPC   D2A37096  39.279  15.988   8.250
 7192POPC   C3A37097  39.204  15.958   7.950
 7192POPC   C4A37098  39.252  16.002   7.650
 7192POPC   C1B37099  39.028  15.812   8.550
 7192POPC   C2B37100  39.054  15.813   8.250
 7192POPC   C3B37101  39.054  15.836   7.950
 7192POPC   C4B37102  39.004  15.879   7.650
 7193POPC   NC337103  15.917  33.809   9.450
 7193POPC   PO437104  15.919  33.785   9.150
 7193POPC   GL137105  15.971  33.825   8.850
 7193POPC   GL237106  16.014  33.728   8.850
 7193POPC   C1A37107  15.998  33.790   8.550
 7193POPC   D2A37108  15.988  33.754   8.250
 7193POPC   C3A37109  15.919  33.796   7.950
 7193POPC   C4A37110  15.987  33.785   7.650
 7193POPC   C1B37111  16.057  33.597   8.550
 7193POPC   C2B37112  16.089  33.543   8.250
 7193POPC   C3B37113  16.140  33.605   7.950
 7193POPC   C4B37114  16.082  33.602   7.650
 7194POPC   NC337115  43.066  12.033   9.450
 7194POPC   PO437116  43.082  12.094   9.150
 7194POPC   GL137117  43.074  12.071   8.850
 7194POPC   GL237118  43.184  12.019   8.850
 7194POPC   C1A37119  43.071  12.114   8.550
 7194POPC   D2A37120  43.063  12.044   8.250
 7194POPC   C3A37121  43.061  12.061   7.950
 7194POPC   C4A37122  43.098  12.073   7.650
 7194POPC   C1B37123  43.297  11.868   8.550
 7194POPC   C2B37124  43.243  11.883   8.250
 7194POPC   C3B37125  43.240  11.848   7.950
 7194POPC   C4B37126  43.312  11.914   7.650
 7195POPC   NC337127  10.497  15.965   9.450
 7195POPC   PO437128  10.519  15.966   9.150
 7195POPC   GL137129  10.564  15.965   8.850
 7195POPC   GL237130  10.538  16.110   8.850
 7195POPC   C1A37131  10.512  15.929   8.550
 7195POPC   D2A37132  10.517  15.905   8.250
 7195POPC   C3A37133  10.499  15.919   7.950
 7195POPC   C4A37134  10.520  15.911   7.650
 7195POPC   C1B37135  10.455  16.202   8.550
 7195POPC   C2B37136  10.445  16.186   8.250
 7195POPC   C3B37137  10.527  16.235   7.950
 7195POPC   C4B37138  10.521  16.205   7.650
 7196POPC   NC337139   2.760  32.999   9.450
 7196POPC   PO437140   2.737  33.059   9.150
 7196POPC   GL137141   2.772  32.996   8.850
 7196POPC   GL237142   2.725  32.923   8.850
 7196POPC   C1A37143   2.806  33.013   8.550
 7196POPC   D2A37144   2.804  32.992   8.250
 7196POPC   C3A37145   2.811  33.005   7.950
 7196POPC   C4A37146   2.793  33.048   7.650
 7196POPC   C1B37147   2.705  32.845   8.550
 7196POPC   C2B37148   2.619  32.774   8.250
 7196POPC   C3B37149   2.633  32.749   7.950
 7196POPC   C4B37150   2.694  32.794   7.650
 7197POPC   NC337151  31.424  27.608   9.450
 7197POPC   PO437152  31.484  27.590   9.150
 7197POPC   GL137153  31.438  27.555   8.850
 7197POPC   GL237154  31.585  27.638   8.850
 7197POPC   C1A37155  31.440  27.562   8.550
 7197POPC   D2A37156  31.478  27.609   8.250
 7197POPC   C3A37157  31.441  27.570   7.950
 7197POPC   C4A37158  31.452  27.554   7.650
 7197POPC   C1B37159  31.659  27.736   8.550
 7197POPC   C2B37160  31.635  27.689   8.250
 7197POPC   C3B37161  31.639  27.715   7.950
 7197POPC   C4B37162  31.723  27.710   7.650
 7198POPC   NC337163  24.444  22.896   9.450
 7198POPC   PO437164  24.491  22.929   9.150
 7198POPC   GL137165  24.512  22.947   8.850
 7198POPC   GL237166  24.629  22.944   8.850
 7198POPC   C1A37167  24.539  22.932   8.550
 7198POPC   D2A37168  24.525  22.937   8.250
 7198POPC   C3A37169  24.494  22.901   7.950
 7198POPC   C4A37170  24.525  22.893   7.650
 7198POPC   C1B37171  24.766  22.978   8.550
 7198POPC   C2B37172  24.693  22.932   8.250
 7198POPC   C3B37173  24.736  22.921   7.950
 7198POPC   C4B37174  24.750  22.957   7.650
 7199POPC   NC337175  19.884  41.561   9.450
 7199POPC   PO437176  19.863  41.607   9.150
 7199POPC   GL137177  19.848  41.563   8.850
 7199POPC   GL237178  19.857  41.706   8.850
 7199POPC   C1A37179  19.798  41.521   8.550
 7199POPC   D2A37180  19.883  41.552   8.250
 7199POPC   C3A37181  19.863  41.532   7.950
 7199POPC   C4A37182  19.836  41.537   7.650
 7199POPC   C1B37183  20.010  41.764   8.550
 7199POPC   C2B37184  19.944  41.789   8.250
 7199POPC   C3B37185  19.960  41.789   7.950
 7199POPC   C4B37186  19.972  41.757   7.650
 7200POPC   NC337187  17.468  44.709   9.450
 7200POPC   PO437188  17.554  44.638   9.150
 7200POPC   GL137189  17.502  44.705   8.850
 7200POPC   GL237190  17.619  44.750   8.850
 7200POPC   C1A37191  17.506  44.673   8.550
 7200POPC   D2A37192  17.510  44.643   8.250
 7200POPC   C3A37193  17.457  44.649   7.950
 7200POPC   C4A37194  17.503  44.708   7.650
 7200POPC   C1B37195  17.704  44.848   8.550
 7200POPC   C2B37196  17.659  44.826   8.250
 7200POPC   C3B37197  17.690  44.890   7.950
 7200POPC   C4B37198  17.696  44.843   7.650
 7201POPC   NC337199  21.397  39.214   9.450
 7201POPC   PO437200  21.365  39.250   9.150
 7201POPC   GL137201  21.361  39.275   8.850
 7201POPC   GL237202  21.523  39.228   8.850
 7201POPC   C1A37203  21.436  39.199   8.550
 7201POPC   D2A37204  21.370  39.202   8.250
 7201POPC   C3A37205  21.397  39.261   7.950
 7201POPC   C4A37206  21.434  39.182   7.650
 7201POPC   C1B37207  21.617  39.311   8.550
 7201POPC   C2B37208  21.629  39.275   8.250
 7201POPC   C3B37209  21.648  39.255   7.950
 7201POPC   C4B37210  21.602  39.281   7.650
 7202POPC   NC337211  39.183   0.457   9.450
 7202POPC   PO437212  39.218   0.427   9.150
 7202POPC   GL137213  39.254   0.426   8.850
 7202POPC   GL237214  39.128   0.443   8.850
 7202POPC   C1A37215  39.279   0.483   8.550
 7202POPC   D2A37216  39.279   0.435   8.250
 7202POPC   C3A37217  39.254   0.408   7.950
 7202POPC   C4A37218  39.260   0.476   7.650
 7202POPC   C1B37219  38.961   0.548   8.550
 7202POPC   C2B37220  39.028   0.528   8.250
 7202POPC   C3B37221  38.955   0.500   7.950
 7202POPC   C4B37222  38.982   0.468   7.650
 7203POPC   NC337223  43.159  29.100   9.450
 7203POPC   PO437224  43.147  29.101   9.150
 7203POPC   GL137225  43.080  29.146   8.850
 7203POPC   GL237226  43.015  29.216   8.850
 7203POPC   C1A37227  43.138  29.107   8.550
 7203POPC   D2A37228  43.070  29.161   8.250
 7203POPC   C3A37229  43.077  29.153   7.950
 7203POPC   C4A37230  43.154  29.114   7.650
 7203POPC   C1B37231  42.934  29.284   8.550
 7203POPC   C2B37232  42.907  29.329   8.250
 7203POPC   C3B37233  42.890  29.322   7.950
 7203POPC   C4B37234  42.889  29.358   7.650
 7204POPC   NC337235  26.806  35.362   9.450
 7204POPC   PO437236  26.857  35.398   9.150
 7204POPC   GL137237  26.787  35.325   8.850
 7204POPC   GL237238  26.649  35.371   8.850
 7204POPC   C1A37239  26.810  35.369   8.550
 7204POPC   D2A37240  26.828  35.318   8.250
 7204POPC   C3A37241  26.818  35.359   7.950
 7204POPC   C4A37242  26.853  35.379   7.650
 7204POPC   C1B37243  26.568  35.346   8.550
 7204POPC   C2B37244  26.598  35.391   8.250
 7204POPC   C3B37245  26.521  35.334   7.950
 7204POPC   C4B37246  26.575  35.351   7.650
 7205POPC   NC337247  44.670  29.138   9.450
 7205POPC   PO437248  44.657  29.161   9.150
 7205POPC   GL137249  44.696  29.156   8.850
 7205POPC   GL237250  44.496  29.219   8.850
 7205POPC   C1A37251  44.646  29.151   8.550
 7205POPC   D2A37252  44.658  29.142   8.250
 7205POPC   C3A37253  44.653  29.103   7.950
 7205POPC   C4A37254  44.665  29.163   7.650
 7205POPC   C1B37255  44.437  29.250   8.550
 7205POPC   C2B37256  44.450  29.257   8.250
 7205POPC   C3B37257  44.446  29.210   7.950
 7205POPC   C4B37258  44.457  29.216   7.650
 7206POPC   NC337259  36.136   2.790   9.450
 7206POPC   PO437260  36.086   2.775   9.150
 7206POPC   GL137261  36.112   2.804   8.850
 7206POPC   GL237262  36.162   2.631   8.850
 7206POPC   C1A37263  36.129   2.732   8.550
 7206POPC   D2A37264  36.121   2.792   8.250
 7206POPC   C3A37265  36.133   2.788   7.950
 7206POPC   C4A37266  36.114   2.755   7.650
 7206POPC   C1B37267  36.208   2.482   8.550
 7206POPC   C2B37268  36.171   2.536   8.250
 7206POPC   C3B37269  36.176   2.540   7.950
 7206POPC   C4B37270  36.217   2.538   7.650
 7207POPC   NC337271  25.269  31.427   9.450
 7207POPC   PO437272  25.268  31.457   9.150
 7207POPC   GL137273  25.260  31.463   8.850
 7207POPC   GL237274  25.362  31.477   8.850
 7207POPC   C1A37275  25.298  31.469   8.550
 7207POPC   D2A37276  25.217  31.499   8.250
 7207POPC   C3A37277  25.241  31.494   7.950
 7207POPC   C4A37278  25.216  31.500   7.650
 7207POPC   C1B37279  25.549  31.545   8.550
 7207POPC   C2B37280  25.505  31.527   8.250
 7207POPC   C3B37281  25.508  31.491   7.950
 7207POPC   C4B37282  25.555  31.481   7.650
 7208POPC   NC337283  17.548   0.430   9.450
 7208POPC   PO437284  17.466   0.402   9.150
 7208POPC   GL137285  17.461   0.462   8.850
 7208POPC   GL237286  17.535   0.558   8.850
 7208POPC   C1A37287  17.512   0.444   8.550
 7208POPC   D2A37288  17.475   0.395   8.250
 7208POPC   C3A37289  17.480   0.463   7.950
 7208POPC   C4A37290  17.529   0.437   7.650
 7208POPC   C1B37291  17.642   0.692   8.550
 7208POPC   C2B37292  17.641   0.651   8.250
 7208POPC   C3B37293  17.671   0.667   7.950
 7208POPC   C4B37294  17.653   0.651   7.650
 7209POPC   NC337295  33.833  35.373   9.450
 7209POPC   PO437296  33.821  35.347   9.150
 7209POPC   GL137297  33.776  35.352   8.850
 7209POPC   GL237298  33.698  35.488   8.850
 7209POPC   C1A37299  33.787  35.306   8.550
 7209POPC   D2A37300  33.834  35.379   8.250
 7209POPC   C3A37301  33.802  35.368   7.950
 7209POPC   C4A37302  33.816  35.370   7.650
 7209POPC   C1B37303  33.669  35.481   8.550
 7209POPC   C2B37304  33.571  35.575   8.250
 7209POPC   C3B37305  33.582  35.571   7.950
 7209POPC   C4B37306  33.597  35.568   7.650
 7210POPC   NC337307  34.593  43.911   9.450
 7210POPC   PO437308  34.620  43.914   9.150
 7210POPC   GL137309  34.557  43.858   8.850
 7210POPC   GL237310  34.553  43.789   8.850
 7210POPC   C1A37311  34.617  43.861   8.550
 7210POPC   D2A37312  34.536  43.846   8.250
 7210POPC   C3A37313  34.622  43.845   7.950
 7210POPC   C4A37314  34.607  43.907   7.650
 7210POPC   C1B37315  34.436  43.701   8.550
 7210POPC   C2B37316  34.452  43.686   8.250
 7210POPC   C3B37317  34.400  43.657   7.950
 7210POPC   C4B37318  34.418  43.682   7.650
 7211POPC   NC337319  43.886   6.639   9.450
 7211POPC   PO437320  43.916   6.687   9.150
 7211POPC   GL137321  43.865   6.620   8.850
 7211POPC   GL237322  44.005   6.700   8.850
 7211POPC   C1A37323  43.905   6.674   8.550
 7211POPC   D2A37324  43.920   6.613   8.250
 7211POPC   C3A37325  43.924   6.633   7.950
 7211POPC   C4A37326  43.899   6.626   7.650
 7211POPC   C1B37327  44.140   6.763   8.550
 7211POPC   C2B37328  44.092   6.683   8.250
 7211POPC   C3B37329  44.128   6.767   7.950
 7211POPC   C4B37330  44.114   6.715   7.650
 7212POPC   NC337331  38.487   9.762   9.450
 7212POPC   PO437332  38.464   9.768   9.150
 7212POPC   GL137333  38.419   9.758   8.850
 7212POPC   GL237334  38.456   9.888   8.850
 7212POPC   C1A37335  38.436   9.737   8.550
 7212POPC   D2A37336  38.500   9.737   8.250
 7212POPC   C3A37337  38.445   9.731   7.950
 7212POPC   C4A37338  38.467   9.743   7.650
 7212POPC   C1B37339  38.467  10.043   8.550
 7212POPC   C2B37340  38.485   9.995   8.250
 7212POPC   C3B37341  38.409  10.036   7.950
 7212POPC   C4B37342  38.448  10.018   7.650
 7213POPC   NC337343   9.790  11.288   9.450
 7213POPC   PO437344   9.737  11.290   9.150
 7213POPC   GL137345   9.797  11.300   8.850
 7213POPC   GL237346   9.665  11.308   8.850
 7213POPC   C1A37347   9.768  11.308   8.550
 7213POPC   D2A37348   9.747  11.344   8.250
 7213POPC   C3A37349   9.757  11.328   7.950
 7213POPC   C4A37350   9.716  11.299   7.650
 7213POPC   C1B37351   9.473  11.310   8.550
 7213POPC   C2B37352   9.505  11.299   8.250
 7213POPC   C3B37353   9.510  11.289   7.950
 7213POPC   C4B37354   9.504  11.244   7.650
 7214POPC   NC337355  23.760   5.888   9.450
 7214POPC   PO437356  23.758   5.897   9.150
 7214POPC   GL137357  23.702   5.834   8.850
 7214POPC   GL237358  23.783   5.773   8.850
 7214POPC   C1A37359  23.672   5.885   8.550
 7214POPC   D2A37360  23.735   5.859   8.250
 7214POPC   C3A37361  23.723   5.907   7.950
 7214POPC   C4A37362  23.763   5.868   7.650
 7214POPC   C1B37363  23.923   5.670   8.550
 7214POPC   C2B37364  23.848   5.659   8.250
 7214POPC   C3B37365  23.907   5.699   7.950
 7214POPC   C4B37366  23.878   5.642   7.650
 7215POPC   NC337367  32.986  37.714   9.450
 7215POPC   PO437368  33.071  37.695   9.150
 7215POPC   GL137369  33.010  37.706   8.850
 7215POPC   GL237370  32.909  37.570   8.850
 7215POPC   C1A37371  33.018  37.722   8.550
 7215POPC   D2A37372  32.996  37.719   8.250
 7215POPC   C3A37373  33.038  37.720   7.950
 7215POPC   C4A37374  33.027  37.680   7.650
 7215POPC   C1B37375  32.849  37.524   8.550
 7215POPC   C2B37376  32.892  37.457   8.250
 7215POPC   C3B37377  32.877  37.479   7.950
 7215POPC   C4B37378  32.869  37.482   7.650
 7216POPC   NC337379   5.888  30.743   9.450
 7216POPC   PO437380   5.859  30.746   9.150
 7216POPC   GL137381   5.883  30.712   8.850
 7216POPC   GL237382   5.882  30.549   8.850
 7216POPC   C1A37383   5.898  30.660   8.550
 7216POPC   D2A37384   5.840  30.669   8.250
 7216POPC   C3A37385   5.875  30.654   7.950
 7216POPC   C4A37386   5.831  30.745   7.650
 7216POPC   C1B37387   6.025  30.492   8.550
 7216POPC   C2B37388   5.938  30.443   8.250
 7216POPC   C3B37389   6.026  30.477   7.950
 7216POPC   C4B37390   6.008  30.505   7.650
 7217POPC   NC337391  26.775  32.985   9.450
 7217POPC   PO437392  26.844  33.001   9.150
 7217POPC   GL137393  26.818  33.017   8.850
 7217POPC   GL237394  26.888  33.152   8.850
 7217POPC   C1A37395  26.820  32.976   8.550
 7217POPC   D2A37396  26.771  33.062   8.250
 7217POPC   C3A37397  26.775  33.073   7.950
 7217POPC   C4A37398  26.867  33.058   7.650
 7217POPC   C1B37399  26.966  33.244   8.550
 7217POPC   C2B37400  26.957  33.265   8.250
 7217POPC   C3B37401  26.986  33.232   7.950
 7217POPC   C4B37402  26.926  33.261   7.650
 7218POPC   NC337403  11.264  38.435   9.450
 7218POPC   PO437404  11.266  38.435   9.150
 7218POPC   GL137405  11.298  38.491   8.850
 7218POPC   GL237406  11.304  38.575   8.850
 7218POPC   C1A37407  11.323  38.472   8.550
 7218POPC   D2A37408  11.310  38.411   8.250
 7218POPC   C3A37409  11.340  38.443   7.950
 7218POPC   C4A37410  11.297  38.438   7.650
 7218POPC   C1B37411  11.227  38.738   8.550
 7218POPC   C2B37412  11.230  38.692   8.250
 7218POPC   C3B37413  11.197  38.717   7.950
 7218POPC   C4B37414  11.241  38.725   7.650
 7219POPC   NC337415  25.223  40.054   9.450
 7219POPC   PO437416  25.268  40.045   9.150
 7219POPC   GL137417  25.249  40.007   8.850
 7219POPC   GL237418  25.298  39.880   8.850
 7219POPC   C1A37419  25.310  40.022   8.550
 7219POPC   D2A37420  25.292  40.052   8.250
 7219POPC   C3A37421  25.226  40.041   7.950
 7219POPC   C4A37422  25.269  39.974   7.650
 7219POPC   C1B37423  25.412  39.794   8.550
 7219POPC   C2B37424  25.397  39.769   8.250
 7219POPC   C3B37425  25.370  39.799   7.950
 7219POPC   C4B37426  25.437  39.811   7.650
 7220POPC   NC337427  39.239   4.284   9.450
 7220POPC   PO437428  39.238   4.334   9.150
 7220POPC   GL137429  39.272   4.326   8.850
 7220POPC   GL237430  39.242   4.421   8.850
 7220POPC   C1A37431  39.212   4.271   8.550
 7220POPC   D2A37432  39.200   4.333   8.250
 7220POPC   C3A37433  39.263   4.330   7.950
 7220POPC   C4A37434  39.267   4.295   7.650
 7220POPC   C1B37435  39.210   4.567   8.550
 7220POPC   C2B37436  39.216   4.559   8.250
 7220POPC   C3B37437  39.229   4.574   7.950
 7220POPC   C4B37438  39.219   4.562   7.650
 7221POPC   NC337439  15.965   0.474   9.450
 7221POPC   PO437440  15.976   0.425   9.150
 7221POPC   GL137441  15.959   0.421   8.850
 7221POPC   GL237442  16.011   0.532   8.850
 7221POPC   C1A37443  15.913   0.440   8.550
 7221POPC   D2A37444  15.944   0.444   8.250
 7221POPC   C3A37445  15.972   0.487   7.950
 7221POPC   C4A37446  15.972   0.470   7.650
 7221POPC   C1B37447  16.163   0.606   8.550
 7221POPC   C2B37448  16.203   0.596   8.250
 7221POPC   C3B37449  16.188   0.560   7.950
 7221POPC   C4B37450  16.201   0.544   7.650
 7222POPC   NC337451   2.039   9.004   9.450
 7222POPC   PO437452   2.026   8.956   9.150
 7222POPC   GL137453   2.012   9.008   8.850
 7222POPC   GL237454   1.861   8.942   8.850
 7222POPC   C1A37455   1.995   9.004   8.550
 7222POPC   D2A37456   1.947   8.932   8.250
 7222POPC   C3A37457   2.019   8.957   7.950
 7222POPC   C4A37458   1.945   8.923   7.650
 7222POPC   C1B37459   1.761   8.945   8.550
 7222POPC   C2B37460   1.715   8.954   8.250
 7222POPC   C3B37461   1.705   8.904   7.950
 7222POPC   C4B37462   1.770   8.866   7.650
 7223POPC   NC337463  36.090  21.377   9.450
 7223POPC   PO437464  36.121  21.399   9.150
 7223POPC   GL137465  36.100  21.387   8.850
 7223POPC   GL237466  36.197  21.315   8.850
 7223POPC   C1A37467  36.148  21.425   8.550
 7223POPC   D2A37468  36.151  21.381   8.250
 7223POPC   C3A37469  36.101  21.429   7.950
 7223POPC   C4A37470  36.132  21.384   7.650
 7223POPC   C1B37471  36.326  21.259   8.550
 7223POPC   C2B37472  36.373  21.310   8.250
 7223POPC   C3B37473  36.394  21.313   7.950
 7223POPC   C4B37474  36.410  21.292   7.650
 7224POPC   NC337475  32.995  12.114   9.450
 7224POPC   PO437476  32.976  12.089   9.150
 7224POPC   GL137477  33.031  12.033   8.850
 7224POPC   GL237478  33.145  12.148   8.850
 7224POPC   C1A37479  32.995  12.092   8.550
 7224POPC   D2A37480  33.052  12.054   8.250
 7224POPC   C3A37481  32.981  12.068   7.950
 7224POPC   C4A37482  32.987  12.100   7.650
 7224POPC   C1B37483  33.228  12.190   8.550
 7224POPC   C2B37484  33.285  12.225   8.250
 7224POPC   C3B37485  33.235  12.221   7.950
 7224POPC   C4B37486  33.238  12.162   7.650
 7225POPC   NC337487  25.282  29.096   9.450
 7225POPC   PO437488  25.312  29.139   9.150
 7225POPC   GL137489  25.230  29.179   8.850
 7225POPC   GL237490  25.296  29.002   8.850
 7225POPC   C1A37491  25.250  29.115   8.550
 7225POPC   D2A37492  25.252  29.169   8.250
 7225POPC   C3A37493  25.229  29.141   7.950
 7225POPC   C4A37494  25.240  29.106   7.650
 7225POPC   C1B37495  25.377  28.905   8.550
 7225POPC   C2B37496  25.382  28.932   8.250
 7225POPC   C3B37497  25.375  28.895   7.950
 7225POPC   C4B37498  25.367  28.888   7.650
 7226POPC   NC337499   9.743  36.886   9.450
 7226POPC   PO437500   9.769  36.855   9.150
 7226POPC   GL137501   9.701  36.890   8.850
 7226POPC   GL237502   9.668  36.919   8.850
 7226POPC   C1A37503   9.791  36.938   8.550
 7226POPC   D2A37504   9.793  36.870   8.250
 7226POPC   C3A37505   9.748  36.905   7.950
 7226POPC   C4A37506   9.736  36.938   7.650
 7226POPC   C1B37507   9.478  36.961   8.550
 7226POPC   C2B37508   9.504  36.971   8.250
 7226POPC   C3B37509   9.506  36.975   7.950
 7226POPC   C4B37510   9.476  36.969   7.650
 7227POPC   NC337511   4.301  32.253   9.450
 7227POPC   PO437512   4.301  32.226   9.150
 7227POPC   GL137513   4.278  32.222   8.850
 7227POPC   GL237514   4.325  32.091   8.850
 7227POPC   C1A37515   4.309  32.298   8.550
 7227POPC   D2A37516   4.268  32.294   8.250
 7227POPC   C3A37517   4.307  32.246   7.950
 7227POPC   C4A37518   4.299  32.203   7.650
 7227POPC   C1B37519   4.229  32.018   8.550
 7227POPC   C2B37520   4.267  32.040   8.250
 7227POPC   C3B37521   4.212  32.000   7.950
 7227POPC   C4B37522   4.276  32.035   7.650
 7228POPC   NC337523  40.782   7.455   9.450
 7228POPC   PO437524  40.807   7.414   9.150
 7228POPC   GL137525  40.750   7.386   8.850
 7228POPC   GL237526  40.788   7.496   8.850
 7228POPC   C1A37527  40.789   7.442   8.550
 7228POPC   D2A37528  40.832   7.430   8.250
 7228POPC   C3A37529  40.755   7.425   7.950
 7228POPC   C4A37530  40.807   7.438   7.650
 7228POPC   C1B37531  40.855   7.655   8.550
 7228POPC   C2B37532  40.883   7.701   8.250
 7228POPC   C3B37533  40.895   7.655   7.950
 7228POPC   C4B37534  40.875   7.610   7.650
 7229POPC   NC337535   2.774  40.741   9.450
 7229POPC   PO437536   2.718  40.746   9.150
 7229POPC   GL137537   2.811  40.771   8.850
 7229POPC   GL237538   2.703  40.702   8.850
 7229POPC   C1A37539   2.732  40.755   8.550
 7229POPC   D2A37540   2.726  40.811   8.250
 7229POPC   C3A37541   2.762  40.801   7.950
 7229POPC   C4A37542   2.788  40.780   7.650
 7229POPC   C1B37543   2.637  40.535   8.550
 7229POPC   C2B37544   2.693  40.548   8.250
 7229POPC   C3B37545   2.671  40.519   7.950
 7229POPC   C4B37546   2.661  40.596   7.650
 7230POPC   NC337547  33.804  19.025   9.450
 7230POPC   PO437548  33.836  19.099   9.150
 7230POPC   GL137549  33.770  19.060   8.850
 7230POPC   GL237550  33.841  18.944   8.850
 7230POPC   C1A37551  33.760  19.028   8.550
 7230POPC   D2A37552  33.789  19.089   8.250
 7230POPC   C3A37553  33.765  19.090   7.950
 7230POPC   C4A37554  33.846  19.085   7.650
 7230POPC   C1B37555  33.893  18.768   8.550
 7230POPC   C2B37556  33.815  18.788   8.250
 7230POPC   C3B37557  33.877  18.785   7.950
 7230POPC   C4B37558  33.837  18.772   7.650
 7231POPC   NC337559  36.086   8.193   9.450
 7231POPC   PO437560  36.122   8.205   9.150
 7231POPC   GL137561  36.149   8.196   8.850
 7231POPC   GL237562  36.023   8.275   8.850
 7231POPC   C1A37563  36.093   8.177   8.550
 7231POPC   D2A37564  36.082   8.232   8.250
 7231POPC   C3A37565  36.170   8.183   7.950
 7231POPC   C4A37566  36.166   8.208   7.650
 7231POPC   C1B37567  35.949   8.366   8.550
 7231POPC   C2B37568  35.956   8.367   8.250
 7231POPC   C3B37569  36.008   8.414   7.950
 7231POPC   C4B37570  35.973   8.373   7.650
 7232POPC   NC337571  34.583  15.165   9.450
 7232POPC   PO437572  34.577  15.195   9.150
 7232POPC   GL137573  34.529  15.137   8.850
 7232POPC   GL237574  34.424  15.131   8.850
 7232POPC   C1A37575  34.552  15.149   8.550
 7232POPC   D2A37576  34.530  15.190   8.250
 7232POPC   C3A37577  34.611  15.207   7.950
 7232POPC   C4A37578  34.582  15.216   7.650
 7232POPC   C1B37579  34.349  15.153   8.550
 7232POPC   C2B37580  34.314  15.088   8.250
 7232POPC   C3B37581  34.348  15.144   7.950
 7232POPC   C4B37582  34.369  15.158   7.650
 7233POPC   NC337583  10.504   1.204   9.450
 7233POPC   PO437584  10.516   1.259   9.150
 7233POPC   GL137585  10.542   1.197   8.850
 7233POPC   GL237586  10.671   1.234   8.850
 7233POPC   C1A37587  10.546   1.226   8.550
 7233POPC   D2A37588  10.514   1.208   8.250
 7233POPC   C3A37589  10.489   1.164   7.950
 7233POPC   C4A37590  10.569   1.181   7.650
 7233POPC   C1B37591  10.743   1.214   8.550
 7233POPC   C2B37592  10.751   1.222   8.250
 7233POPC   C3B37593  10.726   1.223   7.950
 7233POPC   C4B37594  10.778   1.226   7.650
 7234POPC   NC337595  21.342  29.884   9.450
 7234POPC   PO437596  21.397  29.918   9.150
 7234POPC   GL137597  21.337  29.883   8.850
 7234POPC   GL237598  21.301  29.923   8.850
 7234POPC   C1A37599  21.425  29.961   8.550
 7234POPC   D2A37600  21.342  29.900   8.250
 7234POPC   C3A37601  21.422  29.910   7.950
 7234POPC   C4A37602  21.378  29.956   7.650
 7234POPC   C1B37603  21.137  29.866   8.550
 7234POPC   C2B37604  21.111  29.795   8.250
 7234POPC   C3B37605  21.146  29.810   7.950
 7234POPC   C4B37606  21.127  29.876   7.650
 7235POPC   NC337607  23.725  21.348   9.450
 7235POPC   PO437608  23.693  21.433   9.150
 7235POPC   GL137609  23.751  21.379   8.850
 7235POPC   GL237610  23.729  21.266   8.850
 7235POPC   C1A37611  23.748  21.355   8.550
 7235POPC   D2A37612  23.668  21.423   8.250
 7235POPC   C3A37613  23.680  21.431   7.950
 7235POPC   C4A37614  23.720  21.427   7.650
 7235POPC   C1B37615  23.822  21.136   8.550
 7235POPC   C2B37616  23.797  21.125   8.250
 7235POPC   C3B37617  23.834  21.170   7.950
 7235POPC   C4B37618  23.804  21.194   7.650
 7236POPC   NC337619  41.598  26.061   9.450
 7236POPC   PO437620  41.565  26.002   9.150
 7236POPC   GL137621  41.607  26.001   8.850
 7236POPC   GL237622  41.522  25.904   8.850
 7236POPC   C1A37623  41.520  26.077   8.550
 7236POPC   D2A37624  41.550  26.013   8.250
 7236POPC   C3A37625  41.559  26.060   7.950
 7236POPC   C4A37626  41.513  26.059   7.650
 7236POPC   C1B37627  41.478  25.817   8.550
 7236POPC   C2B37628  41.534  25.760   8.250
 7236POPC   C3B37629  41.491  25.752   7.950
 7236POPC   C4B37630  41.518  25.768   7.650
 7237POPC   NC337631  13.600  25.315   9.450
 7237POPC   PO437632  13.662  25.270   9.150
 7237POPC   GL137633  13.669  25.268   8.850
 7237POPC   GL237634  13.598  25.159   8.850
 7237POPC   C1A37635  13.638  25.304   8.550
 7237POPC   D2A37636  13.581  25.284   8.250
 7237POPC   C3A37637  13.620  25.267   7.950
 7237POPC   C4A37638  13.665  25.299   7.650
 7237POPC   C1B37639  13.691  24.968   8.550
 7237POPC   C2B37640  13.677  24.994   8.250
 7237POPC   C3B37641  13.653  25.030   7.950
 7237POPC   C4B37642  13.606  25.033   7.650
 7238POPC   NC337643   1.199  22.893   9.450
 7238POPC   PO437644   1.239  22.978   9.150
 7238POPC   GL137645   1.244  22.982   8.850
 7238POPC   GL237646   1.207  23.036   8.850
 7238POPC   C1A37647   1.253  22.890   8.550
 7238POPC   D2A37648   1.212  22.971   8.250
 7238POPC   C3A37649   1.241  22.893   7.950
 7238POPC   C4A37650   1.216  22.981   7.650
 7238POPC   C1B37651   1.190  23.211   8.550
 7238POPC   C2B37652   1.241  23.167   8.250
 7238POPC   C3B37653   1.223  23.187   7.950
 7238POPC   C4B37654   1.187  23.162   7.650
 7239POPC   NC337655   9.014  29.117   9.450
 7239POPC   PO437656   8.950  29.120   9.150
 7239POPC   GL137657   8.962  29.179   8.850
 7239POPC   GL237658   9.083  29.193   8.850
 7239POPC   C1A37659   8.958  29.098   8.550
 7239POPC   D2A37660   9.006  29.164   8.250
 7239POPC   C3A37661   8.976  29.190   7.950
 7239POPC   C4A37662   8.958  29.161   7.650
 7239POPC   C1B37663   9.138  29.299   8.550
 7239POPC   C2B37664   9.223  29.277   8.250
 7239POPC   C3B37665   9.159  29.254   7.950
 7239POPC   C4B37666   9.168  29.237   7.650
 7240POPC   NC337667  18.322  14.437   9.450
 7240POPC   PO437668  18.244  14.408   9.150
 7240POPC   GL137669  18.253  14.359   8.850
 7240POPC   GL237670  18.445  14.476   8.850
 7240POPC   C1A37671  18.302  14.360   8.550
 7240POPC   D2A37672  18.239  14.432   8.250
 7240POPC   C3A37673  18.295  14.424   7.950
 7240POPC   C4A37674  18.245  14.411   7.650
 7240POPC   C1B37675  18.490  14.494   8.550
 7240POPC   C2B37676  18.497  14.513   8.250
 7240POPC   C3B37677  18.481  14.487   7.950
 7240POPC   C4B37678  18.509  14.488   7.650
 7241POPC   NC337679  43.140   0.473   9.450
 7241POPC   PO437680  43.062   0.412   9.150
 7241POPC   GL137681  43.069   0.393   8.850
 7241POPC   GL237682  42.983   0.394   8.850
 7241POPC   C1A37683  43.094   0.456   8.550
 7241POPC   D2A37684  43.110   0.414   8.250
 7241POPC   C3A37685  43.083   0.475   7.950
 7241POPC   C4A37686  43.120   0.460   7.650
 7241POPC   C1B37687  42.864   0.281   8.550
 7241POPC   C2B37688  42.906   0.276   8.250
 7241POPC   C3B37689  42.923   0.359   7.950
 7241POPC   C4B37690  42.921   0.349   7.650
 7242POPC   NC337691  14.411  24.503   9.450
 7242POPC   PO437692  14.372  24.442   9.150
 7242POPC   GL137693  14.371  24.528   8.850
 7242POPC   GL237694  14.271  24.516   8.850
 7242POPC   C1A37695  14.391  24.509   8.550
 7242POPC   D2A37696  14.396  24.441   8.250
 7242POPC   C3A37697  14.409  24.448   7.950
 7242POPC   C4A37698  14.357  24.527   7.650
 7242POPC   C1B37699  14.144  24.602   8.550
 7242POPC   C2B37700  14.218  24.575   8.250
 7242POPC   C3B37701  14.176  24.618   7.950
 7242POPC   C4B37702  14.141  24.549   7.650
 7243POPC   NC337703  17.472  29.872   9.450
 7243POPC   PO437704  17.519  29.898   9.150
 7243POPC   GL137705  17.556  29.873   8.850
 7243POPC   GL237706  17.490  29.842   8.850
 7243POPC   C1A37707  17.466  29.907   8.550
 7243POPC   D2A37708  17.469  29.928   8.250
 7243POPC   C3A37709  17.537  29.930   7.950
 7243POPC   C4A37710  17.529  29.933   7.650
 7243POPC   C1B37711  17.386  29.708   8.550
 7243POPC   C2B37712  17.434  29.645   8.250
 7243POPC   C3B37713  17.402  29.672   7.950
 7243POPC   C4B37714  17.394  29.689   7.650
 7244POPC   NC337715  27.641  23.702   9.450
 7244POPC   PO437716  27.594  23.748   9.150
 7244POPC   GL137717  27.641  23.672   8.850
 7244POPC   GL237718  27.548  23.843   8.850
 7244POPC   C1A37719  27.600  23.708   8.550
 7244POPC   D2A37720  27.570  23.709   8.250
 7244POPC   C3A37721  27.584  23.759   7.950
 7244POPC   C4A37722  27.598  23.687   7.650
 7244POPC   C1B37723  27.449  23.921   8.550
 7244POPC   C2B37724  27.404  23.918   8.250
 7244POPC   C3B37725  27.402  23.872   7.950
 7244POPC   C4B37726  27.496  23.895   7.650
 7245POPC   NC337727  15.221  10.574   9.450
 7245POPC   PO437728  15.216  10.537   9.150
 7245POPC   GL137729  15.170  10.514   8.850
 7245POPC   GL237730  15.180  10.379   8.850
 7245POPC   C1A37731  15.171  10.538   8.550
 7245POPC   D2A37732  15.162  10.477   8.250
 7245POPC   C3A37733  15.165  10.565   7.950
 7245POPC   C4A37734  15.180  10.497   7.650
 7245POPC   C1B37735  15.257  10.270   8.550
 7245POPC   C2B37736  15.244  10.260   8.250
 7245POPC   C3B37737  15.258  10.325   7.950
 7245POPC   C4B37738  15.254  10.312   7.650
 7246POPC   NC337739  26.818  34.622   9.450
 7246POPC   PO437740  26.800  34.562   9.150
 7246POPC   GL137741  26.773  34.584   8.850
 7246POPC   GL237742  26.705  34.595   8.850
 7246POPC   C1A37743  26.769  34.526   8.550
 7246POPC   D2A37744  26.806  34.588   8.250
 7246POPC   C3A37745  26.791  34.527   7.950
 7246POPC   C4A37746  26.782  34.563   7.650
 7246POPC   C1B37747  26.565  34.623   8.550
 7246POPC   C2B37748  26.564  34.631   8.250
 7246POPC   C3B37749  26.592  34.602   7.950
 7246POPC   C4B37750  26.562  34.587   7.650
 7247POPC   NC337751  30.647  25.276   9.450
 7247POPC   PO437752  30.736  25.269   9.150
 7247POPC   GL137753  30.681  25.216   8.850
 7247POPC   GL237754  30.550  25.283   8.850
 7247POPC   C1A37755  30.651  25.245   8.550
 7247POPC   D2A37756  30.692  25.227   8.250
 7247POPC   C3A37757  30.678  25.308   7.950
 7247POPC   C4A37758  30.713  25.272   7.650
 7247POPC   C1B37759  30.435  25.374   8.550
 7247POPC   C2B37760  30.464  25.345   8.250
 7247POPC   C3B37761  30.438  25.357   7.950
 7247POPC   C4B37762  30.446  25.385   7.650
 7248POPC   NC337763   8.173  43.142   9.450
 7248POPC   PO437764   8.163  43.153   9.150
 7248POPC   GL137765   8.224  43.153   8.850
 7248POPC   GL237766   8.288  43.143   8.850
 7248POPC   C1A37767   8.205  43.120   8.550
 7248POPC   D2A37768   8.203  43.078   8.250
 7248POPC   C3A37769   8.158  43.126   7.950
 7248POPC   C4A37770   8.216  43.150   7.650
 7248POPC   C1B37771   8.442  43.078   8.550
 7248POPC   C2B37772   8.494  43.098   8.250
 7248POPC   C3B37773   8.491  43.098   7.950
 7248POPC   C4B37774   8.454  43.075   7.650
 7249POPC   NC337775  21.385  33.819   9.450
 7249POPC   PO437776  21.406  33.850   9.150
 7249POPC   GL137777  21.341  33.835   8.850
 7249POPC   GL237778  21.318  33.869   8.850
 7249POPC   C1A37779  21.427  33.795   8.550
 7249POPC   D2A37780  21.428  33.799   8.250
 7249POPC   C3A37781  21.352  33.837   7.950
 7249POPC   C4A37782  21.397  33.783   7.650
 7249POPC   C1B37783  21.275  33.993   8.550
 7249POPC   C2B37784  21.264  34.016   8.250
 7249POPC   C3B37785  21.238  34.025   7.950
 7249POPC   C4B37786  21.273  34.030   7.650
 7250POPC   NC337787   4.269  43.929   9.450
 7250POPC   PO437788   4.297  43.871   9.150
 7250POPC   GL137789   4.275  43.855   8.850
 7250POPC   GL237790   4.270  44.001   8.850
 7250POPC   C1A37791   4.299  43.925   8.550
 7250POPC   D2A37792   4.313  43.890   8.250
 7250POPC   C3A37793   4.350  43.899   7.950
 7250POPC   C4A37794   4.274  43.917   7.650
 7250POPC   C1B37795   4.181  44.117   8.550
 7250POPC   C2B37796   4.132  44.058   8.250
 7250POPC   C3B37797   4.203  44.055   7.950
 7250POPC   C4B37798   4.126  44.053   7.650
 7251POPC   NC337799  26.083  35.346   9.450
 7251POPC   PO437800  26.047  35.313   9.150
 7251POPC   GL137801  26.021  35.398   8.850
 7251POPC   GL237802  26.169  35.339   8.850
 7251POPC   C1A37803  26.015  35.401   8.550
 7251POPC   D2A37804  26.083  35.392   8.250
 7251POPC   C3A37805  26.066  35.372   7.950
 7251POPC   C4A37806  26.082  35.345   7.650
 7251POPC   C1B37807  26.285  35.269   8.550
 7251POPC   C2B37808  26.239  35.297   8.250
 7251POPC   C3B37809  26.285  35.204   7.950
 7251POPC   C4B37810  26.287  35.287   7.650
 7252POPC   NC337811  44.631   1.254   9.450
 7252POPC   PO437812  44.622   1.164   9.150
 7252POPC   GL137813  44.664   1.207   8.850
 7252POPC   GL237814  44.526   1.259   8.850
 7252POPC   C1A37815  44.616   1.184   8.550
 7252POPC   D2A37816  44.695   1.218   8.250
 7252POPC   C3A37817  44.661   1.198   7.950
 7252POPC   C4A37818  44.702   1.186   7.650
 7252POPC   C1B37819  44.394   1.277   8.550
 7252POPC   C2B37820  44.368   1.260   8.250
 7252POPC   C3B37821  44.408   1.283   7.950
 7252POPC   C4B37822  44.416   1.228   7.650
 7253POPC   NC337823  33.017  24.538   9.450
 7253POPC   PO437824  33.024  24.503   9.150
 7253POPC   GL137825  33.030  24.512   8.850
 7253POPC   GL237826  33.079  24.602   8.850
 7253POPC   C1A37827  33.001  24.510   8.550
 7253POPC   D2A37828  33.044  24.455   8.250
 7253POPC   C3A37829  33.047  24.495   7.950
 7253POPC   C4A37830  33.066  24.522   7.650
 7253POPC   C1B37831  33.195  24.687   8.550
 7253POPC   C2B37832  33.217  24.727   8.250
 7253POPC   C3B37833  33.213  24.705   7.950
 7253POPC   C4B37834  33.159  24.660   7.650
 7254POPC   NC337835  22.122   7.448   9.450
 7254POPC   PO437836  22.204   7.416   9.150
 7254POPC   GL137837  22.147   7.387   8.850
 7254POPC   GL237838  22.188   7.302   8.850
 7254POPC   C1A37839  22.188   7.435   8.550
 7254POPC   D2A37840  22.203   7.455   8.250
 7254POPC   C3A37841  22.167   7.410   7.950
 7254POPC   C4A37842  22.131   7.435   7.650
 7254POPC   C1B37843  22.188   7.215   8.550
 7254POPC   C2B37844  22.181   7.169   8.250
 7254POPC   C3B37845  22.135   7.155   7.950
 7254POPC   C4B37846  22.106   7.218   7.650
 7255POPC   NC337847  19.092   7.468   9.450
 7255POPC   PO437848  19.036   7.458   9.150
 7255POPC   GL137849  19.092   7.435   8.850
 7255POPC   GL237850  18.995   7.338   8.850
 7255POPC   C1A37851  19.046   7.457   8.550
 7255POPC   D2A37852  19.013   7.427   8.250
 7255POPC   C3A37853  19.055   7.407   7.950
 7255POPC   C4A37854  19.037   7.465   7.650
 7255POPC   C1B37855  18.934   7.233   8.550
 7255POPC   C2B37856  18.861   7.209   8.250
 7255POPC   C3B37857  18.930   7.208   7.950
 7255POPC   C4B37858  18.881   7.182   7.650
 7256POPC   NC337859  34.589  10.479   9.450
 7256POPC   PO437860  34.597  10.480   9.150
 7256POPC   GL137861  34.545  10.563   8.850
 7256POPC   GL237862  34.554  10.625   8.850
 7256POPC   C1A37863  34.622  10.510   8.550
 7256POPC   D2A37864  34.540  10.538   8.250
 7256POPC   C3A37865  34.537  10.500   7.950
 7256POPC   C4A37866  34.543  10.558   7.650
 7256POPC   C1B37867  34.557  10.727   8.550
 7256POPC   C2B37868  34.561  10.793   8.250
 7256POPC   C3B37869  34.592  10.763   7.950
 7256POPC   C4B37870  34.619  10.747   7.650
 7257POPC   NC337871  32.981  29.894   9.450
 7257POPC   PO437872  33.042  29.948   9.150
 7257POPC   GL137873  33.003  29.899   8.850
 7257POPC   GL237874  32.876  29.965   8.850
 7257POPC   C1A37875  33.051  29.876   8.550
 7257POPC   D2A37876  32.999  29.904   8.250
 7257POPC   C3A37877  33.044  29.964   7.950
 7257POPC   C4A37878  33.015  29.960   7.650
 7257POPC   C1B37879  32.750  29.949   8.550
 7257POPC   C2B37880  32.749  29.972   8.250
 7257POPC   C3B37881  32.734  30.003   7.950
 7257POPC   C4B37882  32.793  29.982   7.650
 7258POPC   NC337883   9.013  28.394   9.450
 7258POPC   PO437884   8.928  28.404   9.150
 7258POPC   GL137885   8.938  28.327   8.850
 7258POPC   GL237886   8.875  28.380   8.850
 7258POPC   C1A37887   8.985  28.321   8.550
 7258POPC   D2A37888   8.952  28.355   8.250
 7258POPC   C3A37889   8.937  28.403   7.950
 7258POPC   C4A37890   8.928  28.349   7.650
 7258POPC   C1B37891   8.736  28.469   8.550
 7258POPC   C2B37892   8.761  28.512   8.250
 7258POPC   C3B37893   8.715  28.520   7.950
 7258POPC   C4B37894   8.751  28.457   7.650
 7259POPC   NC337895  11.288  15.137   9.450
 7259POPC   PO437896  11.312  15.174   9.150
 7259POPC   GL137897  11.342  15.176   8.850
 7259POPC   GL237898  11.247  15.251   8.850
 7259POPC   C1A37899  11.253  15.209   8.550
 7259POPC   D2A37900  11.266  15.217   8.250
 7259POPC   C3A37901  11.266  15.165   7.950
 7259POPC   C4A37902  11.311  15.185   7.650
 7259POPC   C1B37903  11.197  15.406   8.550
 7259POPC   C2B37904  11.187  15.387   8.250
 7259POPC   C3B37905  11.232  15.375   7.950
 7259POPC   C4B37906  11.247  15.419   7.650
 7260POPC   NC337907  14.436  44.665   9.450
 7260POPC   PO437908  14.444  44.702   9.150
 7260POPC   GL137909  14.388  44.656   8.850
 7260POPC   GL237910  14.314  44.631   8.850
 7260POPC   C1A37911  14.389  44.632   8.550
 7260POPC   D2A37912  14.383  44.653   8.250
 7260POPC   C3A37913  14.396  44.683   7.950
 7260POPC   C4A37914  14.449  44.668   7.650
 7260POPC   C1B37915  14.153  44.591   8.550
 7260POPC   C2B37916  14.137  44.532   8.250
 7260POPC   C3B37917  14.162  44.578   7.950
 7260POPC   C4B37918  14.199  44.571   7.650
 7261POPC   NC337919   6.682  21.371   9.450
 7261POPC   PO437920   6.633  21.400   9.150
 7261POPC   GL137921   6.605  21.378   8.850
 7261POPC   GL237922   6.704  21.264   8.850
 7261POPC   C1A37923   6.676  21.428   8.550
 7261POPC   D2A37924   6.610  21.413   8.250
 7261POPC   C3A37925   6.686  21.389   7.950
 7261POPC   C4A37926   6.634  21.379   7.650
 7261POPC   C1B37927   6.823  21.218   8.550
 7261POPC   C2B37928   6.807  21.240   8.250
 7261POPC   C3B37929   6.848  21.213   7.950
 7261POPC   C4B37930   6.839  21.223   7.650
 7262POPC   NC337931  24.491  41.544   9.450
 7262POPC   PO437932  24.440  41.596   9.150
 7262POPC   GL137933  24.466  41.560   8.850
 7262POPC   GL237934  24.335  41.627   8.850
 7262POPC   C1A37935  24.496  41.520   8.550
 7262POPC   D2A37936  24.480  41.584   8.250
 7262POPC   C3A37937  24.476  41.529   7.950
 7262POPC   C4A37938  24.473  41.591   7.650
 7262POPC   C1B37939  24.265  41.698   8.550
 7262POPC   C2B37940  24.235  41.725   8.250
 7262POPC   C3B37941  24.312  41.739   7.950
 7262POPC   C4B37942  24.311  41.719   7.650
 7263POPC   NC337943  25.302  15.997   9.450
 7263POPC   PO437944  25.296  15.931   9.150
 7263POPC   GL137945  25.294  15.960   8.850
 7263POPC   GL237946  25.208  15.872   8.850
 7263POPC   C1A37947  25.226  15.913   8.550
 7263POPC   D2A37948  25.233  15.958   8.250
 7263POPC   C3A37949  25.222  15.998   7.950
 7263POPC   C4A37950  25.298  15.985   7.650
 7263POPC   C1B37951  25.146  15.688   8.550
 7263POPC   C2B37952  25.101  15.742   8.250
 7263POPC   C3B37953  25.130  15.691   7.950
 7263POPC   C4B37954  25.105  15.748   7.650
 7264POPC   NC337955  43.159  31.502   9.450
 7264POPC   PO437956  43.106  31.520   9.150
 7264POPC   GL137957  43.155  31.475   8.850
 7264POPC   GL237958  43.219  31.445   8.850
 7264POPC   C1A37959  43.102  31.496   8.550
 7264POPC   D2A37960  43.064  31.468   8.250
 7264POPC   C3A37961  43.087  31.443   7.950
 7264POPC   C4A37962  43.131  31.519   7.650
 7264POPC   C1B37963  43.313  31.336   8.550
 7264POPC   C2B37964  43.332  31.357   8.250
 7264POPC   C3B37965  43.352  31.279   7.950
 7264POPC   C4B37966  43.326  31.280   7.650
 7265POPC   NC337967  32.278  38.470   9.450
 7265POPC   PO437968  32.210  38.408   9.150
 7265POPC   GL137969  32.227  38.415   8.850
 7265POPC   GL237970  32.366  38.487   8.850
 7265POPC   C1A37971  32.208  38.426   8.550
 7265POPC   D2A37972  32.219  38.440   8.250
 7265POPC   C3A37973  32.246  38.406   7.950
 7265POPC   C4A37974  32.245  38.441   7.650
 7265POPC   C1B37975  32.448  38.454   8.550
 7265POPC   C2B37976  32.487  38.424   8.250
 7265POPC   C3B37977  32.523  38.427   7.950
 7265POPC   C4B37978  32.449  38.405   7.650
 7266POPC   NC337979  20.633  13.653   9.450
 7266POPC   PO437980  20.624  13.677   9.150
 7266POPC   GL137981  20.599  13.639   8.850
 7266POPC   GL237982  20.532  13.766   8.850
 7266POPC   C1A37983  20.641  13.626   8.550
 7266POPC   D2A37984  20.621  13.633   8.250
 7266POPC   C3A37985  20.571  13.592   7.950
 7266POPC   C4A37986  20.626  13.639   7.650
 7266POPC   C1B37987  20.547  13.881   8.550
 7266POPC   C2B37988  20.529  13.829   8.250
 7266POPC   C3B37989  20.571  13.828   7.950
 7266POPC   C4B37990  20.578  13.902   7.650
 7267POPC   NC337991   8.175  11.295   9.450
 7267POPC   PO437992   8.157  11.267   9.150
 7267POPC   GL137993   8.233  11.290   8.850
 7267POPC   GL237994   8.248  11.404   8.850
 7267POPC   C1A37995   8.157  11.301   8.550
 7267POPC   D2A37996   8.221  11.261   8.250
 7267POPC   C3A37997   8.209  11.301   7.950
 7267POPC   C4A37998   8.196  11.285   7.650
 7267POPC   C1B37999   8.230  11.512   8.550
 7267POPC   C2B38000   8.294  11.567   8.250
 7267POPC   C3B38001   8.280  11.585   7.950
 7267POPC   C4B38002   8.224  11.567   7.650
 7268POPC   NC338003  44.642   5.841   9.450
 7268POPC   PO438004  44.704   5.837   9.150
 7268POPC   GL138005  44.660   5.866   8.850
 7268POPC   GL238006  44.623   5.743   8.850
 7268POPC   C1A38007  44.617   5.859   8.550
 7268POPC   D2A38008  44.674   5.861   8.250
 7268POPC   C3A38009  44.618   5.826   7.950
 7268POPC   C4A38010  44.617   5.886   7.650
 7268POPC   C1B38011  44.600   5.637   8.550
 7268POPC   C2B38012  44.570   5.611   8.250
 7268POPC   C3B38013  44.548   5.613   7.950
 7268POPC   C4B38014  44.554   5.655   7.650
 7269POPC   NC338015  10.538   4.306   9.450
 7269POPC   PO438016  10.542   4.337   9.150
 7269POPC   GL138017  10.511   4.366   8.850
 7269POPC   GL238018  10.537   4.473   8.850
 7269POPC   C1A38019  10.510   4.367   8.550
 7269POPC   D2A38020  10.497   4.350   8.250
 7269POPC   C3A38021  10.560   4.330   7.950
 7269POPC   C4A38022  10.541   4.269   7.650
 7269POPC   C1B38023  10.597   4.541   8.550
 7269POPC   C2B38024  10.628   4.515   8.250
 7269POPC   C3B38025  10.588   4.607   7.950
 7269POPC   C4B38026  10.542   4.584   7.650
 7270POPC   NC338027   0.488  41.557   9.450
 7270POPC   PO438028   0.431  41.564   9.150
 7270POPC   GL138029   0.427  41.547   8.850
 7270POPC   GL238030   0.565  41.455   8.850
 7270POPC   C1A38031   0.401  41.559   8.550
 7270POPC   D2A38032   0.428  41.537   8.250
 7270POPC   C3A38033   0.478  41.583   7.950
 7270POPC   C4A38034   0.455  41.543   7.650
 7270POPC   C1B38035   0.622  41.392   8.550
 7270POPC   C2B38036   0.700  41.410   8.250
 7270POPC   C3B38037   0.632  41.482   7.950
 7270POPC   C4B38038   0.629  41.391   7.650
 7271POPC   NC338039  22.973  14.392   9.450
 7271POPC   PO438040  22.930  14.421   9.150
 7271POPC   GL138041  22.903  14.388   8.850
 7271POPC   GL238042  22.796  14.463   8.850
 7271POPC   C1A38043  22.919  14.394   8.550
 7271POPC   D2A38044  22.983  14.442   8.250
 7271POPC   C3A38045  22.955  14.428   7.950
 7271POPC   C4A38046  22.909  14.443   7.650
 7271POPC   C1B38047  22.682  14.572   8.550
 7271POPC   C2B38048  22.675  14.559   8.250
 7271POPC   C3B38049  22.768  14.554   7.950
 7271POPC   C4B38050  22.773  14.527   7.650
 7272POPC   NC338051  37.642  15.193   9.450
 7272POPC   PO438052  37.645  15.223   9.150
 7272POPC   GL138053  37.691  15.219   8.850
 7272POPC   GL238054  37.764  15.240   8.850
 7272POPC   C1A38055  37.727  15.210   8.550
 7272POPC   D2A38056  37.680  15.136   8.250
 7272POPC   C3A38057  37.700  15.186   7.950
 7272POPC   C4A38058  37.676  15.188   7.650
 7272POPC   C1B38059  37.949  15.231   8.550
 7272POPC   C2B38060  37.890  15.267   8.250
 7272POPC   C3B38061  37.922  15.260   7.950
 7272POPC   C4B38062  37.940  15.294   7.650
 7273POPC   NC338063  27.632  13.616   9.450
 7273POPC   PO438064  27.555  13.605   9.150
 7273POPC   GL138065  27.578  13.657   8.850
 7273POPC   GL238066  27.643  13.547   8.850
 7273POPC   C1A38067  27.549  13.675   8.550
 7273POPC   D2A38068  27.556  13.580   8.250
 7273POPC   C3A38069  27.581  13.659   7.950
 7273POPC   C4A38070  27.635  13.614   7.650
 7273POPC   C1B38071  27.569  13.428   8.550
 7273POPC   C2B38072  27.595  13.336   8.250
 7273POPC   C3B38073  27.621  13.377   7.950
 7273POPC   C4B38074  27.608  13.403   7.650
 7274POPC   NC338075  42.364  16.747   9.450
 7274POPC   PO438076  42.374  16.687   9.150
 7274POPC   GL138077  42.340  16.739   8.850
 7274POPC   GL238078  42.310  16.585   8.850
 7274POPC   C1A38079  42.366  16.771   8.550
 7274POPC   D2A38080  42.299  16.743   8.250
 7274POPC   C3A38081  42.357  16.715   7.950
 7274POPC   C4A38082  42.374  16.727   7.650
 7274POPC   C1B38083  42.312  16.469   8.550
 7274POPC   C2B38084  42.274  16.501   8.250
 7274POPC   C3B38085  42.308  16.482   7.950
 7274POPC   C4B38086  42.251  16.534   7.650
 7275POPC   NC338087  36.103  15.158   9.450
 7275POPC   PO438088  36.157  15.160   9.150
 7275POPC   GL138089  36.156  15.209   8.850
 7275POPC   GL238090  36.159  15.262   8.850
 7275POPC   C1A38091  36.114  15.183   8.550
 7275POPC   D2A38092  36.111  15.203   8.250
 7275POPC   C3A38093  36.129  15.188   7.950
 7275POPC   C4A38094  36.093  15.146   7.650
 7275POPC   C1B38095  36.186  15.385   8.550
 7275POPC   C2B38096  36.175  15.399   8.250
 7275POPC   C3B38097  36.171  15.439   7.950
 7275POPC   C4B38098  36.126  15.394   7.650
 7276POPC   NC338099  12.842  36.882   9.450
 7276POPC   PO438100  12.811  36.874   9.150
 7276POPC   GL138101  12.856  36.905   8.850
 7276POPC   GL238102  12.774  36.857   8.850
 7276POPC   C1A38103  12.859  36.898   8.550
 7276POPC   D2A38104  12.851  36.872   8.250
 7276POPC   C3A38105  12.852  36.923   7.950
 7276POPC   C4A38106  12.881  36.904   7.650
 7276POPC   C1B38107  12.619  36.708   8.550
 7276POPC   C2B38108  12.631  36.785   8.250
 7276POPC   C3B38109  12.646  36.727   7.950
 7276POPC   C4B38110  12.641  36.792   7.650
 7277POPC   NC338111  30.720  33.015   9.450
 7277POPC   PO438112  30.698  32.998   9.150
 7277POPC   GL138113  30.721  33.043   8.850
 7277POPC   GL238114  30.795  32.874   8.850
 7277POPC   C1A38115  30.659  32.990   8.550
 7277POPC   D2A38116  30.719  33.041   8.250
 7277POPC   C3A38117  30.702  33.005   7.950
 7277POPC   C4A38118  30.697  33.047   7.650
 7277POPC   C1B38119  30.801  32.809   8.550
 7277POPC   C2B38120  30.804  32.766   8.250
 7277POPC   C3B38121  30.763  32.805   7.950
 7277POPC   C4B38122  30.769  32.806   7.650
 7278POPC   NC338123  11.338  40.042   9.450
 7278POPC   PO438124  11.301  40.036   9.150
 7278POPC   GL138125  11.339  39.991   8.850
 7278POPC   GL238126  11.216  39.880   8.850
 7278POPC   C1A38127  11.341  39.996   8.550
 7278POPC   D2A38128  11.260  39.984   8.250
 7278POPC   C3A38129  11.290  40.034   7.950
 7278POPC   C4A38130  11.309  40.003   7.650
 7278POPC   C1B38131  11.109  39.796   8.550
 7278POPC   C2B38132  11.113  39.772   8.250
 7278POPC   C3B38133  11.096  39.849   7.950
 7278POPC   C4B38134  11.156  39.799   7.650
 7279POPC   NC338135  36.129  12.123   9.450
 7279POPC   PO438136  36.079  12.044   9.150
 7279POPC   GL138137  36.094  12.051   8.850
 7279POPC   GL238138  36.153  11.953   8.850
 7279POPC   C1A38139  36.117  12.112   8.550
 7279POPC   D2A38140  36.146  12.079   8.250
 7279POPC   C3A38141  36.151  12.059   7.950
 7279POPC   C4A38142  36.153  12.104   7.650
 7279POPC   C1B38143  36.183  11.792   8.550
 7279POPC   C2B38144  36.161  11.813   8.250
 7279POPC   C3B38145  36.155  11.846   7.950
 7279POPC   C4B38146  36.151  11.810   7.650
 7280POPC   NC338147  38.434  11.329   9.450
 7280POPC   PO438148  38.442  11.301   9.150
 7280POPC   GL138149  38.455  11.283   8.850
 7280POPC   GL238150  38.359  11.201   8.850
 7280POPC   C1A38151  38.408  11.330   8.550
 7280POPC   D2A38152  38.423  11.308   8.250
 7280POPC   C3A38153  38.436  11.298   7.950
 7280POPC   C4A38154  38.488  11.298   7.650
 7280POPC   C1B38155  38.312  11.086   8.550
 7280POPC   C2B38156  38.248  11.170   8.250
 7280POPC   C3B38157  38.228  11.145   7.950
 7280POPC   C4B38158  38.263  11.101   7.650
 7281POPC   NC338159  43.903  15.963   9.450
 7281POPC   PO438160  43.934  15.945   9.150
 7281POPC   GL138161  43.936  16.000   8.850
 7281POPC   GL238162  44.006  15.910   8.850
 7281POPC   C1A38163  43.924  15.993   8.550
 7281POPC   D2A38164  43.894  15.920   8.250
 7281POPC   C3A38165  43.857  15.974   7.950
 7281POPC   C4A38166  43.925  15.990   7.650
 7281POPC   C1B38167  44.151  15.992   8.550
 7281POPC   C2B38168  44.172  15.991   8.250
 7281POPC   C3B38169  44.104  16.009   7.950
 7281POPC   C4B38170  44.091  15.950   7.650
 7282POPC   NC338171  30.734   4.342   9.450
 7282POPC   PO438172  30.688   4.294   9.150
 7282POPC   GL138173  30.700   4.268   8.850
 7282POPC   GL238174  30.618   4.436   8.850
 7282POPC   C1A38175  30.655   4.310   8.550
 7282POPC   D2A38176  30.676   4.355   8.250
 7282POPC   C3A38177  30.673   4.360   7.950
 7282POPC   C4A38178  30.661   4.341   7.650
 7282POPC   C1B38179  30.594   4.537   8.550
 7282POPC   C2B38180  30.589   4.545   8.250
 7282POPC   C3B38181  30.595   4.527   7.950
 7282POPC   C4B38182  30.627   4.581   7.650
 7283POPC   NC338183  40.028   8.979   9.450
 7283POPC   PO438184  40.057   9.003   9.150
 7283POPC   GL138185  39.978   8.987   8.850
 7283POPC   GL238186  40.160   9.014   8.850
 7283POPC   C1A38187  39.981   8.961   8.550
 7283POPC   D2A38188  40.023   8.990   8.250
 7283POPC   C3A38189  40.000   9.004   7.950
 7283POPC   C4A38190  40.008   8.922   7.650
 7283POPC   C1B38191  40.264   9.064   8.550
 7283POPC   C2B38192  40.222   9.069   8.250
 7283POPC   C3B38193  40.254   8.991   7.950
 7283POPC   C4B38194  40.295   9.058   7.650
 7284POPC   NC338195   5.100  39.262   9.450
 7284POPC   PO438196   5.094  39.241   9.150
 7284POPC   GL138197   5.136  39.224   8.850
 7284POPC   GL238198   4.934  39.262   8.850
 7284POPC   C1A38199   5.116  39.281   8.550
 7284POPC   D2A38200   5.111  39.238   8.250
 7284POPC   C3A38201   5.056  39.261   7.950
 7284POPC   C4A38202   5.057  39.279   7.650
 7284POPC   C1B38203   4.885  39.255   8.550
 7284POPC   C2B38204   4.811  39.266   8.250
 7284POPC   C3B38205   4.810  39.196   7.950
 7284POPC   C4B38206   4.842  39.200   7.650
 7285POPC   NC338207  39.227  12.040   9.450
 7285POPC   PO438208  39.226  12.121   9.150
 7285POPC   GL138209  39.245  12.059   8.850
 7285POPC   GL238210  39.128  12.062   8.850
 7285POPC   C1A38211  39.190  12.067   8.550
 7285POPC   D2A38212  39.246  12.031   8.250
 7285POPC   C3A38213  39.250  12.092   7.950
 7285POPC   C4A38214  39.232  12.121   7.650
 7285POPC   C1B38215  38.939  12.079   8.550
 7285POPC   C2B38216  38.990  12.053   8.250
 7285POPC   C3B38217  38.989  12.005   7.950
 7285POPC   C4B38218  38.992  12.003   7.650
 7286POPC   NC338219   6.613   8.209   9.450
 7286POPC   PO438220   6.691   8.224   9.150
 7286POPC   GL138221   6.693   8.186   8.850
 7286POPC   GL238222   6.582   8.129   8.850
 7286POPC   C1A38223   6.657   8.150   8.550
 7286POPC   D2A38224   6.613   8.232   8.250
 7286POPC   C3A38225   6.617   8.198   7.950
 7286POPC   C4A38226   6.684   8.153   7.650
 7286POPC   C1B38227   6.513   8.056   8.550
 7286POPC   C2B38228   6.465   8.028   8.250
 7286POPC   C3B38229   6.441   8.023   7.950
 7286POPC   C4B38230   6.466   7.996   7.650
 7287POPC   NC338231  32.223  23.734   9.450
 7287POPC   PO438232  32.217  23.723   9.150
 7287POPC   GL138233  32.199  23.693   8.850
 7287POPC   GL238234  32.408  23.706   8.850
 7287POPC   C1A38235  32.214  23.697   8.550
 7287POPC   D2A38236  32.227  23.695   8.250
 7287POPC   C3A38237  32.273  23.752   7.950
 7287POPC   C4A38238  32.247  23.727   7.650
 7287POPC   C1B38239  32.464  23.728   8.550
 7287POPC   C2B38240  32.525  23.711   8.250
 7287POPC   C3B38241  32.512  23.803   7.950
 7287POPC   C4B38242  32.538  23.734   7.650
 7288POPC   NC338243  35.354   2.738   9.450
 7288POPC   PO438244  35.368   2.748   9.150
 7288POPC   GL138245  35.359   2.763   8.850
 7288POPC   GL238246  35.240   2.852   8.850
 7288POPC   C1A38247  35.381   2.727   8.550
 7288POPC   D2A38248  35.305   2.721   8.250
 7288POPC   C3A38249  35.350   2.744   7.950
 7288POPC   C4A38250  35.335   2.810   7.650
 7288POPC   C1B38251  35.193   2.979   8.550
 7288POPC   C2B38252  35.190   2.933   8.250
 7288POPC   C3B38253  35.195   2.975   7.950
 7288POPC   C4B38254  35.186   3.005   7.650
 7289POPC   NC338255  35.399  28.382   9.450
 7289POPC   PO438256  35.332  28.410   9.150
 7289POPC   GL138257  35.358  28.326   8.850
 7289POPC   GL238258  35.316  28.459   8.850
 7289POPC   C1A38259  35.311  28.394   8.550
 7289POPC   D2A38260  35.379  28.414   8.250
 7289POPC   C3A38261  35.316  28.419   7.950
 7289POPC   C4A38262  35.388  28.332   7.650
 7289POPC   C1B38263  35.366  28.576   8.550
 7289POPC   C2B38264  35.278  28.663   8.250
 7289POPC   C3B38265  35.335  28.657   7.950
 7289POPC   C4B38266  35.328  28.628   7.650
 7290POPC   NC338267  44.683   2.775   9.450
 7290POPC   PO438268  44.665   2.790   9.150
 7290POPC   GL138269  44.704   2.786   8.850
 7290POPC   GL238270  44.513   2.815   8.850
 7290POPC   C1A38271  44.638   2.748   8.550
 7290POPC   D2A38272  44.705   2.750   8.250
 7290POPC   C3A38273  44.650   2.773   7.950
 7290POPC   C4A38274  44.681   2.736   7.650
 7290POPC   C1B38275  44.409   2.841   8.550
 7290POPC   C2B38276  44.475   2.884   8.250
 7290POPC   C3B38277  44.477   2.882   7.950
 7290POPC   C4B38278  44.399   2.836   7.650
 7291POPC   NC338279  30.735  14.416   9.450
 7291POPC   PO438280  30.719  14.388   9.150
 7291POPC   GL138281  30.730  14.399   8.850
 7291POPC   GL238282  30.713  14.306   8.850
 7291POPC   C1A38283  30.712  14.400   8.550
 7291POPC   D2A38284  30.680  14.413   8.250
 7291POPC   C3A38285  30.739  14.392   7.950
 7291POPC   C4A38286  30.665  14.355   7.650
 7291POPC   C1B38287  30.721  14.126   8.550
 7291POPC   C2B38288  30.708  14.164   8.250
 7291POPC   C3B38289  30.696  14.110   7.950
 7291POPC   C4B38290  30.758  14.191   7.650
 7292POPC   NC338291  28.401   3.571   9.450
 7292POPC   PO438292  28.335   3.514   9.150
 7292POPC   GL138293  28.403   3.580   8.850
 7292POPC   GL238294  28.335   3.420   8.850
 7292POPC   C1A38295  28.374   3.572   8.550
 7292POPC   D2A38296  28.367   3.589   8.250
 7292POPC   C3A38297  28.384   3.557   7.950
 7292POPC   C4A38298  28.406   3.548   7.650
 7292POPC   C1B38299  28.211   3.333   8.550
 7292POPC   C2B38300  28.179   3.381   8.250
 7292POPC   C3B38301  28.233   3.351   7.950
 7292POPC   C4B38302  28.256   3.342   7.650
 7293POPC   NC338303  40.793  15.923   9.450
 7293POPC   PO438304  40.788  15.975   9.150
 7293POPC   GL138305  40.737  15.936   8.850
 7293POPC   GL238306  40.846  16.054   8.850
 7293POPC   C1A38307  40.800  15.972   8.550
 7293POPC   D2A38308  40.799  15.926   8.250
 7293POPC   C3A38309  40.825  15.997   7.950
 7293POPC   C4A38310  40.803  15.930   7.650
 7293POPC   C1B38311  40.911  16.165   8.550
 7293POPC   C2B38312  40.891  16.202   8.250
 7293POPC   C3B38313  40.921  16.140   7.950
 7293POPC   C4B38314  40.852  16.218   7.650
 7294POPC   NC338315   4.365  36.132   9.450
 7294POPC   PO438316   4.342  36.101   9.150
 7294POPC   GL138317   4.308  36.118   8.850
 7294POPC   GL238318   4.239  35.963   8.850
 7294POPC   C1A38319   4.327  36.166   8.550
 7294POPC   D2A38320   4.355  36.112   8.250
 7294POPC   C3A38321   4.317  36.080   7.950
 7294POPC   C4A38322   4.287  36.097   7.650
 7294POPC   C1B38323   4.279  35.849   8.550
 7294POPC   C2B38324   4.207  35.915   8.250
 7294POPC   C3B38325   4.259  35.916   7.950
 7294POPC   C4B38326   4.281  35.864   7.650
 7295POPC   NC338327  29.169   2.037   9.450
 7295POPC   PO438328  29.098   2.006   9.150
 7295POPC   GL138329  29.174   2.000   8.850
 7295POPC   GL238330  29.094   2.065   8.850
 7295POPC   C1A38331  29.099   2.011   8.550
 7295POPC   D2A38332  29.118   1.992   8.250
 7295POPC   C3A38333  29.113   2.038   7.950
 7295POPC   C4A38334  29.166   2.020   7.650
 7295POPC   C1B38335  28.985   2.144   8.550
 7295POPC   C2B38336  28.919   2.181   8.250
 7295POPC   C3B38337  28.983   2.143   7.950
 7295POPC   C4B38338  28.978   2.171   7.650
 7296POPC   NC338339  40.040  43.132   9.450
 7296POPC   PO438340  40.032  43.146   9.150
 7296POPC   GL138341  39.972  43.108   8.850
 7296POPC   GL238342  39.933  43.262   8.850
 7296POPC   C1A38343  40.004  43.090   8.550
 7296POPC   D2A38344  39.968  43.083   8.250
 7296POPC   C3A38345  40.012  43.100   7.950
 7296POPC   C4A38346  40.018  43.080   7.650
 7296POPC   C1B38347  39.890  43.291   8.550
 7296POPC   C2B38348  39.888  43.385   8.250
 7296POPC   C3B38349  39.886  43.348   7.950
 7296POPC   C4B38350  39.883  43.339   7.650
 7297POPC   NC338351  15.187  29.902   9.450
 7297POPC   PO438352  15.207  29.937   9.150
 7297POPC   GL138353  15.219  29.962   8.850
 7297POPC   GL238354  15.101  29.914   8.850
 7297POPC   C1A38355  15.140  29.950   8.550
 7297POPC   D2A38356  15.165  29.881   8.250
 7297POPC   C3A38357  15.178  29.921   7.950
 7297POPC   C4A38358  15.187  29.910   7.650
 7297POPC   C1B38359  14.887  29.913   8.550
 7297POPC   C2B38360  14.932  29.898   8.250
 7297POPC   C3B38361  14.949  29.883   7.950
 7297POPC   C4B38362  14.933  29.900   7.650
 7298POPC   NC338363  39.193  15.137   9.450
 7298POPC   PO438364  39.183  15.160   9.150
 7298POPC   GL138365  39.249  15.180   8.850
 7298POPC   GL238366  39.232  15.084   8.850
 7298POPC   C1A38367  39.243  15.162   8.550
 7298POPC   D2A38368  39.200  15.174   8.250
 7298POPC   C3A38369  39.244  15.162   7.950
 7298POPC   C4A38370  39.248  15.132   7.650
 7298POPC   C1B38371  39.325  14.913   8.550
 7298POPC   C2B38372  39.328  14.932   8.250
 7298POPC   C3B38373  39.341  14.964   7.950
 7298POPC   C4B38374  39.375  14.911   7.650
 7299POPC   NC338375  36.110  31.475   9.450
 7299POPC   PO438376  36.085  31.482   9.150
 7299POPC   GL138377  36.129  31.456   8.850
 7299POPC   GL238378  36.112  31.598   8.850
 7299POPC   C1A38379  36.119  31.515   8.550
 7299POPC   D2A38380  36.159  31.442   8.250
 7299POPC   C3A38381  36.100  31.424   7.950
 7299POPC   C4A38382  36.098  31.430   7.650
 7299POPC   C1B38383  36.108  31.684   8.550
 7299POPC   C2B38384  36.141  31.724   8.250
 7299POPC   C3B38385  36.163  31.714   7.950
 7299POPC   C4B38386  36.094  31.727   7.650
 7300POPC   NC338387  43.870   3.575   9.450
 7300POPC   PO438388  43.903   3.542   9.150
 7300POPC   GL138389  43.883   3.585   8.850
 7300POPC   GL238390  43.775   3.595   8.850
 7300POPC   C1A38391  43.914   3.573   8.550
 7300POPC   D2A38392  43.895   3.523   8.250
 7300POPC   C3A38393  43.912   3.568   7.950
 7300POPC   C4A38394  43.858   3.545   7.650
 7300POPC   C1B38395  43.613   3.673   8.550
 7300POPC   C2B38396  43.678   3.613   8.250
 7300POPC   C3B38397  43.625   3.682   7.950
 7300POPC   C4B38398  43.688   3.658   7.650
 7301POPC   NC338399   9.743   2.037   9.450
 7301POPC   PO438400   9.790   1.954   9.150
 7301POPC   GL138401   9.762   2.033   8.850
 7301POPC   GL238402   9.801   2.076   8.850
 7301POPC   C1A38403   9.749   1.995   8.550
 7301POPC   D2A38404   9.755   2.018   8.250
 7301POPC   C3A38405   9.749   1.968   7.950
 7301POPC   C4A38406   9.789   1.979   7.650
 7301POPC   C1B38407   9.809   2.244   8.550
 7301POPC   C2B38408   9.844   2.190   8.250
 7301POPC   C3B38409   9.821   2.243   7.950
 7301POPC   C4B38410   9.837   2.251   7.650
 7302POPC   NC338411  31.451  10.543   9.450
 7302POPC   PO438412  31.467  10.546   9.150
 7302POPC   GL138413  31.438  10.498   8.850
 7302POPC   GL238414  31.404  10.627   8.850
 7302POPC   C1A38415  31.511  10.475   8.550
 7302POPC   D2A38416  31.483  10.546   8.250
 7302POPC   C3A38417  31.513  10.480   7.950
 7302POPC   C4A38418  31.470  10.478   7.650
 7302POPC   C1B38419  31.272  10.645   8.550
 7302POPC   C2B38420  31.272  10.660   8.250
 7302POPC   C3B38421  31.232  10.671   7.950
 7302POPC   C4B38422  31.256  10.710   7.650
 7303POPC   NC338423   0.487  35.324   9.450
 7303POPC   PO438424   0.395  35.350   9.150
 7303POPC   GL138425   0.471  35.320   8.850
 7303POPC   GL238426   0.361  35.451   8.850
 7303POPC   C1A38427   0.459  35.384   8.550
 7303POPC   D2A38428   0.478  35.352   8.250
 7303POPC   C3A38429   0.409  35.320   7.950
 7303POPC   C4A38430   0.475  35.348   7.650
 7303POPC   C1B38431   0.336  35.553   8.550
 7303POPC   C2B38432   0.353  35.614   8.250
 7303POPC   C3B38433   0.316  35.577   7.950
 7303POPC   C4B38434   0.353  35.558   7.650
 7304POPC   NC338435   0.479  15.917   9.450
 7304POPC   PO438436   0.451  15.934   9.150
 7304POPC   GL138437   0.465  16.001   8.850
 7304POPC   GL238438   0.590  16.021   8.850
 7304POPC   C1A38439   0.471  15.948   8.550
 7304POPC   D2A38440   0.432  15.970   8.250
 7304POPC   C3A38441   0.429  15.951   7.950
 7304POPC   C4A38442   0.485  15.950   7.650
 7304POPC   C1B38443   0.626  16.097   8.550
 7304POPC   C2B38444   0.632  16.064   8.250
 7304POPC   C3B38445   0.684  16.114   7.950
 7304POPC   C4B38446   0.659  16.101   7.650
 7305POPC   NC338447  36.103  15.987   9.450
 7305POPC   PO438448  36.126  15.989   9.150
 7305POPC   GL138449  36.092  15.910   8.850
 7305POPC   GL238450  36.069  16.100   8.850
 7305POPC   C1A38451  36.132  15.959   8.550
 7305POPC   D2A38452  36.095  15.935   8.250
 7305POPC   C3A38453  36.087  15.916   7.950
 7305POPC   C4A38454  36.156  16.005   7.650
 7305POPC   C1B38455  36.038  16.192   8.550
 7305POPC   C2B38456  36.040  16.187   8.250
 7305POPC   C3B38457  36.015  16.145   7.950
 7305POPC   C4B38458  36.069  16.234   7.650
 7306POPC   NC338459  10.516  30.737   9.450
 7306POPC   PO438460  10.527  30.694   9.150
 7306POPC   GL138461  10.487  30.685   8.850
 7306POPC   GL238462  10.615  30.808   8.850
 7306POPC   C1A38463  10.497  30.677   8.550
 7306POPC   D2A38464  10.495  30.668   8.250
 7306POPC   C3A38465  10.546  30.737   7.950
 7306POPC   C4A38466  10.562  30.654   7.650
 7306POPC   C1B38467  10.675  30.861   8.550
 7306POPC   C2B38468  10.632  30.893   8.250
 7306POPC   C3B38469  10.697  30.873   7.950
 7306POPC   C4B38470  10.655  30.950   7.650
 7307POPC   NC338471  29.925   6.667   9.450
 7307POPC   PO438472  29.888   6.650   9.150
 7307POPC   GL138473  29.962   6.655   8.850
 7307POPC   GL238474  30.055   6.754   8.850
 7307POPC   C1A38475  29.906   6.634   8.550
 7307POPC   D2A38476  29.967   6.687   8.250
 7307POPC   C3A38477  29.936   6.630   7.950
 7307POPC   C4A38478  29.968   6.659   7.650
 7307POPC   C1B38479  30.061   6.817   8.550
 7307POPC   C2B38480  30.122   6.827   8.250
 7307POPC   C3B38481  30.050   6.786   7.950
 7307POPC   C4B38482  30.114   6.828   7.650
 7308POPC   NC338483  12.078  36.855   9.450
 7308POPC   PO438484  12.044  36.922   9.150
 7308POPC   GL138485  12.050  36.887   8.850
 7308POPC   GL238486  11.939  36.959   8.850
 7308POPC   C1A38487  12.088  36.931   8.550
 7308POPC   D2A38488  12.083  36.855   8.250
 7308POPC   C3A38489  12.085  36.880   7.950
 7308POPC   C4A38490  12.101  36.872   7.650
 7308POPC   C1B38491  11.854  37.038   8.550
 7308POPC   C2B38492  11.818  37.022   8.250
 7308POPC   C3B38493  11.803  37.013   7.950
 7308POPC   C4B38494  11.883  37.022   7.650
 7309POPC   NC338495  40.029  22.161   9.450
 7309POPC   PO438496  39.984  22.161   9.150
 7309POPC   GL138497  40.055  22.192   8.850
 7309POPC   GL238498  40.144  22.089   8.850
 7309POPC   C1A38499  40.024  22.206   8.550
 7309POPC   D2A38500  40.053  22.137   8.250
 7309POPC   C3A38501  40.014  22.176   7.950
 7309POPC   C4A38502  40.056  22.197   7.650
 7309POPC   C1B38503  40.226  22.046   8.550
 7309POPC   C2B38504  40.184  22.027   8.250
 7309POPC   C3B38505  40.232  22.035   7.950
 7309POPC   C4B38506  40.241  21.958   7.650
 7310POPC   NC338507  41.550  16.729   9.450
 7310POPC   PO438508  41.556  16.682   9.150
 7310POPC   GL138509  41.553  16.770   8.850
 7310POPC   GL238510  41.538  16.818   8.850
 7310POPC   C1A38511  41.545  16.738   8.550
 7310POPC   D2A38512  41.568  16.741   8.250
 7310POPC   C3A38513  41.596  16.756   7.950
 7310POPC   C4A38514  41.598  16.728   7.650
 7310POPC   C1B38515  41.490  16.983   8.550
 7310POPC   C2B38516  41.500  16.934   8.250
 7310POPC   C3B38517  41.536  17.003   7.950
 7310POPC   C4B38518  41.573  17.028   7.650
 7311POPC   NC338519  41.520   2.771   9.450
 7311POPC   PO438520  41.543   2.773   9.150
 7311POPC   GL138521  41.531   2.724   8.850
 7311POPC   GL238522  41.580   2.638   8.850
 7311POPC   C1A38523  41.547   2.782   8.550
 7311POPC   D2A38524  41.546   2.742   8.250
 7311POPC   C3A38525  41.533   2.812   7.950
 7311POPC   C4A38526  41.565   2.723   7.650
 7311POPC   C1B38527  41.610   2.495   8.550
 7311POPC   C2B38528  41.548   2.512   8.250
 7311POPC   C3B38529  41.612   2.508   7.950
 7311POPC   C4B38530  41.628   2.562   7.650
 7312POPC   NC338531  10.485  36.945   9.450
 7312POPC   PO438532  10.498  36.934   9.150
 7312POPC   GL138533  10.556  36.893   8.850
 7312POPC   GL238534  10.624  36.916   8.850
 7312POPC   C1A38535  10.475  36.928   8.550
 7312POPC   D2A38536  10.565  36.917   8.250
 7312POPC   C3A38537  10.571  36.875   7.950
 7312POPC   C4A38538  10.519  36.928   7.650
 7312POPC   C1B38539  10.753  36.933   8.550
 7312POPC   C2B38540  10.725  36.852   8.250
 7312POPC   C3B38541  10.781  36.861   7.950
 7312POPC   C4B38542  10.753  36.900   7.650
 7313POPC   NC338543  28.394  37.647   9.450
 7313POPC   PO438544  28.359  37.632   9.150
 7313POPC   GL138545  28.332  37.655   8.850
 7313POPC   GL238546  28.387  37.576   8.850
 7313POPC   C1A38547  28.394  37.725   8.550
 7313POPC   D2A38548  28.359  37.679   8.250
 7313POPC   C3A38549  28.361  37.631   7.950
 7313POPC   C4A38550  28.384  37.694   7.650
 7313POPC   C1B38551  28.409  37.438   8.550
 7313POPC   C2B38552  28.472  37.403   8.250
 7313POPC   C3B38553  28.427  37.426   7.950
 7313POPC   C4B38554  28.495  37.452   7.650
 7314POPC   NC338555  36.921   3.567   9.450
 7314POPC   PO438556  36.952   3.586   9.150
 7314POPC   GL138557  36.923   3.557   8.850
 7314POPC   GL238558  37.051   3.509   8.850
 7314POPC   C1A38559  36.923   3.517   8.550
 7314POPC   D2A38560  36.878   3.543   8.250
 7314POPC   C3A38561  36.890   3.543   7.950
 7314POPC   C4A38562  36.919   3.564   7.650
 7314POPC   C1B38563  37.130   3.560   8.550
 7314POPC   C2B38564  37.115   3.537   8.250
 7314POPC   C3B38565  37.174   3.564   7.950
 7314POPC   C4B38566  37.159   3.585   7.650
 7315POPC   NC338567  36.887   0.471   9.450
 7315POPC   PO438568  36.899   0.483   9.150
 7315POPC   GL138569  36.937   0.418   8.850
 7315POPC   GL238570  36.932   0.280   8.850
 7315POPC   C1A38571  36.878   0.428   8.550
 7315POPC   D2A38572  36.901   0.423   8.250
 7315POPC   C3A38573  36.896   0.461   7.950
 7315POPC   C4A38574  36.881   0.424   7.650
 7315POPC   C1B38575  36.904   0.172   8.550
 7315POPC   C2B38576  36.912   0.175   8.250
 7315POPC   C3B38577  36.832   0.193   7.950
 7315POPC   C4B38578  36.817   0.233   7.650
 7316POPC   NC338579   6.668  12.049   9.450
 7316POPC   PO438580   6.668  12.057   9.150
 7316POPC   GL138581   6.671  12.034   8.850
 7316POPC   GL238582   6.721  11.949   8.850
 7316POPC   C1A38583   6.647  12.074   8.550
 7316POPC   D2A38584   6.686  12.051   8.250
 7316POPC   C3A38585   6.672  12.124   7.950
 7316POPC   C4A38586   6.664  12.029   7.650
 7316POPC   C1B38587   6.831  11.899   8.550
 7316POPC   C2B38588   6.853  11.916   8.250
 7316POPC   C3B38589   6.879  11.919   7.950
 7316POPC   C4B38590   6.811  11.892   7.650
 7317POPC   NC338591   3.581  44.645   9.450
 7317POPC   PO438592   3.502  44.636   9.150
 7317POPC   GL138593   3.529  44.679   8.850
 7317POPC   GL238594   3.631  44.700   8.850
 7317POPC   C1A38595   3.556  44.621   8.550
 7317POPC   D2A38596   3.544  44.629   8.250
 7317POPC   C3A38597   3.586  44.613   7.950
 7317POPC   C4A38598   3.496  44.676   7.650
 7317POPC   C1B38599   3.684  44.849   8.550
 7317POPC   C2B38600   3.716  44.860   8.250
 7317POPC   C3B38601   3.676  44.848   7.950
 7317POPC   C4B38602   3.724  44.873   7.650
 7318POPC   NC338603   3.541  19.104   9.450
 7318POPC   PO438604   3.586  19.015   9.150
 7318POPC   GL138605   3.545  19.077   8.850
 7318POPC   GL238606   3.650  19.100   8.850
 7318POPC   C1A38607   3.572  19.083   8.550
 7318POPC   D2A38608   3.574  19.093   8.250
 7318POPC   C3A38609   3.577  19.053   7.950
 7318POPC   C4A38610   3.511  19.082   7.650
 7318POPC   C1B38611   3.788  19.038   8.550
 7318POPC   C2B38612   3.767  19.033   8.250
 7318POPC   C3B38613   3.757  19.089   7.950
 7318POPC   C4B38614   3.767  19.092   7.650
 7319POPC   NC338615  13.673  24.499   9.450
 7319POPC   PO438616  13.595  24.517   9.150
 7319POPC   GL138617  13.604  24.480   8.850
 7319POPC   GL238618  13.618  24.403   8.850
 7319POPC   C1A38619  13.609  24.453   8.550
 7319POPC   D2A38620  13.579  24.528   8.250
 7319POPC   C3A38621  13.637  24.476   7.950
 7319POPC   C4A38622  13.669  24.499   7.650
 7319POPC   C1B38623  13.671  24.275   8.550
 7319POPC   C2B38624  13.610  24.204   8.250
 7319POPC   C3B38625  13.672  24.190   7.950
 7319POPC   C4B38626  13.639  24.284   7.650
 7320POPC   NC338627  12.901  26.824   9.450
 7320POPC   PO438628  12.856  26.809   9.150
 7320POPC   GL138629  12.851  26.851   8.850
 7320POPC   GL238630  12.920  26.868   8.850
 7320POPC   C1A38631  12.902  26.857   8.550
 7320POPC   D2A38632  12.891  26.849   8.250
 7320POPC   C3A38633  12.803  26.819   7.950
 7320POPC   C4A38634  12.895  26.820   7.650
 7320POPC   C1B38635  13.021  27.040   8.550
 7320POPC   C2B38636  13.034  27.035   8.250
 7320POPC   C3B38637  13.014  27.010   7.950
 7320POPC   C4B38638  12.992  27.004   7.650
 7321POPC   NC338639  13.602  26.009   9.450
 7321POPC   PO438640  13.669  26.058   9.150
 7321POPC   GL138641  13.648  26.074   8.850
 7321POPC   GL238642  13.710  25.974   8.850
 7321POPC   C1A38643  13.589  26.090   8.550
 7321POPC   D2A38644  13.664  25.993   8.250
 7321POPC   C3A38645  13.620  26.051   7.950
 7321POPC   C4A38646  13.629  26.052   7.650
 7321POPC   C1B38647  13.842  25.898   8.550
 7321POPC   C2B38648  13.841  25.928   8.250
 7321POPC   C3B38649  13.808  25.932   7.950
 7321POPC   C4B38650  13.875  25.901   7.650
 7322POPC   NC338651   2.814   8.986   9.450
 7322POPC   PO438652   2.800   8.945   9.150
 7322POPC   GL138653   2.782   9.017   8.850
 7322POPC   GL238654   2.593   8.952   8.850
 7322POPC   C1A38655   2.804   8.946   8.550
 7322POPC   D2A38656   2.801   8.975   8.250
 7322POPC   C3A38657   2.728   8.956   7.950
 7322POPC   C4A38658   2.795   8.990   7.650
 7322POPC   C1B38659   2.516   8.992   8.550
 7322POPC   C2B38660   2.475   9.004   8.250
 7322POPC   C3B38661   2.542   8.994   7.950
 7322POPC   C4B38662   2.467   9.002   7.650
 7323POPC   NC338663   3.555  36.176   9.450
 7323POPC   PO438664   3.537  36.146   9.150
 7323POPC   GL138665   3.545  36.134   8.850
 7323POPC   GL238666   3.634  36.150   8.850
 7323POPC   C1A38667   3.534  36.175   8.550
 7323POPC   D2A38668   3.531  36.096   8.250
 7323POPC   C3A38669   3.492  36.144   7.950
 7323POPC   C4A38670   3.589  36.134   7.650
 7323POPC   C1B38671   3.810  36.142   8.550
 7323POPC   C2B38672   3.760  36.193   8.250
 7323POPC   C3B38673   3.820  36.115   7.950
 7323POPC   C4B38674   3.770  36.175   7.650
 7324POPC   NC338675  16.685   1.259   9.450
 7324POPC   PO438676  16.762   1.233   9.150
 7324POPC   GL138677  16.715   1.259   8.850
 7324POPC   GL238678  16.786   1.356   8.850
 7324POPC   C1A38679  16.712   1.260   8.550
 7324POPC   D2A38680  16.748   1.219   8.250
 7324POPC   C3A38681  16.716   1.244   7.950
 7324POPC   C4A38682  16.700   1.255   7.650
 7324POPC   C1B38683  16.885   1.458   8.550
 7324POPC   C2B38684  16.799   1.426   8.250
 7324POPC   C3B38685  16.861   1.392   7.950
 7324POPC   C4B38686  16.880   1.415   7.650
 7325POPC   NC338687   0.482  14.386   9.450
 7325POPC   PO438688   0.396  14.413   9.150
 7325POPC   GL138689   0.429  14.450   8.850
 7325POPC   GL238690   0.474  14.287   8.850
 7325POPC   C1A38691   0.462  14.365   8.550
 7325POPC   D2A38692   0.406  14.383   8.250
 7325POPC   C3A38693   0.479  14.437   7.950
 7325POPC   C4A38694   0.480  14.447   7.650
 7325POPC   C1B38695   0.617  14.155   8.550
 7325POPC   C2B38696   0.601  14.180   8.250
 7325POPC   C3B38697   0.608  14.228   7.950
 7325POPC   C4B38698   0.622  14.185   7.650
 7326POPC   NC338699  17.486   2.758   9.450
 7326POPC   PO438700  17.487   2.721   9.150
 7326POPC   GL138701  17.536   2.813   8.850
 7326POPC   GL238702  17.615   2.878   8.850
 7326POPC   C1A38703  17.518   2.718   8.550
 7326POPC   D2A38704  17.504   2.774   8.250
 7326POPC   C3A38705  17.488   2.776   7.950
 7326POPC   C4A38706  17.459   2.753   7.650
 7326POPC   C1B38707  17.699   2.875   8.550
 7326POPC   C2B38708  17.682   2.880   8.250
 7326POPC   C3B38709  17.715   2.913   7.950
 7326POPC   C4B38710  17.696   2.876   7.650
 7327POPC   NC338711  15.145  21.406   9.450
 7327POPC   PO438712  15.171  21.342   9.150
 7327POPC   GL138713  15.189  21.401   8.850
 7327POPC   GL238714  15.139  21.528   8.850
 7327POPC   C1A38715  15.197  21.393   8.550
 7327POPC   D2A38716  15.161  21.385   8.250
 7327POPC   C3A38717  15.135  21.385   7.950
 7327POPC   C4A38718  15.135  21.350   7.650
 7327POPC   C1B38719  15.161  21.600   8.550
 7327POPC   C2B38720  15.124  21.676   8.250
 7327POPC   C3B38721  15.185  21.630   7.950
 7327POPC   C4B38722  15.114  21.589   7.650
 7328POPC   NC338723  36.903  29.878   9.450
 7328POPC   PO438724  36.889  29.929   9.150
 7328POPC   GL138725  36.944  29.916   8.850
 7328POPC   GL238726  36.864  30.065   8.850
 7328POPC   C1A38727  36.913  29.875   8.550
 7328POPC   D2A38728  36.867  29.923   8.250
 7328POPC   C3A38729  36.862  29.912   7.950
 7328POPC   C4A38730  36.872  29.953   7.650
 7328POPC   C1B38731  36.876  30.214   8.550
 7328POPC   C2B38732  36.927  30.161   8.250
 7328POPC   C3B38733  36.908  30.160   7.950
 7328POPC   C4B38734  36.860  30.213   7.650
 7329POPC   NC338735  29.169  12.043   9.450
 7329POPC   PO438736  29.178  12.066   9.150
 7329POPC   GL138737  29.145  12.110   8.850
 7329POPC   GL238738  29.177  12.170   8.850
 7329POPC   C1A38739  29.122  12.042   8.550
 7329POPC   D2A38740  29.105  12.099   8.250
 7329POPC   C3A38741  29.109  12.053   7.950
 7329POPC   C4A38742  29.189  12.085   7.650
 7329POPC   C1B38743  29.080  12.281   8.550
 7329POPC   C2B38744  29.097  12.360   8.250
 7329POPC   C3B38745  29.093  12.367   7.950
 7329POPC   C4B38746  29.070  12.341   7.650
 7330POPC   NC338747  18.261  42.324   9.450
 7330POPC   PO438748  18.292  42.372   9.150
 7330POPC   GL138749  18.307  42.292   8.850
 7330POPC   GL238750  18.376  42.265   8.850
 7330POPC   C1A38751  18.272  42.338   8.550
 7330POPC   D2A38752  18.243  42.331   8.250
 7330POPC   C3A38753  18.291  42.297   7.950
 7330POPC   C4A38754  18.314  42.303   7.650
 7330POPC   C1B38755  18.527  42.242   8.550
 7330POPC   C2B38756  18.486  42.238   8.250
 7330POPC   C3B38757  18.481  42.260   7.950
 7330POPC   C4B38758  18.485  42.227   7.650
 7331POPC   NC338759  33.839  42.341   9.450
 7331POPC   PO438760  33.836  42.345   9.150
 7331POPC   GL138761  33.808  42.289   8.850
 7331POPC   GL238762  33.908  42.404   8.850
 7331POPC   C1A38763  33.842  42.384   8.550
 7331POPC   D2A38764  33.798  42.357   8.250
 7331POPC   C3A38765  33.832  42.302   7.950
 7331POPC   C4A38766  33.819  42.373   7.650
 7331POPC   C1B38767  33.974  42.520   8.550
 7331POPC   C2B38768  33.957  42.546   8.250
 7331POPC   C3B38769  33.944  42.566   7.950
 7331POPC   C4B38770  33.961  42.516   7.650
 7332POPC   NC338771  13.582  26.865   9.450
 7332POPC   PO438772  13.644  26.860   9.150
 7332POPC   GL138773  13.642  26.865   8.850
 7332POPC   GL238774  13.751  26.782   8.850
 7332POPC   C1A38775  13.643  26.806   8.550
 7332POPC   D2A38776  13.603  26.792   8.250
 7332POPC   C3A38777  13.676  26.770   7.950
 7332POPC   C4A38778  13.620  26.772   7.650
 7332POPC   C1B38779  13.867  26.772   8.550
 7332POPC   C2B38780  13.918  26.776   8.250
 7332POPC   C3B38781  13.838  26.764   7.950
 7332POPC   C4B38782  13.832  26.750   7.650
 7333POPC   NC338783  37.699  25.231   9.450
 7333POPC   PO438784  37.675  25.309   9.150
 7333POPC   GL138785  37.681  25.249   8.850
 7333POPC   GL238786  37.636  25.373   8.850
 7333POPC   C1A38787  37.705  25.250   8.550
 7333POPC   D2A38788  37.653  25.240   8.250
 7333POPC   C3A38789  37.666  25.305   7.950
 7333POPC   C4A38790  37.667  25.216   7.650
 7333POPC   C1B38791  37.540  25.443   8.550
 7333POPC   C2B38792  37.579  25.457   8.250
 7333POPC   C3B38793  37.533  25.511   7.950
 7333POPC   C4B38794  37.570  25.509   7.650
 7334POPC   NC338795   1.958  41.545   9.450
 7334POPC   PO438796   1.967  41.582   9.150
 7334POPC   GL138797   1.963  41.541   8.850
 7334POPC   GL238798   2.037  41.404   8.850
 7334POPC   C1A38799   2.021  41.571   8.550
 7334POPC   D2A38800   2.005  41.570   8.250
 7334POPC   C3A38801   2.034  41.513   7.950
 7334POPC   C4A38802   1.964  41.596   7.650
 7334POPC   C1B38803   2.039  41.340   8.550
 7334POPC   C2B38804   2.051  41.289   8.250
 7334POPC   C3B38805   2.137  41.360   7.950
 7334POPC   C4B38806   2.129  41.334   7.650
 7335POPC   NC338807  23.680  26.845   9.450
 7335POPC   PO438808  23.688  26.815   9.150
 7335POPC   GL138809  23.683  26.792   8.850
 7335POPC   GL238810  23.715  26.713   8.850
 7335POPC   C1A38811  23.674  26.839   8.550
 7335POPC   D2A38812  23.673  26.802   8.250
 7335POPC   C3A38813  23.759  26.841   7.950
 7335POPC   C4A38814  23.757  26.842   7.650
 7335POPC   C1B38815  23.617  26.542   8.550
 7335POPC   C2B38816  23.698  26.590   8.250
 7335POPC   C3B38817  23.654  26.620   7.950
 7335POPC   C4B38818  23.681  26.532   7.650
 7336POPC   NC338819  32.997   8.188   9.450
 7336POPC   PO438820  33.019   8.179   9.150
 7336POPC   GL138821  33.063   8.169   8.850
 7336POPC   GL238822  32.921   8.195   8.850
 7336POPC   C1A38823  33.017   8.165   8.550
 7336POPC   D2A38824  32.982   8.212   8.250
 7336POPC   C3A38825  33.033   8.203   7.950
 7336POPC   C4A38826  32.989   8.185   7.650
 7336POPC   C1B38827  32.749   8.243   8.550
 7336POPC   C2B38828  32.739   8.278   8.250
 7336POPC   C3B38829  32.736   8.291   7.950
 7336POPC   C4B38830  32.768   8.294   7.650
 7337POPC   NC338831   4.299  40.773   9.450
 7337POPC   PO438832   4.352  40.789   9.150
 7337POPC   GL138833   4.328  40.762   8.850
 7337POPC   GL238834   4.378  40.698   8.850
 7337POPC   C1A38835   4.289  40.754   8.550
 7337POPC   D2A38836   4.300  40.813   8.250
 7337POPC   C3A38837   4.335  40.750   7.950
 7337POPC   C4A38838   4.278  40.832   7.650
 7337POPC   C1B38839   4.484  40.575   8.550
 7337POPC   C2B38840   4.417  40.544   8.250
 7337POPC   C3B38841   4.451  40.602   7.950
 7337POPC   C4B38842   4.459  40.627   7.650
 7338POPC   NC338843  26.793  38.453   9.450
 7338POPC   PO438844  26.799  38.459   9.150
 7338POPC   GL138845  26.867  38.480   8.850
 7338POPC   GL238846  26.654  38.386   8.850
 7338POPC   C1A38847  26.774  38.484   8.550
 7338POPC   D2A38848  26.825  38.481   8.250
 7338POPC   C3A38849  26.771  38.422   7.950
 7338POPC   C4A38850  26.847  38.449   7.650
 7338POPC   C1B38851  26.606  38.423   8.550
 7338POPC   C2B38852  26.616  38.348   8.250
 7338POPC   C3B38853  26.614  38.369   7.950
 7338POPC   C4B38854  26.571  38.370   7.650
 7339POPC   NC338855   8.168  40.772   9.450
 7339POPC   PO438856   8.244  40.742   9.150
 7339POPC   GL138857   8.216  40.739   8.850
 7339POPC   GL238858   8.270  40.680   8.850
 7339POPC   C1A38859   8.149  40.762   8.550
 7339POPC   D2A38860   8.230  40.756   8.250
 7339POPC   C3A38861   8.241  40.812   7.950
 7339POPC   C4A38862   8.236  40.805   7.650
 7339POPC   C1B38863   8.384  40.614   8.550
 7339POPC   C2B38864   8.341  40.607   8.250
 7339POPC   C3B38865   8.305  40.579   7.950
 7339POPC   C4B38866   8.307  40.613   7.650
 7340POPC   NC338867  33.821  26.077   9.450
 7340POPC   PO438868  33.789  26.086   9.150
 7340POPC   GL138869  33.753  26.066   8.850
 7340POPC   GL238870  33.642  25.977   8.850
 7340POPC   C1A38871  33.757  26.070   8.550
 7340POPC   D2A38872  33.807  26.039   8.250
 7340POPC   C3A38873  33.837  26.073   7.950
 7340POPC   C4A38874  33.788  26.010   7.650
 7340POPC   C1B38875  33.570  25.979   8.550
 7340POPC   C2B38876  33.529  25.966   8.250
 7340POPC   C3B38877  33.536  25.965   7.950
 7340POPC   C4B38878  33.544  25.963   7.650
 7341POPC   NC338879  22.901  19.835   9.450
 7341POPC   PO438880  22.928  19.870   9.150
 7341POPC   GL138881  22.897  19.872   8.850
 7341POPC   GL238882  22.789  19.789   8.850
 7341POPC   C1A38883  22.941  19.809   8.550
 7341POPC   D2A38884  22.890  19.842   8.250
 7341POPC   C3A38885  22.891  19.804   7.950
 7341POPC   C4A38886  22.959  19.851   7.650
 7341POPC   C1B38887  22.752  19.713   8.550
 7341POPC   C2B38888  22.690  19.693   8.250
 7341POPC   C3B38889  22.709  19.755   7.950
 7341POPC   C4B38890  22.665  19.736   7.650
 7342POPC   NC338891  15.146  22.952   9.450
 7342POPC   PO438892  15.189  22.928   9.150
 7342POPC   GL138893  15.227  22.975   8.850
 7342POPC   GL238894  15.129  22.824   8.850
 7342POPC   C1A38895  15.138  22.915   8.550
 7342POPC   D2A38896  15.205  22.941   8.250
 7342POPC   C3A38897  15.132  22.988   7.950
 7342POPC   C4A38898  15.200  22.920   7.650
 7342POPC   C1B38899  15.079  22.752   8.550
 7342POPC   C2B38900  15.113  22.653   8.250
 7342POPC   C3B38901  15.097  22.703   7.950
 7342POPC   C4B38902  15.048  22.667   7.650
 7343POPC   NC338903   7.467   9.785   9.450
 7343POPC   PO438904   7.447   9.767   9.150
 7343POPC   GL138905   7.456   9.733   8.850
 7343POPC   GL238906   7.524   9.702   8.850
 7343POPC   C1A38907   7.431   9.785   8.550
 7343POPC   D2A38908   7.371   9.707   8.250
 7343POPC   C3A38909   7.468   9.749   7.950
 7343POPC   C4A38910   7.413   9.721   7.650
 7343POPC   C1B38911   7.602   9.602   8.550
 7343POPC   C2B38912   7.588   9.574   8.250
 7343POPC   C3B38913   7.633   9.629   7.950
 7343POPC   C4B38914   7.648   9.635   7.650
 7344POPC   NC338915  12.820  11.301   9.450
 7344POPC   PO438916  12.803  11.336   9.150
 7344POPC   GL138917  12.845  11.318   8.850
 7344POPC   GL238918  12.806  11.390   8.850
 7344POPC   C1A38919  12.830  11.326   8.550
 7344POPC   D2A38920  12.827  11.266   8.250
 7344POPC   C3A38921  12.865  11.260   7.950
 7344POPC   C4A38922  12.890  11.300   7.650
 7344POPC   C1B38923  12.786  11.530   8.550
 7344POPC   C2B38924  12.816  11.526   8.250
 7344POPC   C3B38925  12.798  11.576   7.950
 7344POPC   C4B38926  12.791  11.575   7.650
 7345POPC   NC338927  38.452   1.211   9.450
 7345POPC   PO438928  38.466   1.217   9.150
 7345POPC   GL138929  38.504   1.235   8.850
 7345POPC   GL238930  38.560   1.268   8.850
 7345POPC   C1A38931  38.491   1.174   8.550
 7345POPC   D2A38932  38.460   1.225   8.250
 7345POPC   C3A38933  38.433   1.210   7.950
 7345POPC   C4A38934  38.440   1.243   7.650
 7345POPC   C1B38935  38.661   1.288   8.550
 7345POPC   C2B38936  38.680   1.258   8.250
 7345POPC   C3B38937  38.726   1.234   7.950
 7345POPC   C4B38938  38.708   1.277   7.650
 7346POPC   NC338939  44.640  15.201   9.450
 7346POPC   PO438940  44.629  15.187   9.150
 7346POPC   GL138941  44.618  15.131   8.850
 7346POPC   GL238942  44.777  15.204   8.850
 7346POPC   C1A38943  44.661  15.189   8.550
 7346POPC   D2A38944  44.685  15.194   8.250
 7346POPC   C3A38945  44.693  15.199   7.950
 7346POPC   C4A38946  44.669  15.133   7.650
 7346POPC   C1B38947  44.917  15.306   8.550
 7346POPC   C2B38948  44.910  15.301   8.250
 7346POPC   C3B38949  44.937  15.290   7.950
 7346POPC   C4B38950  44.865  15.311   7.650
 7347POPC   NC338951  37.648  30.681   9.450
 7347POPC   PO438952  37.682  30.681   9.150
 7347POPC   GL138953  37.655  30.668   8.850
 7347POPC   GL238954  37.619  30.794   8.850
 7347POPC   C1A38955  37.635  30.699   8.550
 7347POPC   D2A38956  37.725  30.701   8.250
 7347POPC   C3A38957  37.639  30.704   7.950
 7347POPC   C4A38958  37.657  30.731   7.650
 7347POPC   C1B38959  37.650  30.948   8.550
 7347POPC   C2B38960  37.652  30.967   8.250
 7347POPC   C3B38961  37.657  30.891   7.950
 7347POPC   C4B38962  37.571  30.893   7.650
 7348POPC   NC338963  19.093   2.765   9.450
 7348POPC   PO438964  19.021   2.767   9.150
 7348POPC   GL138965  19.015   2.738   8.850
 7348POPC   GL238966  19.204   2.809   8.850
 7348POPC   C1A38967  19.077   2.780   8.550
 7348POPC   D2A38968  19.088   2.751   8.250
 7348POPC   C3A38969  19.067   2.810   7.950
 7348POPC   C4A38970  19.064   2.795   7.650
 7348POPC   C1B38971  19.333   2.782   8.550
 7348POPC   C2B38972  19.274   2.752   8.250
 7348POPC   C3B38973  19.291   2.806   7.950
 7348POPC   C4B38974  19.260   2.769   7.650
 7349POPC   NC338975  27.550  11.324   9.450
 7349POPC   PO438976  27.631  11.331   9.150
 7349POPC   GL138977  27.566  11.271   8.850
 7349POPC   GL238978  27.488  11.315   8.850
 7349POPC   C1A38979  27.557  11.326   8.550
 7349POPC   D2A38980  27.588  11.254   8.250
 7349POPC   C3A38981  27.588  11.286   7.950
 7349POPC   C4A38982  27.625  11.326   7.650
 7349POPC   C1B38983  27.328  11.370   8.550
 7349POPC   C2B38984  27.358  11.412   8.250
 7349POPC   C3B38985  27.367  11.423   7.950
 7349POPC   C4B38986  27.349  11.394   7.650
 7350POPC   NC338987  19.863   8.972   9.450
 7350POPC   PO438988  19.828   9.000   9.150
 7350POPC   GL138989  19.871   8.944   8.850
 7350POPC   GL238990  19.713   9.002   8.850
 7350POPC   C1A38991  19.877   9.002   8.550
 7350POPC   D2A38992  19.831   8.996   8.250
 7350POPC   C3A38993  19.870   8.972   7.950
 7350POPC   C4A38994  19.787   8.943   7.650
 7350POPC   C1B38995  19.625   9.035   8.550
 7350POPC   C2B38996  19.565   9.067   8.250
 7350POPC   C3B38997  19.571   9.043   7.950
 7350POPC   C4B38998  19.572   9.037   7.650
 7351POPC   NC338999  22.948  31.446   9.450
 7351POPC   PO439000  22.942  31.453   9.150
 7351POPC   GL139001  22.896  31.501   8.850
 7351POPC   GL239002  23.042  31.564   8.850
 7351POPC   C1A39003  22.964  31.458   8.550
 7351POPC   D2A39004  22.922  31.453   8.250
 7351POPC   C3A39005  22.940  31.514   7.950
 7351POPC   C4A39006  22.958  31.461   7.650
 7351POPC   C1B39007  23.182  31.616   8.550
 7351POPC   C2B39008  23.175  31.548   8.250
 7351POPC   C3B39009  23.117  31.627   7.950
 7351POPC   C4B39010  23.199  31.538   7.650
 7352POPC   NC339011  40.819  40.037   9.450
 7352POPC   PO439012  40.801  39.999   9.150
 7352POPC   GL139013  40.736  39.971   8.850
 7352POPC   GL239014  40.836  40.151   8.850
 7352POPC   C1A39015  40.805  40.001   8.550
 7352POPC   D2A39016  40.743  40.002   8.250
 7352POPC   C3A39017  40.793  39.981   7.950
 7352POPC   C4A39018  40.747  40.004   7.650
 7352POPC   C1B39019  40.975  40.258   8.550
 7352POPC   C2B39020  40.947  40.250   8.250
 7352POPC   C3B39021  40.930  40.181   7.950
 7352POPC   C4B39022  40.938  40.253   7.650
 7353POPC   NC339023  26.025  19.082   9.450
 7353POPC   PO439024  26.021  19.108   9.150
 7353POPC   GL139025  26.082  19.075   8.850
 7353POPC   GL239026  25.913  19.103   8.850
 7353POPC   C1A39027  26.040  19.071   8.550
 7353POPC   D2A39028  26.015  19.104   8.250
 7353POPC   C3A39029  26.076  19.103   7.950
 7353POPC   C4A39030  26.075  19.076   7.650
 7353POPC   C1B39031  25.789  19.143   8.550
 7353POPC   C2B39032  25.820  19.160   8.250
 7353POPC   C3B39033  25.827  19.154   7.950
 7353POPC   C4B39034  25.792  19.154   7.650
 7354POPC   NC339035  17.542  13.667   9.450
 7354POPC   PO439036  17.493  13.661   9.150
 7354POPC   GL139037  17.543  13.642   8.850
 7354POPC   GL239038  17.587  13.670   8.850
 7354POPC   C1A39039  17.470  13.617   8.550
 7354POPC   D2A39040  17.503  13.588   8.250
 7354POPC   C3A39041  17.543  13.641   7.950
 7354POPC   C4A39042  17.474  13.615   7.650
 7354POPC   C1B39043  17.746  13.764   8.550
 7354POPC   C2B39044  17.722  13.818   8.250
 7354POPC   C3B39045  17.704  13.796   7.950
 7354POPC   C4B39046  17.729  13.819   7.650
 7355POPC   NC339047  32.985   9.793   9.450
 7355POPC   PO439048  32.981   9.778   9.150
 7355POPC   GL139049  32.975   9.733   8.850
 7355POPC   GL239050  32.882   9.660   8.850
 7355POPC   C1A39051  33.056   9.739   8.550
 7355POPC   D2A39052  33.057   9.787   8.250
 7355POPC   C3A39053  33.025   9.757   7.950
 7355POPC   C4A39054  32.987   9.769   7.650
 7355POPC   C1B39055  32.794   9.699   8.550
 7355POPC   C2B39056  32.809   9.617   8.250
 7355POPC   C3B39057  32.805   9.628   7.950
 7355POPC   C4B39058  32.779   9.715   7.650
 7356POPC   NC339059  14.375   2.808   9.450
 7356POPC   PO439060  14.401   2.752   9.150
 7356POPC   GL139061  14.368   2.742   8.850
 7356POPC   GL239062  14.501   2.780   8.850
 7356POPC   C1A39063  14.375   2.797   8.550
 7356POPC   D2A39064  14.445   2.769   8.250
 7356POPC   C3A39065  14.448   2.794   7.950
 7356POPC   C4A39066  14.389   2.791   7.650
 7356POPC   C1B39067  14.644   2.671   8.550
 7356POPC   C2B39068  14.634   2.673   8.250
 7356POPC   C3B39069  14.645   2.754   7.950
 7356POPC   C4B39070  14.676   2.749   7.650
 7357POPC   NC339071   3.520  17.522   9.450
 7357POPC   PO439072   3.540  17.493   9.150
 7357POPC   GL139073   3.501  17.550   8.850
 7357POPC   GL239074   3.513  17.642   8.850
 7357POPC   C1A39075   3.521  17.464   8.550
 7357POPC   D2A39076   3.505  17.548   8.250
 7357POPC   C3A39077   3.531  17.540   7.950
 7357POPC   C4A39078   3.581  17.530   7.650
 7357POPC   C1B39079   3.519  17.702   8.550
 7357POPC   C2B39080   3.496  17.785   8.250
 7357POPC   C3B39081   3.505  17.796   7.950
 7357POPC   C4B39082   3.468  17.707   7.650
 7358POPC   NC339083  15.968  24.440   9.450
 7358POPC   PO439084  15.916  24.447   9.150
 7358POPC   GL139085  15.977  24.471   8.850
 7358POPC   GL239086  15.893  24.582   8.850
 7358POPC   C1A39087  15.977  24.538   8.550
 7358POPC   D2A39088  15.928  24.520   8.250
 7358POPC   C3A39089  15.954  24.501   7.950
 7358POPC   C4A39090  15.927  24.539   7.650
 7358POPC   C1B39091  15.704  24.645   8.550
 7358POPC   C2B39092  15.701  24.575   8.250
 7358POPC   C3B39093  15.706  24.662   7.950
 7358POPC   C4B39094  15.752  24.568   7.650
 7359POPC   NC339095   0.399   8.960   9.450
 7359POPC   PO439096   0.464   8.980   9.150
 7359POPC   GL139097   0.455   8.948   8.850
 7359POPC   GL239098   0.335   8.899   8.850
 7359POPC   C1A39099   0.412   8.929   8.550
 7359POPC   D2A39100   0.480   8.938   8.250
 7359POPC   C3A39101   0.460   8.973   7.950
 7359POPC   C4A39102   0.423   8.989   7.650
 7359POPC   C1B39103   0.313   8.700   8.550
 7359POPC   C2B39104   0.351   8.725   8.250
 7359POPC   C3B39105   0.310   8.730   7.950
 7359POPC   C4B39106   0.369   8.772   7.650
 7360POPC   NC339107  15.178  23.759   5.550
 7360POPC   PO439108  15.205  23.666   5.850
 7360POPC   GL139109  15.209  23.734   6.150
 7360POPC   GL239110  15.095  23.790   6.150
 7360POPC   C1A39111  15.189  23.692   6.450
 7360POPC   D2A39112  15.218  23.669   6.750
 7360POPC   C3A39113  15.171  23.717   7.050
 7360POPC   C4A39114  15.184  23.732   7.350
 7360POPC   C1B39115  14.977  23.952   6.450
 7360POPC   C2B39116  15.038  23.878   6.750
 7360POPC   C3B39117  15.017  23.876   7.050
 7360POPC   C4B39118  15.063  23.937   7.350
 7361POPC   NC339119  41.537  29.931   5.550
 7361POPC   PO439120  41.555  29.929   5.850
 7361POPC   GL139121  41.520  29.898   6.150
 7361POPC   GL239122  41.480  29.782   6.150
 7361POPC   C1A39123  41.539  29.950   6.450
 7361POPC   D2A39124  41.602  29.945   6.750
 7361POPC   C3A39125  41.584  29.910   7.050
 7361POPC   C4A39126  41.546  29.916   7.350
 7361POPC   C1B39127  41.398  29.692   6.450
 7361POPC   C2B39128  41.391  29.724   6.750
 7361POPC   C3B39129  41.409  29.763   7.050
 7361POPC   C4B39130  41.367  29.693   7.350
 7362POPC   NC339131  40.794  26.840   5.550
 7362POPC   PO439132  40.752  26.859   5.850
 7362POPC   GL139133  40.786  26.782   6.150
 7362POPC   GL239134  40.893  26.712   6.150
 7362POPC   C1A39135  40.794  26.821   6.450
 7362POPC   D2A39136  40.792  26.775   6.750
 7362POPC   C3A39137  40.742  26.840   7.050
 7362POPC   C4A39138  40.738  26.815   7.350
 7362POPC   C1B39139  41.029  26.642   6.450
 7362POPC   C2B39140  40.940  26.708   6.750
 7362POPC   C3B39141  40.941  26.711   7.050
 7362POPC   C4B39142  41.025  26.686   7.350
 7363POPC   NC339143  36.169   0.471   5.550
 7363POPC   PO439144  36.124   0.401   5.850
 7363POPC   GL139145  36.113   0.426   6.150
 7363POPC   GL239146  36.036   0.529   6.150
 7363POPC   C1A39147  36.173   0.442   6.450
 7363POPC   D2A39148  36.097   0.414   6.750
 7363POPC   C3A39149  36.099   0.396   7.050
 7363POPC   C4A39150  36.169   0.412   7.350
 7363POPC   C1B39151  35.951   0.634   6.450
 7363POPC   C2B39152  35.973   0.623   6.750
 7363POPC   C3B39153  36.011   0.620   7.050
 7363POPC   C4B39154  35.960   0.598   7.350
 7364POPC   NC339155  31.438   2.038   5.550
 7364POPC   PO439156  31.440   1.999   5.850
 7364POPC   GL139157  31.443   1.976   6.150
 7364POPC   GL239158  31.507   1.891   6.150
 7364POPC   C1A39159  31.482   2.029   6.450
 7364POPC   D2A39160  31.438   2.002   6.750
 7364POPC   C3A39161  31.494   1.940   7.050
 7364POPC   C4A39162  31.442   1.961   7.350
 7364POPC   C1B39163  31.518   1.713   6.450
 7364POPC   C2B39164  31.494   1.791   6.750
 7364POPC   C3B39165  31.497   1.764   7.050
 7364POPC   C4B39166  31.535   1.728   7.350
 7365POPC   NC339167  40.038  26.861   5.550
 7365POPC   PO439168  39.969  26.791   5.850
 7365POPC   GL139169  40.002  26.781   6.150
 7365POPC   GL239170  39.849  26.861   6.150
 7365POPC   C1A39171  40.032  26.771   6.450
 7365POPC   D2A39172  39.962  26.783   6.750
 7365POPC   C3A39173  40.045  26.863   7.050
 7365POPC   C4A39174  40.037  26.830   7.350
 7365POPC   C1B39175  39.739  26.912   6.450
 7365POPC   C2B39176  39.757  26.889   6.750
 7365POPC   C3B39177  39.786  26.944   7.050
 7365POPC   C4B39178  39.784  26.919   7.350
 7366POPC   NC339179  38.430  19.873   5.550
 7366POPC   PO439180  38.441  19.843   5.850
 7366POPC   GL139181  38.422  19.825   6.150
 7366POPC   GL239182  38.339  19.771   6.150
 7366POPC   C1A39183  38.425  19.837   6.450
 7366POPC   D2A39184  38.491  19.825   6.750
 7366POPC   C3A39185  38.423  19.825   7.050
 7366POPC   C4A39186  38.497  19.850   7.350
 7366POPC   C1B39187  38.258  19.767   6.450
 7366POPC   C2B39188  38.222  19.787   6.750
 7366POPC   C3B39189  38.228  19.767   7.050
 7366POPC   C4B39190  38.212  19.796   7.350
 7367POPC   NC339191  28.320  25.239   5.550
 7367POPC   PO439192  28.341  25.267   5.850
 7367POPC   GL139193  28.330  25.219   6.150
 7367POPC   GL239194  28.396  25.365   6.150
 7367POPC   C1A39195  28.335  25.296   6.450
 7367POPC   D2A39196  28.352  25.238   6.750
 7367POPC   C3A39197  28.372  25.283   7.050
 7367POPC   C4A39198  28.327  25.308   7.350
 7367POPC   C1B39199  28.345  25.540   6.450
 7367POPC   C2B39200  28.379  25.544   6.750
 7367POPC   C3B39201  28.383  25.561   7.050
 7367POPC   C4B39202  28.389  25.531   7.350
 7368POPC   NC339203  23.696   6.638   5.550
 7368POPC   PO439204  23.678   6.622   5.850
 7368POPC   GL139205  23.737   6.624   6.150
 7368POPC   GL239206  23.579   6.777   6.150
 7368POPC   C1A39207  23.753   6.660   6.450
 7368POPC   D2A39208  23.668   6.661   6.750
 7368POPC   C3A39209  23.673   6.655   7.050
 7368POPC   C4A39210  23.698   6.621   7.350
 7368POPC   C1B39211  23.530   6.784   6.450
 7368POPC   C2B39212  23.553   6.851   6.750
 7368POPC   C3B39213  23.561   6.833   7.050
 7368POPC   C4B39214  23.519   6.867   7.350
 7369POPC   NC339215  34.604  25.994   5.550
 7369POPC   PO439216  34.530  26.090   5.850
 7369POPC   GL139217  34.617  26.067   6.150
 7369POPC   GL239218  34.658  25.900   6.150
 7369POPC   C1A39219  34.605  26.055   6.450
 7369POPC   D2A39220  34.616  26.040   6.750
 7369POPC   C3A39221  34.558  26.052   7.050
 7369POPC   C4A39222  34.582  26.070   7.350
 7369POPC   C1B39223  34.742  25.807   6.450
 7369POPC   C2B39224  34.684  25.842   6.750
 7369POPC   C3B39225  34.694  25.837   7.050
 7369POPC   C4B39226  34.739  25.839   7.350
 7370POPC   NC339227  37.666  11.338   5.550
 7370POPC   PO439228  37.652  11.347   5.850
 7370POPC   GL139229  37.632  11.327   6.150
 7370POPC   GL239230  37.776  11.251   6.150
 7370POPC   C1A39231  37.675  11.261   6.450
 7370POPC   D2A39232  37.713  11.272   6.750
 7370POPC   C3A39233  37.662  11.326   7.050
 7370POPC   C4A39234  37.645  11.292   7.350
 7370POPC   C1B39235  37.964  11.264   6.450
 7370POPC   C2B39236  37.914  11.203   6.750
 7370POPC   C3B39237  37.866  11.240   7.050
 7370POPC   C4B39238  37.924  11.197   7.350
 7371POPC   NC339239  33.763  39.275   5.550
 7371POPC   PO439240  33.845  39.245   5.850
 7371POPC   GL139241  33.824  39.215   6.150
 7371POPC   GL239242  33.891  39.195   6.150
 7371POPC   C1A39243  33.806  39.281   6.450
 7371POPC   D2A39244  33.763  39.187   6.750
 7371POPC   C3A39245  33.835  39.262   7.050
 7371POPC   C4A39246  33.766  39.215   7.350
 7371POPC   C1B39247  34.068  39.137   6.450
 7371POPC   C2B39248  34.079  39.123   6.750
 7371POPC   C3B39249  34.057  39.137   7.050
 7371POPC   C4B39250  33.995  39.138   7.350
 7372POPC   NC339251  33.816  12.896   5.550
 7372POPC   PO439252  33.780  12.839   5.850
 7372POPC   GL139253  33.813  12.881   6.150
 7372POPC   GL239254  33.888  12.738   6.150
 7372POPC   C1A39255  33.820  12.840   6.450
 7372POPC   D2A39256  33.837  12.816   6.750
 7372POPC   C3A39257  33.770  12.874   7.050
 7372POPC   C4A39258  33.795  12.889   7.350
 7372POPC   C1B39259  33.977  12.619   6.450
 7372POPC   C2B39260  33.988  12.697   6.750
 7372POPC   C3B39261  33.977  12.668   7.050
 7372POPC   C4B39262  33.921  12.654   7.350
 7373POPC   NC339263   4.310  40.780   5.550
 7373POPC   PO439264   4.355  40.745   5.850
 7373POPC   GL139265   4.333  40.807   6.150
 7373POPC   GL239266   4.412  40.842   6.150
 7373POPC   C1A39267   4.270  40.798   6.450
 7373POPC   D2A39268   4.348  40.747   6.750
 7373POPC   C3A39269   4.273  40.804   7.050
 7373POPC   C4A39270   4.352  40.824   7.350
 7373POPC   C1B39271   4.578  40.865   6.450
 7373POPC   C2B39272   4.553  40.875   6.750
 7373POPC   C3B39273   4.540  40.872   7.050
 7373POPC   C4B39274   4.528  40.884   7.350
 7374POPC   NC339275  33.801  11.280   5.550
 7374POPC   PO439276  33.772  11.299   5.850
 7374POPC   GL139277  33.798  11.289   6.150
 7374POPC   GL239278  33.675  11.352   6.150
 7374POPC   C1A39279  33.796  11.306   6.450
 7374POPC   D2A39280  33.783  11.318   6.750
 7374POPC   C3A39281  33.761  11.309   7.050
 7374POPC   C4A39282  33.823  11.314   7.350
 7374POPC   C1B39283  33.594  11.354   6.450
 7374POPC   C2B39284  33.608  11.357   6.750
 7374POPC   C3B39285  33.548  11.376   7.050
 7374POPC   C4B39286  33.589  11.440   7.350
 7375POPC   NC339287  40.830  23.738   5.550
 7375POPC   PO439288  40.831  23.685   5.850
 7375POPC   GL139289  40.758  23.671   6.150
 7375POPC   GL239290  40.704  23.613   6.150
 7375POPC   C1A39291  40.767  23.696   6.450
 7375POPC   D2A39292  40.767  23.757   6.750
 7375POPC   C3A39293  40.739  23.760   7.050
 7375POPC   C4A39294  40.749  23.736   7.350
 7375POPC   C1B39295  40.578  23.600   6.450
 7375POPC   C2B39296  40.530  23.623   6.750
 7375POPC   C3B39297  40.574  23.581   7.050
 7375POPC   C4B39298  40.553  23.579   7.350
 7376POPC   NC339299  18.250   8.226   5.550
 7376POPC   PO439300  18.236   8.180   5.850
 7376POPC   GL139301  18.308   8.226   6.150
 7376POPC   GL239302  18.211   8.200   6.150
 7376POPC   C1A39303  18.272   8.212   6.450
 7376POPC   D2A39304  18.252   8.172   6.750
 7376POPC   C3A39305  18.243   8.187   7.050
 7376POPC   C4A39306  18.289   8.164   7.350
 7376POPC   C1B39307  18.000   8.254   6.450
 7376POPC   C2B39308  18.001   8.307   6.750
 7376POPC   C3B39309  18.003   8.305   7.050
 7376POPC   C4B39310  18.038   8.253   7.350
 7377POPC   NC339311  44.625  29.139   5.550
 7377POPC   PO439312  44.694  29.100   5.850
 7377POPC   GL139313  44.645  29.123   6.150
 7377POPC   GL239314  44.616  29.040   6.150
 7377POPC   C1A39315  44.648  29.169   6.450
 7377POPC   D2A39316  44.613  29.127   6.750
 7377POPC   C3A39317  44.657  29.156   7.050
 7377POPC   C4A39318  44.642  29.186   7.350
 7377POPC   C1B39319  44.461  28.935   6.450
 7377POPC   C2B39320  44.550  28.937   6.750
 7377POPC   C3B39321  44.551  28.909   7.050
 7377POPC   C4B39322  44.532  28.956   7.350
 7378POPC   NC339323   8.159  28.391   5.550
 7378POPC   PO439324   8.155  28.393   5.850
 7378POPC   GL139325   8.220  28.391   6.150
 7378POPC   GL239326   8.146  28.497   6.150
 7378POPC   C1A39327   8.210  28.359   6.450
 7378POPC   D2A39328   8.172  28.406   6.750
 7378POPC   C3A39329   8.158  28.381   7.050
 7378POPC   C4A39330   8.147  28.324   7.350
 7378POPC   C1B39331   8.086  28.636   6.450
 7378POPC   C2B39332   8.105  28.625   6.750
 7378POPC   C3B39333   8.147  28.638   7.050
 7378POPC   C4B39334   8.134  28.584   7.350
 7379POPC   NC339335  18.266   6.657   5.550
 7379POPC   PO439336  18.300   6.688   5.850
 7379POPC   GL139337  18.322   6.625   6.150
 7379POPC   GL239338  18.295   6.494   6.150
 7379POPC   C1A39339  18.306   6.659   6.450
 7379POPC   D2A39340  18.309   6.632   6.750
 7379POPC   C3A39341  18.264   6.608   7.050
 7379POPC   C4A39342  18.250   6.639   7.350
 7379POPC   C1B39343  18.241   6.391   6.450
 7379POPC   C2B39344  18.234   6.393   6.750
 7379POPC   C3B39345  18.238   6.394   7.050
 7379POPC   C4B39346  18.252   6.395   7.350
 7380POPC   NC339347   8.202  14.380   5.550
 7380POPC   PO439348   8.147  14.428   5.850
 7380POPC   GL139349   8.210  14.401   6.150
 7380POPC   GL239350   8.088  14.405   6.150
 7380POPC   C1A39351   8.175  14.439   6.450
 7380POPC   D2A39352   8.197  14.435   6.750
 7380POPC   C3A39353   8.158  14.435   7.050
 7380POPC   C4A39354   8.171  14.411   7.350
 7380POPC   C1B39355   7.904  14.351   6.450
 7380POPC   C2B39356   7.938  14.324   6.750
 7380POPC   C3B39357   7.980  14.398   7.050
 7380POPC   C4B39358   7.909  14.325   7.350
 7381POPC   NC339359   3.522  17.544   5.550
 7381POPC   PO439360   3.533  17.495   5.850
 7381POPC   GL139361   3.569  17.512   6.150
 7381POPC   GL239362   3.391  17.509   6.150
 7381POPC   C1A39363   3.551  17.462   6.450
 7381POPC   D2A39364   3.533  17.463   6.750
 7381POPC   C3A39365   3.533  17.544   7.050
 7381POPC   C4A39366   3.492  17.506   7.350
 7381POPC   C1B39367   3.295  17.414   6.450
 7381POPC   C2B39368   3.327  17.470   6.750
 7381POPC   C3B39369   3.285  17.459   7.050
 7381POPC   C4B39370   3.346  17.391   7.350
 7382POPC   NC339371  39.193  25.237   5.550
 7382POPC   PO439372  39.220  25.266   5.850
 7382POPC   GL139373  39.207  25.229   6.150
 7382POPC   GL239374  39.399  25.249   6.150
 7382POPC   C1A39375  39.215  25.284   6.450
 7382POPC   D2A39376  39.206  25.261   6.750
 7382POPC   C3A39377  39.257  25.269   7.050
 7382POPC   C4A39378  39.210  25.254   7.350
 7382POPC   C1B39379  39.487  25.187   6.450
 7382POPC   C2B39380  39.496  25.220   6.750
 7382POPC   C3B39381  39.521  25.235   7.050
 7382POPC   C4B39382  39.516  25.183   7.350
 7383POPC   NC339383  31.462  16.781   5.550
 7383POPC   PO439384  31.487  16.694   5.850
 7383POPC   GL139385  31.518  16.780   6.150
 7383POPC   GL239386  31.438  16.853   6.150
 7383POPC   C1A39387  31.464  16.713   6.450
 7383POPC   D2A39388  31.441  16.733   6.750
 7383POPC   C3A39389  31.476  16.717   7.050
 7383POPC   C4A39390  31.481  16.767   7.350
 7383POPC   C1B39391  31.372  16.921   6.450
 7383POPC   C2B39392  31.438  16.956   6.750
 7383POPC   C3B39393  31.353  16.981   7.050
 7383POPC   C4B39394  31.419  17.015   7.350
 7384POPC   NC339395  19.036  15.171   5.550
 7384POPC   PO439396  19.058  15.158   5.850
 7384POPC   GL139397  19.083  15.180   6.150
 7384POPC   GL239398  19.070  15.086   6.150
 7384POPC   C1A39399  19.103  15.147   6.450
 7384POPC   D2A39400  19.105  15.140   6.750
 7384POPC   C3A39401  19.084  15.211   7.050
 7384POPC   C4A39402  19.050  15.210   7.350
 7384POPC   C1B39403  19.021  14.969   6.450
 7384POPC   C2B39404  19.077  14.919   6.750
 7384POPC   C3B39405  19.057  14.921   7.050
 7384POPC   C4B39406  19.070  14.942   7.350
 7385POPC   NC339407  35.324  22.943   5.550
 7385POPC   PO439408  35.334  22.946   5.850
 7385POPC   GL139409  35.384  22.977   6.150
 7385POPC   GL239410  35.297  23.034   6.150
 7385POPC   C1A39411  35.350  22.913   6.450
 7385POPC   D2A39412  35.348  22.931   6.750
 7385POPC   C3A39413  35.331  22.894   7.050
 7385POPC   C4A39414  35.371  22.971   7.350
 7385POPC   C1B39415  35.354  23.205   6.450
 7385POPC   C2B39416  35.350  23.159   6.750
 7385POPC   C3B39417  35.343  23.190   7.050
 7385POPC   C4B39418  35.348  23.198   7.350
 7386POPC   NC339419  30.703   9.717   5.550
 7386POPC   PO439420  30.647   9.760   5.850
 7386POPC   GL139421  30.685   9.791   6.150
 7386POPC   GL239422  30.656   9.891   6.150
 7386POPC   C1A39423  30.732   9.721   6.450
 7386POPC   D2A39424  30.704   9.786   6.750
 7386POPC   C3A39425  30.664   9.792   7.050
 7386POPC   C4A39426  30.730   9.704   7.350
 7386POPC   C1B39427  30.635  10.034   6.450
 7386POPC   C2B39428  30.664  10.014   6.750
 7386POPC   C3B39429  30.645   9.972   7.050
 7386POPC   C4B39430  30.652   9.986   7.350
 7387POPC   NC339431  23.736   2.744   5.550
 7387POPC   PO439432  23.686   2.735   5.850
 7387POPC   GL139433  23.710   2.752   6.150
 7387POPC   GL239434  23.709   2.863   6.150
 7387POPC   C1A39435  23.707   2.762   6.450
 7387POPC   D2A39436  23.709   2.775   6.750
 7387POPC   C3A39437  23.720   2.802   7.050
 7387POPC   C4A39438  23.679   2.738   7.350
 7387POPC   C1B39439  23.751   3.004   6.450
 7387POPC   C2B39440  23.776   2.956   6.750
 7387POPC   C3B39441  23.774   3.035   7.050
 7387POPC   C4B39442  23.792   2.957   7.350
 7388POPC   NC339443   2.738  35.355   5.550
 7388POPC   PO439444   2.772  35.320   5.850
 7388POPC   GL139445   2.760  35.320   6.150
 7388POPC   GL239446   2.633  35.455   6.150
 7388POPC   C1A39447   2.797  35.373   6.450
 7388POPC   D2A39448   2.753  35.341   6.750
 7388POPC   C3A39449   2.761  35.355   7.050
 7388POPC   C4A39450   2.741  35.378   7.350
 7388POPC   C1B39451   2.553  35.481   6.450
 7388POPC   C2B39452   2.527  35.430   6.750
 7388POPC   C3B39453   2.498  35.445   7.050
 7388POPC   C4B39454   2.554  35.509   7.350
 7389POPC   NC339455   8.223  37.674   5.550
 7389POPC   PO439456   8.234  37.688   5.850
 7389POPC   GL139457   8.223  37.682   6.150
 7389POPC   GL239458   8.106  37.622   6.150
 7389POPC   C1A39459   8.220  37.709   6.450
 7389POPC   D2A39460   8.203  37.652   6.750
 7389POPC   C3A39461   8.164  37.717   7.050
 7389POPC   C4A39462   8.149  37.684   7.350
 7389POPC   C1B39463   7.935  37.579   6.450
 7389POPC   C2B39464   7.934  37.580   6.750
 7389POPC   C3B39465   7.980  37.621   7.050
 7389POPC   C4B39466   7.995  37.593   7.350
 7390POPC   NC339467  11.325  29.920   5.550
 7390POPC   PO439468  11.303  29.965   5.850
 7390POPC   GL139469  11.258  29.931   6.150
 7390POPC   GL239470  11.232  29.998   6.150
 7390POPC   C1A39471  11.298  29.874   6.450
 7390POPC   D2A39472  11.267  29.876   6.750
 7390POPC   C3A39473  11.258  29.871   7.050
 7390POPC   C4A39474  11.346  29.948   7.350
 7390POPC   C1B39475  11.078  30.011   6.450
 7390POPC   C2B39476  11.058  30.005   6.750
 7390POPC   C3B39477  11.103  30.006   7.050
 7390POPC   C4B39478  11.107  30.036   7.350
 7391POPC   NC339479   2.792  21.372   5.550
 7391POPC   PO439480   2.773  21.348   5.850
 7391POPC   GL139481   2.777  21.401   6.150
 7391POPC   GL239482   2.905  21.290   6.150
 7391POPC   C1A39483   2.783  21.434   6.450
 7391POPC   D2A39484   2.720  21.432   6.750
 7391POPC   C3A39485   2.721  21.377   7.050
 7391POPC   C4A39486   2.717  21.429   7.350
 7391POPC   C1B39487   2.938  21.271   6.450
 7391POPC   C2B39488   2.979  21.265   6.750
 7391POPC   C3B39489   3.002  21.232   7.050
 7391POPC   C4B39490   2.928  21.232   7.350
 7392POPC   NC339491  40.742  10.561   5.550
 7392POPC   PO439492  40.810  10.496   5.850
 7392POPC   GL139493  40.809  10.556   6.150
 7392POPC   GL239494  40.698  10.655   6.150
 7392POPC   C1A39495  40.766  10.545   6.450
 7392POPC   D2A39496  40.823  10.483   6.750
 7392POPC   C3A39497  40.760  10.530   7.050
 7392POPC   C4A39498  40.766  10.555   7.350
 7392POPC   C1B39499  40.609  10.726   6.450
 7392POPC   C2B39500  40.630  10.690   6.750
 7392POPC   C3B39501  40.659  10.721   7.050
 7392POPC   C4B39502  40.655  10.702   7.350
 7393POPC   NC339503   8.171  29.953   5.550
 7393POPC   PO439504   8.210  29.953   5.850
 7393POPC   GL139505   8.208  29.910   6.150
 7393POPC   GL239506   8.097  29.833   6.150
 7393POPC   C1A39507   8.190  29.883   6.450
 7393POPC   D2A39508   8.161  29.924   6.750
 7393POPC   C3A39509   8.210  29.895   7.050
 7393POPC   C4A39510   8.171  29.947   7.350
 7393POPC   C1B39511   8.051  29.711   6.450
 7393POPC   C2B39512   8.041  29.702   6.750
 7393POPC   C3B39513   8.029  29.702   7.050
 7393POPC   C4B39514   8.038  29.672   7.350
 7394POPC   NC339515   8.168  31.475   5.550
 7394POPC   PO439516   8.220  31.501   5.850
 7394POPC   GL139517   8.237  31.490   6.150
 7394POPC   GL239518   8.106  31.515   6.150
 7394POPC   C1A39519   8.220  31.502   6.450
 7394POPC   D2A39520   8.178  31.495   6.750
 7394POPC   C3A39521   8.210  31.443   7.050
 7394POPC   C4A39522   8.162  31.500   7.350
 7394POPC   C1B39523   8.023  31.606   6.450
 7394POPC   C2B39524   8.064  31.622   6.750
 7394POPC   C3B39525   8.072  31.635   7.050
 7394POPC   C4B39526   8.059  31.618   7.350
 7395POPC   NC339527  19.059  33.821   5.550
 7395POPC   PO439528  19.065  33.814   5.850
 7395POPC   GL139529  19.064  33.837   6.150
 7395POPC   GL239530  19.076  33.702   6.150
 7395POPC   C1A39531  19.039  33.842   6.450
 7395POPC   D2A39532  19.092  33.761   6.750
 7395POPC   C3A39533  19.044  33.757   7.050
 7395POPC   C4A39534  19.026  33.779   7.350
 7395POPC   C1B39535  19.072  33.575   6.450
 7395POPC   C2B39536  19.121  33.607   6.750
 7395POPC   C3B39537  19.142  33.596   7.050
 7395POPC   C4B39538  19.097  33.510   7.350
 7396POPC   NC339539  14.418  43.905   5.550
 7396POPC   PO439540  14.357  43.869   5.850
 7396POPC   GL139541  14.448  43.918   6.150
 7396POPC   GL239542  14.478  43.940   6.150
 7396POPC   C1A39543  14.437  43.884   6.450
 7396POPC   D2A39544  14.388  43.874   6.750
 7396POPC   C3A39545  14.432  43.854   7.050
 7396POPC   C4A39546  14.440  43.890   7.350
 7396POPC   C1B39547  14.578  44.051   6.450
 7396POPC   C2B39548  14.545  44.039   6.750
 7396POPC   C3B39549  14.522  44.089   7.050
 7396POPC   C4B39550  14.585  44.100   7.350
 7397POPC   NC339551   6.653  12.059   5.550
 7397POPC   PO439552   6.645  12.060   5.850
 7397POPC   GL139553   6.693  12.112   6.150
 7397POPC   GL239554   6.550  11.928   6.150
 7397POPC   C1A39555   6.669  12.093   6.450
 7397POPC   D2A39556   6.603  12.092   6.750
 7397POPC   C3A39557   6.647  12.044   7.050
 7397POPC   C4A39558   6.637  12.067   7.350
 7397POPC   C1B39559   6.588  11.818   6.450
 7397POPC   C2B39560   6.562  11.849   6.750
 7397POPC   C3B39561   6.516  11.879   7.050
 7397POPC   C4B39562   6.538  11.835   7.350
 7398POPC   NC339563  12.124  23.751   5.550
 7398POPC   PO439564  12.085  23.665   5.850
 7398POPC   GL139565  12.043  23.735   6.150
 7398POPC   GL239566  12.090  23.622   6.150
 7398POPC   C1A39567  12.047  23.694   6.450
 7398POPC   D2A39568  12.080  23.683   6.750
 7398POPC   C3A39569  12.071  23.714   7.050
 7398POPC   C4A39570  12.084  23.742   7.350
 7398POPC   C1B39571  12.049  23.430   6.450
 7398POPC   C2B39572  12.040  23.480   6.750
 7398POPC   C3B39573  12.027  23.458   7.050
 7398POPC   C4B39574  12.011  23.484   7.350
 7399POPC   NC339575  10.538  22.988   5.550
 7399POPC   PO439576  10.571  22.940   5.850
 7399POPC   GL139577  10.565  22.924   6.150
 7399POPC   GL239578  10.635  23.006   6.150
 7399POPC   C1A39579  10.548  22.974   6.450
 7399POPC   D2A39580  10.505  22.903   6.750
 7399POPC   C3A39581  10.549  22.977   7.050
 7399POPC   C4A39582  10.540  22.939   7.350
 7399POPC   C1B39583  10.800  22.948   6.450
 7399POPC   C2B39584  10.755  22.934   6.750
 7399POPC   C3B39585  10.758  22.979   7.050
 7399POPC   C4B39586  10.724  23.019   7.350
 7400POPC   NC339587  42.380   8.228   5.550
 7400POPC   PO439588  42.324   8.220   5.850
 7400POPC   GL139589  42.361   8.199   6.150
 7400POPC   GL239590  42.401   8.106   6.150
 7400POPC   C1A39591  42.333   8.213   6.450
 7400POPC   D2A39592  42.370   8.166   6.750
 7400POPC   C3A39593  42.318   8.181   7.050
 7400POPC   C4A39594  42.291   8.187   7.350
 7400POPC   C1B39595  42.501   7.996   6.450
 7400POPC   C2B39596  42.544   8.036   6.750
 7400POPC   C3B39597  42.514   7.981   7.050
 7400POPC   C4B39598  42.495   8.039   7.350
 7401POPC   NC339599  26.788  20.575   5.550
 7401POPC   PO439600  26.768  20.643   5.850
 7401POPC   GL139601  26.800  20.635   6.150
 7401POPC   GL239602  26.741  20.668   6.150
 7401POPC   C1A39603  26.770  20.659   6.450
 7401POPC   D2A39604  26.815  20.595   6.750
 7401POPC   C3A39605  26.788  20.652   7.050
 7401POPC   C4A39606  26.804  20.655   7.350
 7401POPC   C1B39607  26.707  20.785   6.450
 7401POPC   C2B39608  26.717  20.782   6.750
 7401POPC   C3B39609  26.668  20.791   7.050
 7401POPC   C4B39610  26.648  20.846   7.350
 7402POPC   NC339611  22.206  26.862   5.550
 7402POPC   PO439612  22.202  26.781   5.850
 7402POPC   GL139613  22.122  26.805   6.150
 7402POPC   GL239614  22.078  26.854   6.150
 7402POPC   C1A39615  22.126  26.770   6.450
 7402POPC   D2A39616  22.190  26.854   6.750
 7402POPC   C3A39617  22.131  26.866   7.050
 7402POPC   C4A39618  22.122  26.831   7.350
 7402POPC   C1B39619  21.976  26.914   6.450
 7402POPC   C2B39620  21.959  26.960   6.750
 7402POPC   C3B39621  21.955  26.946   7.050
 7402POPC   C4B39622  21.915  26.972   7.350
 7403POPC   NC339623  12.880   2.735   5.550
 7403POPC   PO439624  12.808   2.791   5.850
 7403POPC   GL139625  12.812   2.790   6.150
 7403POPC   GL239626  12.922   2.806   6.150
 7403POPC   C1A39627  12.892   2.760   6.450
 7403POPC   D2A39628  12.871   2.776   6.750
 7403POPC   C3A39629  12.887   2.731   7.050
 7403POPC   C4A39630  12.883   2.766   7.350
 7403POPC   C1B39631  13.113   2.883   6.450
 7403POPC   C2B39632  13.095   2.860   6.750
 7403POPC   C3B39633  13.035   2.887   7.050
 7403POPC   C4B39634  13.102   2.835   7.350
 7404POPC   NC339635  43.104  18.285   5.550
 7404POPC   PO439636  43.123  18.314   5.850
 7404POPC   GL139637  43.147  18.265   6.150
 7404POPC   GL239638  43.200  18.157   6.150
 7404POPC   C1A39639  43.071  18.249   6.450
 7404POPC   D2A39640  43.114  18.263   6.750
 7404POPC   C3A39641  43.145  18.274   7.050
 7404POPC   C4A39642  43.127  18.282   7.350
 7404POPC   C1B39643  43.200  18.081   6.450
 7404POPC   C2B39644  43.246  18.037   6.750
 7404POPC   C3B39645  43.159  18.052   7.050
 7404POPC   C4B39646  43.198  18.062   7.350
 7405POPC   NC339647  39.281  33.023   5.550
 7405POPC   PO439648  39.259  33.016   5.850
 7405POPC   GL139649  39.197  32.995   6.150
 7405POPC   GL239650  39.237  33.112   6.150
 7405POPC   C1A39651  39.247  33.017   6.450
 7405POPC   D2A39652  39.235  32.990   6.750
 7405POPC   C3A39653  39.221  32.986   7.050
 7405POPC   C4A39654  39.204  33.071   7.350
 7405POPC   C1B39655  39.159  33.240   6.450
 7405POPC   C2B39656  39.141  33.269   6.750
 7405POPC   C3B39657  39.108  33.218   7.050
 7405POPC   C4B39658  39.168  33.262   7.350
 7406POPC   NC339659  37.721  42.295   5.550
 7406POPC   PO439660  37.643  42.325   5.850
 7406POPC   GL139661  37.700  42.342   6.150
 7406POPC   GL239662  37.680  42.185   6.150
 7406POPC   C1A39663  37.678  42.354   6.450
 7406POPC   D2A39664  37.680  42.289   6.750
 7406POPC   C3A39665  37.698  42.333   7.050
 7406POPC   C4A39666  37.630  42.317   7.350
 7406POPC   C1B39667  37.623  42.090   6.450
 7406POPC   C2B39668  37.684  42.039   6.750
 7406POPC   C3B39669  37.634  42.049   7.050
 7406POPC   C4B39670  37.624  42.099   7.350
 7407POPC   NC339671  38.500  24.462   5.550
 7407POPC   PO439672  38.453  24.523   5.850
 7407POPC   GL139673  38.440  24.536   6.150
 7407POPC   GL239674  38.443  24.400   6.150
 7407POPC   C1A39675  38.427  24.516   6.450
 7407POPC   D2A39676  38.435  24.456   6.750
 7407POPC   C3A39677  38.484  24.501   7.050
 7407POPC   C4A39678  38.413  24.525   7.350
 7407POPC   C1B39679  38.430  24.248   6.450
 7407POPC   C2B39680  38.347  24.243   6.750
 7407POPC   C3B39681  38.387  24.233   7.050
 7407POPC   C4B39682  38.347  24.202   7.350
 7408POPC   NC339683  36.947  21.386   5.550
 7408POPC   PO439684  36.893  21.348   5.850
 7408POPC   GL139685  36.927  21.422   6.150
 7408POPC   GL239686  36.768  21.444   6.150
 7408POPC   C1A39687  36.899  21.401   6.450
 7408POPC   D2A39688  36.923  21.348   6.750
 7408POPC   C3A39689  36.950  21.369   7.050
 7408POPC   C4A39690  36.881  21.411   7.350
 7408POPC   C1B39691  36.759  21.538   6.450
 7408POPC   C2B39692  36.667  21.552   6.750
 7408POPC   C3B39693  36.695  21.510   7.050
 7408POPC   C4B39694  36.756  21.533   7.350
 7409POPC   NC339695   1.941  43.876   5.550
 7409POPC   PO439696   1.980  43.893   5.850
 7409POPC   GL139697   1.968  43.901   6.150
 7409POPC   GL239698   2.058  43.843   6.150
 7409POPC   C1A39699   2.010  43.892   6.450
 7409POPC   D2A39700   2.033  43.839   6.750
 7409POPC   C3A39701   1.973  43.852   7.050
 7409POPC   C4A39702   1.994  43.875   7.350
 7409POPC   C1B39703   2.166  43.737   6.450
 7409POPC   C2B39704   2.112  43.704   6.750
 7409POPC   C3B39705   2.144  43.748   7.050
 7409POPC   C4B39706   2.157  43.742   7.350
 7410POPC   NC339707  19.818   8.923   5.550
 7410POPC   PO439708  19.869   8.953   5.850
 7410POPC   GL139709  19.835   8.991   6.150
 7410POPC   GL239710  19.969   9.079   6.150
 7410POPC   C1A39711  19.868   9.005   6.450
 7410POPC   D2A39712  19.873   8.992   6.750
 7410POPC   C3A39713  19.876   8.957   7.050
 7410POPC   C4A39714  19.870   9.010   7.350
 7410POPC   C1B39715  20.047   9.148   6.450
 7410POPC   C2B39716  20.061   9.062   6.750
 7410POPC   C3B39717  20.046   9.054   7.050
 7410POPC   C4B39718  20.023   9.135   7.350
 7411POPC   NC339719  25.219  15.215   5.550
 7411POPC   PO439720  25.253  15.219   5.850
 7411POPC   GL139721  25.270  15.149   6.150
 7411POPC   GL239722  25.282  15.037   6.150
 7411POPC   C1A39723  25.299  15.221   6.450
 7411POPC   D2A39724  25.273  15.186   6.750
 7411POPC   C3A39725  25.277  15.145   7.050
 7411POPC   C4A39726  25.304  15.224   7.350
 7411POPC   C1B39727  25.300  14.939   6.450
 7411POPC   C2B39728  25.314  14.938   6.750
 7411POPC   C3B39729  25.280  14.979   7.050
 7411POPC   C4B39730  25.336  14.970   7.350
 7412POPC   NC339731  36.104  29.172   5.550
 7412POPC   PO439732  36.154  29.137   5.850
 7412POPC   GL139733  36.147  29.191   6.150
 7412POPC   GL239734  36.048  29.202   6.150
 7412POPC   C1A39735  36.099  29.100   6.450
 7412POPC   D2A39736  36.163  29.117   6.750
 7412POPC   C3A39737  36.155  29.171   7.050
 7412POPC   C4A39738  36.125  29.182   7.350
 7412POPC   C1B39739  35.905  29.179   6.450
 7412POPC   C2B39740  35.932  29.183   6.750
 7412POPC   C3B39741  35.911  29.212   7.050
 7412POPC   C4B39742  35.892  29.237   7.350
 7413POPC   NC339743  22.973  25.995   5.550
 7413POPC   PO439744  22.953  26.065   5.850
 7413POPC   GL139745  22.953  26.013   6.150
 7413POPC   GL239746  22.936  25.931   6.150
 7413POPC   C1A39747  22.892  25.993   6.450
 7413POPC   D2A39748  22.962  25.992   6.750
 7413POPC   C3A39749  22.930  26.033   7.050
 7413POPC   C4A39750  22.910  26.037   7.350
 7413POPC   C1B39751  23.070  25.785   6.450
 7413POPC   C2B39752  23.018  25.854   6.750
 7413POPC   C3B39753  22.991  25.776   7.050
 7413POPC   C4B39754  23.039  25.771   7.350
 7414POPC   NC339755  13.622  36.886   5.550
 7414POPC   PO439756  13.578  36.943   5.850
 7414POPC   GL139757  13.669  36.894   6.150
 7414POPC   GL239758  13.752  36.775   6.150
 7414POPC   C1A39759  13.615  36.855   6.450
 7414POPC   D2A39760  13.605  36.917   6.750
 7414POPC   C3A39761  13.621  36.860   7.050
 7414POPC   C4A39762  13.646  36.863   7.350
 7414POPC   C1B39763  13.845  36.743   6.450
 7414POPC   C2B39764  13.846  36.689   6.750
 7414POPC   C3B39765  13.761  36.777   7.050
 7414POPC   C4B39766  13.825  36.700   7.350
 7415POPC   NC339767   6.610  39.966   5.550
 7415POPC   PO439768   6.638  40.041   5.850
 7415POPC   GL139769   6.616  39.964   6.150
 7415POPC   GL239770   6.485  39.981   6.150
 7415POPC   C1A39771   6.599  39.978   6.450
 7415POPC   D2A39772   6.690  40.003   6.750
 7415POPC   C3A39773   6.600  39.977   7.050
 7415POPC   C4A39774   6.604  40.010   7.350
 7415POPC   C1B39775   6.370  40.063   6.450
 7415POPC   C2B39776   6.443  40.020   6.750
 7415POPC   C3B39777   6.419  40.043   7.050
 7415POPC   C4B39778   6.361  40.034   7.350
 7416POPC   NC339779  23.671  26.027   5.550
 7416POPC   PO439780  23.700  26.042   5.850
 7416POPC   GL139781  23.678  26.072   6.150
 7416POPC   GL239782  23.768  26.141   6.150
 7416POPC   C1A39783  23.738  25.995   6.450
 7416POPC   D2A39784  23.757  26.077   6.750
 7416POPC   C3A39785  23.762  26.086   7.050
 7416POPC   C4A39786  23.675  26.020   7.350
 7416POPC   C1B39787  23.852  26.250   6.450
 7416POPC   C2B39788  23.902  26.199   6.750
 7416POPC   C3B39789  23.914  26.245   7.050
 7416POPC   C4B39790  23.860  26.237   7.350
 7417POPC   NC339791  17.497  22.113   5.550
 7417POPC   PO439792  17.548  22.132   5.850
 7417POPC   GL139793  17.474  22.152   6.150
 7417POPC   GL239794  17.656  22.122   6.150
 7417POPC   C1A39795  17.548  22.164   6.450
 7417POPC   D2A39796  17.481  22.168   6.750
 7417POPC   C3A39797  17.530  22.157   7.050
 7417POPC   C4A39798  17.529  22.185   7.350
 7417POPC   C1B39799  17.730  22.146   6.450
 7417POPC   C2B39800  17.721  22.152   6.750
 7417POPC   C3B39801  17.731  22.114   7.050
 7417POPC   C4B39802  17.796  22.141   7.350
 7418POPC   NC339803  33.837  21.422   5.550
 7418POPC   PO439804  33.778  21.339   5.850
 7418POPC   GL139805  33.786  21.380   6.150
 7418POPC   GL239806  33.796  21.286   6.150
 7418POPC   C1A39807  33.762  21.434   6.450
 7418POPC   D2A39808  33.797  21.431   6.750
 7418POPC   C3A39809  33.814  21.361   7.050
 7418POPC   C4A39810  33.799  21.337   7.350
 7418POPC   C1B39811  33.900  21.190   6.450
 7418POPC   C2B39812  33.920  21.165   6.750
 7418POPC   C3B39813  33.852  21.127   7.050
 7418POPC   C4B39814  33.932  21.171   7.350
 7419POPC   NC339815  43.080  27.589   5.550
 7419POPC   PO439816  43.122  27.638   5.850
 7419POPC   GL139817  43.107  27.560   6.150
 7419POPC   GL239818  43.026  27.663   6.150
 7419POPC   C1A39819  43.084  27.587   6.450
 7419POPC   D2A39820  43.078  27.598   6.750
 7419POPC   C3A39821  43.116  27.581   7.050
 7419POPC   C4A39822  43.146  27.625   7.350
 7419POPC   C1B39823  42.975  27.801   6.450
 7419POPC   C2B39824  42.914  27.801   6.750
 7419POPC   C3B39825  42.926  27.759   7.050
 7419POPC   C4B39826  42.908  27.801   7.350
 7420POPC   NC339827   0.438   0.442   5.550
 7420POPC   PO439828   0.480   0.437   5.850
 7420POPC   GL139829   0.466   0.429   6.150
 7420POPC   GL239830   0.566   0.533   6.150
 7420POPC   C1A39831   0.437   0.429   6.450
 7420POPC   D2A39832   0.389   0.440   6.750
 7420POPC   C3A39833   0.456   0.479   7.050
 7420POPC   C4A39834   0.397   0.478   7.350
 7420POPC   C1B39835   0.622   0.554   6.450
 7420POPC   C2B39836   0.674   0.544   6.750
 7420POPC   C3B39837   0.690   0.526   7.050
 7420POPC   C4B39838   0.685   0.543   7.350
 7421POPC   NC339839  43.880  39.979   5.550
 7421POPC   PO439840  43.860  40.032   5.850
 7421POPC   GL139841  43.868  39.983   6.150
 7421POPC   GL239842  43.968  39.931   6.150
 7421POPC   C1A39843  43.931  39.972   6.450
 7421POPC   D2A39844  43.853  39.970   6.750
 7421POPC   C3A39845  43.903  39.994   7.050
 7421POPC   C4A39846  43.928  40.043   7.350
 7421POPC   C1B39847  44.094  39.807   6.450
 7421POPC   C2B39848  44.119  39.884   6.750
 7421POPC   C3B39849  44.051  39.837   7.050
 7421POPC   C4B39850  44.111  39.861   7.350
 7422POPC   NC339851  22.140  17.536   5.550
 7422POPC   PO439852  22.210  17.494   5.850
 7422POPC   GL139853  22.133  17.494   6.150
 7422POPC   GL239854  22.296  17.473   6.150
 7422POPC   C1A39855  22.113  17.538   6.450
 7422POPC   D2A39856  22.211  17.496   6.750
 7422POPC   C3A39857  22.186  17.540   7.050
 7422POPC   C4A39858  22.116  17.519   7.350
 7422POPC   C1B39859  22.437  17.455   6.450
 7422POPC   C2B39860  22.388  17.463   6.750
 7422POPC   C3B39861  22.448  17.462   7.050
 7422POPC   C4B39862  22.406  17.467   7.350
 7423POPC   NC339863  42.337  13.584   5.550
 7423POPC   PO439864  42.333  13.624   5.850
 7423POPC   GL139865  42.304  13.665   6.150
 7423POPC   GL239866  42.219  13.520   6.150
 7423POPC   C1A39867  42.288  13.636   6.450
 7423POPC   D2A39868  42.380  13.580   6.750
 7423POPC   C3A39869  42.329  13.591   7.050
 7423POPC   C4A39870  42.305  13.650   7.350
 7423POPC   C1B39871  42.193  13.476   6.450
 7423POPC   C2B39872  42.169  13.439   6.750
 7423POPC   C3B39873  42.146  13.501   7.050
 7423POPC   C4B39874  42.163  13.473   7.350
 7424POPC   NC339875  37.677  15.917   5.550
 7424POPC   PO439876  37.685  15.933   5.850
 7424POPC   GL139877  37.650  15.973   6.150
 7424POPC   GL239878  37.754  15.814   6.150
 7424POPC   C1A39879  37.646  15.941   6.450
 7424POPC   D2A39880  37.702  15.988   6.750
 7424POPC   C3A39881  37.661  15.937   7.050
 7424POPC   C4A39882  37.685  15.966   7.350
 7424POPC   C1B39883  37.795  15.750   6.450
 7424POPC   C2B39884  37.773  15.747   6.750
 7424POPC   C3B39885  37.855  15.709   7.050
 7424POPC   C4B39886  37.797  15.730   7.350
 7425POPC   NC339887  36.908  40.782   5.550
 7425POPC   PO439888  36.880  40.774   5.850
 7425POPC   GL139889  36.884  40.797   6.150
 7425POPC   GL239890  36.802  40.703   6.150
 7425POPC   C1A39891  36.895  40.791   6.450
 7425POPC   D2A39892  36.904  40.827   6.750
 7425POPC   C3A39893  36.854  40.763   7.050
 7425POPC   C4A39894  36.898  40.781   7.350
 7425POPC   C1B39895  36.757  40.591   6.450
 7425POPC   C2B39896  36.815  40.563   6.750
 7425POPC   C3B39897  36.776  40.585   7.050
 7425POPC   C4B39898  36.802  40.529   7.350
 7426POPC   NC339899  36.914  14.415   5.550
 7426POPC   PO439900  36.937  14.443   5.850
 7426POPC   GL139901  36.922  14.447   6.150
 7426POPC   GL239902  37.040  14.363   6.150
 7426POPC   C1A39903  36.896  14.400   6.450
 7426POPC   D2A39904  36.900  14.449   6.750
 7426POPC   C3A39905  36.870  14.370   7.050
 7426POPC   C4A39906  36.938  14.376   7.350
 7426POPC   C1B39907  37.153  14.246   6.450
 7426POPC   C2B39908  37.133  14.293   6.750
 7426POPC   C3B39909  37.123  14.246   7.050
 7426POPC   C4B39910  37.163  14.255   7.350
 7427POPC   NC339911  26.031   1.214   5.550
 7427POPC   PO439912  26.058   1.254   5.850
 7427POPC   GL139913  26.009   1.254   6.150
 7427POPC   GL239914  25.995   1.293   6.150
 7427POPC   C1A39915  26.041   1.173   6.450
 7427POPC   D2A39916  25.992   1.227   6.750
 7427POPC   C3A39917  26.066   1.183   7.050
 7427POPC   C4A39918  26.030   1.256   7.350
 7427POPC   C1B39919  25.958   1.411   6.450
 7427POPC   C2B39920  25.960   1.493   6.750
 7427POPC   C3B39921  25.911   1.410   7.050
 7427POPC   C4B39922  25.962   1.482   7.350
 7428POPC   NC339923  40.003  33.816   5.550
 7428POPC   PO439924  40.004  33.759   5.850
 7428POPC   GL139925  39.988  33.777   6.150
 7428POPC   GL239926  39.861  33.765   6.150
 7428POPC   C1A39927  40.028  33.813   6.450
 7428POPC   D2A39928  40.037  33.803   6.750
 7428POPC   C3A39929  39.962  33.762   7.050
 7428POPC   C4A39930  39.982  33.821   7.350
 7428POPC   C1B39931  39.785  33.795   6.450
 7428POPC   C2B39932  39.800  33.854   6.750
 7428POPC   C3B39933  39.733  33.833   7.050
 7428POPC   C4B39934  39.799  33.763   7.350
 7429POPC   NC339935  29.902  26.786   5.550
 7429POPC   PO439936  29.917  26.809   5.850
 7429POPC   GL139937  29.955  26.775   6.150
 7429POPC   GL239938  30.021  26.880   6.150
 7429POPC   C1A39939  29.873  26.839   6.450
 7429POPC   D2A39940  29.929  26.794   6.750
 7429POPC   C3A39941  29.939  26.787   7.050
 7429POPC   C4A39942  29.880  26.808   7.350
 7429POPC   C1B39943  30.080  27.035   6.450
 7429POPC   C2B39944  30.147  27.012   6.750
 7429POPC   C3B39945  30.072  26.997   7.050
 7429POPC   C4B39946  30.112  27.003   7.350
 7430POPC   NC339947  29.194  40.751   5.550
 7430POPC   PO439948  29.152  40.808   5.850
 7430POPC   GL139949  29.167  40.771   6.150
 7430POPC   GL239950  29.012  40.770   6.150
 7430POPC   C1A39951  29.195  40.769   6.450
 7430POPC   D2A39952  29.114  40.740   6.750
 7430POPC   C3A39953  29.194  40.828   7.050
 7430POPC   C4A39954  29.159  40.809   7.350
 7430POPC   C1B39955  28.917  40.796   6.450
 7430POPC   C2B39956  28.859  40.801   6.750
 7430POPC   C3B39957  28.890  40.813   7.050
 7430POPC   C4B39958  28.924  40.759   7.350
 7431POPC   NC339959   7.386  22.957   5.550
 7431POPC   PO439960   7.433  22.979   5.850
 7431POPC   GL139961   7.375  22.924   6.150
 7431POPC   GL239962   7.326  23.013   6.150
 7431POPC   C1A39963   7.380  22.905   6.450
 7431POPC   D2A39964   7.445  22.958   6.750
 7431POPC   C3A39965   7.449  22.970   7.050
 7431POPC   C4A39966   7.416  22.912   7.350
 7431POPC   C1B39967   7.164  23.014   6.450
 7431POPC   C2B39968   7.212  23.026   6.750
 7431POPC   C3B39969   7.209  23.049   7.050
 7431POPC   C4B39970   7.151  23.026   7.350
 7432POPC   NC339971  22.938  18.234   5.550
 7432POPC   PO439972  22.935  18.305   5.850
 7432POPC   GL139973  22.958  18.248   6.150
 7432POPC   GL239974  22.862  18.375   6.150
 7432POPC   C1A39975  22.961  18.311   6.450
 7432POPC   D2A39976  22.919  18.273   6.750
 7432POPC   C3A39977  22.948  18.251   7.050
 7432POPC   C4A39978  22.987  18.237   7.350
 7432POPC   C1B39979  22.808  18.414   6.450
 7432POPC   C2B39980  22.768  18.500   6.750
 7432POPC   C3B39981  22.798  18.501   7.050
 7432POPC   C4B39982  22.811  18.492   7.350
 7433POPC   NC339983  41.550  31.423   5.550
 7433POPC   PO439984  41.544  31.519   5.850
 7433POPC   GL139985  41.603  31.493   6.150
 7433POPC   GL239986  41.476  31.350   6.150
 7433POPC   C1A39987  41.591  31.478   6.450
 7433POPC   D2A39988  41.562  31.492   6.750
 7433POPC   C3A39989  41.551  31.430   7.050
 7433POPC   C4A39990  41.578  31.467   7.350
 7433POPC   C1B39991  41.387  31.222   6.450
 7433POPC   C2B39992  41.413  31.292   6.750
 7433POPC   C3B39993  41.434  31.235   7.050
 7433POPC   C4B39994  41.391  31.305   7.350
 7434POPC   NC339995  39.252  15.980   5.550
 7434POPC   PO439996  39.211  15.978   5.850
 7434POPC   GL139997  39.202  15.914   6.150
 7434POPC   GL239998  39.281  15.836   6.150
 7434POPC   C1A39999  39.231  15.984   6.450
 7434POPC   D2A40000  39.220  15.948   6.750
 7434POPC   C3A40001  39.249  15.939   7.050
 7434POPC   C4A40002  39.204  15.911   7.350
 7434POPC   C1B40003  39.392  15.797   6.450
 7434POPC   C2B40004  39.427  15.795   6.750
 7434POPC   C3B40005  39.379  15.749   7.050
 7434POPC   C4B40006  39.445  15.738   7.350
 7435POPC   NC340007   8.187  33.011   5.550
 7435POPC   PO440008   8.222  33.023   5.850
 7435POPC   GL140009   8.152  32.987   6.150
 7435POPC   GL240010   8.179  33.153   6.150
 7435POPC   C1A40011   8.199  33.043   6.450
 7435POPC   D2A40012   8.225  33.007   6.750
 7435POPC   C3A40013   8.162  33.036   7.050
 7435POPC   C4A40014   8.187  32.976   7.350
 7435POPC   C1B40015   8.127  33.279   6.450
 7435POPC   C2B40016   8.142  33.318   6.750
 7435POPC   C3B40017   8.145  33.317   7.050
 7435POPC   C4B40018   8.172  33.264   7.350
 7436POPC   NC340019  11.288   0.454   5.550
 7436POPC   PO440020  11.289   0.464   5.850
 7436POPC   GL140021  11.309   0.395   6.150
 7436POPC   GL240022  11.278   0.579   6.150
 7436POPC   C1A40023  11.317   0.437   6.450
 7436POPC   D2A40024  11.322   0.412   6.750
 7436POPC   C3A40025  11.273   0.452   7.050
 7436POPC   C4A40026  11.341   0.423   7.350
 7436POPC   C1B40027  11.238   0.699   6.450
 7436POPC   C2B40028  11.196   0.700   6.750
 7436POPC   C3B40029  11.197   0.668   7.050
 7436POPC   C4B40030  11.210   0.667   7.350
 7437POPC   NC340031  32.996  24.494   5.550
 7437POPC   PO440032  33.014  24.523   5.850
 7437POPC   GL140033  32.983  24.478   6.150
 7437POPC   GL240034  32.878  24.558   6.150
 7437POPC   C1A40035  33.013  24.532   6.450
 7437POPC   D2A40036  32.995  24.515   6.750
 7437POPC   C3A40037  32.996  24.494   7.050
 7437POPC   C4A40038  33.046  24.454   7.350
 7437POPC   C1B40039  32.803  24.529   6.450
 7437POPC   C2B40040  32.790  24.524   6.750
 7437POPC   C3B40041  32.794  24.588   7.050
 7437POPC   C4B40042  32.739  24.528   7.350
 7438POPC   NC340043  34.551  19.052   5.550
 7438POPC   PO440044  34.541  19.048   5.850
 7438POPC   GL140045  34.579  19.083   6.150
 7438POPC   GL240046  34.672  19.074   6.150
 7438POPC   C1A40047  34.586  19.042   6.450
 7438POPC   D2A40048  34.596  19.039   6.750
 7438POPC   C3A40049  34.586  19.046   7.050
 7438POPC   C4A40050  34.548  19.101   7.350
 7438POPC   C1B40051  34.851  19.115   6.450
 7438POPC   C2B40052  34.820  19.162   6.750
 7438POPC   C3B40053  34.762  19.102   7.050
 7438POPC   C4B40054  34.832  19.179   7.350
 7439POPC   NC340055  15.191  43.928   5.550
 7439POPC   PO440056  15.229  43.850   5.850
 7439POPC   GL140057  15.189  43.895   6.150
 7439POPC   GL240058  15.152  43.780   6.150
 7439POPC   C1A40059  15.184  43.870   6.450
 7439POPC   D2A40060  15.160  43.913   6.750
 7439POPC   C3A40061  15.218  43.927   7.050
 7439POPC   C4A40062  15.181  43.862   7.350
 7439POPC   C1B40063  15.150  43.600   6.450
 7439POPC   C2B40064  15.198  43.667   6.750
 7439POPC   C3B40065  15.209  43.665   7.050
 7439POPC   C4B40066  15.167  43.606   7.350
 7440POPC   NC340067  43.106  43.906   5.550
 7440POPC   PO440068  43.127  43.906   5.850
 7440POPC   GL140069  43.153  43.868   6.150
 7440POPC   GL240070  43.183  43.945   6.150
 7440POPC   C1A40071  43.068  43.888   6.450
 7440POPC   D2A40072  43.073  43.935   6.750
 7440POPC   C3A40073  43.130  43.837   7.050
 7440POPC   C4A40074  43.139  43.924   7.350
 7440POPC   C1B40075  43.372  44.048   6.450
 7440POPC   C2B40076  43.365  44.051   6.750
 7440POPC   C3B40077  43.362  43.960   7.050
 7440POPC   C4B40078  43.356  44.011   7.350
 7441POPC   NC340079  44.685  23.734   5.550
 7441POPC   PO440080  44.705  23.674   5.850
 7441POPC   GL140081  44.659  23.700   6.150
 7441POPC   GL240082  44.748  23.741   6.150
 7441POPC   C1A40083  44.692  23.672   6.450
 7441POPC   D2A40084  44.660  23.700   6.750
 7441POPC   C3A40085  44.614  23.755   7.050
 7441POPC   C4A40086  44.670  23.737   7.350
 7441POPC   C1B40087  44.890  23.729   6.450
 7441POPC   C2B40088  44.897  23.766   6.750
 7441POPC   C3B40089  44.914  23.801   7.050
 7441POPC   C4B40090  44.952  23.766   7.350
 7442POPC   NC340091   6.595   9.769   5.550
 7442POPC   PO440092   6.661   9.770   5.850
 7442POPC   GL140093   6.647   9.791   6.150
 7442POPC   GL240094   6.656   9.842   6.150
 7442POPC   C1A40095   6.694   9.755   6.450
 7442POPC   D2A40096   6.657   9.776   6.750
 7442POPC   C3A40097   6.620   9.734   7.050
 7442POPC   C4A40098   6.693   9.742   7.350
 7442POPC   C1B40099   6.550   9.947   6.450
 7442POPC   C2B40100   6.565  10.002   6.750
 7442POPC   C3B40101   6.591   9.961   7.050
 7442POPC   C4B40102   6.572   9.951   7.350
 7443POPC   NC340103  19.030   0.417   5.550
 7443POPC   PO440104  19.021   0.444   5.850
 7443POPC   GL140105  19.014   0.414   6.150
 7443POPC   GL240106  18.938   0.293   6.150
 7443POPC   C1A40107  19.051   0.457   6.450
 7443POPC   D2A40108  19.015   0.467   6.750
 7443POPC   C3A40109  19.100   0.445   7.050
 7443POPC   C4A40110  19.108   0.428   7.350
 7443POPC   C1B40111  18.961   0.199   6.450
 7443POPC   C2B40112  18.908   0.197   6.750
 7443POPC   C3B40113  18.869   0.213   7.050
 7443POPC   C4B40114  18.893   0.213   7.350
 7444POPC   NC340115  23.740  32.991   5.550
 7444POPC   PO440116  23.679  33.033   5.850
 7444POPC   GL140117  23.726  32.983   6.150
 7444POPC   GL240118  23.779  33.104   6.150
 7444POPC   C1A40119  23.673  32.989   6.450
 7444POPC   D2A40120  23.729  33.035   6.750
 7444POPC   C3A40121  23.720  33.060   7.050
 7444POPC   C4A40122  23.694  33.008   7.350
 7444POPC   C1B40123  23.748  33.255   6.450
 7444POPC   C2B40124  23.710  33.252   6.750
 7444POPC   C3B40125  23.734  33.255   7.050
 7444POPC   C4B40126  23.702  33.238   7.350
 7445POPC   NC340127   7.430  42.313   5.550
 7445POPC   PO440128   7.424  42.347   5.850
 7445POPC   GL140129   7.441  42.363   6.150
 7445POPC   GL240130   7.324  42.388   6.150
 7445POPC   C1A40131   7.460  42.345   6.450
 7445POPC   D2A40132   7.460  42.338   6.750
 7445POPC   C3A40133   7.373  42.321   7.050
 7445POPC   C4A40134   7.426  42.316   7.350
 7445POPC   C1B40135   7.175  42.485   6.450
 7445POPC   C2B40136   7.171  42.492   6.750
 7445POPC   C3B40137   7.234  42.483   7.050
 7445POPC   C4B40138   7.202  42.500   7.350
 7446POPC   NC340139  12.802  43.908   5.550
 7446POPC   PO440140  12.900  43.922   5.850
 7446POPC   GL140141  12.865  43.871   6.150
 7446POPC   GL240142  12.917  43.864   6.150
 7446POPC   C1A40143  12.805  43.845   6.450
 7446POPC   D2A40144  12.876  43.853   6.750
 7446POPC   C3A40145  12.841  43.930   7.050
 7446POPC   C4A40146  12.839  43.933   7.350
 7446POPC   C1B40147  13.060  43.761   6.450
 7446POPC   C2B40148  13.093  43.781   6.750
 7446POPC   C3B40149  13.070  43.806   7.050
 7446POPC   C4B40150  13.101  43.778   7.350
 7447POPC   NC340151  14.448  10.502   5.550
 7447POPC   PO440152  14.388  10.522   5.850
 7447POPC   GL140153  14.393  10.507   6.150
 7447POPC   GL240154  14.481  10.478   6.150
 7447POPC   C1A40155  14.362  10.529   6.450
 7447POPC   D2A40156  14.399  10.506   6.750
 7447POPC   C3A40157  14.395  10.543   7.050
 7447POPC   C4A40158  14.435  10.524   7.350
 7447POPC   C1B40159  14.636  10.460   6.450
 7447POPC   C2B40160  14.605  10.366   6.750
 7447POPC   C3B40161  14.632  10.437   7.050
 7447POPC   C4B40162  14.594  10.378   7.350
 7448POPC   NC340163  33.039   7.466   5.550
 7448POPC   PO440164  32.999   7.385   5.850
 7448POPC   GL140165  33.074   7.421   6.150
 7448POPC   GL240166  32.851   7.456   6.150
 7448POPC   C1A40167  33.055   7.384   6.450
 7448POPC   D2A40168  32.996   7.375   6.750
 7448POPC   C3A40169  33.070   7.436   7.050
 7448POPC   C4A40170  32.977   7.424   7.350
 7448POPC   C1B40171  32.762   7.438   6.450
 7448POPC   C2B40172  32.819   7.354   6.750
 7448POPC   C3B40173  32.758   7.446   7.050
 7448POPC   C4B40174  32.759   7.451   7.350
 7449POPC   NC340175  39.997   2.756   5.550
 7449POPC   PO440176  39.998   2.777   5.850
 7449POPC   GL140177  39.999   2.768   6.150
 7449POPC   GL240178  40.133   2.730   6.150
 7449POPC   C1A40179  40.051   2.760   6.450
 7449POPC   D2A40180  40.012   2.773   6.750
 7449POPC   C3A40181  39.972   2.788   7.050
 7449POPC   C4A40182  40.049   2.813   7.350
 7449POPC   C1B40183  40.233   2.708   6.450
 7449POPC   C2B40184  40.253   2.696   6.750
 7449POPC   C3B40185  40.266   2.693   7.050
 7449POPC   C4B40186  40.229   2.704   7.350
 7450POPC   NC340187  13.673  10.547   5.550
 7450POPC   PO440188  13.603  10.529   5.850
 7450POPC   GL140189  13.621  10.512   6.150
 7450POPC   GL240190  13.495  10.614   6.150
 7450POPC   C1A40191  13.668  10.564   6.450
 7450POPC   D2A40192  13.593  10.525   6.750
 7450POPC   C3A40193  13.675  10.521   7.050
 7450POPC   C4A40194  13.664  10.560   7.350
 7450POPC   C1B40195  13.424  10.732   6.450
 7450POPC   C2B40196  13.432  10.696   6.750
 7450POPC   C3B40197  13.432  10.666   7.050
 7450POPC   C4B40198  13.429  10.696   7.350
 7451POPC   NC340199  33.774   3.541   5.550
 7451POPC   PO440200  33.792   3.575   5.850
 7451POPC   GL140201  33.773   3.549   6.150
 7451POPC   GL240202  33.946   3.504   6.150
 7451POPC   C1A40203  33.824   3.553   6.450
 7451POPC   D2A40204  33.811   3.519   6.750
 7451POPC   C3A40205  33.823   3.547   7.050
 7451POPC   C4A40206  33.795   3.493   7.350
 7451POPC   C1B40207  34.009   3.488   6.450
 7451POPC   C2B40208  34.072   3.568   6.750
 7451POPC   C3B40209  34.043   3.510   7.050
 7451POPC   C4B40210  34.089   3.527   7.350
 7452POPC   NC340211  13.616   4.294   5.550
 7452POPC   PO440212  13.602   4.365   5.850
 7452POPC   GL140213  13.606   4.327   6.150
 7452POPC   GL240214  13.551   4.296   6.150
 7452POPC   C1A40215  13.613   4.296   6.450
 7452POPC   D2A40216  13.613   4.359   6.750
 7452POPC   C3A40217  13.609   4.272   7.050
 7452POPC   C4A40218  13.651   4.325   7.350
 7452POPC   C1B40219  13.411   4.213   6.450
 7452POPC   C2B40220  13.385   4.248   6.750
 7452POPC   C3B40221  13.380   4.270   7.050
 7452POPC   C4B40222  13.388   4.294   7.350
 7453POPC   NC340223  37.684  44.649   5.550
 7453POPC   PO440224  37.635  44.685   5.850
 7453POPC   GL140225  37.657  44.710   6.150
 7453POPC   GL240226  37.678  44.524   6.150
 7453POPC   C1A40227  37.670  44.666   6.450
 7453POPC   D2A40228  37.722  44.659   6.750
 7453POPC   C3A40229  37.687  44.680   7.050
 7453POPC   C4A40230  37.692  44.619   7.350
 7453POPC   C1B40231  37.719  44.445   6.450
 7453POPC   C2B40232  37.723  44.453   6.750
 7453POPC   C3B40233  37.802  44.474   7.050
 7453POPC   C4B40234  37.759  44.403   7.350
 7454POPC   NC340235  21.361  13.673   5.550
 7454POPC   PO440236  21.406  13.661   5.850
 7454POPC   GL140237  21.419  13.636   6.150
 7454POPC   GL240238  21.301  13.555   6.150
 7454POPC   C1A40239  21.372  13.667   6.450
 7454POPC   D2A40240  21.357  13.613   6.750
 7454POPC   C3A40241  21.425  13.596   7.050
 7454POPC   C4A40242  21.380  13.647   7.350
 7454POPC   C1B40243  21.334  13.375   6.450
 7454POPC   C2B40244  21.249  13.415   6.750
 7454POPC   C3B40245  21.257  13.443   7.050
 7454POPC   C4B40246  21.315  13.404   7.350
 7455POPC   NC340247  25.993   3.558   5.550
 7455POPC   PO440248  26.003   3.520   5.850
 7455POPC   GL140249  26.064   3.573   6.150
 7455POPC   GL240250  25.979   3.671   6.150
 7455POPC   C1A40251  26.053   3.550   6.450
 7455POPC   D2A40252  26.057   3.568   6.750
 7455POPC   C3A40253  26.076   3.501   7.050
 7455POPC   C4A40254  26.073   3.560   7.350
 7455POPC   C1B40255  25.849   3.700   6.450
 7455POPC   C2B40256  25.921   3.691   6.750
 7455POPC   C3B40257  25.843   3.693   7.050
 7455POPC   C4B40258  25.847   3.709   7.350
 7456POPC   NC340259   5.120  41.536   5.550
 7456POPC   PO440260   5.087  41.576   5.850
 7456POPC   GL140261   5.137  41.534   6.150
 7456POPC   GL240262   5.205  41.451   6.150
 7456POPC   C1A40263   5.055  41.511   6.450
 7456POPC   D2A40264   5.117  41.556   6.750
 7456POPC   C3A40265   5.071  41.593   7.050
 7456POPC   C4A40266   5.129  41.543   7.350
 7456POPC   C1B40267   5.234  41.335   6.450
 7456POPC   C2B40268   5.219  41.314   6.750
 7456POPC   C3B40269   5.273  41.373   7.050
 7456POPC   C4B40270   5.282  41.315   7.350
 7457POPC   NC340271  39.269   1.981   5.550
 7457POPC   PO440272  39.211   2.017   5.850
 7457POPC   GL140273  39.234   1.945   6.150
 7457POPC   GL240274  39.346   1.924   6.150
 7457POPC   C1A40275  39.265   1.972   6.450
 7457POPC   D2A40276  39.203   1.953   6.750
 7457POPC   C3A40277  39.243   1.963   7.050
 7457POPC   C4A40278  39.248   2.036   7.350
 7457POPC   C1B40279  39.483   1.842   6.450
 7457POPC   C2B40280  39.411   1.901   6.750
 7457POPC   C3B40281  39.450   1.887   7.050
 7457POPC   C4B40282  39.455   1.886   7.350
 7458POPC   NC340283  32.244  41.558   5.550
 7458POPC   PO440284  32.213  41.595   5.850
 7458POPC   GL140285  32.214  41.546   6.150
 7458POPC   GL240286  32.383  41.433   6.150
 7458POPC   C1A40287  32.267  41.531   6.450
 7458POPC   D2A40288  32.254  41.606   6.750
 7458POPC   C3A40289  32.262  41.593   7.050
 7458POPC   C4A40290  32.238  41.574   7.350
 7458POPC   C1B40291  32.405  41.343   6.450
 7458POPC   C2B40292  32.408  41.368   6.750
 7458POPC   C3B40293  32.402  41.431   7.050
 7458POPC   C4B40294  32.421  41.422   7.350
 7459POPC   NC340295   4.283  28.390   5.550
 7459POPC   PO440296   4.324  28.359   5.850
 7459POPC   GL140297   4.276  28.402   6.150
 7459POPC   GL240298   4.483  28.349   6.150
 7459POPC   C1A40299   4.366  28.361   6.450
 7459POPC   D2A40300   4.366  28.393   6.750
 7459POPC   C3A40301   4.358  28.403   7.050
 7459POPC   C4A40302   4.271  28.387   7.350
 7459POPC   C1B40303   4.539  28.296   6.450
 7459POPC   C2B40304   4.597  28.269   6.750
 7459POPC   C3B40305   4.526  28.290   7.050
 7459POPC   C4B40306   4.575  28.235   7.350
 7460POPC   NC340307  19.836  34.527   5.550
 7460POPC   PO440308  19.817  34.621   5.850
 7460POPC   GL140309  19.841  34.539   6.150
 7460POPC   GL240310  19.809  34.443   6.150
 7460POPC   C1A40311  19.866  34.589   6.450
 7460POPC   D2A40312  19.845  34.602   6.750
 7460POPC   C3A40313  19.852  34.577   7.050
 7460POPC   C4A40314  19.858  34.597   7.350
 7460POPC   C1B40315  19.751  34.336   6.450
 7460POPC   C2B40316  19.758  34.344   6.750
 7460POPC   C3B40317  19.781  34.368   7.050
 7460POPC   C4B40318  19.767  34.320   7.350
 7461POPC   NC340319  13.647  17.517   5.550
 7461POPC   PO440320  13.584  17.539   5.850
 7461POPC   GL140321  13.656  17.486   6.150
 7461POPC   GL240322  13.531  17.668   6.150
 7461POPC   C1A40323  13.585  17.458   6.450
 7461POPC   D2A40324  13.634  17.473   6.750
 7461POPC   C3A40325  13.645  17.496   7.050
 7461POPC   C4A40326  13.636  17.524   7.350
 7461POPC   C1B40327  13.549  17.703   6.450
 7461POPC   C2B40328  13.555  17.736   6.750
 7461POPC   C3B40329  13.552  17.694   7.050
 7461POPC   C4B40330  13.554  17.741   7.350
 7462POPC   NC340331  26.793  19.108   5.550
 7462POPC   PO440332  26.782  19.093   5.850
 7462POPC   GL140333  26.820  19.076   6.150
 7462POPC   GL240334  26.704  19.084   6.150
 7462POPC   C1A40335  26.783  19.079   6.450
 7462POPC   D2A40336  26.830  19.106   6.750
 7462POPC   C3A40337  26.809  19.069   7.050
 7462POPC   C4A40338  26.782  19.044   7.350
 7462POPC   C1B40339  26.557  19.227   6.450
 7462POPC   C2B40340  26.647  19.189   6.750
 7462POPC   C3B40341  26.592  19.190   7.050
 7462POPC   C4B40342  26.602  19.180   7.350
 7463POPC   NC340343  44.707  14.412   5.550
 7463POPC   PO440344  44.612  14.417   5.850
 7463POPC   GL140345  44.664  14.386   6.150
 7463POPC   GL240346  44.736  14.424   6.150
 7463POPC   C1A40347  44.630  14.364   6.450
 7463POPC   D2A40348  44.680  14.388   6.750
 7463POPC   C3A40349  44.690  14.398   7.050
 7463POPC   C4A40350  44.629  14.451   7.350
 7463POPC   C1B40351  44.922  14.484   6.450
 7463POPC   C2B40352  44.852  14.522   6.750
 7463POPC   C3B40353  44.915  14.473   7.050
 7463POPC   C4B40354  44.856  14.490   7.350
 7464POPC   NC340355  10.499  35.351   5.550
 7464POPC   PO440356  10.496  35.331   5.850
 7464POPC   GL140357  10.562  35.304   6.150
 7464POPC   GL240358  10.460  35.251   6.150
 7464POPC   C1A40359  10.489  35.343   6.450
 7464POPC   D2A40360  10.496  35.338   6.750
 7464POPC   C3A40361  10.545  35.355   7.050
 7464POPC   C4A40362  10.510  35.338   7.350
 7464POPC   C1B40363  10.335  35.218   6.450
 7464POPC   C2B40364  10.287  35.261   6.750
 7464POPC   C3B40365  10.290  35.246   7.050
 7464POPC   C4B40366  10.252  35.200   7.350
 7465POPC   NC340367  43.118  33.051   5.550
 7465POPC   PO440368  43.102  33.053   5.850
 7465POPC   GL140369  43.066  33.067   6.150
 7465POPC   GL240370  43.034  33.000   6.150
 7465POPC   C1A40371  43.117  33.059   6.450
 7465POPC   D2A40372  43.093  33.014   6.750
 7465POPC   C3A40373  43.149  33.068   7.050
 7465POPC   C4A40374  43.074  32.979   7.350
 7465POPC   C1B40375  42.832  32.998   6.450
 7465POPC   C2B40376  42.819  33.046   6.750
 7465POPC   C3B40377  42.840  33.077   7.050
 7465POPC   C4B40378  42.904  32.989   7.350
 7466POPC   NC340379  40.026   1.259   5.550
 7466POPC   PO440380  40.044   1.190   5.850
 7466POPC   GL140381  40.048   1.232   6.150
 7466POPC   GL240382  40.096   1.278   6.150
 7466POPC   C1A40383  39.974   1.172   6.450
 7466POPC   D2A40384  40.001   1.249   6.750
 7466POPC   C3A40385  39.979   1.168   7.050
 7466POPC   C4A40386  40.004   1.219   7.350
 7466POPC   C1B40387  40.110   1.489   6.450
 7466POPC   C2B40388  40.123   1.466   6.750
 7466POPC   C3B40389  40.120   1.479   7.050
 7466POPC   C4B40390  40.083   1.442   7.350
 7467POPC   NC340391  40.792   5.071   5.550
 7467POPC   PO440392  40.803   5.045   5.850
 7467POPC   GL140393  40.765   5.066   6.150
 7467POPC   GL240394  40.651   5.037   6.150
 7467POPC   C1A40395  40.761   5.094   6.450
 7467POPC   D2A40396  40.783   5.071   6.750
 7467POPC   C3A40397  40.809   5.108   7.050
 7467POPC   C4A40398  40.778   5.088   7.350
 7467POPC   C1B40399  40.527   5.035   6.450
 7467POPC   C2B40400  40.534   5.041   6.750
 7467POPC   C3B40401  40.520   5.025   7.050
 7467POPC   C4B40402  40.552   4.990   7.350
 7468POPC   NC340403  11.319  43.094   5.550
 7468POPC   PO440404  11.300  43.080   5.850
 7468POPC   GL140405  11.304  43.132   6.150
 7468POPC   GL240406  11.386  43.005   6.150
 7468POPC   C1A40407  11.283  43.105   6.450
 7468POPC   D2A40408  11.314  43.068   6.750
 7468POPC   C3A40409  11.260  43.131   7.050
 7468POPC   C4A40410  11.342  43.096   7.350
 7468POPC   C1B40411  11.435  42.886   6.450
 7468POPC   C2B40412  11.423  42.861   6.750
 7468POPC   C3B40413  11.437  42.838   7.050
 7468POPC   C4B40414  11.357  42.901   7.350
 7469POPC   NC340415  15.992  41.538   5.550
 7469POPC   PO440416  15.997  41.547   5.850
 7469POPC   GL140417  15.940  41.580   6.150
 7469POPC   GL240418  15.793  41.505   6.150
 7469POPC   C1A40419  15.969  41.546   6.450
 7469POPC   D2A40420  15.962  41.552   6.750
 7469POPC   C3A40421  15.934  41.604   7.050
 7469POPC   C4A40422  15.909  41.539   7.350
 7469POPC   C1B40423  15.688  41.488   6.450
 7469POPC   C2B40424  15.734  41.505   6.750
 7469POPC   C3B40425  15.671  41.519   7.050
 7469POPC   C4B40426  15.733  41.527   7.350
 7470POPC   NC340427  11.331  32.243   5.550
 7470POPC   PO440428  11.316  32.232   5.850
 7470POPC   GL140429  11.278  32.261   6.150
 7470POPC   GL240430  11.285  32.373   6.150
 7470POPC   C1A40431  11.311  32.225   6.450
 7470POPC   D2A40432  11.255  32.216   6.750
 7470POPC   C3A40433  11.279  32.253   7.050
 7470POPC   C4A40434  11.266  32.264   7.350
 7470POPC   C1B40435  11.225  32.467   6.450
 7470POPC   C2B40436  11.225  32.458   6.750
 7470POPC   C3B40437  11.182  32.514   7.050
 7470POPC   C4B40438  11.210  32.444   7.350
 7471POPC   NC340439   1.223  19.070   5.550
 7471POPC   PO440440   1.173  19.065   5.850
 7471POPC   GL140441   1.166  19.052   6.150
 7471POPC   GL240442   1.078  19.011   6.150
 7471POPC   C1A40443   1.247  19.066   6.450
 7471POPC   D2A40444   1.194  19.070   6.750
 7471POPC   C3A40445   1.224  19.037   7.050
 7471POPC   C4A40446   1.215  19.050   7.350
 7471POPC   C1B40447   0.932  19.014   6.450
 7471POPC   C2B40448   0.968  19.051   6.750
 7471POPC   C3B40449   0.926  19.072   7.050
 7471POPC   C4B40450   0.973  18.980   7.350
 7472POPC   NC340451  21.422  42.329   5.550
 7472POPC   PO440452  21.378  42.324   5.850
 7472POPC   GL140453  21.364  42.360   6.150
 7472POPC   GL240454  21.394  42.414   6.150
 7472POPC   C1A40455  21.434  42.348   6.450
 7472POPC   D2A40456  21.403  42.331   6.750
 7472POPC   C3A40457  21.399  42.326   7.050
 7472POPC   C4A40458  21.397  42.361   7.350
 7472POPC   C1B40459  21.471  42.624   6.450
 7472POPC   C2B40460  21.487  42.544   6.750
 7472POPC   C3B40461  21.437  42.567   7.050
 7472POPC   C4B40462  21.411  42.604   7.350
 7473POPC   NC340463  30.685  19.819   5.550
 7473POPC   PO440464  30.746  19.884   5.850
 7473POPC   GL140465  30.701  19.794   6.150
 7473POPC   GL240466  30.685  20.005   6.150
 7473POPC   C1A40467  30.690  19.840   6.450
 7473POPC   D2A40468  30.671  19.815   6.750
 7473POPC   C3A40469  30.700  19.821   7.050
 7473POPC   C4A40470  30.738  19.788   7.350
 7473POPC   C1B40471  30.620  20.103   6.450
 7473POPC   C2B40472  30.685  20.052   6.750
 7473POPC   C3B40473  30.649  20.116   7.050
 7473POPC   C4B40474  30.610  20.100   7.350
 7474POPC   NC340475  39.221   3.526   5.550
 7474POPC   PO440476  39.280   3.591   5.850
 7474POPC   GL140477  39.223   3.527   6.150
 7474POPC   GL240478  39.371   3.512   6.150
 7474POPC   C1A40479  39.206   3.558   6.450
 7474POPC   D2A40480  39.259   3.565   6.750
 7474POPC   C3A40481  39.269   3.509   7.050
 7474POPC   C4A40482  39.240   3.510   7.350
 7474POPC   C1B40483  39.429   3.473   6.450
 7474POPC   C2B40484  39.441   3.398   6.750
 7474POPC   C3B40485  39.480   3.443   7.050
 7474POPC   C4B40486  39.453   3.404   7.350
 7475POPC   NC340487  28.370  36.153   5.550
 7475POPC   PO440488  28.325  36.137   5.850
 7475POPC   GL140489  28.402  36.115   6.150
 7475POPC   GL240490  28.299  36.052   6.150
 7475POPC   C1A40491  28.352  36.127   6.450
 7475POPC   D2A40492  28.384  36.154   6.750
 7475POPC   C3A40493  28.370  36.093   7.050
 7475POPC   C4A40494  28.338  36.097   7.350
 7475POPC   C1B40495  28.245  35.865   6.450
 7475POPC   C2B40496  28.243  35.912   6.750
 7475POPC   C3B40497  28.230  35.894   7.050
 7475POPC   C4B40498  28.235  35.891   7.350
 7476POPC   NC340499  26.051  39.213   5.550
 7476POPC   PO440500  26.037  39.280   5.850
 7476POPC   GL140501  25.998  39.249   6.150
 7476POPC   GL240502  25.915  39.127   6.150
 7476POPC   C1A40503  26.006  39.239   6.450
 7476POPC   D2A40504  26.064  39.208   6.750
 7476POPC   C3A40505  26.029  39.269   7.050
 7476POPC   C4A40506  26.088  39.279   7.350
 7476POPC   C1B40507  25.807  39.095   6.450
 7476POPC   C2B40508  25.795  39.123   6.750
 7476POPC   C3B40509  25.794  39.073   7.050
 7476POPC   C4B40510  25.838  39.075   7.350
 7477POPC   NC340511   2.780   6.686   5.550
 7477POPC   PO440512   2.799   6.601   5.850
 7477POPC   GL140513   2.731   6.692   6.150
 7477POPC   GL240514   2.836   6.640   6.150
 7477POPC   C1A40515   2.757   6.606   6.450
 7477POPC   D2A40516   2.804   6.606   6.750
 7477POPC   C3A40517   2.786   6.688   7.050
 7477POPC   C4A40518   2.791   6.647   7.350
 7477POPC   C1B40519   3.026   6.542   6.450
 7477POPC   C2B40520   3.031   6.526   6.750
 7477POPC   C3B40521   2.966   6.571   7.050
 7477POPC   C4B40522   3.003   6.540   7.350
 7478POPC   NC340523  20.628  41.559   5.550
 7478POPC   PO440524  20.641  41.584   5.850
 7478POPC   GL140525  20.567  41.599   6.150
 7478POPC   GL240526  20.535  41.519   6.150
 7478POPC   C1A40527  20.572  41.582   6.450
 7478POPC   D2A40528  20.599  41.560   6.750
 7478POPC   C3A40529  20.589  41.581   7.050
 7478POPC   C4A40530  20.644  41.588   7.350
 7478POPC   C1B40531  20.395  41.563   6.450
 7478POPC   C2B40532  20.328  41.573   6.750
 7478POPC   C3B40533  20.349  41.573   7.050
 7478POPC   C4B40534  20.409  41.538   7.350
 7479POPC   NC340535  29.133  41.558   5.550
 7479POPC   PO440536  29.170  41.574   5.850
 7479POPC   GL140537  29.174  41.576   6.150
 7479POPC   GL240538  29.257  41.681   6.150
 7479POPC   C1A40539  29.102  41.519   6.450
 7479POPC   D2A40540  29.144  41.578   6.750
 7479POPC   C3A40541  29.140  41.574   7.050
 7479POPC   C4A40542  29.181  41.512   7.350
 7479POPC   C1B40543  29.266  41.764   6.450
 7479POPC   C2B40544  29.266  41.732   6.750
 7479POPC   C3B40545  29.302  41.730   7.050
 7479POPC   C4B40546  29.262  41.799   7.350
 7480POPC   NC340547  29.192   1.961   5.550
 7480POPC   PO440548  29.109   2.016   5.850
 7480POPC   GL140549  29.193   1.975   6.150
 7480POPC   GL240550  29.151   2.114   6.150
 7480POPC   C1A40551  29.158   2.024   6.450
 7480POPC   D2A40552  29.172   2.024   6.750
 7480POPC   C3A40553  29.131   1.997   7.050
 7480POPC   C4A40554  29.118   2.022   7.350
 7480POPC   C1B40555  29.170   2.237   6.450
 7480POPC   C2B40556  29.118   2.285   6.750
 7480POPC   C3B40557  29.163   2.268   7.050
 7480POPC   C4B40558  29.141   2.233   7.350
 7481POPC   NC340559  41.592  22.916   5.550
 7481POPC   PO440560  41.565  22.959   5.850
 7481POPC   GL140561  41.529  22.954   6.150
 7481POPC   GL240562  41.453  22.963   6.150
 7481POPC   C1A40563  41.586  22.898   6.450
 7481POPC   D2A40564  41.575  22.897   6.750
 7481POPC   C3A40565  41.581  22.954   7.050
 7481POPC   C4A40566  41.572  22.939   7.350
 7481POPC   C1B40567  41.312  22.949   6.450
 7481POPC   C2B40568  41.280  22.928   6.750
 7481POPC   C3B40569  41.305  22.955   7.050
 7481POPC   C4B40570  41.303  23.000   7.350
 7482POPC   NC340571  43.107  19.023   5.550
 7482POPC   PO440572  43.136  19.030   5.850
 7482POPC   GL140573  43.123  19.022   6.150
 7482POPC   GL240574  43.196  19.016   6.150
 7482POPC   C1A40575  43.132  19.105   6.450
 7482POPC   D2A40576  43.142  19.079   6.750
 7482POPC   C3A40577  43.107  19.009   7.050
 7482POPC   C4A40578  43.131  19.066   7.350
 7482POPC   C1B40579  43.335  18.918   6.450
 7482POPC   C2B40580  43.350  18.904   6.750
 7482POPC   C3B40581  43.339  18.928   7.050
 7482POPC   C4B40582  43.298  18.869   7.350
 7483POPC   NC340583  40.806  14.400   5.550
 7483POPC   PO440584  40.748  14.435   5.850
 7483POPC   GL140585  40.753  14.385   6.150
 7483POPC   GL240586  40.706  14.324   6.150
 7483POPC   C1A40587  40.753  14.371   6.450
 7483POPC   D2A40588  40.802  14.387   6.750
 7483POPC   C3A40589  40.754  14.433   7.050
 7483POPC   C4A40590  40.800  14.385   7.350
 7483POPC   C1B40591  40.685  14.169   6.450
 7483POPC   C2B40592  40.681  14.178   6.750
 7483POPC   C3B40593  40.630  14.188   7.050
 7483POPC   C4B40594  40.636  14.207   7.350
 7484POPC   NC340595  15.192  15.222   5.550
 7484POPC   PO440596  15.216  15.190   5.850
 7484POPC   GL140597  15.154  15.182   6.150
 7484POPC   GL240598  15.246  15.031   6.150
 7484POPC   C1A40599  15.179  15.198   6.450
 7484POPC   D2A40600  15.226  15.210   6.750
 7484POPC   C3A40601  15.143  15.148   7.050
 7484POPC   C4A40602  15.183  15.132   7.350
 7484POPC   C1B40603  15.208  14.910   6.450
 7484POPC   C2B40604  15.197  14.974   6.750
 7484POPC   C3B40605  15.198  14.932   7.050
 7484POPC   C4B40606  15.231  14.942   7.350
 7485POPC   NC340607  19.832  21.424   5.550
 7485POPC   PO440608  19.832  21.366   5.850
 7485POPC   GL140609  19.879  21.411   6.150
 7485POPC   GL240610  19.737  21.370   6.150
 7485POPC   C1A40611  19.872  21.409   6.450
 7485POPC   D2A40612  19.864  21.423   6.750
 7485POPC   C3A40613  19.818  21.415   7.050
 7485POPC   C4A40614  19.800  21.417   7.350
 7485POPC   C1B40615  19.617  21.320   6.450
 7485POPC   C2B40616  19.562  21.344   6.750
 7485POPC   C3B40617  19.557  21.259   7.050
 7485POPC   C4B40618  19.644  21.350   7.350
 7486POPC   NC340619  44.681  43.838   5.550
 7486POPC   PO440620  44.706  43.896   5.850
 7486POPC   GL140621  44.686  43.862   6.150
 7486POPC   GL240622  44.608  44.020   6.150
 7486POPC   C1A40623  44.710  43.921   6.450
 7486POPC   D2A40624  44.656  43.882   6.750
 7486POPC   C3A40625  44.691  43.863   7.050
 7486POPC   C4A40626  44.702  43.877   7.350
 7486POPC   C1B40627  44.526  44.089   6.450
 7486POPC   C2B40628  44.513  44.141   6.750
 7486POPC   C3B40629  44.523  44.111   7.050
 7486POPC   C4B40630  44.523  44.114   7.350
 7487POPC   NC340631  35.337  13.601   5.550
 7487POPC   PO440632  35.387  13.609   5.850
 7487POPC   GL140633  35.368  13.641   6.150
 7487POPC   GL240634  35.270  13.738   6.150
 7487POPC   C1A40635  35.317  13.606   6.450
 7487POPC   D2A40636  35.337  13.618   6.750
 7487POPC   C3A40637  35.311  13.596   7.050
 7487POPC   C4A40638  35.355  13.668   7.350
 7487POPC   C1B40639  35.113  13.736   6.450
 7487POPC   C2B40640  35.120  13.796   6.750
 7487POPC   C3B40641  35.152  13.813   7.050
 7487POPC   C4B40642  35.118  13.780   7.350
 7488POPC   NC340643   2.733  44.655   5.550
 7488POPC   PO440644   2.792  44.652   5.850
 7488POPC   GL140645   2.735  44.673   6.150
 7488POPC   GL240646   2.757  44.742   6.150
 7488POPC   C1A40647   2.785  44.711   6.450
 7488POPC   D2A40648   2.765  44.623   6.750
 7488POPC   C3A40649   2.757  44.693   7.050
 7488POPC   C4A40650   2.738  44.695   7.350
 7488POPC   C1B40651   2.707  44.915   6.450
 7488POPC   C2B40652   2.667  44.884   6.750
 7488POPC   C3B40653   2.683  44.932   7.050
 7488POPC   C4B40654   2.682  44.934   7.350
 7489POPC   NC340655  12.819  28.365   5.550
 7489POPC   PO440656  12.832  28.368   5.850
 7489POPC   GL140657  12.822  28.393   6.150
 7489POPC   GL240658  12.776  28.428   6.150
 7489POPC   C1A40659  12.873  28.352   6.450
 7489POPC   D2A40660  12.844  28.407   6.750
 7489POPC   C3A40661  12.859  28.370   7.050
 7489POPC   C4A40662  12.825  28.391   7.350
 7489POPC   C1B40663  12.580  28.349   6.450
 7489POPC   C2B40664  12.624  28.406   6.750
 7489POPC   C3B40665  12.638  28.376   7.050
 7489POPC   C4B40666  12.594  28.349   7.350
 7490POPC   NC340667  29.188  19.049   5.550
 7490POPC   PO440668  29.178  19.018   5.850
 7490POPC   GL140669  29.145  19.043   6.150
 7490POPC   GL240670  29.215  19.176   6.150
 7490POPC   C1A40671  29.164  19.051   6.450
 7490POPC   D2A40672  29.188  19.103   6.750
 7490POPC   C3A40673  29.188  19.096   7.050
 7490POPC   C4A40674  29.150  19.093   7.350
 7490POPC   C1B40675  29.318  19.195   6.450
 7490POPC   C2B40676  29.329  19.276   6.750
 7490POPC   C3B40677  29.281  19.279   7.050
 7490POPC   C4B40678  29.300  19.228   7.350
 7491POPC   NC340679  43.122  20.580   5.550
 7491POPC   PO440680  43.144  20.617   5.850
 7491POPC   GL140681  43.061  20.624   6.150
 7491POPC   GL240682  43.247  20.563   6.150
 7491POPC   C1A40683  43.083  20.630   6.450
 7491POPC   D2A40684  43.096  20.577   6.750
 7491POPC   C3A40685  43.152  20.571   7.050
 7491POPC   C4A40686  43.082  20.641   7.350
 7491POPC   C1B40687  43.283  20.475   6.450
 7491POPC   C2B40688  43.282  20.505   6.750
 7491POPC   C3B40689  43.294  20.506   7.050
 7491POPC   C4B40690  43.291  20.456   7.350
 7492POPC   NC340691  43.121  31.425   5.550
 7492POPC   PO440692  43.090  31.481   5.850
 7492POPC   GL140693  43.113  31.479   6.150
 7492POPC   GL240694  43.147  31.613   6.150
 7492POPC   C1A40695  43.125  31.450   6.450
 7492POPC   D2A40696  43.142  31.455   6.750
 7492POPC   C3A40697  43.108  31.483   7.050
 7492POPC   C4A40698  43.095  31.481   7.350
 7492POPC   C1B40699  43.067  31.721   6.450
 7492POPC   C2B40700  43.097  31.714   6.750
 7492POPC   C3B40701  43.099  31.696   7.050
 7492POPC   C4B40702  43.110  31.710   7.350
 7493POPC   NC340703  36.909  22.164   5.550
 7493POPC   PO440704  36.903  22.149   5.850
 7493POPC   GL140705  36.909  22.133   6.150
 7493POPC   GL240706  36.927  22.233   6.150
 7493POPC   C1A40707  36.890  22.197   6.450
 7493POPC   D2A40708  36.873  22.120   6.750
 7493POPC   C3A40709  36.877  22.163   7.050
 7493POPC   C4A40710  36.947  22.193   7.350
 7493POPC   C1B40711  37.041  22.414   6.450
 7493POPC   C2B40712  37.052  22.409   6.750
 7493POPC   C3B40713  37.011  22.368   7.050
 7493POPC   C4B40714  37.023  22.356   7.350
 7494POPC   NC340715  13.671  43.847   5.550
 7494POPC   PO440716  13.589  43.875   5.850
 7494POPC   GL140717  13.627  43.837   6.150
 7494POPC   GL240718  13.668  43.767   6.150
 7494POPC   C1A40719  13.579  43.908   6.450
 7494POPC   D2A40720  13.674  43.907   6.750
 7494POPC   C3A40721  13.617  43.846   7.050
 7494POPC   C4A40722  13.675  43.935   7.350
 7494POPC   C1B40723  13.745  43.678   6.450
 7494POPC   C2B40724  13.740  43.711   6.750
 7494POPC   C3B40725  13.810  43.637   7.050
 7494POPC   C4B40726  13.789  43.712   7.350
 7495POPC   NC340727  30.674  27.591   5.550
 7495POPC   PO440728  30.666  27.598   5.850
 7495POPC   GL140729  30.699  27.632   6.150
 7495POPC   GL240730  30.840  27.535   6.150
 7495POPC   C1A40731  30.701  27.622   6.450
 7495POPC   D2A40732  30.745  27.613   6.750
 7495POPC   C3A40733  30.689  27.558   7.050
 7495POPC   C4A40734  30.689  27.642   7.350
 7495POPC   C1B40735  30.929  27.565   6.450
 7495POPC   C2B40736  30.954  27.596   6.750
 7495POPC   C3B40737  30.901  27.598   7.050
 7495POPC   C4B40738  30.944  27.567   7.350
 7496POPC   NC340739  14.421  20.606   5.550
 7496POPC   PO440740  14.382  20.647   5.850
 7496POPC   GL140741  14.387  20.610   6.150
 7496POPC   GL240742  14.235  20.602   6.150
 7496POPC   C1A40743  14.432  20.648   6.450
 7496POPC   D2A40744  14.416  20.601   6.750
 7496POPC   C3A40745  14.399  20.631   7.050
 7496POPC   C4A40746  14.369  20.591   7.350
 7496POPC   C1B40747  14.181  20.590   6.450
 7496POPC   C2B40748  14.154  20.670   6.750
 7496POPC   C3B40749  14.117  20.638   7.050
 7496POPC   C4B40750  14.134  20.615   7.350
 7497POPC   NC340751  38.451  25.263   5.550
 7497POPC   PO440752  38.471  25.255   5.850
 7497POPC   GL140753  38.487  25.227   6.150
 7497POPC   GL240754  38.463  25.357   6.150
 7497POPC   C1A40755  38.469  25.313   6.450
 7497POPC   D2A40756  38.472  25.284   6.750
 7497POPC   C3A40757  38.446  25.270   7.050
 7497POPC   C4A40758  38.432  25.220   7.350
 7497POPC   C1B40759  38.544  25.548   6.450
 7497POPC   C2B40760  38.533  25.489   6.750
 7497POPC   C3B40761  38.448  25.531   7.050
 7497POPC   C4B40762  38.512  25.555   7.350
 7498POPC   NC340763  14.446  41.598   5.550
 7498POPC   PO440764  14.365  41.511   5.850
 7498POPC   GL140765  14.355  41.542   6.150
 7498POPC   GL240766  14.519  41.492   6.150
 7498POPC   C1A40767  14.429  41.606   6.450
 7498POPC   D2A40768  14.451  41.594   6.750
 7498POPC   C3A40769  14.430  41.537   7.050
 7498POPC   C4A40770  14.393  41.520   7.350
 7498POPC   C1B40771  14.540  41.412   6.450
 7498POPC   C2B40772  14.537  41.351   6.750
 7498POPC   C3B40773  14.524  41.342   7.050
 7498POPC   C4B40774  14.538  41.403   7.350
 7499POPC   NC340775  30.730  33.778   5.550
 7499POPC   PO440776  30.700  33.783   5.850
 7499POPC   GL140777  30.668  33.806   6.150
 7499POPC   GL240778  30.834  33.773   6.150
 7499POPC   C1A40779  30.650  33.800   6.450
 7499POPC   D2A40780  30.667  33.795   6.750
 7499POPC   C3A40781  30.680  33.796   7.050
 7499POPC   C4A40782  30.671  33.825   7.350
 7499POPC   C1B40783  30.896  33.686   6.450
 7499POPC   C2B40784  30.957  33.692   6.750
 7499POPC   C3B40785  30.917  33.734   7.050
 7499POPC   C4B40786  30.929  33.741   7.350
 7500POPC   NC340787  41.588  39.976   5.550
 7500POPC   PO440788  41.578  40.014   5.850
 7500POPC   GL140789  41.555  40.052   6.150
 7500POPC   GL240790  41.404  40.033   6.150
 7500POPC   C1A40791  41.539  39.961   6.450
 7500POPC   D2A40792  41.543  39.965   6.750
 7500POPC   C3A40793  41.510  40.015   7.050
 7500POPC   C4A40794  41.510  40.043   7.350
 7500POPC   C1B40795  41.337  39.983   6.450
 7500POPC   C2B40796  41.294  39.974   6.750
 7500POPC   C3B40797  41.281  39.958   7.050
 7500POPC   C4B40798  41.294  39.986   7.350
 7501POPC   NC340799  34.598  28.407   5.550
 7501POPC   PO440800  34.547  28.361   5.850
 7501POPC   GL140801  34.529  28.352   6.150
 7501POPC   GL240802  34.534  28.509   6.150
 7501POPC   C1A40803  34.526  28.383   6.450
 7501POPC   D2A40804  34.566  28.360   6.750
 7501POPC   C3A40805  34.565  28.324   7.050
 7501POPC   C4A40806  34.527  28.380   7.350
 7501POPC   C1B40807  34.547  28.666   6.450
 7501POPC   C2B40808  34.607  28.625   6.750
 7501POPC   C3B40809  34.518  28.618   7.050
 7501POPC   C4B40810  34.573  28.636   7.350
 7502POPC   NC340811  41.519   1.985   5.550
 7502POPC   PO440812  41.526   2.009   5.850
 7502POPC   GL140813  41.592   1.969   6.150
 7502POPC   GL240814  41.654   2.014   6.150
 7502POPC   C1A40815  41.551   1.940   6.450
 7502POPC   D2A40816  41.528   2.008   6.750
 7502POPC   C3A40817  41.579   1.970   7.050
 7502POPC   C4A40818  41.537   2.012   7.350
 7502POPC   C1B40819  41.803   2.078   6.450
 7502POPC   C2B40820  41.766   2.057   6.750
 7502POPC   C3B40821  41.820   2.067   7.050
 7502POPC   C4B40822  41.811   2.028   7.350
 7503POPC   NC340823  43.909  42.353   5.550
 7503POPC   PO440824  43.837  42.364   5.850
 7503POPC   GL140825  43.849  42.310   6.150
 7503POPC   GL240826  43.989  42.181   6.150
 7503POPC   C1A40827  43.837  42.376   6.450
 7503POPC   D2A40828  43.843  42.340   6.750
 7503POPC   C3A40829  43.900  42.304   7.050
 7503POPC   C4A40830  43.900  42.324   7.350
 7503POPC   C1B40831  44.037  42.100   6.450
 7503POPC   C2B40832  43.984  42.136   6.750
 7503POPC   C3B40833  44.036  42.110   7.050
 7503POPC   C4B40834  43.974  42.152   7.350
 7504POPC   NC340835  29.954  40.787   5.550
 7504POPC   PO440836  29.879  40.749   5.850
 7504POPC   GL140837  29.925  40.827   6.150
 7504POPC   GL240838  29.905  40.867   6.150
 7504POPC   C1A40839  29.938  40.736   6.450
 7504POPC   D2A40840  29.927  40.743   6.750
 7504POPC   C3A40841  29.930  40.831   7.050
 7504POPC   C4A40842  29.966  40.827   7.350
 7504POPC   C1B40843  29.838  41.018   6.450
 7504POPC   C2B40844  29.877  40.989   6.750
 7504POPC   C3B40845  29.809  41.008   7.050
 7504POPC   C4B40846  29.805  40.976   7.350
 7505POPC   NC340847   2.031   7.418   5.550
 7505POPC   PO440848   2.009   7.440   5.850
 7505POPC   GL140849   1.986   7.430   6.150
 7505POPC   GL240850   2.064   7.505   6.150
 7505POPC   C1A40851   2.007   7.469   6.450
 7505POPC   D2A40852   1.995   7.461   6.750
 7505POPC   C3A40853   1.976   7.417   7.050
 7505POPC   C4A40854   2.027   7.385   7.350
 7505POPC   C1B40855   2.226   7.572   6.450
 7505POPC   C2B40856   2.145   7.546   6.750
 7505POPC   C3B40857   2.215   7.601   7.050
 7505POPC   C4B40858   2.183   7.538   7.350
 7506POPC   NC340859  11.270  39.203   5.550
 7506POPC   PO440860  11.309  39.219   5.850
 7506POPC   GL140861  11.302  39.194   6.150
 7506POPC   GL240862  11.473  39.213   6.150
 7506POPC   C1A40863  11.252  39.209   6.450
 7506POPC   D2A40864  11.258  39.189   6.750
 7506POPC   C3A40865  11.328  39.206   7.050
 7506POPC   C4A40866  11.263  39.237   7.350
 7506POPC   C1B40867  11.508  39.295   6.450
 7506POPC   C2B40868  11.521  39.232   6.750
 7506POPC   C3B40869  11.511  39.285   7.050
 7506POPC   C4B40870  11.510  39.316   7.350
 7507POPC   NC340871   1.165  17.527   5.550
 7507POPC   PO440872   1.240  17.506   5.850
 7507POPC   GL140873   1.253  17.505   6.150
 7507POPC   GL240874   1.319  17.491   6.150
 7507POPC   C1A40875   1.240  17.532   6.450
 7507POPC   D2A40876   1.204  17.467   6.750
 7507POPC   C3A40877   1.222  17.488   7.050
 7507POPC   C4A40878   1.184  17.506   7.350
 7507POPC   C1B40879   1.442  17.495   6.450
 7507POPC   C2B40880   1.427  17.507   6.750
 7507POPC   C3B40881   1.441  17.497   7.050
 7507POPC   C4B40882   1.444  17.491   7.350
 7508POPC   NC340883  20.619   8.960   5.550
 7508POPC   PO440884  20.573   8.951   5.850
 7508POPC   GL140885  20.648   8.970   6.150
 7508POPC   GL240886  20.695   9.033   6.150
 7508POPC   C1A40887  20.660   8.937   6.450
 7508POPC   D2A40888  20.582   8.963   6.750
 7508POPC   C3A40889  20.598   8.998   7.050
 7508POPC   C4A40890  20.601   9.012   7.350
 7508POPC   C1B40891  20.856   9.080   6.450
 7508POPC   C2B40892  20.778   9.160   6.750
 7508POPC   C3B40893  20.793   9.136   7.050
 7508POPC   C4B40894  20.773   9.163   7.350
 7509POPC   NC340895  30.669  34.554   5.550
 7509POPC   PO440896  30.711  34.620   5.850
 7509POPC   GL140897  30.708  34.620   6.150
 7509POPC   GL240898  30.561  34.584   6.150
 7509POPC   C1A40899  30.670  34.587   6.450
 7509POPC   D2A40900  30.699  34.583   6.750
 7509POPC   C3A40901  30.707  34.530   7.050
 7509POPC   C4A40902  30.648  34.623   7.350
 7509POPC   C1B40903  30.485  34.610   6.450
 7509POPC   C2B40904  30.455  34.618   6.750
 7509POPC   C3B40905  30.471  34.600   7.050
 7509POPC   C4B40906  30.472  34.576   7.350
 7510POPC   NC340907  29.949  28.323   5.550
 7510POPC   PO440908  29.931  28.347   5.850
 7510POPC   GL140909  29.931  28.377   6.150
 7510POPC   GL240910  30.025  28.415   6.150
 7510POPC   C1A40911  29.947  28.361   6.450
 7510POPC   D2A40912  29.890  28.360   6.750
 7510POPC   C3A40913  29.922  28.402   7.050
 7510POPC   C4A40914  29.937  28.388   7.350
 7510POPC   C1B40915  30.107  28.542   6.450
 7510POPC   C2B40916  30.116  28.593   6.750
 7510POPC   C3B40917  30.137  28.539   7.050
 7510POPC   C4B40918  30.098  28.532   7.350
 7511POPC   NC340919  34.602  32.218   5.550
 7511POPC   PO440920  34.611  32.223   5.850
 7511POPC   GL140921  34.545  32.212   6.150
 7511POPC   GL240922  34.697  32.135   6.150
 7511POPC   C1A40923  34.558  32.296   6.450
 7511POPC   D2A40924  34.532  32.278   6.750
 7511POPC   C3A40925  34.529  32.242   7.050
 7511POPC   C4A40926  34.564  32.280   7.350
 7511POPC   C1B40927  34.809  32.090   6.450
 7511POPC   C2B40928  34.763  32.148   6.750
 7511POPC   C3B40929  34.825  32.142   7.050
 7511POPC   C4B40930  34.789  32.095   7.350
 7512POPC   NC340931  38.503  36.147   5.550
 7512POPC   PO440932  38.449  36.147   5.850
 7512POPC   GL140933  38.442  36.104   6.150
 7512POPC   GL240934  38.342  36.227   6.150
 7512POPC   C1A40935  38.412  36.090   6.450
 7512POPC   D2A40936  38.460  36.088   6.750
 7512POPC   C3A40937  38.430  36.162   7.050
 7512POPC   C4A40938  38.408  36.080   7.350
 7512POPC   C1B40939  38.297  36.249   6.450
 7512POPC   C2B40940  38.297  36.293   6.750
 7512POPC   C3B40941  38.250  36.294   7.050
 7512POPC   C4B40942  38.255  36.288   7.350
 7513POPC   NC340943  44.708  12.805   5.550
 7513POPC   PO440944  44.695  12.899   5.850
 7513POPC   GL140945  44.693  12.884   6.150
 7513POPC   GL240946  44.598  12.775   6.150
 7513POPC   C1A40947  44.709  12.870   6.450
 7513POPC   D2A40948  44.695  12.891   6.750
 7513POPC   C3A40949  44.652  12.838   7.050
 7513POPC   C4A40950  44.640  12.867   7.350
 7513POPC   C1B40951  44.415  12.714   6.450
 7513POPC   C2B40952  44.463  12.739   6.750
 7513POPC   C3B40953  44.468  12.741   7.050
 7513POPC   C4B40954  44.464  12.689   7.350
 7514POPC   NC340955  12.094  33.824   5.550
 7514POPC   PO440956  12.100  33.770   5.850
 7514POPC   GL140957  12.091  33.813   6.150
 7514POPC   GL240958  11.958  33.795   6.150
 7514POPC   C1A40959  12.107  33.838   6.450
 7514POPC   D2A40960  12.074  33.791   6.750
 7514POPC   C3A40961  12.062  33.847   7.050
 7514POPC   C4A40962  12.068  33.767   7.350
 7514POPC   C1B40963  11.797  33.754   6.450
 7514POPC   C2B40964  11.790  33.759   6.750
 7514POPC   C3B40965  11.833  33.782   7.050
 7514POPC   C4B40966  11.784  33.743   7.350
 7515POPC   NC340967  36.169  15.209   5.550
 7515POPC   PO440968  36.141  15.222   5.850
 7515POPC   GL140969  36.161  15.203   6.150
 7515POPC   GL240970  36.055  15.174   6.150
 7515POPC   C1A40971  36.091  15.196   6.450
 7515POPC   D2A40972  36.161  15.139   6.750
 7515POPC   C3A40973  36.125  15.188   7.050
 7515POPC   C4A40974  36.080  15.220   7.350
 7515POPC   C1B40975  35.912  15.081   6.450
 7515POPC   C2B40976  35.939  15.039   6.750
 7515POPC   C3B40977  35.899  15.096   7.050
 7515POPC   C4B40978  35.939  15.081   7.350
 7516POPC   NC340979  28.379  15.914   5.550
 7516POPC   PO440980  28.378  15.986   5.850
 7516POPC   GL140981  28.340  15.909   6.150
 7516POPC   GL240982  28.452  15.984   6.150
 7516POPC   C1A40983  28.419  15.941   6.450
 7516POPC   D2A40984  28.403  15.982   6.750
 7516POPC   C3A40985  28.394  15.996   7.050
 7516POPC   C4A40986  28.391  15.929   7.350
 7516POPC   C1B40987  28.581  16.125   6.450
 7516POPC   C2B40988  28.621  16.119   6.750
 7516POPC   C3B40989  28.605  16.115   7.050
 7516POPC   C4B40990  28.624  16.105   7.350
 7517POPC   NC340991  42.380  30.707   5.550
 7517POPC   PO440992  42.358  30.707   5.850
 7517POPC   GL140993  42.299  30.744   6.150
 7517POPC   GL240994  42.411  30.731   6.150
 7517POPC   C1A40995  42.364  30.724   6.450
 7517POPC   D2A40996  42.312  30.658   6.750
 7517POPC   C3A40997  42.359  30.721   7.050
 7517POPC   C4A40998  42.347  30.733   7.350
 7517POPC   C1B40999  42.549  30.731   6.450
 7517POPC   C2B41000  42.619  30.726   6.750
 7517POPC   C3B41001  42.557  30.796   7.050
 7517POPC   C4B41002  42.537  30.730   7.350
 7518POPC   NC341003  31.488  44.696   5.550
 7518POPC   PO441004  31.497  44.634   5.850
 7518POPC   GL141005  31.500  44.660   6.150
 7518POPC   GL241006  31.416  44.555   6.150
 7518POPC   C1A41007  31.501  44.699   6.450
 7518POPC   D2A41008  31.451  44.673   6.750
 7518POPC   C3A41009  31.466  44.642   7.050
 7518POPC   C4A41010  31.433  44.656   7.350
 7518POPC   C1B41011  31.218  44.577   6.450
 7518POPC   C2B41012  31.263  44.541   6.750
 7518POPC   C3B41013  31.235  44.486   7.050
 7518POPC   C4B41014  31.289  44.491   7.350
 7519POPC   NC341015  16.773  26.032   5.550
 7519POPC   PO441016  16.744  26.010   5.850
 7519POPC   GL141017  16.742  26.015   6.150
 7519POPC   GL241018  16.796  25.928   6.150
 7519POPC   C1A41019  16.714  26.085   6.450
 7519POPC   D2A41020  16.745  25.997   6.750
 7519POPC   C3A41021  16.779  26.079   7.050
 7519POPC   C4A41022  16.683  26.046   7.350
 7519POPC   C1B41023  16.876  25.924   6.450
 7519POPC   C2B41024  16.938  25.845   6.750
 7519POPC   C3B41025  16.878  25.927   7.050
 7519POPC   C4B41026  16.889  25.925   7.350
 7520POPC   NC341027  26.013  15.216   5.550
 7520POPC   PO441028  26.072  15.130   5.850
 7520POPC   GL141029  26.072  15.194   6.150
 7520POPC   GL241030  26.004  15.288   6.150
 7520POPC   C1A41031  26.013  15.144   6.450
 7520POPC   D2A41032  26.063  15.227   6.750
 7520POPC   C3A41033  26.078  15.193   7.050
 7520POPC   C4A41034  26.062  15.155   7.350
 7520POPC   C1B41035  25.966  15.416   6.450
 7520POPC   C2B41036  25.907  15.425   6.750
 7520POPC   C3B41037  25.976  15.429   7.050
 7520POPC   C4B41038  25.950  15.356   7.350
 7521POPC   NC341039  37.713  43.120   5.550
 7521POPC   PO441040  37.636  43.112   5.850
 7521POPC   GL141041  37.634  43.094   6.150
 7521POPC   GL241042  37.665  42.978   6.150
 7521POPC   C1A41043  37.658  43.094   6.450
 7521POPC   D2A41044  37.644  43.078   6.750
 7521POPC   C3A41045  37.683  43.144   7.050
 7521POPC   C4A41046  37.645  43.094   7.350
 7521POPC   C1B41047  37.559  42.859   6.450
 7521POPC   C2B41048  37.622  42.840   6.750
 7521POPC   C3B41049  37.564  42.893   7.050
 7521POPC   C4B41050  37.542  42.918   7.350
 7522POPC   NC341051   8.157   6.689   5.550
 7522POPC   PO441052   8.156   6.677   5.850
 7522POPC   GL141053   8.189   6.684   6.150
 7522POPC   GL241054   8.175   6.481   6.150
 7522POPC   C1A41055   8.161   6.637   6.450
 7522POPC   D2A41056   8.202   6.651   6.750
 7522POPC   C3A41057   8.174   6.689   7.050
 7522POPC   C4A41058   8.154   6.670   7.350
 7522POPC   C1B41059   8.164   6.394   6.450
 7522POPC   C2B41060   8.171   6.394   6.750
 7522POPC   C3B41061   8.166   6.350   7.050
 7522POPC   C4B41062   8.124   6.398   7.350
 7523POPC   NC341063  22.125  39.185   5.550
 7523POPC   PO441064  22.170  39.260   5.850
 7523POPC   GL141065  22.179  39.192   6.150
 7523POPC   GL241066  22.260  39.207   6.150
 7523POPC   C1A41067  22.144  39.260   6.450
 7523POPC   D2A41068  22.182  39.272   6.750
 7523POPC   C3A41069  22.152  39.195   7.050
 7523POPC   C4A41070  22.137  39.220   7.350
 7523POPC   C1B41071  22.366  39.200   6.450
 7523POPC   C2B41072  22.363  39.143   6.750
 7523POPC   C3B41073  22.444  39.223   7.050
 7523POPC   C4B41074  22.436  39.145   7.350
 7524POPC   NC341075  22.907  39.231   5.550
 7524POPC   PO441076  22.953  39.230   5.850
 7524POPC   GL141077  22.907  39.198   6.150
 7524POPC   GL241078  23.008  39.290   6.150
 7524POPC   C1A41079  22.954  39.263   6.450
 7524POPC   D2A41080  22.931  39.278   6.750
 7524POPC   C3A41081  22.946  39.197   7.050
 7524POPC   C4A41082  22.979  39.228   7.350
 7524POPC   C1B41083  23.113  39.411   6.450
 7524POPC   C2B41084  23.093  39.423   6.750
 7524POPC   C3B41085  23.091  39.385   7.050
 7524POPC   C4B41086  23.086  39.398   7.350
 7525POPC   NC341087   3.550  33.055   5.550
 7525POPC   PO441088   3.562  33.074   5.850
 7525POPC   GL141089   3.533  33.020   6.150
 7525POPC   GL241090   3.375  33.068   6.150
 7525POPC   C1A41091   3.513  33.038   6.450
 7525POPC   D2A41092   3.521  32.999   6.750
 7525POPC   C3A41093   3.571  32.989   7.050
 7525POPC   C4A41094   3.504  33.064   7.350
 7525POPC   C1B41095   3.287  33.090   6.450
 7525POPC   C2B41096   3.348  33.115   6.750
 7525POPC   C3B41097   3.340  33.077   7.050
 7525POPC   C4B41098   3.290  33.071   7.350
 7526POPC   NC341099  42.358   0.467   5.550
 7526POPC   PO441100  42.374   0.432   5.850
 7526POPC   GL141101  42.351   0.442   6.150
 7526POPC   GL241102  42.455   0.390   6.150
 7526POPC   C1A41103  42.294   0.426   6.450
 7526POPC   D2A41104  42.343   0.425   6.750
 7526POPC   C3A41105  42.359   0.391   7.050
 7526POPC   C4A41106  42.317   0.391   7.350
 7526POPC   C1B41107  42.515   0.297   6.450
 7526POPC   C2B41108  42.575   0.284   6.750
 7526POPC   C3B41109  42.574   0.274   7.050
 7526POPC   C4B41110  42.550   0.299   7.350
 7527POPC   NC341111  29.180   3.542   5.550
 7527POPC   PO441112  29.109   3.566   5.850
 7527POPC   GL141113  29.151   3.559   6.150
 7527POPC   GL241114  29.279   3.539   6.150
 7527POPC   C1A41115  29.184   3.534   6.450
 7527POPC   D2A41116  29.111   3.493   6.750
 7527POPC   C3A41117  29.098   3.519   7.050
 7527POPC   C4A41118  29.169   3.565   7.350
 7527POPC   C1B41119  29.378   3.493   6.450
 7527POPC   C2B41120  29.437   3.531   6.750
 7527POPC   C3B41121  29.367   3.518   7.050
 7527POPC   C4B41122  29.434   3.533   7.350
 7528POPC   NC341123  32.206  22.184   5.550
 7528POPC   PO441124  32.262  22.122   5.850
 7528POPC   GL141125  32.239  22.146   6.150
 7528POPC   GL241126  32.174  22.018   6.150
 7528POPC   C1A41127  32.290  22.115   6.450
 7528POPC   D2A41128  32.244  22.165   6.750
 7528POPC   C3A41129  32.244  22.202   7.050
 7528POPC   C4A41130  32.268  22.184   7.350
 7528POPC   C1B41131  32.161  21.926   6.450
 7528POPC   C2B41132  32.170  21.892   6.750
 7528POPC   C3B41133  32.179  21.951   7.050
 7528POPC   C4B41134  32.173  21.950   7.350
 7529POPC   NC341135  25.283  26.056   5.550
 7529POPC   PO441136  25.259  26.055   5.850
 7529POPC   GL141137  25.307  26.014   6.150
 7529POPC   GL241138  25.220  26.123   6.150
 7529POPC   C1A41139  25.268  26.063   6.450
 7529POPC   D2A41140  25.254  25.993   6.750
 7529POPC   C3A41141  25.269  26.036   7.050
 7529POPC   C4A41142  25.276  26.018   7.350
 7529POPC   C1B41143  25.206  26.269   6.450
 7529POPC   C2B41144  25.158  26.235   6.750
 7529POPC   C3B41145  25.210  26.283   7.050
 7529POPC   C4B41146  25.171  26.271   7.350
 7530POPC   NC341147   4.309  33.003   5.550
 7530POPC   PO441148   4.279  33.017   5.850
 7530POPC   GL141149   4.278  33.020   6.150
 7530POPC   GL241150   4.221  32.942   6.150
 7530POPC   C1A41151   4.345  33.013   6.450
 7530POPC   D2A41152   4.319  33.004   6.750
 7530POPC   C3A41153   4.304  33.006   7.050
 7530POPC   C4A41154   4.339  33.049   7.350
 7530POPC   C1B41155   4.143  32.848   6.450
 7530POPC   C2B41156   4.083  32.861   6.750
 7530POPC   C3B41157   4.078  32.883   7.050
 7530POPC   C4B41158   4.167  32.886   7.350
 7531POPC   NC341159  39.239  26.807   5.550
 7531POPC   PO441160  39.274  26.861   5.850
 7531POPC   GL141161  39.261  26.858   6.150
 7531POPC   GL241162  39.069  26.820   6.150
 7531POPC   C1A41163  39.260  26.805   6.450
 7531POPC   D2A41164  39.274  26.780   6.750
 7531POPC   C3A41165  39.232  26.824   7.050
 7531POPC   C4A41166  39.207  26.855   7.350
 7531POPC   C1B41167  39.007  26.764   6.450
 7531POPC   C2B41168  38.954  26.789   6.750
 7531POPC   C3B41169  38.938  26.771   7.050
 7531POPC   C4B41170  38.945  26.781   7.350
 7532POPC   NC341171  13.607  40.760   5.550
 7532POPC   PO441172  13.593  40.817   5.850
 7532POPC   GL141173  13.639  40.755   6.150
 7532POPC   GL241174  13.780  40.849   6.150
 7532POPC   C1A41175  13.579  40.809   6.450
 7532POPC   D2A41176  13.624  40.832   6.750
 7532POPC   C3A41177  13.588  40.776   7.050
 7532POPC   C4A41178  13.586  40.830   7.350
 7532POPC   C1B41179  13.880  40.938   6.450
 7532POPC   C2B41180  13.888  40.879   6.750
 7532POPC   C3B41181  13.836  40.942   7.050
 7532POPC   C4B41182  13.864  40.875   7.350
 7533POPC   NC341183   9.757   6.666   5.550
 7533POPC   PO441184   9.731   6.629   5.850
 7533POPC   GL141185   9.776   6.665   6.150
 7533POPC   GL241186   9.609   6.630   6.150
 7533POPC   C1A41187   9.709   6.629   6.450
 7533POPC   D2A41188   9.730   6.616   6.750
 7533POPC   C3A41189   9.708   6.606   7.050
 7533POPC   C4A41190   9.702   6.606   7.350
 7533POPC   C1B41191   9.479   6.533   6.450
 7533POPC   C2B41192   9.507   6.509   6.750
 7533POPC   C3B41193   9.498   6.497   7.050
 7533POPC   C4B41194   9.567   6.509   7.350
 7534POPC   NC341195   0.427   9.719   5.550
 7534POPC   PO441196   0.474   9.744   5.850
 7534POPC   GL141197   0.414   9.782   6.150
 7534POPC   GL241198   0.286   9.809   6.150
 7534POPC   C1A41199   0.461   9.737   6.450
 7534POPC   D2A41200   0.434   9.730   6.750
 7534POPC   C3A41201   0.442   9.748   7.050
 7534POPC   C4A41202   0.429   9.754   7.350
 7534POPC   C1B41203   0.274   9.836   6.450
 7534POPC   C2B41204   0.261   9.834   6.750
 7534POPC   C3B41205   0.271   9.883   7.050
 7534POPC   C4B41206   0.255   9.835   7.350
 7535POPC   NC341207  15.223  11.279   5.550
 7535POPC   PO441208  15.138  11.272   5.850
 7535POPC   GL141209  15.132  11.348   6.150
 7535POPC   GL241210  15.049  11.290   6.150
 7535POPC   C1A41211  15.214  11.328   6.450
 7535POPC   D2A41212  15.193  11.323   6.750
 7535POPC   C3A41213  15.229  11.261   7.050
 7535POPC   C4A41214  15.199  11.349   7.350
 7535POPC   C1B41215  14.909  11.253   6.450
 7535POPC   C2B41216  14.890  11.234   6.750
 7535POPC   C3B41217  14.925  11.305   7.050
 7535POPC   C4B41218  14.905  11.281   7.350
 7536POPC   NC341219  19.040   2.792   5.550
 7536POPC   PO441220  19.036   2.801   5.850
 7536POPC   GL141221  19.093   2.716   6.150
 7536POPC   GL241222  19.205   2.766   6.150
 7536POPC   C1A41223  19.075   2.766   6.450
 7536POPC   D2A41224  19.054   2.806   6.750
 7536POPC   C3A41225  19.037   2.799   7.050
 7536POPC   C4A41226  19.066   2.769   7.350
 7536POPC   C1B41227  19.347   2.828   6.450
 7536POPC   C2B41228  19.334   2.787   6.750
 7536POPC   C3B41229  19.334   2.823   7.050
 7536POPC   C4B41230  19.329   2.823   7.350
 7537POPC   NC341231  15.132  12.112   5.550
 7537POPC   PO441232  15.172  12.079   5.850
 7537POPC   GL141233  15.179  12.120   6.150
 7537POPC   GL241234  15.050  12.053   6.150
 7537POPC   C1A41235  15.201  12.094   6.450
 7537POPC   D2A41236  15.213  12.108   6.750
 7537POPC   C3A41237  15.212  12.079   7.050
 7537POPC   C4A41238  15.213  12.094   7.350
 7537POPC   C1B41239  14.946  11.950   6.450
 7537POPC   C2B41240  14.933  11.919   6.750
 7537POPC   C3B41241  14.932  11.928   7.050
 7537POPC   C4B41242  14.968  11.994   7.350
 7538POPC   NC341243  25.248  14.371   5.550
 7538POPC   PO441244  25.299  14.433   5.850
 7538POPC   GL141245  25.224  14.403   6.150
 7538POPC   GL241246  25.320  14.496   6.150
 7538POPC   C1A41247  25.308  14.402   6.450
 7538POPC   D2A41248  25.217  14.355   6.750
 7538POPC   C3A41249  25.242  14.451   7.050
 7538POPC   C4A41250  25.231  14.376   7.350
 7538POPC   C1B41251  25.485  14.528   6.450
 7538POPC   C2B41252  25.509  14.527   6.750
 7538POPC   C3B41253  25.500  14.551   7.050
 7538POPC   C4B41254  25.520  14.518   7.350
 7539POPC   NC341255  14.405   8.981   5.550
 7539POPC   PO441256  14.411   9.002   5.850
 7539POPC   GL141257  14.403   8.926   6.150
 7539POPC   GL241258  14.261   8.931   6.150
 7539POPC   C1A41259  14.422   8.962   6.450
 7539POPC   D2A41260  14.451   8.996   6.750
 7539POPC   C3A41261  14.416   8.930   7.050
 7539POPC   C4A41262  14.434   9.020   7.350
 7539POPC   C1B41263  14.180   8.825   6.450
 7539POPC   C2B41264  14.231   8.809   6.750
 7539POPC   C3B41265  14.176   8.847   7.050
 7539POPC   C4B41266  14.188   8.791   7.350
 7540POPC   NC341267  10.521  32.975   5.550
 7540POPC   PO441268  10.564  33.069   5.850
 7540POPC   GL141269  10.559  33.072   6.150
 7540POPC   GL241270  10.692  33.002   6.150
 7540POPC   C1A41271  10.514  32.974   6.450
 7540POPC   D2A41272  10.560  33.013   6.750
 7540POPC   C3A41273  10.554  33.047   7.050
 7540POPC   C4A41274  10.535  32.992   7.350
 7540POPC   C1B41275  10.762  33.033   6.450
 7540POPC   C2B41276  10.795  32.995   6.750
 7540POPC   C3B41277  10.753  32.993   7.050
 7540POPC   C4B41278  10.769  32.995   7.350
 7541POPC   NC341279  29.904  38.469   5.550
 7541POPC   PO441280  29.954  38.423   5.850
 7541POPC   GL141281  29.914  38.440   6.150
 7541POPC   GL241282  30.007  38.413   6.150
 7541POPC   C1A41283  29.896  38.434   6.450
 7541POPC   D2A41284  29.919  38.410   6.750
 7541POPC   C3A41285  29.918  38.476   7.050
 7541POPC   C4A41286  29.921  38.473   7.350
 7541POPC   C1B41287  30.163  38.337   6.450
 7541POPC   C2B41288  30.129  38.301   6.750
 7541POPC   C3B41289  30.121  38.326   7.050
 7541POPC   C4B41290  30.081  38.262   7.350
 7542POPC   NC341291  39.199  23.707   5.550
 7542POPC   PO441292  39.187  23.672   5.850
 7542POPC   GL141293  39.262  23.698   6.150
 7542POPC   GL241294  39.382  23.709   6.150
 7542POPC   C1A41295  39.244  23.756   6.450
 7542POPC   D2A41296  39.183  23.752   6.750
 7542POPC   C3A41297  39.274  23.718   7.050
 7542POPC   C4A41298  39.245  23.732   7.350
 7542POPC   C1B41299  39.432  23.623   6.450
 7542POPC   C2B41300  39.460  23.695   6.750
 7542POPC   C3B41301  39.477  23.642   7.050
 7542POPC   C4B41302  39.483  23.622   7.350
 7543POPC   NC341303  33.824   9.706   5.550
 7543POPC   PO441304  33.805   9.710   5.850
 7543POPC   GL141305  33.832   9.762   6.150
 7543POPC   GL241306  33.801   9.643   6.150
 7543POPC   C1A41307  33.780   9.705   6.450
 7543POPC   D2A41308  33.775   9.718   6.750
 7543POPC   C3A41309  33.799   9.714   7.050
 7543POPC   C4A41310  33.787   9.779   7.350
 7543POPC   C1B41311  33.896   9.544   6.450
 7543POPC   C2B41312  33.816   9.463   6.750
 7543POPC   C3B41313  33.822   9.453   7.050
 7543POPC   C4B41314  33.797   9.485   7.350
 7544POPC   NC341315  19.046   7.400   5.550
 7544POPC   PO441316  19.075   7.462   5.850
 7544POPC   GL141317  19.068   7.390   6.150
 7544POPC   GL241318  19.220   7.423   6.150
 7544POPC   C1A41319  19.076   7.390   6.450
 7544POPC   D2A41320  19.094   7.382   6.750
 7544POPC   C3A41321  19.051   7.435   7.050
 7544POPC   C4A41322  19.032   7.378   7.350
 7544POPC   C1B41323  19.262   7.401   6.450
 7544POPC   C2B41324  19.302   7.446   6.750
 7544POPC   C3B41325  19.298   7.401   7.050
 7544POPC   C4B41326  19.319   7.402   7.350
 7545POPC   NC341327  26.016  21.399   5.550
 7545POPC   PO441328  26.013  21.384   5.850
 7545POPC   GL141329  26.031  21.371   6.150
 7545POPC   GL241330  26.014  21.296   6.150
 7545POPC   C1A41331  26.041  21.355   6.450
 7545POPC   D2A41332  26.090  21.425   6.750
 7545POPC   C3A41333  26.025  21.368   7.050
 7545POPC   C4A41334  26.025  21.390   7.350
 7545POPC   C1B41335  26.071  21.176   6.450
 7545POPC   C2B41336  26.005  21.180   6.750
 7545POPC   C3B41337  26.003  21.099   7.050
 7545POPC   C4B41338  26.058  21.160   7.350
 7546POPC   NC341339  18.321  33.033   5.550
 7546POPC   PO441340  18.302  33.006   5.850
 7546POPC   GL141341  18.265  33.006   6.150
 7546POPC   GL241342  18.393  32.986   6.150
 7546POPC   C1A41343  18.240  33.020   6.450
 7546POPC   D2A41344  18.299  33.025   6.750
 7546POPC   C3A41345  18.287  33.035   7.050
 7546POPC   C4A41346  18.309  33.025   7.350
 7546POPC   C1B41347  18.537  32.953   6.450
 7546POPC   C2B41348  18.497  32.919   6.750
 7546POPC   C3B41349  18.468  32.953   7.050
 7546POPC   C4B41350  18.480  32.903   7.350
 7547POPC   NC341351  23.700  42.309   5.550
 7547POPC   PO441352  23.742  42.318   5.850
 7547POPC   GL141353  23.744  42.309   6.150
 7547POPC   GL241354  23.837  42.265   6.150
 7547POPC   C1A41355  23.684  42.325   6.450
 7547POPC   D2A41356  23.680  42.357   6.750
 7547POPC   C3A41357  23.730  42.321   7.050
 7547POPC   C4A41358  23.732  42.305   7.350
 7547POPC   C1B41359  23.994  42.245   6.450
 7547POPC   C2B41360  23.929  42.300   6.750
 7547POPC   C3B41361  23.948  42.332   7.050
 7547POPC   C4B41362  23.970  42.304   7.350
 7548POPC   NC341363  33.838   8.957   5.550
 7548POPC   PO441364  33.778   8.960   5.850
 7548POPC   GL141365  33.830   9.019   6.150
 7548POPC   GL241366  33.932   9.033   6.150
 7548POPC   C1A41367  33.836   8.925   6.450
 7548POPC   D2A41368  33.843   8.947   6.750
 7548POPC   C3A41369  33.831   8.946   7.050
 7548POPC   C4A41370  33.821   8.927   7.350
 7548POPC   C1B41371  34.047   9.154   6.450
 7548POPC   C2B41372  34.011   9.084   6.750
 7548POPC   C3B41373  33.954   9.090   7.050
 7548POPC   C4B41374  33.993   9.153   7.350
 7549POPC   NC341375  23.742   5.117   5.550
 7549POPC   PO441376  23.715   5.093   5.850
 7549POPC   GL141377  23.712   5.067   6.150
 7549POPC   GL241378  23.785   5.105   6.150
 7549POPC   C1A41379  23.751   5.048   6.450
 7549POPC   D2A41380  23.756   5.050   6.750
 7549POPC   C3A41381  23.668   5.094   7.050
 7549POPC   C4A41382  23.749   5.090   7.350
 7549POPC   C1B41383  23.958   5.179   6.450
 7549POPC   C2B41384  23.918   5.202   6.750
 7549POPC   C3B41385  23.990   5.199   7.050
 7549POPC   C4B41386  23.893   5.153   7.350
 7550POPC   NC341387  26.768  36.129   5.550
 7550POPC   PO441388  26.822  36.105   5.850
 7550POPC   GL141389  26.824  36.154   6.150
 7550POPC   GL241390  26.781  36.287   6.150
 7550POPC   C1A41391  26.864  36.138   6.450
 7550POPC   D2A41392  26.850  36.117   6.750
 7550POPC   C3A41393  26.855  36.092   7.050
 7550POPC   C4A41394  26.849  36.120   7.350
 7550POPC   C1B41395  26.798  36.390   6.450
 7550POPC   C2B41396  26.860  36.352   6.750
 7550POPC   C3B41397  26.809  36.398   7.050
 7550POPC   C4B41398  26.847  36.375   7.350
 7551POPC   NC341399  12.821  41.512   5.550
 7551POPC   PO441400  12.896  41.560   5.850
 7551POPC   GL141401  12.837  41.544   6.150
 7551POPC   GL241402  12.865  41.716   6.150
 7551POPC   C1A41403  12.867  41.554   6.450
 7551POPC   D2A41404  12.851  41.602   6.750
 7551POPC   C3A41405  12.851  41.517   7.050
 7551POPC   C4A41406  12.842  41.538   7.350
 7551POPC   C1B41407  12.821  41.774   6.450
 7551POPC   C2B41408  12.831  41.761   6.750
 7551POPC   C3B41409  12.869  41.805   7.050
 7551POPC   C4B41410  12.825  41.786   7.350
 7552POPC   NC341411  19.864  43.113   5.550
 7552POPC   PO441412  19.822  43.148   5.850
 7552POPC   GL141413  19.801  43.138   6.150
 7552POPC   GL241414  19.775  43.146   6.150
 7552POPC   C1A41415  19.848  43.155   6.450
 7552POPC   D2A41416  19.872  43.160   6.750
 7552POPC   C3A41417  19.825  43.151   7.050
 7552POPC   C4A41418  19.852  43.128   7.350
 7552POPC   C1B41419  19.601  43.317   6.450
 7552POPC   C2B41420  19.611  43.256   6.750
 7552POPC   C3B41421  19.613  43.299   7.050
 7552POPC   C4B41422  19.679  43.269   7.350
 7553POPC   NC341423  17.466  30.732   5.550
 7553POPC   PO441424  17.542  30.699   5.850
 7553POPC   GL141425  17.527  30.670   6.150
 7553POPC   GL241426  17.582  30.542   6.150
 7553POPC   C1A41427  17.519  30.737   6.450
 7553POPC   D2A41428  17.497  30.699   6.750
 7553POPC   C3A41429  17.479  30.723   7.050
 7553POPC   C4A41430  17.511  30.728   7.350
 7553POPC   C1B41431  17.602  30.478   6.450
 7553POPC   C2B41432  17.577  30.498   6.750
 7553POPC   C3B41433  17.540  30.446   7.050
 7553POPC   C4B41434  17.624  30.463   7.350
 7554POPC   NC341435   1.178  15.946   5.550
 7554POPC   PO441436   1.257  15.947   5.850
 7554POPC   GL141437   1.183  15.967   6.150
 7554POPC   GL241438   1.234  15.803   6.150
 7554POPC   C1A41439   1.217  15.946   6.450
 7554POPC   D2A41440   1.185  15.990   6.750
 7554POPC   C3A41441   1.215  15.996   7.050
 7554POPC   C4A41442   1.248  15.991   7.350
 7554POPC   C1B41443   1.333  15.741   6.450
 7554POPC   C2B41444   1.266  15.694   6.750
 7554POPC   C3B41445   1.272  15.744   7.050
 7554POPC   C4B41446   1.238  15.739   7.350
 7555POPC   NC341447   8.984   3.568   5.550
 7555POPC   PO441448   9.005   3.522   5.850
 7555POPC   GL141449   8.994   3.535   6.150
 7555POPC   GL241450   8.931   3.380   6.150
 7555POPC   C1A41451   8.933   3.534   6.450
 7555POPC   D2A41452   8.981   3.531   6.750
 7555POPC   C3A41453   8.985   3.546   7.050
 7555POPC   C4A41454   9.019   3.494   7.350
 7555POPC   C1B41455   8.880   3.271   6.450
 7555POPC   C2B41456   8.845   3.333   6.750
 7555POPC   C3B41457   8.928   3.275   7.050
 7555POPC   C4B41458   8.885   3.348   7.350
 7556POPC   NC341459   8.938  27.560   5.550
 7556POPC   PO441460   8.968  27.572   5.850
 7556POPC   GL141461   9.022  27.633   6.150
 7556POPC   GL241462   8.963  27.739   6.150
 7556POPC   C1A41463   8.956  27.547   6.450
 7556POPC   D2A41464   8.981  27.630   6.750
 7556POPC   C3A41465   8.969  27.586   7.050
 7556POPC   C4A41466   8.926  27.618   7.350
 7556POPC   C1B41467   9.086  27.843   6.450
 7556POPC   C2B41468   9.022  27.852   6.750
 7556POPC   C3B41469   9.091  27.844   7.050
 7556POPC   C4B41470   9.034  27.816   7.350
 7557POPC   NC341471  16.745  22.139   5.550
 7557POPC   PO441472  16.694  22.117   5.850
 7557POPC   GL141473  16.698  22.165   6.150
 7557POPC   GL241474  16.847  22.248   6.150
 7557POPC   C1A41475  16.733  22.172   6.450
 7557POPC   D2A41476  16.722  22.202   6.750
 7557POPC   C3A41477  16.733  22.176   7.050
 7557POPC   C4A41478  16.686  22.127   7.350
 7557POPC   C1B41479  16.929  22.258   6.450
 7557POPC   C2B41480  16.967  22.219   6.750
 7557POPC   C3B41481  16.992  22.253   7.050
 7557POPC   C4B41482  16.982  22.240   7.350
 7558POPC   NC341483  11.264  37.664   5.550
 7558POPC   PO441484  11.279  37.633   5.850
 7558POPC   GL141485  11.337  37.651   6.150
 7558POPC   GL241486  11.212  37.540   6.150
 7558POPC   C1A41487  11.271  37.705   6.450
 7558POPC   D2A41488  11.277  37.707   6.750
 7558POPC   C3A41489  11.321  37.718   7.050
 7558POPC   C4A41490  11.335  37.716   7.350
 7558POPC   C1B41491  11.153  37.465   6.450
 7558POPC   C2B41492  11.169  37.471   6.750
 7558POPC   C3B41493  11.174  37.474   7.050
 7558POPC   C4B41494  11.087  37.528   7.350
 7559POPC   NC341495  40.037   5.101   5.550
 7559POPC   PO441496  40.051   5.098   5.850
 7559POPC   GL141497  40.035   5.056   6.150
 7559POPC   GL241498  40.156   4.980   6.150
 7559POPC   C1A41499  40.011   5.057   6.450
 7559POPC   D2A41500  40.015   5.098   6.750
 7559POPC   C3A41501  39.987   5.133   7.050
 7559POPC   C4A41502  40.043   5.061   7.350
 7559POPC   C1B41503  40.260   4.926   6.450
 7559POPC   C2B41504  40.242   4.906   6.750
 7559POPC   C3B41505  40.248   4.958   7.050
 7559POPC   C4B41506  40.237   4.924   7.350
 7560POPC   NC341507  22.908   3.526   5.550
 7560POPC   PO441508  22.924   3.581   5.850
 7560POPC   GL141509  22.891   3.520   6.150
 7560POPC   GL241510  22.899   3.449   6.150
 7560POPC   C1A41511  22.915   3.588   6.450
 7560POPC   D2A41512  22.897   3.502   6.750
 7560POPC   C3A41513  22.895   3.587   7.050
 7560POPC   C4A41514  22.955   3.565   7.350
 7560POPC   C1B41515  22.821   3.319   6.450
 7560POPC   C2B41516  22.844   3.288   6.750
 7560POPC   C3B41517  22.835   3.302   7.050
 7560POPC   C4B41518  22.840   3.346   7.350
 7561POPC   NC341519  44.623  26.836   5.550
 7561POPC   PO441520  44.665  26.790   5.850
 7561POPC   GL141521  44.678  26.844   6.150
 7561POPC   GL241522  44.561  26.862   6.150
 7561POPC   C1A41523  44.698  26.790   6.450
 7561POPC   D2A41524  44.629  26.864   6.750
 7561POPC   C3A41525  44.623  26.786   7.050
 7561POPC   C4A41526  44.671  26.773   7.350
 7561POPC   C1B41527  44.403  26.914   6.450
 7561POPC   C2B41528  44.390  26.964   6.750
 7561POPC   C3B41529  44.475  26.910   7.050
 7561POPC   C4B41530  44.487  26.877   7.350
 7562POPC   NC341531  43.844  30.678   5.550
 7562POPC   PO441532  43.882  30.716   5.850
 7562POPC   GL141533  43.868  30.732   6.150
 7562POPC   GL241534  43.817  30.556   6.150
 7562POPC   C1A41535  43.858  30.696   6.450
 7562POPC   D2A41536  43.925  30.703   6.750
 7562POPC   C3A41537  43.929  30.706   7.050
 7562POPC   C4A41538  43.838  30.739   7.350
 7562POPC   C1B41539  43.768  30.514   6.450
 7562POPC   C2B41540  43.764  30.451   6.750
 7562POPC   C3B41541  43.715  30.472   7.050
 7562POPC   C4B41542  43.758  30.482   7.350
 7563POPC   NC341543  44.627  22.180   5.550
 7563POPC   PO441544  44.655  22.179   5.850
 7563POPC   GL141545  44.680  22.112   6.150
 7563POPC   GL241546  44.702  22.035   6.150
 7563POPC   C1A41547  44.677  22.116   6.450
 7563POPC   D2A41548  44.640  22.122   6.750
 7563POPC   C3A41549  44.677  22.186   7.050
 7563POPC   C4A41550  44.635  22.135   7.350
 7563POPC   C1B41551  44.702  21.957   6.450
 7563POPC   C2B41552  44.687  21.948   6.750
 7563POPC   C3B41553  44.744  21.918   7.050
 7563POPC   C4B41554  44.692  21.961   7.350
 7564POPC   NC341555  19.814   8.201   5.550
 7564POPC   PO441556  19.880   8.221   5.850
 7564POPC   GL141557  19.814   8.234   6.150
 7564POPC   GL241558  19.674   8.185   6.150
 7564POPC   C1A41559  19.876   8.238   6.450
 7564POPC   D2A41560  19.844   8.154   6.750
 7564POPC   C3A41561  19.873   8.169   7.050
 7564POPC   C4A41562  19.831   8.165   7.350
 7564POPC   C1B41563  19.624   8.144   6.450
 7564POPC   C2B41564  19.592   8.111   6.750
 7564POPC   C3B41565  19.631   8.179   7.050
 7564POPC   C4B41566  19.578   8.137   7.350
 7565POPC   NC341567   8.960   5.142   5.550
 7565POPC   PO441568   8.950   5.074   5.850
 7565POPC   GL141569   8.960   5.140   6.150
 7565POPC   GL241570   8.992   5.253   6.150
 7565POPC   C1A41571   9.011   5.105   6.450
 7565POPC   D2A41572   9.000   5.080   6.750
 7565POPC   C3A41573   8.950   5.090   7.050
 7565POPC   C4A41574   8.961   5.055   7.350
 7565POPC   C1B41575   8.951   5.296   6.450
 7565POPC   C2B41576   9.006   5.331   6.750
 7565POPC   C3B41577   8.981   5.341   7.050
 7565POPC   C4B41578   8.926   5.341   7.350
 7566POPC   NC341579  36.086  24.498   5.550
 7566POPC   PO441580  36.162  24.478   5.850
 7566POPC   GL141581  36.158  24.472   6.150
 7566POPC   GL241582  35.973  24.558   6.150
 7566POPC   C1A41583  36.116  24.456   6.450
 7566POPC   D2A41584  36.149  24.536   6.750
 7566POPC   C3A41585  36.152  24.514   7.050
 7566POPC   C4A41586  36.122  24.538   7.350
 7566POPC   C1B41587  35.896  24.540   6.450
 7566POPC   C2B41588  35.866  24.543   6.750
 7566POPC   C3B41589  35.887  24.554   7.050
 7566POPC   C4B41590  35.933  24.613   7.350
 7567POPC   NC341591  43.063   7.385   5.550
 7567POPC   PO441592  43.110   7.462   5.850
 7567POPC   GL141593  43.069   7.438   6.150
 7567POPC   GL241594  42.961   7.493   6.150
 7567POPC   C1A41595  43.099   7.399   6.450
 7567POPC   D2A41596  43.092   7.419   6.750
 7567POPC   C3A41597  43.137   7.381   7.050
 7567POPC   C4A41598  43.097   7.410   7.350
 7567POPC   C1B41599  42.886   7.530   6.450
 7567POPC   C2B41600  42.886   7.508   6.750
 7567POPC   C3B41601  42.886   7.555   7.050
 7567POPC   C4B41602  42.851   7.506   7.350
 7568POPC   NC341603  15.988  26.808   5.550
 7568POPC   PO441604  15.987  26.774   5.850
 7568POPC   GL141605  16.003  26.829   6.150
 7568POPC   GL241606  15.877  26.835   6.150
 7568POPC   C1A41607  15.978  26.807   6.450
 7568POPC   D2A41608  15.980  26.785   6.750
 7568POPC   C3A41609  15.977  26.842   7.050
 7568POPC   C4A41610  15.974  26.832   7.350
 7568POPC   C1B41611  15.705  26.839   6.450
 7568POPC   C2B41612  15.676  26.820   6.750
 7568POPC   C3B41613  15.727  26.777   7.050
 7568POPC   C4B41614  15.698  26.805   7.350
 7569POPC   NC341615  20.620  34.587   5.550
 7569POPC   PO441616  20.570  34.607   5.850
 7569POPC   GL141617  20.644  34.552   6.150
 7569POPC   GL241618  20.624  34.673   6.150
 7569POPC   C1A41619  20.620  34.566   6.450
 7569POPC   D2A41620  20.567  34.593   6.750
 7569POPC   C3A41621  20.593  34.542   7.050
 7569POPC   C4A41622  20.620  34.567   7.350
 7569POPC   C1B41623  20.727  34.793   6.450
 7569POPC   C2B41624  20.758  34.758   6.750
 7569POPC   C3B41625  20.756  34.789   7.050
 7569POPC   C4B41626  20.667  34.796   7.350
 7570POPC   NC341627  37.662  26.069   5.550
 7570POPC   PO441628  37.720  26.079   5.850
 7570POPC   GL141629  37.659  26.047   6.150
 7570POPC   GL241630  37.633  26.128   6.150
 7570POPC   C1A41631  37.687  26.015   6.450
 7570POPC   D2A41632  37.654  26.064   6.750
 7570POPC   C3A41633  37.695  26.010   7.050
 7570POPC   C4A41634  37.677  26.059   7.350
 7570POPC   C1B41635  37.631  26.307   6.450
 7570POPC   C2B41636  37.652  26.305   6.750
 7570POPC   C3B41637  37.673  26.328   7.050
 7570POPC   C4B41638  37.625  26.314   7.350
 7571POPC   NC341639  14.371  42.293   5.550
 7571POPC   PO441640  14.424  42.344   5.850
 7571POPC   GL141641  14.360  42.361   6.150
 7571POPC   GL241642  14.439  42.479   6.150
 7571POPC   C1A41643  14.431  42.303   6.450
 7571POPC   D2A41644  14.429  42.371   6.750
 7571POPC   C3A41645  14.408  42.287   7.050
 7571POPC   C4A41646  14.417  42.339   7.350
 7571POPC   C1B41647  14.432  42.594   6.450
 7571POPC   C2B41648  14.362  42.630   6.750
 7571POPC   C3B41649  14.390  42.578   7.050
 7571POPC   C4B41650  14.388  42.632   7.350
 7572POPC   NC341651  28.359  30.671   5.550
 7572POPC   PO441652  28.320  30.719   5.850
 7572POPC   GL141653  28.402  30.723   6.150
 7572POPC   GL241654  28.204  30.691   6.150
 7572POPC   C1A41655  28.337  30.661   6.450
 7572POPC   D2A41656  28.327  30.725   6.750
 7572POPC   C3A41657  28.383  30.651   7.050
 7572POPC   C4A41658  28.362  30.730   7.350
 7572POPC   C1B41659  28.141  30.678   6.450
 7572POPC   C2B41660  28.118  30.635   6.750
 7572POPC   C3B41661  28.126  30.650   7.050
 7572POPC   C4B41662  28.104  30.670   7.350
 7573POPC   NC341663  36.087  36.921   5.550
 7573POPC   PO441664  36.150  36.896   5.850
 7573POPC   GL141665  36.163  36.924   6.150
 7573POPC   GL241666  36.050  36.975   6.150
 7573POPC   C1A41667  36.159  36.906   6.450
 7573POPC   D2A41668  36.143  36.882   6.750
 7573POPC   C3A41669  36.093  36.934   7.050
 7573POPC   C4A41670  36.150  36.923   7.350
 7573POPC   C1B41671  35.846  36.942   6.450
 7573POPC   C2B41672  35.894  36.981   6.750
 7573POPC   C3B41673  35.938  36.967   7.050
 7573POPC   C4B41674  35.910  36.995   7.350
 7574POPC   NC341675  39.193  11.324   5.550
 7574POPC   PO441676  39.218  11.319   5.850
 7574POPC   GL141677  39.265  11.290   6.150
 7574POPC   GL241678  39.145  11.429   6.150
 7574POPC   C1A41679  39.271  11.295   6.450
 7574POPC   D2A41680  39.251  11.281   6.750
 7574POPC   C3A41681  39.269  11.266   7.050
 7574POPC   C4A41682  39.203  11.281   7.350
 7574POPC   C1B41683  39.032  11.485   6.450
 7574POPC   C2B41684  39.030  11.508   6.750
 7574POPC   C3B41685  39.038  11.450   7.050
 7574POPC   C4B41686  39.083  11.513   7.350
 7575POPC   NC341687  10.564  27.627   5.550
 7575POPC   PO441688  10.522  27.619   5.850
 7575POPC   GL141689  10.553  27.613   6.150
 7575POPC   GL241690  10.403  27.614   6.150
 7575POPC   C1A41691  10.521  27.636   6.450
 7575POPC   D2A41692  10.519  27.619   6.750
 7575POPC   C3A41693  10.507  27.572   7.050
 7575POPC   C4A41694  10.528  27.638   7.350
 7575POPC   C1B41695  10.312  27.536   6.450
 7575POPC   C2B41696  10.240  27.562   6.750
 7575POPC   C3B41697  10.237  27.540   7.050
 7575POPC   C4B41698  10.257  27.543   7.350
 7576POPC   NC341699  40.822  44.688   5.550
 7576POPC   PO441700  40.745  44.679   5.850
 7576POPC   GL141701  40.808  44.631   6.150
 7576POPC   GL241702  40.712  44.786   6.150
 7576POPC   C1A41703  40.779  44.684   6.450
 7576POPC   D2A41704  40.817  44.625   6.750
 7576POPC   C3A41705  40.786  44.635   7.050
 7576POPC   C4A41706  40.805  44.650   7.350
 7576POPC   C1B41707  40.667  44.914   6.450
 7576POPC   C2B41708  40.701  44.932   6.750
 7576POPC   C3B41709  40.710  44.856   7.050
 7576POPC   C4B41710  40.653  44.850   7.350
 7577POPC   NC341711  44.692  16.751   5.550
 7577POPC   PO441712  44.628  16.728   5.850
 7577POPC   GL141713  44.706  16.722   6.150
 7577POPC   GL241714  44.731  16.816   6.150
 7577POPC   C1A41715  44.617  16.741   6.450
 7577POPC   D2A41716  44.699  16.740   6.750
 7577POPC   C3A41717  44.690  16.711   7.050
 7577POPC   C4A41718  44.684  16.692   7.350
 7577POPC   C1B41719  44.811  16.839   6.450
 7577POPC   C2B41720  44.841  16.837   6.750
 7577POPC   C3B41721  44.851  16.891   7.050
 7577POPC   C4B41722  44.875  16.908   7.350
 7578POPC   NC341723  44.678  17.525   5.550
 7578POPC   PO441724  44.682  17.467   5.850
 7578POPC   GL141725  44.708  17.521   6.150
 7578POPC   GL241726  44.735  17.607   6.150
 7578POPC   C1A41727  44.635  17.483   6.450
 7578POPC   D2A41728  44.630  17.488   6.750
 7578POPC   C3A41729  44.686  17.517   7.050
 7578POPC   C4A41730  44.704  17.458   7.350
 7578POPC   C1B41731  44.830  17.714   6.450
 7578POPC   C2B41732  44.778  17.725   6.750
 7578POPC   C3B41733  44.778  17.695   7.050
 7578POPC   C4B41734  44.757  17.776   7.350
 7579POPC   NC341735  31.466  10.555   5.550
 7579POPC   PO441736  31.433  10.521   5.850
 7579POPC   GL141737  31.497  10.492   6.150
 7579POPC   GL241738  31.407  10.394   6.150
 7579POPC   C1A41739  31.521  10.500   6.450
 7579POPC   D2A41740  31.432  10.561   6.750
 7579POPC   C3A41741  31.459  10.540   7.050
 7579POPC   C4A41742  31.437  10.508   7.350
 7579POPC   C1B41743  31.384  10.296   6.450
 7579POPC   C2B41744  31.347  10.314   6.750
 7579POPC   C3B41745  31.347  10.258   7.050
 7579POPC   C4B41746  31.387  10.324   7.350
 7580POPC   NC341747   1.168  43.891   5.550
 7580POPC   PO441748   1.232  43.888   5.850
 7580POPC   GL141749   1.179  43.913   6.150
 7580POPC   GL241750   1.162  43.994   6.150
 7580POPC   C1A41751   1.180  43.895   6.450
 7580POPC   D2A41752   1.234  43.902   6.750
 7580POPC   C3A41753   1.167  43.860   7.050
 7580POPC   C4A41754   1.252  43.894   7.350
 7580POPC   C1B41755   1.190  44.147   6.450
 7580POPC   C2B41756   1.243  44.140   6.750
 7580POPC   C3B41757   1.219  44.179   7.050
 7580POPC   C4B41758   1.211  44.105   7.350
 7581POPC   NC341759  26.016   4.344   5.550
 7581POPC   PO441760  26.073   4.294   5.850
 7581POPC   GL141761  26.011   4.334   6.150
 7581POPC   GL241762  26.108   4.407   6.150
 7581POPC   C1A41763  25.997   4.284   6.450
 7581POPC   D2A41764  26.041   4.275   6.750
 7581POPC   C3A41765  26.015   4.287   7.050
 7581POPC   C4A41766  26.063   4.307   7.350
 7581POPC   C1B41767  26.206   4.485   6.450
 7581POPC   C2B41768  26.239   4.499   6.750
 7581POPC   C3B41769  26.217   4.530   7.050
 7581POPC   C4B41770  26.166   4.496   7.350
 7582POPC   NC341771  21.433   5.844   5.550
 7582POPC   PO441772  21.357   5.837   5.850
 7582POPC   GL141773  21.390   5.899   6.150
 7582POPC   GL241774  21.284   5.901   6.150
 7582POPC   C1A41775  21.388   5.889   6.450
 7582POPC   D2A41776  21.397   5.829   6.750
 7582POPC   C3A41777  21.339   5.904   7.050
 7582POPC   C4A41778  21.373   5.914   7.350
 7582POPC   C1B41779  21.210   5.984   6.450
 7582POPC   C2B41780  21.137   6.016   6.750
 7582POPC   C3B41781  21.219   6.045   7.050
 7582POPC   C4B41782  21.213   6.004   7.350
 7583POPC   NC341783  28.396  43.925   5.550
 7583POPC   PO441784  28.376  43.837   5.850
 7583POPC   GL141785  28.396  43.911   6.150
 7583POPC   GL241786  28.280  43.784   6.150
 7583POPC   C1A41787  28.325  43.896   6.450
 7583POPC   D2A41788  28.321  43.920   6.750
 7583POPC   C3A41789  28.350  43.899   7.050
 7583POPC   C4A41790  28.321  43.893   7.350
 7583POPC   C1B41791  28.234  43.706   6.450
 7583POPC   C2B41792  28.256  43.677   6.750
 7583POPC   C3B41793  28.272  43.671   7.050
 7583POPC   C4B41794  28.202  43.636   7.350
 7584POPC   NC341795  41.573  40.742   5.550
 7584POPC   PO441796  41.545  40.789   5.850
 7584POPC   GL141797  41.513  40.786   6.150
 7584POPC   GL241798  41.474  40.701   6.150
 7584POPC   C1A41799  41.514  40.734   6.450
 7584POPC   D2A41800  41.551  40.795   6.750
 7584POPC   C3A41801  41.518  40.769   7.050
 7584POPC   C4A41802  41.514  40.737   7.350
 7584POPC   C1B41803  41.414  40.593   6.450
 7584POPC   C2B41804  41.326  40.616   6.750
 7584POPC   C3B41805  41.411  40.643   7.050
 7584POPC   C4B41806  41.409  40.585   7.350
 7585POPC   NC341807   8.937  37.637   5.550
 7585POPC   PO441808   9.002  37.633   5.850
 7585POPC   GL141809   8.966  37.689   6.150
 7585POPC   GL241810   8.841  37.678   6.150
 7585POPC   C1A41811   8.994  37.676   6.450
 7585POPC   D2A41812   9.014  37.649   6.750
 7585POPC   C3A41813   8.977  37.712   7.050
 7585POPC   C4A41814   8.926  37.709   7.350
 7585POPC   C1B41815   8.765  37.561   6.450
 7585POPC   C2B41816   8.740  37.623   6.750
 7585POPC   C3B41817   8.702  37.613   7.050
 7585POPC   C4B41818   8.693  37.631   7.350
 7586POPC   NC341819  22.983  34.625   5.550
 7586POPC   PO441820  22.957  34.609   5.850
 7586POPC   GL141821  22.967  34.592   6.150
 7586POPC   GL241822  23.083  34.496   6.150
 7586POPC   C1A41823  22.925  34.614   6.450
 7586POPC   D2A41824  22.982  34.554   6.750
 7586POPC   C3A41825  22.957  34.581   7.050
 7586POPC   C4A41826  22.952  34.581   7.350
 7586POPC   C1B41827  23.165  34.469   6.450
 7586POPC   C2B41828  23.192  34.531   6.750
 7586POPC   C3B41829  23.183  34.493   7.050
 7586POPC   C4B41830  23.170  34.530   7.350
 7587POPC   NC341831  25.228  19.038   5.550
 7587POPC   PO441832  25.251  19.080   5.850
 7587POPC   GL141833  25.221  19.107   6.150
 7587POPC   GL241834  25.400  19.113   6.150
 7587POPC   C1A41835  25.291  19.089   6.450
 7587POPC   D2A41836  25.219  19.020   6.750
 7587POPC   C3A41837  25.264  19.040   7.050
 7587POPC   C4A41838  25.250  19.068   7.350
 7587POPC   C1B41839  25.539  19.112   6.450
 7587POPC   C2B41840  25.486  19.147   6.750
 7587POPC   C3B41841  25.537  19.200   7.050
 7587POPC   C4B41842  25.496  19.125   7.350
 7588POPC   NC341843   3.529  43.061   5.550
 7588POPC   PO441844   3.584  43.118   5.850
 7588POPC   GL141845   3.563  43.120   6.150
 7588POPC   GL241846   3.437  43.081   6.150
 7588POPC   C1A41847   3.527  43.127   6.450
 7588POPC   D2A41848   3.519  43.156   6.750
 7588POPC   C3A41849   3.520  43.124   7.050
 7588POPC   C4A41850   3.571  43.086   7.350
 7588POPC   C1B41851   3.311  43.055   6.450
 7588POPC   C2B41852   3.278  42.966   6.750
 7588POPC   C3B41853   3.288  43.035   7.050
 7588POPC   C4B41854   3.351  42.968   7.350
 7589POPC   NC341855  15.991   1.247   5.550
 7589POPC   PO441856  15.946   1.169   5.850
 7589POPC   GL141857  15.918   1.258   6.150
 7589POPC   GL241858  16.075   1.075   6.150
 7589POPC   C1A41859  15.984   1.253   6.450
 7589POPC   D2A41860  15.989   1.255   6.750
 7589POPC   C3A41861  15.972   1.208   7.050
 7589POPC   C4A41862  16.003   1.233   7.350
 7589POPC   C1B41863  16.074   1.046   6.450
 7589POPC   C2B41864  16.128   1.076   6.750
 7589POPC   C3B41865  16.098   1.014   7.050
 7589POPC   C4B41866  16.103   1.050   7.350
 7590POPC   NC341867  39.219  43.932   5.550
 7590POPC   PO441868  39.269  43.921   5.850
 7590POPC   GL141869  39.252  43.850   6.150
 7590POPC   GL241870  39.288  43.844   6.150
 7590POPC   C1A41871  39.199  43.929   6.450
 7590POPC   D2A41872  39.222  43.920   6.750
 7590POPC   C3A41873  39.249  43.899   7.050
 7590POPC   C4A41874  39.221  43.864   7.350
 7590POPC   C1B41875  39.469  43.747   6.450
 7590POPC   C2B41876  39.443  43.723   6.750
 7590POPC   C3B41877  39.399  43.741   7.050
 7590POPC   C4B41878  39.376  43.703   7.350
 7591POPC   NC341879  14.400  15.951   5.550
 7591POPC   PO441880  14.443  15.974   5.850
 7591POPC   GL141881  14.378  15.973   6.150
 7591POPC   GL241882  14.398  16.067   6.150
 7591POPC   C1A41883  14.442  15.931   6.450
 7591POPC   D2A41884  14.450  15.988   6.750
 7591POPC   C3A41885  14.371  15.979   7.050
 7591POPC   C4A41886  14.451  15.916   7.350
 7591POPC   C1B41887  14.321  16.224   6.450
 7591POPC   C2B41888  14.250  16.207   6.750
 7591POPC   C3B41889  14.323  16.178   7.050
 7591POPC   C4B41890  14.247  16.131   7.350
 7592POPC   NC341891   1.230   6.668   5.550
 7592POPC   PO441892   1.219   6.617   5.850
 7592POPC   GL141893   1.223   6.670   6.150
 7592POPC   GL241894   1.129   6.636   6.150
 7592POPC   C1A41895   1.220   6.615   6.450
 7592POPC   D2A41896   1.193   6.680   6.750
 7592POPC   C3A41897   1.202   6.658   7.050
 7592POPC   C4A41898   1.237   6.641   7.350
 7592POPC   C1B41899   0.960   6.726   6.450
 7592POPC   C2B41900   0.921   6.734   6.750
 7592POPC   C3B41901   0.981   6.740   7.050
 7592POPC   C4B41902   0.948   6.711   7.350
 7593POPC   NC341903  26.012   8.156   5.550
 7593POPC   PO441904  26.084   8.148   5.850
 7593POPC   GL141905  25.994   8.207   6.150
 7593POPC   GL241906  25.973   8.335   6.150
 7593POPC   C1A41907  26.077   8.160   6.450
 7593POPC   D2A41908  26.073   8.237   6.750
 7593POPC   C3A41909  26.027   8.172   7.050
 7593POPC   C4A41910  26.077   8.203   7.350
 7593POPC   C1B41911  25.959   8.395   6.450
 7593POPC   C2B41912  25.967   8.463   6.750
 7593POPC   C3B41913  25.896   8.382   7.050
 7593POPC   C4B41914  25.964   8.434   7.350
 7594POPC   NC341915  28.403   9.790   5.550
 7594POPC   PO441916  28.357   9.781   5.850
 7594POPC   GL141917  28.338   9.724   6.150
 7594POPC   GL241918  28.269   9.648   6.150
 7594POPC   C1A41919  28.353   9.792   6.450
 7594POPC   D2A41920  28.401   9.779   6.750
 7594POPC   C3A41921  28.333   9.704   7.050
 7594POPC   C4A41922  28.368   9.722   7.350
 7594POPC   C1B41923  28.268   9.590   6.450
 7594POPC   C2B41924  28.252   9.587   6.750
 7594POPC   C3B41925  28.214   9.528   7.050
 7594POPC   C4B41926  28.204   9.577   7.350
 7595POPC   NC341927   3.514  40.038   5.550
 7595POPC   PO441928   3.547  40.010   5.850
 7595POPC   GL141929   3.564  40.054   6.150
 7595POPC   GL241930   3.391  40.049   6.150
 7595POPC   C1A41931   3.496  39.986   6.450
 7595POPC   D2A41932   3.514  40.044   6.750
 7595POPC   C3A41933   3.498  40.040   7.050
 7595POPC   C4A41934   3.499  40.035   7.350
 7595POPC   C1B41935   3.337  40.071   6.450
 7595POPC   C2B41936   3.273  40.046   6.750
 7595POPC   C3B41937   3.263  40.048   7.050
 7595POPC   C4B41938   3.317  40.053   7.350
 7596POPC   NC341939  37.718   0.390   5.550
 7596POPC   PO441940  37.698   0.430   5.850
 7596POPC   GL141941  37.665   0.435   6.150
 7596POPC   GL241942  37.511   0.400   6.150
 7596POPC   C1A41943  37.728   0.434   6.450
 7596POPC   D2A41944  37.647   0.444   6.750
 7596POPC   C3A41945  37.670   0.435   7.050
 7596POPC   C4A41946  37.638   0.433   7.350
 7596POPC   C1B41947  37.381   0.509   6.450
 7596POPC   C2B41948  37.457   0.466   6.750
 7596POPC   C3B41949  37.427   0.437   7.050
 7596POPC   C4B41950  37.431   0.419   7.350
 7597POPC   NC341951  44.627  21.353   5.550
 7597POPC   PO441952  44.632  21.386   5.850
 7597POPC   GL141953  44.710  21.352   6.150
 7597POPC   GL241954  44.635  21.535   6.150
 7597POPC   C1A41955  44.700  21.378   6.450
 7597POPC   D2A41956  44.701  21.407   6.750
 7597POPC   C3A41957  44.621  21.403   7.050
 7597POPC   C4A41958  44.665  21.426   7.350
 7597POPC   C1B41959  44.526  21.601   6.450
 7597POPC   C2B41960  44.538  21.633   6.750
 7597POPC   C3B41961  44.541  21.630   7.050
 7597POPC   C4B41962  44.498  21.630   7.350
 7598POPC   NC341963   4.284   5.844   5.550
 7598POPC   PO441964   4.285   5.841   5.850
 7598POPC   GL141965   4.317   5.902   6.150
 7598POPC   GL241966   4.465   5.881   6.150
 7598POPC   C1A41967   4.339   5.888   6.450
 7598POPC   D2A41968   4.315   5.871   6.750
 7598POPC   C3A41969   4.330   5.912   7.050
 7598POPC   C4A41970   4.331   5.908   7.350
 7598POPC   C1B41971   4.613   5.923   6.450
 7598POPC   C2B41972   4.557   5.911   6.750
 7598POPC   C3B41973   4.518   5.883   7.050
 7598POPC   C4B41974   4.607   5.913   7.350
 7599POPC   NC341975  22.888  27.633   5.550
 7599POPC   PO441976  22.914  27.608   5.850
 7599POPC   GL141977  22.928  27.597   6.150
 7599POPC   GL241978  22.892  27.671   6.150
 7599POPC   C1A41979  22.940  27.580   6.450
 7599POPC   D2A41980  22.926  27.548   6.750
 7599POPC   C3A41981  22.945  27.617   7.050
 7599POPC   C4A41982  22.893  27.559   7.350
 7599POPC   C1B41983  22.837  27.845   6.450
 7599POPC   C2B41984  22.837  27.808   6.750
 7599POPC   C3B41985  22.864  27.825   7.050
 7599POPC   C4B41986  22.911  27.809   7.350
 7600POPC   NC341987  36.114  12.805   5.550
 7600POPC   PO441988  36.084  12.856   5.850
 7600POPC   GL141989  36.138  12.847   6.150
 7600POPC   GL241990  36.142  12.937   6.150
 7600POPC   C1A41991  36.151  12.817   6.450
 7600POPC   D2A41992  36.134  12.880   6.750
 7600POPC   C3A41993  36.167  12.888   7.050
 7600POPC   C4A41994  36.133  12.865   7.350
 7600POPC   C1B41995  36.121  13.087   6.450
 7600POPC   C2B41996  36.088  13.112   6.750
 7600POPC   C3B41997  36.117  13.138   7.050
 7600POPC   C4B41998  36.065  13.110   7.350
 7601POPC   NC341999  14.378  35.310   5.550
 7601POPC   PO442000  14.401  35.356   5.850
 7601POPC   GL142001  14.396  35.302   6.150
 7601POPC   GL242002  14.304  35.393   6.150
 7601POPC   C1A42003  14.393  35.359   6.450
 7601POPC   D2A42004  14.422  35.321   6.750
 7601POPC   C3A42005  14.391  35.308   7.050
 7601POPC   C4A42006  14.371  35.368   7.350
 7601POPC   C1B42007  14.171  35.480   6.450
 7601POPC   C2B42008  14.157  35.466   6.750
 7601POPC   C3B42009  14.143  35.460   7.050
 7601POPC   C4B42010  14.193  35.515   7.350
 7602POPC   NC342011  16.756  33.064   5.550
 7602POPC   PO442012  16.702  33.015   5.850
 7602POPC   GL142013  16.728  33.044   6.150
 7602POPC   GL242014  16.646  32.948   6.150
 7602POPC   C1A42015  16.694  33.033   6.450
 7602POPC   D2A42016  16.730  32.981   6.750
 7602POPC   C3A42017  16.737  33.011   7.050
 7602POPC   C4A42018  16.730  33.007   7.350
 7602POPC   C1B42019  16.521  32.976   6.450
 7602POPC   C2B42020  16.489  32.931   6.750
 7602POPC   C3B42021  16.531  32.906   7.050
 7602POPC   C4B42022  16.531  32.961   7.350
 7603POPC   NC342023  42.369   7.422   5.550
 7603POPC   PO442024  42.344   7.400   5.850
 7603POPC   GL142025  42.336   7.386   6.150
 7603POPC   GL242026  42.450   7.483   6.150
 7603POPC   C1A42027  42.378   7.408   6.450
 7603POPC   D2A42028  42.368   7.450   6.750
 7603POPC   C3A42029  42.303   7.380   7.050
 7603POPC   C4A42030  42.296   7.384   7.350
 7603POPC   C1B42031  42.606   7.472   6.450
 7603POPC   C2B42032  42.538   7.438   6.750
 7603POPC   C3B42033  42.602   7.478   7.050
 7603POPC   C4B42034  42.610   7.437   7.350
 7604POPC   NC342035  41.536  12.857   5.550
 7604POPC   PO442036  41.529  12.806   5.850
 7604POPC   GL142037  41.567  12.809   6.150
 7604POPC   GL242038  41.416  12.895   6.150
 7604POPC   C1A42039  41.543  12.864   6.450
 7604POPC   D2A42040  41.517  12.855   6.750
 7604POPC   C3A42041  41.606  12.889   7.050
 7604POPC   C4A42042  41.570  12.874   7.350
 7604POPC   C1B42043  41.292  12.959   6.450
 7604POPC   C2B42044  41.373  12.970   6.750
 7604POPC   C3B42045  41.318  12.969   7.050
 7604POPC   C4B42046  41.313  12.952   7.350
 7605POPC   NC342047   5.905   9.706   5.550
 7605POPC   PO442048   5.918   9.715   5.850
 7605POPC   GL142049   5.885   9.767   6.150
 7605POPC   GL242050   5.914   9.835   6.150
 7605POPC   C1A42051   5.844   9.748   6.450
 7605POPC   D2A42052   5.856   9.732   6.750
 7605POPC   C3A42053   5.902   9.753   7.050
 7605POPC   C4A42054   5.917   9.745   7.350
 7605POPC   C1B42055   5.879   9.950   6.450
 7605POPC   C2B42056   5.832   9.971   6.750
 7605POPC   C3B42057   5.842   9.977   7.050
 7605POPC   C4B42058   5.851   9.973   7.350
 7606POPC   NC342059   9.732  32.982   5.550
 7606POPC   PO442060   9.739  33.004   5.850
 7606POPC   GL142061   9.775  32.978   6.150
 7606POPC   GL242062   9.702  32.868   6.150
 7606POPC   C1A42063   9.741  33.070   6.450
 7606POPC   D2A42064   9.711  33.039   6.750
 7606POPC   C3A42065   9.733  33.000   7.050
 7606POPC   C4A42066   9.717  33.011   7.350
 7606POPC   C1B42067   9.709  32.831   6.450
 7606POPC   C2B42068   9.694  32.801   6.750
 7606POPC   C3B42069   9.645  32.802   7.050
 7606POPC   C4B42070   9.641  32.772   7.350
 7607POPC   NC342071   1.231  35.325   5.550
 7607POPC   PO442072   1.184  35.348   5.850
 7607POPC   GL142073   1.191  35.312   6.150
 7607POPC   GL242074   1.208  35.180   6.150
 7607POPC   C1A42075   1.169  35.354   6.450
 7607POPC   D2A42076   1.181  35.350   6.750
 7607POPC   C3A42077   1.261  35.375   7.050
 7607POPC   C4A42078   1.235  35.390   7.350
 7607POPC   C1B42079   1.185  35.149   6.450
 7607POPC   C2B42080   1.206  35.074   6.750
 7607POPC   C3B42081   1.264  35.055   7.050
 7607POPC   C4B42082   1.216  35.111   7.350
 7608POPC   NC342083   1.209  10.522   5.550
 7608POPC   PO442084   1.175  10.544   5.850
 7608POPC   GL142085   1.178  10.501   6.150
 7608POPC   GL242086   1.285  10.654   6.150
 7608POPC   C1A42087   1.177  10.492   6.450
 7608POPC   D2A42088   1.207  10.498   6.750
 7608POPC   C3A42089   1.235  10.538   7.050
 7608POPC   C4A42090   1.242  10.539   7.350
 7608POPC   C1B42091   1.365  10.732   6.450
 7608POPC   C2B42092   1.437  10.738   6.750
 7608POPC   C3B42093   1.421  10.658   7.050
 7608POPC   C4B42094   1.388  10.690   7.350
 7609POPC   NC342095  42.354  27.628   5.550
 7609POPC   PO442096  42.304  27.605   5.850
 7609POPC   GL142097  42.322  27.641   6.150
 7609POPC   GL242098  42.424  27.676   6.150
 7609POPC   C1A42099  42.312  27.544   6.450
 7609POPC   D2A42100  42.317  27.556   6.750
 7609POPC   C3A42101  42.349  27.602   7.050
 7609POPC   C4A42102  42.291  27.629   7.350
 7609POPC   C1B42103  42.522  27.747   6.450
 7609POPC   C2B42104  42.578  27.723   6.750
 7609POPC   C3B42105  42.506  27.698   7.050
 7609POPC   C4B42106  42.556  27.757   7.350
 7610POPC   NC342107  28.326  37.704   5.550
 7610POPC   PO442108  28.378  37.683   5.850
 7610POPC   GL142109  28.417  37.661   6.150
 7610POPC   GL242110  28.235  37.593   6.150
 7610POPC   C1A42111  28.341  37.671   6.450
 7610POPC   D2A42112  28.418  37.640   6.750
 7610POPC   C3A42113  28.350  37.706   7.050
 7610POPC   C4A42114  28.383  37.657   7.350
 7610POPC   C1B42115  28.142  37.512   6.450
 7610POPC   C2B42116  28.171  37.527   6.750
 7610POPC   C3B42117  28.137  37.531   7.050
 7610POPC   C4B42118  28.200  37.505   7.350
 7611POPC   NC342119  40.740  33.768   5.550
 7611POPC   PO442120  40.765  33.797   5.850
 7611POPC   GL142121  40.802  33.784   6.150
 7611POPC   GL242122  40.705  33.748   6.150
 7611POPC   C1A42123  40.830  33.784   6.450
 7611POPC   D2A42124  40.831  33.834   6.750
 7611POPC   C3A42125  40.751  33.835   7.050
 7611POPC   C4A42126  40.785  33.754   7.350
 7611POPC   C1B42127  40.530  33.687   6.450
 7611POPC   C2B42128  40.600  33.691   6.750
 7611POPC   C3B42129  40.594  33.645   7.050
 7611POPC   C4B42130  40.541  33.687   7.350
 7612POPC   NC342131  37.696  41.593   5.550
 7612POPC   PO442132  37.706  41.553   5.850
 7612POPC   GL142133  37.635  41.574   6.150
 7612POPC   GL242134  37.845  41.530   6.150
 7612POPC   C1A42135  37.706  41.531   6.450
 7612POPC   D2A42136  37.657  41.604   6.750
 7612POPC   C3A42137  37.633  41.535   7.050
 7612POPC   C4A42138  37.641  41.521   7.350
 7612POPC   C1B42139  37.876  41.501   6.450
 7612POPC   C2B42140  37.957  41.519   6.750
 7612POPC   C3B42141  37.899  41.545   7.050
 7612POPC   C4B42142  37.906  41.533   7.350
 7613POPC   NC342143   2.036  29.110   5.550
 7613POPC   PO442144   2.020  29.112   5.850
 7613POPC   GL142145   2.012  29.121   6.150
 7613POPC   GL242146   2.019  29.227   6.150
 7613POPC   C1A42147   1.991  29.120   6.450
 7613POPC   D2A42148   2.003  29.172   6.750
 7613POPC   C3A42149   1.998  29.144   7.050
 7613POPC   C4A42150   1.999  29.102   7.350
 7613POPC   C1B42151   2.051  29.439   6.450
 7613POPC   C2B42152   2.003  29.399   6.750
 7613POPC   C3B42153   2.045  29.366   7.050
 7613POPC   C4B42154   2.042  29.383   7.350
 7614POPC   NC342155  36.177  40.812   5.550
 7614POPC   PO442156  36.090  40.752   5.850
 7614POPC   GL142157  36.157  40.813   6.150
 7614POPC   GL242158  36.043  40.726   6.150
 7614POPC   C1A42159  36.153  40.733   6.450
 7614POPC   D2A42160  36.160  40.809   6.750
 7614POPC   C3A42161  36.092  40.781   7.050
 7614POPC   C4A42162  36.122  40.820   7.350
 7614POPC   C1B42163  35.908  40.721   6.450
 7614POPC   C2B42164  35.848  40.771   6.750
 7614POPC   C3B42165  35.918  40.757   7.050
 7614POPC   C4B42166  35.903  40.717   7.350
 7615POPC   NC342167   0.402  28.346   5.550
 7615POPC   PO442168   0.472  28.353   5.850
 7615POPC   GL142169   0.467  28.401   6.150
 7615POPC   GL242170   0.561  28.288   6.150
 7615POPC   C1A42171   0.398  28.331   6.450
 7615POPC   D2A42172   0.396  28.324   6.750
 7615POPC   C3A42173   0.484  28.349   7.050
 7615POPC   C4A42174   0.466  28.320   7.350
 7615POPC   C1B42175   0.688  28.193   6.450
 7615POPC   C2B42176   0.625  28.227   6.750
 7615POPC   C3B42177   0.686  28.253   7.050
 7615POPC   C4B42178   0.655  28.264   7.350
 7616POPC   NC342179  38.482  14.375   5.550
 7616POPC   PO442180  38.483  14.401   5.850
 7616POPC   GL142181  38.413  14.357   6.150
 7616POPC   GL242182  38.589  14.401   6.150
 7616POPC   C1A42183  38.449  14.396   6.450
 7616POPC   D2A42184  38.463  14.376   6.750
 7616POPC   C3A42185  38.438  14.391   7.050
 7616POPC   C4A42186  38.495  14.384   7.350
 7616POPC   C1B42187  38.704  14.446   6.450
 7616POPC   C2B42188  38.713  14.458   6.750
 7616POPC   C3B42189  38.677  14.451   7.050
 7616POPC   C4B42190  38.652  14.503   7.350
 7617POPC   NC342191  19.010  43.883   5.550
 7617POPC   PO442192  19.078  43.847   5.850
 7617POPC   GL142193  19.039  43.915   6.150
 7617POPC   GL242194  19.096  43.739   6.150
 7617POPC   C1A42195  19.015  43.863   6.450
 7617POPC   D2A42196  19.047  43.846   6.750
 7617POPC   C3A42197  19.010  43.855   7.050
 7617POPC   C4A42198  19.082  43.894   7.350
 7617POPC   C1B42199  19.184  43.724   6.450
 7617POPC   C2B42200  19.192  43.730   6.750
 7617POPC   C3B42201  19.183  43.645   7.050
 7617POPC   C4B42202  19.248  43.704   7.350
 7618POPC   NC342203   7.444  43.872   5.550
 7618POPC   PO442204   7.383  43.894   5.850
 7618POPC   GL142205   7.395  43.848   6.150
 7618POPC   GL242206   7.513  43.945   6.150
 7618POPC   C1A42207   7.440  43.886   6.450
 7618POPC   D2A42208   7.391  43.922   6.750
 7618POPC   C3A42209   7.393  43.924   7.050
 7618POPC   C4A42210   7.463  43.841   7.350
 7618POPC   C1B42211   7.666  44.010   6.450
 7618POPC   C2B42212   7.621  43.992   6.750
 7618POPC   C3B42213   7.627  43.979   7.050
 7618POPC   C4B42214   7.612  43.994   7.350
 7619POPC   NC342215  34.610   9.730   5.550
 7619POPC   PO442216  34.624   9.798   5.850
 7619POPC   GL142217  34.612   9.783   6.150
 7619POPC   GL242218  34.514   9.617   6.150
 7619POPC   C1A42219  34.533   9.744   6.450
 7619POPC   D2A42220  34.602   9.751   6.750
 7619POPC   C3A42221  34.540   9.705   7.050
 7619POPC   C4A42222  34.616   9.758   7.350
 7619POPC   C1B42223  34.477   9.575   6.450
 7619POPC   C2B42224  34.511   9.572   6.750
 7619POPC   C3B42225  34.456   9.563   7.050
 7619POPC   C4B42226  34.465   9.487   7.350
 7620POPC   NC342227  29.910  43.875   5.550
 7620POPC   PO442228  29.941  43.893   5.850
 7620POPC   GL142229  29.948  43.864   6.150
 7620POPC   GL242230  29.837  43.777   6.150
 7620POPC   C1A42231  29.914  43.871   6.450
 7620POPC   D2A42232  29.954  43.855   6.750
 7620POPC   C3A42233  29.952  43.890   7.050
 7620POPC   C4A42234  29.962  43.845   7.350
 7620POPC   C1B42235  29.829  43.663   6.450
 7620POPC   C2B42236  29.849  43.627   6.750
 7620POPC   C3B42237  29.804  43.647   7.050
 7620POPC   C4B42238  29.864  43.639   7.350
 7621POPC   NC342239  22.178   0.421   5.550
 7621POPC   PO442240  22.195   0.456   5.850
 7621POPC   GL142241  22.131   0.461   6.150
 7621POPC   GL242242  22.088   0.296   6.150
 7621POPC   C1A42243  22.155   0.399   6.450
 7621POPC   D2A42244  22.135   0.475   6.750
 7621POPC   C3A42245  22.182   0.451   7.050
 7621POPC   C4A42246  22.169   0.449   7.350
 7621POPC   C1B42247  22.041   0.195   6.450
 7621POPC   C2B42248  22.098   0.195   6.750
 7621POPC   C3B42249  22.103   0.183   7.050
 7621POPC   C4B42250  22.037   0.249   7.350
 7622POPC   NC342251  39.250  28.391   5.550
 7622POPC   PO442252  39.221  28.339   5.850
 7622POPC   GL142253  39.185  28.371   6.150
 7622POPC   GL242254  39.340  28.337   6.150
 7622POPC   C1A42255  39.197  28.336   6.450
 7622POPC   D2A42256  39.205  28.365   6.750
 7622POPC   C3A42257  39.208  28.354   7.050
 7622POPC   C4A42258  39.242  28.373   7.350
 7622POPC   C1B42259  39.402  28.254   6.450
 7622POPC   C2B42260  39.456  28.224   6.750
 7622POPC   C3B42261  39.402  28.208   7.050
 7622POPC   C4B42262  39.402  28.262   7.350
 7623POPC   NC342263   7.400  14.419   5.550
 7623POPC   PO442264   7.374  14.370   5.850
 7623POPC   GL142265   7.420  14.367   6.150
 7623POPC   GL242266   7.465  14.291   6.150
 7623POPC   C1A42267   7.418  14.447   6.450
 7623POPC   D2A42268   7.391  14.365   6.750
 7623POPC   C3A42269   7.382  14.354   7.050
 7623POPC   C4A42270   7.458  14.374   7.350
 7623POPC   C1B42271   7.556  14.181   6.450
 7623POPC   C2B42272   7.535  14.195   6.750
 7623POPC   C3B42273   7.485  14.178   7.050
 7623POPC   C4B42274   7.525  14.185   7.350
 7624POPC   NC342275  27.565   7.417   5.550
 7624POPC   PO442276  27.545   7.462   5.850
 7624POPC   GL142277  27.600   7.440   6.150
 7624POPC   GL242278  27.525   7.501   6.150
 7624POPC   C1A42279  27.610   7.407   6.450
 7624POPC   D2A42280  27.618   7.438   6.750
 7624POPC   C3A42281  27.618   7.383   7.050
 7624POPC   C4A42282  27.562   7.412   7.350
 7624POPC   C1B42283  27.400   7.572   6.450
 7624POPC   C2B42284  27.363   7.541   6.750
 7624POPC   C3B42285  27.390   7.575   7.050
 7624POPC   C4B42286  27.414   7.522   7.350
 7625POPC   NC342287  21.405  36.083   5.550
 7625POPC   PO442288  21.402  36.154   5.850
 7625POPC   GL142289  21.357  36.104   6.150
 7625POPC   GL242290  21.224  36.139   6.150
 7625POPC   C1A42291  21.392  36.151   6.450
 7625POPC   D2A42292  21.370  36.171   6.750
 7625POPC   C3A42293  21.386  36.111   7.050
 7625POPC   C4A42294  21.389  36.126   7.350
 7625POPC   C1B42295  21.120  36.156   6.450
 7625POPC   C2B42296  21.125  36.091   6.750
 7625POPC   C3B42297  21.093  36.108   7.050
 7625POPC   C4B42298  21.145  36.092   7.350
 7626POPC   NC342299  29.123  19.864   5.550
 7626POPC   PO442300  29.142  19.789   5.850
 7626POPC   GL142301  29.126  19.798   6.150
 7626POPC   GL242302  29.250  19.682   6.150
 7626POPC   C1A42303  29.179  19.819   6.450
 7626POPC   D2A42304  29.161  19.822   6.750
 7626POPC   C3A42305  29.184  19.811   7.050
 7626POPC   C4A42306  29.159  19.871   7.350
 7626POPC   C1B42307  29.316  19.638   6.450
 7626POPC   C2B42308  29.319  19.579   6.750
 7626POPC   C3B42309  29.304  19.587   7.050
 7626POPC   C4B42310  29.321  19.654   7.350
 7627POPC   NC342311  36.859  33.064   5.550
 7627POPC   PO442312  36.936  33.015   5.850
 7627POPC   GL142313  36.880  32.999   6.150
 7627POPC   GL242314  36.949  32.948   6.150
 7627POPC   C1A42315  36.940  33.072   6.450
 7627POPC   D2A42316  36.944  33.011   6.750
 7627POPC   C3A42317  36.924  32.977   7.050
 7627POPC   C4A42318  36.924  33.063   7.350
 7627POPC   C1B42319  36.856  32.790   6.450
 7627POPC   C2B42320  36.908  32.776   6.750
 7627POPC   C3B42321  36.876  32.802   7.050
 7627POPC   C4B42322  36.886  32.741   7.350
 7628POPC   NC342323  15.158  33.808   5.550
 7628POPC   PO442324  15.187  33.782   5.850
 7628POPC   GL142325  15.199  33.819   6.150
 7628POPC   GL242326  15.298  33.803   6.150
 7628POPC   C1A42327  15.161  33.802   6.450
 7628POPC   D2A42328  15.137  33.767   6.750
 7628POPC   C3A42329  15.147  33.773   7.050
 7628POPC   C4A42330  15.180  33.834   7.350
 7628POPC   C1B42331  15.436  33.838   6.450
 7628POPC   C2B42332  15.395  33.866   6.750
 7628POPC   C3B42333  15.416  33.865   7.050
 7628POPC   C4B42334  15.389  33.871   7.350
 7629POPC   NC342335   4.362  41.563   5.550
 7629POPC   PO442336   4.310  41.542   5.850
 7629POPC   GL142337   4.341  41.543   6.150
 7629POPC   GL242338   4.405  41.638   6.150
 7629POPC   C1A42339   4.340  41.557   6.450
 7629POPC   D2A42340   4.348  41.545   6.750
 7629POPC   C3A42341   4.295  41.517   7.050
 7629POPC   C4A42342   4.280  41.565   7.350
 7629POPC   C1B42343   4.443  41.703   6.450
 7629POPC   C2B42344   4.484  41.748   6.750
 7629POPC   C3B42345   4.461  41.797   7.050
 7629POPC   C4B42346   4.501  41.735   7.350
 7630POPC   NC342347  43.148  29.103   5.550
 7630POPC   PO442348  43.158  29.158   5.850
 7630POPC   GL142349  43.125  29.111   6.150
 7630POPC   GL242350  43.132  29.228   6.150
 7630POPC   C1A42351  43.076  29.127   6.450
 7630POPC   D2A42352  43.155  29.146   6.750
 7630POPC   C3A42353  43.124  29.127   7.050
 7630POPC   C4A42354  43.146  29.120   7.350
 7630POPC   C1B42355  43.095  29.369   6.450
 7630POPC   C2B42356  43.079  29.382   6.750
 7630POPC   C3B42357  43.051  29.404   7.050
 7630POPC   C4B42358  43.054  29.400   7.350
 7631POPC   NC342359   4.355   8.196   5.550
 7631POPC   PO442360   4.287   8.236   5.850
 7631POPC   GL142361   4.276   8.163   6.150
 7631POPC   GL242362   4.254   8.296   6.150
 7631POPC   C1A42363   4.294   8.166   6.450
 7631POPC   D2A42364   4.272   8.148   6.750
 7631POPC   C3A42365   4.274   8.244   7.050
 7631POPC   C4A42366   4.358   8.232   7.350
 7631POPC   C1B42367   4.163   8.428   6.450
 7631POPC   C2B42368   4.125   8.381   6.750
 7631POPC   C3B42369   4.159   8.415   7.050
 7631POPC   C4B42370   4.141   8.404   7.350
 7632POPC   NC342371  38.439  17.490   5.550
 7632POPC   PO442372  38.423  17.520   5.850
 7632POPC   GL142373  38.412  17.497   6.150
 7632POPC   GL242374  38.524  17.439   6.150
 7632POPC   C1A42375  38.433  17.481   6.450
 7632POPC   D2A42376  38.495  17.507   6.750
 7632POPC   C3A42377  38.468  17.520   7.050
 7632POPC   C4A42378  38.451  17.465   7.350
 7632POPC   C1B42379  38.574  17.283   6.450
 7632POPC   C2B42380  38.566  17.262   6.750
 7632POPC   C3B42381  38.591  17.265   7.050
 7632POPC   C4B42382  38.502  17.259   7.350
 7633POPC   NC342383  39.984  33.070   5.550
 7633POPC   PO442384  40.008  33.043   5.850
 7633POPC   GL142385  39.972  32.978   6.150
 7633POPC   GL242386  40.146  33.123   6.150
 7633POPC   C1A42387  39.983  32.999   6.450
 7633POPC   D2A42388  39.969  33.021   6.750
 7633POPC   C3A42389  39.965  33.047   7.050
 7633POPC   C4A42390  40.024  33.029   7.350
 7633POPC   C1B42391  40.161  33.222   6.450
 7633POPC   C2B42392  40.176  33.236   6.750
 7633POPC   C3B42393  40.174  33.182   7.050
 7633POPC   C4B42394  40.201  33.201   7.350
 7634POPC   NC342395   3.541   0.408   5.550
 7634POPC   PO442396   3.573   0.471   5.850
 7634POPC   GL142397   3.576   0.442   6.150
 7634POPC   GL242398   3.426   0.469   6.150
 7634POPC   C1A42399   3.493   0.433   6.450
 7634POPC   D2A42400   3.569   0.425   6.750
 7634POPC   C3A42401   3.526   0.427   7.050
 7634POPC   C4A42402   3.568   0.390   7.350
 7634POPC   C1B42403   3.298   0.410   6.450
 7634POPC   C2B42404   3.300   0.373   6.750
 7634POPC   C3B42405   3.279   0.435   7.050
 7634POPC   C4B42406   3.288   0.446   7.350
 7635POPC   NC342407  30.706  32.983   5.550
 7635POPC   PO442408  30.741  33.049   5.850
 7635POPC   GL142409  30.686  33.006   6.150
 7635POPC   GL242410  30.605  32.953   6.150
 7635POPC   C1A42411  30.692  33.021   6.450
 7635POPC   D2A42412  30.741  33.009   6.750
 7635POPC   C3A42413  30.745  32.977   7.050
 7635POPC   C4A42414  30.734  33.065   7.350
 7635POPC   C1B42415  30.506  32.946   6.450
 7635POPC   C2B42416  30.497  32.903   6.750
 7635POPC   C3B42417  30.456  32.936   7.050
 7635POPC   C4B42418  30.466  32.951   7.350
 7636POPC   NC342419  36.098  25.261   5.550
 7636POPC   PO442420  36.142  25.242   5.850
 7636POPC   GL142421  36.145  25.241   6.150
 7636POPC   GL242422  36.011  25.264   6.150
 7636POPC   C1A42423  36.129  25.266   6.450
 7636POPC   D2A42424  36.087  25.230   6.750
 7636POPC   C3A42425  36.162  25.281   7.050
 7636POPC   C4A42426  36.082  25.307   7.350
 7636POPC   C1B42427  35.919  25.251   6.450
 7636POPC   C2B42428  35.899  25.163   6.750
 7636POPC   C3B42429  35.854  25.155   7.050
 7636POPC   C4B42430  35.837  25.242   7.350
 7637POPC   NC342431  30.702   4.328   5.550
 7637POPC   PO442432  30.735   4.309   5.850
 7637POPC   GL142433  30.688   4.343   6.150
 7637POPC   GL242434  30.644   4.234   6.150
 7637POPC   C1A42435  30.687   4.276   6.450
 7637POPC   D2A42436  30.682   4.351   6.750
 7637POPC   C3A42437  30.737   4.331   7.050
 7637POPC   C4A42438  30.697   4.350   7.350
 7637POPC   C1B42439  30.614   4.049   6.450
 7637POPC   C2B42440  30.666   4.041   6.750
 7637POPC   C3B42441  30.628   4.082   7.050
 7637POPC   C4B42442  30.687   4.071   7.350
 7638POPC   NC342443  23.757  36.856   5.550
 7638POPC   PO442444  23.689  36.878   5.850
 7638POPC   GL142445  23.723  36.865   6.150
 7638POPC   GL242446  23.680  36.999   6.150
 7638POPC   C1A42447  23.682  36.908   6.450
 7638POPC   D2A42448  23.666  36.922   6.750
 7638POPC   C3A42449  23.749  36.895   7.050
 7638POPC   C4A42450  23.674  36.941   7.350
 7638POPC   C1B42451  23.663  37.171   6.450
 7638POPC   C2B42452  23.610  37.095   6.750
 7638POPC   C3B42453  23.651  37.160   7.050
 7638POPC   C4B42454  23.668  37.180   7.350
 7639POPC   NC342455  36.895   0.391   5.550
 7639POPC   PO442456  36.856   0.389   5.850
 7639POPC   GL142457  36.885   0.435   6.150
 7639POPC   GL242458  36.830   0.377   6.150
 7639POPC   C1A42459  36.858   0.390   6.450
 7639POPC   D2A42460  36.898   0.419   6.750
 7639POPC   C3A42461  36.952   0.480   7.050
 7639POPC   C4A42462  36.881   0.396   7.350
 7639POPC   C1B42463  36.679   0.242   6.450
 7639POPC   C2B42464  36.716   0.211   6.750
 7639POPC   C3B42465  36.755   0.295   7.050
 7639POPC   C4B42466  36.745   0.301   7.350
 7640POPC   NC342467  40.755   6.640   5.550
 7640POPC   PO442468  40.738   6.601   5.850
 7640POPC   GL142469  40.747   6.642   6.150
 7640POPC   GL242470  40.707   6.505   6.150
 7640POPC   C1A42471  40.823   6.646   6.450
 7640POPC   D2A42472  40.801   6.694   6.750
 7640POPC   C3A42473  40.746   6.668   7.050
 7640POPC   C4A42474  40.763   6.617   7.350
 7640POPC   C1B42475  40.701   6.445   6.450
 7640POPC   C2B42476  40.623   6.439   6.750
 7640POPC   C3B42477  40.678   6.442   7.050
 7640POPC   C4B42478  40.621   6.427   7.350
 7641POPC   NC342479  31.426  23.707   5.550
 7641POPC   PO442480  31.510  23.677   5.850
 7641POPC   GL142481  31.503  23.673   6.150
 7641POPC   GL242482  31.514  23.620   6.150
 7641POPC   C1A42483  31.477  23.716   6.450
 7641POPC   D2A42484  31.447  23.748   6.750
 7641POPC   C3A42485  31.492  23.702   7.050
 7641POPC   C4A42486  31.495  23.744   7.350
 7641POPC   C1B42487  31.629  23.450   6.450
 7641POPC   C2B42488  31.628  23.473   6.750
 7641POPC   C3B42489  31.624  23.446   7.050
 7641POPC   C4B42490  31.632  23.493   7.350
 7642POPC   NC342491  41.608  15.976   5.550
 7642POPC   PO442492  41.513  15.925   5.850
 7642POPC   GL142493  41.564  15.967   6.150
 7642POPC   GL242494  41.448  15.890   6.150
 7642POPC   C1A42495  41.598  15.980   6.450
 7642POPC   D2A42496  41.536  15.911   6.750
 7642POPC   C3A42497  41.567  16.005   7.050
 7642POPC   C4A42498  41.558  15.921   7.350
 7642POPC   C1B42499  41.396  15.767   6.450
 7642POPC   C2B42500  41.348  15.808   6.750
 7642POPC   C3B42501  41.351  15.815   7.050
 7642POPC   C4B42502  41.377  15.814   7.350
 7643POPC   NC342503  32.271  33.755   5.550
 7643POPC   PO442504  32.288  33.815   5.850
 7643POPC   GL142505  32.222  33.832   6.150
 7643POPC   GL242506  32.192  33.707   6.150
 7643POPC   C1A42507  32.219  33.849   6.450
 7643POPC   D2A42508  32.252  33.847   6.750
 7643POPC   C3A42509  32.210  33.812   7.050
 7643POPC   C4A42510  32.240  33.812   7.350
 7643POPC   C1B42511  32.150  33.623   6.450
 7643POPC   C2B42512  32.168  33.567   6.750
 7643POPC   C3B42513  32.093  33.565   7.050
 7643POPC   C4B42514  32.096  33.561   7.350
 7644POPC   NC342515   0.395  12.039   5.550
 7644POPC   PO442516   0.481  12.103   5.850
 7644POPC   GL142517   0.465  12.040   6.150
 7644POPC   GL242518   0.370  11.914   6.150
 7644POPC   C1A42519   0.485  12.084   6.450
 7644POPC   D2A42520   0.486  12.101   6.750
 7644POPC   C3A42521   0.403  12.089   7.050
 7644POPC   C4A42522   0.463  12.083   7.350
 7644POPC   C1B42523   0.296  11.876   6.450
 7644POPC   C2B42524   0.368  11.866   6.750
 7644POPC   C3B42525   0.327  11.878   7.050
 7644POPC   C4B42526   0.303  11.897   7.350
 7645POPC   NC342527  43.097  41.533   5.550
 7645POPC   PO442528  43.085  41.532   5.850
 7645POPC   GL142529  43.132  41.581   6.150
 7645POPC   GL242530  43.032  41.541   6.150
 7645POPC   C1A42531  43.139  41.512   6.450
 7645POPC   D2A42532  43.111  41.531   6.750
 7645POPC   C3A42533  43.082  41.566   7.050
 7645POPC   C4A42534  43.087  41.599   7.350
 7645POPC   C1B42535  42.883  41.539   6.450
 7645POPC   C2B42536  42.868  41.519   6.750
 7645POPC   C3B42537  42.904  41.528   7.050
 7645POPC   C4B42538  42.869  41.492   7.350
 7646POPC   NC342539  27.631  15.215   5.550
 7646POPC   PO442540  27.570  15.158   5.850
 7646POPC   GL142541  27.565  15.187   6.150
 7646POPC   GL242542  27.708  15.188   6.150
 7646POPC   C1A42543  27.618  15.197   6.450
 7646POPC   D2A42544  27.605  15.181   6.750
 7646POPC   C3A42545  27.585  15.229   7.050
 7646POPC   C4A42546  27.594  15.196   7.350
 7646POPC   C1B42547  27.885  15.256   6.450
 7646POPC   C2B42548  27.849  15.184   6.750
 7646POPC   C3B42549  27.862  15.202   7.050
 7646POPC   C4B42550  27.797  15.278   7.350
 7647POPC   NC342551  33.055  10.559   5.550
 7647POPC   PO442552  33.033  10.552   5.850
 7647POPC   GL142553  32.977  10.560   6.150
 7647POPC   GL242554  33.097  10.533   6.150
 7647POPC   C1A42555  33.049  10.547   6.450
 7647POPC   D2A42556  33.073  10.477   6.750
 7647POPC   C3A42557  33.012  10.540   7.050
 7647POPC   C4A42558  33.074  10.536   7.350
 7647POPC   C1B42559  33.291  10.593   6.450
 7647POPC   C2B42560  33.274  10.621   6.750
 7647POPC   C3B42561  33.258  10.598   7.050
 7647POPC   C4B42562  33.229  10.623   7.350
 7648POPC   NC342563   5.087  39.278   5.550
 7648POPC   PO442564   5.052  39.210   5.850
 7648POPC   GL142565   5.102  39.276   6.150
 7648POPC   GL242566   5.113  39.372   6.150
 7648POPC   C1A42567   5.104  39.217   6.450
 7648POPC   D2A42568   5.128  39.236   6.750
 7648POPC   C3A42569   5.118  39.248   7.050
 7648POPC   C4A42570   5.095  39.226   7.350
 7648POPC   C1B42571   5.131  39.434   6.450
 7648POPC   C2B42572   5.108  39.495   6.750
 7648POPC   C3B42573   5.097  39.461   7.050
 7648POPC   C4B42574   5.138  39.434   7.350
 7649POPC   NC342575   4.298  17.531   5.550
 7649POPC   PO442576   4.356  17.555   5.850
 7649POPC   GL142577   4.300  17.534   6.150
 7649POPC   GL242578   4.344  17.676   6.150
 7649POPC   C1A42579   4.336  17.462   6.450
 7649POPC   D2A42580   4.341  17.507   6.750
 7649POPC   C3A42581   4.312  17.467   7.050
 7649POPC   C4A42582   4.274  17.554   7.350
 7649POPC   C1B42583   4.386  17.747   6.450
 7649POPC   C2B42584   4.421  17.768   6.750
 7649POPC   C3B42585   4.404  17.744   7.050
 7649POPC   C4B42586   4.393  17.701   7.350
 7650POPC   NC342587  29.954  43.087   5.550
 7650POPC   PO442588  29.928  43.149   5.850
 7650POPC   GL142589  29.916  43.088   6.150
 7650POPC   GL242590  29.902  43.018   6.150
 7650POPC   C1A42591  29.884  43.108   6.450
 7650POPC   D2A42592  29.949  43.062   6.750
 7650POPC   C3A42593  29.969  43.105   7.050
 7650POPC   C4A42594  29.901  43.137   7.350
 7650POPC   C1B42595  29.859  42.860   6.450
 7650POPC   C2B42596  29.885  42.826   6.750
 7650POPC   C3B42597  29.918  42.861   7.050
 7650POPC   C4B42598  29.904  42.909   7.350
 7651POPC   NC342599  11.317  11.349   5.550
 7651POPC   PO442600  11.318  11.343   5.850
 7651POPC   GL142601  11.265  11.322   6.150
 7651POPC   GL242602  11.270  11.187   6.150
 7651POPC   C1A42603  11.304  11.327   6.450
 7651POPC   D2A42604  11.310  11.292   6.750
 7651POPC   C3A42605  11.304  11.347   7.050
 7651POPC   C4A42606  11.280  11.325   7.350
 7651POPC   C1B42607  11.159  11.092   6.450
 7651POPC   C2B42608  11.227  11.096   6.750
 7651POPC   C3B42609  11.162  11.094   7.050
 7651POPC   C4B42610  11.206  11.111   7.350
 7652POPC   NC342611  21.354  21.372   5.550
 7652POPC   PO442612  21.380  21.369   5.850
 7652POPC   GL142613  21.414  21.349   6.150
 7652POPC   GL242614  21.402  21.495   6.150
 7652POPC   C1A42615  21.388  21.378   6.450
 7652POPC   D2A42616  21.381  21.352   6.750
 7652POPC   C3A42617  21.409  21.428   7.050
 7652POPC   C4A42618  21.432  21.401   7.350
 7652POPC   C1B42619  21.386  21.642   6.450
 7652POPC   C2B42620  21.451  21.604   6.750
 7652POPC   C3B42621  21.454  21.592   7.050
 7652POPC   C4B42622  21.435  21.619   7.350
 7653POPC   NC342623  40.780  30.704   5.550
 7653POPC   PO442624  40.810  30.702   5.850
 7653POPC   GL142625  40.776  30.743   6.150
 7653POPC   GL242626  40.830  30.629   6.150
 7653POPC   C1A42627  40.817  30.656   6.450
 7653POPC   D2A42628  40.780  30.650   6.750
 7653POPC   C3A42629  40.793  30.665   7.050
 7653POPC   C4A42630  40.805  30.677   7.350
 7653POPC   C1B42631  40.919  30.562   6.450
 7653POPC   C2B42632  40.994  30.534   6.750
 7653POPC   C3B42633  41.000  30.522   7.050
 7653POPC   C4B42634  40.957  30.502   7.350
 7654POPC   NC342635  35.389   5.891   5.550
 7654POPC   PO442636  35.351   5.856   5.850
 7654POPC   GL142637  35.326   5.874   6.150
 7654POPC   GL242638  35.263   5.749   6.150
 7654POPC   C1A42639  35.348   5.882   6.450
 7654POPC   D2A42640  35.335   5.895   6.750
 7654POPC   C3A42641  35.334   5.858   7.050
 7654POPC   C4A42642  35.306   5.831   7.350
 7654POPC   C1B42643  35.220   5.679   6.450
 7654POPC   C2B42644  35.271   5.616   6.750
 7654POPC   C3B42645  35.254   5.654   7.050
 7654POPC   C4B42646  35.250   5.687   7.350
 7655POPC   NC342647  29.881  14.402   5.550
 7655POPC   PO442648  29.943  14.392   5.850
 7655POPC   GL142649  29.950  14.383   6.150
 7655POPC   GL242650  30.094  14.381   6.150
 7655POPC   C1A42651  29.949  14.444   6.450
 7655POPC   D2A42652  29.904  14.401   6.750
 7655POPC   C3A42653  29.910  14.425   7.050
 7655POPC   C4A42654  29.950  14.368   7.350
 7655POPC   C1B42655  30.194  14.452   6.450
 7655POPC   C2B42656  30.169  14.407   6.750
 7655POPC   C3B42657  30.193  14.368   7.050
 7655POPC   C4B42658  30.156  14.396   7.350
 7656POPC   NC342659  41.536   2.808   5.550
 7656POPC   PO442660  41.545   2.812   5.850
 7656POPC   GL142661  41.569   2.799   6.150
 7656POPC   GL242662  41.594   2.920   6.150
 7656POPC   C1A42663  41.547   2.778   6.450
 7656POPC   D2A42664  41.608   2.760   6.750
 7656POPC   C3A42665  41.542   2.765   7.050
 7656POPC   C4A42666  41.568   2.738   7.350
 7656POPC   C1B42667  41.678   2.975   6.450
 7656POPC   C2B42668  41.685   2.955   6.750
 7656POPC   C3B42669  41.645   3.019   7.050
 7656POPC   C4B42670  41.680   2.972   7.350
 7657POPC   NC342671  27.609  40.027   5.550
 7657POPC   PO442672  27.588  39.993   5.850
 7657POPC   GL142673  27.551  40.033   6.150
 7657POPC   GL242674  27.641  40.097   6.150
 7657POPC   C1A42675  27.622  40.048   6.450
 7657POPC   D2A42676  27.604  39.983   6.750
 7657POPC   C3A42677  27.578  40.017   7.050
 7657POPC   C4A42678  27.623  39.961   7.350
 7657POPC   C1B42679  27.641  40.247   6.450
 7657POPC   C2B42680  27.690  40.265   6.750
 7657POPC   C3B42681  27.611  40.281   7.050
 7657POPC   C4B42682  27.634  40.221   7.350
 7658POPC   NC342683  29.959  25.996   5.550
 7658POPC   PO442684  29.885  26.043   5.850
 7658POPC   GL142685  29.896  26.036   6.150
 7658POPC   GL242686  29.985  26.145   6.150
 7658POPC   C1A42687  29.892  26.003   6.450
 7658POPC   D2A42688  29.921  26.072   6.750
 7658POPC   C3A42689  29.932  26.006   7.050
 7658POPC   C4A42690  29.953  26.041   7.350
 7658POPC   C1B42691  30.047  26.188   6.450
 7658POPC   C2B42692  30.124  26.260   6.750
 7658POPC   C3B42693  30.124  26.261   7.050
 7658POPC   C4B42694  30.121  26.241   7.350
 7659POPC   NC342695  12.092   2.729   5.550
 7659POPC   PO442696  12.085   2.778   5.850
 7659POPC   GL142697  12.056   2.806   6.150
 7659POPC   GL242698  12.036   2.834   6.150
 7659POPC   C1A42699  12.100   2.782   6.450
 7659POPC   D2A42700  12.070   2.757   6.750
 7659POPC   C3A42701  12.123   2.789   7.050
 7659POPC   C4A42702  12.042   2.729   7.350
 7659POPC   C1B42703  11.935   2.965   6.450
 7659POPC   C2B42704  11.876   2.942   6.750
 7659POPC   C3B42705  11.857   2.981   7.050
 7659POPC   C4B42706  11.854   2.974   7.350
 7660POPC   NC342707   0.470  19.840   5.550
 7660POPC   PO442708   0.408  19.853   5.850
 7660POPC   GL142709   0.392  19.827   6.150
 7660POPC   GL242710   0.297  19.948   6.150
 7660POPC   C1A42711   0.401  19.796   6.450
 7660POPC   D2A42712   0.433  19.799   6.750
 7660POPC   C3A42713   0.457  19.833   7.050
 7660POPC   C4A42714   0.410  19.791   7.350
 7660POPC   C1B42715   0.246  19.987   6.450
 7660POPC   C2B42716   0.184  19.961   6.750
 7660POPC   C3B42717   0.193  20.013   7.050
 7660POPC   C4B42718   0.204  19.940   7.350
 7661POPC   NC342719  23.740   7.467   5.550
 7661POPC   PO442720  23.675   7.464   5.850
 7661POPC   GL142721  23.720   7.470   6.150
 7661POPC   GL242722  23.777   7.477   6.150
 7661POPC   C1A42723  23.757   7.373   6.450
 7661POPC   D2A42724  23.717   7.462   6.750
 7661POPC   C3A42725  23.695   7.434   7.050
 7661POPC   C4A42726  23.756   7.396   7.350
 7661POPC   C1B42727  23.920   7.518   6.450
 7661POPC   C2B42728  23.969   7.507   6.750
 7661POPC   C3B42729  23.922   7.546   7.050
 7661POPC   C4B42730  23.949   7.492   7.350
 7662POPC   NC342731  44.635   3.523   5.550
 7662POPC   PO442732  44.640   3.539   5.850
 7662POPC   GL142733  44.708   3.518   6.150
 7662POPC   GL242734  44.705   3.683   6.150
 7662POPC   C1A42735  44.694   3.518   6.450
 7662POPC   D2A42736  44.699   3.574   6.750
 7662POPC   C3A42737  44.630   3.586   7.050
 7662POPC   C4A42738  44.661   3.562   7.350
 7662POPC   C1B42739  44.753   3.782   6.450
 7662POPC   C2B42740  44.708   3.817   6.750
 7662POPC   C3B42741  44.677   3.801   7.050
 7662POPC   C4B42742  44.687   3.752   7.350
 7663POPC   NC342743  36.177  17.524   5.550
 7663POPC   PO442744  36.175  17.507   5.850
 7663POPC   GL142745  36.150  17.549   6.150
 7663POPC   GL242746  36.175  17.608   6.150
 7663POPC   C1A42747  36.085  17.484   6.450
 7663POPC   D2A42748  36.123  17.474   6.750
 7663POPC   C3A42749  36.082  17.540   7.050
 7663POPC   C4A42750  36.122  17.500   7.350
 7663POPC   C1B42751  36.158  17.751   6.450
 7663POPC   C2B42752  36.150  17.714   6.750
 7663POPC   C3B42753  36.151  17.767   7.050
 7663POPC   C4B42754  36.190  17.744   7.350
 7664POPC   NC342755   1.968  19.082   5.550
 7664POPC   PO442756   1.998  19.105   5.850
 7664POPC   GL142757   1.961  19.104   6.150
 7664POPC   GL242758   1.954  18.895   6.150
 7664POPC   C1A42759   1.973  19.061   6.450
 7664POPC   D2A42760   1.989  19.032   6.750
 7664POPC   C3A42761   1.976  19.045   7.050
 7664POPC   C4A42762   2.009  19.015   7.350
 7664POPC   C1B42763   1.959  18.772   6.450
 7664POPC   C2B42764   1.998  18.850   6.750
 7664POPC   C3B42765   1.909  18.823   7.050
 7664POPC   C4B42766   1.901  18.841   7.350
 7665POPC   NC342767   8.952  42.294   5.550
 7665POPC   PO442768   8.928  42.288   5.850
 7665POPC   GL142769   9.016  42.372   6.150
 7665POPC   GL242770   8.966  42.431   6.150
 7665POPC   C1A42771   9.009  42.329   6.450
 7665POPC   D2A42772   8.972  42.328   6.750
 7665POPC   C3A42773   9.021  42.377   7.050
 7665POPC   C4A42774   8.981  42.377   7.350
 7665POPC   C1B42775   8.915  42.567   6.450
 7665POPC   C2B42776   8.826  42.582   6.750
 7665POPC   C3B42777   8.836  42.570   7.050
 7665POPC   C4B42778   8.864  42.519   7.350
 7666POPC   NC342779  39.197  22.967   5.550
 7666POPC   PO442780  39.224  22.962   5.850
 7666POPC   GL142781  39.260  22.906   6.150
 7666POPC   GL242782  39.369  22.801   6.150
 7666POPC   C1A42783  39.190  22.926   6.450
 7666POPC   D2A42784  39.200  22.965   6.750
 7666POPC   C3A42785  39.252  22.900   7.050
 7666POPC   C4A42786  39.192  22.980   7.350
 7666POPC   C1B42787  39.406  22.803   6.450
 7666POPC   C2B42788  39.387  22.805   6.750
 7666POPC   C3B42789  39.456  22.799   7.050
 7666POPC   C4B42790  39.426  22.756   7.350
 7667POPC   NC342791  34.554   1.950   5.550
 7667POPC   PO442792  34.561   1.943   5.850
 7667POPC   GL142793  34.584   1.966   6.150
 7667POPC   GL242794  34.416   2.025   6.150
 7667POPC   C1A42795  34.577   1.976   6.450
 7667POPC   D2A42796  34.552   2.008   6.750
 7667POPC   C3A42797  34.617   2.022   7.050
 7667POPC   C4A42798  34.622   1.983   7.350
 7667POPC   C1B42799  34.323   1.916   6.450
 7667POPC   C2B42800  34.339   1.920   6.750
 7667POPC   C3B42801  34.361   1.966   7.050
 7667POPC   C4B42802  34.294   1.922   7.350
 7668POPC   NC342803  22.156   1.988   5.550
 7668POPC   PO442804  22.166   1.951   5.850
 7668POPC   GL142805  22.128   2.002   6.150
 7668POPC   GL242806  22.275   1.949   6.150
 7668POPC   C1A42807  22.167   2.008   6.450
 7668POPC   D2A42808  22.197   2.006   6.750
 7668POPC   C3A42809  22.204   2.037   7.050
 7668POPC   C4A42810  22.122   1.984   7.350
 7668POPC   C1B42811  22.369   1.862   6.450
 7668POPC   C2B42812  22.354   1.845   6.750
 7668POPC   C3B42813  22.417   1.873   7.050
 7668POPC   C4B42814  22.440   1.902   7.350
 7669POPC   NC342815  41.554  33.047   5.550
 7669POPC   PO442816  41.549  33.021   5.850
 7669POPC   GL142817  41.602  33.068   6.150
 7669POPC   GL242818  41.658  33.001   6.150
 7669POPC   C1A42819  41.517  33.068   6.450
 7669POPC   D2A42820  41.607  33.073   6.750
 7669POPC   C3A42821  41.530  32.994   7.050
 7669POPC   C4A42822  41.530  32.997   7.350
 7669POPC   C1B42823  41.769  33.019   6.450
 7669POPC   C2B42824  41.850  33.032   6.750
 7669POPC   C3B42825  41.773  33.069   7.050
 7669POPC   C4B42826  41.832  33.063   7.350
 7670POPC   NC342827  43.128  11.329   5.550
 7670POPC   PO442828  43.133  11.347   5.850
 7670POPC   GL142829  43.095  11.255   6.150
 7670POPC   GL242830  43.053  11.450   6.150
 7670POPC   C1A42831  43.138  11.306   6.450
 7670POPC   D2A42832  43.128  11.302   6.750
 7670POPC   C3A42833  43.108  11.289   7.050
 7670POPC   C4A42834  43.152  11.318   7.350
 7670POPC   C1B42835  43.044  11.543   6.450
 7670POPC   C2B42836  43.086  11.529   6.750
 7670POPC   C3B42837  43.016  11.561   7.050
 7670POPC   C4B42838  43.048  11.560   7.350
 7671POPC   NC342839  32.288  36.860   5.550
 7671POPC   PO442840  32.263  36.869   5.850
 7671POPC   GL142841  32.207  36.878   6.150
 7671POPC   GL242842  32.414  36.988   6.150
 7671POPC   C1A42843  32.227  36.934   6.450
 7671POPC   D2A42844  32.220  36.889   6.750
 7671POPC   C3A42845  32.239  36.884   7.050
 7671POPC   C4A42846  32.261  36.899   7.350
 7671POPC   C1B42847  32.443  36.934   6.450
 7671POPC   C2B42848  32.528  36.969   6.750
 7671POPC   C3B42849  32.440  37.008   7.050
 7671POPC   C4B42850  32.515  36.985   7.350
 7672POPC   NC342851  11.270  30.679   5.550
 7672POPC   PO442852  11.287  30.726   5.850
 7672POPC   GL142853  11.261  30.692   6.150
 7672POPC   GL242854  11.472  30.755   6.150
 7672POPC   C1A42855  11.330  30.680   6.450
 7672POPC   D2A42856  11.299  30.679   6.750
 7672POPC   C3A42857  11.342  30.678   7.050
 7672POPC   C4A42858  11.278  30.726   7.350
 7672POPC   C1B42859  11.582  30.762   6.450
 7672POPC   C2B42860  11.518  30.740   6.750
 7672POPC   C3B42861  11.515  30.754   7.050
 7672POPC   C4B42862  11.554  30.736   7.350
 7673POPC   NC342863  35.361  41.548   5.550
 7673POPC   PO442864  35.329  41.571   5.850
 7673POPC   GL142865  35.364  41.577   6.150
 7673POPC   GL242866  35.368  41.719   6.150
 7673POPC   C1A42867  35.352  41.531   6.450
 7673POPC   D2A42868  35.340  41.520   6.750
 7673POPC   C3A42869  35.351  41.585   7.050
 7673POPC   C4A42870  35.309  41.598   7.350
 7673POPC   C1B42871  35.340  41.845   6.450
 7673POPC   C2B42872  35.395  41.786   6.750
 7673POPC   C3B42873  35.428  41.817   7.050
 7673POPC   C4B42874  35.338  41.779   7.350
 7674POPC   NC342875  12.870  26.771   5.550
 7674POPC   PO442876  12.847  26.822   5.850
 7674POPC   GL142877  12.846  26.827   6.150
 7674POPC   GL242878  12.941  26.806   6.150
 7674POPC   C1A42879  12.877  26.785   6.450
 7674POPC   D2A42880  12.877  26.788   6.750
 7674POPC   C3A42881  12.877  26.812   7.050
 7674POPC   C4A42882  12.830  26.784   7.350
 7674POPC   C1B42883  13.132  26.900   6.450
 7674POPC   C2B42884  13.049  26.907   6.750
 7674POPC   C3B42885  13.140  26.842   7.050
 7674POPC   C4B42886  13.111  26.831   7.350
 7675POPC   NC342887  40.782   7.380   5.550
 7675POPC   PO442888  40.810   7.428   5.850
 7675POPC   GL142889  40.743   7.458   6.150
 7675POPC   GL242890  40.831   7.589   6.150
 7675POPC   C1A42891  40.817   7.393   6.450
 7675POPC   D2A42892  40.760   7.412   6.750
 7675POPC   C3A42893  40.748   7.461   7.050
 7675POPC   C4A42894  40.741   7.390   7.350
 7675POPC   C1B42895  40.860   7.623   6.450
 7675POPC   C2B42896  40.878   7.664   6.750
 7675POPC   C3B42897  40.882   7.617   7.050
 7675POPC   C4B42898  40.865   7.654   7.350
 7676POPC   NC342899  30.704   8.952   5.550
 7676POPC   PO442900  30.674   8.939   5.850
 7676POPC   GL142901  30.658   8.945   6.150
 7676POPC   GL242902  30.569   8.903   6.150
 7676POPC   C1A42903  30.693   8.959   6.450
 7676POPC   D2A42904  30.675   8.953   6.750
 7676POPC   C3A42905  30.669   8.940   7.050
 7676POPC   C4A42906  30.726   8.955   7.350
 7676POPC   C1B42907  30.451   8.834   6.450
 7676POPC   C2B42908  30.455   8.841   6.750
 7676POPC   C3B42909  30.463   8.800   7.050
 7676POPC   C4B42910  30.511   8.834   7.350
 7677POPC   NC342911  28.383  40.054   5.550
 7677POPC   PO442912  28.410  39.983   5.850
 7677POPC   GL142913  28.418  40.010   6.150
 7677POPC   GL242914  28.464  40.128   6.150
 7677POPC   C1A42915  28.376  39.977   6.450
 7677POPC   D2A42916  28.357  39.967   6.750
 7677POPC   C3A42917  28.352  40.011   7.050
 7677POPC   C4A42918  28.364  39.998   7.350
 7677POPC   C1B42919  28.498  40.238   6.450
 7677POPC   C2B42920  28.579  40.225   6.750
 7677POPC   C3B42921  28.535  40.179   7.050
 7677POPC   C4B42922  28.532  40.145   7.350
 7678POPC   NC342923  32.989  15.913   5.550
 7678POPC   PO442924  33.024  15.907   5.850
 7678POPC   GL142925  32.991  15.980   6.150
 7678POPC   GL242926  33.161  15.971   6.150
 7678POPC   C1A42927  33.036  16.002   6.450
 7678POPC   D2A42928  33.026  15.934   6.750
 7678POPC   C3A42929  33.043  15.933   7.050
 7678POPC   C4A42930  33.014  15.988   7.350
 7678POPC   C1B42931  33.232  16.004   6.450
 7678POPC   C2B42932  33.231  15.980   6.750
 7678POPC   C3B42933  33.225  15.951   7.050
 7678POPC   C4B42934  33.303  16.010   7.350
 7679POPC   NC342935  19.859  33.773   5.550
 7679POPC   PO442936  19.878  33.789   5.850
 7679POPC   GL142937  19.854  33.839   6.150
 7679POPC   GL242938  19.803  33.882   6.150
 7679POPC   C1A42939  19.822  33.760   6.450
 7679POPC   D2A42940  19.801  33.836   6.750
 7679POPC   C3A42941  19.869  33.844   7.050
 7679POPC   C4A42942  19.848  33.776   7.350
 7679POPC   C1B42943  19.865  34.078   6.450
 7679POPC   C2B42944  19.854  34.073   6.750
 7679POPC   C3B42945  19.855  34.079   7.050
 7679POPC   C4B42946  19.818  34.055   7.350
 7680POPC   NC342947  40.802  43.858   5.550
 7680POPC   PO442948  40.752  43.912   5.850
 7680POPC   GL142949  40.737  43.876   6.150
 7680POPC   GL242950  40.695  43.751   6.150
 7680POPC   C1A42951  40.735  43.899   6.450
 7680POPC   D2A42952  40.828  43.888   6.750
 7680POPC   C3A42953  40.818  43.858   7.050
 7680POPC   C4A42954  40.734  43.898   7.350
 7680POPC   C1B42955  40.680  43.692   6.450
 7680POPC   C2B42956  40.707  43.623   6.750
 7680POPC   C3B42957  40.632  43.627   7.050
 7680POPC   C4B42958  40.628  43.649   7.350
 7681POPC   NC342959  39.255   8.157   5.550
 7681POPC   PO442960  39.228   8.160   5.850
 7681POPC   GL142961  39.185   8.237   6.150
 7681POPC   GL242962  39.314   8.125   6.150
 7681POPC   C1A42963  39.224   8.237   6.450
 7681POPC   D2A42964  39.203   8.207   6.750
 7681POPC   C3A42965  39.216   8.184   7.050
 7681POPC   C4A42966  39.190   8.170   7.350
 7681POPC   C1B42967  39.382   7.998   6.450
 7681POPC   C2B42968  39.418   8.033   6.750
 7681POPC   C3B42969  39.394   8.017   7.050
 7681POPC   C4B42970  39.408   7.974   7.350
 7682POPC   NC342971  24.449  41.597   5.550
 7682POPC   PO442972  24.502  41.573   5.850
 7682POPC   GL142973  24.516  41.523   6.150
 7682POPC   GL242974  24.506  41.665   6.150
 7682POPC   C1A42975  24.486  41.520   6.450
 7682POPC   D2A42976  24.449  41.572   6.750
 7682POPC   C3A42977  24.510  41.548   7.050
 7682POPC   C4A42978  24.500  41.565   7.350
 7682POPC   C1B42979  24.404  41.836   6.450
 7682POPC   C2B42980  24.409  41.815   6.750
 7682POPC   C3B42981  24.429  41.818   7.050
 7682POPC   C4B42982  24.456  41.820   7.350
 7683POPC   NC342983  10.513  19.851   5.550
 7683POPC   PO442984  10.553  19.822   5.850
 7683POPC   GL142985  10.567  19.872   6.150
 7683POPC   GL242986  10.450  19.952   6.150
 7683POPC   C1A42987  10.559  19.813   6.450
 7683POPC   D2A42988  10.498  19.828   6.750
 7683POPC   C3A42989  10.494  19.855   7.050
 7683POPC   C4A42990  10.546  19.876   7.350
 7683POPC   C1B42991  10.464  20.091   6.450
 7683POPC   C2B42992  10.480  20.108   6.750
 7683POPC   C3B42993  10.410  20.091   7.050
 7683POPC   C4B42994  10.498  20.087   7.350
 7684POPC   NC342995  44.706  32.210   5.550
 7684POPC   PO442996  44.659  32.223   5.850
 7684POPC   GL142997  44.667  32.217   6.150
 7684POPC   GL242998  44.660  32.135   6.150
 7684POPC   C1A42999  44.690  32.220   6.450
 7684POPC   D2A43000  44.654  32.202   6.750
 7684POPC   C3A43001  44.674  32.235   7.050
 7684POPC   C4A43002  44.675  32.257   7.350
 7684POPC   C1B43003  44.701  32.015   6.450
 7684POPC   C2B43004  44.754  32.019   6.750
 7684POPC   C3B43005  44.785  32.014   7.050
 7684POPC   C4B43006  44.737  32.041   7.350
 7685POPC   NC343007   8.212   0.432   5.550
 7685POPC   PO443008   8.228   0.485   5.850
 7685POPC   GL143009   8.202   0.409   6.150
 7685POPC   GL243010   8.304   0.375   6.150
 7685POPC   C1A43011   8.230   0.404   6.450
 7685POPC   D2A43012   8.238   0.464   6.750
 7685POPC   C3A43013   8.147   0.426   7.050
 7685POPC   C4A43014   8.178   0.468   7.350
 7685POPC   C1B43015   8.408   0.350   6.450
 7685POPC   C2B43016   8.391   0.315   6.750
 7685POPC   C3B43017   8.387   0.266   7.050
 7685POPC   C4B43018   8.429   0.320   7.350
 7686POPC   NC343019   2.768  19.089   5.550
 7686POPC   PO443020   2.812  19.030   5.850
 7686POPC   GL143021   2.806  19.055   6.150
 7686POPC   GL243022   2.854  18.985   6.150
 7686POPC   C1A43023   2.792  19.039   6.450
 7686POPC   D2A43024   2.765  19.023   6.750
 7686POPC   C3A43025   2.812  19.040   7.050
 7686POPC   C4A43026   2.742  19.106   7.350
 7686POPC   C1B43027   2.834  18.853   6.450
 7686POPC   C2B43028   2.901  18.805   6.750
 7686POPC   C3B43029   2.832  18.797   7.050
 7686POPC   C4B43030   2.881  18.842   7.350
 7687POPC   NC343031  34.602  36.860   5.550
 7687POPC   PO443032  34.540  36.928   5.850
 7687POPC   GL143033  34.564  36.869   6.150
 7687POPC   GL243034  34.502  36.999   6.150
 7687POPC   C1A43035  34.538  36.944   6.450
 7687POPC   D2A43036  34.565  36.875   6.750
 7687POPC   C3A43037  34.613  36.869   7.050
 7687POPC   C4A43038  34.600  36.913   7.350
 7687POPC   C1B43039  34.398  37.066   6.450
 7687POPC   C2B43040  34.465  37.075   6.750
 7687POPC   C3B43041  34.413  37.123   7.050
 7687POPC   C4B43042  34.416  37.082   7.350
 7688POPC   NC343043  43.134  26.059   5.550
 7688POPC   PO443044  43.154  26.066   5.850
 7688POPC   GL143045  43.061  26.088   6.150
 7688POPC   GL243046  42.993  26.005   6.150
 7688POPC   C1A43047  43.107  26.013   6.450
 7688POPC   D2A43048  43.095  26.002   6.750
 7688POPC   C3A43049  43.066  26.000   7.050
 7688POPC   C4A43050  43.151  26.026   7.350
 7688POPC   C1B43051  42.873  25.918   6.450
 7688POPC   C2B43052  42.890  25.907   6.750
 7688POPC   C3B43053  42.878  25.869   7.050
 7688POPC   C4B43054  42.912  25.911   7.350
 7689POPC   NC343055  23.675  40.827   5.550
 7689POPC   PO443056  23.724  40.757   5.850
 7689POPC   GL143057  23.709  40.785   6.150
 7689POPC   GL243058  23.636  40.676   6.150
 7689POPC   C1A43059  23.687  40.821   6.450
 7689POPC   D2A43060  23.665  40.766   6.750
 7689POPC   C3A43061  23.689  40.827   7.050
 7689POPC   C4A43062  23.717  40.745   7.350
 7689POPC   C1B43063  23.540  40.652   6.450
 7689POPC   C2B43064  23.533  40.614   6.750
 7689POPC   C3B43065  23.567  40.589   7.050
 7689POPC   C4B43066  23.494  40.640   7.350
 7690POPC   NC343067   2.787  16.764   5.550
 7690POPC   PO443068   2.717  16.777   5.850
 7690POPC   GL143069   2.791  16.728   6.150
 7690POPC   GL243070   2.882  16.742   6.150
 7690POPC   C1A43071   2.729  16.753   6.450
 7690POPC   D2A43072   2.803  16.722   6.750
 7690POPC   C3A43073   2.796  16.730   7.050
 7690POPC   C4A43074   2.786  16.738   7.350
 7690POPC   C1B43075   2.974  16.751   6.450
 7690POPC   C2B43076   3.063  16.749   6.750
 7690POPC   C3B43077   2.987  16.701   7.050
 7690POPC   C4B43078   3.054  16.691   7.350
 7691POPC   NC343079   9.722  27.608   5.550
 7691POPC   PO443080   9.761  27.621   5.850
 7691POPC   GL143081   9.769  27.582   6.150
 7691POPC   GL243082   9.833  27.530   6.150
 7691POPC   C1A43083   9.732  27.612   6.450
 7691POPC   D2A43084   9.736  27.619   6.750
 7691POPC   C3A43085   9.713  27.609   7.050
 7691POPC   C4A43086   9.770  27.600   7.350
 7691POPC   C1B43087   9.832  27.410   6.450
 7691POPC   C2B43088   9.897  27.362   6.750
 7691POPC   C3B43089   9.901  27.357   7.050
 7691POPC   C4B43090   9.921  27.418   7.350
 7692POPC   NC343091  37.718  10.572   5.550
 7692POPC   PO443092  37.679  10.498   5.850
 7692POPC   GL143093  37.648  10.536   6.150
 7692POPC   GL243094  37.792  10.647   6.150
 7692POPC   C1A43095  37.696  10.567   6.450
 7692POPC   D2A43096  37.632  10.481   6.750
 7692POPC   C3A43097  37.681  10.494   7.050
 7692POPC   C4A43098  37.718  10.521   7.350
 7692POPC   C1B43099  37.856  10.697   6.450
 7692POPC   C2B43100  37.813  10.713   6.750
 7692POPC   C3B43101  37.834  10.758   7.050
 7692POPC   C4B43102  37.804  10.683   7.350
 7693POPC   NC343103   9.013  44.633   5.550
 7693POPC   PO443104   8.964  44.699   5.850
 7693POPC   GL143105   9.013  44.645   6.150
 7693POPC   GL243106   8.916  44.773   6.150
 7693POPC   C1A43107   8.953  44.710   6.450
 7693POPC   D2A43108   8.985  44.642   6.750
 7693POPC   C3A43109   8.985  44.668   7.050
 7693POPC   C4A43110   8.937  44.673   7.350
 7693POPC   C1B43111   8.801  44.899   6.450
 7693POPC   C2B43112   8.841  44.873   6.750
 7693POPC   C3B43113   8.851  44.825   7.050
 7693POPC   C4B43114   8.787  44.858   7.350
 7694POPC   NC343115  13.645   2.721   5.550
 7694POPC   PO443116  13.624   2.755   5.850
 7694POPC   GL143117  13.597   2.790   6.150
 7694POPC   GL243118  13.552   2.689   6.150
 7694POPC   C1A43119  13.581   2.791   6.450
 7694POPC   D2A43120  13.624   2.776   6.750
 7694POPC   C3A43121  13.669   2.766   7.050
 7694POPC   C4A43122  13.613   2.755   7.350
 7694POPC   C1B43123  13.478   2.594   6.450
 7694POPC   C2B43124  13.484   2.585   6.750
 7694POPC   C3B43125  13.462   2.546   7.050
 7694POPC   C4B43126  13.402   2.569   7.350
 7695POPC   NC343127  44.684  42.300   5.550
 7695POPC   PO443128  44.698  42.371   5.850
 7695POPC   GL143129  44.685  42.363   6.150
 7695POPC   GL243130  44.555  42.233   6.150
 7695POPC   C1A43131  44.691  42.299   6.450
 7695POPC   D2A43132  44.650  42.287   6.750
 7695POPC   C3A43133  44.700  42.310   7.050
 7695POPC   C4A43134  44.660  42.325   7.350
 7695POPC   C1B43135  44.507  42.103   6.450
 7695POPC   C2B43136  44.549  42.136   6.750
 7695POPC   C3B43137  44.520  42.112   7.050
 7695POPC   C4B43138  44.514  42.131   7.350
 7696POPC   NC343139  26.055  24.505   5.550
 7696POPC   PO443140  26.060  24.446   5.850
 7696POPC   GL143141  26.091  24.477   6.150
 7696POPC   GL243142  26.166  24.531   6.150
 7696POPC   C1A43143  25.998  24.445   6.450
 7696POPC   D2A43144  26.027  24.507   6.750
 7696POPC   C3A43145  26.081  24.451   7.050
 7696POPC   C4A43146  26.020  24.464   7.350
 7696POPC   C1B43147  26.260  24.679   6.450
 7696POPC   C2B43148  26.233  24.615   6.750
 7696POPC   C3B43149  26.203  24.659   7.050
 7696POPC   C4B43150  26.210  24.592   7.350
 7697POPC   NC343151  33.017  19.034   5.550
 7697POPC   PO443152  33.029  19.054   5.850
 7697POPC   GL143153  33.016  19.033   6.150
 7697POPC   GL243154  33.159  19.018   6.150
 7697POPC   C1A43155  33.061  19.078   6.450
 7697POPC   D2A43156  32.989  19.028   6.750
 7697POPC   C3A43157  33.030  19.091   7.050
 7697POPC   C4A43158  32.980  19.015   7.350
 7697POPC   C1B43159  33.281  19.062   6.450
 7697POPC   C2B43160  33.323  19.072   6.750
 7697POPC   C3B43161  33.229  19.055   7.050
 7697POPC   C4B43162  33.248  19.014   7.350
 7698POPC   NC343163  29.923   9.778   5.550
 7698POPC   PO443164  29.928   9.787   5.850
 7698POPC   GL143165  29.957   9.776   6.150
 7698POPC   GL243166  29.946   9.851   6.150
 7698POPC   C1A43167  29.917   9.782   6.450
 7698POPC   D2A43168  29.896   9.756   6.750
 7698POPC   C3A43169  29.928   9.793   7.050
 7698POPC   C4A43170  29.969   9.698   7.350
 7698POPC   C1B43171  30.019   9.968   6.450
 7698POPC   C2B43172  30.006  10.024   6.750
 7698POPC   C3B43173  29.984   9.993   7.050
 7698POPC   C4B43174  30.072   9.996   7.350
 7699POPC   NC343175  28.355  32.978   5.550
 7699POPC   PO443176  28.386  32.977   5.850
 7699POPC   GL143177  28.372  33.008   6.150
 7699POPC   GL243178  28.504  33.107   6.150
 7699POPC   C1A43179  28.347  33.004   6.450
 7699POPC   D2A43180  28.372  33.012   6.750
 7699POPC   C3A43181  28.395  33.039   7.050
 7699POPC   C4A43182  28.329  32.993   7.350
 7699POPC   C1B43183  28.635  33.099   6.450
 7699POPC   C2B43184  28.576  33.115   6.750
 7699POPC   C3B43185  28.599  33.101   7.050
 7699POPC   C4B43186  28.633  33.123   7.350
 7700POPC   NC343187  27.574   9.021   5.550
 7700POPC   PO443188  27.554   8.930   5.850
 7700POPC   GL143189  27.602   8.996   6.150
 7700POPC   GL243190  27.521   9.086   6.150
 7700POPC   C1A43191  27.568   8.972   6.450
 7700POPC   D2A43192  27.545   9.007   6.750
 7700POPC   C3A43193  27.608   9.007   7.050
 7700POPC   C4A43194  27.631   9.019   7.350
 7700POPC   C1B43195  27.521   9.176   6.450
 7700POPC   C2B43196  27.529   9.198   6.750
 7700POPC   C3B43197  27.520   9.229   7.050
 7700POPC   C4B43198  27.584   9.249   7.350
 7701POPC   NC343199  12.075  35.366   5.550
 7701POPC   PO443200  12.040  35.316   5.850
 7701POPC   GL143201  12.090  35.345   6.150
 7701POPC   GL243202  12.110  35.490   6.150
 7701POPC   C1A43203  12.109  35.343   6.450
 7701POPC   D2A43204  12.051  35.351   6.750
 7701POPC   C3A43205  12.077  35.351   7.050
 7701POPC   C4A43206  12.027  35.354   7.350
 7701POPC   C1B43207  12.133  35.572   6.450
 7701POPC   C2B43208  12.181  35.613   6.750
 7701POPC   C3B43209  12.154  35.629   7.050
 7701POPC   C4B43210  12.171  35.625   7.350
 7702POPC   NC343211  27.588  40.734   5.550
 7702POPC   PO443212  27.550  40.829   5.850
 7702POPC   GL143213  27.577  40.734   6.150
 7702POPC   GL243214  27.684  40.797   6.150
 7702POPC   C1A43215  27.559  40.816   6.450
 7702POPC   D2A43216  27.552  40.769   6.750
 7702POPC   C3A43217  27.613  40.772   7.050
 7702POPC   C4A43218  27.598  40.783   7.350
 7702POPC   C1B43219  27.807  40.827   6.450
 7702POPC   C2B43220  27.836  40.852   6.750
 7702POPC   C3B43221  27.791  40.881   7.050
 7702POPC   C4B43222  27.822  40.823   7.350
 7703POPC   NC343223  36.107   8.975   5.550
 7703POPC   PO443224  36.144   9.008   5.850
 7703POPC   GL143225  36.122   8.942   6.150
 7703POPC   GL243226  35.997   8.931   6.150
 7703POPC   C1A43227  36.142   8.940   6.450
 7703POPC   D2A43228  36.086   8.977   6.750
 7703POPC   C3A43229  36.152   8.948   7.050
 7703POPC   C4A43230  36.133   8.942   7.350
 7703POPC   C1B43231  35.989   8.829   6.450
 7703POPC   C2B43232  35.917   8.787   6.750
 7703POPC   C3B43233  35.918   8.749   7.050
 7703POPC   C4B43234  35.971   8.828   7.350
 7704POPC   NC343235  34.578  17.493   5.550
 7704POPC   PO443236  34.611  17.462   5.850
 7704POPC   GL143237  34.548  17.462   6.150
 7704POPC   GL243238  34.696  17.451   6.150
 7704POPC   C1A43239  34.583  17.514   6.450
 7704POPC   D2A43240  34.597  17.547   6.750
 7704POPC   C3A43241  34.580  17.472   7.050
 7704POPC   C4A43242  34.540  17.519   7.350
 7704POPC   C1B43243  34.846  17.422   6.450
 7704POPC   C2B43244  34.826  17.436   6.750
 7704POPC   C3B43245  34.821  17.389   7.050
 7704POPC   C4B43246  34.780  17.412   7.350
 7705POPC   NC343247  38.498   7.374   5.550
 7705POPC   PO443248  38.413   7.441   5.850
 7705POPC   GL143249  38.494   7.420   6.150
 7705POPC   GL243250  38.506   7.549   6.150
 7705POPC   C1A43251  38.462   7.377   6.450
 7705POPC   D2A43252  38.503   7.465   6.750
 7705POPC   C3A43253  38.432   7.400   7.050
 7705POPC   C4A43254  38.477   7.381   7.350
 7705POPC   C1B43255  38.525   7.661   6.450
 7705POPC   C2B43256  38.547   7.666   6.750
 7705POPC   C3B43257  38.520   7.607   7.050
 7705POPC   C4B43258  38.578   7.649   7.350
 7706POPC   NC343259  13.598  18.287   5.550
 7706POPC   PO443260  13.668  18.253   5.850
 7706POPC   GL143261  13.629  18.307   6.150
 7706POPC   GL243262  13.490  18.322   6.150
 7706POPC   C1A43263  13.641  18.333   6.450
 7706POPC   D2A43264  13.619  18.258   6.750
 7706POPC   C3A43265  13.642  18.325   7.050
 7706POPC   C4A43266  13.656  18.283   7.350
 7706POPC   C1B43267  13.367  18.452   6.450
 7706POPC   C2B43268  13.422  18.363   6.750
 7706POPC   C3B43269  13.434  18.387   7.050
 7706POPC   C4B43270  13.402  18.404   7.350
 7707POPC   NC343271  27.574  13.587   5.550
 7707POPC   PO443272  27.614  13.666   5.850
 7707POPC   GL143273  27.567  13.587   6.150
 7707POPC   GL243274  27.588  13.750   6.150
 7707POPC   C1A43275  27.629  13.667   6.450
 7707POPC   D2A43276  27.605  13.604   6.750
 7707POPC   C3A43277  27.586  13.613   7.050
 7707POPC   C4A43278  27.627  13.640   7.350
 7707POPC   C1B43279  27.467  13.869   6.450
 7707POPC   C2B43280  27.538  13.821   6.750
 7707POPC   C3B43281  27.538  13.882   7.050
 7707POPC   C4B43282  27.548  13.836   7.350
 7708POPC   NC343283  26.833  25.267   5.550
 7708POPC   PO443284  26.782  25.284   5.850
 7708POPC   GL143285  26.858  25.233   6.150
 7708POPC   GL243286  26.958  25.304   6.150
 7708POPC   C1A43287  26.822  25.300   6.450
 7708POPC   D2A43288  26.802  25.280   6.750
 7708POPC   C3A43289  26.828  25.298   7.050
 7708POPC   C4A43290  26.858  25.251   7.350
 7708POPC   C1B43291  27.105  25.229   6.450
 7708POPC   C2B43292  27.028  25.275   6.750
 7708POPC   C3B43293  27.038  25.243   7.050
 7708POPC   C4B43294  27.048  25.224   7.350
 7709POPC   NC343295  29.927   5.875   5.550
 7709POPC   PO443296  29.871   5.833   5.850
 7709POPC   GL143297  29.944   5.904   6.150
 7709POPC   GL243298  29.814   5.845   6.150
 7709POPC   C1A43299  29.913   5.898   6.450
 7709POPC   D2A43300  29.936   5.911   6.750
 7709POPC   C3A43301  29.944   5.913   7.050
 7709POPC   C4A43302  29.960   5.912   7.350
 7709POPC   C1B43303  29.724   5.737   6.450
 7709POPC   C2B43304  29.759   5.682   6.750
 7709POPC   C3B43305  29.673   5.740   7.050
 7709POPC   C4B43306  29.677   5.755   7.350
 7710POPC   NC343307  26.783  36.937   5.550
 7710POPC   PO443308  26.806  36.879   5.850
 7710POPC   GL143309  26.815  36.903   6.150
 7710POPC   GL243310  26.758  36.971   6.150
 7710POPC   C1A43311  26.780  36.925   6.450
 7710POPC   D2A43312  26.864  36.945   6.750
 7710POPC   C3A43313  26.823  36.905   7.050
 7710POPC   C4A43314  26.830  36.869   7.350
 7710POPC   C1B43315  26.688  37.079   6.450
 7710POPC   C2B43316  26.671  37.129   6.750
 7710POPC   C3B43317  26.701  37.083   7.050
 7710POPC   C4B43318  26.722  37.109   7.350
 7711POPC   NC343319  31.457  19.873   5.550
 7711POPC   PO443320  31.496  19.800   5.850
 7711POPC   GL143321  31.482  19.865   6.150
 7711POPC   GL243322  31.510  19.973   6.150
 7711POPC   C1A43323  31.472  19.845   6.450
 7711POPC   D2A43324  31.521  19.829   6.750
 7711POPC   C3A43325  31.424  19.809   7.050
 7711POPC   C4A43326  31.489  19.877   7.350
 7711POPC   C1B43327  31.559  20.072   6.450
 7711POPC   C2B43328  31.586  20.106   6.750
 7711POPC   C3B43329  31.601  20.062   7.050
 7711POPC   C4B43330  31.603  20.054   7.350
 7712POPC   NC343331   6.685  12.893   5.550
 7712POPC   PO443332   6.682  12.848   5.850
 7712POPC   GL143333   6.618  12.853   6.150
 7712POPC   GL243334   6.572  12.990   6.150
 7712POPC   C1A43335   6.618  12.844   6.450
 7712POPC   D2A43336   6.621  12.899   6.750
 7712POPC   C3A43337   6.688  12.879   7.050
 7712POPC   C4A43338   6.602  12.808   7.350
 7712POPC   C1B43339   6.506  13.099   6.450
 7712POPC   C2B43340   6.538  13.009   6.750
 7712POPC   C3B43341   6.445  13.079   7.050
 7712POPC   C4B43342   6.472  13.076   7.350
 7713POPC   NC343343  15.209  30.663   5.550
 7713POPC   PO443344  15.210  30.663   5.850
 7713POPC   GL143345  15.220  30.731   6.150
 7713POPC   GL243346  15.305  30.788   6.150
 7713POPC   C1A43347  15.210  30.720   6.450
 7713POPC   D2A43348  15.173  30.675   6.750
 7713POPC   C3A43349  15.137  30.648   7.050
 7713POPC   C4A43350  15.214  30.650   7.350
 7713POPC   C1B43351  15.427  30.894   6.450
 7713POPC   C2B43352  15.381  30.806   6.750
 7713POPC   C3B43353  15.353  30.855   7.050
 7713POPC   C4B43354  15.376  30.795   7.350
 7714POPC   NC343355  19.852   4.294   5.550
 7714POPC   PO443356  19.833   4.315   5.850
 7714POPC   GL143357  19.791   4.293   6.150
 7714POPC   GL243358  19.828   4.199   6.150
 7714POPC   C1A43359  19.873   4.287   6.450
 7714POPC   D2A43360  19.867   4.318   6.750
 7714POPC   C3A43361  19.843   4.289   7.050
 7714POPC   C4A43362  19.809   4.276   7.350
 7714POPC   C1B43363  19.820   4.116   6.450
 7714POPC   C2B43364  19.802   4.021   6.750
 7714POPC   C3B43365  19.783   4.085   7.050
 7714POPC   C4B43366  19.846   4.114   7.350
 7715POPC   NC343367  40.032  11.301   5.550
 7715POPC   PO443368  39.985  11.317   5.850
 7715POPC   GL143369  40.005  11.307   6.150
 7715POPC   GL243370  40.033  11.373   6.150
 7715POPC   C1A43371  40.003  11.289   6.450
 7715POPC   D2A43372  40.036  11.314   6.750
 7715POPC   C3A43373  39.959  11.349   7.050
 7715POPC   C4A43374  40.051  11.324   7.350
 7715POPC   C1B43375  40.114  11.538   6.450
 7715POPC   C2B43376  40.200  11.483   6.750
 7715POPC   C3B43377  40.164  11.504   7.050
 7715POPC   C4B43378  40.179  11.451   7.350
 7716POPC   NC343379  21.424   8.961   5.550
 7716POPC   PO443380  21.416   8.928   5.850
 7716POPC   GL143381  21.385   9.000   6.150
 7716POPC   GL243382  21.403   8.895   6.150
 7716POPC   C1A43383  21.408   8.931   6.450
 7716POPC   D2A43384  21.401   8.936   6.750
 7716POPC   C3A43385  21.363   8.927   7.050
 7716POPC   C4A43386  21.342   9.015   7.350
 7716POPC   C1B43387  21.506   8.724   6.450
 7716POPC   C2B43388  21.492   8.725   6.750
 7716POPC   C3B43389  21.467   8.789   7.050
 7716POPC   C4B43390  21.467   8.787   7.350
 7717POPC   NC343391  43.851  29.924   5.550
 7717POPC   PO443392  43.884  29.919   5.850
 7717POPC   GL143393  43.894  29.939   6.150
 7717POPC   GL243394  43.838  29.864   6.150
 7717POPC   C1A43395  43.840  29.877   6.450
 7717POPC   D2A43396  43.898  29.878   6.750
 7717POPC   C3A43397  43.840  29.958   7.050
 7717POPC   C4A43398  43.893  29.903   7.350
 7717POPC   C1B43399  43.696  29.778   6.450
 7717POPC   C2B43400  43.674  29.724   6.750
 7717POPC   C3B43401  43.732  29.789   7.050
 7717POPC   C4B43402  43.645  29.764   7.350
 7718POPC   NC343403   7.401  35.353   5.550
 7718POPC   PO443404   7.419  35.338   5.850
 7718POPC   GL143405   7.454  35.381   6.150
 7718POPC   GL243406   7.573  35.394   6.150
 7718POPC   C1A43407   7.421  35.321   6.450
 7718POPC   D2A43408   7.442  35.339   6.750
 7718POPC   C3A43409   7.444  35.325   7.050
 7718POPC   C4A43410   7.455  35.375   7.350
 7718POPC   C1B43411   7.683  35.447   6.450
 7718POPC   C2B43412   7.667  35.376   6.750
 7718POPC   C3B43413   7.712  35.368   7.050
 7718POPC   C4B43414   7.626  35.375   7.350
 7719POPC   NC343415  26.801  23.755   5.550
 7719POPC   PO443416  26.812  23.672   5.850
 7719POPC   GL143417  26.796  23.742   6.150
 7719POPC   GL243418  26.936  23.766   6.150
 7719POPC   C1A43419  26.854  23.751   6.450
 7719POPC   D2A43420  26.809  23.715   6.750
 7719POPC   C3A43421  26.803  23.690   7.050
 7719POPC   C4A43422  26.797  23.680   7.350
 7719POPC   C1B43423  27.027  23.758   6.450
 7719POPC   C2B43424  27.025  23.782   6.750
 7719POPC   C3B43425  27.068  23.772   7.050
 7719POPC   C4B43426  27.017  23.701   7.350
 7720POPC   NC343427  34.617   0.441   5.550
 7720POPC   PO443428  34.562   0.439   5.850
 7720POPC   GL143429  34.603   0.482   6.150
 7720POPC   GL243430  34.515   0.534   6.150
 7720POPC   C1A43431  34.564   0.443   6.450
 7720POPC   D2A43432  34.556   0.450   6.750
 7720POPC   C3A43433  34.564   0.432   7.050
 7720POPC   C4A43434  34.615   0.431   7.350
 7720POPC   C1B43435  34.405   0.644   6.450
 7720POPC   C2B43436  34.420   0.641   6.750
 7720POPC   C3B43437  34.372   0.651   7.050
 7720POPC   C4B43438  34.363   0.582   7.350
 7721POPC   NC343439  29.149  27.559   5.550
 7721POPC   PO443440  29.165  27.574   5.850
 7721POPC   GL143441  29.148  27.620   6.150
 7721POPC   GL243442  29.171  27.749   6.150
 7721POPC   C1A43443  29.099  27.602   6.450
 7721POPC   D2A43444  29.154  27.628   6.750
 7721POPC   C3A43445  29.158  27.560   7.050
 7721POPC   C4A43446  29.186  27.598   7.350
 7721POPC   C1B43447  29.168  27.840   6.450
 7721POPC   C2B43448  29.159  27.812   6.750
 7721POPC   C3B43449  29.184  27.838   7.050
 7721POPC   C4B43450  29.167  27.832   7.350
 7722POPC   NC343451  31.490   4.288   5.550
 7722POPC   PO443452  31.474   4.314   5.850
 7722POPC   GL143453  31.492   4.294   6.150
 7722POPC   GL243454  31.620   4.239   6.150
 7722POPC   C1A43455  31.427   4.338   6.450
 7722POPC   D2A43456  31.454   4.330   6.750
 7722POPC   C3A43457  31.438   4.337   7.050
 7722POPC   C4A43458  31.444   4.310   7.350
 7722POPC   C1B43459  31.724   4.190   6.450
 7722POPC   C2B43460  31.745   4.254   6.750
 7722POPC   C3B43461  31.678   4.285   7.050
 7722POPC   C4B43462  31.675   4.191   7.350
 7723POPC   NC343463  22.117   1.195   5.550
 7723POPC   PO443464  22.163   1.262   5.850
 7723POPC   GL143465  22.174   1.164   6.150
 7723POPC   GL243466  22.150   1.330   6.150
 7723POPC   C1A43467  22.150   1.173   6.450
 7723POPC   D2A43468  22.187   1.209   6.750
 7723POPC   C3A43469  22.162   1.165   7.050
 7723POPC   C4A43470  22.160   1.234   7.350
 7723POPC   C1B43471  22.082   1.446   6.450
 7723POPC   C2B43472  22.151   1.473   6.750
 7723POPC   C3B43473  22.128   1.430   7.050
 7723POPC   C4B43474  22.076   1.494   7.350
 7724POPC   NC343475   2.790  17.537   5.550
 7724POPC   PO443476   2.750  17.469   5.850
 7724POPC   GL143477   2.768  17.485   6.150
 7724POPC   GL243478   2.928  17.504   6.150
 7724POPC   C1A43479   2.752  17.497   6.450
 7724POPC   D2A43480   2.748  17.471   6.750
 7724POPC   C3A43481   2.788  17.502   7.050
 7724POPC   C4A43482   2.809  17.460   7.350
 7724POPC   C1B43483   2.977  17.442   6.450
 7724POPC   C2B43484   2.974  17.418   6.750
 7724POPC   C3B43485   3.020  17.436   7.050
 7724POPC   C4B43486   3.023  17.399   7.350
 7725POPC   NC343487   0.422  35.351   5.550
 7725POPC   PO443488   0.414  35.373   5.850
 7725POPC   GL143489   0.398  35.320   6.150
 7725POPC   GL243490   0.552  35.398   6.150
 7725POPC   C1A43491   0.483  35.378   6.450
 7725POPC   D2A43492   0.414  35.369   6.750
 7725POPC   C3A43493   0.405  35.374   7.050
 7725POPC   C4A43494   0.456  35.356   7.350
 7725POPC   C1B43495   0.732  35.391   6.450
 7725POPC   C2B43496   0.733  35.375   6.750
 7725POPC   C3B43497   0.660  35.329   7.050
 7725POPC   C4B43498   0.690  35.385   7.350
 7726POPC   NC343499  16.735  27.563   5.550
 7726POPC   PO443500  16.772  27.629   5.850
 7726POPC   GL143501  16.757  27.565   6.150
 7726POPC   GL243502  16.846  27.585   6.150
 7726POPC   C1A43503  16.779  27.597   6.450
 7726POPC   D2A43504  16.724  27.637   6.750
 7726POPC   C3A43505  16.712  27.581   7.050
 7726POPC   C4A43506  16.749  27.631   7.350
 7726POPC   C1B43507  17.021  27.560   6.450
 7726POPC   C2B43508  16.987  27.528   6.750
 7726POPC   C3B43509  16.955  27.520   7.050
 7726POPC   C4B43510  16.936  27.514   7.350
 7727POPC   NC343511  39.234  21.427   5.550
 7727POPC   PO443512  39.281  21.343   5.850
 7727POPC   GL143513  39.257  21.412   6.150
 7727POPC   GL243514  39.377  21.447   6.150
 7727POPC   C1A43515  39.186  21.372   6.450
 7727POPC   D2A43516  39.258  21.345   6.750
 7727POPC   C3A43517  39.225  21.377   7.050
 7727POPC   C4A43518  39.264  21.396   7.350
 7727POPC   C1B43519  39.464  21.483   6.450
 7727POPC   C2B43520  39.406  21.505   6.750
 7727POPC   C3B43521  39.427  21.496   7.050
 7727POPC   C4B43522  39.476  21.488   7.350
 7728POPC   NC343523   5.127  36.866   5.550
 7728POPC   PO443524   5.099  36.890   5.850
 7728POPC   GL143525   5.052  36.879   6.150
 7728POPC   GL243526   4.981  36.829   6.150
 7728POPC   C1A43527   5.111  36.862   6.450
 7728POPC   D2A43528   5.126  36.938   6.750
 7728POPC   C3A43529   5.121  36.867   7.050
 7728POPC   C4A43530   5.083  36.883   7.350
 7728POPC   C1B43531   4.902  36.743   6.450
 7728POPC   C2B43532   4.885  36.689   6.750
 7728POPC   C3B43533   4.910  36.712   7.050
 7728POPC   C4B43534   4.885  36.759   7.350
 7729POPC   NC343535  22.893  36.880   5.550
 7729POPC   PO443536  22.968  36.882   5.850
 7729POPC   GL143537  22.907  36.903   6.150
 7729POPC   GL243538  22.911  36.839   6.150
 7729POPC   C1A43539  22.919  36.931   6.450
 7729POPC   D2A43540  22.953  36.860   6.750
 7729POPC   C3A43541  22.968  36.893   7.050
 7729POPC   C4A43542  22.986  36.879   7.350
 7729POPC   C1B43543  22.828  36.742   6.450
 7729POPC   C2B43544  22.789  36.740   6.750
 7729POPC   C3B43545  22.763  36.686   7.050
 7729POPC   C4B43546  22.832  36.733   7.350
 7730POPC   NC343547  14.414  14.424   5.550
 7730POPC   PO443548  14.435  14.420   5.850
 7730POPC   GL143549  14.391  14.415   6.150
 7730POPC   GL243550  14.545  14.446   6.150
 7730POPC   C1A43551  14.367  14.381   6.450
 7730POPC   D2A43552  14.447  14.429   6.750
 7730POPC   C3A43553  14.368  14.414   7.050
 7730POPC   C4A43554  14.403  14.380   7.350
 7730POPC   C1B43555  14.563  14.524   6.450
 7730POPC   C2B43556  14.561  14.590   6.750
 7730POPC   C3B43557  14.648  14.575   7.050
 7730POPC   C4B43558  14.627  14.525   7.350
 7731POPC   NC343559  13.671  31.437   5.550
 7731POPC   PO443560  13.628  31.496   5.850
 7731POPC   GL143561  13.656  31.423   6.150
 7731POPC   GL243562  13.547  31.583   6.150
 7731POPC   C1A43563  13.602  31.473   6.450
 7731POPC   D2A43564  13.650  31.521   6.750
 7731POPC   C3A43565  13.670  31.493   7.050
 7731POPC   C4A43566  13.662  31.453   7.350
 7731POPC   C1B43567  13.489  31.632   6.450
 7731POPC   C2B43568  13.491  31.686   6.750
 7731POPC   C3B43569  13.486  31.707   7.050
 7731POPC   C4B43570  13.492  31.650   7.350
 7732POPC   NC343571  15.912  12.875   5.550
 7732POPC   PO443572  15.980  12.850   5.850
 7732POPC   GL143573  15.946  12.894   6.150
 7732POPC   GL243574  16.069  12.909   6.150
 7732POPC   C1A43575  15.934  12.874   6.450
 7732POPC   D2A43576  15.968  12.808   6.750
 7732POPC   C3A43577  15.967  12.889   7.050
 7732POPC   C4A43578  15.962  12.895   7.350
 7732POPC   C1B43579  16.128  13.006   6.450
 7732POPC   C2B43580  16.055  13.014   6.750
 7732POPC   C3B43581  16.118  13.024   7.050
 7732POPC   C4B43582  16.120  13.093   7.350
 7733POPC   NC343583   2.794  40.821   5.550
 7733POPC   PO443584   2.765  40.810   5.850
 7733POPC   GL143585   2.719  40.763   6.150
 7733POPC   GL243586   2.709  40.646   6.150
 7733POPC   C1A43587   2.814  40.734   6.450
 7733POPC   D2A43588   2.774  40.776   6.750
 7733POPC   C3A43589   2.780  40.749   7.050
 7733POPC   C4A43590   2.745  40.744   7.350
 7733POPC   C1B43591   2.758  40.530   6.450
 7733POPC   C2B43592   2.751  40.571   6.750
 7733POPC   C3B43593   2.701  40.552   7.050
 7733POPC   C4B43594   2.734  40.587   7.350
 7734POPC   NC343595   1.966  37.674   5.550
 7734POPC   PO443596   1.940  37.698   5.850
 7734POPC   GL143597   1.941  37.667   6.150
 7734POPC   GL243598   2.128  37.596   6.150
 7734POPC   C1A43599   1.959  37.667   6.450
 7734POPC   D2A43600   1.958  37.717   6.750
 7734POPC   C3A43601   1.962  37.683   7.050
 7734POPC   C4A43602   1.974  37.697   7.350
 7734POPC   C1B43603   2.137  37.505   6.450
 7734POPC   C2B43604   2.220  37.460   6.750
 7734POPC   C3B43605   2.179  37.543   7.050
 7734POPC   C4B43606   2.168  37.543   7.350
 7735POPC   NC343607   5.825  28.366   5.550
 7735POPC   PO443608   5.915  28.400   5.850
 7735POPC   GL143609   5.833  28.383   6.150
 7735POPC   GL243610   5.711  28.385   6.150
 7735POPC   C1A43611   5.831  28.325   6.450
 7735POPC   D2A43612   5.873  28.381   6.750
 7735POPC   C3A43613   5.917  28.396   7.050
 7735POPC   C4A43614   5.904  28.372   7.350
 7735POPC   C1B43615   5.602  28.346   6.450
 7735POPC   C2B43616   5.606  28.308   6.750
 7735POPC   C3B43617   5.599  28.347   7.050
 7735POPC   C4B43618   5.604  28.372   7.350
 7736POPC   NC343619  13.594  32.986   5.550
 7736POPC   PO443620  13.662  33.073   5.850
 7736POPC   GL143621  13.621  32.995   6.150
 7736POPC   GL243622  13.541  32.947   6.150
 7736POPC   C1A43623  13.666  33.006   6.450
 7736POPC   D2A43624  13.598  32.987   6.750
 7736POPC   C3A43625  13.591  32.978   7.050
 7736POPC   C4A43626  13.621  33.008   7.350
 7736POPC   C1B43627  13.548  32.831   6.450
 7736POPC   C2B43628  13.474  32.755   6.750
 7736POPC   C3B43629  13.572  32.827   7.050
 7736POPC   C4B43630  13.552  32.796   7.350
 7737POPC   NC343631   9.002  17.548   5.550
 7737POPC   PO443632   8.983  17.469   5.850
 7737POPC   GL143633   8.982  17.503   6.150
 7737POPC   GL243634   9.055  17.631   6.150
 7737POPC   C1A43635   8.941  17.536   6.450
 7737POPC   D2A43636   8.967  17.494   6.750
 7737POPC   C3A43637   8.936  17.507   7.050
 7737POPC   C4A43638   8.977  17.487   7.350
 7737POPC   C1B43639   9.136  17.701   6.450
 7737POPC   C2B43640   9.147  17.620   6.750
 7737POPC   C3B43641   9.153  17.642   7.050
 7737POPC   C4B43642   9.132  17.688   7.350
 7738POPC   NC343643   4.361  39.993   5.550
 7738POPC   PO443644   4.362  40.049   5.850
 7738POPC   GL143645   4.351  40.047   6.150
 7738POPC   GL243646   4.232  40.149   6.150
 7738POPC   C1A43647   4.338  40.015   6.450
 7738POPC   D2A43648   4.269  39.985   6.750
 7738POPC   C3A43649   4.344  39.997   7.050
 7738POPC   C4A43650   4.294  40.026   7.350
 7738POPC   C1B43651   4.241  40.223   6.450
 7738POPC   C2B43652   4.258  40.237   6.750
 7738POPC   C3B43653   4.260  40.238   7.050
 7738POPC   C4B43654   4.223  40.225   7.350
 7739POPC   NC343655  29.159  23.737   5.550
 7739POPC   PO443656  29.149  23.690   5.850
 7739POPC   GL143657  29.171  23.701   6.150
 7739POPC   GL243658  29.233  23.672   6.150
 7739POPC   C1A43659  29.171  23.711   6.450
 7739POPC   D2A43660  29.125  23.709   6.750
 7739POPC   C3A43661  29.140  23.687   7.050
 7739POPC   C4A43662  29.180  23.668   7.350
 7739POPC   C1B43663  29.307  23.530   6.450
 7739POPC   C2B43664  29.370  23.590   6.750
 7739POPC   C3B43665  29.383  23.564   7.050
 7739POPC   C4B43666  29.342  23.575   7.350
 7740POPC   NC343667  42.345  31.434   5.550
 7740POPC   PO443668  42.313  31.514   5.850
 7740POPC   GL143669  42.377  31.461   6.150
 7740POPC   GL243670  42.411  31.412   6.150
 7740POPC   C1A43671  42.326  31.445   6.450
 7740POPC   D2A43672  42.322  31.457   6.750
 7740POPC   C3A43673  42.340  31.495   7.050
 7740POPC   C4A43674  42.316  31.521   7.350
 7740POPC   C1B43675  42.537  31.344   6.450
 7740POPC   C2B43676  42.528  31.294   6.750
 7740POPC   C3B43677  42.569  31.300   7.050
 7740POPC   C4B43678  42.555  31.353   7.350
 7741POPC   NC343679  44.645   2.733   5.550
 7741POPC   PO443680  44.625   2.730   5.850
 7741POPC   GL143681  44.696   2.778   6.150
 7741POPC   GL243682  44.570   2.899   6.150
 7741POPC   C1A43683  44.642   2.750   6.450
 7741POPC   D2A43684  44.704   2.755   6.750
 7741POPC   C3A43685  44.635   2.737   7.050
 7741POPC   C4A43686  44.684   2.781   7.350
 7741POPC   C1B43687  44.542   2.936   6.450
 7741POPC   C2B43688  44.574   3.023   6.750
 7741POPC   C3B43689  44.509   2.961   7.050
 7741POPC   C4B43690  44.572   2.956   7.350
 7742POPC   NC343691  25.250  36.920   5.550
 7742POPC   PO443692  25.223  36.883   5.850
 7742POPC   GL143693  25.315  36.886   6.150
 7742POPC   GL243694  25.289  37.053   6.150
 7742POPC   C1A43695  25.248  36.917   6.450
 7742POPC   D2A43696  25.309  36.936   6.750
 7742POPC   C3A43697  25.311  36.906   7.050
 7742POPC   C4A43698  25.294  36.925   7.350
 7742POPC   C1B43699  25.389  37.161   6.450
 7742POPC   C2B43700  25.390  37.102   6.750
 7742POPC   C3B43701  25.338  37.181   7.050
 7742POPC   C4B43702  25.367  37.109   7.350
 7743POPC   NC343703  14.421  22.954   5.550
 7743POPC   PO443704  14.356  22.987   5.850
 7743POPC   GL143705  14.366  22.972   6.150
 7743POPC   GL243706  14.338  23.006   6.150
 7743POPC   C1A43707  14.398  22.927   6.450
 7743POPC   D2A43708  14.412  22.923   6.750
 7743POPC   C3A43709  14.444  22.924   7.050
 7743POPC   C4A43710  14.451  22.967   7.350
 7743POPC   C1B43711  14.221  23.087   6.450
 7743POPC   C2B43712  14.191  23.125   6.750
 7743POPC   C3B43713  14.173  23.068   7.050
 7743POPC   C4B43714  14.166  23.109   7.350
 7744POPC   NC343715   6.621  18.264   5.550
 7744POPC   PO443716   6.626  18.276   5.850
 7744POPC   GL143717   6.662  18.310   6.150
 7744POPC   GL243718   6.659  18.211   6.150
 7744POPC   C1A43719   6.680  18.245   6.450
 7744POPC   D2A43720   6.655  18.283   6.750
 7744POPC   C3A43721   6.688  18.252   7.050
 7744POPC   C4A43722   6.607  18.235   7.350
 7744POPC   C1B43723   6.792  18.042   6.450
 7744POPC   C2B43724   6.801  18.048   6.750
 7744POPC   C3B43725   6.812  18.075   7.050
 7744POPC   C4B43726   6.781  18.060   7.350
 7745POPC   NC343727  42.358  15.218   5.550
 7745POPC   PO443728  42.337  15.209   5.850
 7745POPC   GL143729  42.368  15.222   6.150
 7745POPC   GL243730  42.483  15.077   6.150
 7745POPC   C1A43731  42.310  15.227   6.450
 7745POPC   D2A43732  42.321  15.165   6.750
 7745POPC   C3A43733  42.312  15.194   7.050
 7745POPC   C4A43734  42.381  15.227   7.350
 7745POPC   C1B43735  42.549  15.033   6.450
 7745POPC   C2B43736  42.504  15.021   6.750
 7745POPC   C3B43737  42.548  15.013   7.050
 7745POPC   C4B43738  42.516  15.052   7.350
 7746POPC   NC343739  10.570  15.987   5.550
 7746POPC   PO443740  10.502  15.941   5.850
 7746POPC   GL143741  10.480  15.924   6.150
 7746POPC   GL243742  10.516  15.787   6.150
 7746POPC   C1A43743  10.527  15.953   6.450
 7746POPC   D2A43744  10.549  15.976   6.750
 7746POPC   C3A43745  10.510  15.972   7.050
 7746POPC   C4A43746  10.543  15.957   7.350
 7746POPC   C1B43747  10.557  15.701   6.450
 7746POPC   C2B43748  10.551  15.682   6.750
 7746POPC   C3B43749  10.490  15.656   7.050
 7746POPC   C4B43750  10.557  15.744   7.350
 7747POPC   NC343751  39.226  18.247   5.550
 7747POPC   PO443752  39.189  18.273   5.850
 7747POPC   GL143753  39.246  18.298   6.150
 7747POPC   GL243754  39.174  18.246   6.150
 7747POPC   C1A43755  39.260  18.301   6.450
 7747POPC   D2A43756  39.193  18.312   6.750
 7747POPC   C3A43757  39.200  18.259   7.050
 7747POPC   C4A43758  39.269  18.321   7.350
 7747POPC   C1B43759  39.068  18.110   6.450
 7747POPC   C2B43760  38.990  18.162   6.750
 7747POPC   C3B43761  38.997  18.174   7.050
 7747POPC   C4B43762  39.052  18.124   7.350
 7748POPC   NC343763  27.555  12.865   5.550
 7748POPC   PO443764  27.596  12.899   5.850
 7748POPC   GL143765  27.603  12.830   6.150
 7748POPC   GL243766  27.463  12.829   6.150
 7748POPC   C1A43767  27.554  12.843   6.450
 7748POPC   D2A43768  27.554  12.804   6.750
 7748POPC   C3A43769  27.641  12.900   7.050
 7748POPC   C4A43770  27.599  12.895   7.350
 7748POPC   C1B43771  27.382  12.842   6.450
 7748POPC   C2B43772  27.296  12.850   6.750
 7748POPC   C3B43773  27.331  12.838   7.050
 7748POPC   C4B43774  27.371  12.860   7.350
 7749POPC   NC343775  12.045  19.832   5.550
 7749POPC   PO443776  12.115  19.812   5.850
 7749POPC   GL143777  12.049  19.801   6.150
 7749POPC   GL243778  11.969  19.901   6.150
 7749POPC   C1A43779  12.035  19.848   6.450
 7749POPC   D2A43780  12.096  19.884   6.750
 7749POPC   C3A43781  12.039  19.858   7.050
 7749POPC   C4A43782  12.088  19.882   7.350
 7749POPC   C1B43783  11.874  19.892   6.450
 7749POPC   C2B43784  11.806  19.927   6.750
 7749POPC   C3B43785  11.804  19.850   7.050
 7749POPC   C4B43786  11.812  19.936   7.350
 7750POPC   NC343787  15.220  19.790   5.550
 7750POPC   PO443788  15.202  19.859   5.850
 7750POPC   GL143789  15.217  19.793   6.150
 7750POPC   GL243790  15.311  19.899   6.150
 7750POPC   C1A43791  15.132  19.786   6.450
 7750POPC   D2A43792  15.148  19.863   6.750
 7750POPC   C3A43793  15.189  19.835   7.050
 7750POPC   C4A43794  15.138  19.826   7.350
 7750POPC   C1B43795  15.403  20.032   6.450
 7750POPC   C2B43796  15.334  19.972   6.750
 7750POPC   C3B43797  15.375  19.967   7.050
 7750POPC   C4B43798  15.428  19.957   7.350
 7751POPC   NC343799  24.479  29.105   5.550
 7751POPC   PO443800  24.461  29.175   5.850
 7751POPC   GL143801  24.539  29.147   6.150
 7751POPC   GL243802  24.619  29.151   6.150
 7751POPC   C1A43803  24.440  29.117   6.450
 7751POPC   D2A43804  24.490  29.153   6.750
 7751POPC   C3A43805  24.519  29.174   7.050
 7751POPC   C4A43806  24.525  29.183   7.350
 7751POPC   C1B43807  24.691  29.297   6.450
 7751POPC   C2B43808  24.701  29.236   6.750
 7751POPC   C3B43809  24.715  29.263   7.050
 7751POPC   C4B43810  24.685  29.204   7.350
 7752POPC   NC343811  28.328  35.329   5.550
 7752POPC   PO443812  28.358  35.334   5.850
 7752POPC   GL143813  28.411  35.364   6.150
 7752POPC   GL243814  28.382  35.276   6.150
 7752POPC   C1A43815  28.339  35.400   6.450
 7752POPC   D2A43816  28.354  35.399   6.750
 7752POPC   C3A43817  28.348  35.315   7.050
 7752POPC   C4A43818  28.327  35.385   7.350
 7752POPC   C1B43819  28.301  35.058   6.450
 7752POPC   C2B43820  28.304  35.151   6.750
 7752POPC   C3B43821  28.333  35.151   7.050
 7752POPC   C4B43822  28.325  35.132   7.350
 7753POPC   NC343823  27.570  10.504   5.550
 7753POPC   PO443824  27.609  10.482   5.850
 7753POPC   GL143825  27.586  10.490   6.150
 7753POPC   GL243826  27.624  10.429   6.150
 7753POPC   C1A43827  27.569  10.538   6.450
 7753POPC   D2A43828  27.602  10.511   6.750
 7753POPC   C3A43829  27.592  10.483   7.050
 7753POPC   C4A43830  27.607  10.569   7.350
 7753POPC   C1B43831  27.586  10.231   6.450
 7753POPC   C2B43832  27.512  10.292   6.750
 7753POPC   C3B43833  27.560  10.287   7.050
 7753POPC   C4B43834  27.525  10.267   7.350
 7754POPC   NC343835  39.197  29.914   5.550
 7754POPC   PO443836  39.268  29.962   5.850
 7754POPC   GL143837  39.279  29.895   6.150
 7754POPC   GL243838  39.083  29.897   6.150
 7754POPC   C1A43839  39.258  29.962   6.450
 7754POPC   D2A43840  39.185  29.881   6.750
 7754POPC   C3A43841  39.259  29.940   7.050
 7754POPC   C4A43842  39.227  29.961   7.350
 7754POPC   C1B43843  39.037  29.779   6.450
 7754POPC   C2B43844  38.995  29.736   6.750
 7754POPC   C3B43845  38.992  29.826   7.050
 7754POPC   C4B43846  38.994  29.736   7.350
 7755POPC   NC343847  40.751  32.278   5.550
 7755POPC   PO443848  40.806  32.242   5.850
 7755POPC   GL143849  40.818  32.215   6.150
 7755POPC   GL243850  40.706  32.155   6.150
 7755POPC   C1A43851  40.799  32.269   6.450
 7755POPC   D2A43852  40.801  32.271   6.750
 7755POPC   C3A43853  40.787  32.277   7.050
 7755POPC   C4A43854  40.794  32.203   7.350
 7755POPC   C1B43855  40.594  32.078   6.450
 7755POPC   C2B43856  40.617  32.037   6.750
 7755POPC   C3B43857  40.630  32.095   7.050
 7755POPC   C4B43858  40.591  32.080   7.350
 7756POPC   NC343859  40.828  13.597   5.550
 7756POPC   PO443860  40.800  13.663   5.850
 7756POPC   GL143861  40.750  13.600   6.150
 7756POPC   GL243862  40.670  13.686   6.150
 7756POPC   C1A43863  40.772  13.660   6.450
 7756POPC   D2A43864  40.733  13.642   6.750
 7756POPC   C3A43865  40.786  13.619   7.050
 7756POPC   C4A43866  40.769  13.595   7.350
 7756POPC   C1B43867  40.545  13.655   6.450
 7756POPC   C2B43868  40.516  13.703   6.750
 7756POPC   C3B43869  40.569  13.690   7.050
 7756POPC   C4B43870  40.570  13.717   7.350
 7757POPC   NC343871  36.114  33.831   5.550
 7757POPC   PO443872  36.139  33.798   5.850
 7757POPC   GL143873  36.124  33.788   6.150
 7757POPC   GL243874  36.292  33.884   6.150
 7757POPC   C1A43875  36.164  33.767   6.450
 7757POPC   D2A43876  36.090  33.765   6.750
 7757POPC   C3A43877  36.145  33.773   7.050
 7757POPC   C4A43878  36.178  33.819   7.350
 7757POPC   C1B43879  36.389  33.877   6.450
 7757POPC   C2B43880  36.395  33.861   6.750
 7757POPC   C3B43881  36.390  33.839   7.050
 7757POPC   C4B43882  36.347  33.854   7.350
 7758POPC   NC343883   3.530  43.896   5.550
 7758POPC   PO443884   3.579  43.837   5.850
 7758POPC   GL143885   3.551  43.849   6.150
 7758POPC   GL243886   3.472  43.820   6.150
 7758POPC   C1A43887   3.536  43.878   6.450
 7758POPC   D2A43888   3.502  43.842   6.750
 7758POPC   C3A43889   3.533  43.899   7.050
 7758POPC   C4A43890   3.514  43.860   7.350
 7758POPC   C1B43891   3.330  43.724   6.450
 7758POPC   C2B43892   3.369  43.727   6.750
 7758POPC   C3B43893   3.367  43.730   7.050
 7758POPC   C4B43894   3.325  43.767   7.350
 7759POPC   NC343895  40.787   1.208   5.550
 7759POPC   PO443896  40.772   1.205   5.850
 7759POPC   GL143897  40.736   1.185   6.150
 7759POPC   GL243898  40.701   1.244   6.150
 7759POPC   C1A43899  40.796   1.229   6.450
 7759POPC   D2A43900  40.763   1.223   6.750
 7759POPC   C3A43901  40.821   1.184   7.050
 7759POPC   C4A43902  40.739   1.253   7.350
 7759POPC   C1B43903  40.568   1.340   6.450
 7759POPC   C2B43904  40.596   1.331   6.750
 7759POPC   C3B43905  40.585   1.339   7.050
 7759POPC   C4B43906  40.568   1.296   7.350
 7760POPC   NC343907  19.097  35.369   5.550
 7760POPC   PO443908  19.022  35.325   5.850
 7760POPC   GL143909  19.033  35.324   6.150
 7760POPC   GL243910  19.211  35.452   6.150
 7760POPC   C1A43911  19.072  35.372   6.450
 7760POPC   D2A43912  19.071  35.331   6.750
 7760POPC   C3A43913  19.038  35.367   7.050
 7760POPC   C4A43914  19.024  35.394   7.350
 7760POPC   C1B43915  19.301  35.447   6.450
 7760POPC   C2B43916  19.250  35.515   6.750
 7760POPC   C3B43917  19.231  35.445   7.050
 7760POPC   C4B43918  19.248  35.528   7.350
 7761POPC   NC343919  22.189  42.352   5.550
 7761POPC   PO443920  22.129  42.375   5.850
 7761POPC   GL143921  22.138  42.325   6.150
 7761POPC   GL243922  22.263  42.233   6.150
 7761POPC   C1A43923  22.126  42.362   6.450
 7761POPC   D2A43924  22.147  42.308   6.750
 7761POPC   C3A43925  22.138  42.301   7.050
 7761POPC   C4A43926  22.171  42.377   7.350
 7761POPC   C1B43927  22.395  42.217   6.450
 7761POPC   C2B43928  22.387  42.145   6.750
 7761POPC   C3B43929  22.394  42.132   7.050
 7761POPC   C4B43930  22.316  42.203   7.350
 7762POPC   NC343931   3.530  33.781   5.550
 7762POPC   PO443932   3.547  33.813   5.850
 7762POPC   GL143933   3.543  33.753   6.150
 7762POPC   GL243934   3.368  33.837   6.150
 7762POPC   C1A43935   3.507  33.832   6.450
 7762POPC   D2A43936   3.540  33.803   6.750
 7762POPC   C3A43937   3.535  33.821   7.050
 7762POPC   C4A43938   3.540  33.802   7.350
 7762POPC   C1B43939   3.339  33.783   6.450
 7762POPC   C2B43940   3.285  33.865   6.750
 7762POPC   C3B43941   3.266  33.854   7.050
 7762POPC   C4B43942   3.311  33.811   7.350
 7763POPC   NC343943  26.022  22.983   5.550
 7763POPC   PO443944  26.031  22.928   5.850
 7763POPC   GL143945  26.046  22.963   6.150
 7763POPC   GL243946  25.975  23.052   6.150
 7763POPC   C1A43947  26.089  22.942   6.450
 7763POPC   D2A43948  26.062  22.953   6.750
 7763POPC   C3A43949  26.085  22.911   7.050
 7763POPC   C4A43950  26.008  22.940   7.350
 7763POPC   C1B43951  26.016  23.229   6.450
 7763POPC   C2B43952  25.960  23.167   6.750
 7763POPC   C3B43953  25.970  23.211   7.050
 7763POPC   C4B43954  25.957  23.223   7.350
 7764POPC   NC343955  22.117  15.982   5.550
 7764POPC   PO443956  22.142  15.981   5.850
 7764POPC   GL143957  22.203  15.946   6.150
 7764POPC   GL243958  22.122  15.845   6.150
 7764POPC   C1A43959  22.128  15.926   6.450
 7764POPC   D2A43960  22.191  15.985   6.750
 7764POPC   C3A43961  22.193  15.996   7.050
 7764POPC   C4A43962  22.142  15.972   7.350
 7764POPC   C1B43963  22.129  15.701   6.450
 7764POPC   C2B43964  22.155  15.739   6.750
 7764POPC   C3B43965  22.215  15.695   7.050
 7764POPC   C4B43966  22.214  15.749   7.350
 7765POPC   NC343967  33.830   4.305   5.550
 7765POPC   PO443968  33.792   4.353   5.850
 7765POPC   GL143969  33.803   4.324   6.150
 7765POPC   GL243970  33.907   4.288   6.150
 7765POPC   C1A43971  33.782   4.360   6.450
 7765POPC   D2A43972  33.761   4.358   6.750
 7765POPC   C3A43973  33.796   4.273   7.050
 7765POPC   C4A43974  33.751   4.354   7.350
 7765POPC   C1B43975  34.012   4.226   6.450
 7765POPC   C2B43976  33.990   4.202   6.750
 7765POPC   C3B43977  33.969   4.192   7.050
 7765POPC   C4B43978  34.001   4.199   7.350
 7766POPC   NC343979  37.637  22.907   5.550
 7766POPC   PO443980  37.690  22.901   5.850
 7766POPC   GL143981  37.698  22.955   6.150
 7766POPC   GL243982  37.677  22.839   6.150
 7766POPC   C1A43983  37.676  22.914   6.450
 7766POPC   D2A43984  37.640  22.912   6.750
 7766POPC   C3A43985  37.700  22.962   7.050
 7766POPC   C4A43986  37.719  22.929   7.350
 7766POPC   C1B43987  37.744  22.649   6.450
 7766POPC   C2B43988  37.790  22.651   6.750
 7766POPC   C3B43989  37.759  22.727   7.050
 7766POPC   C4B43990  37.787  22.731   7.350
 7767POPC   NC343991  17.488  22.889   5.550
 7767POPC   PO443992  17.533  22.905   5.850
 7767POPC   GL143993  17.515  22.916   6.150
 7767POPC   GL243994  17.524  23.029   6.150
 7767POPC   C1A43995  17.484  22.950   6.450
 7767POPC   D2A43996  17.547  22.969   6.750
 7767POPC   C3A43997  17.520  22.959   7.050
 7767POPC   C4A43998  17.535  22.937   7.350
 7767POPC   C1B43999  17.437  23.222   6.450
 7767POPC   C2B44000  17.500  23.144   6.750
 7767POPC   C3B44001  17.476  23.213   7.050
 7767POPC   C4B44002  17.511  23.195   7.350
 7768POPC   NC344003   3.537  35.321   5.550
 7768POPC   PO444004   3.567  35.342   5.850
 7768POPC   GL144005   3.525  35.341   6.150
 7768POPC   GL244006   3.533  35.277   6.150
 7768POPC   C1A44007   3.504  35.304   6.450
 7768POPC   D2A44008   3.550  35.347   6.750
 7768POPC   C3A44009   3.541  35.363   7.050
 7768POPC   C4A44010   3.586  35.347   7.350
 7768POPC   C1B44011   3.570  35.125   6.450
 7768POPC   C2B44012   3.595  35.111   6.750
 7768POPC   C3B44013   3.619  35.136   7.050
 7768POPC   C4B44014   3.619  35.074   7.350
 7769POPC   NC344015  13.615   1.185   5.550
 7769POPC   PO444016  13.630   1.234   5.850
 7769POPC   GL144017  13.618   1.170   6.150
 7769POPC   GL244018  13.499   1.138   6.150
 7769POPC   C1A44019  13.672   1.194   6.450
 7769POPC   D2A44020  13.600   1.199   6.750
 7769POPC   C3A44021  13.605   1.256   7.050
 7769POPC   C4A44022  13.658   1.229   7.350
 7769POPC   C1B44023  13.467   1.030   6.450
 7769POPC   C2B44024  13.452   1.065   6.750
 7769POPC   C3B44025  13.503   1.080   7.050
 7769POPC   C4B44026  13.421   1.064   7.350
 7770POPC   NC344027   1.224   7.372   5.550
 7770POPC   PO444028   1.203   7.388   5.850
 7770POPC   GL144029   1.184   7.428   6.150
 7770POPC   GL244030   1.161   7.354   6.150
 7770POPC   C1A44031   1.226   7.452   6.450
 7770POPC   D2A44032   1.175   7.458   6.750
 7770POPC   C3A44033   1.243   7.438   7.050
 7770POPC   C4A44034   1.191   7.418   7.350
 7770POPC   C1B44035   1.056   7.260   6.450
 7770POPC   C2B44036   1.073   7.263   6.750
 7770POPC   C3B44037   1.020   7.295   7.050
 7770POPC   C4B44038   1.033   7.217   7.350
 7771POPC   NC344039  24.507   2.011   5.550
 7771POPC   PO444040  24.508   2.034   5.850
 7771POPC   GL144041  24.450   1.953   6.150
 7771POPC   GL244042  24.516   2.094   6.150
 7771POPC   C1A44043  24.534   2.039   6.450
 7771POPC   D2A44044  24.480   1.983   6.750
 7771POPC   C3A44045  24.527   1.961   7.050
 7771POPC   C4A44046  24.527   1.964   7.350
 7771POPC   C1B44047  24.632   2.243   6.450
 7771POPC   C2B44048  24.574   2.251   6.750
 7771POPC   C3B44049  24.627   2.236   7.050
 7771POPC   C4B44050  24.561   2.254   7.350
 7772POPC   NC344051  41.590  28.389   5.550
 7772POPC   PO444052  41.559  28.397   5.850
 7772POPC   GL144053  41.570  28.398   6.150
 7772POPC   GL244054  41.446  28.418   6.150
 7772POPC   C1A44055  41.572  28.384   6.450
 7772POPC   D2A44056  41.516  28.382   6.750
 7772POPC   C3A44057  41.578  28.347   7.050
 7772POPC   C4A44058  41.588  28.369   7.350
 7772POPC   C1B44059  41.342  28.495   6.450
 7772POPC   C2B44060  41.295  28.495   6.750
 7772POPC   C3B44061  41.358  28.477   7.050
 7772POPC   C4B44062  41.369  28.522   7.350
 7773POPC   NC344063  31.473  24.440   5.550
 7773POPC   PO444064  31.487  24.477   5.850
 7773POPC   GL144065  31.435  24.460   6.150
 7773POPC   GL244066  31.391  24.479   6.150
 7773POPC   C1A44067  31.519  24.537   6.450
 7773POPC   D2A44068  31.445  24.458   6.750
 7773POPC   C3A44069  31.512  24.529   7.050
 7773POPC   C4A44070  31.481  24.446   7.350
 7773POPC   C1B44071  31.263  24.457   6.450
 7773POPC   C2B44072  31.187  24.478   6.750
 7773POPC   C3B44073  31.194  24.506   7.050
 7773POPC   C4B44074  31.200  24.523   7.350
 7774POPC   NC344075   8.987   2.007   5.550
 7774POPC   PO444076   8.980   1.965   5.850
 7774POPC   GL144077   8.968   1.960   6.150
 7774POPC   GL244078   8.877   1.968   6.150
 7774POPC   C1A44079   8.983   1.999   6.450
 7774POPC   D2A44080   8.976   2.012   6.750
 7774POPC   C3A44081   8.969   1.985   7.050
 7774POPC   C4A44082   8.945   1.949   7.350
 7774POPC   C1B44083   8.737   1.948   6.450
 7774POPC   C2B44084   8.747   1.938   6.750
 7774POPC   C3B44085   8.693   1.912   7.050
 7774POPC   C4B44086   8.712   1.947   7.350
 7775POPC   NC344087  39.986  22.933   5.550
 7775POPC   PO444088  39.987  22.915   5.850
 7775POPC   GL144089  40.038  22.906   6.150
 7775POPC   GL244090  39.889  22.971   6.150
 7775POPC   C1A44091  40.010  22.943   6.450
 7775POPC   D2A44092  40.037  22.953   6.750
 7775POPC   C3A44093  39.993  22.938   7.050
 7775POPC   C4A44094  40.049  22.962   7.350
 7775POPC   C1B44095  39.767  22.942   6.450
 7775POPC   C2B44096  39.777  22.953   6.750
 7775POPC   C3B44097  39.741  22.906   7.050
 7775POPC   C4B44098  39.776  22.975   7.350
 7776POPC   NC344099  12.104  37.642   5.550
 7776POPC   PO444100  12.091  37.715   5.850
 7776POPC   GL144101  12.041  37.682   6.150
 7776POPC   GL244102  12.130  37.784   6.150
 7776POPC   C1A44103  12.113  37.640   6.450
 7776POPC   D2A44104  12.080  37.694   6.750
 7776POPC   C3A44105  12.100  37.656   7.050
 7776POPC   C4A44106  12.030  37.671   7.350
 7776POPC   C1B44107  12.127  37.944   6.450
 7776POPC   C2B44108  12.167  37.920   6.750
 7776POPC   C3B44109  12.184  37.928   7.050
 7776POPC   C4B44110  12.184  37.921   7.350
 7777POPC   NC344111  36.927  39.982   5.550
 7777POPC   PO444112  36.866  39.985   5.850
 7777POPC   GL144113  36.905  39.964   6.150
 7777POPC   GL244114  36.775  39.952   6.150
 7777POPC   C1A44115  36.903  39.964   6.450
 7777POPC   D2A44116  36.943  40.046   6.750
 7777POPC   C3A44117  36.897  40.035   7.050
 7777POPC   C4A44118  36.933  40.039   7.350
 7777POPC   C1B44119  36.777  39.837   6.450
 7777POPC   C2B44120  36.737  39.842   6.750
 7777POPC   C3B44121  36.701  39.822   7.050
 7777POPC   C4B44122  36.773  39.767   7.350
 7778POPC   NC344123   1.951  18.271   5.550
 7778POPC   PO444124   1.969  18.252   5.850
 7778POPC   GL144125   1.981  18.268   6.150
 7778POPC   GL244126   2.140  18.309   6.150
 7778POPC   C1A44127   1.980  18.303   6.450
 7778POPC   D2A44128   2.004  18.279   6.750
 7778POPC   C3A44129   1.985  18.247   7.050
 7778POPC   C4A44130   1.968  18.264   7.350
 7778POPC   C1B44131   2.184  18.409   6.450
 7778POPC   C2B44132   2.237  18.410   6.750
 7778POPC   C3B44133   2.228  18.397   7.050
 7778POPC   C4B44134   2.230  18.354   7.350
 7779POPC   NC344135   1.968  39.245   5.550
 7779POPC   PO444136   2.032  39.234   5.850
 7779POPC   GL144137   2.010  39.210   6.150
 7779POPC   GL244138   1.841  39.191   6.150
 7779POPC   C1A44139   1.993  39.243   6.450
 7779POPC   D2A44140   1.964  39.183   6.750
 7779POPC   C3A44141   1.991  39.271   7.050
 7779POPC   C4A44142   1.956  39.202   7.350
 7779POPC   C1B44143   1.786  39.112   6.450
 7779POPC   C2B44144   1.752  39.175   6.750
 7779POPC   C3B44145   1.718  39.146   7.050
 7779POPC   C4B44146   1.753  39.196   7.350
 7780POPC   NC344147  21.379  12.849   5.550
 7780POPC   PO444148  21.378  12.858   5.850
 7780POPC   GL144149  21.361  12.807   6.150
 7780POPC   GL244150  21.512  12.847   6.150
 7780POPC   C1A44151  21.404  12.823   6.450
 7780POPC   D2A44152  21.398  12.849   6.750
 7780POPC   C3A44153  21.397  12.820   7.050
 7780POPC   C4A44154  21.352  12.870   7.350
 7780POPC   C1B44155  21.648  12.805   6.450
 7780POPC   C2B44156  21.620  12.794   6.750
 7780POPC   C3B44157  21.642  12.858   7.050
 7780POPC   C4B44158  21.672  12.830   7.350
 7781POPC   NC344159  29.933   7.384   5.550
 7781POPC   PO444160  29.965   7.411   5.850
 7781POPC   GL144161  29.885   7.426   6.150
 7781POPC   GL244162  30.066   7.453   6.150
 7781POPC   C1A44163  29.965   7.450   6.450
 7781POPC   D2A44164  29.943   7.383   6.750
 7781POPC   C3A44165  29.931   7.404   7.050
 7781POPC   C4A44166  29.876   7.389   7.350
 7781POPC   C1B44167  30.111   7.556   6.450
 7781POPC   C2B44168  30.125   7.497   6.750
 7781POPC   C3B44169  30.171   7.479   7.050
 7781POPC   C4B44170  30.195   7.562   7.350
 7782POPC   NC344171   3.537   1.994   5.550
 7782POPC   PO444172   3.530   1.965   5.850
 7782POPC   GL144173   3.538   1.949   6.150
 7782POPC   GL244174   3.661   2.052   6.150
 7782POPC   C1A44175   3.518   1.940   6.450
 7782POPC   D2A44176   3.560   1.987   6.750
 7782POPC   C3A44177   3.575   1.972   7.050
 7782POPC   C4A44178   3.584   1.980   7.350
 7782POPC   C1B44179   3.806   2.029   6.450
 7782POPC   C2B44180   3.795   2.015   6.750
 7782POPC   C3B44181   3.779   1.995   7.050
 7782POPC   C4B44182   3.785   2.025   7.350
 7783POPC   NC344183  42.318  16.715   5.550
 7783POPC   PO444184  42.345  16.727   5.850
 7783POPC   GL144185  42.369  16.765   6.150
 7783POPC   GL244186  42.381  16.628   6.150
 7783POPC   C1A44187  42.288  16.751   6.450
 7783POPC   D2A44188  42.300  16.682   6.750
 7783POPC   C3A44189  42.302  16.741   7.050
 7783POPC   C4A44190  42.379  16.738   7.350
 7783POPC   C1B44191  42.528  16.609   6.450
 7783POPC   C2B44192  42.522  16.568   6.750
 7783POPC   C3B44193  42.564  16.570   7.050
 7783POPC   C4B44194  42.533  16.550   7.350
 7784POPC   NC344195   1.183  29.901   5.550
 7784POPC   PO444196   1.219  29.944   5.850
 7784POPC   GL144197   1.229  29.887   6.150
 7784POPC   GL244198   1.239  29.803   6.150
 7784POPC   C1A44199   1.195  29.929   6.450
 7784POPC   D2A44200   1.259  29.931   6.750
 7784POPC   C3A44201   1.240  29.888   7.050
 7784POPC   C4A44202   1.205  29.936   7.350
 7784POPC   C1B44203   1.210  29.639   6.450
 7784POPC   C2B44204   1.204  29.721   6.750
 7784POPC   C3B44205   1.227  29.717   7.050
 7784POPC   C4B44206   1.175  29.657   7.350
 7785POPC   NC344207  26.811  26.778   5.550
 7785POPC   PO444208  26.860  26.818   5.850
 7785POPC   GL144209  26.819  26.844   6.150
 7785POPC   GL244210  26.818  26.948   6.150
 7785POPC   C1A44211  26.809  26.812   6.450
 7785POPC   D2A44212  26.833  26.844   6.750
 7785POPC   C3A44213  26.843  26.800   7.050
 7785POPC   C4A44214  26.818  26.785   7.350
 7785POPC   C1B44215  26.851  27.030   6.450
 7785POPC   C2B44216  26.941  27.076   6.750
 7785POPC   C3B44217  26.855  27.024   7.050
 7785POPC   C4B44218  26.937  27.099   7.350
 7786POPC   NC344219   2.801  42.354   5.550
 7786POPC   PO444220   2.778  42.344   5.850
 7786POPC   GL144221   2.735  42.376   6.150
 7786POPC   GL244222   2.617  42.339   6.150
 7786POPC   C1A44223   2.750  42.311   6.450
 7786POPC   D2A44224   2.718  42.314   6.750
 7786POPC   C3A44225   2.791  42.322   7.050
 7786POPC   C4A44226   2.796  42.378   7.350
 7786POPC   C1B44227   2.535  42.399   6.450
 7786POPC   C2B44228   2.492  42.405   6.750
 7786POPC   C3B44229   2.501  42.363   7.050
 7786POPC   C4B44230   2.553  42.345   7.350
 7787POPC   NC344231  36.137  25.996   5.550
 7787POPC   PO444232  36.166  26.015   5.850
 7787POPC   GL144233  36.100  26.004   6.150
 7787POPC   GL244234  36.100  26.153   6.150
 7787POPC   C1A44235  36.133  25.992   6.450
 7787POPC   D2A44236  36.144  26.067   6.750
 7787POPC   C3A44237  36.130  26.048   7.050
 7787POPC   C4A44238  36.111  25.996   7.350
 7787POPC   C1B44239  36.104  26.321   6.450
 7787POPC   C2B44240  36.102  26.310   6.750
 7787POPC   C3B44241  36.140  26.332   7.050
 7787POPC   C4B44242  36.064  26.271   7.350
 7788POPC   NC344243  41.552  19.099   5.550
 7788POPC   PO444244  41.538  19.105   5.850
 7788POPC   GL144245  41.582  19.009   6.150
 7788POPC   GL244246  41.690  18.999   6.150
 7788POPC   C1A44247  41.520  19.107   6.450
 7788POPC   D2A44248  41.580  19.069   6.750
 7788POPC   C3A44249  41.525  19.023   7.050
 7788POPC   C4A44250  41.510  19.068   7.350
 7788POPC   C1B44251  41.789  18.916   6.450
 7788POPC   C2B44252  41.749  18.938   6.750
 7788POPC   C3B44253  41.797  18.933   7.050
 7788POPC   C4B44254  41.770  18.916   7.350
 7789POPC   NC344255   5.102  29.928   5.550
 7789POPC   PO444256   5.086  29.897   5.850
 7789POPC   GL144257   5.074  29.878   6.150
 7789POPC   GL244258   4.989  29.968   6.150
 7789POPC   C1A44259   5.132  29.927   6.450
 7789POPC   D2A44260   5.070  29.955   6.750
 7789POPC   C3A44261   5.133  29.944   7.050
 7789POPC   C4A44262   5.070  29.893   7.350
 7789POPC   C1B44263   4.880  29.971   6.450
 7789POPC   C2B44264   4.879  30.018   6.750
 7789POPC   C3B44265   4.887  30.010   7.050
 7789POPC   C4B44266   4.860  29.987   7.350
 7790POPC   NC344267  15.173  44.706   5.550
 7790POPC   PO444268  15.201  44.672   5.850
 7790POPC   GL144269  15.174  44.700   6.150
 7790POPC   GL244270  15.327  44.612   6.150
 7790POPC   C1A44271  15.150  44.616   6.450
 7790POPC   D2A44272  15.229  44.703   6.750
 7790POPC   C3A44273  15.227  44.633   7.050
 7790POPC   C4A44274  15.176  44.677   7.350
 7790POPC   C1B44275  15.361  44.539   6.450
 7790POPC   C2B44276  15.409  44.565   6.750
 7790POPC   C3B44277  15.459  44.555   7.050
 7790POPC   C4B44278  15.366  44.595   7.350
 7791POPC   NC344279  37.724  25.291   5.550
 7791POPC   PO444280  37.721  25.311   5.850
 7791POPC   GL144281  37.672  25.260   6.150
 7791POPC   GL244282  37.779  25.249   6.150
 7791POPC   C1A44283  37.670  25.227   6.450
 7791POPC   D2A44284  37.691  25.277   6.750
 7791POPC   C3A44285  37.680  25.249   7.050
 7791POPC   C4A44286  37.640  25.261   7.350
 7791POPC   C1B44287  37.888  25.265   6.450
 7791POPC   C2B44288  37.932  25.262   6.750
 7791POPC   C3B44289  37.936  25.261   7.050
 7791POPC   C4B44290  37.947  25.336   7.350
 7792POPC   NC344291  14.378  36.163   5.550
 7792POPC   PO444292  14.396  36.078   5.850
 7792POPC   GL144293  14.449  36.103   6.150
 7792POPC   GL244294  14.395  36.255   6.150
 7792POPC   C1A44295  14.395  36.112   6.450
 7792POPC   D2A44296  14.358  36.135   6.750
 7792POPC   C3A44297  14.415  36.114   7.050
 7792POPC   C4A44298  14.397  36.088   7.350
 7792POPC   C1B44299  14.283  36.395   6.450
 7792POPC   C2B44300  14.324  36.334   6.750
 7792POPC   C3B44301  14.326  36.389   7.050
 7792POPC   C4B44302  14.287  36.324   7.350
 7793POPC   NC344303  10.499   4.336   5.550
 7793POPC   PO444304  10.563   4.365   5.850
 7793POPC   GL144305  10.544   4.359   6.150
 7793POPC   GL244306  10.375   4.327   6.150
 7793POPC   C1A44307  10.492   4.331   6.450
 7793POPC   D2A44308  10.505   4.319   6.750
 7793POPC   C3A44309  10.571   4.285   7.050
 7793POPC   C4A44310  10.519   4.325   7.350
 7793POPC   C1B44311  10.259   4.263   6.450
 7793POPC   C2B44312  10.238   4.222   6.750
 7793POPC   C3B44313  10.296   4.194   7.050
 7793POPC   C4B44314  10.271   4.285   7.350
 7794POPC   NC344315   5.074  34.528   5.550
 7794POPC   PO444316   5.114  34.587   5.850
 7794POPC   GL144317   5.056  34.606   6.150
 7794POPC   GL244318   5.220  34.521   6.150
 7794POPC   C1A44319   5.060  34.542   6.450
 7794POPC   D2A44320   5.138  34.546   6.750
 7794POPC   C3A44321   5.140  34.600   7.050
 7794POPC   C4A44322   5.064  34.543   7.350
 7794POPC   C1B44323   5.355  34.545   6.450
 7794POPC   C2B44324   5.319  34.570   6.750
 7794POPC   C3B44325   5.376  34.579   7.050
 7794POPC   C4B44326   5.293  34.524   7.350
 7795POPC   NC344327   7.450  12.089   5.550
 7795POPC   PO444328   7.376  12.075   5.850
 7795POPC   GL144329   7.405  12.031   6.150
 7795POPC   GL244330   7.536  12.123   6.150
 7795POPC   C1A44331   7.389  12.098   6.450
 7795POPC   D2A44332   7.408  12.055   6.750
 7795POPC   C3A44333   7.388  12.116   7.050
 7795POPC   C4A44334   7.386  12.119   7.350
 7795POPC   C1B44335   7.603  12.251   6.450
 7795POPC   C2B44336   7.617  12.205   6.750
 7795POPC   C3B44337   7.616  12.238   7.050
 7795POPC   C4B44338   7.654  12.193   7.350
 7796POPC   NC344339  26.780  39.279   5.550
 7796POPC   PO444340  26.795  39.230   5.850
 7796POPC   GL144341  26.846  39.244   6.150
 7796POPC   GL244342  26.959  39.220   6.150
 7796POPC   C1A44343  26.773  39.181   6.450
 7796POPC   D2A44344  26.833  39.222   6.750
 7796POPC   C3A44345  26.805  39.214   7.050
 7796POPC   C4A44346  26.840  39.226   7.350
 7796POPC   C1B44347  27.014  39.337   6.450
 7796POPC   C2B44348  27.061  39.282   6.750
 7796POPC   C3B44349  27.011  39.298   7.050
 7796POPC   C4B44350  27.024  39.308   7.350
 7797POPC   NC344351  24.495   4.362   5.550
 7797POPC   PO444352  24.447   4.305   5.850
 7797POPC   GL144353  24.520   4.362   6.150
 7797POPC   GL244354  24.360   4.242   6.150
 7797POPC   C1A44355  24.471   4.278   6.450
 7797POPC   D2A44356  24.493   4.272   6.750
 7797POPC   C3A44357  24.509   4.299   7.050
 7797POPC   C4A44358  24.469   4.323   7.350
 7797POPC   C1B44359  24.324   4.210   6.450
 7797POPC   C2B44360  24.288   4.227   6.750
 7797POPC   C3B44361  24.240   4.176   7.050
 7797POPC   C4B44362  24.256   4.147   7.350
 7798POPC   NC344363  43.895  33.042   5.550
 7798POPC   PO444364  43.912  33.022   5.850
 7798POPC   GL144365  43.850  33.036   6.150
 7798POPC   GL244366  43.802  32.921   6.150
 7798POPC   C1A44367  43.845  33.017   6.450
 7798POPC   D2A44368  43.915  33.020   6.750
 7798POPC   C3A44369  43.931  32.982   7.050
 7798POPC   C4A44370  43.853  33.037   7.350
 7798POPC   C1B44371  43.669  32.855   6.450
 7798POPC   C2B44372  43.718  32.881   6.750
 7798POPC   C3B44373  43.697  32.848   7.050
 7798POPC   C4B44374  43.686  32.871   7.350
 7799POPC   NC344375   8.937  32.981   5.550
 7799POPC   PO444376   8.973  33.027   5.850
 7799POPC   GL144377   8.981  32.997   6.150
 7799POPC   GL244378   8.877  32.962   6.150
 7799POPC   C1A44379   8.936  32.993   6.450
 7799POPC   D2A44380   8.977  33.045   6.750
 7799POPC   C3A44381   8.945  33.012   7.050
 7799POPC   C4A44382   9.001  33.046   7.350
 7799POPC   C1B44383   8.768  32.957   6.450
 7799POPC   C2B44384   8.706  32.941   6.750
 7799POPC   C3B44385   8.714  32.930   7.050
 7799POPC   C4B44386   8.681  32.929   7.350
 7800POPC   NC344387  41.582  14.393   5.550
 7800POPC   PO444388  41.568  14.393   5.850
 7800POPC   GL144389  41.581  14.391   6.150
 7800POPC   GL244390  41.467  14.287   6.150
 7800POPC   C1A44391  41.605  14.444   6.450
 7800POPC   D2A44392  41.556  14.421   6.750
 7800POPC   C3A44393  41.543  14.411   7.050
 7800POPC   C4A44394  41.551  14.445   7.350
 7800POPC   C1B44395  41.394  14.244   6.450
 7800POPC   C2B44396  41.331  14.184   6.750
 7800POPC   C3B44397  41.399  14.226   7.050
 7800POPC   C4B44398  41.382  14.247   7.350
 7801POPC   NC344399  40.818  28.398   5.550
 7801POPC   PO444400  40.773  28.375   5.850
 7801POPC   GL144401  40.761  28.373   6.150
 7801POPC   GL244402  40.707  28.224   6.150
 7801POPC   C1A44403  40.815  28.331   6.450
 7801POPC   D2A44404  40.812  28.367   6.750
 7801POPC   C3A44405  40.752  28.388   7.050
 7801POPC   C4A44406  40.821  28.344   7.350
 7801POPC   C1B44407  40.629  28.170   6.450
 7801POPC   C2B44408  40.670  28.148   6.750
 7801POPC   C3B44409  40.664  28.188   7.050
 7801POPC   C4B44410  40.679  28.201   7.350
 7802POPC   NC344411  22.125   7.380   5.550
 7802POPC   PO444412  22.211   7.374   5.850
 7802POPC   GL144413  22.180   7.440   6.150
 7802POPC   GL244414  22.146   7.293   6.150
 7802POPC   C1A44415  22.194   7.436   6.450
 7802POPC   D2A44416  22.173   7.402   6.750
 7802POPC   C3A44417  22.144   7.413   7.050
 7802POPC   C4A44418  22.148   7.461   7.350
 7802POPC   C1B44419  22.127   7.156   6.450
 7802POPC   C2B44420  22.085   7.208   6.750
 7802POPC   C3B44421  22.141   7.148   7.050
 7802POPC   C4B44422  22.069   7.203   7.350
 7803POPC   NC344423  38.499  30.737   5.550
 7803POPC   PO444424  38.421  30.691   5.850
 7803POPC   GL144425  38.408  30.724   6.150
 7803POPC   GL244426  38.502  30.799   6.150
 7803POPC   C1A44427  38.461  30.673   6.450
 7803POPC   D2A44428  38.448  30.659   6.750
 7803POPC   C3A44429  38.453  30.738   7.050
 7803POPC   C4A44430  38.431  30.736   7.350
 7803POPC   C1B44431  38.613  30.895   6.450
 7803POPC   C2B44432  38.622  30.931   6.750
 7803POPC   C3B44433  38.572  30.875   7.050
 7803POPC   C4B44434  38.557  30.870   7.350
 7804POPC   NC344435  26.815  15.166   5.550
 7804POPC   PO444436  26.830  15.141   5.850
 7804POPC   GL144437  26.845  15.130   6.150
 7804POPC   GL244438  26.888  15.114   6.150
 7804POPC   C1A44439  26.821  15.175   6.450
 7804POPC   D2A44440  26.863  15.207   6.750
 7804POPC   C3A44441  26.855  15.197   7.050
 7804POPC   C4A44442  26.847  15.220   7.350
 7804POPC   C1B44443  26.969  14.975   6.450
 7804POPC   C2B44444  26.915  14.986   6.750
 7804POPC   C3B44445  26.945  14.975   7.050
 7804POPC   C4B44446  26.881  14.976   7.350
 7805POPC   NC344447  41.608  41.537   5.550
 7805POPC   PO444448  41.595  41.562   5.850
 7805POPC   GL144449  41.544  41.602   6.150
 7805POPC   GL244450  41.502  41.614   6.150
 7805POPC   C1A44451  41.544  41.593   6.450
 7805POPC   D2A44452  41.603  41.512   6.750
 7805POPC   C3A44453  41.597  41.550   7.050
 7805POPC   C4A44454  41.571  41.567   7.350
 7805POPC   C1B44455  41.383  41.724   6.450
 7805POPC   C2B44456  41.392  41.726   6.750
 7805POPC   C3B44457  41.362  41.718   7.050
 7805POPC   C4B44458  41.376  41.737   7.350
 7806POPC   NC344459   9.712  38.408   5.550
 7806POPC   PO444460   9.745  38.505   5.850
 7806POPC   GL144461   9.719  38.476   6.150
 7806POPC   GL244462   9.696  38.343   6.150
 7806POPC   C1A44463   9.764  38.501   6.450
 7806POPC   D2A44464   9.781  38.428   6.750
 7806POPC   C3A44465   9.766  38.482   7.050
 7806POPC   C4A44466   9.712  38.408   7.350
 7806POPC   C1B44467   9.596  38.312   6.450
 7806POPC   C2B44468   9.608  38.329   6.750
 7806POPC   C3B44469   9.617  38.282   7.050
 7806POPC   C4B44470   9.580  38.321   7.350
 7807POPC   NC344471  18.320  35.358   5.550
 7807POPC   PO444472  18.256  35.318   5.850
 7807POPC   GL144473  18.281  35.373   6.150
 7807POPC   GL244474  18.169  35.402   6.150
 7807POPC   C1A44475  18.283  35.352   6.450
 7807POPC   D2A44476  18.272  35.337   6.750
 7807POPC   C3A44477  18.293  35.354   7.050
 7807POPC   C4A44478  18.258  35.304   7.350
 7807POPC   C1B44479  18.076  35.557   6.450
 7807POPC   C2B44480  18.082  35.525   6.750
 7807POPC   C3B44481  18.047  35.529   7.050
 7807POPC   C4B44482  18.109  35.491   7.350
 7808POPC   NC344483  29.134   2.754   5.550
 7808POPC   PO444484  29.109   2.760   5.850
 7808POPC   GL144485  29.159   2.748   6.150
 7808POPC   GL244486  29.002   2.747   6.150
 7808POPC   C1A44487  29.152   2.727   6.450
 7808POPC   D2A44488  29.142   2.729   6.750
 7808POPC   C3A44489  29.141   2.810   7.050
 7808POPC   C4A44490  29.131   2.717   7.350
 7808POPC   C1B44491  28.966   2.669   6.450
 7808POPC   C2B44492  28.910   2.618   6.750
 7808POPC   C3B44493  28.981   2.641   7.050
 7808POPC   C4B44494  28.972   2.629   7.350
 7809POPC   NC344495   0.467   1.968   5.550
 7809POPC   PO444496   0.423   1.990   5.850
 7809POPC   GL144497   0.412   2.038   6.150
 7809POPC   GL244498   0.336   1.944   6.150
 7809POPC   C1A44499   0.389   1.989   6.450
 7809POPC   D2A44500   0.436   1.953   6.750
 7809POPC   C3A44501   0.415   1.986   7.050
 7809POPC   C4A44502   0.403   2.028   7.350
 7809POPC   C1B44503   0.156   1.916   6.450
 7809POPC   C2B44504   0.189   1.870   6.750
 7809POPC   C3B44505   0.181   1.929   7.050
 7809POPC   C4B44506   0.191   1.945   7.350
 7810POPC   NC344507  37.690  32.988   5.550
 7810POPC   PO444508  37.722  32.977   5.850
 7810POPC   GL144509  37.631  33.048   6.150
 7810POPC   GL244510  37.535  32.926   6.150
 7810POPC   C1A44511  37.655  33.062   6.450
 7810POPC   D2A44512  37.662  32.979   6.750
 7810POPC   C3A44513  37.696  33.062   7.050
 7810POPC   C4A44514  37.719  32.988   7.350
 7810POPC   C1B44515  37.507  32.912   6.450
 7810POPC   C2B44516  37.443  32.922   6.750
 7810POPC   C3B44517  37.482  32.927   7.050
 7810POPC   C4B44518  37.469  32.873   7.350
 7811POPC   NC344519  33.769  27.570   5.550
 7811POPC   PO444520  33.838  27.593   5.850
 7811POPC   GL144521  33.831  27.621   6.150
 7811POPC   GL244522  33.871  27.432   6.150
 7811POPC   C1A44523  33.812  27.605   6.450
 7811POPC   D2A44524  33.846  27.629   6.750
 7811POPC   C3A44525  33.817  27.547   7.050
 7811POPC   C4A44526  33.768  27.587   7.350
 7811POPC   C1B44527  33.814  27.390   6.450
 7811POPC   C2B44528  33.841  27.341   6.750
 7811POPC   C3B44529  33.838  27.353   7.050
 7811POPC   C4B44530  33.876  27.365   7.350
 7812POPC   NC344531  36.124  43.932   5.550
 7812POPC   PO444532  36.087  43.867   5.850
 7812POPC   GL144533  36.155  43.928   6.150
 7812POPC   GL244534  36.230  43.916   6.150
 7812POPC   C1A44535  36.168  43.860   6.450
 7812POPC   D2A44536  36.089  43.936   6.750
 7812POPC   C3A44537  36.143  43.868   7.050
 7812POPC   C4A44538  36.118  43.909   7.350
 7812POPC   C1B44539  36.320  44.055   6.450
 7812POPC   C2B44540  36.385  44.035   6.750
 7812POPC   C3B44541  36.329  44.069   7.050
 7812POPC   C4B44542  36.301  44.035   7.350
 7813POPC   NC344543   6.678  31.510   5.550
 7813POPC   PO444544   6.658  31.461   5.850
 7813POPC   GL144545   6.676  31.424   6.150
 7813POPC   GL244546   6.657  31.590   6.150
 7813POPC   C1A44547   6.664  31.486   6.450
 7813POPC   D2A44548   6.604  31.435   6.750
 7813POPC   C3A44549   6.599  31.447   7.050
 7813POPC   C4A44550   6.639  31.478   7.350
 7813POPC   C1B44551   6.584  31.678   6.450
 7813POPC   C2B44552   6.607  31.719   6.750
 7813POPC   C3B44553   6.602  31.677   7.050
 7813POPC   C4B44554   6.630  31.681   7.350
 7814POPC   NC344555  43.129  14.386   5.550
 7814POPC   PO444556  43.151  14.384   5.850
 7814POPC   GL144557  43.108  14.374   6.150
 7814POPC   GL244558  42.996  14.306   6.150
 7814POPC   C1A44559  43.078  14.405   6.450
 7814POPC   D2A44560  43.092  14.394   6.750
 7814POPC   C3A44561  43.117  14.403   7.050
 7814POPC   C4A44562  43.077  14.416   7.350
 7814POPC   C1B44563  42.939  14.172   6.450
 7814POPC   C2B44564  42.918  14.216   6.750
 7814POPC   C3B44565  42.924  14.182   7.050
 7814POPC   C4B44566  42.983  14.260   7.350
 7815POPC   NC344567  22.142  40.812   5.550
 7815POPC   PO444568  22.181  40.776   5.850
 7815POPC   GL144569  22.195  40.759   6.150
 7815POPC   GL244570  22.142  40.891   6.150
 7815POPC   C1A44571  22.126  40.766   6.450
 7815POPC   D2A44572  22.151  40.832   6.750
 7815POPC   C3A44573  22.140  40.832   7.050
 7815POPC   C4A44574  22.150  40.815   7.350
 7815POPC   C1B44575  22.074  41.015   6.450
 7815POPC   C2B44576  22.012  41.002   6.750
 7815POPC   C3B44577  22.016  41.025   7.050
 7815POPC   C4B44578  22.017  40.990   7.350
 7816POPC   NC344579  34.564  12.877   5.550
 7816POPC   PO444580  34.614  12.872   5.850
 7816POPC   GL144581  34.569  12.852   6.150
 7816POPC   GL244582  34.621  12.931   6.150
 7816POPC   C1A44583  34.537  12.848   6.450
 7816POPC   D2A44584  34.622  12.895   6.750
 7816POPC   C3A44585  34.545  12.818   7.050
 7816POPC   C4A44586  34.544  12.852   7.350
 7816POPC   C1B44587  34.650  13.058   6.450
 7816POPC   C2B44588  34.572  13.079   6.750
 7816POPC   C3B44589  34.613  13.137   7.050
 7816POPC   C4B44590  34.609  13.140   7.350
 7817POPC   NC344591  40.047  21.421   5.550
 7817POPC   PO444592  40.026  21.427   5.850
 7817POPC   GL144593  39.998  21.427   6.150
 7817POPC   GL244594  39.877  21.419   6.150
 7817POPC   C1A44595  40.041  21.388   6.450
 7817POPC   D2A44596  40.039  21.337   6.750
 7817POPC   C3A44597  39.998  21.372   7.050
 7817POPC   C4A44598  40.030  21.394   7.350
 7817POPC   C1B44599  39.756  21.383   6.450
 7817POPC   C2B44600  39.721  21.424   6.750
 7817POPC   C3B44601  39.743  21.440   7.050
 7817POPC   C4B44602  39.717  21.433   7.350
 7818POPC   NC344603  35.381  22.172   5.550
 7818POPC   PO444604  35.378  22.153   5.850
 7818POPC   GL144605  35.308  22.188   6.150
 7818POPC   GL244606  35.274  22.101   6.150
 7818POPC   C1A44607  35.376  22.173   6.450
 7818POPC   D2A44608  35.344  22.140   6.750
 7818POPC   C3A44609  35.341  22.197   7.050
 7818POPC   C4A44610  35.324  22.196   7.350
 7818POPC   C1B44611  35.150  22.125   6.450
 7818POPC   C2B44612  35.147  22.054   6.750
 7818POPC   C3B44613  35.085  22.055   7.050
 7818POPC   C4B44614  35.082  22.138   7.350
 7819POPC   NC344615  43.119  42.289   5.550
 7819POPC   PO444616  43.138  42.370   5.850
 7819POPC   GL144617  43.150  42.360   6.150
 7819POPC   GL244618  43.177  42.435   6.150
 7819POPC   C1A44619  43.124  42.321   6.450
 7819POPC   D2A44620  43.086  42.320   6.750
 7819POPC   C3A44621  43.149  42.326   7.050
 7819POPC   C4A44622  43.154  42.371   7.350
 7819POPC   C1B44623  43.322  42.518   6.450
 7819POPC   C2B44624  43.308  42.470   6.750
 7819POPC   C3B44625  43.285  42.552   7.050
 7819POPC   C4B44626  43.241  42.484   7.350
 7820POPC   NC344627   8.217  43.068   5.550
 7820POPC   PO444628   8.200  43.138   5.850
 7820POPC   GL144629   8.179  43.086   6.150
 7820POPC   GL244630   8.190  43.241   6.150
 7820POPC   C1A44631   8.223  43.075   6.450
 7820POPC   D2A44632   8.190  43.149   6.750
 7820POPC   C3A44633   8.228  43.134   7.050
 7820POPC   C4A44634   8.232  43.132   7.350
 7820POPC   C1B44635   8.110  43.305   6.450
 7820POPC   C2B44636   8.118  43.371   6.750
 7820POPC   C3B44637   8.099  43.296   7.050
 7820POPC   C4B44638   8.095  43.329   7.350
 7821POPC   NC344639   8.169  17.472   5.550
 7821POPC   PO444640   8.236  17.497   5.850
 7821POPC   GL144641   8.231  17.465   6.150
 7821POPC   GL244642   8.144  17.375   6.150
 7821POPC   C1A44643   8.164  17.473   6.450
 7821POPC   D2A44644   8.216  17.468   6.750
 7821POPC   C3A44645   8.239  17.538   7.050
 7821POPC   C4A44646   8.176  17.486   7.350
 7821POPC   C1B44647   8.065  17.263   6.450
 7821POPC   C2B44648   8.078  17.247   6.750
 7821POPC   C3B44649   8.058  17.265   7.050
 7821POPC   C4B44650   8.091  17.246   7.350
 7822POPC   NC344651  21.364   7.374   5.550
 7822POPC   PO444652  21.351   7.407   5.850
 7822POPC   GL144653  21.375   7.376   6.150
 7822POPC   GL244654  21.281   7.420   6.150
 7822POPC   C1A44655  21.415   7.440   6.450
 7822POPC   D2A44656  21.418   7.423   6.750
 7822POPC   C3A44657  21.403   7.400   7.050
 7822POPC   C4A44658  21.366   7.446   7.350
 7822POPC   C1B44659  21.164   7.500   6.450
 7822POPC   C2B44660  21.118   7.438   6.750
 7822POPC   C3B44661  21.107   7.441   7.050
 7822POPC   C4B44662  21.144   7.485   7.350
 7823POPC   NC344663  15.173   1.196   5.550
 7823POPC   PO444664  15.131   1.178   5.850
 7823POPC   GL144665  15.185   1.213   6.150
 7823POPC   GL244666  15.055   1.319   6.150
 7823POPC   C1A44667  15.217   1.212   6.450
 7823POPC   D2A44668  15.186   1.197   6.750
 7823POPC   C3A44669  15.196   1.172   7.050
 7823POPC   C4A44670  15.140   1.217   7.350
 7823POPC   C1B44671  15.013   1.390   6.450
 7823POPC   C2B44672  15.002   1.441   6.750
 7823POPC   C3B44673  15.025   1.411   7.050
 7823POPC   C4B44674  15.006   1.423   7.350
 7824POPC   NC344675  32.974   3.535   5.550
 7824POPC   PO444676  32.997   3.524   5.850
 7824POPC   GL144677  33.017   3.516   6.150
 7824POPC   GL244678  33.071   3.626   6.150
 7824POPC   C1A44679  32.975   3.520   6.450
 7824POPC   D2A44680  33.061   3.568   6.750
 7824POPC   C3A44681  32.981   3.515   7.050
 7824POPC   C4A44682  32.981   3.513   7.350
 7824POPC   C1B44683  33.000   3.803   6.450
 7824POPC   C2B44684  33.043   3.837   6.750
 7824POPC   C3B44685  33.078   3.828   7.050
 7824POPC   C4B44686  33.080   3.748   7.350
 7825POPC   NC344687  32.248   9.737   5.550
 7825POPC   PO444688  32.234   9.796   5.850
 7825POPC   GL144689  32.279   9.707   6.150
 7825POPC   GL244690  32.116   9.785   6.150
 7825POPC   C1A44691  32.216   9.732   6.450
 7825POPC   D2A44692  32.258   9.707   6.750
 7825POPC   C3A44693  32.255   9.786   7.050
 7825POPC   C4A44694  32.293   9.741   7.350
 7825POPC   C1B44695  32.019   9.873   6.450
 7825POPC   C2B44696  32.057   9.828   6.750
 7825POPC   C3B44697  32.005   9.831   7.050
 7825POPC   C4B44698  31.997   9.854   7.350
 7826POPC   NC344699  33.038  29.941   5.550
 7826POPC   PO444700  33.058  29.915   5.850
 7826POPC   GL144701  32.992  29.934   6.150
 7826POPC   GL244702  33.035  29.803   6.150
 7826POPC   C1A44703  33.064  29.891   6.450
 7826POPC   D2A44704  33.039  29.945   6.750
 7826POPC   C3A44705  33.048  29.901   7.050
 7826POPC   C4A44706  33.041  29.887   7.350
 7826POPC   C1B44707  32.988  29.628   6.450
 7826POPC   C2B44708  33.012  29.712   6.750
 7826POPC   C3B44709  33.046  29.629   7.050
 7826POPC   C4B44710  33.018  29.655   7.350
 7827POPC   NC344711  21.434   9.744   5.550
 7827POPC   PO444712  21.377   9.699   5.850
 7827POPC   GL144713  21.395   9.700   6.150
 7827POPC   GL244714  21.468   9.809   6.150
 7827POPC   C1A44715  21.427   9.774   6.450
 7827POPC   D2A44716  21.427   9.780   6.750
 7827POPC   C3A44717  21.400   9.756   7.050
 7827POPC   C4A44718  21.409   9.789   7.350
 7827POPC   C1B44719  21.608   9.876   6.450
 7827POPC   C2B44720  21.558   9.944   6.750
 7827POPC   C3B44721  21.541   9.947   7.050
 7827POPC   C4B44722  21.616   9.886   7.350
 7828POPC   NC344723  36.924  29.164   5.550
 7828POPC   PO444724  36.933  29.156   5.850
 7828POPC   GL144725  36.914  29.175   6.150
 7828POPC   GL244726  36.792  29.149   6.150
 7828POPC   C1A44727  36.874  29.142   6.450
 7828POPC   D2A44728  36.896  29.137   6.750
 7828POPC   C3A44729  36.863  29.179   7.050
 7828POPC   C4A44730  36.880  29.141   7.350
 7828POPC   C1B44731  36.657  29.092   6.450
 7828POPC   C2B44732  36.621  29.119   6.750
 7828POPC   C3B44733  36.645  29.103   7.050
 7828POPC   C4B44734  36.620  29.170   7.350
 7829POPC   NC344735   4.306   1.204   5.550
 7829POPC   PO444736   4.285   1.166   5.850
 7829POPC   GL144737   4.324   1.173   6.150
 7829POPC   GL244738   4.264   1.085   6.150
 7829POPC   C1A44739   4.267   1.179   6.450
 7829POPC   D2A44740   4.294   1.173   6.750
 7829POPC   C3A44741   4.275   1.236   7.050
 7829POPC   C4A44742   4.305   1.249   7.350
 7829POPC   C1B44743   4.132   1.079   6.450
 7829POPC   C2B44744   4.086   1.073   6.750
 7829POPC   C3B44745   4.144   1.005   7.050
 7829POPC   C4B44746   4.142   1.066   7.350
 7830POPC   NC344747   2.784  43.893   5.550
 7830POPC   PO444748   2.797  43.907   5.850
 7830POPC   GL144749   2.754  43.903   6.150
 7830POPC   GL244750   2.634  43.803   6.150
 7830POPC   C1A44751   2.789  43.880   6.450
 7830POPC   D2A44752   2.784  43.865   6.750
 7830POPC   C3A44753   2.751  43.898   7.050
 7830POPC   C4A44754   2.771  43.934   7.350
 7830POPC   C1B44755   2.552  43.753   6.450
 7830POPC   C2B44756   2.585  43.718   6.750
 7830POPC   C3B44757   2.550  43.784   7.050
 7830POPC   C4B44758   2.589  43.778   7.350
 7831POPC   NC344759  35.320  34.586   5.550
 7831POPC   PO444760  35.351  34.617   5.850
 7831POPC   GL144761  35.308  34.620   6.150
 7831POPC   GL244762  35.333  34.734   6.150
 7831POPC   C1A44763  35.331  34.590   6.450
 7831POPC   D2A44764  35.345  34.553   6.750
 7831POPC   C3A44765  35.381  34.543   7.050
 7831POPC   C4A44766  35.318  34.557   7.350
 7831POPC   C1B44767  35.410  34.872   6.450
 7831POPC   C2B44768  35.339  34.830   6.750
 7831POPC   C3B44769  35.414  34.871   7.050
 7831POPC   C4B44770  35.360  34.863   7.350
 7832POPC   NC344771  39.195  12.835   5.550
 7832POPC   PO444772  39.183  12.849   5.850
 7832POPC   GL144773  39.209  12.811   6.150
 7832POPC   GL244774  39.141  12.894   6.150
 7832POPC   C1A44775  39.187  12.884   6.450
 7832POPC   D2A44776  39.280  12.897   6.750
 7832POPC   C3A44777  39.265  12.901   7.050
 7832POPC   C4A44778  39.203  12.814   7.350
 7832POPC   C1B44779  39.026  12.918   6.450
 7832POPC   C2B44780  38.940  12.924   6.750
 7832POPC   C3B44781  39.011  12.874   7.050
 7832POPC   C4B44782  38.957  12.836   7.350
 7833POPC   NC344783  23.745   0.396   5.550
 7833POPC   PO444784  23.731   0.407   5.850
 7833POPC   GL144785  23.751   0.432   6.150
 7833POPC   GL244786  23.835   0.512   6.150
 7833POPC   C1A44787  23.751   0.460   6.450
 7833POPC   D2A44788  23.733   0.398   6.750
 7833POPC   C3A44789  23.731   0.388   7.050
 7833POPC   C4A44790  23.764   0.458   7.350
 7833POPC   C1B44791  23.900   0.523   6.450
 7833POPC   C2B44792  23.948   0.532   6.750
 7833POPC   C3B44793  23.921   0.540   7.050
 7833POPC   C4B44794  23.918   0.582   7.350
 7834POPC   NC344795   5.130  27.643   5.550
 7834POPC   PO444796   5.131  27.641   5.850
 7834POPC   GL144797   5.101  27.628   6.150
 7834POPC   GL244798   5.009  27.604   6.150
 7834POPC   C1A44799   5.080  27.606   6.450
 7834POPC   D2A44800   5.111  27.567   6.750
 7834POPC   C3A44801   5.088  27.588   7.050
 7834POPC   C4A44802   5.043  27.562   7.350
 7834POPC   C1B44803   4.836  27.665   6.450
 7834POPC   C2B44804   4.849  27.641   6.750
 7834POPC   C3B44805   4.870  27.591   7.050
 7834POPC   C4B44806   4.818  27.617   7.350
 7835POPC   NC344807  36.162  31.505   5.550
 7835POPC   PO444808  36.137  31.440   5.850
 7835POPC   GL144809  36.096  31.441   6.150
 7835POPC   GL244810  36.072  31.534   6.150
 7835POPC   C1A44811  36.096  31.454   6.450
 7835POPC   D2A44812  36.078  31.487   6.750
 7835POPC   C3A44813  36.140  31.480   7.050
 7835POPC   C4A44814  36.151  31.446   7.350
 7835POPC   C1B44815  35.984  31.620   6.450
 7835POPC   C2B44816  36.010  31.706   6.750
 7835POPC   C3B44817  35.977  31.671   7.050
 7835POPC   C4B44818  35.973  31.648   7.350
 7836POPC   NC344819  29.880  29.882   5.550
 7836POPC   PO444820  29.963  29.924   5.850
 7836POPC   GL144821  29.954  29.951   6.150
 7836POPC   GL244822  29.811  30.028   6.150
 7836POPC   C1A44823  29.965  29.966   6.450
 7836POPC   D2A44824  29.929  29.897   6.750
 7836POPC   C3A44825  29.918  29.934   7.050
 7836POPC   C4A44826  29.970  29.894   7.350
 7836POPC   C1B44827  29.693  30.139   6.450
 7836POPC   C2B44828  29.756  30.091   6.750
 7836POPC   C3B44829  29.740  30.124   7.050
 7836POPC   C4B44830  29.723  30.071   7.350
 7837POPC   NC344831  24.456  28.341   5.550
 7837POPC   PO444832  24.444  28.361   5.850
 7837POPC   GL144833  24.493  28.322   6.150
 7837POPC   GL244834  24.522  28.306   6.150
 7837POPC   C1A44835  24.533  28.364   6.450
 7837POPC   D2A44836  24.486  28.331   6.750
 7837POPC   C3A44837  24.516  28.370   7.050
 7837POPC   C4A44838  24.444  28.401   7.350
 7837POPC   C1B44839  24.568  28.189   6.450
 7837POPC   C2B44840  24.579  28.114   6.750
 7837POPC   C3B44841  24.648  28.181   7.050
 7837POPC   C4B44842  24.570  28.141   7.350
 7838POPC   NC344843  33.773  37.705   5.550
 7838POPC   PO444844  33.849  37.681   5.850
 7838POPC   GL144845  33.839  37.680   6.150
 7838POPC   GL244846  33.751  37.620   6.150
 7838POPC   C1A44847  33.754  37.687   6.450
 7838POPC   D2A44848  33.831  37.647   6.750
 7838POPC   C3A44849  33.847  37.718   7.050
 7838POPC   C4A44850  33.790  37.680   7.350
 7838POPC   C1B44851  33.686  37.421   6.450
 7838POPC   C2B44852  33.692  37.446   6.750
 7838POPC   C3B44853  33.699  37.493   7.050
 7838POPC   C4B44854  33.618  37.438   7.350
 7839POPC   NC344855  12.115  21.398   5.550
 7839POPC   PO444856  12.124  21.342   5.850
 7839POPC   GL144857  12.102  21.423   6.150
 7839POPC   GL244858  12.045  21.244   6.150
 7839POPC   C1A44859  12.094  21.403   6.450
 7839POPC   D2A44860  12.051  21.350   6.750
 7839POPC   C3A44861  12.085  21.366   7.050
 7839POPC   C4A44862  12.076  21.374   7.350
 7839POPC   C1B44863  11.910  21.182   6.450
 7839POPC   C2B44864  11.938  21.210   6.750
 7839POPC   C3B44865  11.941  21.173   7.050
 7839POPC   C4B44866  11.999  21.172   7.350
 7840POPC   NC344867  29.924  12.050   5.550
 7840POPC   PO444868  29.909  12.095   5.850
 7840POPC   GL144869  29.928  12.089   6.150
 7840POPC   GL244870  29.967  12.152   6.150
 7840POPC   C1A44871  29.961  12.046   6.450
 7840POPC   D2A44872  29.945  12.043   6.750
 7840POPC   C3A44873  29.933  12.028   7.050
 7840POPC   C4A44874  29.899  12.071   7.350
 7840POPC   C1B44875  30.000  12.366   6.450
 7840POPC   C2B44876  29.950  12.353   6.750
 7840POPC   C3B44877  29.974  12.277   7.050
 7840POPC   C4B44878  29.958  12.284   7.350
 7841POPC   NC344879   9.698   9.782   5.550
 7841POPC   PO444880   9.751   9.714   5.850
 7841POPC   GL144881   9.711   9.748   6.150
 7841POPC   GL244882   9.667   9.645   6.150
 7841POPC   C1A44883   9.712   9.731   6.450
 7841POPC   D2A44884   9.766   9.713   6.750
 7841POPC   C3A44885   9.722   9.797   7.050
 7841POPC   C4A44886   9.763   9.778   7.350
 7841POPC   C1B44887   9.550   9.553   6.450
 7841POPC   C2B44888   9.515   9.537   6.750
 7841POPC   C3B44889   9.528   9.563   7.050
 7841POPC   C4B44890   9.597   9.566   7.350
 7842POPC   NC344891  12.087   8.189   5.550
 7842POPC   PO444892  12.054   8.219   5.850
 7842POPC   GL144893  12.073   8.192   6.150
 7842POPC   GL244894  12.175   8.183   6.150
 7842POPC   C1A44895  12.032   8.158   6.450
 7842POPC   D2A44896  12.116   8.214   6.750
 7842POPC   C3A44897  12.085   8.151   7.050
 7842POPC   C4A44898  12.058   8.196   7.350
 7842POPC   C1B44899  12.296   8.115   6.450
 7842POPC   C2B44900  12.282   8.089   6.750
 7842POPC   C3B44901  12.287   8.109   7.050
 7842POPC   C4B44902  12.297   8.146   7.350
 7843POPC   NC344903  27.634   3.502   5.550
 7843POPC   PO444904  27.591   3.516   5.850
 7843POPC   GL144905  27.593   3.519   6.150
 7843POPC   GL244906  27.525   3.456   6.150
 7843POPC   C1A44907  27.544   3.584   6.450
 7843POPC   D2A44908  27.567   3.572   6.750
 7843POPC   C3A44909  27.611   3.566   7.050
 7843POPC   C4A44910  27.562   3.523   7.350
 7843POPC   C1B44911  27.444   3.316   6.450
 7843POPC   C2B44912  27.474   3.377   6.750
 7843POPC   C3B44913  27.445   3.376   7.050
 7843POPC   C4B44914  27.445   3.342   7.350
 7844POPC   NC344915  19.822   9.707   5.550
 7844POPC   PO444916  19.795   9.773   5.850
 7844POPC   GL144917  19.787   9.717   6.150
 7844POPC   GL244918  19.962   9.728   6.150
 7844POPC   C1A44919  19.798   9.774   6.450
 7844POPC   D2A44920  19.847   9.756   6.750
 7844POPC   C3A44921  19.815   9.757   7.050
 7844POPC   C4A44922  19.884   9.776   7.350
 7844POPC   C1B44923  20.087   9.716   6.450
 7844POPC   C2B44924  20.091   9.749   6.750
 7844POPC   C3B44925  20.063   9.729   7.050
 7844POPC   C4B44926  20.075   9.721   7.350
 7845POPC   NC344927   5.131  21.388   5.550
 7845POPC   PO444928   5.084  21.363   5.850
 7845POPC   GL144929   5.141  21.382   6.150
 7845POPC   GL244930   5.002  21.356   6.150
 7845POPC   C1A44931   5.067  21.383   6.450
 7845POPC   D2A44932   5.098  21.353   6.750
 7845POPC   C3A44933   5.087  21.395   7.050
 7845POPC   C4A44934   5.072  21.398   7.350
 7845POPC   C1B44935   4.864  21.279   6.450
 7845POPC   C2B44936   4.912  21.207   6.750
 7845POPC   C3B44937   4.894  21.261   7.050
 7845POPC   C4B44938   4.851  21.218   7.350
 7846POPC   NC344939  36.106  35.383   5.550
 7846POPC   PO444940  36.102  35.315   5.850
 7846POPC   GL144941  36.112  35.316   6.150
 7846POPC   GL244942  36.294  35.354   6.150
 7846POPC   C1A44943  36.102  35.350   6.450
 7846POPC   D2A44944  36.141  35.399   6.750
 7846POPC   C3A44945  36.166  35.305   7.050
 7846POPC   C4A44946  36.152  35.385   7.350
 7846POPC   C1B44947  36.338  35.267   6.450
 7846POPC   C2B44948  36.370  35.249   6.750
 7846POPC   C3B44949  36.393  35.280   7.050
 7846POPC   C4B44950  36.396  35.263   7.350
 7847POPC   NC344951  33.825   5.853   5.550
 7847POPC   PO444952  33.830   5.870   5.850
 7847POPC   GL144953  33.822   5.911   6.150
 7847POPC   GL244954  33.958   5.898   6.150
 7847POPC   C1A44955  33.774   5.877   6.450
 7847POPC   D2A44956  33.771   5.897   6.750
 7847POPC   C3A44957  33.847   5.849   7.050
 7847POPC   C4A44958  33.756   5.900   7.350
 7847POPC   C1B44959  33.976   5.975   6.450
 7847POPC   C2B44960  33.971   5.962   6.750
 7847POPC   C3B44961  34.007   6.038   7.050
 7847POPC   C4B44962  34.065   5.963   7.350
 7848POPC   NC344963   2.716   8.189   5.550
 7848POPC   PO444964   2.786   8.234   5.850
 7848POPC   GL144965   2.742   8.241   6.150
 7848POPC   GL244966   2.914   8.188   6.150
 7848POPC   C1A44967   2.757   8.171   6.450
 7848POPC   D2A44968   2.814   8.147   6.750
 7848POPC   C3A44969   2.764   8.166   7.050
 7848POPC   C4A44970   2.805   8.230   7.350
 7848POPC   C1B44971   2.964   8.102   6.450
 7848POPC   C2B44972   3.027   8.130   6.750
 7848POPC   C3B44973   2.999   8.075   7.050
 7848POPC   C4B44974   2.959   8.128   7.350
 7849POPC   NC344975  12.861  43.090   5.550
 7849POPC   PO444976  12.891  43.140   5.850
 7849POPC   GL144977  12.847  43.085   6.150
 7849POPC   GL244978  13.000  43.111   6.150
 7849POPC   C1A44979  12.873  43.160   6.450
 7849POPC   D2A44980  12.872  43.106   6.750
 7849POPC   C3A44981  12.829  43.132   7.050
 7849POPC   C4A44982  12.864  43.117   7.350
 7849POPC   C1B44983  13.086  43.186   6.450
 7849POPC   C2B44984  13.079  43.208   6.750
 7849POPC   C3B44985  13.062  43.152   7.050
 7849POPC   C4B44986  13.129  43.200   7.350
 7850POPC   NC344987  43.121  21.381   5.550
 7850POPC   PO444988  43.097  21.341   5.850
 7850POPC   GL144989  43.130  21.369   6.150
 7850POPC   GL244990  43.122  21.520   6.150
 7850POPC   C1A44991  43.077  21.400   6.450
 7850POPC   D2A44992  43.111  21.366   6.750
 7850POPC   C3A44993  43.102  21.397   7.050
 7850POPC   C4A44994  43.089  21.433   7.350
 7850POPC   C1B44995  43.188  21.610   6.450
 7850POPC   C2B44996  43.166  21.611   6.750
 7850POPC   C3B44997  43.140  21.681   7.050
 7850POPC   C4B44998  43.095  21.603   7.350
 7851POPC   NC344999   1.953  34.624   5.550
 7851POPC   PO445000   1.962  34.601   5.850
 7851POPC   GL145001   2.001  34.620   6.150
 7851POPC   GL245002   2.099  34.663   6.150
 7851POPC   C1A45003   1.964  34.568   6.450
 7851POPC   D2A45004   1.984  34.578   6.750
 7851POPC   C3A45005   2.028  34.544   7.050
 7851POPC   C4A45006   2.005  34.529   7.350
 7851POPC   C1B45007   2.149  34.768   6.450
 7851POPC   C2B45008   2.232  34.768   6.750
 7851POPC   C3B45009   2.152  34.691   7.050
 7851POPC   C4B45010   2.135  34.714   7.350
 7852POPC   NC345011  15.182   9.780   5.550
 7852POPC   PO445012  15.192   9.718   5.850
 7852POPC   GL145013  15.160   9.741   6.150
 7852POPC   GL245014  15.347   9.746   6.150
 7852POPC   C1A45015  15.192   9.752   6.450
 7852POPC   D2A45016  15.174   9.708   6.750
 7852POPC   C3A45017  15.197   9.774   7.050
 7852POPC   C4A45018  15.166   9.754   7.350
 7852POPC   C1B45019  15.426   9.827   6.450
 7852POPC   C2B45020  15.399   9.834   6.750
 7852POPC   C3B45021  15.465   9.811   7.050
 7852POPC   C4B45022  15.391   9.781   7.350
 7853POPC   NC345023   2.770  23.742   5.550
 7853POPC   PO445024   2.802  23.712   5.850
 7853POPC   GL145025   2.734  23.697   6.150
 7853POPC   GL245026   2.737  23.600   6.150
 7853POPC   C1A45027   2.810  23.700   6.450
 7853POPC   D2A45028   2.782  23.680   6.750
 7853POPC   C3A45029   2.782  23.667   7.050
 7853POPC   C4A45030   2.728  23.732   7.350
 7853POPC   C1B45031   2.811  23.497   6.450
 7853POPC   C2B45032   2.806  23.474   6.750
 7853POPC   C3B45033   2.755  23.496   7.050
 7853POPC   C4B45034   2.781  23.419   7.350
 7854POPC   NC345035  44.699   2.030   5.550
 7854POPC   PO445036  44.672   2.024   5.850
 7854POPC   GL145037  44.696   1.999   6.150
 7854POPC   GL245038  44.768   2.054   6.150
 7854POPC   C1A45039  44.638   1.994   6.450
 7854POPC   D2A45040  44.639   2.037   6.750
 7854POPC   C3A45041  44.702   1.960   7.050
 7854POPC   C4A45042  44.677   1.987   7.350
 7854POPC   C1B45043  44.901   2.043   6.450
 7854POPC   C2B45044  44.866   2.102   6.750
 7854POPC   C3B45045  44.855   2.096   7.050
 7854POPC   C4B45046  44.857   2.069   7.350
 7855POPC   NC345047  39.236  32.233   5.550
 7855POPC   PO445048  39.261  32.247   5.850
 7855POPC   GL145049  39.266  32.251   6.150
 7855POPC   GL245050  39.337  32.368   6.150
 7855POPC   C1A45051  39.249  32.199   6.450
 7855POPC   D2A45052  39.189  32.287   6.750
 7855POPC   C3A45053  39.245  32.206   7.050
 7855POPC   C4A45054  39.259  32.203   7.350
 7855POPC   C1B45055  39.417  32.429   6.450
 7855POPC   C2B45056  39.352  32.394   6.750
 7855POPC   C3B45057  39.345  32.473   7.050
 7855POPC   C4B45058  39.405  32.429   7.350
 7856POPC   NC345059  32.247  44.643   5.550
 7856POPC   PO445060  32.284  44.684   5.850
 7856POPC   GL145061  32.240  44.647   6.150
 7856POPC   GL245062  32.257  44.559   6.150
 7856POPC   C1A45063  32.233  44.665   6.450
 7856POPC   D2A45064  32.296  44.616   6.750
 7856POPC   C3A45065  32.220  44.710   7.050
 7856POPC   C4A45066  32.291  44.623   7.350
 7856POPC   C1B45067  32.294  44.407   6.450
 7856POPC   C2B45068  32.301  44.395   6.750
 7856POPC   C3B45069  32.268  44.449   7.050
 7856POPC   C4B45070  32.320  44.379   7.350
 7857POPC   NC345071  26.853  19.860   5.550
 7857POPC   PO445072  26.857  19.818   5.850
 7857POPC   GL145073  26.834  19.813   6.150
 7857POPC   GL245074  26.835  19.734   6.150
 7857POPC   C1A45075  26.829  19.852   6.450
 7857POPC   D2A45076  26.842  19.815   6.750
 7857POPC   C3A45077  26.862  19.874   7.050
 7857POPC   C4A45078  26.862  19.808   7.350
 7857POPC   C1B45079  26.961  19.589   6.450
 7857POPC   C2B45080  26.907  19.648   6.750
 7857POPC   C3B45081  26.909  19.598   7.050
 7857POPC   C4B45082  26.902  19.624   7.350
 7858POPC   NC345083  38.488  31.432   5.550
 7858POPC   PO445084  38.492  31.440   5.850
 7858POPC   GL145085  38.502  31.467   6.150
 7858POPC   GL245086  38.315  31.453   6.150
 7858POPC   C1A45087  38.413  31.468   6.450
 7858POPC   D2A45088  38.461  31.519   6.750
 7858POPC   C3A45089  38.441  31.462   7.050
 7858POPC   C4A45090  38.475  31.428   7.350
 7858POPC   C1B45091  38.239  31.394   6.450
 7858POPC   C2B45092  38.243  31.466   6.750
 7858POPC   C3B45093  38.198  31.447   7.050
 7858POPC   C4B45094  38.196  31.395   7.350
 7859POPC   NC345095  13.618  23.747   5.550
 7859POPC   PO445096  13.669  23.746   5.850
 7859POPC   GL145097  13.645  23.751   6.150
 7859POPC   GL245098  13.548  23.746   6.150
 7859POPC   C1A45099  13.633  23.700   6.450
 7859POPC   D2A45100  13.588  23.706   6.750
 7859POPC   C3A45101  13.578  23.736   7.050
 7859POPC   C4A45102  13.581  23.716   7.350
 7859POPC   C1B45103  13.471  23.891   6.450
 7859POPC   C2B45104  13.465  23.904   6.750
 7859POPC   C3B45105  13.457  23.910   7.050
 7859POPC   C4B45106  13.389  23.895   7.350
 7860POPC   NC345107  20.596   3.536   5.550
 7860POPC   PO445108  20.618   3.499   5.850
 7860POPC   GL145109  20.597   3.530   6.150
 7860POPC   GL245110  20.575   3.367   6.150
 7860POPC   C1A45111  20.605   3.573   6.450
 7860POPC   D2A45112  20.606   3.573   6.750
 7860POPC   C3A45113  20.660   3.499   7.050
 7860POPC   C4A45114  20.656   3.552   7.350
 7860POPC   C1B45115  20.627   3.332   6.450
 7860POPC   C2B45116  20.552   3.331   6.750
 7860POPC   C3B45117  20.564   3.329   7.050
 7860POPC   C4B45118  20.582   3.288   7.350
 7861POPC   NC345119  40.733  25.993   5.550
 7861POPC   PO445120  40.791  26.034   5.850
 7861POPC   GL145121  40.740  26.067   6.150
 7861POPC   GL245122  40.639  26.100   6.150
 7861POPC   C1A45123  40.782  26.017   6.450
 7861POPC   D2A45124  40.741  26.033   6.750
 7861POPC   C3A45125  40.765  26.032   7.050
 7861POPC   C4A45126  40.754  26.083   7.350
 7861POPC   C1B45127  40.535  26.120   6.450
 7861POPC   C2B45128  40.555  26.160   6.750
 7861POPC   C3B45129  40.529  26.093   7.050
 7861POPC   C4B45130  40.562  26.169   7.350
 7862POPC   NC345131   0.428  29.148   5.550
 7862POPC   PO445132   0.442  29.141   5.850
 7862POPC   GL145133   0.419  29.125   6.150
 7862POPC   GL245134   0.275  29.080   6.150
 7862POPC   C1A45135   0.457  29.144   6.450
 7862POPC   D2A45136   0.479  29.110   6.750
 7862POPC   C3A45137   0.423  29.161   7.050
 7862POPC   C4A45138   0.427  29.174   7.350
 7862POPC   C1B45139   0.170  29.069   6.450
 7862POPC   C2B45140   0.174  29.056   6.750
 7862POPC   C3B45141   0.149  29.048   7.050
 7862POPC   C4B45142   0.203  29.084   7.350
 7863POPC   NC345143   1.192   9.790   5.550
 7863POPC   PO445144   1.255   9.742   5.850
 7863POPC   GL145145   1.241   9.748   6.150
 7863POPC   GL245146   1.045   9.727   6.150
 7863POPC   C1A45147   1.242   9.712   6.450
 7863POPC   D2A45148   1.256   9.731   6.750
 7863POPC   C3A45149   1.245   9.764   7.050
 7863POPC   C4A45150   1.207   9.710   7.350
 7863POPC   C1B45151   0.950   9.811   6.450
 7863POPC   C2B45152   0.946   9.790   6.750
 7863POPC   C3B45153   0.962   9.737   7.050
 7863POPC   C4B45154   0.942   9.783   7.350
 7864POPC   NC345155  32.214  43.866   5.550
 7864POPC   PO445156  32.238  43.894   5.850
 7864POPC   GL145157  32.285  43.899   6.150
 7864POPC   GL245158  32.340  43.963   6.150
 7864POPC   C1A45159  32.257  43.886   6.450
 7864POPC   D2A45160  32.212  43.907   6.750
 7864POPC   C3A45161  32.245  43.916   7.050
 7864POPC   C4A45162  32.208  43.931   7.350
 7864POPC   C1B45163  32.413  44.143   6.450
 7864POPC   C2B45164  32.385  44.063   6.750
 7864POPC   C3B45165  32.373  44.100   7.050
 7864POPC   C4B45166  32.400  44.121   7.350
 7865POPC   NC345167  29.136  36.085   5.550
 7865POPC   PO445168  29.180  36.096   5.850
 7865POPC   GL145169  29.190  36.163   6.150
 7865POPC   GL245170  29.176  36.040   6.150
 7865POPC   C1A45171  29.144  36.083   6.450
 7865POPC   D2A45172  29.181  36.143   6.750
 7865POPC   C3A45173  29.168  36.163   7.050
 7865POPC   C4A45174  29.157  36.141   7.350
 7865POPC   C1B45175  29.200  35.905   6.450
 7865POPC   C2B45176  29.199  35.865   6.750
 7865POPC   C3B45177  29.202  35.919   7.050
 7865POPC   C4B45178  29.208  35.877   7.350
 7866POPC   NC345179   7.418  36.953   5.550
 7866POPC   PO445180   7.381  36.950   5.850
 7866POPC   GL145181   7.439  36.882   6.150
 7866POPC   GL245182   7.538  36.828   6.150
 7866POPC   C1A45183   7.424  36.890   6.450
 7866POPC   D2A45184   7.400  36.903   6.750
 7866POPC   C3A45185   7.394  36.905   7.050
 7866POPC   C4A45186   7.379  36.889   7.350
 7866POPC   C1B45187   7.633  36.756   6.450
 7866POPC   C2B45188   7.618  36.822   6.750
 7866POPC   C3B45189   7.685  36.799   7.050
 7866POPC   C4B45190   7.608  36.830   7.350
 7867POPC   NC345191  11.262  26.091   5.550
 7867POPC   PO445192  11.343  26.049   5.850
 7867POPC   GL145193  11.299  25.993   6.150
 7867POPC   GL245194  11.257  26.163   6.150
 7867POPC   C1A45195  11.258  26.084   6.450
 7867POPC   D2A45196  11.265  26.027   6.750
 7867POPC   C3A45197  11.298  26.088   7.050
 7867POPC   C4A45198  11.342  25.998   7.350
 7867POPC   C1B45199  11.230  26.270   6.450
 7867POPC   C2B45200  11.219  26.223   6.750
 7867POPC   C3B45201  11.212  26.216   7.050
 7867POPC   C4B45202  11.174  26.227   7.350
 7868POPC   NC345203   9.760  13.629   5.550
 7868POPC   PO445204   9.768  13.669   5.850
 7868POPC   GL145205   9.784  13.659   6.150
 7868POPC   GL245206   9.624  13.666   6.150
 7868POPC   C1A45207   9.713  13.650   6.450
 7868POPC   D2A45208   9.796  13.668   6.750
 7868POPC   C3A45209   9.707  13.628   7.050
 7868POPC   C4A45210   9.706  13.581   7.350
 7868POPC   C1B45211   9.481  13.689   6.450
 7868POPC   C2B45212   9.504  13.739   6.750
 7868POPC   C3B45213   9.474  13.715   7.050
 7868POPC   C4B45214   9.560  13.663   7.350
 7869POPC   NC345215   0.457  36.177   5.550
 7869POPC   PO445216   0.422  36.116   5.850
 7869POPC   GL145217   0.426  36.153   6.150
 7869POPC   GL245218   0.297  36.045   6.150
 7869POPC   C1A45219   0.429  36.129   6.450
 7869POPC   D2A45220   0.414  36.116   6.750
 7869POPC   C3A45221   0.452  36.084   7.050
 7869POPC   C4A45222   0.461  36.102   7.350
 7869POPC   C1B45223   0.246  35.999   6.450
 7869POPC   C2B45224   0.177  36.015   6.750
 7869POPC   C3B45225   0.174  35.973   7.050
 7869POPC   C4B45226   0.231  35.981   7.350
 7870POPC   NC345227  44.650  11.349   5.550
 7870POPC   PO445228  44.690  11.271   5.850
 7870POPC   GL145229  44.649  11.302   6.150
 7870POPC   GL245230  44.811  11.345   6.150
 7870POPC   C1A45231  44.614  11.329   6.450
 7870POPC   D2A45232  44.619  11.309   6.750
 7870POPC   C3A45233  44.650  11.311   7.050
 7870POPC   C4A45234  44.696  11.340   7.350
 7870POPC   C1B45235  44.854  11.417   6.450
 7870POPC   C2B45236  44.923  11.345   6.750
 7870POPC   C3B45237  44.951  11.401   7.050
 7870POPC   C4B45238  44.923  11.357   7.350
 7871POPC   NC345239  11.285  16.759   5.550
 7871POPC   PO445240  11.317  16.734   5.850
 7871POPC   GL145241  11.346  16.743   6.150
 7871POPC   GL245242  11.430  16.797   6.150
 7871POPC   C1A45243  11.305  16.720   6.450
 7871POPC   D2A45244  11.265  16.775   6.750
 7871POPC   C3A45245  11.329  16.756   7.050
 7871POPC   C4A45246  11.283  16.767   7.350
 7871POPC   C1B45247  11.496  16.843   6.450
 7871POPC   C2B45248  11.462  16.907   6.750
 7871POPC   C3B45249  11.523  16.895   7.050
 7871POPC   C4B45250  11.460  16.852   7.350
 7872POPC   NC345251  32.262  43.111   5.550
 7872POPC   PO445252  32.291  43.121   5.850
 7872POPC   GL145253  32.293  43.066   6.150
 7872POPC   GL245254  32.289  42.955   6.150
 7872POPC   C1A45255  32.225  43.142   6.450
 7872POPC   D2A45256  32.221  43.088   6.750
 7872POPC   C3A45257  32.271  43.146   7.050
 7872POPC   C4A45258  32.200  43.148   7.350
 7872POPC   C1B45259  32.373  42.858   6.450
 7872POPC   C2B45260  32.338  42.930   6.750
 7872POPC   C3B45261  32.414  42.873   7.050
 7872POPC   C4B45262  32.388  42.865   7.350
 7873POPC   NC345263  27.617  17.511   5.550
 7873POPC   PO445264  27.577  17.462   5.850
 7873POPC   GL145265  27.586  17.545   6.150
 7873POPC   GL245266  27.666  17.356   6.150
 7873POPC   C1A45267  27.551  17.552   6.450
 7873POPC   D2A45268  27.607  17.543   6.750
 7873POPC   C3A45269  27.548  17.523   7.050
 7873POPC   C4A45270  27.547  17.557   7.350
 7873POPC   C1B45271  27.707  17.316   6.450
 7873POPC   C2B45272  27.633  17.245   6.750
 7873POPC   C3B45273  27.685  17.273   7.050
 7873POPC   C4B45274  27.687  17.289   7.350
 7874POPC   NC345275  26.028  31.502   5.550
 7874POPC   PO445276  26.077  31.513   5.850
 7874POPC   GL145277  26.060  31.436   6.150
 7874POPC   GL245278  26.177  31.517   6.150
 7874POPC   C1A45279  26.014  31.495   6.450
 7874POPC   D2A45280  26.052  31.517   6.750
 7874POPC   C3A45281  26.051  31.454   7.050
 7874POPC   C4A45282  26.058  31.483   7.350
 7874POPC   C1B45283  26.194  31.610   6.450
 7874POPC   C2B45284  26.176  31.676   6.750
 7874POPC   C3B45285  26.259  31.628   7.050
 7874POPC   C4B45286  26.221  31.689   7.350
 7875POPC   NC345287  37.630  28.350   5.550
 7875POPC   PO445288  37.668  28.342   5.850
 7875POPC   GL145289  37.641  28.408   6.150
 7875POPC   GL245290  37.559  28.386   6.150
 7875POPC   C1A45291  37.659  28.375   6.450
 7875POPC   D2A45292  37.720  28.327   6.750
 7875POPC   C3A45293  37.653  28.411   7.050
 7875POPC   C4A45294  37.708  28.380   7.350
 7875POPC   C1B45295  37.460  28.464   6.450
 7875POPC   C2B45296  37.413  28.427   6.750
 7875POPC   C3B45297  37.432  28.461   7.050
 7875POPC   C4B45298  37.449  28.424   7.350
 7876POPC   NC345299  28.325  20.625   5.550
 7876POPC   PO445300  28.408  20.564   5.850
 7876POPC   GL145301  28.351  20.625   6.150
 7876POPC   GL245302  28.414  20.738   6.150
 7876POPC   C1A45303  28.339  20.587   6.450
 7876POPC   D2A45304  28.384  20.603   6.750
 7876POPC   C3A45305  28.380  20.618   7.050
 7876POPC   C4A45306  28.319  20.590   7.350
 7876POPC   C1B45307  28.441  20.839   6.450
 7876POPC   C2B45308  28.442  20.847   6.750
 7876POPC   C3B45309  28.464  20.899   7.050
 7876POPC   C4B45310  28.449  20.878   7.350
 7877POPC   NC345311  37.661  21.431   5.550
 7877POPC   PO445312  37.656  21.366   5.850
 7877POPC   GL145313  37.728  21.426   6.150
 7877POPC   GL245314  37.539  21.434   6.150
 7877POPC   C1A45315  37.650  21.344   6.450
 7877POPC   D2A45316  37.645  21.394   6.750
 7877POPC   C3A45317  37.718  21.427   7.050
 7877POPC   C4A45318  37.639  21.425   7.350
 7877POPC   C1B45319  37.397  21.428   6.450
 7877POPC   C2B45320  37.388  21.421   6.750
 7877POPC   C3B45321  37.464  21.361   7.050
 7877POPC   C4B45322  37.479  21.395   7.350
 7878POPC   NC345323  23.755  37.642   5.550
 7878POPC   PO445324  23.730  37.677   5.850
 7878POPC   GL145325  23.718  37.716   6.150
 7878POPC   GL245326  23.753  37.590   6.150
 7878POPC   C1A45327  23.717  37.690   6.450
 7878POPC   D2A45328  23.748  37.666   6.750
 7878POPC   C3A45329  23.672  37.711   7.050
 7878POPC   C4A45330  23.732  37.662   7.350
 7878POPC   C1B45331  23.922  37.500   6.450
 7878POPC   C2B45332  23.877  37.484   6.750
 7878POPC   C3B45333  23.906  37.539   7.050
 7878POPC   C4B45334  23.846  37.484   7.350
 7879POPC   NC345335  10.483   7.402   5.550
 7879POPC   PO445336  10.485   7.375   5.850
 7879POPC   GL145337  10.520   7.464   6.150
 7879POPC   GL245338  10.511   7.530   6.150
 7879POPC   C1A45339  10.559   7.390   6.450
 7879POPC   D2A45340  10.559   7.388   6.750
 7879POPC   C3A45341  10.475   7.445   7.050
 7879POPC   C4A45342  10.559   7.401   7.350
 7879POPC   C1B45343  10.374   7.642   6.450
 7879POPC   C2B45344  10.441   7.636   6.750
 7879POPC   C3B45345  10.419   7.634   7.050
 7879POPC   C4B45346  10.387   7.606   7.350
 7880POPC   NC345347  34.526  34.589   5.550
 7880POPC   PO445348  34.541  34.569   5.850
 7880POPC   GL145349  34.596  34.615   6.150
 7880POPC   GL245350  34.662  34.707   6.150
 7880POPC   C1A45351  34.595  34.528   6.450
 7880POPC   D2A45352  34.622  34.546   6.750
 7880POPC   C3A45353  34.589  34.584   7.050
 7880POPC   C4A45354  34.568  34.585   7.350
 7880POPC   C1B45355  34.759  34.801   6.450
 7880POPC   C2B45356  34.726  34.803   6.750
 7880POPC   C3B45357  34.749  34.766   7.050
 7880POPC   C4B45358  34.773  34.809   7.350
 7881POPC   NC345359  44.636  28.365   5.550
 7881POPC   PO445360  44.641  28.370   5.850
 7881POPC   GL145361  44.685  28.406   6.150
 7881POPC   GL245362  44.591  28.445   6.150
 7881POPC   C1A45363  44.646  28.395   6.450
 7881POPC   D2A45364  44.618  28.322   6.750
 7881POPC   C3A45365  44.648  28.334   7.050
 7881POPC   C4A45366  44.659  28.406   7.350
 7881POPC   C1B45367  44.569  28.597   6.450
 7881POPC   C2B45368  44.502  28.639   6.750
 7881POPC   C3B45369  44.498  28.590   7.050
 7881POPC   C4B45370  44.541  28.549   7.350
 7882POPC   NC345371  19.875  43.897   5.550
 7882POPC   PO445372  19.850  43.879   5.850
 7882POPC   GL145373  19.862  43.930   6.150
 7882POPC   GL245374  20.005  43.831   6.150
 7882POPC   C1A45375  19.842  43.900   6.450
 7882POPC   D2A45376  19.855  43.873   6.750
 7882POPC   C3A45377  19.849  43.871   7.050
 7882POPC   C4A45378  19.873  43.901   7.350
 7882POPC   C1B45379  20.095  43.895   6.450
 7882POPC   C2B45380  20.109  43.844   6.750
 7882POPC   C3B45381  20.062  43.863   7.050
 7882POPC   C4B45382  20.055  43.811   7.350
 7883POPC   NC345383   9.712  16.694   5.550
 7883POPC   PO445384   9.735  16.726   5.850
 7883POPC   GL145385   9.722  16.701   6.150
 7883POPC   GL245386   9.809  16.635   6.150
 7883POPC   C1A45387   9.791  16.690   6.450
 7883POPC   D2A45388   9.757  16.700   6.750
 7883POPC   C3A45389   9.748  16.721   7.050
 7883POPC   C4A45390   9.712  16.691   7.350
 7883POPC   C1B45391   9.800  16.533   6.450
 7883POPC   C2B45392   9.809  16.465   6.750
 7883POPC   C3B45393   9.823  16.489   7.050
 7883POPC   C4B45394   9.825  16.477   7.350
 7884POPC   NC345395  14.443  15.187   5.550
 7884POPC   PO445396  14.448  15.225   5.850
 7884POPC   GL145397  14.395  15.213   6.150
 7884POPC   GL245398  14.538  15.125   6.150
 7884POPC   C1A45399  14.433  15.224   6.450
 7884POPC   D2A45400  14.445  15.154   6.750
 7884POPC   C3A45401  14.378  15.149   7.050
 7884POPC   C4A45402  14.373  15.175   7.350
 7884POPC   C1B45403  14.617  15.161   6.450
 7884POPC   C2B45404  14.650  15.180   6.750
 7884POPC   C3B45405  14.684  15.144   7.050
 7884POPC   C4B45406  14.621  15.188   7.350
 7885POPC   NC345407  29.915  32.290   5.550
 7885POPC   PO445408  29.917  32.217   5.850
 7885POPC   GL145409  29.902  32.233   6.150
 7885POPC   GL245410  29.985  32.197   6.150
 7885POPC   C1A45411  29.968  32.277   6.450
 7885POPC   D2A45412  29.889  32.224   6.750
 7885POPC   C3A45413  29.907  32.292   7.050
 7885POPC   C4A45414  29.929  32.271   7.350
 7885POPC   C1B45415  30.151  32.090   6.450
 7885POPC   C2B45416  30.160  32.082   6.750
 7885POPC   C3B45417  30.142  32.091   7.050
 7885POPC   C4B45418  30.074  32.087   7.350
 7886POPC   NC345419   3.517  42.311   5.550
 7886POPC   PO445420   3.581  42.289   5.850
 7886POPC   GL145421   3.539  42.332   6.150
 7886POPC   GL245422   3.551  42.493   6.150
 7886POPC   C1A45423   3.577  42.345   6.450
 7886POPC   D2A45424   3.531  42.366   6.750
 7886POPC   C3A45425   3.519  42.299   7.050
 7886POPC   C4A45426   3.558  42.326   7.350
 7886POPC   C1B45427   3.582  42.606   6.450
 7886POPC   C2B45428   3.558  42.539   6.750
 7886POPC   C3B45429   3.556  42.596   7.050
 7886POPC   C4B45430   3.589  42.600   7.350
 7887POPC   NC345431  12.884   0.482   5.550
 7887POPC   PO445432  12.879   0.451   5.850
 7887POPC   GL145433  12.805   0.453   6.150
 7887POPC   GL245434  12.976   0.356   6.150
 7887POPC   C1A45435  12.877   0.453   6.450
 7887POPC   D2A45436  12.810   0.447   6.750
 7887POPC   C3A45437  12.807   0.433   7.050
 7887POPC   C4A45438  12.805   0.443   7.350
 7887POPC   C1B45439  13.125   0.315   6.450
 7887POPC   C2B45440  13.077   0.297   6.750
 7887POPC   C3B45441  13.116   0.289   7.050
 7887POPC   C4B45442  13.101   0.338   7.350
 7888POPC   NC345443  22.155  36.868   5.550
 7888POPC   PO445444  22.140  36.881   5.850
 7888POPC   GL145445  22.136  36.875   6.150
 7888POPC   GL245446  22.001  36.839   6.150
 7888POPC   C1A45447  22.179  36.878   6.450
 7888POPC   D2A45448  22.131  36.854   6.750
 7888POPC   C3A45449  22.128  36.925   7.050
 7888POPC   C4A45450  22.209  36.890   7.350
 7888POPC   C1B45451  21.920  36.811   6.450
 7888POPC   C2B45452  21.930  36.821   6.750
 7888POPC   C3B45453  21.971  36.769   7.050
 7888POPC   C4B45454  21.894  36.774   7.350
 7889POPC   NC345455  12.897  27.603   5.550
 7889POPC   PO445456  12.862  27.597   5.850
 7889POPC   GL145457  12.812  27.552   6.150
 7889POPC   GL245458  12.829  27.527   6.150
 7889POPC   C1A45459  12.838  27.583   6.450
 7889POPC   D2A45460  12.860  27.563   6.750
 7889POPC   C3A45461  12.885  27.552   7.050
 7889POPC   C4A45462  12.845  27.624   7.350
 7889POPC   C1B45463  12.732  27.373   6.450
 7889POPC   C2B45464  12.713  27.374   6.750
 7889POPC   C3B45465  12.760  27.418   7.050
 7889POPC   C4B45466  12.770  27.382   7.350
 7890POPC   NC345467  11.284  20.654   5.550
 7890POPC   PO445468  11.262  20.610   5.850
 7890POPC   GL145469  11.250  20.636   6.150
 7890POPC   GL245470  11.165  20.636   6.150
 7890POPC   C1A45471  11.286  20.597   6.450
 7890POPC   D2A45472  11.333  20.602   6.750
 7890POPC   C3A45473  11.315  20.598   7.050
 7890POPC   C4A45474  11.257  20.629   7.350
 7890POPC   C1B45475  11.103  20.674   6.450
 7890POPC   C2B45476  11.045  20.763   6.750
 7890POPC   C3B45477  11.088  20.692   7.050
 7890POPC   C4B45478  11.043  20.688   7.350
 7891POPC   NC345479  11.294   1.219   5.550
 7891POPC   PO445480  11.342   1.186   5.850
 7891POPC   GL145481  11.339   1.213   6.150
 7891POPC   GL245482  11.200   1.098   6.150
 7891POPC   C1A45483  11.335   1.171   6.450
 7891POPC   D2A45484  11.327   1.178   6.750
 7891POPC   C3A45485  11.277   1.203   7.050
 7891POPC   C4A45486  11.320   1.240   7.350
 7891POPC   C1B45487  11.161   1.014   6.450
 7891POPC   C2B45488  11.100   1.005   6.750
 7891POPC   C3B45489  11.177   0.990   7.050
 7891POPC   C4B45490  11.116   1.034   7.350
 7892POPC   NC345491  15.218  29.876   5.550
 7892POPC   PO445492  15.174  29.943   5.850
 7892POPC   GL145493  15.164  29.928   6.150
 7892POPC   GL245494  15.109  30.038   6.150
 7892POPC   C1A45495  15.227  29.946   6.450
 7892POPC   D2A45496  15.169  29.889   6.750
 7892POPC   C3A45497  15.173  29.899   7.050
 7892POPC   C4A45498  15.147  29.879   7.350
 7892POPC   C1B45499  15.128  30.136   6.450
 7892POPC   C2B45500  15.107  30.122   6.750
 7892POPC   C3B45501  15.124  30.196   7.050
 7892POPC   C4B45502  15.072  30.184   7.350
 7893POPC   NC345503  19.830  12.104   5.550
 7893POPC   PO445504  19.824  12.091   5.850
 7893POPC   GL145505  19.790  12.096   6.150
 7893POPC   GL245506  19.848  11.999   6.150
 7893POPC   C1A45507  19.793  12.075   6.450
 7893POPC   D2A45508  19.863  12.116   6.750
 7893POPC   C3A45509  19.797  12.079   7.050
 7893POPC   C4A45510  19.852  12.104   7.350
 7893POPC   C1B45511  19.770  11.831   6.450
 7893POPC   C2B45512  19.791  11.842   6.750
 7893POPC   C3B45513  19.811  11.795   7.050
 7893POPC   C4B45514  19.800  11.813   7.350
 7894POPC   NC345515  22.164   5.831   5.550
 7894POPC   PO445516  22.193   5.873   5.850
 7894POPC   GL145517  22.203   5.857   6.150
 7894POPC   GL245518  22.097   5.939   6.150
 7894POPC   C1A45519  22.175   5.866   6.450
 7894POPC   D2A45520  22.193   5.851   6.750
 7894POPC   C3A45521  22.198   5.910   7.050
 7894POPC   C4A45522  22.206   5.849   7.350
 7894POPC   C1B45523  21.947   6.040   6.450
 7894POPC   C2B45524  21.964   5.955   6.750
 7894POPC   C3B45525  21.994   5.957   7.050
 7894POPC   C4B45526  21.991   5.996   7.350
 7895POPC   NC345527  13.597   3.541   5.550
 7895POPC   PO445528  13.610   3.520   5.850
 7895POPC   GL145529  13.585   3.587   6.150
 7895POPC   GL245530  13.722   3.613   6.150
 7895POPC   C1A45531  13.627   3.523   6.450
 7895POPC   D2A45532  13.625   3.510   6.750
 7895POPC   C3A45533  13.630   3.578   7.050
 7895POPC   C4A45534  13.672   3.535   7.350
 7895POPC   C1B45535  13.787   3.663   6.450
 7895POPC   C2B45536  13.795   3.716   6.750
 7895POPC   C3B45537  13.822   3.690   7.050
 7895POPC   C4B45538  13.819   3.657   7.350
 7896POPC   NC345539   1.977   4.353   5.550
 7896POPC   PO445540   1.984   4.365   5.850
 7896POPC   GL145541   1.991   4.352   6.150
 7896POPC   GL245542   2.003   4.227   6.150
 7896POPC   C1A45543   2.007   4.306   6.450
 7896POPC   D2A45544   2.007   4.277   6.750
 7896POPC   C3A45545   2.003   4.280   7.050
 7896POPC   C4A45546   1.953   4.358   7.350
 7896POPC   C1B45547   1.929   4.063   6.450
 7896POPC   C2B45548   1.985   4.048   6.750
 7896POPC   C3B45549   1.981   4.051   7.050
 7896POPC   C4B45550   1.962   4.115   7.350
 7897POPC   NC345551  11.299  26.838   5.550
 7897POPC   PO445552  11.320  26.793   5.850
 7897POPC   GL145553  11.258  26.856   6.150
 7897POPC   GL245554  11.449  26.855   6.150
 7897POPC   C1A45555  11.264  26.779   6.450
 7897POPC   D2A45556  11.302  26.817   6.750
 7897POPC   C3A45557  11.306  26.822   7.050
 7897POPC   C4A45558  11.302  26.822   7.350
 7897POPC   C1B45559  11.585  26.843   6.450
 7897POPC   C2B45560  11.599  26.786   6.750
 7897POPC   C3B45561  11.594  26.818   7.050
 7897POPC   C4B45562  11.589  26.840   7.350
 7898POPC   NC345563   4.345  39.238   5.550
 7898POPC   PO445564   4.316  39.279   5.850
 7898POPC   GL145565   4.317  39.257   6.150
 7898POPC   GL245566   4.447  39.349   6.150
 7898POPC   C1A45567   4.342  39.232   6.450
 7898POPC   D2A45568   4.352  39.221   6.750
 7898POPC   C3A45569   4.268  39.277   7.050
 7898POPC   C4A45570   4.312  39.225   7.350
 7898POPC   C1B45571   4.557  39.362   6.450
 7898POPC   C2B45572   4.525  39.359   6.750
 7898POPC   C3B45573   4.487  39.386   7.050
 7898POPC   C4B45574   4.514  39.383   7.350
 7899POPC   NC345575  34.551   7.456   5.550
 7899POPC   PO445576  34.532   7.451   5.850
 7899POPC   GL145577  34.577   7.379   6.150
 7899POPC   GL245578  34.701   7.348   6.150
 7899POPC   C1A45579  34.619   7.453   6.450
 7899POPC   D2A45580  34.616   7.442   6.750
 7899POPC   C3A45581  34.608   7.376   7.050
 7899POPC   C4A45582  34.535   7.415   7.350
 7899POPC   C1B45583  34.774   7.223   6.450
 7899POPC   C2B45584  34.753   7.278   6.750
 7899POPC   C3B45585  34.715   7.295   7.050
 7899POPC   C4B45586  34.720   7.249   7.350
 7900POPC   NC345587   0.422   8.974   5.550
 7900POPC   PO445588   0.454   8.962   5.850
 7900POPC   GL145589   0.439   8.944   6.150
 7900POPC   GL245590   0.364   8.942   6.150
 7900POPC   C1A45591   0.478   8.987   6.450
 7900POPC   D2A45592   0.478   9.016   6.750
 7900POPC   C3A45593   0.389   8.942   7.050
 7900POPC   C4A45594   0.471   8.927   7.350
 7900POPC   C1B45595   0.286   8.788   6.450
 7900POPC   C2B45596   0.255   8.859   6.750
 7900POPC   C3B45597   0.273   8.786   7.050
 7900POPC   C4B45598   0.217   8.825   7.350
 7901POPC   NC345599  30.654  31.487   5.550
 7901POPC   PO445600  30.696  31.462   5.850
 7901POPC   GL145601  30.715  31.447   6.150
 7901POPC   GL245602  30.546  31.467   6.150
 7901POPC   C1A45603  30.747  31.505   6.450
 7901POPC   D2A45604  30.692  31.450   6.750
 7901POPC   C3A45605  30.736  31.497   7.050
 7901POPC   C4A45606  30.726  31.465   7.350
 7901POPC   C1B45607  30.488  31.422   6.450
 7901POPC   C2B45608  30.440  31.386   6.750
 7901POPC   C3B45609  30.418  31.456   7.050
 7901POPC   C4B45610  30.487  31.400   7.350
 7902POPC   NC345611  33.767  26.028   5.550
 7902POPC   PO445612  33.755  26.085   5.850
 7902POPC   GL145613  33.844  26.080   6.150
 7902POPC   GL245614  33.774  25.943   6.150
 7902POPC   C1A45615  33.818  26.026   6.450
 7902POPC   D2A45616  33.849  26.038   6.750
 7902POPC   C3A45617  33.844  25.996   7.050
 7902POPC   C4A45618  33.850  26.065   7.350
 7902POPC   C1B45619  33.749  25.827   6.450
 7902POPC   C2B45620  33.669  25.774   6.750
 7902POPC   C3B45621  33.701  25.823   7.050
 7902POPC   C4B45622  33.722  25.855   7.350
 7903POPC   NC345623  10.518  17.550   5.550
 7903POPC   PO445624  10.512  17.550   5.850
 7903POPC   GL145625  10.479  17.508   6.150
 7903POPC   GL245626  10.419  17.567   6.150
 7903POPC   C1A45627  10.488  17.522   6.450
 7903POPC   D2A45628  10.491  17.519   6.750
 7903POPC   C3A45629  10.497  17.507   7.050
 7903POPC   C4A45630  10.522  17.549   7.350
 7903POPC   C1B45631  10.389  17.631   6.450
 7903POPC   C2B45632  10.343  17.678   6.750
 7903POPC   C3B45633  10.367  17.674   7.050
 7903POPC   C4B45634  10.325  17.698   7.350
 7904POPC   NC345635   1.257  28.367   5.550
 7904POPC   PO445636   1.253  28.396   5.850
 7904POPC   GL145637   1.175  28.355   6.150
 7904POPC   GL245638   1.105  28.361   6.150
 7904POPC   C1A45639   1.246  28.400   6.450
 7904POPC   D2A45640   1.195  28.406   6.750
 7904POPC   C3A45641   1.216  28.324   7.050
 7904POPC   C4A45642   1.164  28.326   7.350
 7904POPC   C1B45643   1.026  28.276   6.450
 7904POPC   C2B45644   1.028  28.274   6.750
 7904POPC   C3B45645   0.942  28.279   7.050
 7904POPC   C4B45646   0.971  28.286   7.350
 7905POPC   NC345647  24.461  33.066   5.550
 7905POPC   PO445648  24.515  32.993   5.850
 7905POPC   GL145649  24.458  33.050   6.150
 7905POPC   GL245650  24.518  33.157   6.150
 7905POPC   C1A45651  24.516  33.023   6.450
 7905POPC   D2A45652  24.454  33.005   6.750
 7905POPC   C3A45653  24.497  32.983   7.050
 7905POPC   C4A45654  24.503  32.984   7.350
 7905POPC   C1B45655  24.614  33.273   6.450
 7905POPC   C2B45656  24.652  33.273   6.750
 7905POPC   C3B45657  24.623  33.288   7.050
 7905POPC   C4B45658  24.592  33.209   7.350
 7906POPC   NC345659  15.172  24.459   5.550
 7906POPC   PO445660  15.164  24.506   5.850
 7906POPC   GL145661  15.218  24.501   6.150
 7906POPC   GL245662  15.267  24.569   6.150
 7906POPC   C1A45663  15.138  24.481   6.450
 7906POPC   D2A45664  15.214  24.459   6.750
 7906POPC   C3A45665  15.147  24.516   7.050
 7906POPC   C4A45666  15.184  24.445   7.350
 7906POPC   C1B45667  15.370  24.571   6.450
 7906POPC   C2B45668  15.449  24.551   6.750
 7906POPC   C3B45669  15.379  24.530   7.050
 7906POPC   C4B45670  15.417  24.580   7.350
 7907POPC   NC345671  19.856   7.470   5.550
 7907POPC   PO445672  19.882   7.373   5.850
 7907POPC   GL145673  19.869   7.445   6.150
 7907POPC   GL245674  19.942   7.454   6.150
 7907POPC   C1A45675  19.838   7.382   6.450
 7907POPC   D2A45676  19.836   7.386   6.750
 7907POPC   C3A45677  19.884   7.384   7.050
 7907POPC   C4A45678  19.870   7.402   7.350
 7907POPC   C1B45679  20.110   7.380   6.450
 7907POPC   C2B45680  20.117   7.415   6.750
 7907POPC   C3B45681  20.040   7.371   7.050
 7907POPC   C4B45682  20.044   7.448   7.350
 7908POPC   NC345683   0.447  18.260   5.550
 7908POPC   PO445684   0.482  18.243   5.850
 7908POPC   GL145685   0.433  18.248   6.150
 7908POPC   GL245686   0.401  18.431   6.150
 7908POPC   C1A45687   0.428  18.291   6.450
 7908POPC   D2A45688   0.467  18.238   6.750
 7908POPC   C3A45689   0.482  18.324   7.050
 7908POPC   C4A45690   0.396  18.286   7.350
 7908POPC   C1B45691   0.350  18.475   6.450
 7908POPC   C2B45692   0.332  18.473   6.750
 7908POPC   C3B45693   0.337  18.560   7.050
 7908POPC   C4B45694   0.318  18.545   7.350
 7909POPC   NC345695  21.350  31.426   5.550
 7909POPC   PO445696  21.372  31.494   5.850
 7909POPC   GL145697  21.391  31.514   6.150
 7909POPC   GL245698  21.289  31.608   6.150
 7909POPC   C1A45699  21.377  31.507   6.450
 7909POPC   D2A45700  21.372  31.515   6.750
 7909POPC   C3A45701  21.424  31.483   7.050
 7909POPC   C4A45702  21.350  31.498   7.350
 7909POPC   C1B45703  21.275  31.652   6.450
 7909POPC   C2B45704  21.309  31.710   6.750
 7909POPC   C3B45705  21.231  31.693   7.050
 7909POPC   C4B45706  21.245  31.739   7.350
 7910POPC   NC345707  26.798   5.899   5.550
 7910POPC   PO445708  26.786   5.859   5.850
 7910POPC   GL145709  26.857   5.866   6.150
 7910POPC   GL245710  26.789   5.989   6.150
 7910POPC   C1A45711  26.827   5.870   6.450
 7910POPC   D2A45712  26.780   5.886   6.750
 7910POPC   C3A45713  26.865   5.897   7.050
 7910POPC   C4A45714  26.836   5.863   7.350
 7910POPC   C1B45715  26.813   6.127   6.450
 7910POPC   C2B45716  26.833   6.082   6.750
 7910POPC   C3B45717  26.745   6.092   7.050
 7910POPC   C4B45718  26.753   6.101   7.350
 7911POPC   NC345719  33.824  18.278   5.550
 7911POPC   PO445720  33.808  18.257   5.850
 7911POPC   GL145721  33.801  18.276   6.150
 7911POPC   GL245722  33.853  18.439   6.150
 7911POPC   C1A45723  33.802  18.317   6.450
 7911POPC   D2A45724  33.757  18.261   6.750
 7911POPC   C3A45725  33.832  18.312   7.050
 7911POPC   C4A45726  33.842  18.291   7.350
 7911POPC   C1B45727  33.932  18.485   6.450
 7911POPC   C2B45728  33.944  18.537   6.750
 7911POPC   C3B45729  33.901  18.552   7.050
 7911POPC   C4B45730  33.911  18.462   7.350
 7912POPC   NC345731  21.355  18.234   5.550
 7912POPC   PO445732  21.361  18.233   5.850
 7912POPC   GL145733  21.402  18.305   6.150
 7912POPC   GL245734  21.501  18.259   6.150
 7912POPC   C1A45735  21.402  18.319   6.450
 7912POPC   D2A45736  21.411  18.237   6.750
 7912POPC   C3A45737  21.406  18.331   7.050
 7912POPC   C4A45738  21.435  18.310   7.350
 7912POPC   C1B45739  21.623  18.127   6.450
 7912POPC   C2B45740  21.550  18.163   6.750
 7912POPC   C3B45741  21.596  18.141   7.050
 7912POPC   C4B45742  21.645  18.150   7.350
 7913POPC   NC345743   1.957  42.288   5.550
 7913POPC   PO445744   2.001  42.297   5.850
 7913POPC   GL145745   2.012  42.370   6.150
 7913POPC   GL245746   1.830  42.363   6.150
 7913POPC   C1A45747   1.997  42.335   6.450
 7913POPC   D2A45748   2.027  42.303   6.750
 7913POPC   C3A45749   1.990  42.361   7.050
 7913POPC   C4A45750   1.942  42.297   7.350
 7913POPC   C1B45751   1.728  42.304   6.450
 7913POPC   C2B45752   1.778  42.298   6.750
 7913POPC   C3B45753   1.751  42.287   7.050
 7913POPC   C4B45754   1.754  42.287   7.350
 7914POPC   NC345755  38.433  28.337   5.550
 7914POPC   PO445756  38.466  28.392   5.850
 7914POPC   GL145757  38.412  28.366   6.150
 7914POPC   GL245758  38.390  28.440   6.150
 7914POPC   C1A45759  38.502  28.393   6.450
 7914POPC   D2A45760  38.436  28.414   6.750
 7914POPC   C3A45761  38.442  28.367   7.050
 7914POPC   C4A45762  38.430  28.404   7.350
 7914POPC   C1B45763  38.227  28.557   6.450
 7914POPC   C2B45764  38.211  28.489   6.750
 7914POPC   C3B45765  38.224  28.504   7.050
 7914POPC   C4B45766  38.226  28.532   7.350
 7915POPC   NC345767   7.411  32.262   5.550
 7915POPC   PO445768   7.436  32.297   5.850
 7915POPC   GL145769   7.398  32.225   6.150
 7915POPC   GL245770   7.515  32.173   6.150
 7915POPC   C1A45771   7.373  32.271   6.450
 7915POPC   D2A45772   7.404  32.230   6.750
 7915POPC   C3A45773   7.419  32.267   7.050
 7915POPC   C4A45774   7.461  32.208   7.350
 7915POPC   C1B45775   7.596  32.010   6.450
 7915POPC   C2B45776   7.507  32.019   6.750
 7915POPC   C3B45777   7.572  31.993   7.050
 7915POPC   C4B45778   7.541  31.995   7.350
 7916POPC   NC345779  33.074  31.454   5.550
 7916POPC   PO445780  33.049  31.481   5.850
 7916POPC   GL145781  33.012  31.504   6.150
 7916POPC   GL245782  33.134  31.560   6.150
 7916POPC   C1A45783  33.058  31.483   6.450
 7916POPC   D2A45784  33.053  31.507   6.750
 7916POPC   C3A45785  33.013  31.437   7.050
 7916POPC   C4A45786  32.978  31.430   7.350
 7916POPC   C1B45787  33.205  31.601   6.450
 7916POPC   C2B45788  33.181  31.647   6.750
 7916POPC   C3B45789  33.211  31.617   7.050
 7916POPC   C4B45790  33.200  31.616   7.350
 7917POPC   NC345791   1.193  39.187   5.550
 7917POPC   PO445792   1.242  39.257   5.850
 7917POPC   GL145793   1.235  39.201   6.150
 7917POPC   GL245794   1.081  39.250   6.150
 7917POPC   C1A45795   1.246  39.226   6.450
 7917POPC   D2A45796   1.165  39.187   6.750
 7917POPC   C3A45797   1.246  39.194   7.050
 7917POPC   C4A45798   1.168  39.195   7.350
 7917POPC   C1B45799   0.952  39.325   6.450
 7917POPC   C2B45800   1.002  39.348   6.750
 7917POPC   C3B45801   1.015  39.320   7.050
 7917POPC   C4B45802   1.000  39.365   7.350
 7918POPC   NC345803  13.588  39.962   5.550
 7918POPC   PO445804  13.653  40.016   5.850
 7918POPC   GL145805  13.640  40.039   6.150
 7918POPC   GL245806  13.652  39.893   6.150
 7918POPC   C1A45807  13.623  40.040   6.450
 7918POPC   D2A45808  13.664  40.017   6.750
 7918POPC   C3A45809  13.631  39.990   7.050
 7918POPC   C4A45810  13.637  40.056   7.350
 7918POPC   C1B45811  13.617  39.756   6.450
 7918POPC   C2B45812  13.640  39.784   6.750
 7918POPC   C3B45813  13.671  39.750   7.050
 7918POPC   C4B45814  13.685  39.773   7.350
 7919POPC   NC345815   7.401  37.635   5.550
 7919POPC   PO445816   7.415  37.709   5.850
 7919POPC   GL145817   7.433  37.664   6.150
 7919POPC   GL245818   7.428  37.839   6.150
 7919POPC   C1A45819   7.402  37.710   6.450
 7919POPC   D2A45820   7.381  37.635   6.750
 7919POPC   C3A45821   7.433  37.720   7.050
 7919POPC   C4A45822   7.377  37.662   7.350
 7919POPC   C1B45823   7.384  37.927   6.450
 7919POPC   C2B45824   7.361  37.903   6.750
 7919POPC   C3B45825   7.355  37.908   7.050
 7919POPC   C4B45826   7.337  37.908   7.350
 7920POPC   NC345827  28.325  16.713   5.550
 7920POPC   PO445828  28.388  16.714   5.850
 7920POPC   GL145829  28.379  16.741   6.150
 7920POPC   GL245830  28.411  16.635   6.150
 7920POPC   C1A45831  28.369  16.757   6.450
 7920POPC   D2A45832  28.356  16.725   6.750
 7920POPC   C3A45833  28.398  16.748   7.050
 7920POPC   C4A45834  28.411  16.756   7.350
 7920POPC   C1B45835  28.436  16.507   6.450
 7920POPC   C2B45836  28.443  16.505   6.750
 7920POPC   C3B45837  28.446  16.454   7.050
 7920POPC   C4B45838  28.371  16.477   7.350
 7921POPC   NC345839  27.582  20.622   5.550
 7921POPC   PO445840  27.636  20.590   5.850
 7921POPC   GL145841  27.573  20.566   6.150
 7921POPC   GL245842  27.651  20.645   6.150
 7921POPC   C1A45843  27.631  20.593   6.450
 7921POPC   D2A45844  27.626  20.564   6.750
 7921POPC   C3A45845  27.623  20.568   7.050
 7921POPC   C4A45846  27.578  20.613   7.350
 7921POPC   C1B45847  27.764  20.734   6.450
 7921POPC   C2B45848  27.769  20.720   6.750
 7921POPC   C3B45849  27.814  20.758   7.050
 7921POPC   C4B45850  27.778  20.778   7.350
 7922POPC   NC345851  33.040  32.245   5.550
 7922POPC   PO445852  33.056  32.262   5.850
 7922POPC   GL145853  33.004  32.210   6.150
 7922POPC   GL245854  33.006  32.354   6.150
 7922POPC   C1A45855  33.060  32.203   6.450
 7922POPC   D2A45856  32.979  32.211   6.750
 7922POPC   C3A45857  33.038  32.277   7.050
 7922POPC   C4A45858  32.987  32.259   7.350
 7922POPC   C1B45859  33.014  32.540   6.450
 7922POPC   C2B45860  33.033  32.507   6.750
 7922POPC   C3B45861  33.030  32.455   7.050
 7922POPC   C4B45862  33.002  32.523   7.350
 7923POPC   NC345863  26.074  26.069   5.550
 7923POPC   PO445864  26.032  26.079   5.850
 7923POPC   GL145865  26.048  26.008   6.150
 7923POPC   GL245866  25.963  26.150   6.150
 7923POPC   C1A45867  26.009  26.073   6.450
 7923POPC   D2A45868  26.008  25.993   6.750
 7923POPC   C3A45869  26.087  26.081   7.050
 7923POPC   C4A45870  26.011  26.071   7.350
 7923POPC   C1B45871  25.868  26.207   6.450
 7923POPC   C2B45872  25.817  26.158   6.750
 7923POPC   C3B45873  25.804  26.173   7.050
 7923POPC   C4B45874  25.814  26.242   7.350
 7924POPC   NC345875  14.425  28.414   5.550
 7924POPC   PO445876  14.452  28.384   5.850
 7924POPC   GL145877  14.355  28.335   6.150
 7924POPC   GL245878  14.577  28.358   6.150
 7924POPC   C1A45879  14.426  28.321   6.450
 7924POPC   D2A45880  14.441  28.401   6.750
 7924POPC   C3A45881  14.372  28.388   7.050
 7924POPC   C4A45882  14.428  28.366   7.350
 7924POPC   C1B45883  14.689  28.391   6.450
 7924POPC   C2B45884  14.627  28.366   6.750
 7924POPC   C3B45885  14.638  28.366   7.050
 7924POPC   C4B45886  14.609  28.348   7.350
 7925POPC   NC345887  43.135   3.587   5.550
 7925POPC   PO445888  43.128   3.537   5.850
 7925POPC   GL145889  43.076   3.497   6.150
 7925POPC   GL245890  42.946   3.503   6.150
 7925POPC   C1A45891  43.156   3.509   6.450
 7925POPC   D2A45892  43.118   3.553   6.750
 7925POPC   C3A45893  43.089   3.514   7.050
 7925POPC   C4A45894  43.114   3.546   7.350
 7925POPC   C1B45895  42.848   3.533   6.450
 7925POPC   C2B45896  42.853   3.559   6.750
 7925POPC   C3B45897  42.828   3.513   7.050
 7925POPC   C4B45898  42.905   3.559   7.350
 7926POPC   NC345899   2.753  10.554   5.550
 7926POPC   PO445900   2.813  10.572   5.850
 7926POPC   GL145901   2.717  10.515   6.150
 7926POPC   GL245902   2.657  10.394   6.150
 7926POPC   C1A45903   2.804  10.539   6.450
 7926POPC   D2A45904   2.770  10.486   6.750
 7926POPC   C3A45905   2.783  10.520   7.050
 7926POPC   C4A45906   2.787  10.556   7.350
 7926POPC   C1B45907   2.629  10.297   6.450
 7926POPC   C2B45908   2.640  10.360   6.750
 7926POPC   C3B45909   2.608  10.291   7.050
 7926POPC   C4B45910   2.603  10.378   7.350
 7927POPC   NC345911  42.345  20.621   5.550
 7927POPC   PO445912  42.311  20.583   5.850
 7927POPC   GL145913  42.370  20.632   6.150
 7927POPC   GL245914  42.241  20.516   6.150
 7927POPC   C1A45915  42.355  20.608   6.450
 7927POPC   D2A45916  42.315  20.572   6.750
 7927POPC   C3A45917  42.353  20.590   7.050
 7927POPC   C4A45918  42.326  20.572   7.350
 7927POPC   C1B45919  42.121  20.520   6.450
 7927POPC   C2B45920  42.088  20.528   6.750
 7927POPC   C3B45921  42.058  20.464   7.050
 7927POPC   C4B45922  42.113  20.541   7.350
 7928POPC   NC345923  24.530  37.673   5.550
 7928POPC   PO445924  24.449  37.651   5.850
 7928POPC   GL145925  24.530  37.693   6.150
 7928POPC   GL245926  24.571  37.713   6.150
 7928POPC   C1A45927  24.494  37.665   6.450
 7928POPC   D2A45928  24.463  37.648   6.750
 7928POPC   C3A45929  24.451  37.642   7.050
 7928POPC   C4A45930  24.476  37.696   7.350
 7928POPC   C1B45931  24.697  37.734   6.450
 7928POPC   C2B45932  24.737  37.727   6.750
 7928POPC   C3B45933  24.683  37.771   7.050
 7928POPC   C4B45934  24.765  37.770   7.350
 7929POPC   NC345935  41.604  25.308   5.550
 7929POPC   PO445936  41.593  25.240   5.850
 7929POPC   GL145937  41.543  25.261   6.150
 7929POPC   GL245938  41.484  25.229   6.150
 7929POPC   C1A45939  41.535  25.269   6.450
 7929POPC   D2A45940  41.604  25.294   6.750
 7929POPC   C3A45941  41.536  25.240   7.050
 7929POPC   C4A45942  41.598  25.216   7.350
 7929POPC   C1B45943  41.329  25.170   6.450
 7929POPC   C2B45944  41.342  25.186   6.750
 7929POPC   C3B45945  41.329  25.155   7.050
 7929POPC   C4B45946  41.314  25.228   7.350
 7930POPC   NC345947   2.775  31.426   5.550
 7930POPC   PO445948   2.773  31.517   5.850
 7930POPC   GL145949   2.716  31.445   6.150
 7930POPC   GL245950   2.684  31.399   6.150
 7930POPC   C1A45951   2.732  31.459   6.450
 7930POPC   D2A45952   2.784  31.477   6.750
 7930POPC   C3A45953   2.788  31.511   7.050
 7930POPC   C4A45954   2.801  31.429   7.350
 7930POPC   C1B45955   2.617  31.351   6.450
 7930POPC   C2B45956   2.624  31.280   6.750
 7930POPC   C3B45957   2.592  31.342   7.050
 7930POPC   C4B45958   2.558  31.296   7.350
 7931POPC   NC345959  14.374  23.736   5.550
 7931POPC   PO445960  14.433  23.704   5.850
 7931POPC   GL145961  14.432  23.704   6.150
 7931POPC   GL245962  14.308  23.586   6.150
 7931POPC   C1A45963  14.389  23.755   6.450
 7931POPC   D2A45964  14.399  23.718   6.750
 7931POPC   C3A45965  14.437  23.708   7.050
 7931POPC   C4A45966  14.372  23.764   7.350
 7931POPC   C1B45967  14.331  23.525   6.450
 7931POPC   C2B45968  14.310  23.530   6.750
 7931POPC   C3B45969  14.309  23.464   7.050
 7931POPC   C4B45970  14.311  23.445   7.350
 7932POPC   NC345971  29.139  15.954   5.550
 7932POPC   PO445972  29.144  15.939   5.850
 7932POPC   GL145973  29.129  15.918   6.150
 7932POPC   GL245974  29.124  15.877   6.150
 7932POPC   C1A45975  29.175  15.975   6.450
 7932POPC   D2A45976  29.192  15.909   6.750
 7932POPC   C3A45977  29.183  15.914   7.050
 7932POPC   C4A45978  29.178  15.943   7.350
 7932POPC   C1B45979  29.138  15.744   6.450
 7932POPC   C2B45980  29.080  15.693   6.750
 7932POPC   C3B45981  29.084  15.747   7.050
 7932POPC   C4B45982  29.130  15.751   7.350
 7933POPC   NC345983  28.384  39.198   5.550
 7933POPC   PO445984  28.409  39.254   5.850
 7933POPC   GL145985  28.383  39.188   6.150
 7933POPC   GL245986  28.305  39.106   6.150
 7933POPC   C1A45987  28.410  39.182   6.450
 7933POPC   D2A45988  28.389  39.196   6.750
 7933POPC   C3A45989  28.353  39.213   7.050
 7933POPC   C4A45990  28.336  39.248   7.350
 7933POPC   C1B45991  28.197  38.989   6.450
 7933POPC   C2B45992  28.246  39.029   6.750
 7933POPC   C3B45993  28.265  39.027   7.050
 7933POPC   C4B45994  28.267  39.016   7.350
 7934POPC   NC345995   0.446  15.940   5.550
 7934POPC   PO445996   0.417  16.003   5.850
 7934POPC   GL145997   0.406  15.966   6.150
 7934POPC   GL245998   0.531  15.981   6.150
 7934POPC   C1A45999   0.472  15.915   6.450
 7934POPC   D2A46000   0.484  15.989   6.750
 7934POPC   C3A46001   0.416  15.951   7.050
 7934POPC   C4A46002   0.450  15.909   7.350
 7934POPC   C1B46003   0.691  16.036   6.450
 7934POPC   C2B46004   0.710  16.034   6.750
 7934POPC   C3B46005   0.705  16.067   7.050
 7934POPC   C4B46006   0.698  16.078   7.350
 7935POPC   NC346007  35.326  18.254   5.550
 7935POPC   PO446008  35.336  18.326   5.850
 7935POPC   GL146009  35.327  18.251   6.150
 7935POPC   GL246010  35.467  18.356   6.150
 7935POPC   C1A46011  35.391  18.252   6.450
 7935POPC   D2A46012  35.311  18.315   6.750
 7935POPC   C3A46013  35.354  18.320   7.050
 7935POPC   C4A46014  35.356  18.327   7.350
 7935POPC   C1B46015  35.516  18.442   6.450
 7935POPC   C2B46016  35.611  18.428   6.750
 7935POPC   C3B46017  35.607  18.382   7.050
 7935POPC   C4B46018  35.563  18.381   7.350
 7936POPC   NC346019  12.886  39.250   5.550
 7936POPC   PO446020  12.869  39.272   5.850
 7936POPC   GL146021  12.811  39.254   6.150
 7936POPC   GL246022  12.763  39.122   6.150
 7936POPC   C1A46023  12.811  39.278   6.450
 7936POPC   D2A46024  12.858  39.253   6.750
 7936POPC   C3A46025  12.864  39.229   7.050
 7936POPC   C4A46026  12.842  39.220   7.350
 7936POPC   C1B46027  12.727  38.984   6.450
 7936POPC   C2B46028  12.766  39.026   6.750
 7936POPC   C3B46029  12.803  38.981   7.050
 7936POPC   C4B46030  12.749  39.009   7.350
 7937POPC   NC346031   2.005   6.676   5.550
 7937POPC   PO446032   1.975   6.676   5.850
 7937POPC   GL146033   1.975   6.638   6.150
 7937POPC   GL246034   1.969   6.539   6.150
 7937POPC   C1A46035   2.007   6.602   6.450
 7937POPC   D2A46036   1.951   6.689   6.750
 7937POPC   C3A46037   1.969   6.692   7.050
 7937POPC   C4A46038   1.989   6.603   7.350
 7937POPC   C1B46039   1.880   6.455   6.450
 7937POPC   C2B46040   1.888   6.358   6.750
 7937POPC   C3B46041   1.928   6.393   7.050
 7937POPC   C4B46042   1.927   6.434   7.350
 7938POPC   NC346043  18.268  29.896   5.550
 7938POPC   PO446044  18.296  29.922   5.850
 7938POPC   GL146045  18.285  29.940   6.150
 7938POPC   GL246046  18.454  29.936   6.150
 7938POPC   C1A46047  18.275  29.957   6.450
 7938POPC   D2A46048  18.254  29.940   6.750
 7938POPC   C3A46049  18.288  29.922   7.050
 7938POPC   C4A46050  18.272  29.956   7.350
 7938POPC   C1B46051  18.557  29.915   6.450
 7938POPC   C2B46052  18.575  29.995   6.750
 7938POPC   C3B46053  18.558  29.949   7.050
 7938POPC   C4B46054  18.526  29.939   7.350
 7939POPC   NC346055  14.365  29.110   5.550
 7939POPC   PO446056  14.418  29.175   5.850
 7939POPC   GL146057  14.408  29.120   6.150
 7939POPC   GL246058  14.246  29.108   6.150
 7939POPC   C1A46059  14.356  29.174   6.450
 7939POPC   D2A46060  14.400  29.172   6.750
 7939POPC   C3A46061  14.439  29.103   7.050
 7939POPC   C4A46062  14.387  29.183   7.350
 7939POPC   C1B46063  14.205  29.039   6.450
 7939POPC   C2B46064  14.156  29.020   6.750
 7939POPC   C3B46065  14.133  29.086   7.050
 7939POPC   C4B46066  14.212  29.007   7.350
 7940POPC   NC346067  36.875   5.083   5.550
 7940POPC   PO446068  36.871   5.129   5.850
 7940POPC   GL146069  36.936   5.095   6.150
 7940POPC   GL246070  37.021   5.122   6.150
 7940POPC   C1A46071  36.937   5.136   6.450
 7940POPC   D2A46072  36.864   5.134   6.750
 7940POPC   C3A46073  36.881   5.132   7.050
 7940POPC   C4A46074  36.917   5.113   7.350
 7940POPC   C1B46075  37.149   5.252   6.450
 7940POPC   C2B46076  37.151   5.214   6.750
 7940POPC   C3B46077  37.103   5.203   7.050
 7940POPC   C4B46078  37.110   5.226   7.350
 7941POPC   NC346079  44.619  13.662   5.550
 7941POPC   PO446080  44.683  13.613   5.850
 7941POPC   GL146081  44.669  13.666   6.150
 7941POPC   GL246082  44.781  13.726   6.150
 7941POPC   C1A46083  44.696  13.619   6.450
 7941POPC   D2A46084  44.673  13.612   6.750
 7941POPC   C3A46085  44.631  13.654   7.050
 7941POPC   C4A46086  44.626  13.593   7.350
 7941POPC   C1B46087  44.827  13.783   6.450
 7941POPC   C2B46088  44.872  13.759   6.750
 7941POPC   C3B46089  44.808  13.811   7.050
 7941POPC   C4B46090  44.835  13.771   7.350
 7942POPC   NC346091   1.202  11.297   5.550
 7942POPC   PO446092   1.254  11.322   5.850
 7942POPC   GL146093   1.246  11.337   6.150
 7942POPC   GL246094   1.279  11.141   6.150
 7942POPC   C1A46095   1.172  11.319   6.450
 7942POPC   D2A46096   1.263  11.328   6.750
 7942POPC   C3A46097   1.176  11.341   7.050
 7942POPC   C4A46098   1.227  11.303   7.350
 7942POPC   C1B46099   1.326  11.075   6.450
 7942POPC   C2B46100   1.353  11.033   6.750
 7942POPC   C3B46101   1.325  11.053   7.050
 7942POPC   C4B46102   1.285  11.025   7.350
 7943POPC   NC346103  43.871  28.397   5.550
 7943POPC   PO446104  43.886  28.368   5.850
 7943POPC   GL146105  43.858  28.391   6.150
 7943POPC   GL246106  43.835  28.511   6.150
 7943POPC   C1A46107  43.903  28.364   6.450
 7943POPC   D2A46108  43.884  28.319   6.750
 7943POPC   C3A46109  43.874  28.388   7.050
 7943POPC   C4A46110  43.850  28.359   7.350
 7943POPC   C1B46111  43.858  28.634   6.450
 7943POPC   C2B46112  43.847  28.642   6.750
 7943POPC   C3B46113  43.899  28.598   7.050
 7943POPC   C4B46114  43.907  28.621   7.350
 7944POPC   NC346115  35.371  31.511   5.550
 7944POPC   PO446116  35.360  31.503   5.850
 7944POPC   GL146117  35.377  31.430   6.150
 7944POPC   GL246118  35.270  31.520   6.150
 7944POPC   C1A46119  35.388  31.519   6.450
 7944POPC   D2A46120  35.314  31.479   6.750
 7944POPC   C3A46121  35.302  31.474   7.050
 7944POPC   C4A46122  35.335  31.494   7.350
 7944POPC   C1B46123  35.115  31.649   6.450
 7944POPC   C2B46124  35.179  31.619   6.750
 7944POPC   C3B46125  35.115  31.593   7.050
 7944POPC   C4B46126  35.190  31.612   7.350
 7945POPC   NC346127   8.173  10.570   5.550
 7945POPC   PO446128   8.220  10.512   5.850
 7945POPC   GL146129   8.155  10.548   6.150
 7945POPC   GL246130   8.161  10.451   6.150
 7945POPC   C1A46131   8.240  10.486   6.450
 7945POPC   D2A46132   8.185  10.561   6.750
 7945POPC   C3A46133   8.168  10.535   7.050
 7945POPC   C4A46134   8.240  10.507   7.350
 7945POPC   C1B46135   8.044  10.286   6.450
 7945POPC   C2B46136   8.105  10.318   6.750
 7945POPC   C3B46137   8.104  10.348   7.050
 7945POPC   C4B46138   8.100  10.271   7.350
 7946POPC   NC346139  12.115   3.586   5.550
 7946POPC   PO446140  12.074   3.506   5.850
 7946POPC   GL146141  12.076   3.561   6.150
 7946POPC   GL246142  12.195   3.673   6.150
 7946POPC   C1A46143  12.078   3.545   6.450
 7946POPC   D2A46144  12.047   3.565   6.750
 7946POPC   C3A46145  12.119   3.536   7.050
 7946POPC   C4A46146  12.059   3.587   7.350
 7946POPC   C1B46147  12.200   3.707   6.450
 7946POPC   C2B46148  12.200   3.740   6.750
 7946POPC   C3B46149  12.224   3.705   7.050
 7946POPC   C4B46150  12.227   3.777   7.350
 7947POPC   NC346151  28.413  11.252   5.550
 7947POPC   PO446152  28.328  11.320   5.850
 7947POPC   GL146153  28.400  11.266   6.150
 7947POPC   GL246154  28.220  11.302   6.150
 7947POPC   C1A46155  28.336  11.278   6.450
 7947POPC   D2A46156  28.405  11.270   6.750
 7947POPC   C3A46157  28.340  11.348   7.050
 7947POPC   C4A46158  28.373  11.293   7.350
 7947POPC   C1B46159  28.091  11.394   6.450
 7947POPC   C2B46160  28.139  11.429   6.750
 7947POPC   C3B46161  28.088  11.431   7.050
 7947POPC   C4B46162  28.122  11.373   7.350
 7948POPC   NC346163  36.868  30.733   5.550
 7948POPC   PO446164  36.917  30.720   5.850
 7948POPC   GL146165  36.896  30.651   6.150
 7948POPC   GL246166  37.059  30.608   6.150
 7948POPC   C1A46167  36.873  30.733   6.450
 7948POPC   D2A46168  36.872  30.692   6.750
 7948POPC   C3A46169  36.922  30.739   7.050
 7948POPC   C4A46170  36.895  30.709   7.350
 7948POPC   C1B46171  37.128  30.546   6.450
 7948POPC   C2B46172  37.127  30.572   6.750
 7948POPC   C3B46173  37.168  30.614   7.050
 7948POPC   C4B46174  37.152  30.563   7.350
 7949POPC   NC346175  27.581  19.823   5.550
 7949POPC   PO446176  27.569  19.794   5.850
 7949POPC   GL146177  27.583  19.851   6.150
 7949POPC   GL246178  27.657  19.784   6.150
 7949POPC   C1A46179  27.616  19.873   6.450
 7949POPC   D2A46180  27.577  19.818   6.750
 7949POPC   C3A46181  27.640  19.882   7.050
 7949POPC   C4A46182  27.615  19.848   7.350
 7949POPC   C1B46183  27.798  19.673   6.450
 7949POPC   C2B46184  27.809  19.639   6.750
 7949POPC   C3B46185  27.801  19.664   7.050
 7949POPC   C4B46186  27.752  19.672   7.350
 7950POPC   NC346187  36.093  11.299   5.550
 7950POPC   PO446188  36.153  11.290   5.850
 7950POPC   GL146189  36.152  11.348   6.150
 7950POPC   GL246190  36.209  11.341   6.150
 7950POPC   C1A46191  36.133  11.307   6.450
 7950POPC   D2A46192  36.141  11.281   6.750
 7950POPC   C3A46193  36.105  11.327   7.050
 7950POPC   C4A46194  36.168  11.339   7.350
 7950POPC   C1B46195  36.299  11.444   6.450
 7950POPC   C2B46196  36.300  11.483   6.750
 7950POPC   C3B46197  36.331  11.406   7.050
 7950POPC   C4B46198  36.329  11.411   7.350
 7951POPC   NC346199   6.648  28.383   5.550
 7951POPC   PO446200   6.687  28.338   5.850
 7951POPC   GL146201   6.672  28.344   6.150
 7951POPC   GL246202   6.677  28.506   6.150
 7951POPC   C1A46203   6.613  28.410   6.450
 7951POPC   D2A46204   6.664  28.404   6.750
 7951POPC   C3A46205   6.657  28.415   7.050
 7951POPC   C4A46206   6.611  28.378   7.350
 7951POPC   C1B46207   6.668  28.614   6.450
 7951POPC   C2B46208   6.665  28.629   6.750
 7951POPC   C3B46209   6.635  28.646   7.050
 7951POPC   C4B46210   6.638  28.621   7.350
 7952POPC   NC346211  37.709  43.931   5.550
 7952POPC   PO446212  37.707  43.860   5.850
 7952POPC   GL146213  37.666  43.918   6.150
 7952POPC   GL246214  37.812  43.838   6.150
 7952POPC   C1A46215  37.723  43.914   6.450
 7952POPC   D2A46216  37.723  43.856   6.750
 7952POPC   C3A46217  37.725  43.855   7.050
 7952POPC   C4A46218  37.681  43.917   7.350
 7952POPC   C1B46219  37.941  43.834   6.450
 7952POPC   C2B46220  37.944  43.773   6.750
 7952POPC   C3B46221  37.875  43.763   7.050
 7952POPC   C4B46222  37.872  43.744   7.350
 7953POPC   NC346223   1.170  20.581   5.550
 7953POPC   PO446224   1.237  20.615   5.850
 7953POPC   GL146225   1.229  20.564   6.150
 7953POPC   GL246226   1.205  20.537   6.150
 7953POPC   C1A46227   1.254  20.601   6.450
 7953POPC   D2A46228   1.257  20.643   6.750
 7953POPC   C3A46229   1.258  20.572   7.050
 7953POPC   C4A46230   1.229  20.585   7.350
 7953POPC   C1B46231   1.163  20.390   6.450
 7953POPC   C2B46232   1.151  20.368   6.750
 7953POPC   C3B46233   1.136  20.424   7.050
 7953POPC   C4B46234   1.107  20.419   7.350
 7954POPC   NC346235   9.020   5.828   5.550
 7954POPC   PO446236   9.012   5.876   5.850
 7954POPC   GL146237   9.003   5.820   6.150
 7954POPC   GL246238   9.077   5.717   6.150
 7954POPC   C1A46239   8.975   5.840   6.450
 7954POPC   D2A46240   8.951   5.882   6.750
 7954POPC   C3A46241   8.985   5.882   7.050
 7954POPC   C4A46242   8.983   5.888   7.350
 7954POPC   C1B46243   9.099   5.693   6.450
 7954POPC   C2B46244   9.139   5.681   6.750
 7954POPC   C3B46245   9.122   5.613   7.050
 7954POPC   C4B46246   9.072   5.694   7.350
 7955POPC   NC346247   5.914  31.503   5.550
 7955POPC   PO446248   5.861  31.439   5.850
 7955POPC   GL146249   5.827  31.503   6.150
 7955POPC   GL246250   5.990  31.444   6.150
 7955POPC   C1A46251   5.896  31.476   6.450
 7955POPC   D2A46252   5.887  31.517   6.750
 7955POPC   C3A46253   5.867  31.424   7.050
 7955POPC   C4A46254   5.878  31.503   7.350
 7955POPC   C1B46255   6.136  31.341   6.450
 7955POPC   C2B46256   6.087  31.393   6.750
 7955POPC   C3B46257   6.128  31.361   7.050
 7955POPC   C4B46258   6.152  31.399   7.350
 7956POPC   NC346259  25.253  40.783   5.550
 7956POPC   PO446260  25.232  40.795   5.850
 7956POPC   GL146261  25.284  40.822   6.150
 7956POPC   GL246262  25.393  40.791   6.150
 7956POPC   C1A46263  25.311  40.798   6.450
 7956POPC   D2A46264  25.239  40.776   6.750
 7956POPC   C3A46265  25.310  40.826   7.050
 7956POPC   C4A46266  25.309  40.796   7.350
 7956POPC   C1B46267  25.547  40.752   6.450
 7956POPC   C2B46268  25.467  40.846   6.750
 7956POPC   C3B46269  25.506  40.815   7.050
 7956POPC   C4B46270  25.467  40.808   7.350
 7957POPC   NC346271  30.662  15.136   5.550
 7957POPC   PO446272  30.731  15.190   5.850
 7957POPC   GL146273  30.677  15.205   6.150
 7957POPC   GL246274  30.727  15.092   6.150
 7957POPC   C1A46275  30.655  15.182   6.450
 7957POPC   D2A46276  30.688  15.212   6.750
 7957POPC   C3A46277  30.695  15.156   7.050
 7957POPC   C4A46278  30.724  15.144   7.350
 7957POPC   C1B46279  30.727  14.955   6.450
 7957POPC   C2B46280  30.684  14.884   6.750
 7957POPC   C3B46281  30.729  14.950   7.050
 7957POPC   C4B46282  30.755  14.901   7.350
 7958POPC   NC346283  17.552  23.737   5.550
 7958POPC   PO446284  17.484  23.713   5.850
 7958POPC   GL146285  17.495  23.669   6.150
 7958POPC   GL246286  17.588  23.652   6.150
 7958POPC   C1A46287  17.516  23.730   6.450
 7958POPC   D2A46288  17.526  23.746   6.750
 7958POPC   C3A46289  17.526  23.700   7.050
 7958POPC   C4A46290  17.520  23.675   7.350
 7958POPC   C1B46291  17.738  23.666   6.450
 7958POPC   C2B46292  17.720  23.670   6.750
 7958POPC   C3B46293  17.722  23.692   7.050
 7958POPC   C4B46294  17.761  23.637   7.350
 7959POPC   NC346295  27.567  24.497   5.550
 7959POPC   PO446296  27.621  24.494   5.850
 7959POPC   GL146297  27.570  24.512   6.150
 7959POPC   GL246298  27.681  24.578   6.150
 7959POPC   C1A46299  27.565  24.520   6.450
 7959POPC   D2A46300  27.544  24.511   6.750
 7959POPC   C3A46301  27.554  24.521   7.050
 7959POPC   C4A46302  27.557  24.526   7.350
 7959POPC   C1B46303  27.681  24.698   6.450
 7959POPC   C2B46304  27.692  24.749   6.750
 7959POPC   C3B46305  27.659  24.692   7.050
 7959POPC   C4B46306  27.676  24.753   7.350
 7960POPC   NC346307  11.271  34.588   5.550
 7960POPC   PO446308  11.340  34.554   5.850
 7960POPC   GL146309  11.341  34.550   6.150
 7960POPC   GL246310  11.410  34.513   6.150
 7960POPC   C1A46311  11.271  34.575   6.450
 7960POPC   D2A46312  11.267  34.565   6.750
 7960POPC   C3A46313  11.314  34.625   7.050
 7960POPC   C4A46314  11.293  34.599   7.350
 7960POPC   C1B46315  11.502  34.374   6.450
 7960POPC   C2B46316  11.470  34.411   6.750
 7960POPC   C3B46317  11.429  34.366   7.050
 7960POPC   C4B46318  11.470  34.398   7.350
 7961POPC   NC346319  28.355  19.836   5.550
 7961POPC   PO446320  28.419  19.789   5.850
 7961POPC   GL146321  28.359  19.850   6.150
 7961POPC   GL246322  28.228  19.834   6.150
 7961POPC   C1A46323  28.355  19.864   6.450
 7961POPC   D2A46324  28.398  19.810   6.750
 7961POPC   C3A46325  28.417  19.858   7.050
 7961POPC   C4A46326  28.418  19.852   7.350
 7961POPC   C1B46327  28.163  19.923   6.450
 7961POPC   C2B46328  28.098  19.894   6.750
 7961POPC   C3B46329  28.158  19.886   7.050
 7961POPC   C4B46330  28.152  19.973   7.350
 7962POPC   NC346331  18.258  14.403   5.550
 7962POPC   PO446332  18.320  14.380   5.850
 7962POPC   GL146333  18.259  14.393   6.150
 7962POPC   GL246334  18.331  14.269   6.150
 7962POPC   C1A46335  18.280  14.395   6.450
 7962POPC   D2A46336  18.267  14.438   6.750
 7962POPC   C3A46337  18.268  14.379   7.050
 7962POPC   C4A46338  18.261  14.436   7.350
 7962POPC   C1B46339  18.418  14.226   6.450
 7962POPC   C2B46340  18.404  14.149   6.750
 7962POPC   C3B46341  18.439  14.211   7.050
 7962POPC   C4B46342  18.464  14.209   7.350
 7963POPC   NC346343   1.977  14.443   5.550
 7963POPC   PO446344   1.944  14.416   5.850
 7963POPC   GL146345   1.958  14.434   6.150
 7963POPC   GL246346   2.157  14.360   6.150
 7963POPC   C1A46347   1.979  14.382   6.450
 7963POPC   D2A46348   2.039  14.408   6.750
 7963POPC   C3A46349   2.029  14.412   7.050
 7963POPC   C4A46350   2.012  14.429   7.350
 7963POPC   C1B46351   2.272  14.401   6.450
 7963POPC   C2B46352   2.234  14.366   6.750
 7963POPC   C3B46353   2.201  14.429   7.050
 7963POPC   C4B46354   2.232  14.364   7.350
 7964POPC   NC346355  22.890  20.624   5.550
 7964POPC   PO446356  22.974  20.653   5.850
 7964POPC   GL146357  22.971  20.589   6.150
 7964POPC   GL246358  23.058  20.718   6.150
 7964POPC   C1A46359  22.968  20.627   6.450
 7964POPC   D2A46360  22.959  20.634   6.750
 7964POPC   C3A46361  22.946  20.614   7.050
 7964POPC   C4A46362  22.946  20.577   7.350
 7964POPC   C1B46363  23.110  20.784   6.450
 7964POPC   C2B46364  23.071  20.763   6.750
 7964POPC   C3B46365  23.159  20.825   7.050
 7964POPC   C4B46366  23.093  20.826   7.350
 7965POPC   NC346367  36.169  36.112   5.550
 7965POPC   PO446368  36.132  36.166   5.850
 7965POPC   GL146369  36.169  36.083   6.150
 7965POPC   GL246370  36.030  36.128   6.150
 7965POPC   C1A46371  36.153  36.133   6.450
 7965POPC   D2A46372  36.096  36.170   6.750
 7965POPC   C3A46373  36.172  36.140   7.050
 7965POPC   C4A46374  36.119  36.127   7.350
 7965POPC   C1B46375  35.848  36.193   6.450
 7965POPC   C2B46376  35.882  36.168   6.750
 7965POPC   C3B46377  35.920  36.190   7.050
 7965POPC   C4B46378  35.874  36.227   7.350
 7966POPC   NC346379  43.899  21.380   5.550
 7966POPC   PO446380  43.914  21.342   5.850
 7966POPC   GL146381  43.842  21.346   6.150
 7966POPC   GL246382  43.986  21.475   6.150
 7966POPC   C1A46383  43.902  21.420   6.450
 7966POPC   D2A46384  43.886  21.355   6.750
 7966POPC   C3A46385  43.885  21.419   7.050
 7966POPC   C4A46386  43.900  21.417   7.350
 7966POPC   C1B46387  44.040  21.599   6.450
 7966POPC   C2B46388  44.038  21.613   6.750
 7966POPC   C3B46389  44.010  21.555   7.050
 7966POPC   C4B46390  44.076  21.619   7.350
 7967POPC   NC346391  27.616  35.351   5.550
 7967POPC   PO446392  27.544  35.333   5.850
 7967POPC   GL146393  27.572  35.351   6.150
 7967POPC   GL246394  27.658  35.474   6.150
 7967POPC   C1A46395  27.621  35.386   6.450
 7967POPC   D2A46396  27.640  35.314   6.750
 7967POPC   C3A46397  27.630  35.353   7.050
 7967POPC   C4A46398  27.621  35.374   7.350
 7967POPC   C1B46399  27.616  35.606   6.450
 7967POPC   C2B46400  27.632  35.578   6.750
 7967POPC   C3B46401  27.687  35.562   7.050
 7967POPC   C4B46402  27.668  35.548   7.350
 7968POPC   NC346403  34.526  22.910   5.550
 7968POPC   PO446404  34.579  22.895   5.850
 7968POPC   GL146405  34.600  22.905   6.150
 7968POPC   GL246406  34.600  22.810   6.150
 7968POPC   C1A46407  34.561  22.974   6.450
 7968POPC   D2A46408  34.605  22.934   6.750
 7968POPC   C3A46409  34.587  22.956   7.050
 7968POPC   C4A46410  34.565  22.927   7.350
 7968POPC   C1B46411  34.647  22.669   6.450
 7968POPC   C2B46412  34.652  22.664   6.750
 7968POPC   C3B46413  34.633  22.698   7.050
 7968POPC   C4B46414  34.680  22.653   7.350
 7969POPC   NC346415  12.124  13.614   5.550
 7969POPC   PO446416  12.034  13.582   5.850
 7969POPC   GL146417  12.124  13.645   6.150
 7969POPC   GL246418  11.994  13.641   6.150
 7969POPC   C1A46419  12.031  13.654   6.450
 7969POPC   D2A46420  12.026  13.645   6.750
 7969POPC   C3A46421  12.036  13.665   7.050
 7969POPC   C4A46422  12.116  13.583   7.350
 7969POPC   C1B46423  11.804  13.648   6.450
 7969POPC   C2B46424  11.882  13.650   6.750
 7969POPC   C3B46425  11.789  13.669   7.050
 7969POPC   C4B46426  11.851  13.688   7.350
 7970POPC   NC346427  43.914  16.717   5.550
 7970POPC   PO446428  43.884  16.724   5.850
 7970POPC   GL146429  43.862  16.716   6.150
 7970POPC   GL246430  44.013  16.738   6.150
 7970POPC   C1A46431  43.859  16.690   6.450
 7970POPC   D2A46432  43.868  16.699   6.750
 7970POPC   C3A46433  43.898  16.716   7.050
 7970POPC   C4A46434  43.848  16.720   7.350
 7970POPC   C1B46435  44.132  16.707   6.450
 7970POPC   C2B46436  44.124  16.688   6.750
 7970POPC   C3B46437  44.163  16.720   7.050
 7970POPC   C4B46438  44.177  16.680   7.350
 7971POPC   NC346439   1.214   2.809   5.550
 7971POPC   PO446440   1.165   2.740   5.850
 7971POPC   GL146441   1.197   2.767   6.150
 7971POPC   GL246442   1.163   2.828   6.150
 7971POPC   C1A46443   1.192   2.717   6.450
 7971POPC   D2A46444   1.261   2.783   6.750
 7971POPC   C3A46445   1.216   2.804   7.050
 7971POPC   C4A46446   1.198   2.766   7.350
 7971POPC   C1B46447   1.079   2.977   6.450
 7971POPC   C2B46448   1.038   2.915   6.750
 7971POPC   C3B46449   1.020   2.926   7.050
 7971POPC   C4B46450   1.077   2.930   7.350
 7972POPC   NC346451  35.356  12.843   5.550
 7972POPC   PO446452  35.400  12.813   5.850
 7972POPC   GL146453  35.371  12.885   6.150
 7972POPC   GL246454  35.328  12.785   6.150
 7972POPC   C1A46455  35.343  12.831   6.450
 7972POPC   D2A46456  35.322  12.808   6.750
 7972POPC   C3A46457  35.348  12.833   7.050
 7972POPC   C4A46458  35.345  12.860   7.350
 7972POPC   C1B46459  35.194  12.626   6.450
 7972POPC   C2B46460  35.207  12.643   6.750
 7972POPC   C3B46461  35.202  12.645   7.050
 7972POPC   C4B46462  35.241  12.650   7.350
 7973POPC   NC346463   9.729   9.002   5.550
 7973POPC   PO446464   9.798   8.924   5.850
 7973POPC   GL146465   9.698   9.000   6.150
 7973POPC   GL246466   9.907   9.023   6.150
 7973POPC   C1A46467   9.743   8.992   6.450
 7973POPC   D2A46468   9.765   9.006   6.750
 7973POPC   C3A46469   9.714   8.996   7.050
 7973POPC   C4A46470   9.771   8.962   7.350
 7973POPC   C1B46471   9.971   9.046   6.450
 7973POPC   C2B46472  10.008   9.055   6.750
 7973POPC   C3B46473   9.973   9.026   7.050
 7973POPC   C4B46474  10.020   9.012   7.350
 7974POPC   NC346475  36.908  27.605   5.550
 7974POPC   PO446476  36.888  27.582   5.850
 7974POPC   GL146477  36.911  27.575   6.150
 7974POPC   GL246478  36.901  27.444   6.150
 7974POPC   C1A46479  36.925  27.595   6.450
 7974POPC   D2A46480  36.946  27.574   6.750
 7974POPC   C3A46481  36.901  27.560   7.050
 7974POPC   C4A46482  36.864  27.626   7.350
 7974POPC   C1B46483  36.791  27.314   6.450
 7974POPC   C2B46484  36.834  27.344   6.750
 7974POPC   C3B46485  36.817  27.346   7.050
 7974POPC   C4B46486  36.792  27.362   7.350
 7975POPC   NC346487  39.978  18.326   5.550
 7975POPC   PO446488  40.039  18.302   5.850
 7975POPC   GL146489  39.990  18.293   6.150
 7975POPC   GL246490  40.171  18.286   6.150
 7975POPC   C1A46491  39.984  18.236   6.450
 7975POPC   D2A46492  39.972  18.287   6.750
 7975POPC   C3A46493  39.966  18.281   7.050
 7975POPC   C4A46494  39.967  18.271   7.350
 7975POPC   C1B46495  40.292  18.285   6.450
 7975POPC   C2B46496  40.280  18.334   6.750
 7975POPC   C3B46497  40.207  18.293   7.050
 7975POPC   C4B46498  40.244  18.264   7.350
 7976POPC   NC346499  25.247  19.798   5.550
 7976POPC   PO446500  25.275  19.861   5.850
 7976POPC   GL146501  25.281  19.802   6.150
 7976POPC   GL246502  25.361  19.781   6.150
 7976POPC   C1A46503  25.278  19.865   6.450
 7976POPC   D2A46504  25.312  19.871   6.750
 7976POPC   C3A46505  25.236  19.844   7.050
 7976POPC   C4A46506  25.257  19.815   7.350
 7976POPC   C1B46507  25.542  19.718   6.450
 7976POPC   C2B46508  25.493  19.770   6.750
 7976POPC   C3B46509  25.460  19.758   7.050
 7976POPC   C4B46510  25.517  19.754   7.350
 7977POPC   NC346511   7.458   8.948   5.550
 7977POPC   PO446512   7.445   9.012   5.850
 7977POPC   GL146513   7.397   8.945   6.150
 7977POPC   GL246514   7.536   8.969   6.150
 7977POPC   C1A46515   7.376   8.945   6.450
 7977POPC   D2A46516   7.429   8.964   6.750
 7977POPC   C3A46517   7.385   9.021   7.050
 7977POPC   C4A46518   7.406   8.990   7.350
 7977POPC   C1B46519   7.675   8.959   6.450
 7977POPC   C2B46520   7.706   8.915   6.750
 7977POPC   C3B46521   7.618   8.913   7.050
 7977POPC   C4B46522   7.695   8.947   7.350
 7978POPC   NC346523  24.538  30.735   5.550
 7978POPC   PO446524  24.456  30.698   5.850
 7978POPC   GL146525  24.475  30.700   6.150
 7978POPC   GL246526  24.345  30.639   6.150
 7978POPC   C1A46527  24.506  30.686   6.450
 7978POPC   D2A46528  24.520  30.668   6.750
 7978POPC   C3A46529  24.448  30.677   7.050
 7978POPC   C4A46530  24.539  30.706   7.350
 7978POPC   C1B46531  24.216  30.671   6.450
 7978POPC   C2B46532  24.280  30.651   6.750
 7978POPC   C3B46533  24.286  30.639   7.050
 7978POPC   C4B46534  24.234  30.622   7.350
 7979POPC   NC346535  40.050   6.610   5.550
 7979POPC   PO446536  40.008   6.678   5.850
 7979POPC   GL146537  40.053   6.659   6.150
 7979POPC   GL246538  40.126   6.651   6.150
 7979POPC   C1A46539  39.974   6.599   6.450
 7979POPC   D2A46540  39.963   6.680   6.750
 7979POPC   C3A46541  39.991   6.607   7.050
 7979POPC   C4A46542  39.967   6.609   7.350
 7979POPC   C1B46543  40.258   6.711   6.450
 7979POPC   C2B46544  40.189   6.704   6.750
 7979POPC   C3B46545  40.192   6.756   7.050
 7979POPC   C4B46546  40.207   6.724   7.350
 7980POPC   NC346547  32.231   1.955   5.550
 7980POPC   PO446548  32.289   1.983   5.850
 7980POPC   GL146549  32.227   1.967   6.150
 7980POPC   GL246550  32.171   2.005   6.150
 7980POPC   C1A46551  32.226   1.977   6.450
 7980POPC   D2A46552  32.297   1.957   6.750
 7980POPC   C3A46553  32.216   1.995   7.050
 7980POPC   C4A46554  32.264   1.961   7.350
 7980POPC   C1B46555  32.012   2.042   6.450
 7980POPC   C2B46556  32.059   2.051   6.750
 7980POPC   C3B46557  31.974   2.055   7.050
 7980POPC   C4B46558  32.010   2.094   7.350
 7981POPC   NC346559  17.486  32.212   5.550
 7981POPC   PO446560  17.531  32.198   5.850
 7981POPC   GL146561  17.465  32.207   6.150
 7981POPC   GL246562  17.414  32.199   6.150
 7981POPC   C1A46563  17.549  32.205   6.450
 7981POPC   D2A46564  17.535  32.275   6.750
 7981POPC   C3A46565  17.476  32.277   7.050
 7981POPC   C4A46566  17.500  32.296   7.350
 7981POPC   C1B46567  17.246  32.170   6.450
 7981POPC   C2B46568  17.312  32.140   6.750
 7981POPC   C3B46569  17.284  32.117   7.050
 7981POPC   C4B46570  17.294  32.112   7.350
 7982POPC   NC346571  20.583  15.130   5.550
 7982POPC   PO446572  20.590  15.145   5.850
 7982POPC   GL146573  20.607  15.185   6.150
 7982POPC   GL246574  20.487  15.094   6.150
 7982POPC   C1A46575  20.621  15.199   6.450
 7982POPC   D2A46576  20.612  15.142   6.750
 7982POPC   C3A46577  20.608  15.222   7.050
 7982POPC   C4A46578  20.628  15.175   7.350
 7982POPC   C1B46579  20.382  15.098   6.450
 7982POPC   C2B46580  20.427  15.053   6.750
 7982POPC   C3B46581  20.367  15.088   7.050
 7982POPC   C4B46582  20.407  15.077   7.350
 7983POPC   NC346583  21.399  11.349   5.550
 7983POPC   PO446584  21.428  11.303   5.850
 7983POPC   GL146585  21.363  11.281   6.150
 7983POPC   GL246586  21.449  11.193   6.150
 7983POPC   C1A46587  21.342  11.281   6.450
 7983POPC   D2A46588  21.380  11.252   6.750
 7983POPC   C3A46589  21.414  11.314   7.050
 7983POPC   C4A46590  21.350  11.252   7.350
 7983POPC   C1B46591  21.524  11.080   6.450
 7983POPC   C2B46592  21.521  11.104   6.750
 7983POPC   C3B46593  21.588  11.133   7.050
 7983POPC   C4B46594  21.574  11.117   7.350
 7984POPC   NC346595   9.764  42.314   5.550
 7984POPC   PO446596   9.772  42.376   5.850
 7984POPC   GL146597   9.750  42.340   6.150
 7984POPC   GL246598   9.740  42.211   6.150
 7984POPC   C1A46599   9.750  42.314   6.450
 7984POPC   D2A46600   9.776  42.337   6.750
 7984POPC   C3A46601   9.755  42.376   7.050
 7984POPC   C4A46602   9.698  42.360   7.350
 7984POPC   C1B46603   9.797  42.120   6.450
 7984POPC   C2B46604   9.749  42.078   6.750
 7984POPC   C3B46605   9.799  42.053   7.050
 7984POPC   C4B46606   9.778  42.047   7.350
 7985POPC   NC346607   8.224  18.255   5.550
 7985POPC   PO446608   8.180  18.301   5.850
 7985POPC   GL146609   8.191  18.280   6.150
 7985POPC   GL246610   8.283  18.224   6.150
 7985POPC   C1A46611   8.210  18.317   6.450
 7985POPC   D2A46612   8.169  18.250   6.750
 7985POPC   C3A46613   8.231  18.328   7.050
 7985POPC   C4A46614   8.185  18.305   7.350
 7985POPC   C1B46615   8.409  18.170   6.450
 7985POPC   C2B46616   8.379  18.207   6.750
 7985POPC   C3B46617   8.457  18.159   7.050
 7985POPC   C4B46618   8.453  18.226   7.350
 7986POPC   NC346619   6.687  43.841   5.550
 7986POPC   PO446620   6.679  43.876   5.850
 7986POPC   GL146621   6.635  43.900   6.150
 7986POPC   GL246622   6.593  43.733   6.150
 7986POPC   C1A46623   6.620  43.861   6.450
 7986POPC   D2A46624   6.633  43.853   6.750
 7986POPC   C3A46625   6.614  43.874   7.050
 7986POPC   C4A46626   6.680  43.851   7.350
 7986POPC   C1B46627   6.598  43.651   6.450
 7986POPC   C2B46628   6.542  43.687   6.750
 7986POPC   C3B46629   6.594  43.629   7.050
 7986POPC   C4B46630   6.549  43.613   7.350
 7987POPC   NC346631  39.222  43.077   5.550
 7987POPC   PO446632  39.199  43.147   5.850
 7987POPC   GL146633  39.228  43.080   6.150
 7987POPC   GL246634  39.360  43.116   6.150
 7987POPC   C1A46635  39.239  43.077   6.450
 7987POPC   D2A46636  39.241  43.156   6.750
 7987POPC   C3A46637  39.279  43.106   7.050
 7987POPC   C4A46638  39.183  43.125   7.350
 7987POPC   C1B46639  39.434  43.076   6.450
 7987POPC   C2B46640  39.513  43.000   6.750
 7987POPC   C3B46641  39.430  43.078   7.050
 7987POPC   C4B46642  39.499  43.001   7.350
 7988POPC   NC346643  43.908  11.332   5.550
 7988POPC   PO446644  43.853  11.318   5.850
 7988POPC   GL146645  43.868  11.300   6.150
 7988POPC   GL246646  44.037  11.321   6.150
 7988POPC   C1A46647  43.936  11.299   6.450
 7988POPC   D2A46648  43.860  11.258   6.750
 7988POPC   C3A46649  43.909  11.309   7.050
 7988POPC   C4A46650  43.925  11.348   7.350
 7988POPC   C1B46651  44.088  11.316   6.450
 7988POPC   C2B46652  44.107  11.253   6.750
 7988POPC   C3B46653  44.096  11.321   7.050
 7988POPC   C4B46654  44.183  11.296   7.350
 7989POPC   NC346655  23.714  38.444   5.550
 7989POPC   PO446656  23.744  38.485   5.850
 7989POPC   GL146657  23.673  38.484   6.150
 7989POPC   GL246658  23.587  38.452   6.150
 7989POPC   C1A46659  23.712  38.454   6.450
 7989POPC   D2A46660  23.702  38.501   6.750
 7989POPC   C3A46661  23.701  38.423   7.050
 7989POPC   C4A46662  23.736  38.502   7.350
 7989POPC   C1B46663  23.490  38.464   6.450
 7989POPC   C2B46664  23.480  38.441   6.750
 7989POPC   C3B46665  23.426  38.487   7.050
 7989POPC   C4B46666  23.450  38.482   7.350
 7990POPC   NC346667  43.853   9.711   5.550
 7990POPC   PO446668  43.935   9.759   5.850
 7990POPC   GL146669  43.885   9.736   6.150
 7990POPC   GL246670  43.781   9.714   6.150
 7990POPC   C1A46671  43.869   9.748   6.450
 7990POPC   D2A46672  43.872   9.733   6.750
 7990POPC   C3A46673  43.902   9.748   7.050
 7990POPC   C4A46674  43.858   9.714   7.350
 7990POPC   C1B46675  43.609   9.690   6.450
 7990POPC   C2B46676  43.680   9.646   6.750
 7990POPC   C3B46677  43.639   9.673   7.050
 7990POPC   C4B46678  43.604   9.702   7.350
 7991POPC   NC346679  13.607  16.758   5.550
 7991POPC   PO446680  13.593  16.766   5.850
 7991POPC   GL146681  13.584  16.761   6.150
 7991POPC   GL246682  13.609  16.865   6.150
 7991POPC   C1A46683  13.601  16.720   6.450
 7991POPC   D2A46684  13.600  16.766   6.750
 7991POPC   C3A46685  13.604  16.736   7.050
 7991POPC   C4A46686  13.660  16.739   7.350
 7991POPC   C1B46687  13.585  17.002   6.450
 7991POPC   C2B46688  13.624  16.944   6.750
 7991POPC   C3B46689  13.615  17.012   7.050
 7991POPC   C4B46690  13.636  16.942   7.350
 7992POPC   NC346691   7.385   7.430   5.550
 7992POPC   PO446692   7.418   7.402   5.850
 7992POPC   GL146693   7.449   7.409   6.150
 7992POPC   GL246694   7.475   7.382   6.150
 7992POPC   C1A46695   7.381   7.405   6.450
 7992POPC   D2A46696   7.426   7.393   6.750
 7992POPC   C3A46697   7.435   7.427   7.050
 7992POPC   C4A46698   7.380   7.442   7.350
 7992POPC   C1B46699   7.577   7.288   6.450
 7992POPC   C2B46700   7.594   7.321   6.750
 7992POPC   C3B46701   7.596   7.293   7.050
 7992POPC   C4B46702   7.635   7.287   7.350
 7993POPC   NC346703  18.295   5.099   5.550
 7993POPC   PO446704  18.279   5.134   5.850
 7993POPC   GL146705  18.245   5.049   6.150
 7993POPC   GL246706  18.432   5.184   6.150
 7993POPC   C1A46707  18.318   5.048   6.450
 7993POPC   D2A46708  18.319   5.055   6.750
 7993POPC   C3A46709  18.317   5.061   7.050
 7993POPC   C4A46710  18.246   5.069   7.350
 7993POPC   C1B46711  18.518   5.259   6.450
 7993POPC   C2B46712  18.485   5.234   6.750
 7993POPC   C3B46713  18.499   5.187   7.050
 7993POPC   C4B46714  18.487   5.224   7.350
 7994POPC   NC346715   5.131  44.692   5.550
 7994POPC   PO446716   5.142  44.633   5.850
 7994POPC   GL146717   5.129  44.671   6.150
 7994POPC   GL246718   5.019  44.677   6.150
 7994POPC   C1A46719   5.051  44.643   6.450
 7994POPC   D2A46720   5.088  44.640   6.750
 7994POPC   C3A46721   5.119  44.624   7.050
 7994POPC   C4A46722   5.089  44.616   7.350
 7994POPC   C1B46723   4.810  44.771   6.450
 7994POPC   C2B46724   4.851  44.747   6.750
 7994POPC   C3B46725   4.895  44.756   7.050
 7994POPC   C4B46726   4.900  44.719   7.350
 7995POPC   NC346727  12.035   8.944   5.550
 7995POPC   PO446728  12.091   8.989   5.850
 7995POPC   GL146729  12.060   8.984   6.150
 7995POPC   GL246730  12.207   8.992   6.150
 7995POPC   C1A46731  12.090   8.936   6.450
 7995POPC   D2A46732  12.027   8.934   6.750
 7995POPC   C3A46733  12.110   8.923   7.050
 7995POPC   C4A46734  12.099   8.964   7.350
 7995POPC   C1B46735  12.278   9.038   6.450
 7995POPC   C2B46736  12.299   9.073   6.750
 7995POPC   C3B46737  12.348   9.112   7.050
 7995POPC   C4B46738  12.322   9.111   7.350
 7996POPC   NC346739  24.446  24.471   5.550
 7996POPC   PO446740  24.445  24.518   5.850
 7996POPC   GL146741  24.525  24.465   6.150
 7996POPC   GL246742  24.598  24.604   6.150
 7996POPC   C1A46743  24.506  24.450   6.450
 7996POPC   D2A46744  24.476  24.535   6.750
 7996POPC   C3A46745  24.446  24.513   7.050
 7996POPC   C4A46746  24.534  24.509   7.350
 7996POPC   C1B46747  24.617  24.710   6.450
 7996POPC   C2B46748  24.597  24.747   6.750
 7996POPC   C3B46749  24.650  24.747   7.050
 7996POPC   C4B46750  24.579  24.672   7.350
 7997POPC   NC346751  24.536  34.591   5.550
 7997POPC   PO446752  24.482  34.526   5.850
 7997POPC   GL146753  24.444  34.575   6.150
 7997POPC   GL246754  24.415  34.479   6.150
 7997POPC   C1A46755  24.524  34.592   6.450
 7997POPC   D2A46756  24.515  34.609   6.750
 7997POPC   C3A46757  24.533  34.583   7.050
 7997POPC   C4A46758  24.532  34.608   7.350
 7997POPC   C1B46759  24.354  34.391   6.450
 7997POPC   C2B46760  24.340  34.407   6.750
 7997POPC   C3B46761  24.286  34.407   7.050
 7997POPC   C4B46762  24.338  34.439   7.350
 7998POPC   NC346763  23.725   2.033   5.550
 7998POPC   PO446764  23.718   1.954   5.850
 7998POPC   GL146765  23.746   1.977   6.150
 7998POPC   GL246766  23.860   1.957   6.150
 7998POPC   C1A46767  23.743   2.029   6.450
 7998POPC   D2A46768  23.722   1.965   6.750
 7998POPC   C3A46769  23.732   1.962   7.050
 7998POPC   C4A46770  23.760   1.972   7.350
 7998POPC   C1B46771  23.936   1.882   6.450
 7998POPC   C2B46772  23.924   1.855   6.750
 7998POPC   C3B46773  23.908   1.808   7.050
 7998POPC   C4B46774  23.909   1.866   7.350
 7999POPC   NC346775  10.512  33.843   5.550
 7999POPC   PO446776  10.568  33.780   5.850
 7999POPC   GL146777  10.536  33.756   6.150
 7999POPC   GL246778  10.460  33.972   6.150
 7999POPC   C1A46779  10.540  33.808   6.450
 7999POPC   D2A46780  10.487  33.804   6.750
 7999POPC   C3A46781  10.491  33.839   7.050
 7999POPC   C4A46782  10.537  33.796   7.350
 7999POPC   C1B46783  10.484  33.999   6.450
 7999POPC   C2B46784  10.456  34.033   6.750
 7999POPC   C3B46785  10.485  34.061   7.050
 7999POPC   C4B46786  10.517  34.060   7.350
 8000POPC   NC346787  33.832  15.982   5.550
 8000POPC   PO446788  33.795  15.913   5.850
 8000POPC   GL146789  33.757  15.942   6.150
 8000POPC   GL246790  33.696  15.924   6.150
 8000POPC   C1A46791  33.822  15.943   6.450
 8000POPC   D2A46792  33.844  15.982   6.750
 8000POPC   C3A46793  33.821  15.957   7.050
 8000POPC   C4A46794  33.782  15.939   7.350
 8000POPC   C1B46795  33.592  15.997   6.450
 8000POPC   C2B46796  33.572  15.993   6.750
 8000POPC   C3B46797  33.508  15.957   7.050
 8000POPC   C4B46798  33.581  15.978   7.350
 8001POPC   NC346799  38.465  11.319   5.550
 8001POPC   PO446800  38.408  11.321   5.850
 8001POPC   GL146801  38.473  11.285   6.150
 8001POPC   GL246802  38.536  11.369   6.150
 8001POPC   C1A46803  38.410  11.308   6.450
 8001POPC   D2A46804  38.427  11.335   6.750
 8001POPC   C3A46805  38.444  11.267   7.050
 8001POPC   C4A46806  38.469  11.251   7.350
 8001POPC   C1B46807  38.639  11.492   6.450
 8001POPC   C2B46808  38.625  11.499   6.750
 8001POPC   C3B46809  38.612  11.504   7.050
 8001POPC   C4B46810  38.588  11.452   7.350
 8002POPC   NC346811  40.043  39.183   5.550
 8002POPC   PO446812  39.985  39.220   5.850
 8002POPC   GL146813  39.967  39.217   6.150
 8002POPC   GL246814  40.066  39.381   6.150
 8002POPC   C1A46815  39.997  39.196   6.450
 8002POPC   D2A46816  40.056  39.243   6.750
 8002POPC   C3A46817  39.986  39.192   7.050
 8002POPC   C4A46818  40.010  39.233   7.350
 8002POPC   C1B46819  40.094  39.460   6.450
 8002POPC   C2B46820  40.077  39.452   6.750
 8002POPC   C3B46821  40.034  39.516   7.050
 8002POPC   C4B46822  40.030  39.505   7.350
 8003POPC   NC346823  30.735  44.656   5.550
 8003POPC   PO446824  30.665  44.705   5.850
 8003POPC   GL146825  30.650  44.700   6.150
 8003POPC   GL246826  30.786  44.621   6.150
 8003POPC   C1A46827  30.693  44.656   6.450
 8003POPC   D2A46828  30.701  44.651   6.750
 8003POPC   C3A46829  30.743  44.704   7.050
 8003POPC   C4A46830  30.704  44.674   7.350
 8003POPC   C1B46831  30.970  44.569   6.450
 8003POPC   C2B46832  30.898  44.577   6.750
 8003POPC   C3B46833  30.969  44.547   7.050
 8003POPC   C4B46834  30.899  44.551   7.350
 8004POPC   NC346835  22.977  16.706   5.550
 8004POPC   PO446836  22.913  16.682   5.850
 8004POPC   GL146837  22.971  16.755   6.150
 8004POPC   GL246838  23.032  16.625   6.150
 8004POPC   C1A46839  22.894  16.734   6.450
 8004POPC   D2A46840  22.971  16.760   6.750
 8004POPC   C3A46841  22.893  16.755   7.050
 8004POPC   C4A46842  22.968  16.772   7.350
 8004POPC   C1B46843  23.172  16.618   6.450
 8004POPC   C2B46844  23.162  16.587   6.750
 8004POPC   C3B46845  23.181  16.615   7.050
 8004POPC   C4B46846  23.204  16.593   7.350
 8005POPC   NC346847  28.364  12.865   5.550
 8005POPC   PO446848  28.379  12.862   5.850
 8005POPC   GL146849  28.403  12.813   6.150
 8005POPC   GL246850  28.224  12.841   6.150
 8005POPC   C1A46851  28.353  12.840   6.450
 8005POPC   D2A46852  28.400  12.874   6.750
 8005POPC   C3A46853  28.354  12.838   7.050
 8005POPC   C4A46854  28.383  12.842   7.350
 8005POPC   C1B46855  28.132  12.772   6.450
 8005POPC   C2B46856  28.111  12.740   6.750
 8005POPC   C3B46857  28.130  12.763   7.050
 8005POPC   C4B46858  28.120  12.753   7.350
 8006POPC   NC346859  29.118  22.951   5.550
 8006POPC   PO446860  29.164  22.922   5.850
 8006POPC   GL146861  29.115  22.928   6.150
 8006POPC   GL246862  29.052  22.898   6.150
 8006POPC   C1A46863  29.137  22.901   6.450
 8006POPC   D2A46864  29.180  22.926   6.750
 8006POPC   C3A46865  29.178  22.900   7.050
 8006POPC   C4A46866  29.182  22.961   7.350
 8006POPC   C1B46867  28.912  22.862   6.450
 8006POPC   C2B46868  28.950  22.815   6.750
 8006POPC   C3B46869  28.878  22.833   7.050
 8006POPC   C4B46870  28.875  22.832   7.350
 8007POPC   NC346871  44.691  32.982   5.550
 8007POPC   PO446872  44.635  33.027   5.850
 8007POPC   GL146873  44.695  33.028   6.150
 8007POPC   GL246874  44.604  33.178   6.150
 8007POPC   C1A46875  44.670  33.003   6.450
 8007POPC   D2A46876  44.625  33.051   6.750
 8007POPC   C3A46877  44.617  32.992   7.050
 8007POPC   C4A46878  44.637  33.053   7.350
 8007POPC   C1B46879  44.662  33.241   6.450
 8007POPC   C2B46880  44.579  33.269   6.750
 8007POPC   C3B46881  44.610  33.225   7.050
 8007POPC   C4B46882  44.624  33.289   7.350
 8008POPC   NC346883   9.751  33.828   5.550
 8008POPC   PO446884   9.741  33.768   5.850
 8008POPC   GL146885   9.709  33.829   6.150
 8008POPC   GL246886   9.682  33.887   6.150
 8008POPC   C1A46887   9.725  33.843   6.450
 8008POPC   D2A46888   9.747  33.784   6.750
 8008POPC   C3A46889   9.709  33.803   7.050
 8008POPC   C4A46890   9.798  33.847   7.350
 8008POPC   C1B46891   9.530  33.967   6.450
 8008POPC   C2B46892   9.567  33.975   6.750
 8008POPC   C3B46893   9.600  33.958   7.050
 8008POPC   C4B46894   9.601  34.008   7.350
 8009POPC   NC346895  15.958   2.788   5.550
 8009POPC   PO446896  15.955   2.787   5.850
 8009POPC   GL146897  15.993   2.808   6.150
 8009POPC   GL246898  16.031   2.715   6.150
 8009POPC   C1A46899  15.913   2.780   6.450
 8009POPC   D2A46900  15.913   2.733   6.750
 8009POPC   C3A46901  15.997   2.796   7.050
 8009POPC   C4A46902  15.930   2.735   7.350
 8009POPC   C1B46903  16.178   2.673   6.450
 8009POPC   C2B46904  16.143   2.665   6.750
 8009POPC   C3B46905  16.177   2.683   7.050
 8009POPC   C4B46906  16.222   2.665   7.350
 8010POPC   NC346907   8.239  34.549   5.550
 8010POPC   PO446908   8.199  34.536   5.850
 8010POPC   GL146909   8.174  34.575   6.150
 8010POPC   GL246910   8.276  34.668   6.150
 8010POPC   C1A46911   8.242  34.586   6.450
 8010POPC   D2A46912   8.194  34.587   6.750
 8010POPC   C3A46913   8.155  34.582   7.050
 8010POPC   C4A46914   8.245  34.569   7.350
 8010POPC   C1B46915   8.348  34.713   6.450
 8010POPC   C2B46916   8.392  34.710   6.750
 8010POPC   C3B46917   8.394  34.701   7.050
 8010POPC   C4B46918   8.372  34.777   7.350
 8011POPC   NC346919  44.672  33.780   5.550
 8011POPC   PO446920  44.681  33.798   5.850
 8011POPC   GL146921  44.698  33.755   6.150
 8011POPC   GL246922  44.743  33.805   6.150
 8011POPC   C1A46923  44.628  33.800   6.450
 8011POPC   D2A46924  44.677  33.779   6.750
 8011POPC   C3A46925  44.697  33.796   7.050
 8011POPC   C4A46926  44.646  33.827   7.350
 8011POPC   C1B46927  44.904  33.743   6.450
 8011POPC   C2B46928  44.890  33.792   6.750
 8011POPC   C3B46929  44.873  33.830   7.050
 8011POPC   C4B46930  44.959  33.783   7.350
 8012POPC   NC346931  18.315   4.307   5.550
 8012POPC   PO446932  18.245   4.361   5.850
 8012POPC   GL146933  18.248   4.308   6.150
 8012POPC   GL246934  18.257   4.169   6.150
 8012POPC   C1A46935  18.283   4.311   6.450
 8012POPC   D2A46936  18.317   4.272   6.750
 8012POPC   C3A46937  18.245   4.316   7.050
 8012POPC   C4A46938  18.278   4.328   7.350
 8012POPC   C1B46939  18.111   4.113   6.450
 8012POPC   C2B46940  18.172   4.097   6.750
 8012POPC   C3B46941  18.181   4.070   7.050
 8012POPC   C4B46942  18.117   4.085   7.350
 8013POPC   NC346943  33.047  17.470   5.550
 8013POPC   PO446944  32.992  17.505   5.850
 8013POPC   GL146945  33.024  17.478   6.150
 8013POPC   GL246946  32.977  17.386   6.150
 8013POPC   C1A46947  33.046  17.520   6.450
 8013POPC   D2A46948  33.065  17.519   6.750
 8013POPC   C3A46949  32.991  17.532   7.050
 8013POPC   C4A46950  33.069  17.482   7.350
 8013POPC   C1B46951  32.973  17.287   6.450
 8013POPC   C2B46952  33.012  17.245   6.750
 8013POPC   C3B46953  32.976  17.215   7.050
 8013POPC   C4B46954  33.039  17.215   7.350
 8014POPC   NC346955   8.149  39.243   5.550
 8014POPC   PO446956   8.189  39.267   5.850
 8014POPC   GL146957   8.205  39.256   6.150
 8014POPC   GL246958   8.101  39.171   6.150
 8014POPC   C1A46959   8.233  39.205   6.450
 8014POPC   D2A46960   8.214  39.249   6.750
 8014POPC   C3A46961   8.213  39.197   7.050
 8014POPC   C4A46962   8.167  39.235   7.350
 8014POPC   C1B46963   7.989  39.106   6.450
 8014POPC   C2B46964   7.971  39.130   6.750
 8014POPC   C3B46965   7.950  39.123   7.050
 8014POPC   C4B46966   7.997  39.142   7.350
 8015POPC   NC346967  12.043   1.229   5.550
 8015POPC   PO446968  12.094   1.171   5.850
 8015POPC   GL146969  12.081   1.231   6.150
 8015POPC   GL246970  12.190   1.215   6.150
 8015POPC   C1A46971  12.086   1.254   6.450
 8015POPC   D2A46972  12.095   1.197   6.750
 8015POPC   C3A46973  12.048   1.218   7.050
 8015POPC   C4A46974  12.052   1.216   7.350
 8015POPC   C1B46975  12.309   1.239   6.450
 8015POPC   C2B46976  12.351   1.170   6.750
 8015POPC   C3B46977  12.287   1.219   7.050
 8015POPC   C4B46978  12.309   1.178   7.350
 8016POPC   NC346979  33.806  43.879   5.550
 8016POPC   PO446980  33.769  43.873   5.850
 8016POPC   GL146981  33.751  43.866   6.150
 8016POPC   GL246982  33.800  43.728   6.150
 8016POPC   C1A46983  33.798  43.905   6.450
 8016POPC   D2A46984  33.757  43.880   6.750
 8016POPC   C3A46985  33.800  43.874   7.050
 8016POPC   C4A46986  33.812  43.897   7.350
 8016POPC   C1B46987  33.848  43.676   6.450
 8016POPC   C2B46988  33.858  43.654   6.750
 8016POPC   C3B46989  33.886  43.653   7.050
 8016POPC   C4B46990  33.893  43.625   7.350
 8017POPC   NC346991  25.248  25.300   5.550
 8017POPC   PO446992  25.288  25.276   5.850
 8017POPC   GL146993  25.239  25.297   6.150
 8017POPC   GL246994  25.225  25.110   6.150
 8017POPC   C1A46995  25.308  25.263   6.450
 8017POPC   D2A46996  25.289  25.270   6.750
 8017POPC   C3A46997  25.264  25.309   7.050
 8017POPC   C4A46998  25.283  25.227   7.350
 8017POPC   C1B46999  25.281  25.006   6.450
 8017POPC   C2B47000  25.232  25.061   6.750
 8017POPC   C3B47001  25.240  25.009   7.050
 8017POPC   C4B47002  25.254  24.969   7.350
 8018POPC   NC347003   7.394  33.763   5.550
 8018POPC   PO447004   7.428  33.816   5.850
 8018POPC   GL147005   7.428  33.821   6.150
 8018POPC   GL247006   7.527  33.746   6.150
 8018POPC   C1A47007   7.440  33.789   6.450
 8018POPC   D2A47008   7.444  33.847   6.750
 8018POPC   C3A47009   7.458  33.790   7.050
 8018POPC   C4A47010   7.445  33.835   7.350
 8018POPC   C1B47011   7.696  33.760   6.450
 8018POPC   C2B47012   7.693  33.812   6.750
 8018POPC   C3B47013   7.648  33.770   7.050
 8018POPC   C4B47014   7.700  33.760   7.350
 8019POPC   NC347015  21.430  43.071   5.550
 8019POPC   PO447016  21.373  43.107   5.850
 8019POPC   GL147017  21.381  43.085   6.150
 8019POPC   GL247018  21.474  43.216   6.150
 8019POPC   C1A47019  21.415  43.143   6.450
 8019POPC   D2A47020  21.404  43.100   6.750
 8019POPC   C3A47021  21.355  43.094   7.050
 8019POPC   C4A47022  21.382  43.066   7.350
 8019POPC   C1B47023  21.566  43.352   6.450
 8019POPC   C2B47024  21.557  43.310   6.750
 8019POPC   C3B47025  21.511  43.345   7.050
 8019POPC   C4B47026  21.538  43.348   7.350
 8020POPC   NC347027  27.641  21.337   5.550
 8020POPC   PO447028  27.555  21.411   5.850
 8020POPC   GL147029  27.597  21.400   6.150
 8020POPC   GL247030  27.430  21.368   6.150
 8020POPC   C1A47031  27.641  21.417   6.450
 8020POPC   D2A47032  27.593  21.358   6.750
 8020POPC   C3A47033  27.620  21.430   7.050
 8020POPC   C4A47034  27.639  21.391   7.350
 8020POPC   C1B47035  27.362  21.349   6.450
 8020POPC   C2B47036  27.307  21.317   6.750
 8020POPC   C3B47037  27.380  21.367   7.050
 8020POPC   C4B47038  27.329  21.298   7.350
 8021POPC   NC347039  12.838  40.006   5.550
 8021POPC   PO447040  12.833  40.048   5.850
 8021POPC   GL147041  12.856  39.994   6.150
 8021POPC   GL247042  12.760  39.896   6.150
 8021POPC   C1A47043  12.839  40.028   6.450
 8021POPC   D2A47044  12.825  39.970   6.750
 8021POPC   C3A47045  12.884  40.055   7.050
 8021POPC   C4A47046  12.856  39.961   7.350
 8021POPC   C1B47047  12.630  39.834   6.450
 8021POPC   C2B47048  12.635  39.825   6.750
 8021POPC   C3B47049  12.714  39.872   7.050
 8021POPC   C4B47050  12.703  39.876   7.350
 8022POPC   NC347051   1.946  17.484   5.550
 8022POPC   PO447052   1.966  17.507   5.850
 8022POPC   GL147053   1.972  17.499   6.150
 8022POPC   GL247054   1.907  17.444   6.150
 8022POPC   C1A47055   2.026  17.490   6.450
 8022POPC   D2A47056   1.952  17.530   6.750
 8022POPC   C3A47057   2.026  17.544   7.050
 8022POPC   C4A47058   1.973  17.535   7.350
 8022POPC   C1B47059   1.775  17.382   6.450
 8022POPC   C2B47060   1.746  17.421   6.750
 8022POPC   C3B47061   1.742  17.416   7.050
 8022POPC   C4B47062   1.779  17.391   7.350
 8023POPC   NC347063  15.214  31.515   5.550
 8023POPC   PO447064  15.144  31.481   5.850
 8023POPC   GL147065  15.229  31.506   6.150
 8023POPC   GL247066  15.262  31.489   6.150
 8023POPC   C1A47067  15.193  31.452   6.450
 8023POPC   D2A47068  15.207  31.519   6.750
 8023POPC   C3A47069  15.171  31.465   7.050
 8023POPC   C4A47070  15.138  31.509   7.350
 8023POPC   C1B47071  15.450  31.559   6.450
 8023POPC   C2B47072  15.431  31.514   6.750
 8023POPC   C3B47073  15.418  31.484   7.050
 8023POPC   C4B47074  15.467  31.491   7.350
 8024POPC   NC347075  26.797  32.988   5.550
 8024POPC   PO447076  26.813  32.992   5.850
 8024POPC   GL147077  26.793  33.038   6.150
 8024POPC   GL247078  26.809  32.946   6.150
 8024POPC   C1A47079  26.804  33.015   6.450
 8024POPC   D2A47080  26.771  33.046   6.750
 8024POPC   C3A47081  26.815  32.975   7.050
 8024POPC   C4A47082  26.851  33.048   7.350
 8024POPC   C1B47083  26.849  32.764   6.450
 8024POPC   C2B47084  26.929  32.746   6.750
 8024POPC   C3B47085  26.911  32.757   7.050
 8024POPC   C4B47086  26.910  32.761   7.350
 8025POPC   NC347087   8.219  33.780   5.550
 8025POPC   PO447088   8.210  33.789   5.850
 8025POPC   GL147089   8.184  33.829   6.150
 8025POPC   GL247090   8.112  33.770   6.150
 8025POPC   C1A47091   8.218  33.756   6.450
 8025POPC   D2A47092   8.243  33.781   6.750
 8025POPC   C3A47093   8.246  33.761   7.050
 8025POPC   C4A47094   8.182  33.808   7.350
 8025POPC   C1B47095   7.931  33.726   6.450
 8025POPC   C2B47096   7.991  33.774   6.750
 8025POPC   C3B47097   7.906  33.788   7.050
 8025POPC   C4B47098   7.997  33.806   7.350
 8026POPC   NC347099  11.315   4.305   5.550
 8026POPC   PO447100  11.295   4.335   5.850
 8026POPC   GL147101  11.319   4.292   6.150
 8026POPC   GL247102  11.387   4.224   6.150
 8026POPC   C1A47103  11.291   4.288   6.450
 8026POPC   D2A47104  11.269   4.294   6.750
 8026POPC   C3A47105  11.313   4.269   7.050
 8026POPC   C4A47106  11.300   4.306   7.350
 8026POPC   C1B47107  11.547   4.267   6.450
 8026POPC   C2B47108  11.508   4.185   6.750
 8026POPC   C3B47109  11.554   4.261   7.050
 8026POPC   C4B47110  11.569   4.191   7.350
 8027POPC   NC347111  31.471  30.723   5.550
 8027POPC   PO447112  31.442  30.653   5.850
 8027POPC   GL147113  31.488  30.710   6.150
 8027POPC   GL247114  31.424  30.580   6.150
 8027POPC   C1A47115  31.470  30.706   6.450
 8027POPC   D2A47116  31.522  30.702   6.750
 8027POPC   C3A47117  31.431  30.666   7.050
 8027POPC   C4A47118  31.503  30.675   7.350
 8027POPC   C1B47119  31.263  30.516   6.450
 8027POPC   C2B47120  31.313  30.576   6.750
 8027POPC   C3B47121  31.262  30.575   7.050
 8027POPC   C4B47122  31.250  30.520   7.350
 8028POPC   NC347123  33.028  26.022   5.550
 8028POPC   PO447124  33.029  26.040   5.850
 8028POPC   GL147125  33.074  26.042   6.150
 8028POPC   GL247126  33.128  25.966   6.150
 8028POPC   C1A47127  33.008  26.012   6.450
 8028POPC   D2A47128  33.012  26.024   6.750
 8028POPC   C3A47129  33.022  26.016   7.050
 8028POPC   C4A47130  33.032  25.992   7.350
 8028POPC   C1B47131  33.287  25.996   6.450
 8028POPC   C2B47132  33.257  26.004   6.750
 8028POPC   C3B47133  33.234  25.986   7.050
 8028POPC   C4B47134  33.269  25.966   7.350
 8029POPC   NC347135   8.999   8.235   5.550
 8029POPC   PO447136   9.006   8.200   5.850
 8029POPC   GL147137   9.011   8.154   6.150
 8029POPC   GL247138   9.008   8.274   6.150
 8029POPC   C1A47139   8.996   8.153   6.450
 8029POPC   D2A47140   8.973   8.231   6.750
 8029POPC   C3A47141   8.980   8.198   7.050
 8029POPC   C4A47142   8.924   8.178   7.350
 8029POPC   C1B47143   8.997   8.408   6.450
 8029POPC   C2B47144   8.969   8.483   6.750
 8029POPC   C3B47145   8.998   8.474   7.050
 8029POPC   C4B47146   8.996   8.404   7.350
 8030POPC   NC347147  34.537  26.849   5.550
 8030POPC   PO447148  34.566  26.810   5.850
 8030POPC   GL147149  34.569  26.863   6.150
 8030POPC   GL247150  34.560  26.708   6.150
 8030POPC   C1A47151  34.547  26.843   6.450
 8030POPC   D2A47152  34.594  26.845   6.750
 8030POPC   C3A47153  34.611  26.783   7.050
 8030POPC   C4A47154  34.534  26.792   7.350
 8030POPC   C1B47155  34.618  26.539   6.450
 8030POPC   C2B47156  34.667  26.557   6.750
 8030POPC   C3B47157  34.671  26.611   7.050
 8030POPC   C4B47158  34.670  26.569   7.350
 8031POPC   NC347159  33.844  26.780   5.550
 8031POPC   PO447160  33.779  26.782   5.850
 8031POPC   GL147161  33.799  26.824   6.150
 8031POPC   GL247162  33.654  26.772   6.150
 8031POPC   C1A47163  33.842  26.784   6.450
 8031POPC   D2A47164  33.787  26.829   6.750
 8031POPC   C3A47165  33.821  26.787   7.050
 8031POPC   C4A47166  33.815  26.823   7.350
 8031POPC   C1B47167  33.604  26.678   6.450
 8031POPC   C2B47168  33.621  26.641   6.750
 8031POPC   C3B47169  33.587  26.636   7.050
 8031POPC   C4B47170  33.640  26.648   7.350
 8032POPC   NC347171  40.781  15.917   5.550
 8032POPC   PO447172  40.744  15.958   5.850
 8032POPC   GL147173  40.817  15.940   6.150
 8032POPC   GL247174  40.919  16.047   6.150
 8032POPC   C1A47175  40.745  15.953   6.450
 8032POPC   D2A47176  40.783  15.942   6.750
 8032POPC   C3A47177  40.803  15.959   7.050
 8032POPC   C4A47178  40.740  15.982   7.350
 8032POPC   C1B47179  40.985  16.139   6.450
 8032POPC   C2B47180  40.969  16.111   6.750
 8032POPC   C3B47181  41.043  16.085   7.050
 8032POPC   C4B47182  41.003  16.135   7.350
 8033POPC   NC347183   0.482  33.845   5.550
 8033POPC   PO447184   0.394  33.850   5.850
 8033POPC   GL147185   0.406  33.844   6.150
 8033POPC   GL247186   0.444  33.666   6.150
 8033POPC   C1A47187   0.398  33.796   6.450
 8033POPC   D2A47188   0.390  33.797   6.750
 8033POPC   C3A47189   0.400  33.791   7.050
 8033POPC   C4A47190   0.399  33.786   7.350
 8033POPC   C1B47191   0.458  33.564   6.450
 8033POPC   C2B47192   0.447  33.522   6.750
 8033POPC   C3B47193   0.450  33.523   7.050
 8033POPC   C4B47194   0.367  33.587   7.350
 8034POPC   NC347195  11.321   7.396   5.550
 8034POPC   PO447196  11.320   7.413   5.850
 8034POPC   GL147197  11.267   7.440   6.150
 8034POPC   GL247198  11.391   7.399   6.150
 8034POPC   C1A47199  11.274   7.437   6.450
 8034POPC   D2A47200  11.329   7.388   6.750
 8034POPC   C3A47201  11.271   7.444   7.050
 8034POPC   C4A47202  11.253   7.464   7.350
 8034POPC   C1B47203  11.522   7.406   6.450
 8034POPC   C2B47204  11.576   7.445   6.750
 8034POPC   C3B47205  11.543   7.452   7.050
 8034POPC   C4B47206  11.559   7.462   7.350
 8035POPC   NC347207   9.705  11.300   5.550
 8035POPC   PO447208   9.759  11.300   5.850
 8035POPC   GL147209   9.759  11.303   6.150
 8035POPC   GL247210   9.834  11.163   6.150
 8035POPC   C1A47211   9.750  11.311   6.450
 8035POPC   D2A47212   9.761  11.325   6.750
 8035POPC   C3A47213   9.709  11.347   7.050
 8035POPC   C4A47214   9.730  11.313   7.350
 8035POPC   C1B47215   9.783  11.066   6.450
 8035POPC   C2B47216   9.841  11.104   6.750
 8035POPC   C3B47217   9.867  11.100   7.050
 8035POPC   C4B47218   9.787  11.067   7.350
 8036POPC   NC347219   1.205  31.514   5.550
 8036POPC   PO447220   1.179  31.439   5.850
 8036POPC   GL147221   1.177  31.490   6.150
 8036POPC   GL247222   1.349  31.373   6.150
 8036POPC   C1A47223   1.209  31.503   6.450
 8036POPC   D2A47224   1.237  31.502   6.750
 8036POPC   C3A47225   1.263  31.505   7.050
 8036POPC   C4A47226   1.185  31.440   7.350
 8036POPC   C1B47227   1.469  31.393   6.450
 8036POPC   C2B47228   1.428  31.389   6.750
 8036POPC   C3B47229   1.478  31.364   7.050
 8036POPC   C4B47230   1.405  31.325   7.350
 8037POPC   NC347231  15.154  26.778   5.550
 8037POPC   PO447232  15.183  26.836   5.850
 8037POPC   GL147233  15.194  26.819   6.150
 8037POPC   GL247234  15.048  26.835   6.150
 8037POPC   C1A47235  15.178  26.776   6.450
 8037POPC   D2A47236  15.184  26.782   6.750
 8037POPC   C3A47237  15.172  26.798   7.050
 8037POPC   C4A47238  15.178  26.827   7.350
 8037POPC   C1B47239  14.938  26.824   6.450
 8037POPC   C2B47240  14.975  26.820   6.750
 8037POPC   C3B47241  14.973  26.772   7.050
 8037POPC   C4B47242  14.920  26.848   7.350
 8038POPC   NC347243  42.305  23.705   5.550
 8038POPC   PO447244  42.365  23.689   5.850
 8038POPC   GL147245  42.353  23.757   6.150
 8038POPC   GL247246  42.442  23.713   6.150
 8038POPC   C1A47247  42.295  23.731   6.450
 8038POPC   D2A47248  42.321  23.758   6.750
 8038POPC   C3A47249  42.363  23.748   7.050
 8038POPC   C4A47250  42.338  23.710   7.350
 8038POPC   C1B47251  42.602  23.782   6.450
 8038POPC   C2B47252  42.595  23.824   6.750
 8038POPC   C3B47253  42.526  23.794   7.050
 8038POPC   C4B47254  42.610  23.795   7.350
 8039POPC   NC347255  23.720  25.220   5.550
 8039POPC   PO447256  23.711  25.311   5.850
 8039POPC   GL147257  23.737  25.259   6.150
 8039POPC   GL247258  23.658  25.360   6.150
 8039POPC   C1A47259  23.717  25.281   6.450
 8039POPC   D2A47260  23.685  25.306   6.750
 8039POPC   C3A47261  23.760  25.310   7.050
 8039POPC   C4A47262  23.674  25.230   7.350
 8039POPC   C1B47263  23.601  25.465   6.450
 8039POPC   C2B47264  23.554  25.516   6.750
 8039POPC   C3B47265  23.631  25.494   7.050
 8039POPC   C4B47266  23.577  25.502   7.350
 8040POPC   NC347267  36.116  33.007   5.550
 8040POPC   PO447268  36.136  33.046   5.850
 8040POPC   GL147269  36.109  33.070   6.150
 8040POPC   GL247270  36.094  32.948   6.150
 8040POPC   C1A47271  36.087  33.073   6.450
 8040POPC   D2A47272  36.144  33.048   6.750
 8040POPC   C3A47273  36.102  33.017   7.050
 8040POPC   C4A47274  36.104  33.005   7.350
 8040POPC   C1B47275  36.065  32.794   6.450
 8040POPC   C2B47276  36.001  32.780   6.750
 8040POPC   C3B47277  36.044  32.844   7.050
 8040POPC   C4B47278  35.974  32.819   7.350
 8041POPC   NC347279  15.971  15.187   5.550
 8041POPC   PO447280  15.963  15.182   5.850
 8041POPC   GL147281  15.953  15.166   6.150
 8041POPC   GL247282  16.046  15.086   6.150
 8041POPC   C1A47283  15.920  15.215   6.450
 8041POPC   D2A47284  16.002  15.133   6.750
 8041POPC   C3A47285  15.925  15.135   7.050
 8041POPC   C4A47286  15.986  15.166   7.350
 8041POPC   C1B47287  16.062  14.994   6.450
 8041POPC   C2B47288  16.052  14.921   6.750
 8041POPC   C3B47289  16.069  15.006   7.050
 8041POPC   C4B47290  16.081  14.960   7.350
 8042POPC   NC347291  43.842  25.281   5.550
 8042POPC   PO447292  43.910  25.278   5.850
 8042POPC   GL147293  43.919  25.282   6.150
 8042POPC   GL247294  43.755  25.369   6.150
 8042POPC   C1A47295  43.915  25.295   6.450
 8042POPC   D2A47296  43.930  25.292   6.750
 8042POPC   C3A47297  43.921  25.304   7.050
 8042POPC   C4A47298  43.846  25.309   7.350
 8042POPC   C1B47299  43.718  25.400   6.450
 8042POPC   C2B47300  43.719  25.480   6.750
 8042POPC   C3B47301  43.745  25.482   7.050
 8042POPC   C4B47302  43.723  25.406   7.350
 8043POPC   NC347303  33.795  40.030   5.550
 8043POPC   PO447304  33.837  40.009   5.850
 8043POPC   GL147305  33.779  39.966   6.150
 8043POPC   GL247306  33.939  39.976   6.150
 8043POPC   C1A47307  33.775  40.040   6.450
 8043POPC   D2A47308  33.832  39.964   6.750
 8043POPC   C3A47309  33.818  39.977   7.050
 8043POPC   C4A47310  33.803  40.023   7.350
 8043POPC   C1B47311  33.963  39.852   6.450
 8043POPC   C2B47312  33.995  39.833   6.750
 8043POPC   C3B47313  33.953  39.866   7.050
 8043POPC   C4B47314  34.037  39.848   7.350
 8044POPC   NC347315  18.282  43.118   5.550
 8044POPC   PO447316  18.324  43.070   5.850
 8044POPC   GL147317  18.300  43.081   6.150
 8044POPC   GL247318  18.141  43.116   6.150
 8044POPC   C1A47319  18.270  43.125   6.450
 8044POPC   D2A47320  18.261  43.110   6.750
 8044POPC   C3A47321  18.332  43.070   7.050
 8044POPC   C4A47322  18.329  43.146   7.350
 8044POPC   C1B47323  18.014  43.191   6.450
 8044POPC   C2B47324  18.041  43.201   6.750
 8044POPC   C3B47325  18.072  43.170   7.050
 8044POPC   C4B47326  18.066  43.252   7.350
 8045POPC   NC347327  26.799  12.866   5.550
 8045POPC   PO447328  26.853  12.807   5.850
 8045POPC   GL147329  26.782  12.872   6.150
 8045POPC   GL247330  26.885  12.959   6.150
 8045POPC   C1A47331  26.851  12.834   6.450
 8045POPC   D2A47332  26.853  12.891   6.750
 8045POPC   C3A47333  26.838  12.847   7.050
 8045POPC   C4A47334  26.781  12.807   7.350
 8045POPC   C1B47335  26.971  12.957   6.450
 8045POPC   C2B47336  27.042  13.051   6.750
 8045POPC   C3B47337  27.039  13.034   7.050
 8045POPC   C4B47338  27.051  12.978   7.350
 8046POPC   NC347339   8.163  43.918   5.550
 8046POPC   PO447340   8.223  43.912   5.850
 8046POPC   GL147341   8.192  43.851   6.150
 8046POPC   GL247342   8.290  43.928   6.150
 8046POPC   C1A47343   8.209  43.858   6.450
 8046POPC   D2A47344   8.165  43.888   6.750
 8046POPC   C3A47345   8.153  43.874   7.050
 8046POPC   C4A47346   8.208  43.865   7.350
 8046POPC   C1B47347   8.440  44.026   6.450
 8046POPC   C2B47348   8.362  43.973   6.750
 8046POPC   C3B47349   8.437  44.010   7.050
 8046POPC   C4B47350   8.404  44.022   7.350
 8047POPC   NC347351  43.127  43.155   5.550
 8047POPC   PO447352  43.129  43.124   5.850
 8047POPC   GL147353  43.097  43.086   6.150
 8047POPC   GL247354  43.152  42.948   6.150
 8047POPC   C1A47355  43.158  43.144   6.450
 8047POPC   D2A47356  43.122  43.103   6.750
 8047POPC   C3A47357  43.150  43.114   7.050
 8047POPC   C4A47358  43.063  43.090   7.350
 8047POPC   C1B47359  43.219  42.841   6.450
 8047POPC   C2B47360  43.144  42.838   6.750
 8047POPC   C3B47361  43.216  42.909   7.050
 8047POPC   C4B47362  43.152  42.904   7.350
 8048POPC   NC347363  44.623  10.549   5.550
 8048POPC   PO447364  44.647  10.515   5.850
 8048POPC   GL147365  44.685  10.544   6.150
 8048POPC   GL247366  44.811  10.549   6.150
 8048POPC   C1A47367  44.699  10.484   6.450
 8048POPC   D2A47368  44.703  10.513   6.750
 8048POPC   C3A47369  44.616  10.517   7.050
 8048POPC   C4A47370  44.649  10.492   7.350
 8048POPC   C1B47371  44.884  10.520   6.450
 8048POPC   C2B47372  44.891  10.553   6.750
 8048POPC   C3B47373  44.938  10.573   7.050
 8048POPC   C4B47374  44.869  10.578   7.350
 8049POPC   NC347375  23.683  15.916   5.550
 8049POPC   PO447376  23.690  15.917   5.850
 8049POPC   GL147377  23.685  15.909   6.150
 8049POPC   GL247378  23.754  15.805   6.150
 8049POPC   C1A47379  23.683  15.919   6.450
 8049POPC   D2A47380  23.718  15.932   6.750
 8049POPC   C3A47381  23.676  15.979   7.050
 8049POPC   C4A47382  23.740  15.997   7.350
 8049POPC   C1B47383  23.829  15.704   6.450
 8049POPC   C2B47384  23.825  15.702   6.750
 8049POPC   C3B47385  23.832  15.734   7.050
 8049POPC   C4B47386  23.836  15.717   7.350
 8050POPC   NC347387  32.982  11.261   5.550
 8050POPC   PO447388  33.004  11.329   5.850
 8050POPC   GL147389  33.000  11.339   6.150
 8050POPC   GL247390  33.145  11.381   6.150
 8050POPC   C1A47391  33.040  11.273   6.450
 8050POPC   D2A47392  32.983  11.309   6.750
 8050POPC   C3A47393  32.980  11.282   7.050
 8050POPC   C4A47394  33.045  11.312   7.350
 8050POPC   C1B47395  33.149  11.452   6.450
 8050POPC   C2B47396  33.171  11.468   6.750
 8050POPC   C3B47397  33.154  11.453   7.050
 8050POPC   C4B47398  33.151  11.509   7.350
 8051POPC   NC347399   1.263  32.256   5.550
 8051POPC   PO447400   1.208  32.253   5.850
 8051POPC   GL147401   1.179  32.275   6.150
 8051POPC   GL247402   1.135  32.186   6.150
 8051POPC   C1A47403   1.205  32.207   6.450
 8051POPC   D2A47404   1.252  32.282   6.750
 8051POPC   C3A47405   1.227  32.224   7.050
 8051POPC   C4A47406   1.207  32.244   7.350
 8051POPC   C1B47407   0.993  32.070   6.450
 8051POPC   C2B47408   1.031  32.042   6.750
 8051POPC   C3B47409   1.014  32.093   7.050
 8051POPC   C4B47410   1.033  32.081   7.350
 8052POPC   NC347411  21.431  33.792   5.550
 8052POPC   PO447412  21.407  33.821   5.850
 8052POPC   GL147413  21.400  33.769   6.150
 8052POPC   GL247414  21.481  33.737   6.150
 8052POPC   C1A47415  21.404  33.820   6.450
 8052POPC   D2A47416  21.412  33.827   6.750
 8052POPC   C3A47417  21.360  33.783   7.050
 8052POPC   C4A47418  21.413  33.792   7.350
 8052POPC   C1B47419  21.578  33.623   6.450
 8052POPC   C2B47420  21.525  33.626   6.750
 8052POPC   C3B47421  21.607  33.618   7.050
 8052POPC   C4B47422  21.604  33.589   7.350
 8053POPC   NC347423  35.385  36.920   5.550
 8053POPC   PO447424  35.359  36.930   5.850
 8053POPC   GL147425  35.342  36.932   6.150
 8053POPC   GL247426  35.457  36.955   6.150
 8053POPC   C1A47427  35.320  36.870   6.450
 8053POPC   D2A47428  35.377  36.941   6.750
 8053POPC   C3A47429  35.361  36.920   7.050
 8053POPC   C4A47430  35.314  36.920   7.350
 8053POPC   C1B47431  35.528  37.060   6.450
 8053POPC   C2B47432  35.589  37.014   6.750
 8053POPC   C3B47433  35.562  37.051   7.050
 8053POPC   C4B47434  35.582  37.055   7.350
 8054POPC   NC347435   4.327  35.337   5.550
 8054POPC   PO447436   4.320  35.356   5.850
 8054POPC   GL147437   4.277  35.345   6.150
 8054POPC   GL247438   4.213  35.381   6.150
 8054POPC   C1A47439   4.362  35.328   6.450
 8054POPC   D2A47440   4.332  35.387   6.750
 8054POPC   C3A47441   4.320  35.334   7.050
 8054POPC   C4A47442   4.367  35.345   7.350
 8054POPC   C1B47443   4.096  35.351   6.450
 8054POPC   C2B47444   4.068  35.296   6.750
 8054POPC   C3B47445   4.035  35.348   7.050
 8054POPC   C4B47446   4.078  35.267   7.350
 8055POPC   NC347447  29.934  16.693   5.550
 8055POPC   PO447448  29.929  16.747   5.850
 8055POPC   GL147449  29.886  16.685   6.150
 8055POPC   GL247450  29.849  16.841   6.150
 8055POPC   C1A47451  29.907  16.757   6.450
 8055POPC   D2A47452  29.935  16.729   6.750
 8055POPC   C3A47453  29.941  16.753   7.050
 8055POPC   C4A47454  29.892  16.725   7.350
 8055POPC   C1B47455  29.746  16.950   6.450
 8055POPC   C2B47456  29.782  16.876   6.750
 8055POPC   C3B47457  29.791  16.915   7.050
 8055POPC   C4B47458  29.737  16.955   7.350
 8056POPC   NC347459   4.339   8.939   5.550
 8056POPC   PO447460   4.311   8.931   5.850
 8056POPC   GL147461   4.290   9.019   6.150
 8056POPC   GL247462   4.208   8.916   6.150
 8056POPC   C1A47463   4.270   8.953   6.450
 8056POPC   D2A47464   4.354   8.947   6.750
 8056POPC   C3A47465   4.354   9.003   7.050
 8056POPC   C4A47466   4.356   9.007   7.350
 8056POPC   C1B47467   4.085   8.861   6.450
 8056POPC   C2B47468   4.151   8.882   6.750
 8056POPC   C3B47469   4.145   8.821   7.050
 8056POPC   C4B47470   4.138   8.867   7.350
 8057POPC   NC347471  26.841  12.072   5.550
 8057POPC   PO447472  26.779  12.095   5.850
 8057POPC   GL147473  26.772  12.117   6.150
 8057POPC   GL247474  26.736  12.181   6.150
 8057POPC   C1A47475  26.809  12.074   6.450
 8057POPC   D2A47476  26.815  12.058   6.750
 8057POPC   C3A47477  26.828  12.035   7.050
 8057POPC   C4A47478  26.831  12.073   7.350
 8057POPC   C1B47479  26.572  12.186   6.450
 8057POPC   C2B47480  26.664  12.267   6.750
 8057POPC   C3B47481  26.581  12.270   7.050
 8057POPC   C4B47482  26.575  12.177   7.350
 8058POPC   NC347483   3.509  29.915   5.550
 8058POPC   PO447484   3.585  29.968   5.850
 8058POPC   GL147485   3.553  29.872   6.150
 8058POPC   GL247486   3.615  29.974   6.150
 8058POPC   C1A47487   3.567  29.913   6.450
 8058POPC   D2A47488   3.581  29.940   6.750
 8058POPC   C3A47489   3.548  29.934   7.050
 8058POPC   C4A47490   3.563  29.951   7.350
 8058POPC   C1B47491   3.762  29.938   6.450
 8058POPC   C2B47492   3.802  29.959   6.750
 8058POPC   C3B47493   3.802  29.992   7.050
 8058POPC   C4B47494   3.770  29.943   7.350
 8059POPC   NC347495   7.454  38.501   5.550
 8059POPC   PO447496   7.409  38.484   5.850
 8059POPC   GL147497   7.434  38.483   6.150
 8059POPC   GL247498   7.298  38.373   6.150
 8059POPC   C1A47499   7.444  38.444   6.450
 8059POPC   D2A47500   7.401  38.487   6.750
 8059POPC   C3A47501   7.418  38.446   7.050
 8059POPC   C4A47502   7.459  38.475   7.350
 8059POPC   C1B47503   7.270  38.278   6.450
 8059POPC   C2B47504   7.247  38.249   6.750
 8059POPC   C3B47505   7.287  38.330   7.050
 8059POPC   C4B47506   7.246  38.250   7.350
 8060POPC   NC347507  22.984  30.696   5.550
 8060POPC   PO447508  22.908  30.654   5.850
 8060POPC   GL147509  22.971  30.728   6.150
 8060POPC   GL247510  22.837  30.810   6.150
 8060POPC   C1A47511  22.961  30.698   6.450
 8060POPC   D2A47512  22.970  30.707   6.750
 8060POPC   C3A47513  22.892  30.711   7.050
 8060POPC   C4A47514  22.988  30.694   7.350
 8060POPC   C1B47515  22.803  30.958   6.450
 8060POPC   C2B47516  22.792  30.935   6.750
 8060POPC   C3B47517  22.769  30.902   7.050
 8060POPC   C4B47518  22.840  30.933   7.350
 8061POPC   NC347519  12.848  14.382   5.550
 8061POPC   PO447520  12.864  14.354   5.850
 8061POPC   GL147521  12.890  14.425   6.150
 8061POPC   GL247522  12.913  14.465   6.150
 8061POPC   C1A47523  12.882  14.388   6.450
 8061POPC   D2A47524  12.828  14.406   6.750
 8061POPC   C3A47525  12.869  14.357   7.050
 8061POPC   C4A47526  12.860  14.358   7.350
 8061POPC   C1B47527  13.022  14.576   6.450
 8061POPC   C2B47528  13.005  14.621   6.750
 8061POPC   C3B47529  13.006  14.604   7.050
 8061POPC   C4B47530  12.960  14.583   7.350
 8062POPC   NC347531   0.404   2.735   5.550
 8062POPC   PO447532   0.479   2.763   5.850
 8062POPC   GL147533   0.485   2.748   6.150
 8062POPC   GL247534   0.281   2.716   6.150
 8062POPC   C1A47535   0.464   2.809   6.450
 8062POPC   D2A47536   0.478   2.800   6.750
 8062POPC   C3A47537   0.470   2.782   7.050
 8062POPC   C4A47538   0.434   2.786   7.350
 8062POPC   C1B47539   0.169   2.655   6.450
 8062POPC   C2B47540   0.182   2.658   6.750
 8062POPC   C3B47541   0.203   2.669   7.050
 8062POPC   C4B47542   0.186   2.697   7.350
 8063POPC   NC347543  41.538   5.130   5.550
 8063POPC   PO447544  41.597   5.115   5.850
 8063POPC   GL147545  41.593   5.099   6.150
 8063POPC   GL247546  41.651   5.148   6.150
 8063POPC   C1A47547  41.580   5.044   6.450
 8063POPC   D2A47548  41.539   5.126   6.750
 8063POPC   C3A47549  41.563   5.086   7.050
 8063POPC   C4A47550  41.549   5.073   7.350
 8063POPC   C1B47551  41.748   5.192   6.450
 8063POPC   C2B47552  41.808   5.144   6.750
 8063POPC   C3B47553  41.742   5.228   7.050
 8063POPC   C4B47554  41.830   5.146   7.350
 8064POPC   NC347555   9.732   2.721   5.550
 8064POPC   PO447556   9.712   2.727   5.850
 8064POPC   GL147557   9.718   2.773   6.150
 8064POPC   GL247558   9.823   2.682   6.150
 8064POPC   C1A47559   9.733   2.757   6.450
 8064POPC   D2A47560   9.715   2.796   6.750
 8064POPC   C3A47561   9.727   2.766   7.050
 8064POPC   C4A47562   9.745   2.729   7.350
 8064POPC   C1B47563   9.968   2.667   6.450
 8064POPC   C2B47564   9.953   2.652   6.750
 8064POPC   C3B47565   9.949   2.597   7.050
 8064POPC   C4B47566   9.942   2.678   7.350
 8065POPC   NC347567  40.056   9.788   5.550
 8065POPC   PO447568  40.040   9.766   5.850
 8065POPC   GL147569  40.022   9.788   6.150
 8065POPC   GL247570  40.011   9.608   6.150
 8065POPC   C1A47571  39.993   9.698   6.450
 8065POPC   D2A47572  40.047   9.777   6.750
 8065POPC   C3A47573  40.000   9.778   7.050
 8065POPC   C4A47574  40.016   9.758   7.350
 8065POPC   C1B47575  40.008   9.489   6.450
 8065POPC   C2B47576  40.004   9.491   6.750
 8065POPC   C3B47577  40.039   9.522   7.050
 8065POPC   C4B47578  40.004   9.501   7.350
 8066POPC   NC347579  32.984  13.637   5.550
 8066POPC   PO447580  32.977  13.662   5.850
 8066POPC   GL147581  33.053  13.646   6.150
 8066POPC   GL247582  32.943  13.578   6.150
 8066POPC   C1A47583  32.992  13.604   6.450
 8066POPC   D2A47584  33.032  13.578   6.750
 8066POPC   C3A47585  33.048  13.677   7.050
 8066POPC   C4A47586  33.052  13.611   7.350
 8066POPC   C1B47587  32.883  13.407   6.450
 8066POPC   C2B47588  32.894  13.460   6.750
 8066POPC   C3B47589  32.905  13.468   7.050
 8066POPC   C4B47590  32.863  13.455   7.350
 8067POPC   NC347591  15.198  29.138   5.550
 8067POPC   PO447592  15.215  29.126   5.850
 8067POPC   GL147593  15.157  29.123   6.150
 8067POPC   GL247594  15.051  29.089   6.150
 8067POPC   C1A47595  15.132  29.191   6.450
 8067POPC   D2A47596  15.152  29.104   6.750
 8067POPC   C3A47597  15.183  29.140   7.050
 8067POPC   C4A47598  15.181  29.182   7.350
 8067POPC   C1B47599  14.991  28.960   6.450
 8067POPC   C2B47600  14.955  29.017   6.750
 8067POPC   C3B47601  14.949  28.996   7.050
 8067POPC   C4B47602  14.959  28.957   7.350
 8068POPC   NC347603  13.658  33.824   5.550
 8068POPC   PO447604  13.580  33.797   5.850
 8068POPC   GL147605  13.624  33.752   6.150
 8068POPC   GL247606  13.722  33.743   6.150
 8068POPC   C1A47607  13.604  33.757   6.450
 8068POPC   D2A47608  13.652  33.786   6.750
 8068POPC   C3A47609  13.656  33.800   7.050
 8068POPC   C4A47610  13.676  33.848   7.350
 8068POPC   C1B47611  13.899  33.706   6.450
 8068POPC   C2B47612  13.892  33.694   6.750
 8068POPC   C3B47613  13.844  33.698   7.050
 8068POPC   C4B47614  13.892  33.719   7.350
 8069POPC   NC347615  21.362  36.951   5.550
 8069POPC   PO447616  21.400  36.908   5.850
 8069POPC   GL147617  21.385  36.921   6.150
 8069POPC   GL247618  21.457  36.837   6.150
 8069POPC   C1A47619  21.344  36.929   6.450
 8069POPC   D2A47620  21.373  36.917   6.750
 8069POPC   C3A47621  21.401  36.881   7.050
 8069POPC   C4A47622  21.407  36.920   7.350
 8069POPC   C1B47623  21.558  36.708   6.450
 8069POPC   C2B47624  21.589  36.689   6.750
 8069POPC   C3B47625  21.566  36.724   7.050
 8069POPC   C4B47626  21.522  36.727   7.350
 8070POPC   NC347627   8.230  42.287   5.550
 8070POPC   PO447628   8.198  42.289   5.850
 8070POPC   GL147629   8.172  42.353   6.150
 8070POPC   GL247630   8.180  42.252   6.150
 8070POPC   C1A47631   8.163  42.369   6.450
 8070POPC   D2A47632   8.152  42.311   6.750
 8070POPC   C3A47633   8.197  42.370   7.050
 8070POPC   C4A47634   8.170  42.308   7.350
 8070POPC   C1B47635   8.128  42.131   6.450
 8070POPC   C2B47636   8.084  42.093   6.750
 8070POPC   C3B47637   8.112  42.145   7.050
 8070POPC   C4B47638   8.086  42.095   7.350
 8071POPC   NC347639   7.375  10.550   5.550
 8071POPC   PO447640   7.387  10.490   5.850
 8071POPC   GL147641   7.413  10.493   6.150
 8071POPC   GL247642   7.490  10.656   6.150
 8071POPC   C1A47643   7.423  10.502   6.450
 8071POPC   D2A47644   7.420  10.542   6.750
 8071POPC   C3A47645   7.425  10.522   7.050
 8071POPC   C4A47646   7.445  10.504   7.350
 8071POPC   C1B47647   7.603  10.695   6.450
 8071POPC   C2B47648   7.570  10.737   6.750
 8071POPC   C3B47649   7.543  10.737   7.050
 8071POPC   C4B47650   7.630  10.733   7.350
 8072POPC   NC347651   7.385  12.889   5.550
 8072POPC   PO447652   7.377  12.804   5.850
 8072POPC   GL147653   7.374  12.837   6.150
 8072POPC   GL247654   7.348  12.788   6.150
 8072POPC   C1A47655   7.385  12.869   6.450
 8072POPC   D2A47656   7.451  12.891   6.750
 8072POPC   C3A47657   7.423  12.859   7.050
 8072POPC   C4A47658   7.394  12.805   7.350
 8072POPC   C1B47659   7.268  12.695   6.450
 8072POPC   C2B47660   7.204  12.713   6.750
 8072POPC   C3B47661   7.259  12.643   7.050
 8072POPC   C4B47662   7.250  12.683   7.350
 8073POPC   NC347663  38.443  33.048   5.550
 8073POPC   PO447664  38.488  32.992   5.850
 8073POPC   GL147665  38.432  33.058   6.150
 8073POPC   GL247666  38.526  32.908   6.150
 8073POPC   C1A47667  38.449  33.020   6.450
 8073POPC   D2A47668  38.475  32.979   6.750
 8073POPC   C3A47669  38.424  32.994   7.050
 8073POPC   C4A47670  38.445  33.003   7.350
 8073POPC   C1B47671  38.557  32.835   6.450
 8073POPC   C2B47672  38.596  32.792   6.750
 8073POPC   C3B47673  38.630  32.854   7.050
 8073POPC   C4B47674  38.589  32.821   7.350
 8074POPC   NC347675   0.433  23.700   5.550
 8074POPC   PO447676   0.429  23.748   5.850
 8074POPC   GL147677   0.476  23.717   6.150
 8074POPC   GL247678   0.325  23.670   6.150
 8074POPC   C1A47679   0.394  23.710   6.450
 8074POPC   D2A47680   0.423  23.682   6.750
 8074POPC   C3A47681   0.440  23.752   7.050
 8074POPC   C4A47682   0.454  23.673   7.350
 8074POPC   C1B47683   0.155  23.710   6.450
 8074POPC   C2B47684   0.146  23.735   6.750
 8074POPC   C3B47685   0.177  23.739   7.050
 8074POPC   C4B47686   0.215  23.740   7.350
 8075POPC   NC347687   8.200   1.187   5.550
 8075POPC   PO447688   8.218   1.263   5.850
 8075POPC   GL147689   8.173   1.198   6.150
 8075POPC   GL247690   8.109   1.335   6.150
 8075POPC   C1A47691   8.234   1.177   6.450
 8075POPC   D2A47692   8.183   1.185   6.750
 8075POPC   C3A47693   8.212   1.190   7.050
 8075POPC   C4A47694   8.216   1.185   7.350
 8075POPC   C1B47695   8.024   1.392   6.450
 8075POPC   C2B47696   8.076   1.418   6.750
 8075POPC   C3B47697   8.067   1.423   7.050
 8075POPC   C4B47698   8.014   1.406   7.350
 8076POPC   NC347699   2.717  28.377   5.550
 8076POPC   PO447700   2.770  28.391   5.850
 8076POPC   GL147701   2.778  28.336   6.150
 8076POPC   GL247702   2.918  28.335   6.150
 8076POPC   C1A47703   2.808  28.386   6.450
 8076POPC   D2A47704   2.790  28.416   6.750
 8076POPC   C3A47705   2.787  28.371   7.050
 8076POPC   C4A47706   2.807  28.394   7.350
 8076POPC   C1B47707   2.968  28.202   6.450
 8076POPC   C2B47708   2.968  28.225   6.750
 8076POPC   C3B47709   2.941  28.267   7.050
 8076POPC   C4B47710   2.969  28.229   7.350
 8077POPC   NC347711  40.053  35.387   5.550
 8077POPC   PO447712  39.963  35.373   5.850
 8077POPC   GL147713  40.018  35.392   6.150
 8077POPC   GL247714  39.855  35.363   6.150
 8077POPC   C1A47715  39.997  35.386   6.450
 8077POPC   D2A47716  40.028  35.308   6.750
 8077POPC   C3A47717  40.004  35.334   7.050
 8077POPC   C4A47718  39.971  35.336   7.350
 8077POPC   C1B47719  39.756  35.516   6.450
 8077POPC   C2B47720  39.762  35.504   6.750
 8077POPC   C3B47721  39.740  35.446   7.050
 8077POPC   C4B47722  39.772  35.440   7.350
 8078POPC   NC347723  22.131  29.928   5.550
 8078POPC   PO447724  22.200  29.942   5.850
 8078POPC   GL147725  22.182  29.964   6.150
 8078POPC   GL247726  22.148  29.837   6.150
 8078POPC   C1A47727  22.116  29.967   6.450
 8078POPC   D2A47728  22.172  29.908   6.750
 8078POPC   C3A47729  22.136  29.928   7.050
 8078POPC   C4A47730  22.158  29.956   7.350
 8078POPC   C1B47731  22.127  29.621   6.450
 8078POPC   C2B47732  22.160  29.715   6.750
 8078POPC   C3B47733  22.108  29.667   7.050
 8078POPC   C4B47734  22.123  29.658   7.350
 8079POPC   NC347735   0.468   1.230   5.550
 8079POPC   PO447736   0.405   1.211   5.850
 8079POPC   GL147737   0.395   1.199   6.150
 8079POPC   GL247738   0.353   1.265   6.150
 8079POPC   C1A47739   0.445   1.261   6.450
 8079POPC   D2A47740   0.442   1.250   6.750
 8079POPC   C3A47741   0.393   1.170   7.050
 8079POPC   C4A47742   0.435   1.201   7.350
 8079POPC   C1B47743   0.227   1.312   6.450
 8079POPC   C2B47744   0.223   1.243   6.750
 8079POPC   C3B47745   0.204   1.315   7.050
 8079POPC   C4B47746   0.243   1.263   7.350
 8080POPC   NC347747  40.745  21.371   5.550
 8080POPC   PO447748  40.807  21.390   5.850
 8080POPC   GL147749  40.793  21.435   6.150
 8080POPC   GL247750  40.931  21.383   6.150
 8080POPC   C1A47751  40.739  21.382   6.450
 8080POPC   D2A47752  40.750  21.377   6.750
 8080POPC   C3A47753  40.748  21.358   7.050
 8080POPC   C4A47754  40.781  21.422   7.350
 8080POPC   C1B47755  40.984  21.321   6.450
 8080POPC   C2B47756  40.999  21.352   6.750
 8080POPC   C3B47757  40.987  21.372   7.050
 8080POPC   C4B47758  41.079  21.332   7.350
 8081POPC   NC347759   8.973  29.151   5.550
 8081POPC   PO447760   8.966  29.111   5.850
 8081POPC   GL147761   9.017  29.156   6.150
 8081POPC   GL247762   9.077  29.183   6.150
 8081POPC   C1A47763   8.989  29.145   6.450
 8081POPC   D2A47764   8.961  29.132   6.750
 8081POPC   C3A47765   8.946  29.096   7.050
 8081POPC   C4A47766   8.978  29.171   7.350
 8081POPC   C1B47767   9.216  29.236   6.450
 8081POPC   C2B47768   9.219  29.182   6.750
 8081POPC   C3B47769   9.203  29.177   7.050
 8081POPC   C4B47770   9.235  29.210   7.350
 8082POPC   NC347771   2.009   2.812   5.550
 8082POPC   PO447772   1.997   2.742   5.850
 8082POPC   GL147773   2.035   2.738   6.150
 8082POPC   GL247774   1.860   2.825   6.150
 8082POPC   C1A47775   2.007   2.787   6.450
 8082POPC   D2A47776   2.037   2.723   6.750
 8082POPC   C3A47777   1.961   2.789   7.050
 8082POPC   C4A47778   1.965   2.718   7.350
 8082POPC   C1B47779   1.772   2.956   6.450
 8082POPC   C2B47780   1.818   2.969   6.750
 8082POPC   C3B47781   1.806   2.901   7.050
 8082POPC   C4B47782   1.808   2.930   7.350
 8083POPC   NC347783  20.603  29.911   5.550
 8083POPC   PO447784  20.579  29.874   5.850
 8083POPC   GL147785  20.611  29.967   6.150
 8083POPC   GL247786  20.691  29.871   6.150
 8083POPC   C1A47787  20.572  29.966   6.450
 8083POPC   D2A47788  20.650  29.906   6.750
 8083POPC   C3A47789  20.644  29.896   7.050
 8083POPC   C4A47790  20.595  29.946   7.350
 8083POPC   C1B47791  20.773  29.759   6.450
 8083POPC   C2B47792  20.825  29.690   6.750
 8083POPC   C3B47793  20.742  29.748   7.050
 8083POPC   C4B47794  20.813  29.698   7.350
 8084POPC   NC347795  19.806  39.992   5.550
 8084POPC   PO447796  19.847  39.960   5.850
 8084POPC   GL147797  19.819  39.959   6.150
 8084POPC   GL247798  19.965  39.967   6.150
 8084POPC   C1A47799  19.790  39.993   6.450
 8084POPC   D2A47800  19.840  40.026   6.750
 8084POPC   C3A47801  19.840  40.022   7.050
 8084POPC   C4A47802  19.834  40.037   7.350
 8084POPC   C1B47803  20.088  39.995   6.450
 8084POPC   C2B47804  20.082  40.004   6.750
 8084POPC   C3B47805  20.098  39.998   7.050
 8084POPC   C4B47806  20.103  40.031   7.350
 8085POPC   NC347807  30.647  43.839   5.550
 8085POPC   PO447808  30.732  43.853   5.850
 8085POPC   GL147809  30.669  43.918   6.150
 8085POPC   GL247810  30.619  43.888   6.150
 8085POPC   C1A47811  30.707  43.902   6.450
 8085POPC   D2A47812  30.723  43.896   6.750
 8085POPC   C3A47813  30.742  43.891   7.050
 8085POPC   C4A47814  30.698  43.848   7.350
 8085POPC   C1B47815  30.510  43.801   6.450
 8085POPC   C2B47816  30.483  43.758   6.750
 8085POPC   C3B47817  30.512  43.777   7.050
 8085POPC   C4B47818  30.472  43.777   7.350
 8086POPC   NC347819  14.363  16.752   5.550
 8086POPC   PO447820  14.436  16.703   5.850
 8086POPC   GL147821  14.450  16.771   6.150
 8086POPC   GL247822  14.275  16.645   6.150
 8086POPC   C1A47823  14.362  16.760   6.450
 8086POPC   D2A47824  14.415  16.776   6.750
 8086POPC   C3A47825  14.419  16.779   7.050
 8086POPC   C4A47826  14.375  16.707   7.350
 8086POPC   C1B47827  14.149  16.567   6.450
 8086POPC   C2B47828  14.136  16.659   6.750
 8086POPC   C3B47829  14.155  16.656   7.050
 8086POPC   C4B47830  14.135  16.655   7.350
 8087POPC   NC347831   3.511   5.843   5.550
 8087POPC   PO447832   3.536   5.897   5.850
 8087POPC   GL147833   3.565   5.890   6.150
 8087POPC   GL247834   3.523   5.723   6.150
 8087POPC   C1A47835   3.576   5.867   6.450
 8087POPC   D2A47836   3.522   5.862   6.750
 8087POPC   C3A47837   3.541   5.872   7.050
 8087POPC   C4A47838   3.528   5.877   7.350
 8087POPC   C1B47839   3.555   5.634   6.450
 8087POPC   C2B47840   3.601   5.623   6.750
 8087POPC   C3B47841   3.520   5.611   7.050
 8087POPC   C4B47842   3.523   5.581   7.350
 8088POPC   NC347843  29.900  25.225   5.550
 8088POPC   PO447844  29.925  25.270   5.850
 8088POPC   GL147845  29.898  25.275   6.150
 8088POPC   GL247846  29.825  25.240   6.150
 8088POPC   C1A47847  29.871  25.276   6.450
 8088POPC   D2A47848  29.960  25.293   6.750
 8088POPC   C3A47849  29.878  25.241   7.050
 8088POPC   C4A47850  29.951  25.260   7.350
 8088POPC   C1B47851  29.693  25.177   6.450
 8088POPC   C2B47852  29.701  25.132   6.750
 8088POPC   C3B47853  29.753  25.113   7.050
 8088POPC   C4B47854  29.730  25.141   7.350
 8089POPC   NC347855  20.613   2.742   5.550
 8089POPC   PO447856  20.655   2.716   5.850
 8089POPC   GL147857  20.563   2.774   6.150
 8089POPC   GL247858  20.541   2.631   6.150
 8089POPC   C1A47859  20.638   2.773   6.450
 8089POPC   D2A47860  20.600   2.800   6.750
 8089POPC   C3A47861  20.626   2.783   7.050
 8089POPC   C4A47862  20.615   2.758   7.350
 8089POPC   C1B47863  20.450   2.576   6.450
 8089POPC   C2B47864  20.475   2.504   6.750
 8089POPC   C3B47865  20.471   2.572   7.050
 8089POPC   C4B47866  20.492   2.570   7.350
 8090POPC   NC347867   2.726   2.733   5.550
 8090POPC   PO447868   2.775   2.725   5.850
 8090POPC   GL147869   2.795   2.755   6.150
 8090POPC   GL247870   2.711   2.845   6.150
 8090POPC   C1A47871   2.797   2.749   6.450
 8090POPC   D2A47872   2.801   2.734   6.750
 8090POPC   C3A47873   2.731   2.751   7.050
 8090POPC   C4A47874   2.745   2.739   7.350
 8090POPC   C1B47875   2.618   3.001   6.450
 8090POPC   C2B47876   2.616   2.970   6.750
 8090POPC   C3B47877   2.639   2.950   7.050
 8090POPC   C4B47878   2.597   2.999   7.350
 8091POPC   NC347879  39.252   6.666   5.550
 8091POPC   PO447880  39.240   6.633   5.850
 8091POPC   GL147881  39.210   6.688   6.150
 8091POPC   GL247882  39.086   6.652   6.150
 8091POPC   C1A47883  39.273   6.618   6.450
 8091POPC   D2A47884  39.248   6.684   6.750
 8091POPC   C3A47885  39.250   6.603   7.050
 8091POPC   C4A47886  39.234   6.695   7.350
 8091POPC   C1B47887  38.951   6.687   6.450
 8091POPC   C2B47888  38.978   6.703   6.750
 8091POPC   C3B47889  39.009   6.650   7.050
 8091POPC   C4B47890  38.940   6.714   7.350
 8092POPC   NC347891  42.341  26.023   5.550
 8092POPC   PO447892  42.377  26.063   5.850
 8092POPC   GL147893  42.314  26.065   6.150
 8092POPC   GL247894  42.243  25.973   6.150
 8092POPC   C1A47895  42.346  26.041   6.450
 8092POPC   D2A47896  42.297  26.026   6.750
 8092POPC   C3A47897  42.367  26.026   7.050
 8092POPC   C4A47898  42.367  26.058   7.350
 8092POPC   C1B47899  42.068  26.000   6.450
 8092POPC   C2B47900  42.113  25.957   6.750
 8092POPC   C3B47901  42.078  25.968   7.050
 8092POPC   C4B47902  42.103  26.001   7.350
 8093POPC   NC347903   8.225  29.193   5.550
 8093POPC   PO447904   8.235  29.174   5.850
 8093POPC   GL147905   8.156  29.126   6.150
 8093POPC   GL247906   8.101  29.274   6.150
 8093POPC   C1A47907   8.234  29.132   6.450
 8093POPC   D2A47908   8.174  29.160   6.750
 8093POPC   C3A47909   8.174  29.189   7.050
 8093POPC   C4A47910   8.181  29.134   7.350
 8093POPC   C1B47911   8.069  29.300   6.450
 8093POPC   C2B47912   8.025  29.313   6.750
 8093POPC   C3B47913   8.049  29.371   7.050
 8093POPC   C4B47914   8.072  29.371   7.350
 8094POPC   NC347915  26.006  32.983   5.550
 8094POPC   PO447916  26.065  33.030   5.850
 8094POPC   GL147917  26.016  33.072   6.150
 8094POPC   GL247918  25.975  32.866   6.150
 8094POPC   C1A47919  26.058  33.009   6.450
 8094POPC   D2A47920  26.015  32.984   6.750
 8094POPC   C3A47921  26.049  32.999   7.050
 8094POPC   C4A47922  26.078  33.002   7.350
 8094POPC   C1B47923  26.000  32.750   6.450
 8094POPC   C2B47924  26.042  32.787   6.750
 8094POPC   C3B47925  26.026  32.729   7.050
 8094POPC   C4B47926  25.985  32.817   7.350
 8095POPC   NC347927  15.938  33.007   5.550
 8095POPC   PO447928  15.959  33.008   5.850
 8095POPC   GL147929  15.934  33.020   6.150
 8095POPC   GL247930  16.076  33.151   6.150
 8095POPC   C1A47931  15.978  32.980   6.450
 8095POPC   D2A47932  15.907  33.007   6.750
 8095POPC   C3A47933  15.994  33.008   7.050
 8095POPC   C4A47934  16.003  33.072   7.350
 8095POPC   C1B47935  16.111  33.142   6.450
 8095POPC   C2B47936  16.178  33.172   6.750
 8095POPC   C3B47937  16.105  33.222   7.050
 8095POPC   C4B47938  16.120  33.175   7.350
 8096POPC   NC347939  31.511  36.143   5.550
 8096POPC   PO447940  31.433  36.091   5.850
 8096POPC   GL147941  31.435  36.100   6.150
 8096POPC   GL247942  31.378  36.055   6.150
 8096POPC   C1A47943  31.472  36.078   6.450
 8096POPC   D2A47944  31.466  36.127   6.750
 8096POPC   C3A47945  31.501  36.172   7.050
 8096POPC   C4A47946  31.427  36.130   7.350
 8096POPC   C1B47947  31.392  35.926   6.450
 8096POPC   C2B47948  31.375  35.879   6.750
 8096POPC   C3B47949  31.322  35.869   7.050
 8096POPC   C4B47950  31.316  35.882   7.350
 8097POPC   NC347951  23.664  20.635   5.550
 8097POPC   PO447952  23.677  20.609   5.850
 8097POPC   GL147953  23.763  20.566   6.150
 8097POPC   GL247954  23.699  20.529   6.150
 8097POPC   C1A47955  23.687  20.627   6.450
 8097POPC   D2A47956  23.719  20.639   6.750
 8097POPC   C3A47957  23.763  20.588   7.050
 8097POPC   C4A47958  23.686  20.615   7.350
 8097POPC   C1B47959  23.726  20.374   6.450
 8097POPC   C2B47960  23.697  20.358   6.750
 8097POPC   C3B47961  23.667  20.364   7.050
 8097POPC   C4B47962  23.729  20.358   7.350
 8098POPC   NC347963  18.319   8.952   5.550
 8098POPC   PO447964  18.270   8.998   5.850
 8098POPC   GL147965  18.272   8.935   6.150
 8098POPC   GL247966  18.342   8.887   6.150
 8098POPC   C1A47967  18.275   8.969   6.450
 8098POPC   D2A47968  18.276   9.008   6.750
 8098POPC   C3A47969  18.330   8.981   7.050
 8098POPC   C4A47970  18.291   8.993   7.350
 8098POPC   C1B47971  18.478   8.745   6.450
 8098POPC   C2B47972  18.465   8.805   6.750
 8098POPC   C3B47973  18.427   8.744   7.050
 8098POPC   C4B47974  18.439   8.735   7.350
 8099POPC   NC347975   3.588  40.754   5.550
 8099POPC   PO447976   3.551  40.737   5.850
 8099POPC   GL147977   3.579  40.749   6.150
 8099POPC   GL247978   3.539  40.639   6.150
 8099POPC   C1A47979   3.543  40.810   6.450
 8099POPC   D2A47980   3.494  40.806   6.750
 8099POPC   C3A47981   3.552  40.763   7.050
 8099POPC   C4A47982   3.542  40.818   7.350
 8099POPC   C1B47983   3.633  40.555   6.450
 8099POPC   C2B47984   3.667  40.521   6.750
 8099POPC   C3B47985   3.602  40.582   7.050
 8099POPC   C4B47986   3.590  40.514   7.350
 8100POPC   NC347987  26.073   6.648   5.550
 8100POPC   PO447988  26.044   6.668   5.850
 8100POPC   GL147989  26.091   6.652   6.150
 8100POPC   GL247990  26.089   6.797   6.150
 8100POPC   C1A47991  26.071   6.668   6.450
 8100POPC   D2A47992  26.001   6.684   6.750
 8100POPC   C3A47993  26.074   6.638   7.050
 8100POPC   C4A47994  26.070   6.600   7.350
 8100POPC   C1B47995  26.221   6.889   6.450
 8100POPC   C2B47996  26.158   6.820   6.750
 8100POPC   C3B47997  26.206   6.843   7.050
 8100POPC   C4B47998  26.140   6.880   7.350
 8101POPC   NC347999  20.570  32.244   5.550
 8101POPC   PO448000  20.566  32.219   5.850
 8101POPC   GL148001  20.613  32.239   6.150
 8101POPC   GL248002  20.727  32.177   6.150
 8101POPC   C1A48003  20.650  32.296   6.450
 8101POPC   D2A48004  20.607  32.278   6.750
 8101POPC   C3A48005  20.617  32.272   7.050
 8101POPC   C4A48006  20.624  32.211   7.350
 8101POPC   C1B48007  20.762  32.079   6.450
 8101POPC   C2B48008  20.717  32.018   6.750
 8101POPC   C3B48009  20.726  32.033   7.050
 8101POPC   C4B48010  20.730  32.048   7.350
 8102POPC   NC348011  29.960  19.046   5.550
 8102POPC   PO448012  29.903  19.092   5.850
 8102POPC   GL148013  29.942  19.052   6.150
 8102POPC   GL248014  29.793  19.045   6.150
 8102POPC   C1A48015  29.901  19.061   6.450
 8102POPC   D2A48016  29.934  19.026   6.750
 8102POPC   C3A48017  29.939  19.099   7.050
 8102POPC   C4A48018  29.953  19.055   7.350
 8102POPC   C1B48019  29.694  19.036   6.450
 8102POPC   C2B48020  29.695  19.057   6.750
 8102POPC   C3B48021  29.704  19.063   7.050
 8102POPC   C4B48022  29.683  19.039   7.350
 8103POPC   NC348023  30.734  41.576   5.550
 8103POPC   PO448024  30.649  41.561   5.850
 8103POPC   GL148025  30.714  41.549   6.150
 8103POPC   GL248026  30.804  41.633   6.150
 8103POPC   C1A48027  30.658  41.607   6.450
 8103POPC   D2A48028  30.677  41.585   6.750
 8103POPC   C3A48029  30.662  41.586   7.050
 8103POPC   C4A48030  30.672  41.530   7.350
 8103POPC   C1B48031  30.912  41.652   6.450
 8103POPC   C2B48032  30.863  41.676   6.750
 8103POPC   C3B48033  30.867  41.662   7.050
 8103POPC   C4B48034  30.874  41.678   7.350
 8104POPC   NC348035  13.578  26.047   5.550
 8104POPC   PO448036  13.663  26.091   5.850
 8104POPC   GL148037  13.661  26.005   6.150
 8104POPC   GL248038  13.550  26.082   6.150
 8104POPC   C1A48039  13.654  26.066   6.450
 8104POPC   D2A48040  13.645  26.079   6.750
 8104POPC   C3A48041  13.637  26.064   7.050
 8104POPC   C4A48042  13.650  26.016   7.350
 8104POPC   C1B48043  13.417  26.096   6.450
 8104POPC   C2B48044  13.394  26.156   6.750
 8104POPC   C3B48045  13.363  26.166   7.050
 8104POPC   C4B48046  13.350  26.130   7.350
 8105POPC   NC348047   5.858  43.128   5.550
 8105POPC   PO448048   5.843  43.123   5.850
 8105POPC   GL148049   5.820  43.084   6.150
 8105POPC   GL248050   5.988  43.228   6.150
 8105POPC   C1A48051   5.822  43.085   6.450
 8105POPC   D2A48052   5.824  43.147   6.750
 8105POPC   C3A48053   5.896  43.147   7.050
 8105POPC   C4A48054   5.822  43.123   7.350
 8105POPC   C1B48055   6.058  43.288   6.450
 8105POPC   C2B48056   6.115  43.303   6.750
 8105POPC   C3B48057   6.091  43.216   7.050
 8105POPC   C4B48058   6.059  43.233   7.350
 8106POPC   NC348059  26.863   2.755   5.550
 8106POPC   PO448060  26.858   2.735   5.850
 8106POPC   GL148061  26.835   2.750   6.150
 8106POPC   GL248062  26.716   2.782   6.150
 8106POPC   C1A48063  26.863   2.730   6.450
 8106POPC   D2A48064  26.813   2.803   6.750
 8106POPC   C3A48065  26.835   2.794   7.050
 8106POPC   C4A48066  26.798   2.776   7.350
 8106POPC   C1B48067  26.619   2.883   6.450
 8106POPC   C2B48068  26.562   2.925   6.750
 8106POPC   C3B48069  26.604   2.851   7.050
 8106POPC   C4B48070  26.603   2.897   7.350
 8107POPC   NC348071  43.101  32.281   5.550
 8107POPC   PO448072  43.132  32.274   5.850
 8107POPC   GL148073  43.134  32.298   6.150
 8107POPC   GL248074  42.967  32.305   6.150
 8107POPC   C1A48075  43.121  32.273   6.450
 8107POPC   D2A48076  43.147  32.256   6.750
 8107POPC   C3A48077  43.151  32.223   7.050
 8107POPC   C4A48078  43.109  32.252   7.350
 8107POPC   C1B48079  42.896  32.329   6.450
 8107POPC   C2B48080  42.843  32.370   6.750
 8107POPC   C3B48081  42.881  32.320   7.050
 8107POPC   C4B48082  42.915  32.378   7.350
 8108POPC   NC348083  30.666  22.918   5.550
 8108POPC   PO448084  30.734  22.939   5.850
 8108POPC   GL148085  30.671  22.983   6.150
 8108POPC   GL248086  30.825  22.923   6.150
 8108POPC   C1A48087  30.647  22.976   6.450
 8108POPC   D2A48088  30.716  22.902   6.750
 8108POPC   C3A48089  30.735  22.978   7.050
 8108POPC   C4A48090  30.729  22.942   7.350
 8108POPC   C1B48091  30.905  22.938   6.450
 8108POPC   C2B48092  30.905  22.920   6.750
 8108POPC   C3B48093  30.948  22.997   7.050
 8108POPC   C4B48094  30.952  22.937   7.350
 8109POPC   NC348095  26.791  10.493   5.550
 8109POPC   PO448096  26.782  10.488   5.850
 8109POPC   GL148097  26.838  10.547   6.150
 8109POPC   GL248098  26.833  10.368   6.150
 8109POPC   C1A48099  26.785  10.485   6.450
 8109POPC   D2A48100  26.860  10.500   6.750
 8109POPC   C3A48101  26.829  10.574   7.050
 8109POPC   C4A48102  26.769  10.478   7.350
 8109POPC   C1B48103  26.832  10.247   6.450
 8109POPC   C2B48104  26.841  10.281   6.750
 8109POPC   C3B48105  26.895  10.303   7.050
 8109POPC   C4B48106  26.862  10.245   7.350
 8110POPC   NC348107  22.953  33.818   5.550
 8110POPC   PO448108  22.972  33.821   5.850
 8110POPC   GL148109  22.970  33.780   6.150
 8110POPC   GL248110  22.926  33.734   6.150
 8110POPC   C1A48111  22.968  33.825   6.450
 8110POPC   D2A48112  22.947  33.832   6.750
 8110POPC   C3A48113  22.987  33.778   7.050
 8110POPC   C4A48114  22.979  33.844   7.350
 8110POPC   C1B48115  22.807  33.532   6.450
 8110POPC   C2B48116  22.845  33.611   6.750
 8110POPC   C3B48117  22.858  33.569   7.050
 8110POPC   C4B48118  22.793  33.605   7.350
 8111POPC   NC348119  38.495  10.514   5.550
 8111POPC   PO448120  38.478  10.498   5.850
 8111POPC   GL148121  38.412  10.560   6.150
 8111POPC   GL248122  38.616  10.522   6.150
 8111POPC   C1A48123  38.491  10.521   6.450
 8111POPC   D2A48124  38.407  10.531   6.750
 8111POPC   C3A48125  38.440  10.482   7.050
 8111POPC   C4A48126  38.491  10.507   7.350
 8111POPC   C1B48127  38.698  10.569   6.450
 8111POPC   C2B48128  38.676  10.594   6.750
 8111POPC   C3B48129  38.666  10.583   7.050
 8111POPC   C4B48130  38.717  10.590   7.350
 8112POPC   NC348131  13.588  34.595   5.550
 8112POPC   PO448132  13.596  34.528   5.850
 8112POPC   GL148133  13.631  34.605   6.150
 8112POPC   GL248134  13.628  34.713   6.150
 8112POPC   C1A48135  13.639  34.536   6.450
 8112POPC   D2A48136  13.583  34.609   6.750
 8112POPC   C3A48137  13.660  34.571   7.050
 8112POPC   C4A48138  13.667  34.554   7.350
 8112POPC   C1B48139  13.511  34.828   6.450
 8112POPC   C2B48140  13.580  34.796   6.750
 8112POPC   C3B48141  13.528  34.793   7.050
 8112POPC   C4B48142  13.507  34.836   7.350
 8113POPC   NC348143  37.664   8.198   5.550
 8113POPC   PO448144  37.722   8.155   5.850
 8113POPC   GL148145  37.649   8.244   6.150
 8113POPC   GL248146  37.622   8.100   6.150
 8113POPC   C1A48147  37.722   8.196   6.450
 8113POPC   D2A48148  37.705   8.219   6.750
 8113POPC   C3A48149  37.667   8.158   7.050
 8113POPC   C4A48150  37.693   8.241   7.350
 8113POPC   C1B48151  37.570   8.008   6.450
 8113POPC   C2B48152  37.561   7.992   6.750
 8113POPC   C3B48153  37.571   7.968   7.050
 8113POPC   C4B48154  37.560   7.952   7.350
 8114POPC   NC348155  23.762  22.188   5.550
 8114POPC   PO448156  23.719  22.132   5.850
 8114POPC   GL148157  23.695  22.139   6.150
 8114POPC   GL248158  23.825  22.154   6.150
 8114POPC   C1A48159  23.749  22.210   6.450
 8114POPC   D2A48160  23.687  22.174   6.750
 8114POPC   C3A48161  23.703  22.163   7.050
 8114POPC   C4A48162  23.706  22.121   7.350
 8114POPC   C1B48163  23.939  22.219   6.450
 8114POPC   C2B48164  23.928  22.183   6.750
 8114POPC   C3B48165  23.930  22.151   7.050
 8114POPC   C4B48166  23.980  22.159   7.350
 8115POPC   NC348167  30.702  15.951   5.550
 8115POPC   PO448168  30.686  15.938   5.850
 8115POPC   GL148169  30.719  15.942   6.150
 8115POPC   GL248170  30.824  15.974   6.150
 8115POPC   C1A48171  30.738  15.924   6.450
 8115POPC   D2A48172  30.727  15.922   6.750
 8115POPC   C3A48173  30.651  15.993   7.050
 8115POPC   C4A48174  30.709  15.999   7.350
 8115POPC   C1B48175  30.922  16.078   6.450
 8115POPC   C2B48176  30.948  16.014   6.750
 8115POPC   C3B48177  30.918  16.055   7.050
 8115POPC   C4B48178  30.891  16.041   7.350
 8116POPC   NC348179  13.581  35.387   5.550
 8116POPC   PO448180  13.593  35.329   5.850
 8116POPC   GL148181  13.663  35.311   6.150
 8116POPC   GL248182  13.709  35.392   6.150
 8116POPC   C1A48183  13.677  35.305   6.450
 8116POPC   D2A48184  13.659  35.351   6.750
 8116POPC   C3A48185  13.648  35.367   7.050
 8116POPC   C4A48186  13.612  35.307   7.350
 8116POPC   C1B48187  13.882  35.438   6.450
 8116POPC   C2B48188  13.907  35.438   6.750
 8116POPC   C3B48189  13.875  35.433   7.050
 8116POPC   C4B48190  13.885  35.472   7.350
 8117POPC   NC348191  33.765   1.262   5.550
 8117POPC   PO448192  33.792   1.189   5.850
 8117POPC   GL148193  33.849   1.173   6.150
 8117POPC   GL248194  33.870   1.273   6.150
 8117POPC   C1A48195  33.801   1.227   6.450
 8117POPC   D2A48196  33.828   1.170   6.750
 8117POPC   C3A48197  33.809   1.186   7.050
 8117POPC   C4A48198  33.782   1.212   7.350
 8117POPC   C1B48199  33.894   1.411   6.450
 8117POPC   C2B48200  33.987   1.409   6.750
 8117POPC   C3B48201  33.936   1.387   7.050
 8117POPC   C4B48202  33.972   1.388   7.350
 8118POPC   NC348203  22.925  35.305   5.550
 8118POPC   PO448204  22.984  35.335   5.850
 8118POPC   GL148205  22.970  35.313   6.150
 8118POPC   GL248206  22.888  35.285   6.150
 8118POPC   C1A48207  22.963  35.393   6.450
 8118POPC   D2A48208  22.949  35.356   6.750
 8118POPC   C3A48209  22.895  35.343   7.050
 8118POPC   C4A48210  22.936  35.357   7.350
 8118POPC   C1B48211  22.746  35.127   6.450
 8118POPC   C2B48212  22.763  35.150   6.750
 8118POPC   C3B48213  22.807  35.132   7.050
 8118POPC   C4B48214  22.797  35.159   7.350
 8119POPC   NC348215   0.404  10.501   5.550
 8119POPC   PO448216   0.449  10.515   5.850
 8119POPC   GL148217   0.391  10.549   6.150
 8119POPC   GL248218   0.359  10.405   6.150
 8119POPC   C1A48219   0.391  10.561   6.450
 8119POPC   D2A48220   0.451  10.525   6.750
 8119POPC   C3A48221   0.436  10.563   7.050
 8119POPC   C4A48222   0.418  10.562   7.350
 8119POPC   C1B48223   0.387  10.332   6.450
 8119POPC   C2B48224   0.359  10.297   6.750
 8119POPC   C3B48225   0.339  10.266   7.050
 8119POPC   C4B48226   0.359  10.283   7.350
 8120POPC   NC348227  22.160  41.599   5.550
 8120POPC   PO448228  22.146  41.557   5.850
 8120POPC   GL148229  22.182  41.529   6.150
 8120POPC   GL248230  22.323  41.601   6.150
 8120POPC   C1A48231  22.126  41.554   6.450
 8120POPC   D2A48232  22.131  41.563   6.750
 8120POPC   C3A48233  22.118  41.533   7.050
 8120POPC   C4A48234  22.176  41.558   7.350
 8120POPC   C1B48235  22.406  41.566   6.450
 8120POPC   C2B48236  22.420  41.537   6.750
 8120POPC   C3B48237  22.391  41.579   7.050
 8120POPC   C4B48238  22.433  41.610   7.350
 8121POPC   NC348239  32.291  12.096   5.550
 8121POPC   PO448240  32.272  12.071   5.850
 8121POPC   GL148241  32.240  12.112   6.150
 8121POPC   GL248242  32.168  12.178   6.150
 8121POPC   C1A48243  32.217  12.036   6.450
 8121POPC   D2A48244  32.217  12.125   6.750
 8121POPC   C3A48245  32.206  12.103   7.050
 8121POPC   C4A48246  32.287  12.104   7.350
 8121POPC   C1B48247  32.105  12.306   6.450
 8121POPC   C2B48248  32.172  12.333   6.750
 8121POPC   C3B48249  32.171  12.321   7.050
 8121POPC   C4B48250  32.131  12.290   7.350
 8122POPC   NC348251  25.276  24.455   5.550
 8122POPC   PO448252  25.299  24.441   5.850
 8122POPC   GL148253  25.292  24.492   6.150
 8122POPC   GL248254  25.356  24.603   6.150
 8122POPC   C1A48255  25.225  24.464   6.450
 8122POPC   D2A48256  25.252  24.496   6.750
 8122POPC   C3A48257  25.252  24.532   7.050
 8122POPC   C4A48258  25.221  24.511   7.350
 8122POPC   C1B48259  25.376  24.657   6.450
 8122POPC   C2B48260  25.371  24.692   6.750
 8122POPC   C3B48261  25.373  24.675   7.050
 8122POPC   C4B48262  25.412  24.657   7.350
 8123POPC   NC348263  43.156  26.857   5.550
 8123POPC   PO448264  43.070  26.850   5.850
 8123POPC   GL148265  43.138  26.841   6.150
 8123POPC   GL248266  42.989  26.934   6.150
 8123POPC   C1A48267  43.083  26.793   6.450
 8123POPC   D2A48268  43.073  26.852   6.750
 8123POPC   C3A48269  43.075  26.788   7.050
 8123POPC   C4A48270  43.070  26.769   7.350
 8123POPC   C1B48271  42.980  27.023   6.450
 8123POPC   C2B48272  42.901  27.058   6.750
 8123POPC   C3B48273  42.953  27.007   7.050
 8123POPC   C4B48274  42.914  26.977   7.350
 8124POPC   NC348275  42.348  44.622   5.550
 8124POPC   PO448276  42.371  44.653   5.850
 8124POPC   GL148277  42.330  44.631   6.150
 8124POPC   GL248278  42.319  44.556   6.150
 8124POPC   C1A48279  42.346  44.666   6.450
 8124POPC   D2A48280  42.372  44.668   6.750
 8124POPC   C3A48281  42.363  44.644   7.050
 8124POPC   C4A48282  42.307  44.654   7.350
 8124POPC   C1B48283  42.268  44.455   6.450
 8124POPC   C2B48284  42.231  44.461   6.750
 8124POPC   C3B48285  42.272  44.438   7.050
 8124POPC   C4B48286  42.219  44.469   7.350
 8125POPC   NC348287  37.685  15.225   5.550
 8125POPC   PO448288  37.670  15.167   5.850
 8125POPC   GL148289  37.655  15.145   6.150
 8125POPC   GL248290  37.680  15.275   6.150
 8125POPC   C1A48291  37.676  15.163   6.450
 8125POPC   D2A48292  37.694  15.176   6.750
 8125POPC   C3A48293  37.723  15.136   7.050
 8125POPC   C4A48294  37.632  15.129   7.350
 8125POPC   C1B48295  37.730  15.453   6.450
 8125POPC   C2B48296  37.741  15.417   6.750
 8125POPC   C3B48297  37.760  15.433   7.050
 8125POPC   C4B48298  37.718  15.466   7.350
 8126POPC   NC348299  19.027  21.374   5.550
 8126POPC   PO448300  19.094  21.380   5.850
 8126POPC   GL148301  19.025  21.348   6.150
 8126POPC   GL248302  19.009  21.444   6.150
 8126POPC   C1A48303  19.045  21.362   6.450
 8126POPC   D2A48304  19.087  21.337   6.750
 8126POPC   C3A48305  19.023  21.377   7.050
 8126POPC   C4A48306  19.101  21.358   7.350
 8126POPC   C1B48307  18.956  21.557   6.450
 8126POPC   C2B48308  18.949  21.616   6.750
 8126POPC   C3B48309  18.862  21.580   7.050
 8126POPC   C4B48310  18.917  21.606   7.350
 8127POPC   NC348311  41.529  44.615   5.550
 8127POPC   PO448312  41.563  44.704   5.850
 8127POPC   GL148313  41.520  44.707   6.150
 8127POPC   GL248314  41.435  44.593   6.150
 8127POPC   C1A48315  41.590  44.656   6.450
 8127POPC   D2A48316  41.534  44.677   6.750
 8127POPC   C3A48317  41.554  44.627   7.050
 8127POPC   C4A48318  41.524  44.654   7.350
 8127POPC   C1B48319  41.352  44.525   6.450
 8127POPC   C2B48320  41.387  44.535   6.750
 8127POPC   C3B48321  41.395  44.495   7.050
 8127POPC   C4B48322  41.344  44.534   7.350
 8128POPC   NC348323  26.082  37.681   5.550
 8128POPC   PO448324  26.064  37.673   5.850
 8128POPC   GL148325  26.090  37.657   6.150
 8128POPC   GL248326  25.974  37.774   6.150
 8128POPC   C1A48327  26.016  37.716   6.450
 8128POPC   D2A48328  26.049  37.638   6.750
 8128POPC   C3A48329  26.042  37.633   7.050
 8128POPC   C4A48330  26.051  37.694   7.350
 8128POPC   C1B48331  26.006  37.939   6.450
 8128POPC   C2B48332  25.992  37.963   6.750
 8128POPC   C3B48333  25.969  37.957   7.050
 8128POPC   C4B48334  25.990  37.870   7.350
 8129POPC   NC348335  22.193  34.578   5.550
 8129POPC   PO448336  22.184  34.546   5.850
 8129POPC   GL148337  22.198  34.542   6.150
 8129POPC   GL248338  22.246  34.650   6.150
 8129POPC   C1A48339  22.162  34.593   6.450
 8129POPC   D2A48340  22.200  34.558   6.750
 8129POPC   C3A48341  22.189  34.584   7.050
 8129POPC   C4A48342  22.204  34.606   7.350
 8129POPC   C1B48343  22.409  34.612   6.450
 8129POPC   C2B48344  22.430  34.633   6.750
 8129POPC   C3B48345  22.421  34.678   7.050
 8129POPC   C4B48346  22.404  34.590   7.350
 8130POPC   NC348347  29.934  13.588   5.550
 8130POPC   PO448348  29.963  13.579   5.850
 8130POPC   GL148349  29.890  13.593   6.150
 8130POPC   GL248350  30.009  13.473   6.150
 8130POPC   C1A48351  29.892  13.643   6.450
 8130POPC   D2A48352  29.956  13.655   6.750
 8130POPC   C3A48353  29.913  13.657   7.050
 8130POPC   C4A48354  29.920  13.579   7.350
 8130POPC   C1B48355  29.990  13.363   6.450
 8130POPC   C2B48356  30.021  13.443   6.750
 8130POPC   C3B48357  29.991  13.450   7.050
 8130POPC   C4B48358  30.079  13.449   7.350
 8131POPC   NC348359  19.062  13.664   5.550
 8131POPC   PO448360  19.103  13.643   5.850
 8131POPC   GL148361  19.063  13.594   6.150
 8131POPC   GL248362  18.902  13.684   6.150
 8131POPC   C1A48363  19.049  13.611   6.450
 8131POPC   D2A48364  19.088  13.637   6.750
 8131POPC   C3A48365  19.053  13.673   7.050
 8131POPC   C4A48366  19.028  13.630   7.350
 8131POPC   C1B48367  18.848  13.654   6.450
 8131POPC   C2B48368  18.804  13.687   6.750
 8131POPC   C3B48369  18.845  13.692   7.050
 8131POPC   C4B48370  18.803  13.695   7.350
 8132POPC   NC348371  21.369  15.939   5.550
 8132POPC   PO448372  21.429  15.951   5.850
 8132POPC   GL148373  21.393  15.991   6.150
 8132POPC   GL248374  21.346  15.854   6.150
 8132POPC   C1A48375  21.396  15.998   6.450
 8132POPC   D2A48376  21.367  16.004   6.750
 8132POPC   C3A48377  21.388  15.934   7.050
 8132POPC   C4A48378  21.381  15.916   7.350
 8132POPC   C1B48379  21.191  15.737   6.450
 8132POPC   C2B48380  21.195  15.780   6.750
 8132POPC   C3B48381  21.251  15.758   7.050
 8132POPC   C4B48382  21.256  15.768   7.350
 8133POPC   NC348383   3.495  27.552   5.550
 8133POPC   PO448384   3.525  27.593   5.850
 8133POPC   GL148385   3.537  27.575   6.150
 8133POPC   GL248386   3.626  27.496   6.150
 8133POPC   C1A48387   3.497  27.602   6.450
 8133POPC   D2A48388   3.510  27.600   6.750
 8133POPC   C3A48389   3.543  27.568   7.050
 8133POPC   C4A48390   3.497  27.566   7.350
 8133POPC   C1B48391   3.718  27.429   6.450
 8133POPC   C2B48392   3.714  27.361   6.750
 8133POPC   C3B48393   3.658  27.390   7.050
 8133POPC   C4B48394   3.643  27.342   7.350
 8134POPC   NC348395   7.385  15.201   5.550
 8134POPC   PO448396   7.465  15.169   5.850
 8134POPC   GL148397   7.450  15.185   6.150
 8134POPC   GL248398   7.420  15.300   6.150
 8134POPC   C1A48399   7.406  15.227   6.450
 8134POPC   D2A48400   7.376  15.154   6.750
 8134POPC   C3A48401   7.461  15.140   7.050
 8134POPC   C4A48402   7.400  15.229   7.350
 8134POPC   C1B48403   7.384  15.408   6.450
 8134POPC   C2B48404   7.422  15.409   6.750
 8134POPC   C3B48405   7.397  15.392   7.050
 8134POPC   C4B48406   7.433  15.418   7.350
 8135POPC   NC348407  20.622  14.382   5.550
 8135POPC   PO448408  20.609  14.422   5.850
 8135POPC   GL148409  20.599  14.417   6.150
 8135POPC   GL248410  20.538  14.485   6.150
 8135POPC   C1A48411  20.657  14.448   6.450
 8135POPC   D2A48412  20.623  14.406   6.750
 8135POPC   C3A48413  20.605  14.439   7.050
 8135POPC   C4A48414  20.606  14.420   7.350
 8135POPC   C1B48415  20.358  14.533   6.450
 8135POPC   C2B48416  20.427  14.471   6.750
 8135POPC   C3B48417  20.367  14.504   7.050
 8135POPC   C4B48418  20.355  14.549   7.350
 8136POPC   NC348419   6.679   7.385   5.550
 8136POPC   PO448420   6.694   7.397   5.850
 8136POPC   GL148421   6.605   7.441   6.150
 8136POPC   GL248422   6.654   7.537   6.150
 8136POPC   C1A48423   6.691   7.467   6.450
 8136POPC   D2A48424   6.629   7.419   6.750
 8136POPC   C3A48425   6.658   7.398   7.050
 8136POPC   C4A48426   6.668   7.425   7.350
 8136POPC   C1B48427   6.791   7.675   6.450
 8136POPC   C2B48428   6.778   7.619   6.750
 8136POPC   C3B48429   6.728   7.627   7.050
 8136POPC   C4B48430   6.772   7.680   7.350
 8137POPC   NC348431   5.900  21.388   5.550
 8137POPC   PO448432   5.875  21.372   5.850
 8137POPC   GL148433   5.883  21.391   6.150
 8137POPC   GL248434   5.789  21.523   6.150
 8137POPC   C1A48435   5.823  21.411   6.450
 8137POPC   D2A48436   5.855  21.369   6.750
 8137POPC   C3A48437   5.900  21.375   7.050
 8137POPC   C4A48438   5.865  21.427   7.350
 8137POPC   C1B48439   5.743  21.578   6.450
 8137POPC   C2B48440   5.674  21.606   6.750
 8137POPC   C3B48441   5.744  21.610   7.050
 8137POPC   C4B48442   5.706  21.598   7.350
 8138POPC   NC348443   6.654  10.534   5.550
 8138POPC   PO448444   6.604  10.524   5.850
 8138POPC   GL148445   6.609  10.572   6.150
 8138POPC   GL248446   6.584  10.353   6.150
 8138POPC   C1A48447   6.692  10.482   6.450
 8138POPC   D2A48448   6.679  10.557   6.750
 8138POPC   C3A48449   6.598  10.563   7.050
 8138POPC   C4A48450   6.647  10.523   7.350
 8138POPC   C1B48451   6.610  10.292   6.450
 8138POPC   C2B48452   6.620  10.268   6.750
 8138POPC   C3B48453   6.560  10.241   7.050
 8138POPC   C4B48454   6.586  10.308   7.350
 8139POPC   NC348455  35.307  37.643   5.550
 8139POPC   PO448456  35.334  37.672   5.850
 8139POPC   GL148457  35.365  37.669   6.150
 8139POPC   GL248458  35.216  37.741   6.150
 8139POPC   C1A48459  35.325  37.681   6.450
 8139POPC   D2A48460  35.310  37.643   6.750
 8139POPC   C3A48461  35.311  37.667   7.050
 8139POPC   C4A48462  35.361  37.673   7.350
 8139POPC   C1B48463  35.130  37.840   6.450
 8139POPC   C2B48464  35.162  37.831   6.750
 8139POPC   C3B48465  35.126  37.861   7.050
 8139POPC   C4B48466  35.165  37.838   7.350
 8140POPC   NC348467   1.962  27.548   5.550
 8140POPC   PO448468   1.947  27.546   5.850
 8140POPC   GL148469   2.007  27.573   6.150
 8140POPC   GL248470   1.987  27.668   6.150
 8140POPC   C1A48471   1.970  27.595   6.450
 8140POPC   D2A48472   1.956  27.570   6.750
 8140POPC   C3A48473   1.943  27.560   7.050
 8140POPC   C4A48474   1.966  27.590   7.350
 8140POPC   C1B48475   1.852  27.789   6.450
 8140POPC   C2B48476   1.902  27.861   6.750
 8140POPC   C3B48477   1.933  27.788   7.050
 8140POPC   C4B48478   1.875  27.852   7.350
 8141POPC   NC348479  17.471  14.371   5.550
 8141POPC   PO448480  17.536  14.421   5.850
 8141POPC   GL148481  17.459  14.410   6.150
 8141POPC   GL248482  17.581  14.470   6.150
 8141POPC   C1A48483  17.537  14.369   6.450
 8141POPC   D2A48484  17.458  14.383   6.750
 8141POPC   C3A48485  17.483  14.362   7.050
 8141POPC   C4A48486  17.531  14.444   7.350
 8141POPC   C1B48487  17.774  14.423   6.450
 8141POPC   C2B48488  17.701  14.513   6.750
 8141POPC   C3B48489  17.773  14.493   7.050
 8141POPC   C4B48490  17.726  14.480   7.350
 8142POPC   NC348491  15.134  42.372   5.550
 8142POPC   PO448492  15.144  42.380   5.850
 8142POPC   GL148493  15.193  42.366   6.150
 8142POPC   GL248494  15.308  42.387   6.150
 8142POPC   C1A48495  15.161  42.363   6.450
 8142POPC   D2A48496  15.191  42.367   6.750
 8142POPC   C3A48497  15.196  42.362   7.050
 8142POPC   C4A48498  15.159  42.288   7.350
 8142POPC   C1B48499  15.413  42.465   6.450
 8142POPC   C2B48500  15.385  42.472   6.750
 8142POPC   C3B48501  15.421  42.427   7.050
 8142POPC   C4B48502  15.429  42.488   7.350
 8143POPC   NC348503   4.362  43.907   5.550
 8143POPC   PO448504   4.305  43.917   5.850
 8143POPC   GL148505   4.309  43.860   6.150
 8143POPC   GL248506   4.351  44.024   6.150
 8143POPC   C1A48507   4.267  43.841   6.450
 8143POPC   D2A48508   4.313  43.875   6.750
 8143POPC   C3A48509   4.296  43.909   7.050
 8143POPC   C4A48510   4.354  43.914   7.350
 8143POPC   C1B48511   4.432  44.154   6.450
 8143POPC   C2B48512   4.471  44.138   6.750
 8143POPC   C3B48513   4.413  44.140   7.050
 8143POPC   C4B48514   4.479  44.100   7.350
 8144POPC   NC348515   5.072  40.018   5.550
 8144POPC   PO448516   5.065  40.012   5.850
 8144POPC   GL148517   5.119  39.986   6.150
 8144POPC   GL248518   5.168  39.926   6.150
 8144POPC   C1A48519   5.069  39.973   6.450
 8144POPC   D2A48520   5.090  40.049   6.750
 8144POPC   C3A48521   5.075  39.959   7.050
 8144POPC   C4A48522   5.061  39.982   7.350
 8144POPC   C1B48523   5.134  39.791   6.450
 8144POPC   C2B48524   5.189  39.788   6.750
 8144POPC   C3B48525   5.183  39.811   7.050
 8144POPC   C4B48526   5.160  39.804   7.350
 8145POPC   NC348527   7.422  29.914   5.550
 8145POPC   PO448528   7.461  29.970   5.850
 8145POPC   GL148529   7.439  29.960   6.150
 8145POPC   GL248530   7.498  29.991   6.150
 8145POPC   C1A48531   7.431  29.900   6.450
 8145POPC   D2A48532   7.424  29.893   6.750
 8145POPC   C3A48533   7.428  29.936   7.050
 8145POPC   C4A48534   7.442  29.910   7.350
 8145POPC   C1B48535   7.579  30.176   6.450
 8145POPC   C2B48536   7.516  30.130   6.750
 8145POPC   C3B48537   7.575  30.098   7.050
 8145POPC   C4B48538   7.569  30.101   7.350
 8146POPC   NC348539  36.135  27.558   5.550
 8146POPC   PO448540  36.089  27.552   5.850
 8146POPC   GL148541  36.123  27.545   6.150
 8146POPC   GL248542  36.037  27.592   6.150
 8146POPC   C1A48543  36.112  27.636   6.450
 8146POPC   D2A48544  36.143  27.583   6.750
 8146POPC   C3A48545  36.151  27.599   7.050
 8146POPC   C4A48546  36.164  27.606   7.350
 8146POPC   C1B48547  35.852  27.633   6.450
 8146POPC   C2B48548  35.894  27.667   6.750
 8146POPC   C3B48549  35.885  27.666   7.050
 8146POPC   C4B48550  35.883  27.633   7.350
 8147POPC   NC348551  39.996  26.003   5.550
 8147POPC   PO448552  39.989  26.066   5.850
 8147POPC   GL148553  39.991  26.017   6.150
 8147POPC   GL248554  40.098  26.049   6.150
 8147POPC   C1A48555  40.020  25.993   6.450
 8147POPC   D2A48556  39.979  26.014   6.750
 8147POPC   C3A48557  39.995  26.046   7.050
 8147POPC   C4A48558  39.974  26.080   7.350
 8147POPC   C1B48559  40.276  26.039   6.450
 8147POPC   C2B48560  40.228  26.013   6.750
 8147POPC   C3B48561  40.259  26.036   7.050
 8147POPC   C4B48562  40.253  26.004   7.350
 8148POPC   NC348563  28.383  23.680   5.550
 8148POPC   PO448564  28.381  23.744   5.850
 8148POPC   GL148565  28.342  23.751   6.150
 8148POPC   GL248566  28.488  23.758   6.150
 8148POPC   C1A48567  28.332  23.683   6.450
 8148POPC   D2A48568  28.347  23.736   6.750
 8148POPC   C3A48569  28.330  23.711   7.050
 8148POPC   C4A48570  28.332  23.724   7.350
 8148POPC   C1B48571  28.614  23.818   6.450
 8148POPC   C2B48572  28.577  23.883   6.750
 8148POPC   C3B48573  28.544  23.834   7.050
 8148POPC   C4B48574  28.581  23.912   7.350
 8149POPC   NC348575  13.667  22.955   5.550
 8149POPC   PO448576  13.644  22.914   5.850
 8149POPC   GL148577  13.607  22.904   6.150
 8149POPC   GL248578  13.658  23.046   6.150
 8149POPC   C1A48579  13.610  22.911   6.450
 8149POPC   D2A48580  13.675  22.925   6.750
 8149POPC   C3A48581  13.588  22.948   7.050
 8149POPC   C4A48582  13.658  22.973   7.350
 8149POPC   C1B48583  13.617  23.153   6.450
 8149POPC   C2B48584  13.555  23.156   6.750
 8149POPC   C3B48585  13.630  23.225   7.050
 8149POPC   C4B48586  13.579  23.223   7.350
 8150POPC   NC348587  15.171  36.133   5.550
 8150POPC   PO448588  15.177  36.081   5.850
 8150POPC   GL148589  15.145  36.156   6.150
 8150POPC   GL248590  15.273  36.024   6.150
 8150POPC   C1A48591  15.190  36.123   6.450
 8150POPC   D2A48592  15.191  36.087   6.750
 8150POPC   C3A48593  15.213  36.148   7.050
 8150POPC   C4A48594  15.138  36.146   7.350
 8150POPC   C1B48595  15.421  35.988   6.450
 8150POPC   C2B48596  15.410  35.989   6.750
 8150POPC   C3B48597  15.358  36.021   7.050
 8150POPC   C4B48598  15.383  35.952   7.350
 8151POPC   NC348599  29.963  24.525   5.550
 8151POPC   PO448600  29.934  24.467   5.850
 8151POPC   GL148601  29.964  24.461   6.150
 8151POPC   GL248602  29.910  24.425   6.150
 8151POPC   C1A48603  29.969  24.473   6.450
 8151POPC   D2A48604  29.929  24.470   6.750
 8151POPC   C3A48605  29.918  24.458   7.050
 8151POPC   C4A48606  29.951  24.443   7.350
 8151POPC   C1B48607  29.786  24.221   6.450
 8151POPC   C2B48608  29.837  24.224   6.750
 8151POPC   C3B48609  29.843  24.247   7.050
 8151POPC   C4B48610  29.801  24.267   7.350
 8152POPC   NC348611  15.981  43.082   5.550
 8152POPC   PO448612  15.932  43.113   5.850
 8152POPC   GL148613  15.934  43.066   6.150
 8152POPC   GL248614  16.065  43.088   6.150
 8152POPC   C1A48615  15.981  43.088   6.450
 8152POPC   D2A48616  15.927  43.111   6.750
 8152POPC   C3A48617  15.939  43.119   7.050
 8152POPC   C4A48618  15.991  43.126   7.350
 8152POPC   C1B48619  16.236  43.112   6.450
 8152POPC   C2B48620  16.199  43.033   6.750
 8152POPC   C3B48621  16.188  43.037   7.050
 8152POPC   C4B48622  16.235  43.064   7.350
 8153POPC   NC348623  32.270  19.844   5.550
 8153POPC   PO448624  32.295  19.797   5.850
 8153POPC   GL148625  32.262  19.807   6.150
 8153POPC   GL248626  32.313  19.795   6.150
 8153POPC   C1A48627  32.290  19.786   6.450
 8153POPC   D2A48628  32.290  19.855   6.750
 8153POPC   C3A48629  32.239  19.870   7.050
 8153POPC   C4A48630  32.298  19.793   7.350
 8153POPC   C1B48631  32.514  19.733   6.450
 8153POPC   C2B48632  32.437  19.684   6.750
 8153POPC   C3B48633  32.508  19.754   7.050
 8153POPC   C4B48634  32.425  19.728   7.350
 8154POPC   NC348635   1.195  33.806   5.550
 8154POPC   PO448636   1.184  33.750   5.850
 8154POPC   GL148637   1.232  33.776   6.150
 8154POPC   GL248638   1.090  33.668   6.150
 8154POPC   C1A48639   1.251  33.794   6.450
 8154POPC   D2A48640   1.209  33.809   6.750
 8154POPC   C3A48641   1.192  33.833   7.050
 8154POPC   C4A48642   1.244  33.763   7.350
 8154POPC   C1B48643   1.022  33.631   6.450
 8154POPC   C2B48644   1.058  33.600   6.750
 8154POPC   C3B48645   0.993  33.632   7.050
 8154POPC   C4B48646   1.060  33.612   7.350
 8155POPC   NC348647  22.193  30.707   5.550
 8155POPC   PO448648  22.117  30.681   5.850
 8155POPC   GL148649  22.150  30.698   6.150
 8155POPC   GL248650  22.295  30.681   6.150
 8155POPC   C1A48651  22.139  30.661   6.450
 8155POPC   D2A48652  22.152  30.720   6.750
 8155POPC   C3A48653  22.194  30.733   7.050
 8155POPC   C4A48654  22.126  30.661   7.350
 8155POPC   C1B48655  22.347  30.568   6.450
 8155POPC   C2B48656  22.348  30.598   6.750
 8155POPC   C3B48657  22.395  30.625   7.050
 8155POPC   C4B48658  22.376  30.603   7.350
 8156POPC   NC348659  14.448  17.516   5.550
 8156POPC   PO448660  14.384  17.469   5.850
 8156POPC   GL148661  14.412  17.508   6.150
 8156POPC   GL248662  14.451  17.634   6.150
 8156POPC   C1A48663  14.394  17.525   6.450
 8156POPC   D2A48664  14.403  17.500   6.750
 8156POPC   C3A48665  14.386  17.541   7.050
 8156POPC   C4A48666  14.448  17.461   7.350
 8156POPC   C1B48667  14.572  17.717   6.450
 8156POPC   C2B48668  14.528  17.690   6.750
 8156POPC   C3B48669  14.511  17.719   7.050
 8156POPC   C4B48670  14.514  17.719   7.350
 8157POPC   NC348671  22.957  41.526   5.550
 8157POPC   PO448672  22.889  41.567   5.850
 8157POPC   GL148673  22.905  41.536   6.150
 8157POPC   GL248674  23.021  41.445   6.150
 8157POPC   C1A48675  22.952  41.600   6.450
 8157POPC   D2A48676  22.961  41.542   6.750
 8157POPC   C3A48677  22.973  41.604   7.050
 8157POPC   C4A48678  22.952  41.528   7.350
 8157POPC   C1B48679  23.078  41.358   6.450
 8157POPC   C2B48680  23.033  41.335   6.750
 8157POPC   C3B48681  23.054  41.374   7.050
 8157POPC   C4B48682  23.121  41.313   7.350
 8158POPC   NC348683   9.003  43.846   5.550
 8158POPC   PO448684   8.970  43.928   5.850
 8158POPC   GL148685   8.948  43.917   6.150
 8158POPC   GL248686   8.819  43.886   6.150
 8158POPC   C1A48687   9.013  43.868   6.450
 8158POPC   D2A48688   8.943  43.933   6.750
 8158POPC   C3A48689   8.943  43.914   7.050
 8158POPC   C4A48690   8.984  43.874   7.350
 8158POPC   C1B48691   8.697  43.858   6.450
 8158POPC   C2B48692   8.741  43.868   6.750
 8158POPC   C3B48693   8.683  43.901   7.050
 8158POPC   C4B48694   8.686  43.849   7.350
 8159POPC   NC348695  10.537  24.535   5.550
 8159POPC   PO448696  10.500  24.500   5.850
 8159POPC   GL148697  10.520  24.491   6.150
 8159POPC   GL248698  10.450  24.326   6.150
 8159POPC   C1A48699  10.549  24.455   6.450
 8159POPC   D2A48700  10.559  24.539   6.750
 8159POPC   C3A48701  10.489  24.507   7.050
 8159POPC   C4A48702  10.568  24.463   7.350
 8159POPC   C1B48703  10.455  24.225   6.450
 8159POPC   C2B48704  10.485  24.288   6.750
 8159POPC   C3B48705  10.430  24.224   7.050
 8159POPC   C4B48706  10.447  24.239   7.350
 8160POPC   NC348707  33.841  19.017   5.550
 8160POPC   PO448708  33.802  19.066   5.850
 8160POPC   GL148709  33.767  19.073   6.150
 8160POPC   GL248710  33.872  19.139   6.150
 8160POPC   C1A48711  33.785  19.013   6.450
 8160POPC   D2A48712  33.821  19.063   6.750
 8160POPC   C3A48713  33.838  19.090   7.050
 8160POPC   C4A48714  33.791  19.061   7.350
 8160POPC   C1B48715  34.071  19.131   6.450
 8160POPC   C2B48716  34.039  19.197   6.750
 8160POPC   C3B48717  34.061  19.188   7.050
 8160POPC   C4B48718  34.019  19.144   7.350
 8161POPC   NC348719   5.915  40.751   5.550
 8161POPC   PO448720   5.898  40.767   5.850
 8161POPC   GL148721   5.892  40.814   6.150
 8161POPC   GL248722   5.884  40.939   6.150
 8161POPC   C1A48723   5.872  40.811   6.450
 8161POPC   D2A48724   5.916  40.757   6.750
 8161POPC   C3A48725   5.904  40.756   7.050
 8161POPC   C4A48726   5.820  40.744   7.350
 8161POPC   C1B48727   5.897  41.042   6.450
 8161POPC   C2B48728   5.854  41.020   6.750
 8161POPC   C3B48729   5.895  41.035   7.050
 8161POPC   C4B48730   5.852  41.064   7.350
 8162POPC   NC348731  26.077  23.711   5.550
 8162POPC   PO448732  25.996  23.750   5.850
 8162POPC   GL148733  26.025  23.669   6.150
 8162POPC   GL248734  26.130  23.753   6.150
 8162POPC   C1A48735  26.054  23.701   6.450
 8162POPC   D2A48736  26.061  23.717   6.750
 8162POPC   C3A48737  26.051  23.693   7.050
 8162POPC   C4A48738  26.003  23.746   7.350
 8162POPC   C1B48739  26.247  23.890   6.450
 8162POPC   C2B48740  26.257  23.851   6.750
 8162POPC   C3B48741  26.267  23.836   7.050
 8162POPC   C4B48742  26.269  23.840   7.350
 8163POPC   NC348743  27.626  16.002   5.550
 8163POPC   PO448744  27.587  15.954   5.850
 8163POPC   GL148745  27.632  15.915   6.150
 8163POPC   GL248746  27.556  15.853   6.150
 8163POPC   C1A48747  27.585  15.935   6.450
 8163POPC   D2A48748  27.557  15.921   6.750
 8163POPC   C3A48749  27.582  15.984   7.050
 8163POPC   C4A48750  27.564  15.943   7.350
 8163POPC   C1B48751  27.608  15.701   6.450
 8163POPC   C2B48752  27.549  15.748   6.750
 8163POPC   C3B48753  27.604  15.723   7.050
 8163POPC   C4B48754  27.609  15.721   7.350
 8164POPC   NC348755  24.472  17.460   5.550
 8164POPC   PO448756  24.533  17.498   5.850
 8164POPC   GL148757  24.519  17.472   6.150
 8164POPC   GL248758  24.399  17.599   6.150
 8164POPC   C1A48759  24.539  17.489   6.450
 8164POPC   D2A48760  24.443  17.529   6.750
 8164POPC   C3A48761  24.498  17.537   7.050
 8164POPC   C4A48762  24.516  17.546   7.350
 8164POPC   C1B48763  24.287  17.630   6.450
 8164POPC   C2B48764  24.310  17.622   6.750
 8164POPC   C3B48765  24.321  17.687   7.050
 8164POPC   C4B48766  24.323  17.668   7.350
 8165POPC   NC348767  22.155  35.392   5.550
 8165POPC   PO448768  22.181  35.367   5.850
 8165POPC   GL148769  22.132  35.364   6.150
 8165POPC   GL248770  22.210  35.191   6.150
 8165POPC   C1A48771  22.168  35.348   6.450
 8165POPC   D2A48772  22.181  35.382   6.750
 8165POPC   C3A48773  22.147  35.394   7.050
 8165POPC   C4A48774  22.114  35.302   7.350
 8165POPC   C1B48775  22.240  35.084   6.450
 8165POPC   C2B48776  22.225  35.145   6.750
 8165POPC   C3B48777  22.239  35.159   7.050
 8165POPC   C4B48778  22.285  35.118   7.350
 8166POPC   NC348779  19.813  12.822   5.550
 8166POPC   PO448780  19.795  12.805   5.850
 8166POPC   GL148781  19.881  12.899   6.150
 8166POPC   GL248782  19.987  12.757   6.150
 8166POPC   C1A48783  19.813  12.885   6.450
 8166POPC   D2A48784  19.838  12.808   6.750
 8166POPC   C3A48785  19.811  12.849   7.050
 8166POPC   C4A48786  19.859  12.853   7.350
 8166POPC   C1B48787  20.058  12.737   6.450
 8166POPC   C2B48788  20.021  12.730   6.750
 8166POPC   C3B48789  20.038  12.754   7.050
 8166POPC   C4B48790  20.024  12.715   7.350
 8167POPC   NC348791  24.511  19.882   5.550
 8167POPC   PO448792  24.524  19.812   5.850
 8167POPC   GL148793  24.448  19.804   6.150
 8167POPC   GL248794  24.631  19.807   6.150
 8167POPC   C1A48795  24.525  19.870   6.450
 8167POPC   D2A48796  24.440  19.875   6.750
 8167POPC   C3A48797  24.499  19.795   7.050
 8167POPC   C4A48798  24.515  19.858   7.350
 8167POPC   C1B48799  24.729  19.895   6.450
 8167POPC   C2B48800  24.754  19.844   6.750
 8167POPC   C3B48801  24.720  19.862   7.050
 8167POPC   C4B48802  24.762  19.832   7.350
 8168POPC   NC348803  18.286  33.792   5.550
 8168POPC   PO448804  18.234  33.800   5.850
 8168POPC   GL148805  18.290  33.769   6.150
 8168POPC   GL248806  18.228  33.924   6.150
 8168POPC   C1A48807  18.261  33.812   6.450
 8168POPC   D2A48808  18.242  33.841   6.750
 8168POPC   C3A48809  18.286  33.801   7.050
 8168POPC   C4A48810  18.273  33.766   7.350
 8168POPC   C1B48811  18.175  34.042   6.450
 8168POPC   C2B48812  18.114  33.978   6.750
 8168POPC   C3B48813  18.101  34.019   7.050
 8168POPC   C4B48814  18.105  33.963   7.350
 8169POPC   NC348815   1.951  29.917   5.550
 8169POPC   PO448816   2.026  29.873   5.850
 8169POPC   GL148817   1.974  29.902   6.150
 8169POPC   GL248818   2.051  29.798   6.150
 8169POPC   C1A48819   1.990  29.943   6.450
 8169POPC   D2A48820   1.961  29.964   6.750
 8169POPC   C3A48821   1.979  29.917   7.050
 8169POPC   C4A48822   1.989  29.922   7.350
 8169POPC   C1B48823   2.082  29.729   6.450
 8169POPC   C2B48824   2.084  29.709   6.750
 8169POPC   C3B48825   2.107  29.752   7.050
 8169POPC   C4B48826   2.158  29.655   7.350
 8170POPC   NC348827  12.841  11.318   5.550
 8170POPC   PO448828  12.806  11.263   5.850
 8170POPC   GL148829  12.838  11.281   6.150
 8170POPC   GL248830  12.960  11.240   6.150
 8170POPC   C1A48831  12.853  11.346   6.450
 8170POPC   D2A48832  12.830  11.347   6.750
 8170POPC   C3A48833  12.874  11.266   7.050
 8170POPC   C4A48834  12.859  11.347   7.350
 8170POPC   C1B48835  13.124  11.280   6.450
 8170POPC   C2B48836  13.089  11.291   6.750
 8170POPC   C3B48837  13.133  11.320   7.050
 8170POPC   C4B48838  13.086  11.255   7.350
 8171POPC   NC348839  19.845   1.983   5.550
 8171POPC   PO448840  19.837   1.985   5.850
 8171POPC   GL148841  19.855   1.968   6.150
 8171POPC   GL248842  19.721   1.969   6.150
 8171POPC   C1A48843  19.874   1.976   6.450
 8171POPC   D2A48844  19.818   1.985   6.750
 8171POPC   C3A48845  19.834   1.994   7.050
 8171POPC   C4A48846  19.839   2.023   7.350
 8171POPC   C1B48847  19.630   1.819   6.450
 8171POPC   C2B48848  19.591   1.821   6.750
 8171POPC   C3B48849  19.602   1.827   7.050
 8171POPC   C4B48850  19.664   1.837   7.350
 8172POPC   NC348851  24.484   7.373   5.550
 8172POPC   PO448852  24.502   7.392   5.850
 8172POPC   GL148853  24.513   7.448   6.150
 8172POPC   GL248854  24.502   7.590   6.150
 8172POPC   C1A48855  24.514   7.438   6.450
 8172POPC   D2A48856  24.482   7.456   6.750
 8172POPC   C3A48857  24.457   7.395   7.050
 8172POPC   C4A48858  24.536   7.406   7.350
 8172POPC   C1B48859  24.447   7.642   6.450
 8172POPC   C2B48860  24.472   7.622   6.750
 8172POPC   C3B48861  24.458   7.714   7.050
 8172POPC   C4B48862  24.447   7.707   7.350
 8173POPC   NC348863  36.144  12.054   5.550
 8173POPC   PO448864  36.086  12.112   5.850
 8173POPC   GL148865  36.080  12.120   6.150
 8173POPC   GL248866  36.245  12.019   6.150
 8173POPC   C1A48867  36.137  12.070   6.450
 8173POPC   D2A48868  36.175  12.097   6.750
 8173POPC   C3A48869  36.172  12.037   7.050
 8173POPC   C4A48870  36.156  12.093   7.350
 8173POPC   C1B48871  36.293  11.945   6.450
 8173POPC   C2B48872  36.357  11.900   6.750
 8173POPC   C3B48873  36.325  11.915   7.050
 8173POPC   C4B48874  36.265  11.896   7.350
 8174POPC   NC348875  42.291   9.779   5.550
 8174POPC   PO448876  42.327   9.768   5.850
 8174POPC   GL148877  42.302   9.700   6.150
 8174POPC   GL248878  42.309   9.610   6.150
 8174POPC   C1A48879  42.357   9.737   6.450
 8174POPC   D2A48880  42.290   9.728   6.750
 8174POPC   C3A48881  42.360   9.740   7.050
 8174POPC   C4A48882  42.344   9.705   7.350
 8174POPC   C1B48883  42.214   9.571   6.450
 8174POPC   C2B48884  42.137   9.527   6.750
 8174POPC   C3B48885  42.180   9.560   7.050
 8174POPC   C4B48886  42.230   9.572   7.350
 8175POPC   NC348887   9.725   8.166   5.550
 8175POPC   PO448888   9.708   8.177   5.850
 8175POPC   GL148889   9.792   8.245   6.150
 8175POPC   GL248890   9.699   8.311   6.150
 8175POPC   C1A48891   9.791   8.193   6.450
 8175POPC   D2A48892   9.724   8.164   6.750
 8175POPC   C3A48893   9.708   8.168   7.050
 8175POPC   C4A48894   9.764   8.175   7.350
 8175POPC   C1B48895   9.777   8.421   6.450
 8175POPC   C2B48896   9.733   8.414   6.750
 8175POPC   C3B48897   9.686   8.483   7.050
 8175POPC   C4B48898   9.687   8.445   7.350
 8176POPC   NC348899  37.722   9.002   5.550
 8176POPC   PO448900  37.709   8.953   5.850
 8176POPC   GL148901  37.656   8.998   6.150
 8176POPC   GL248902  37.547   8.947   6.150
 8176POPC   C1A48903  37.642   8.980   6.450
 8176POPC   D2A48904  37.728   8.926   6.750
 8176POPC   C3A48905  37.720   9.008   7.050
 8176POPC   C4A48906  37.662   8.964   7.350
 8176POPC   C1B48907  37.431   8.987   6.450
 8176POPC   C2B48908  37.407   8.944   6.750
 8176POPC   C3B48909  37.383   9.026   7.050
 8176POPC   C4B48910  37.451   8.977   7.350
 8177POPC   NC348911  31.436   3.567   5.550
 8177POPC   PO448912  31.477   3.589   5.850
 8177POPC   GL148913  31.437   3.497   6.150
 8177POPC   GL248914  31.590   3.518   6.150
 8177POPC   C1A48915  31.446   3.553   6.450
 8177POPC   D2A48916  31.494   3.548   6.750
 8177POPC   C3A48917  31.490   3.537   7.050
 8177POPC   C4A48918  31.477   3.573   7.350
 8177POPC   C1B48919  31.743   3.581   6.450
 8177POPC   C2B48920  31.709   3.578   6.750
 8177POPC   C3B48921  31.754   3.513   7.050
 8177POPC   C4B48922  31.708   3.586   7.350
 8178POPC   NC348923  13.590  12.121   5.550
 8178POPC   PO448924  13.643  12.059   5.850
 8178POPC   GL148925  13.638  12.051   6.150
 8178POPC   GL248926  13.743  12.127   6.150
 8178POPC   C1A48927  13.608  12.040   6.450
 8178POPC   D2A48928  13.637  12.107   6.750
 8178POPC   C3A48929  13.668  12.044   7.050
 8178POPC   C4A48930  13.640  12.120   7.350
 8178POPC   C1B48931  13.901  12.094   6.450
 8178POPC   C2B48932  13.827  12.119   6.750
 8178POPC   C3B48933  13.842  12.097   7.050
 8178POPC   C4B48934  13.849  12.080   7.350
 8179POPC   NC348935  34.607  12.105   5.550
 8179POPC   PO448936  34.556  12.086   5.850
 8179POPC   GL148937  34.568  12.044   6.150
 8179POPC   GL248938  34.585  11.998   6.150
 8179POPC   C1A48939  34.604  12.071   6.450
 8179POPC   D2A48940  34.591  12.093   6.750
 8179POPC   C3A48941  34.614  12.048   7.050
 8179POPC   C4A48942  34.610  12.075   7.350
 8179POPC   C1B48943  34.517  11.836   6.450
 8179POPC   C2B48944  34.525  11.795   6.750
 8179POPC   C3B48945  34.476  11.789   7.050
 8179POPC   C4B48946  34.545  11.785   7.350
 8180POPC   NC348947  40.784   8.935   5.550
 8180POPC   PO448948  40.786   8.978   5.850
 8180POPC   GL148949  40.749   8.938   6.150
 8180POPC   GL248950  40.746   8.830   6.150
 8180POPC   C1A48951  40.819   8.928   6.450
 8180POPC   D2A48952  40.828   8.974   6.750
 8180POPC   C3A48953  40.752   8.959   7.050
 8180POPC   C4A48954  40.769   8.937   7.350
 8180POPC   C1B48955  40.715   8.751   6.450
 8180POPC   C2B48956  40.798   8.704   6.750
 8180POPC   C3B48957  40.748   8.681   7.050
 8180POPC   C4B48958  40.760   8.691   7.350
 8181POPC   NC348959  19.845   6.652   5.550
 8181POPC   PO448960  19.825   6.655   5.850
 8181POPC   GL148961  19.881   6.612   6.150
 8181POPC   GL248962  19.930   6.762   6.150
 8181POPC   C1A48963  19.817   6.671   6.450
 8181POPC   D2A48964  19.833   6.653   6.750
 8181POPC   C3A48965  19.866   6.668   7.050
 8181POPC   C4A48966  19.786   6.649   7.350
 8181POPC   C1B48967  19.967   6.796   6.450
 8181POPC   C2B48968  19.982   6.802   6.750
 8181POPC   C3B48969  20.055   6.776   7.050
 8181POPC   C4B48970  20.028   6.779   7.350
 8182POPC   NC348971  16.701  12.856   5.550
 8182POPC   PO448972  16.696  12.885   5.850
 8182POPC   GL148973  16.745  12.834   6.150
 8182POPC   GL248974  16.826  12.834   6.150
 8182POPC   C1A48975  16.696  12.836   6.450
 8182POPC   D2A48976  16.766  12.858   6.750
 8182POPC   C3A48977  16.688  12.807   7.050
 8182POPC   C4A48978  16.691  12.811   7.350
 8182POPC   C1B48979  16.959  12.890   6.450
 8182POPC   C2B48980  17.015  12.871   6.750
 8182POPC   C3B48981  17.026  12.811   7.050
 8182POPC   C4B48982  16.971  12.829   7.350
 8183POPC   NC348983   5.880  42.315   5.550
 8183POPC   PO448984   5.896  42.366   5.850
 8183POPC   GL148985   5.891  42.382   6.150
 8183POPC   GL248986   5.903  42.243   6.150
 8183POPC   C1A48987   5.911  42.316   6.450
 8183POPC   D2A48988   5.861  42.285   6.750
 8183POPC   C3A48989   5.844  42.384   7.050
 8183POPC   C4A48990   5.829  42.378   7.350
 8183POPC   C1B48991   5.972  42.115   6.450
 8183POPC   C2B48992   5.990  42.101   6.750
 8183POPC   C3B48993   5.932  42.131   7.050
 8183POPC   C4B48994   5.973  42.050   7.350
 8184POPC   NC348995  22.166  33.054   5.550
 8184POPC   PO448996  22.203  33.035   5.850
 8184POPC   GL148997  22.172  33.035   6.150
 8184POPC   GL248998  22.269  32.984   6.150
 8184POPC   C1A48999  22.152  32.987   6.450
 8184POPC   D2A49000  22.176  32.981   6.750
 8184POPC   C3A49001  22.134  33.038   7.050
 8184POPC   C4A49002  22.116  32.995   7.350
 8184POPC   C1B49003  22.377  32.954   6.450
 8184POPC   C2B49004  22.407  32.868   6.750
 8184POPC   C3B49005  22.345  32.962   7.050
 8184POPC   C4B49006  22.386  32.880   7.350
 8185POPC   NC349007  36.099  23.704   5.550
 8185POPC   PO449008  36.164  23.685   5.850
 8185POPC   GL149009  36.085  23.695   6.150
 8185POPC   GL249010  36.009  23.723   6.150
 8185POPC   C1A49011  36.157  23.698   6.450
 8185POPC   D2A49012  36.157  23.731   6.750
 8185POPC   C3A49013  36.107  23.709   7.050
 8185POPC   C4A49014  36.168  23.748   7.350
 8185POPC   C1B49015  35.893  23.799   6.450
 8185POPC   C2B49016  35.895  23.866   6.750
 8185POPC   C3B49017  35.889  23.796   7.050
 8185POPC   C4B49018  35.853  23.868   7.350
 8186POPC   NC349019  15.210  22.890   5.550
 8186POPC   PO449020  15.199  22.924   5.850
 8186POPC   GL149021  15.195  22.970   6.150
 8186POPC   GL249022  15.078  22.854   6.150
 8186POPC   C1A49023  15.154  22.985   6.450
 8186POPC   D2A49024  15.211  22.928   6.750
 8186POPC   C3A49025  15.176  22.921   7.050
 8186POPC   C4A49026  15.193  22.926   7.350
 8186POPC   C1B49027  15.102  22.742   6.450
 8186POPC   C2B49028  15.063  22.735   6.750
 8186POPC   C3B49029  15.076  22.696   7.050
 8186POPC   C4B49030  15.074  22.699   7.350
 8187POPC   NC349031  38.421  36.938   5.550
 8187POPC   PO449032  38.429  36.927   5.850
 8187POPC   GL149033  38.482  36.924   6.150
 8187POPC   GL249034  38.537  37.017   6.150
 8187POPC   C1A49035  38.465  36.880   6.450
 8187POPC   D2A49036  38.467  36.878   6.750
 8187POPC   C3A49037  38.406  36.903   7.050
 8187POPC   C4A49038  38.489  36.869   7.350
 8187POPC   C1B49039  38.561  37.096   6.450
 8187POPC   C2B49040  38.504  37.118   6.750
 8187POPC   C3B49041  38.487  37.125   7.050
 8187POPC   C4B49042  38.557  37.125   7.350
 8188POPC   NC349043  44.661   9.785   5.550
 8188POPC   PO449044  44.655   9.745   5.850
 8188POPC   GL149045  44.686   9.735   6.150
 8188POPC   GL249046  44.647   9.609   6.150
 8188POPC   C1A49047  44.626   9.763   6.450
 8188POPC   D2A49048  44.634   9.766   6.750
 8188POPC   C3A49049  44.690   9.720   7.050
 8188POPC   C4A49050  44.661   9.710   7.350
 8188POPC   C1B49051  44.589   9.529   6.450
 8188POPC   C2B49052  44.605   9.536   6.750
 8188POPC   C3B49053  44.580   9.536   7.050
 8188POPC   C4B49054  44.614   9.529   7.350
 8189POPC   NC349055  27.586  30.722   5.550
 8189POPC   PO449056  27.613  30.738   5.850
 8189POPC   GL149057  27.642  30.658   6.150
 8189POPC   GL249058  27.670  30.795   6.150
 8189POPC   C1A49059  27.604  30.659   6.450
 8189POPC   D2A49060  27.605  30.654   6.750
 8189POPC   C3A49061  27.622  30.736   7.050
 8189POPC   C4A49062  27.636  30.738   7.350
 8189POPC   C1B49063  27.785  30.855   6.450
 8189POPC   C2B49064  27.708  30.938   6.750
 8189POPC   C3B49065  27.750  30.927   7.050
 8189POPC   C4B49066  27.692  30.851   7.350
 8190POPC   NC349067  23.673  39.261   5.550
 8190POPC   PO449068  23.715  39.192   5.850
 8190POPC   GL149069  23.681  39.259   6.150
 8190POPC   GL249070  23.576  39.221   6.150
 8190POPC   C1A49071  23.763  39.278   6.450
 8190POPC   D2A49072  23.705  39.260   6.750
 8190POPC   C3A49073  23.725  39.278   7.050
 8190POPC   C4A49074  23.694  39.185   7.350
 8190POPC   C1B49075  23.424  39.247   6.450
 8190POPC   C2B49076  23.479  39.251   6.750
 8190POPC   C3B49077  23.492  39.211   7.050
 8190POPC   C4B49078  23.497  39.192   7.350
 8191POPC   NC349079  36.087  20.618   5.550
 8191POPC   PO449080  36.131  20.630   5.850
 8191POPC   GL149081  36.144  20.590   6.150
 8191POPC   GL249082  36.167  20.750   6.150
 8191POPC   C1A49083  36.151  20.638   6.450
 8191POPC   D2A49084  36.144  20.573   6.750
 8191POPC   C3A49085  36.149  20.645   7.050
 8191POPC   C4A49086  36.130  20.645   7.350
 8191POPC   C1B49087  36.305  20.752   6.450
 8191POPC   C2B49088  36.327  20.816   6.750
 8191POPC   C3B49089  36.265  20.843   7.050
 8191POPC   C4B49090  36.273  20.744   7.350
 8192POPC   NC349091  26.834  18.243   5.550
 8192POPC   PO449092  26.810  18.284   5.850
 8192POPC   GL149093  26.780  18.252   6.150
 8192POPC   GL249094  26.690  18.334   6.150
 8192POPC   C1A49095  26.827  18.253   6.450
 8192POPC   D2A49096  26.795  18.274   6.750
 8192POPC   C3A49097  26.800  18.254   7.050
 8192POPC   C4A49098  26.802  18.248   7.350
 8192POPC   C1B49099  26.579  18.465   6.450
 8192POPC   C2B49100  26.675  18.396   6.750
 8192POPC   C3B49101  26.607  18.469   7.050
 8192POPC   C4B49102  26.628  18.472   7.350
 8193POPC   NC349103  33.849  34.583   5.550
 8193POPC   PO449104  33.808  34.582   5.850
 8193POPC   GL149105  33.846  34.547   6.150
 8193POPC   GL249106  33.724  34.661   6.150
 8193POPC   C1A49107  33.775  34.575   6.450
 8193POPC   D2A49108  33.838  34.573   6.750
 8193POPC   C3A49109  33.803  34.546   7.050
 8193POPC   C4A49110  33.815  34.567   7.350
 8193POPC   C1B49111  33.536  34.655   6.450
 8193POPC   C2B49112  33.608  34.719   6.750
 8193POPC   C3B49113  33.583  34.652   7.050
 8193POPC   C4B49114  33.542  34.622   7.350
 8194POPC   NC349115  40.795  15.204   5.550
 8194POPC   PO449116  40.810  15.158   5.850
 8194POPC   GL149117  40.809  15.187   6.150
 8194POPC   GL249118  40.650  15.199   6.150
 8194POPC   C1A49119  40.753  15.133   6.450
 8194POPC   D2A49120  40.800  15.169   6.750
 8194POPC   C3A49121  40.749  15.219   7.050
 8194POPC   C4A49122  40.818  15.148   7.350
 8194POPC   C1B49123  40.538  15.209   6.450
 8194POPC   C2B49124  40.538  15.183   6.750
 8194POPC   C3B49125  40.534  15.172   7.050
 8194POPC   C4B49126  40.554  15.159   7.350
 8195POPC   NC349127  28.374  40.773   5.550
 8195POPC   PO449128  28.343  40.829   5.850
 8195POPC   GL149129  28.398  40.779   6.150
 8195POPC   GL249130  28.195  40.825   6.150
 8195POPC   C1A49131  28.323  40.792   6.450
 8195POPC   D2A49132  28.392  40.786   6.750
 8195POPC   C3A49133  28.384  40.752   7.050
 8195POPC   C4A49134  28.416  40.815   7.350
 8195POPC   C1B49135  28.121  40.762   6.450
 8195POPC   C2B49136  28.113  40.808   6.750
 8195POPC   C3B49137  28.145  40.801   7.050
 8195POPC   C4B49138  28.134  40.785   7.350
 8196POPC   NC349139  32.997   0.471   5.550
 8196POPC   PO449140  33.060   0.483   5.850
 8196POPC   GL149141  33.021   0.412   6.150
 8196POPC   GL249142  33.109   0.501   6.150
 8196POPC   C1A49143  33.027   0.432   6.450
 8196POPC   D2A49144  33.061   0.396   6.750
 8196POPC   C3A49145  33.001   0.421   7.050
 8196POPC   C4A49146  33.059   0.483   7.350
 8196POPC   C1B49147  33.090   0.643   6.450
 8196POPC   C2B49148  33.090   0.649   6.750
 8196POPC   C3B49149  33.167   0.689   7.050
 8196POPC   C4B49150  33.097   0.685   7.350
 8197POPC   NC349151  40.822  12.037   5.550
 8197POPC   PO449152  40.756  12.082   5.850
 8197POPC   GL149153  40.758  12.083   6.150
 8197POPC   GL249154  40.749  12.154   6.150
 8197POPC   C1A49155  40.779  12.075   6.450
 8197POPC   D2A49156  40.819  12.124   6.750
 8197POPC   C3A49157  40.824  12.060   7.050
 8197POPC   C4A49158  40.733  12.057   7.350
 8197POPC   C1B49159  40.689  12.265   6.450
 8197POPC   C2B49160  40.677  12.350   6.750
 8197POPC   C3B49161  40.701  12.317   7.050
 8197POPC   C4B49162  40.728  12.274   7.350
 8198POPC   NC349163  44.693  26.030   5.550
 8198POPC   PO449164  44.662  26.067   5.850
 8198POPC   GL149165  44.700  26.014   6.150
 8198POPC   GL249166  44.694  25.919   6.150
 8198POPC   C1A49167  44.664  26.043   6.450
 8198POPC   D2A49168  44.617  26.083   6.750
 8198POPC   C3A49169  44.623  26.075   7.050
 8198POPC   C4A49170  44.669  26.025   7.350
 8198POPC   C1B49171  44.759  25.786   6.450
 8198POPC   C2B49172  44.733  25.797   6.750
 8198POPC   C3B49173  44.724  25.778   7.050
 8198POPC   C4B49174  44.761  25.802   7.350
 8199POPC   NC349175  27.554   9.795   5.550
 8199POPC   PO449176  27.626   9.751   5.850
 8199POPC   GL149177  27.563   9.789   6.150
 8199POPC   GL249178  27.471   9.778   6.150
 8199POPC   C1A49179  27.564   9.757   6.450
 8199POPC   D2A49180  27.604   9.711   6.750
 8199POPC   C3A49181  27.633   9.755   7.050
 8199POPC   C4A49182  27.570   9.767   7.350
 8199POPC   C1B49183  27.332   9.733   6.450
 8199POPC   C2B49184  27.329   9.720   6.750
 8199POPC   C3B49185  27.334   9.765   7.050
 8199POPC   C4B49186  27.331   9.733   7.350
 8200POPC   NC349187  14.437  11.252   5.550
 8200POPC   PO449188  14.380  11.274   5.850
 8200POPC   GL149189  14.385  11.277   6.150
 8200POPC   GL249190  14.367  11.165   6.150
 8200POPC   C1A49191  14.427  11.305   6.450
 8200POPC   D2A49192  14.452  11.272   6.750
 8200POPC   C3A49193  14.358  11.342   7.050
 8200POPC   C4A49194  14.450  11.327   7.350
 8200POPC   C1B49195  14.238  11.141   6.450
 8200POPC   C2B49196  14.225  11.082   6.750
 8200POPC   C3B49197  14.248  11.055   7.050
 8200POPC   C4B49198  14.265  11.150   7.350
 8201POPC   NC349199  37.666  12.901   5.550
 8201POPC   PO449200  37.647  12.867   5.850
 8201POPC   GL149201  37.686  12.804   6.150
 8201POPC   GL249202  37.728  13.007   6.150
 8201POPC   C1A49203  37.640  12.846   6.450
 8201POPC   D2A49204  37.707  12.865   6.750
 8201POPC   C3A49205  37.640  12.812   7.050
 8201POPC   C4A49206  37.661  12.838   7.350
 8201POPC   C1B49207  37.779  13.133   6.450
 8201POPC   C2B49208  37.701  13.132   6.750
 8201POPC   C3B49209  37.700  13.097   7.050
 8201POPC   C4B49210  37.787  13.094   7.350
 8202POPC   NC349211  38.489  21.404   5.550
 8202POPC   PO449212  38.502  21.417   5.850
 8202POPC   GL149213  38.469  21.377   6.150
 8202POPC   GL249214  38.525  21.245   6.150
 8202POPC   C1A49215  38.410  21.397   6.450
 8202POPC   D2A49216  38.445  21.343   6.750
 8202POPC   C3A49217  38.502  21.416   7.050
 8202POPC   C4A49218  38.472  21.374   7.350
 8202POPC   C1B49219  38.460  21.158   6.450
 8202POPC   C2B49220  38.483  21.186   6.750
 8202POPC   C3B49221  38.548  21.140   7.050
 8202POPC   C4B49222  38.530  21.121   7.350
 8203POPC   NC349223  39.220  36.123   5.550
 8203POPC   PO449224  39.195  36.106   5.850
 8203POPC   GL149225  39.193  36.116   6.150
 8203POPC   GL249226  39.368  36.158   6.150
 8203POPC   C1A49227  39.261  36.146   6.450
 8203POPC   D2A49228  39.197  36.114   6.750
 8203POPC   C3A49229  39.271  36.087   7.050
 8203POPC   C4A49230  39.189  36.096   7.350
 8203POPC   C1B49231  39.484  36.271   6.450
 8203POPC   C2B49232  39.448  36.226   6.750
 8203POPC   C3B49233  39.446  36.294   7.050
 8203POPC   C4B49234  39.435  36.234   7.350
 8204POPC   NC349235  43.919  34.536   5.550
 8204POPC   PO449236  43.921  34.534   5.850
 8204POPC   GL149237  43.904  34.543   6.150
 8204POPC   GL249238  43.996  34.649   6.150
 8204POPC   C1A49239  43.876  34.550   6.450
 8204POPC   D2A49240  43.872  34.550   6.750
 8204POPC   C3A49241  43.901  34.607   7.050
 8204POPC   C4A49242  43.925  34.569   7.350
 8204POPC   C1B49243  44.113  34.697   6.450
 8204POPC   C2B49244  44.142  34.680   6.750
 8204POPC   C3B49245  44.077  34.642   7.050
 8204POPC   C4B49246  44.137  34.678   7.350
 8205POPC   NC349247  44.658   5.877   5.550
 8205POPC   PO449248  44.686   5.860   5.850
 8205POPC   GL149249  44.704   5.901   6.150
 8205POPC   GL249250  44.717   6.004   6.150
 8205POPC   C1A49251  44.645   5.910   6.450
 8205POPC   D2A49252  44.659   5.917   6.750
 8205POPC   C3A49253  44.651   5.827   7.050
 8205POPC   C4A49254  44.655   5.891   7.350
 8205POPC   C1B49255  44.833   6.101   6.450
 8205POPC   C2B49256  44.786   6.110   6.750
 8205POPC   C3B49257  44.857   6.104   7.050
 8205POPC   C4B49258  44.816   6.020   7.350
 8206POPC   NC349259   8.965   9.744   5.550
 8206POPC   PO449260   8.979   9.746   5.850
 8206POPC   GL149261   8.967   9.736   6.150
 8206POPC   GL249262   8.892   9.660   6.150
 8206POPC   C1A49263   9.009   9.744   6.450
 8206POPC   D2A49264   8.933   9.726   6.750
 8206POPC   C3A49265   8.932   9.730   7.050
 8206POPC   C4A49266   8.930   9.772   7.350
 8206POPC   C1B49267   8.770   9.597   6.450
 8206POPC   C2B49268   8.807   9.610   6.750
 8206POPC   C3B49269   8.811   9.616   7.050
 8206POPC   C4B49270   8.798   9.569   7.350
 8207POPC   NC349271   3.517   6.692   5.550
 8207POPC   PO449272   3.531   6.667   5.850
 8207POPC   GL149273   3.544   6.598   6.150
 8207POPC   GL249274   3.687   6.674   6.150
 8207POPC   C1A49275   3.577   6.678   6.450
 8207POPC   D2A49276   3.536   6.633   6.750
 8207POPC   C3A49277   3.572   6.667   7.050
 8207POPC   C4A49278   3.558   6.645   7.350
 8207POPC   C1B49279   3.687   6.753   6.450
 8207POPC   C2B49280   3.697   6.755   6.750
 8207POPC   C3B49281   3.780   6.817   7.050
 8207POPC   C4B49282   3.747   6.799   7.350
 8208POPC   NC349283  43.928  44.641   5.550
 8208POPC   PO449284  43.868  44.649   5.850
 8208POPC   GL149285  43.922  44.699   6.150
 8208POPC   GL249286  43.849  44.534   6.150
 8208POPC   C1A49287  43.876  44.712   6.450
 8208POPC   D2A49288  43.886  44.635   6.750
 8208POPC   C3A49289  43.901  44.683   7.050
 8208POPC   C4A49290  43.875  44.629   7.350
 8208POPC   C1B49291  43.770  44.466   6.450
 8208POPC   C2B49292  43.765  44.456   6.750
 8208POPC   C3B49293  43.785  44.433   7.050
 8208POPC   C4B49294  43.707  44.476   7.350
 8209POPC   NC349295  17.533  29.955   5.550
 8209POPC   PO449296  17.539  29.884   5.850
 8209POPC   GL149297  17.458  29.968   6.150
 8209POPC   GL249298  17.588  29.964   6.150
 8209POPC   C1A49299  17.550  29.874   6.450
 8209POPC   D2A49300  17.527  29.932   6.750
 8209POPC   C3A49301  17.498  29.933   7.050
 8209POPC   C4A49302  17.531  29.917   7.350
 8209POPC   C1B49303  17.706  30.007   6.450
 8209POPC   C2B49304  17.743  29.971   6.750
 8209POPC   C3B49305  17.697  29.951   7.050
 8209POPC   C4B49306  17.751  30.039   7.350
 8210POPC   NC349307  37.719   3.499   5.550
 8210POPC   PO449308  37.689   3.568   5.850
 8210POPC   GL149309  37.639   3.492   6.150
 8210POPC   GL249310  37.604   3.511   6.150
 8210POPC   C1A49311  37.659   3.529   6.450
 8210POPC   D2A49312  37.669   3.585   6.750
 8210POPC   C3A49313  37.662   3.591   7.050
 8210POPC   C4A49314  37.672   3.550   7.350
 8210POPC   C1B49315  37.448   3.471   6.450
 8210POPC   C2B49316  37.478   3.527   6.750
 8210POPC   C3B49317  37.452   3.549   7.050
 8210POPC   C4B49318  37.422   3.472   7.350
 8211POPC   NC349319   0.475  13.610   5.550
 8211POPC   PO449320   0.468  13.584   5.850
 8211POPC   GL149321   0.398  13.623   6.150
 8211POPC   GL249322   0.586  13.702   6.150
 8211POPC   C1A49323   0.434  13.613   6.450
 8211POPC   D2A49324   0.401  13.595   6.750
 8211POPC   C3A49325   0.438  13.582   7.050
 8211POPC   C4A49326   0.394  13.672   7.350
 8211POPC   C1B49327   0.726  13.664   6.450
 8211POPC   C2B49328   0.631  13.688   6.750
 8211POPC   C3B49329   0.695  13.707   7.050
 8211POPC   C4B49330   0.679  13.663   7.350
 8212POPC   NC349331   0.411  22.131   5.550
 8212POPC   PO449332   0.399  22.159   5.850
 8212POPC   GL149333   0.467  22.191   6.150
 8212POPC   GL249334   0.422  22.055   6.150
 8212POPC   C1A49335   0.485  22.145   6.450
 8212POPC   D2A49336   0.475  22.196   6.750
 8212POPC   C3A49337   0.401  22.113   7.050
 8212POPC   C4A49338   0.487  22.186   7.350
 8212POPC   C1B49339   0.380  21.958   6.450
 8212POPC   C2B49340   0.326  21.909   6.750
 8212POPC   C3B49341   0.350  21.966   7.050
 8212POPC   C4B49342   0.335  21.945   7.350
 8213POPC   NC349343  26.774  22.141   5.550
 8213POPC   PO449344  26.790  22.149   5.850
 8213POPC   GL149345  26.837  22.152   6.150
 8213POPC   GL249346  26.907  22.086   6.150
 8213POPC   C1A49347  26.838  22.149   6.450
 8213POPC   D2A49348  26.794  22.170   6.750
 8213POPC   C3A49349  26.809  22.192   7.050
 8213POPC   C4A49350  26.818  22.175   7.350
 8213POPC   C1B49351  27.035  21.971   6.450
 8213POPC   C2B49352  27.009  22.007   6.750
 8213POPC   C3B49353  27.003  22.061   7.050
 8213POPC   C4B49354  26.991  22.022   7.350
 8214POPC   NC349355  34.569   5.100   5.550
 8214POPC   PO449356  34.545   5.059   5.850
 8214POPC   GL149357  34.527   5.060   6.150
 8214POPC   GL249358  34.657   5.047   6.150
 8214POPC   C1A49359  34.568   5.091   6.450
 8214POPC   D2A49360  34.586   5.078   6.750
 8214POPC   C3A49361  34.530   5.096   7.050
 8214POPC   C4A49362  34.590   5.071   7.350
 8214POPC   C1B49363  34.790   4.876   6.450
 8214POPC   C2B49364  34.764   4.935   6.750
 8214POPC   C3B49365  34.788   4.907   7.050
 8214POPC   C4B49366  34.791   4.971   7.350
 8215POPC   NC349367  39.190   8.933   5.550
 8215POPC   PO449368  39.182   9.001   5.850
 8215POPC   GL149369  39.237   9.004   6.150
 8215POPC   GL249370  39.130   8.937   6.150
 8215POPC   C1A49371  39.201   8.941   6.450
 8215POPC   D2A49372  39.236   8.938   6.750
 8215POPC   C3A49373  39.218   8.949   7.050
 8215POPC   C4A49374  39.206   8.933   7.350
 8215POPC   C1B49375  38.982   8.968   6.450
 8215POPC   C2B49376  39.021   8.986   6.750
 8215POPC   C3B49377  39.013   9.020   7.050
 8215POPC   C4B49378  38.967   8.989   7.350
 8216POPC   NC349379  41.587  43.131   5.550
 8216POPC   PO449380  41.548  43.104   5.850
 8216POPC   GL149381  41.597  43.123   6.150
 8216POPC   GL249382  41.501  43.045   6.150
 8216POPC   C1A49383  41.514  43.078   6.450
 8216POPC   D2A49384  41.541  43.130   6.750
 8216POPC   C3A49385  41.576  43.107   7.050
 8216POPC   C4A49386  41.546  43.144   7.350
 8216POPC   C1B49387  41.320  42.930   6.450
 8216POPC   C2B49388  41.322  42.986   6.750
 8216POPC   C3B49389  41.392  42.951   7.050
 8216POPC   C4B49390  41.346  43.012   7.350
 8217POPC   NC349391  36.928  26.796   5.550
 8217POPC   PO449392  36.872  26.803   5.850
 8217POPC   GL149393  36.936  26.841   6.150
 8217POPC   GL249394  36.813  26.939   6.150
 8217POPC   C1A49395  36.942  26.790   6.450
 8217POPC   D2A49396  36.872  26.849   6.750
 8217POPC   C3A49397  36.888  26.819   7.050
 8217POPC   C4A49398  36.868  26.815   7.350
 8217POPC   C1B49399  36.807  26.993   6.450
 8217POPC   C2B49400  36.833  27.086   6.750
 8217POPC   C3B49401  36.755  27.079   7.050
 8217POPC   C4B49402  36.762  27.011   7.350
 8218POPC   NC349403  21.381  14.373   5.550
 8218POPC   PO449404  21.346  14.445   5.850
 8218POPC   GL149405  21.365  14.367   6.150
 8218POPC   GL249406  21.523  14.370   6.150
 8218POPC   C1A49407  21.406  14.384   6.450
 8218POPC   D2A49408  21.353  14.417   6.750
 8218POPC   C3A49409  21.396  14.367   7.050
 8218POPC   C4A49410  21.362  14.429   7.350
 8218POPC   C1B49411  21.654  14.418   6.450
 8218POPC   C2B49412  21.647  14.436   6.750
 8218POPC   C3B49413  21.661  14.450   7.050
 8218POPC   C4B49414  21.622  14.387   7.350
 8219POPC   NC349415   7.430  39.961   5.550
 8219POPC   PO449416   7.450  39.995   5.850
 8219POPC   GL149417   7.424  40.006   6.150
 8219POPC   GL249418   7.492  40.057   6.150
 8219POPC   C1A49419   7.467  39.969   6.450
 8219POPC   D2A49420   7.449  40.048   6.750
 8219POPC   C3A49421   7.445  39.989   7.050
 8219POPC   C4A49422   7.414  40.012   7.350
 8219POPC   C1B49423   7.619  40.080   6.450
 8219POPC   C2B49424   7.651  40.081   6.750
 8219POPC   C3B49425   7.698  40.095   7.050
 8219POPC   C4B49426   7.697  40.068   7.350
 8220POPC   NC349427  37.643  33.784   5.550
 8220POPC   PO449428  37.652  33.828   5.850
 8220POPC   GL149429  37.631  33.841   6.150
 8220POPC   GL249430  37.618  33.721   6.150
 8220POPC   C1A49431  37.674  33.752   6.450
 8220POPC   D2A49432  37.713  33.821   6.750
 8220POPC   C3A49433  37.636  33.830   7.050
 8220POPC   C4A49434  37.651  33.771   7.350
 8220POPC   C1B49435  37.515  33.601   6.450
 8220POPC   C2B49436  37.493  33.618   6.750
 8220POPC   C3B49437  37.581  33.607   7.050
 8220POPC   C4B49438  37.505  33.548   7.350
 8221POPC   NC349439   9.015  33.806   5.550
 8221POPC   PO449440   8.946  33.844   5.850
 8221POPC   GL149441   8.947  33.794   6.150
 8221POPC   GL249442   8.868  33.811   6.150
 8221POPC   C1A49443   9.002  33.798   6.450
 8221POPC   D2A49444   8.985  33.763   6.750
 8221POPC   C3A49445   8.945  33.778   7.050
 8221POPC   C4A49446   8.948  33.831   7.350
 8221POPC   C1B49447   8.744  33.817   6.450
 8221POPC   C2B49448   8.778  33.874   6.750
 8221POPC   C3B49449   8.743  33.847   7.050
 8221POPC   C4B49450   8.735  33.852   7.350
 8222POPC   NC349451  17.504   4.293   5.550
 8222POPC   PO449452  17.553   4.269   5.850
 8222POPC   GL149453  17.539   4.283   6.150
 8222POPC   GL249454  17.554   4.250   6.150
 8222POPC   C1A49455  17.480   4.357   6.450
 8222POPC   D2A49456  17.539   4.289   6.750
 8222POPC   C3A49457  17.501   4.310   7.050
 8222POPC   C4A49458  17.543   4.315   7.350
 8222POPC   C1B49459  17.683   4.139   6.450
 8222POPC   C2B49460  17.684   4.164   6.750
 8222POPC   C3B49461  17.681   4.152   7.050
 8222POPC   C4B49462  17.699   4.167   7.350
 8223POPC   NC349463  35.329  33.044   5.550
 8223POPC   PO449464  35.375  33.074   5.850
 8223POPC   GL149465  35.324  33.044   6.150
 8223POPC   GL249466  35.459  32.989   6.150
 8223POPC   C1A49467  35.310  33.064   6.450
 8223POPC   D2A49468  35.351  33.007   6.750
 8223POPC   C3A49469  35.318  33.038   7.050
 8223POPC   C4A49470  35.361  33.024   7.350
 8223POPC   C1B49471  35.617  33.063   6.450
 8223POPC   C2B49472  35.641  33.079   6.750
 8223POPC   C3B49473  35.566  33.052   7.050
 8223POPC   C4B49474  35.573  33.028   7.350
 8224POPC   NC349475  25.244   8.178   5.550
 8224POPC   PO449476  25.254   8.196   5.850
 8224POPC   GL149477  25.237   8.206   6.150
 8224POPC   GL249478  25.259   8.109   6.150
 8224POPC   C1A49479  25.310   8.184   6.450
 8224POPC   D2A49480  25.219   8.165   6.750
 8224POPC   C3A49481  25.284   8.168   7.050
 8224POPC   C4A49482  25.283   8.177   7.350
 8224POPC   C1B49483  25.224   7.919   6.450
 8224POPC   C2B49484  25.279   7.937   6.750
 8224POPC   C3B49485  25.284   7.907   7.050
 8224POPC   C4B49486  25.247   7.937   7.350
 8225POPC   NC349487   1.258  24.478   5.550
 8225POPC   PO449488   1.188  24.515   5.850
 8225POPC   GL149489   1.218  24.470   6.150
 8225POPC   GL249490   1.159  24.359   6.150
 8225POPC   C1A49491   1.230  24.444   6.450
 8225POPC   D2A49492   1.198  24.460   6.750
 8225POPC   C3A49493   1.201  24.502   7.050
 8225POPC   C4A49494   1.255  24.458   7.350
 8225POPC   C1B49495   1.134  24.256   6.450
 8225POPC   C2B49496   1.149  24.258   6.750
 8225POPC   C3B49497   1.074  24.279   7.050
 8225POPC   C4B49498   1.096  24.272   7.350
 8226POPC   NC349499  28.410   3.502   5.550
 8226POPC   PO449500  28.324   3.528   5.850
 8226POPC   GL149501  28.410   3.573   6.150
 8226POPC   GL249502  28.365   3.387   6.150
 8226POPC   C1A49503  28.321   3.561   6.450
 8226POPC   D2A49504  28.362   3.573   6.750
 8226POPC   C3A49505  28.372   3.515   7.050
 8226POPC   C4A49506  28.416   3.528   7.350
 8226POPC   C1B49507  28.352   3.342   6.450
 8226POPC   C2B49508  28.318   3.275   6.750
 8226POPC   C3B49509  28.297   3.289   7.050
 8226POPC   C4B49510  28.297   3.261   7.350
 8227POPC   NC349511  12.125  27.554   5.550
 8227POPC   PO449512  12.067  27.583   5.850
 8227POPC   GL149513  12.104  27.555   6.150
 8227POPC   GL249514  12.164  27.543   6.150
 8227POPC   C1A49515  12.070  27.585   6.450
 8227POPC   D2A49516  12.090  27.625   6.750
 8227POPC   C3A49517  12.064  27.588   7.050
 8227POPC   C4A49518  12.029  27.602   7.350
 8227POPC   C1B49519  12.338  27.522   6.450
 8227POPC   C2B49520  12.351  27.499   6.750
 8227POPC   C3B49521  12.345  27.570   7.050
 8227POPC   C4B49522  12.286  27.537   7.350
 8228POPC   NC349523  17.511   9.775   5.550
 8228POPC   PO449524  17.507   9.742   5.850
 8228POPC   GL149525  17.515   9.728   6.150
 8228POPC   GL249526  17.499   9.591   6.150
 8228POPC   C1A49527  17.465   9.765   6.450
 8228POPC   D2A49528  17.545   9.792   6.750
 8228POPC   C3A49529  17.465   9.789   7.050
 8228POPC   C4A49530  17.459   9.742   7.350
 8228POPC   C1B49531  17.472   9.460   6.450
 8228POPC   C2B49532  17.565   9.495   6.750
 8228POPC   C3B49533  17.554   9.477   7.050
 8228POPC   C4B49534  17.480   9.455   7.350
 8229POPC   NC349535   0.412  17.482   5.550
 8229POPC   PO449536   0.393  17.545   5.850
 8229POPC   GL149537   0.448  17.479   6.150
 8229POPC   GL249538   0.478  17.613   6.150
 8229POPC   C1A49539   0.424  17.503   6.450
 8229POPC   D2A49540   0.415  17.515   6.750
 8229POPC   C3A49541   0.396  17.530   7.050
 8229POPC   C4A49542   0.411  17.491   7.350
 8229POPC   C1B49543   0.460  17.742   6.450
 8229POPC   C2B49544   0.429  17.730   6.750
 8229POPC   C3B49545   0.396  17.717   7.050
 8229POPC   C4B49546   0.446  17.724   7.350
 8230POPC   NC349547  35.321  14.414   5.550
 8230POPC   PO449548  35.343  14.438   5.850
 8230POPC   GL149549  35.402  14.428   6.150
 8230POPC   GL249550  35.351  14.296   6.150
 8230POPC   C1A49551  35.398  14.388   6.450
 8230POPC   D2A49552  35.402  14.449   6.750
 8230POPC   C3A49553  35.379  14.403   7.050
 8230POPC   C4A49554  35.371  14.452   7.350
 8230POPC   C1B49555  35.392  14.190   6.450
 8230POPC   C2B49556  35.357  14.166   6.750
 8230POPC   C3B49557  35.430  14.164   7.050
 8230POPC   C4B49558  35.374  14.118   7.350
 8231POPC   NC349559  30.742  23.701   5.550
 8231POPC   PO449560  30.698  23.758   5.850
 8231POPC   GL149561  30.660  23.701   6.150
 8231POPC   GL249562  30.777  23.655   6.150
 8231POPC   C1A49563  30.734  23.763   6.450
 8231POPC   D2A49564  30.706  23.708   6.750
 8231POPC   C3A49565  30.711  23.737   7.050
 8231POPC   C4A49566  30.735  23.689   7.350
 8231POPC   C1B49567  30.899  23.551   6.450
 8231POPC   C2B49568  30.934  23.581   6.750
 8231POPC   C3B49569  30.937  23.584   7.050
 8231POPC   C4B49570  30.911  23.598   7.350
 8232POPC   NC349571  30.676  40.051   5.550
 8232POPC   PO449572  30.684  40.038   5.850
 8232POPC   GL149573  30.726  40.011   6.150
 8232POPC   GL249574  30.731  40.087   6.150
 8232POPC   C1A49575  30.716  40.032   6.450
 8232POPC   D2A49576  30.731  39.998   6.750
 8232POPC   C3A49577  30.731  39.967   7.050
 8232POPC   C4A49578  30.734  39.978   7.350
 8232POPC   C1B49579  30.816  40.167   6.450
 8232POPC   C2B49580  30.826  40.175   6.750
 8232POPC   C3B49581  30.825  40.162   7.050
 8232POPC   C4B49582  30.825  40.150   7.350
 8233POPC   NC349583  12.901  36.909   5.550
 8233POPC   PO449584  12.820  36.897   5.850
 8233POPC   GL149585  12.894  36.888   6.150
 8233POPC   GL249586  12.836  36.755   6.150
 8233POPC   C1A49587  12.852  36.881   6.450
 8233POPC   D2A49588  12.827  36.859   6.750
 8233POPC   C3A49589  12.842  36.899   7.050
 8233POPC   C4A49590  12.811  36.909   7.350
 8233POPC   C1B49591  12.773  36.695   6.450
 8233POPC   C2B49592  12.769  36.620   6.750
 8233POPC   C3B49593  12.756  36.657   7.050
 8233POPC   C4B49594  12.718  36.678   7.350
 8234POPC   NC349595   0.448  27.607   5.550
 8234POPC   PO449596   0.426  27.600   5.850
 8234POPC   GL149597   0.478  27.569   6.150
 8234POPC   GL249598   0.533  27.656   6.150
 8234POPC   C1A49599   0.399  27.555   6.450
 8234POPC   D2A49600   0.454  27.544   6.750
 8234POPC   C3A49601   0.483  27.628   7.050
 8234POPC   C4A49602   0.393  27.612   7.350
 8234POPC   C1B49603   0.636  27.686   6.450
 8234POPC   C2B49604   0.611  27.682   6.750
 8234POPC   C3B49605   0.608  27.768   7.050
 8234POPC   C4B49606   0.690  27.779   7.350
 8235POPC   NC349607   1.996  22.948   5.550
 8235POPC   PO449608   1.962  22.893   5.850
 8235POPC   GL149609   1.959  22.902   6.150
 8235POPC   GL249610   2.039  22.770   6.150
 8235POPC   C1A49611   1.956  22.890   6.450
 8235POPC   D2A49612   1.993  22.942   6.750
 8235POPC   C3A49613   1.962  22.974   7.050
 8235POPC   C4A49614   2.028  22.921   7.350
 8235POPC   C1B49615   2.063  22.735   6.450
 8235POPC   C2B49616   2.020  22.687   6.750
 8235POPC   C3B49617   1.988  22.718   7.050
 8235POPC   C4B49618   1.977  22.663   7.350
 8236POPC   NC349619  27.572  38.442   5.550
 8236POPC   PO449620  27.591  38.446   5.850
 8236POPC   GL149621  27.575  38.443   6.150
 8236POPC   GL249622  27.486  38.361   6.150
 8236POPC   C1A49623  27.553  38.419   6.450
 8236POPC   D2A49624  27.629  38.476   6.750
 8236POPC   C3A49625  27.589  38.456   7.050
 8236POPC   C4A49626  27.634  38.414   7.350
 8236POPC   C1B49627  27.397  38.266   6.450
 8236POPC   C2B49628  27.385  38.250   6.750
 8236POPC   C3B49629  27.387  38.244   7.050
 8236POPC   C4B49630  27.369  38.301   7.350
 8237POPC   NC349631  23.716  41.518   5.550
 8237POPC   PO449632  23.732  41.591   5.850
 8237POPC   GL149633  23.761  41.547   6.150
 8237POPC   GL249634  23.576  41.534   6.150
 8237POPC   C1A49635  23.753  41.567   6.450
 8237POPC   D2A49636  23.722  41.595   6.750
 8237POPC   C3A49637  23.735  41.574   7.050
 8237POPC   C4A49638  23.686  41.560   7.350
 8237POPC   C1B49639  23.502  41.425   6.450
 8237POPC   C2B49640  23.497  41.456   6.750
 8237POPC   C3B49641  23.489  41.455   7.050
 8237POPC   C4B49642  23.488  41.493   7.350
 8238POPC   NC349643  36.875  37.632   5.550
 8238POPC   PO449644  36.864  37.630   5.850
 8238POPC   GL149645  36.925  37.668   6.150
 8238POPC   GL249646  36.807  37.788   6.150
 8238POPC   C1A49647  36.944  37.672   6.450
 8238POPC   D2A49648  36.878  37.669   6.750
 8238POPC   C3A49649  36.879  37.640   7.050
 8238POPC   C4A49650  36.943  37.655   7.350
 8238POPC   C1B49651  36.719  37.793   6.450
 8238POPC   C2B49652  36.676  37.790   6.750
 8238POPC   C3B49653  36.668  37.836   7.050
 8238POPC   C4B49654  36.716  37.886   7.350
 8239POPC   NC349655  24.504  36.106   5.550
 8239POPC   PO449656  24.479  36.146   5.850
 8239POPC   GL149657  24.518  36.087   6.150
 8239POPC   GL249658  24.423  36.210   6.150
 8239POPC   C1A49659  24.440  36.164   6.450
 8239POPC   D2A49660  24.450  36.086   6.750
 8239POPC   C3A49661  24.468  36.127   7.050
 8239POPC   C4A49662  24.478  36.156   7.350
 8239POPC   C1B49663  24.276  36.255   6.450
 8239POPC   C2B49664  24.267  36.244   6.750
 8239POPC   C3B49665  24.282  36.287   7.050
 8239POPC   C4B49666  24.293  36.288   7.350
 8240POPC   NC349667  38.411  40.742   5.550
 8240POPC   PO449668  38.465  40.745   5.850
 8240POPC   GL149669  38.497  40.790   6.150
 8240POPC   GL249670  38.362  40.820   6.150
 8240POPC   C1A49671  38.501  40.825   6.450
 8240POPC   D2A49672  38.410  40.787   6.750
 8240POPC   C3A49673  38.478  40.753   7.050
 8240POPC   C4A49674  38.416  40.779   7.350
 8240POPC   C1B49675  38.300  40.954   6.450
 8240POPC   C2B49676  38.316  40.916   6.750
 8240POPC   C3B49677  38.313  40.993   7.050
 8240POPC   C4B49678  38.237  40.906   7.350
 8241POPC   NC349679  28.363  27.628   5.550
 8241POPC   PO449680  28.396  27.575   5.850
 8241POPC   GL149681  28.393  27.631   6.150
 8241POPC   GL249682  28.217  27.589   6.150
 8241POPC   C1A49683  28.330  27.598   6.450
 8241POPC   D2A49684  28.394  27.581   6.750
 8241POPC   C3A49685  28.357  27.547   7.050
 8241POPC   C4A49686  28.411  27.627   7.350
 8241POPC   C1B49687  28.090  27.496   6.450
 8241POPC   C2B49688  28.089  27.482   6.750
 8241POPC   C3B49689  28.085  27.568   7.050
 8241POPC   C4B49690  28.115  27.476   7.350
 8242POPC   NC349691  34.572  42.374   5.550
 8242POPC   PO449692  34.611  42.382   5.850
 8242POPC   GL149693  34.526  42.338   6.150
 8242POPC   GL249694  34.559  42.426   6.150
 8242POPC   C1A49695  34.549  42.372   6.450
 8242POPC   D2A49696  34.532  42.379   6.750
 8242POPC   C3A49697  34.579  42.358   7.050
 8242POPC   C4A49698  34.587  42.335   7.350
 8242POPC   C1B49699  34.567  42.565   6.450
 8242POPC   C2B49700  34.560  42.618   6.750
 8242POPC   C3B49701  34.564  42.578   7.050
 8242POPC   C4B49702  34.588  42.536   7.350
 8243POPC   NC349703  22.959   2.733   5.550
 8243POPC   PO449704  22.889   2.743   5.850
 8243POPC   GL149705  22.936   2.746   6.150
 8243POPC   GL249706  22.831   2.849   6.150
 8243POPC   C1A49707  22.981   2.767   6.450
 8243POPC   D2A49708  22.911   2.773   6.750
 8243POPC   C3A49709  22.888   2.796   7.050
 8243POPC   C4A49710  22.974   2.797   7.350
 8243POPC   C1B49711  22.749   2.884   6.450
 8243POPC   C2B49712  22.741   2.884   6.750
 8243POPC   C3B49713  22.748   2.917   7.050
 8243POPC   C4B49714  22.735   2.870   7.350
 8244POPC   NC349715   8.971  18.274   5.550
 8244POPC   PO449716   8.982  18.262   5.850
 8244POPC   GL149717   8.939  18.299   6.150
 8244POPC   GL249718   9.061  18.439   6.150
 8244POPC   C1A49719   9.002  18.262   6.450
 8244POPC   D2A49720   8.954  18.298   6.750
 8244POPC   C3A49721   8.954  18.251   7.050
 8244POPC   C4A49722   8.978  18.285   7.350
 8244POPC   C1B49723   9.053  18.458   6.450
 8244POPC   C2B49724   9.089  18.515   6.750
 8244POPC   C3B49725   9.128  18.540   7.050
 8244POPC   C4B49726   9.054  18.462   7.350
 8245POPC   NC349727  32.241  15.165   5.550
 8245POPC   PO449728  32.276  15.164   5.850
 8245POPC   GL149729  32.296  15.183   6.150
 8245POPC   GL249730  32.277  15.306   6.150
 8245POPC   C1A49731  32.232  15.183   6.450
 8245POPC   D2A49732  32.242  15.228   6.750
 8245POPC   C3A49733  32.208  15.157   7.050
 8245POPC   C4A49734  32.231  15.144   7.350
 8245POPC   C1B49735  32.374  15.434   6.450
 8245POPC   C2B49736  32.346  15.452   6.750
 8245POPC   C3B49737  32.311  15.452   7.050
 8245POPC   C4B49738  32.357  15.437   7.350
 8246POPC   NC349739  19.855  22.162   5.550
 8246POPC   PO449740  19.823  22.164   5.850
 8246POPC   GL149741  19.791  22.160   6.150
 8246POPC   GL249742  19.922  22.262   6.150
 8246POPC   C1A49743  19.875  22.195   6.450
 8246POPC   D2A49744  19.843  22.197   6.750
 8246POPC   C3A49745  19.874  22.207   7.050
 8246POPC   C4A49746  19.789  22.202   7.350
 8246POPC   C1B49747  19.992  22.349   6.450
 8246POPC   C2B49748  20.033  22.295   6.750
 8246POPC   C3B49749  20.063  22.305   7.050
 8246POPC   C4B49750  20.065  22.276   7.350
 8247POPC   NC349751  12.110  17.532   5.550
 8247POPC   PO449752  12.046  17.499   5.850
 8247POPC   GL149753  12.070  17.461   6.150
 8247POPC   GL249754  12.206  17.590   6.150
 8247POPC   C1A49755  12.101  17.466   6.450
 8247POPC   D2A49756  12.120  17.487   6.750
 8247POPC   C3A49757  12.083  17.537   7.050
 8247POPC   C4A49758  12.081  17.482   7.350
 8247POPC   C1B49759  12.304  17.643   6.450
 8247POPC   C2B49760  12.273  17.568   6.750
 8247POPC   C3B49761  12.339  17.657   7.050
 8247POPC   C4B49762  12.312  17.590   7.350
 8248POPC   NC349763  35.398  11.347   5.550
 8248POPC   PO449764  35.313  11.255   5.850
 8248POPC   GL149765  35.357  11.255   6.150
 8248POPC   GL249766  35.378  11.197   6.150
 8248POPC   C1A49767  35.358  11.303   6.450
 8248POPC   D2A49768  35.376  11.285   6.750
 8248POPC   C3A49769  35.388  11.300   7.050
 8248POPC   C4A49770  35.340  11.256   7.350
 8248POPC   C1B49771  35.327  11.079   6.450
 8248POPC   C2B49772  35.378  11.090   6.750
 8248POPC   C3B49773  35.391  11.016   7.050
 8248POPC   C4B49774  35.333  11.035   7.350
 8249POPC   NC349775  36.887   2.005   5.550
 8249POPC   PO449776  36.871   1.962   5.850
 8249POPC   GL149777  36.854   2.036   6.150
 8249POPC   GL249778  36.775   1.962   6.150
 8249POPC   C1A49779  36.911   1.993   6.450
 8249POPC   D2A49780  36.898   2.018   6.750
 8249POPC   C3A49781  36.867   1.964   7.050
 8249POPC   C4A49782  36.855   1.986   7.350
 8249POPC   C1B49783  36.732   1.822   6.450
 8249POPC   C2B49784  36.683   1.905   6.750
 8249POPC   C3B49785  36.694   1.871   7.050
 8249POPC   C4B49786  36.654   1.880   7.350
 8250POPC   NC349787   5.054  42.320   5.550
 8250POPC   PO449788   5.125  42.305   5.850
 8250POPC   GL149789   5.114  42.342   6.150
 8250POPC   GL249790   5.048  42.206   6.150
 8250POPC   C1A49791   5.129  42.368   6.450
 8250POPC   D2A49792   5.078  42.360   6.750
 8250POPC   C3A49793   5.056  42.290   7.050
 8250POPC   C4A49794   5.116  42.357   7.350
 8250POPC   C1B49795   5.007  42.084   6.450
 8250POPC   C2B49796   4.960  42.103   6.750
 8250POPC   C3B49797   5.047  42.091   7.050
 8250POPC   C4B49798   4.982  42.058   7.350
 8251POPC   NC349799  25.291  30.673   5.550
 8251POPC   PO449800  25.314  30.655   5.850
 8251POPC   GL149801  25.266  30.727   6.150
 8251POPC   GL249802  25.270  30.824   6.150
 8251POPC   C1A49803  25.245  30.741   6.450
 8251POPC   D2A49804  25.293  30.745   6.750
 8251POPC   C3A49805  25.284  30.743   7.050
 8251POPC   C4A49806  25.248  30.662   7.350
 8251POPC   C1B49807  25.316  30.938   6.450
 8251POPC   C2B49808  25.314  30.925   6.750
 8251POPC   C3B49809  25.384  30.965   7.050
 8251POPC   C4B49810  25.383  30.918   7.350
 8252POPC   NC349811  11.327  27.573   5.550
 8252POPC   PO449812  11.288  27.547   5.850
 8252POPC   GL149813  11.330  27.597   6.150
 8252POPC   GL249814  11.281  27.752   6.150
 8252POPC   C1A49815  11.343  27.545   6.450
 8252POPC   D2A49816  11.307  27.587   6.750
 8252POPC   C3A49817  11.283  27.556   7.050
 8252POPC   C4A49818  11.339  27.639   7.350
 8252POPC   C1B49819  11.211  27.814   6.450
 8252POPC   C2B49820  11.189  27.819   6.750
 8252POPC   C3B49821  11.228  27.790   7.050
 8252POPC   C4B49822  11.185  27.808   7.350
 8253POPC   NC349823  43.133  24.453   5.550
 8253POPC   PO449824  43.115  24.493   5.850
 8253POPC   GL149825  43.160  24.531   6.150
 8253POPC   GL249826  43.119  24.413   6.150
 8253POPC   C1A49827  43.145  24.474   6.450
 8253POPC   D2A49828  43.137  24.457   6.750
 8253POPC   C3A49829  43.114  24.518   7.050
 8253POPC   C4A49830  43.107  24.498   7.350
 8253POPC   C1B49831  43.145  24.228   6.450
 8253POPC   C2B49832  43.233  24.228   6.750
 8253POPC   C3B49833  43.211  24.210   7.050
 8253POPC   C4B49834  43.227  24.239   7.350
 8254POPC   NC349835  19.820  36.140   5.550
 8254POPC   PO449836  19.798  36.127   5.850
 8254POPC   GL149837  19.880  36.118   6.150
 8254POPC   GL249838  19.799  36.010   6.150
 8254POPC   C1A49839  19.879  36.124   6.450
 8254POPC   D2A49840  19.865  36.177   6.750
 8254POPC   C3A49841  19.802  36.115   7.050
 8254POPC   C4A49842  19.868  36.116   7.350
 8254POPC   C1B49843  19.716  35.934   6.450
 8254POPC   C2B49844  19.713  35.904   6.750
 8254POPC   C3B49845  19.751  35.869   7.050
 8254POPC   C4B49846  19.764  35.914   7.350
 8255POPC   NC349847  12.086  24.445   5.550
 8255POPC   PO449848  12.029  24.487   5.850
 8255POPC   GL149849  12.122  24.540   6.150
 8255POPC   GL249850  11.954  24.453   6.150
 8255POPC   C1A49851  12.096  24.457   6.450
 8255POPC   D2A49852  12.058  24.522   6.750
 8255POPC   C3A49853  12.063  24.526   7.050
 8255POPC   C4A49854  12.055  24.540   7.350
 8255POPC   C1B49855  11.844  24.333   6.450
 8255POPC   C2B49856  11.846  24.303   6.750
 8255POPC   C3B49857  11.885  24.306   7.050
 8255POPC   C4B49858  11.878  24.297   7.350
 8256POPC   NC349859  33.833   6.640   5.550
 8256POPC   PO449860  33.811   6.665   5.850
 8256POPC   GL149861  33.849   6.665   6.150
 8256POPC   GL249862  33.682   6.532   6.150
 8256POPC   C1A49863  33.781   6.686   6.450
 8256POPC   D2A49864  33.751   6.628   6.750
 8256POPC   C3A49865  33.819   6.604   7.050
 8256POPC   C4A49866  33.827   6.625   7.350
 8256POPC   C1B49867  33.686   6.436   6.450
 8256POPC   C2B49868  33.607   6.429   6.750
 8256POPC   C3B49869  33.692   6.488   7.050
 8256POPC   C4B49870  33.597   6.459   7.350
 8257POPC   NC349871  43.108  12.079   5.550
 8257POPC   PO449872  43.146  12.114   5.850
 8257POPC   GL149873  43.097  12.086   6.150
 8257POPC   GL249874  43.199  11.907   6.150
 8257POPC   C1A49875  43.095  12.117   6.450
 8257POPC   D2A49876  43.146  12.067   6.750
 8257POPC   C3A49877  43.152  12.093   7.050
 8257POPC   C4A49878  43.100  12.092   7.350
 8257POPC   C1B49879  43.143  11.814   6.450
 8257POPC   C2B49880  43.185  11.879   6.750
 8257POPC   C3B49881  43.221  11.834   7.050
 8257POPC   C4B49882  43.160  11.826   7.350
 8258POPC   NC349883   5.853  44.626   5.550
 8258POPC   PO449884   5.888  44.707   5.850
 8258POPC   GL149885   5.853  44.653   6.150
 8258POPC   GL249886   5.803  44.562   6.150
 8258POPC   C1A49887   5.883  44.649   6.450
 8258POPC   D2A49888   5.904  44.672   6.750
 8258POPC   C3A49889   5.864  44.623   7.050
 8258POPC   C4A49890   5.863  44.704   7.350
 8258POPC   C1B49891   5.772  44.436   6.450
 8258POPC   C2B49892   5.781  44.453   6.750
 8258POPC   C3B49893   5.838  44.379   7.050
 8258POPC   C4B49894   5.761  44.393   7.350
 8259POPC   NC349895   1.257  23.692   5.550
 8259POPC   PO449896   1.236  23.760   5.850
 8259POPC   GL149897   1.216  23.704   6.150
 8259POPC   GL249898   1.107  23.614   6.150
 8259POPC   C1A49899   1.215  23.717   6.450
 8259POPC   D2A49900   1.181  23.681   6.750
 8259POPC   C3A49901   1.200  23.676   7.050
 8259POPC   C4A49902   1.236  23.746   7.350
 8259POPC   C1B49903   1.106  23.487   6.450
 8259POPC   C2B49904   1.125  23.509   6.750
 8259POPC   C3B49905   1.115  23.507   7.050
 8259POPC   C4B49906   1.095  23.474   7.350
 8260POPC   NC349907  12.859  31.496   5.550
 8260POPC   PO449908  12.895  31.430   5.850
 8260POPC   GL149909  12.810  31.477   6.150
 8260POPC   GL249910  12.909  31.391   6.150
 8260POPC   C1A49911  12.882  31.467   6.450
 8260POPC   D2A49912  12.897  31.453   6.750
 8260POPC   C3A49913  12.900  31.445   7.050
 8260POPC   C4A49914  12.817  31.497   7.350
 8260POPC   C1B49915  13.069  31.265   6.450
 8260POPC   C2B49916  13.041  31.344   6.750
 8260POPC   C3B49917  13.059  31.320   7.050
 8260POPC   C4B49918  13.052  31.266   7.350
 8261POPC   NC349919  37.729  29.890   5.550
 8261POPC   PO449920  37.695  29.877   5.850
 8261POPC   GL149921  37.708  29.915   6.150
 8261POPC   GL249922  37.769  30.041   6.150
 8261POPC   C1A49923  37.712  29.919   6.450
 8261POPC   D2A49924  37.690  29.939   6.750
 8261POPC   C3A49925  37.632  29.931   7.050
 8261POPC   C4A49926  37.725  29.935   7.350
 8261POPC   C1B49927  37.772  30.140   6.450
 8261POPC   C2B49928  37.792  30.120   6.750
 8261POPC   C3B49929  37.735  30.169   7.050
 8261POPC   C4B49930  37.756  30.159   7.350
 8262POPC   NC349931  38.450   6.630   5.550
 8262POPC   PO449932  38.435   6.672   5.850
 8262POPC   GL149933  38.484   6.639   6.150
 8262POPC   GL249934  38.351   6.652   6.150
 8262POPC   C1A49935  38.432   6.642   6.450
 8262POPC   D2A49936  38.460   6.642   6.750
 8262POPC   C3A49937  38.465   6.643   7.050
 8262POPC   C4A49938  38.473   6.639   7.350
 8262POPC   C1B49939  38.207   6.665   6.450
 8262POPC   C2B49940  38.164   6.620   6.750
 8262POPC   C3B49941  38.231   6.631   7.050
 8262POPC   C4B49942  38.214   6.658   7.350
 8263POPC   NC349943  38.448  40.037   5.550
 8263POPC   PO449944  38.479  40.001   5.850
 8263POPC   GL149945  38.421  39.988   6.150
 8263POPC   GL249946  38.514  40.166   6.150
 8263POPC   C1A49947  38.500  40.013   6.450
 8263POPC   D2A49948  38.422  39.962   6.750
 8263POPC   C3A49949  38.473  39.987   7.050
 8263POPC   C4A49950  38.461  40.004   7.350
 8263POPC   C1B49951  38.444  40.279   6.450
 8263POPC   C2B49952  38.442  40.207   6.750
 8263POPC   C3B49953  38.530  40.227   7.050
 8263POPC   C4B49954  38.483  40.245   7.350
 8264POPC   NC349955   1.178  14.447   5.550
 8264POPC   PO449956   1.196  14.375   5.850
 8264POPC   GL149957   1.185  14.430   6.150
 8264POPC   GL249958   1.286  14.488   6.150
 8264POPC   C1A49959   1.207  14.370   6.450
 8264POPC   D2A49960   1.225  14.442   6.750
 8264POPC   C3A49961   1.241  14.410   7.050
 8264POPC   C4A49962   1.183  14.444   7.350
 8264POPC   C1B49963   1.372  14.668   6.450
 8264POPC   C2B49964   1.376  14.625   6.750
 8264POPC   C3B49965   1.329  14.661   7.050
 8264POPC   C4B49966   1.297  14.654   7.350
 8265POPC   NC349967  34.571  31.484   5.550
 8265POPC   PO449968  34.586  31.449   5.850
 8265POPC   GL149969  34.594  31.496   6.150
 8265POPC   GL249970  34.441  31.436   6.150
 8265POPC   C1A49971  34.527  31.473   6.450
 8265POPC   D2A49972  34.602  31.461   6.750
 8265POPC   C3A49973  34.574  31.519   7.050
 8265POPC   C4A49974  34.594  31.494   7.350
 8265POPC   C1B49975  34.355  31.402   6.450
 8265POPC   C2B49976  34.385  31.350   6.750
 8265POPC   C3B49977  34.376  31.394   7.050
 8265POPC   C4B49978  34.338  31.356   7.350
 8266POPC   NC349979  13.616  11.282   5.550
 8266POPC   PO449980  13.632  11.346   5.850
 8266POPC   GL149981  13.596  11.335   6.150
 8266POPC   GL249982  13.539  11.224   6.150
 8266POPC   C1A49983  13.627  11.274   6.450
 8266POPC   D2A49984  13.662  11.251   6.750
 8266POPC   C3A49985  13.639  11.286   7.050
 8266POPC   C4A49986  13.670  11.256   7.350
 8266POPC   C1B49987  13.371  11.218   6.450
 8266POPC   C2B49988  13.418  11.187   6.750
 8266POPC   C3B49989  13.459  11.167   7.050
 8266POPC   C4B49990  13.389  11.147   7.350
 8267POPC   NC349991  12.096  38.437   5.550
 8267POPC   PO449992  12.053  38.423   5.850
 8267POPC   GL149993  12.085  38.407   6.150
 8267POPC   GL249994  12.060  38.608   6.150
 8267POPC   C1A49995  12.075  38.451   6.450
 8267POPC   D2A49996  12.046  38.459   6.750
 8267POPC   C3A49997  12.096  38.450   7.050
 8267POPC   C4A49998  12.070  38.426   7.350
 8267POPC   C1B49999  12.074  38.673   6.450
 8267POPC   C2B50000  12.052  38.653   6.750
 8267POPC   C3B50001  12.038  38.656   7.050
 8267POPC   C4B50002  12.060  38.689   7.350
 8268POPC   NC350003  25.265  20.627   5.550
 8268POPC   PO450004  25.218  20.644   5.850
 8268POPC   GL150005  25.291  20.582   6.150
 8268POPC   GL250006  25.335  20.464   6.150
 8268POPC   C1A50007  25.303  20.657   6.450
 8268POPC   D2A50008  25.299  20.575   6.750
 8268POPC   C3A50009  25.244  20.609   7.050
 8268POPC   C4A50010  25.260  20.614   7.350
 8268POPC   C1B50011  25.446  20.424   6.450
 8268POPC   C2B50012  25.404  20.362   6.750
 8268POPC   C3B50013  25.374  20.444   7.050
 8268POPC   C4B50014  25.358  20.402   7.350
 8269POPC   NC350015   2.789  38.477   5.550
 8269POPC   PO450016   2.814  38.488   5.850
 8269POPC   GL150017   2.755  38.474   6.150
 8269POPC   GL250018   2.667  38.479   6.150
 8269POPC   C1A50019   2.733  38.447   6.450
 8269POPC   D2A50020   2.785  38.454   6.750
 8269POPC   C3A50021   2.786  38.443   7.050
 8269POPC   C4A50022   2.788  38.440   7.350
 8269POPC   C1B50023   2.527  38.526   6.450
 8269POPC   C2B50024   2.508  38.584   6.750
 8269POPC   C3B50025   2.545  38.589   7.050
 8269POPC   C4B50026   2.576  38.592   7.350
 8270POPC   NC350027  36.900  26.091   5.550
 8270POPC   PO450028  36.871  26.030   5.850
 8270POPC   GL150029  36.876  26.046   6.150
 8270POPC   GL250030  36.995  25.931   6.150
 8270POPC   C1A50031  36.901  26.028   6.450
 8270POPC   D2A50032  36.879  26.075   6.750
 8270POPC   C3A50033  36.917  26.089   7.050
 8270POPC   C4A50034  36.913  26.006   7.350
 8270POPC   C1B50035  36.981  25.811   6.450
 8270POPC   C2B50036  36.949  25.823   6.750
 8270POPC   C3B50037  36.943  25.845   7.050
 8270POPC   C4B50038  36.998  25.833   7.350
 8271POPC   NC350039  10.517   8.203   5.550
 8271POPC   PO450040  10.564   8.171   5.850
 8271POPC   GL150041  10.557   8.201   6.150
 8271POPC   GL250042  10.452   8.104   6.150
 8271POPC   C1A50043  10.569   8.233   6.450
 8271POPC   D2A50044  10.497   8.165   6.750
 8271POPC   C3A50045  10.527   8.212   7.050
 8271POPC   C4A50046  10.545   8.182   7.350
 8271POPC   C1B50047  10.429   7.995   6.450
 8271POPC   C2B50048  10.368   7.996   6.750
 8271POPC   C3B50049  10.348   7.960   7.050
 8271POPC   C4B50050  10.441   8.026   7.350
 8272POPC   NC350051   6.678  21.366   5.550
 8272POPC   PO450052   6.607  21.400   5.850
 8272POPC   GL150053   6.614  21.371   6.150
 8272POPC   GL250054   6.561  21.317   6.150
 8272POPC   C1A50055   6.689  21.416   6.450
 8272POPC   D2A50056   6.669  21.418   6.750
 8272POPC   C3A50057   6.609  21.400   7.050
 8272POPC   C4A50058   6.606  21.398   7.350
 8272POPC   C1B50059   6.372  21.367   6.450
 8272POPC   C2B50060   6.404  21.320   6.750
 8272POPC   C3B50061   6.431  21.296   7.050
 8272POPC   C4B50062   6.396  21.285   7.350
 8273POPC   NC350063   9.751  19.823   5.550
 8273POPC   PO450064   9.797  19.796   5.850
 8273POPC   GL150065   9.798  19.804   6.150
 8273POPC   GL250066   9.670  19.877   6.150
 8273POPC   C1A50067   9.783  19.846   6.450
 8273POPC   D2A50068   9.712  19.834   6.750
 8273POPC   C3A50069   9.724  19.858   7.050
 8273POPC   C4A50070   9.762  19.856   7.350
 8273POPC   C1B50071   9.533  19.869   6.450
 8273POPC   C2B50072   9.529  19.910   6.750
 8273POPC   C3B50073   9.535  19.883   7.050
 8273POPC   C4B50074   9.492  19.907   7.350
 8274POPC   NC350075  43.143  28.400   5.550
 8274POPC   PO450076  43.132  28.378   5.850
 8274POPC   GL150077  43.158  28.400   6.150
 8274POPC   GL250078  43.195  28.408   6.150
 8274POPC   C1A50079  43.143  28.398   6.450
 8274POPC   D2A50080  43.091  28.348   6.750
 8274POPC   C3A50081  43.085  28.348   7.050
 8274POPC   C4A50082  43.081  28.391   7.350
 8274POPC   C1B50083  43.308  28.442   6.450
 8274POPC   C2B50084  43.346  28.509   6.750
 8274POPC   C3B50085  43.323  28.518   7.050
 8274POPC   C4B50086  43.362  28.504   7.350
 8275POPC   NC350087   8.938  15.188   5.550
 8275POPC   PO450088   8.948  15.174   5.850
 8275POPC   GL150089   8.953  15.196   6.150
 8275POPC   GL250090   9.037  15.260   6.150
 8275POPC   C1A50091   8.972  15.210   6.450
 8275POPC   D2A50092   8.993  15.145   6.750
 8275POPC   C3A50093   8.981  15.138   7.050
 8275POPC   C4A50094   8.930  15.220   7.350
 8275POPC   C1B50095   9.170  15.297   6.450
 8275POPC   C2B50096   9.177  15.374   6.750
 8275POPC   C3B50097   9.131  15.350   7.050
 8275POPC   C4B50098   9.127  15.349   7.350
 8276POPC   NC350099  24.461  25.285   5.550
 8276POPC   PO450100  24.457  25.235   5.850
 8276POPC   GL150101  24.513  25.253   6.150
 8276POPC   GL250102  24.418  25.174   6.150
 8276POPC   C1A50103  24.521  25.297   6.450
 8276POPC   D2A50104  24.527  25.312   6.750
 8276POPC   C3A50105  24.457  25.235   7.050
 8276POPC   C4A50106  24.537  25.293   7.350
 8276POPC   C1B50107  24.281  25.133   6.450
 8276POPC   C2B50108  24.220  25.133   6.750
 8276POPC   C3B50109  24.259  25.159   7.050
 8276POPC   C4B50110  24.251  25.172   7.350
 8277POPC   NC350111  41.585  26.855   5.550
 8277POPC   PO450112  41.602  26.771   5.850
 8277POPC   GL150113  41.605  26.797   6.150
 8277POPC   GL250114  41.632  26.946   6.150
 8277POPC   C1A50115  41.578  26.809   6.450
 8277POPC   D2A50116  41.587  26.803   6.750
 8277POPC   C3A50117  41.538  26.807   7.050
 8277POPC   C4A50118  41.511  26.786   7.350
 8277POPC   C1B50119  41.611  27.082   6.450
 8277POPC   C2B50120  41.663  27.064   6.750
 8277POPC   C3B50121  41.653  27.095   7.050
 8277POPC   C4B50122  41.654  27.083   7.350
 8278POPC   NC350123  30.746   5.914   5.550
 8278POPC   PO450124  30.650   5.881   5.850
 8278POPC   GL150125  30.653   5.893   6.150
 8278POPC   GL250126  30.625   5.998   6.150
 8278POPC   C1A50127  30.658   5.890   6.450
 8278POPC   D2A50128  30.655   5.828   6.750
 8278POPC   C3A50129  30.663   5.900   7.050
 8278POPC   C4A50130  30.678   5.915   7.350
 8278POPC   C1B50131  30.566   6.055   6.450
 8278POPC   C2B50132  30.600   6.128   6.750
 8278POPC   C3B50133  30.605   6.034   7.050
 8278POPC   C4B50134  30.529   6.041   7.350
 8279POPC   NC350135  38.503   5.877   5.550
 8279POPC   PO450136  38.471   5.825   5.850
 8279POPC   GL150137  38.460   5.911   6.150
 8279POPC   GL250138  38.301   5.853   6.150
 8279POPC   C1A50139  38.422   5.888   6.450
 8279POPC   D2A50140  38.430   5.855   6.750
 8279POPC   C3A50141  38.442   5.826   7.050
 8279POPC   C4A50142  38.482   5.882   7.350
 8279POPC   C1B50143  38.232   5.811   6.450
 8279POPC   C2B50144  38.249   5.860   6.750
 8279POPC   C3B50145  38.161   5.799   7.050
 8279POPC   C4B50146  38.257   5.878   7.350
 8280POPC   NC350147  28.337   5.861   5.550
 8280POPC   PO450148  28.357   5.905   5.850
 8280POPC   GL150149  28.402   5.918   6.150
 8280POPC   GL250150  28.354   5.987   6.150
 8280POPC   C1A50151  28.355   5.823   6.450
 8280POPC   D2A50152  28.372   5.880   6.750
 8280POPC   C3A50153  28.323   5.827   7.050
 8280POPC   C4A50154  28.405   5.898   7.350
 8280POPC   C1B50155  28.326   6.151   6.450
 8280POPC   C2B50156  28.322   6.168   6.750
 8280POPC   C3B50157  28.349   6.116   7.050
 8280POPC   C4B50158  28.322   6.079   7.350
 8281POPC   NC350159  39.236   0.465   5.550
 8281POPC   PO450160  39.268   0.455   5.850
 8281POPC   GL150161  39.234   0.394   6.150
 8281POPC   GL250162  39.272   0.277   6.150
 8281POPC   C1A50163  39.271   0.449   6.450
 8281POPC   D2A50164  39.278   0.423   6.750
 8281POPC   C3A50165  39.201   0.481   7.050
 8281POPC   C4A50166  39.258   0.420   7.350
 8281POPC   C1B50167  39.231   0.210   6.450
 8281POPC   C2B50168  39.207   0.175   6.750
 8281POPC   C3B50169  39.222   0.148   7.050
 8281POPC   C4B50170  39.189   0.235   7.350
 8282POPC   NC350171  21.379  44.700   5.550
 8282POPC   PO450172  21.348  44.696   5.850
 8282POPC   GL150173  21.431  44.659   6.150
 8282POPC   GL250174  21.274  44.781   6.150
 8282POPC   C1A50175  21.359  44.697   6.450
 8282POPC   D2A50176  21.419  44.668   6.750
 8282POPC   C3A50177  21.411  44.660   7.050
 8282POPC   C4A50178  21.347  44.663   7.350
 8282POPC   C1B50179  21.222  44.888   6.450
 8282POPC   C2B50180  21.268  44.831   6.750
 8282POPC   C3B50181  21.247  44.910   7.050
 8282POPC   C4B50182  21.215  44.872   7.350
 8283POPC   NC350183   8.228   9.728   5.550
 8283POPC   PO450184   8.218   9.735   5.850
 8283POPC   GL150185   8.229   9.736   6.150
 8283POPC   GL250186   8.302   9.747   6.150
 8283POPC   C1A50187   8.172   9.725   6.450
 8283POPC   D2A50188   8.243   9.714   6.750
 8283POPC   C3A50189   8.147   9.789   7.050
 8283POPC   C4A50190   8.239   9.737   7.350
 8283POPC   C1B50191   8.425   9.780   6.450
 8283POPC   C2B50192   8.414   9.829   6.750
 8283POPC   C3B50193   8.411   9.772   7.050
 8283POPC   C4B50194   8.484   9.809   7.350
 8284POPC   NC350195  20.647  11.252   5.550
 8284POPC   PO450196  20.629  11.290   5.850
 8284POPC   GL150197  20.592  11.270   6.150
 8284POPC   GL250198  20.560  11.464   6.150
 8284POPC   C1A50199  20.592  11.266   6.450
 8284POPC   D2A50200  20.581  11.251   6.750
 8284POPC   C3A50201  20.641  11.345   7.050
 8284POPC   C4A50202  20.584  11.340   7.350
 8284POPC   C1B50203  20.613  11.503   6.450
 8284POPC   C2B50204  20.599  11.517   6.750
 8284POPC   C3B50205  20.619  11.541   7.050
 8284POPC   C4B50206  20.539  11.583   7.350
 8285POPC   NC350207  34.527  21.420   5.550
 8285POPC   PO450208  34.604  21.428   5.850
 8285POPC   GL150209  34.537  21.369   6.150
 8285POPC   GL250210  34.657  21.400   6.150
 8285POPC   C1A50211  34.589  21.381   6.450
 8285POPC   D2A50212  34.618  21.396   6.750
 8285POPC   C3A50213  34.619  21.381   7.050
 8285POPC   C4A50214  34.534  21.384   7.350
 8285POPC   C1B50215  34.806  21.446   6.450
 8285POPC   C2B50216  34.804  21.399   6.750
 8285POPC   C3B50217  34.799  21.456   7.050
 8285POPC   C4B50218  34.871  21.426   7.350
 8286POPC   NC350219  16.000  29.887   5.550
 8286POPC   PO450220  15.931  29.927   5.850
 8286POPC   GL150221  15.993  29.873   6.150
 8286POPC   GL250222  15.872  29.968   6.150
 8286POPC   C1A50223  15.973  29.963   6.450
 8286POPC   D2A50224  15.964  29.890   6.750
 8286POPC   C3A50225  15.939  29.964   7.050
 8286POPC   C4A50226  15.922  29.946   7.350
 8286POPC   C1B50227  15.711  30.091   6.450
 8286POPC   C2B50228  15.720  30.034   6.750
 8286POPC   C3B50229  15.762  30.086   7.050
 8286POPC   C4B50230  15.778  30.018   7.350
 8287POPC   NC350231  23.715  36.143   5.550
 8287POPC   PO450232  23.691  36.096   5.850
 8287POPC   GL150233  23.706  36.135   6.150
 8287POPC   GL250234  23.739  35.956   6.150
 8287POPC   C1A50235  23.716  36.125   6.450
 8287POPC   D2A50236  23.750  36.084   6.750
 8287POPC   C3A50237  23.693  36.094   7.050
 8287POPC   C4A50238  23.664  36.146   7.350
 8287POPC   C1B50239  23.716  35.876   6.450
 8287POPC   C2B50240  23.665  35.899   6.750
 8287POPC   C3B50241  23.680  35.859   7.050
 8287POPC   C4B50242  23.651  35.856   7.350
 8288POPC   NC350243  22.900  32.254   5.550
 8288POPC   PO450244  22.938  32.264   5.850
 8288POPC   GL150245  22.908  32.249   6.150
 8288POPC   GL250246  22.931  32.411   6.150
 8288POPC   C1A50247  22.933  32.278   6.450
 8288POPC   D2A50248  22.956  32.243   6.750
 8288POPC   C3A50249  22.894  32.231   7.050
 8288POPC   C4A50250  22.895  32.228   7.350
 8288POPC   C1B50251  22.890  32.525   6.450
 8288POPC   C2B50252  22.923  32.468   6.750
 8288POPC   C3B50253  22.931  32.530   7.050
 8288POPC   C4B50254  22.887  32.527   7.350
 8289POPC   NC350255  39.212  17.533   5.550
 8289POPC   PO450256  39.255  17.555   5.850
 8289POPC   GL150257  39.278  17.459   6.150
 8289POPC   GL250258  39.247  17.382   6.150
 8289POPC   C1A50259  39.220  17.508   6.450
 8289POPC   D2A50260  39.201  17.492   6.750
 8289POPC   C3A50261  39.215  17.522   7.050
 8289POPC   C4A50262  39.198  17.457   7.350
 8289POPC   C1B50263  39.323  17.232   6.450
 8289POPC   C2B50264  39.331  17.255   6.750
 8289POPC   C3B50265  39.335  17.250   7.050
 8289POPC   C4B50266  39.341  17.233   7.350
 8290POPC   NC350267  22.162   2.752   5.550
 8290POPC   PO450268  22.140   2.762   5.850
 8290POPC   GL150269  22.160   2.778   6.150
 8290POPC   GL250270  22.233   2.678   6.150
 8290POPC   C1A50271  22.174   2.732   6.450
 8290POPC   D2A50272  22.183   2.741   6.750
 8290POPC   C3A50273  22.172   2.761   7.050
 8290POPC   C4A50274  22.207   2.794   7.350
 8290POPC   C1B50275  22.287   2.545   6.450
 8290POPC   C2B50276  22.321   2.553   6.750
 8290POPC   C3B50277  22.269   2.550   7.050
 8290POPC   C4B50278  22.357   2.602   7.350
 8291POPC   NC350279  13.662   1.970   5.550
 8291POPC   PO450280  13.673   2.005   5.850
 8291POPC   GL150281  13.670   1.961   6.150
 8291POPC   GL250282  13.592   2.139   6.150
 8291POPC   C1A50283  13.641   1.962   6.450
 8291POPC   D2A50284  13.663   2.026   6.750
 8291POPC   C3A50285  13.594   1.970   7.050
 8291POPC   C4A50286  13.593   1.984   7.350
 8291POPC   C1B50287  13.605   2.269   6.450
 8291POPC   C2B50288  13.584   2.204   6.750
 8291POPC   C3B50289  13.572   2.195   7.050
 8291POPC   C4B50290  13.528   2.188   7.350
 8292POPC   NC350291  40.034  13.623   5.550
 8292POPC   PO450292  40.050  13.624   5.850
 8292POPC   GL150293  40.016  13.580   6.150
 8292POPC   GL250294  40.040  13.542   6.150
 8292POPC   C1A50295  39.995  13.612   6.450
 8292POPC   D2A50296  40.011  13.639   6.750
 8292POPC   C3A50297  40.023  13.641   7.050
 8292POPC   C4A50298  39.962  13.626   7.350
 8292POPC   C1B50299  40.032  13.372   6.450
 8292POPC   C2B50300  40.067  13.352   6.750
 8292POPC   C3B50301  40.048  13.405   7.050
 8292POPC   C4B50302  40.115  13.429   7.350
 8293POPC   NC350303   2.742   8.941   5.550
 8293POPC   PO450304   2.742   8.992   5.850
 8293POPC   GL150305   2.809   8.992   6.150
 8293POPC   GL250306   2.853   8.858   6.150
 8293POPC   C1A50307   2.727   9.002   6.450
 8293POPC   D2A50308   2.741   9.000   6.750
 8293POPC   C3A50309   2.732   9.021   7.050
 8293POPC   C4A50310   2.779   9.008   7.350
 8293POPC   C1B50311   2.865   8.741   6.450
 8293POPC   C2B50312   2.928   8.787   6.750
 8293POPC   C3B50313   2.938   8.722   7.050
 8293POPC   C4B50314   2.931   8.800   7.350
 8294POPC   NC350315  35.357  33.788   5.550
 8294POPC   PO450316  35.364  33.754   5.850
 8294POPC   GL150317  35.372  33.759   6.150
 8294POPC   GL250318  35.259  33.769   6.150
 8294POPC   C1A50319  35.337  33.824   6.450
 8294POPC   D2A50320  35.319  33.837   6.750
 8294POPC   C3A50321  35.304  33.760   7.050
 8294POPC   C4A50322  35.376  33.812   7.350
 8294POPC   C1B50323  35.142  33.769   6.450
 8294POPC   C2B50324  35.095  33.760   6.750
 8294POPC   C3B50325  35.112  33.759   7.050
 8294POPC   C4B50326  35.106  33.693   7.350
 8295POPC   NC350327  32.207  20.646   5.550
 8295POPC   PO450328  32.295  20.653   5.850
 8295POPC   GL150329  32.215  20.591   6.150
 8295POPC   GL250330  32.217  20.487   6.150
 8295POPC   C1A50331  32.229  20.591   6.450
 8295POPC   D2A50332  32.254  20.626   6.750
 8295POPC   C3A50333  32.217  20.622   7.050
 8295POPC   C4A50334  32.221  20.605   7.350
 8295POPC   C1B50335  32.143  20.373   6.450
 8295POPC   C2B50336  32.220  20.396   6.750
 8295POPC   C3B50337  32.138  20.367   7.050
 8295POPC   C4B50338  32.208  20.349   7.350
 8296POPC   NC350339   4.338  36.164   5.550
 8296POPC   PO450340   4.282  36.165   5.850
 8296POPC   GL150341   4.345  36.136   6.150
 8296POPC   GL250342   4.338  36.253   6.150
 8296POPC   C1A50343   4.280  36.150   6.450
 8296POPC   D2A50344   4.342  36.110   6.750
 8296POPC   C3A50345   4.287  36.128   7.050
 8296POPC   C4A50346   4.270  36.131   7.350
 8296POPC   C1B50347   4.401  36.356   6.450
 8296POPC   C2B50348   4.436  36.411   6.750
 8296POPC   C3B50349   4.357  36.351   7.050
 8296POPC   C4B50350   4.362  36.386   7.350
 8297POPC   NC350351  26.045  27.575   5.550
 8297POPC   PO450352  26.020  27.642   5.850
 8297POPC   GL150353  26.059  27.581   6.150
 8297POPC   GL250354  26.098  27.736   6.150
 8297POPC   C1A50355  26.001  27.642   6.450
 8297POPC   D2A50356  26.003  27.641   6.750
 8297POPC   C3A50357  25.995  27.628   7.050
 8297POPC   C4A50358  26.026  27.583   7.350
 8297POPC   C1B50359  26.108  27.861   6.450
 8297POPC   C2B50360  26.023  27.842   6.750
 8297POPC   C3B50361  26.079  27.813   7.050
 8297POPC   C4B50362  26.049  27.812   7.350
 8298POPC   NC350363  14.446  40.054   5.550
 8298POPC   PO450364  14.357  40.038   5.850
 8298POPC   GL150365  14.384  39.968   6.150
 8298POPC   GL250366  14.513  39.901   6.150
 8298POPC   C1A50367  14.375  40.050   6.450
 8298POPC   D2A50368  14.421  40.000   6.750
 8298POPC   C3A50369  14.422  39.991   7.050
 8298POPC   C4A50370  14.433  40.025   7.350
 8298POPC   C1B50371  14.648  39.854   6.450
 8298POPC   C2B50372  14.610  39.893   6.750
 8298POPC   C3B50373  14.636  39.815   7.050
 8298POPC   C4B50374  14.603  39.849   7.350
 8299POPC   NC350375  42.331  11.297   5.550
 8299POPC   PO450376  42.374  11.338   5.850
 8299POPC   GL150377  42.302  11.287   6.150
 8299POPC   GL250378  42.395  11.389   6.150
 8299POPC   C1A50379  42.322  11.256   6.450
 8299POPC   D2A50380  42.336  11.273   6.750
 8299POPC   C3A50381  42.316  11.329   7.050
 8299POPC   C4A50382  42.374  11.290   7.350
 8299POPC   C1B50383  42.451  11.494   6.450
 8299POPC   C2B50384  42.511  11.486   6.750
 8299POPC   C3B50385  42.445  11.489   7.050
 8299POPC   C4B50386  42.494  11.467   7.350
 8300POPC   NC350387   2.729  22.178   5.550
 8300POPC   PO450388   2.772  22.158   5.850
 8300POPC   GL150389   2.790  22.164   6.150
 8300POPC   GL250390   2.765  22.299   6.150
 8300POPC   C1A50391   2.806  22.123   6.450
 8300POPC   D2A50392   2.762  22.199   6.750
 8300POPC   C3A50393   2.726  22.165   7.050
 8300POPC   C4A50394   2.745  22.182   7.350
 8300POPC   C1B50395   2.817  22.426   6.450
 8300POPC   C2B50396   2.820  22.402   6.750
 8300POPC   C3B50397   2.888  22.343   7.050
 8300POPC   C4B50398   2.857  22.381   7.350
 8301POPC   NC350399  42.334  25.218   5.550
 8301POPC   PO450400  42.309  25.280   5.850
 8301POPC   GL150401  42.314  25.224   6.150
 8301POPC   GL250402  42.463  25.337   6.150
 8301POPC   C1A50403  42.303  25.256   6.450
 8301POPC   D2A50404  42.366  25.274   6.750
 8301POPC   C3A50405  42.338  25.290   7.050
 8301POPC   C4A50406  42.372  25.290   7.350
 8301POPC   C1B50407  42.566  25.336   6.450
 8301POPC   C2B50408  42.506  25.432   6.750
 8301POPC   C3B50409  42.596  25.354   7.050
 8301POPC   C4B50410  42.601  25.365   7.350
 8302POPC   NC350411  37.636   9.721   5.550
 8302POPC   PO450412  37.696   9.743   5.850
 8302POPC   GL150413  37.648   9.745   6.150
 8302POPC   GL250414  37.703   9.622   6.150
 8302POPC   C1A50415  37.725   9.775   6.450
 8302POPC   D2A50416  37.723   9.729   6.750
 8302POPC   C3A50417  37.708   9.774   7.050
 8302POPC   C4A50418  37.659   9.773   7.350
 8302POPC   C1B50419  37.649   9.497   6.450
 8302POPC   C2B50420  37.708   9.483   6.750
 8302POPC   C3B50421  37.711   9.507   7.050
 8302POPC   C4B50422  37.663   9.499   7.350
 8303POPC   NC350423  28.328   8.943   5.550
 8303POPC   PO450424  28.379   8.970   5.850
 8303POPC   GL150425  28.394   8.966   6.150
 8303POPC   GL250426  28.384   8.864   6.150
 8303POPC   C1A50427  28.379   8.964   6.450
 8303POPC   D2A50428  28.356   8.996   6.750
 8303POPC   C3A50429  28.367   8.929   7.050
 8303POPC   C4A50430  28.352   9.013   7.350
 8303POPC   C1B50431  28.404   8.742   6.450
 8303POPC   C2B50432  28.446   8.781   6.750
 8303POPC   C3B50433  28.460   8.782   7.050
 8303POPC   C4B50434  28.419   8.710   7.350
 8304POPC   NC350435  22.919  40.042   5.550
 8304POPC   PO450436  22.907  40.026   5.850
 8304POPC   GL150437  22.926  40.010   6.150
 8304POPC   GL250438  23.018  39.942   6.150
 8304POPC   C1A50439  22.982  39.969   6.450
 8304POPC   D2A50440  22.974  39.983   6.750
 8304POPC   C3A50441  22.958  40.054   7.050
 8304POPC   C4A50442  22.985  40.003   7.350
 8304POPC   C1B50443  23.207  39.957   6.450
 8304POPC   C2B50444  23.147  39.931   6.750
 8304POPC   C3B50445  23.217  39.923   7.050
 8304POPC   C4B50446  23.206  39.936   7.350
 8305POPC   NC350447   1.979  25.265   5.550
 8305POPC   PO450448   1.988  25.276   5.850
 8305POPC   GL150449   1.946  25.271   6.150
 8305POPC   GL250450   2.015  25.181   6.150
 8305POPC   C1A50451   1.955  25.254   6.450
 8305POPC   D2A50452   1.997  25.260   6.750
 8305POPC   C3A50453   2.039  25.288   7.050
 8305POPC   C4A50454   1.986  25.307   7.350
 8305POPC   C1B50455   1.976  25.014   6.450
 8305POPC   C2B50456   1.974  25.000   6.750
 8305POPC   C3B50457   1.990  25.013   7.050
 8305POPC   C4B50458   1.908  25.052   7.350
 8306POPC   NC350459   2.718  11.276   5.550
 8306POPC   PO450460   2.760  11.296   5.850
 8306POPC   GL150461   2.754  11.319   6.150
 8306POPC   GL250462   2.923  11.311   6.150
 8306POPC   C1A50463   2.791  11.296   6.450
 8306POPC   D2A50464   2.756  11.341   6.750
 8306POPC   C3A50465   2.735  11.281   7.050
 8306POPC   C4A50466   2.785  11.299   7.350
 8306POPC   C1B50467   3.002  11.280   6.450
 8306POPC   C2B50468   3.035  11.264   6.750
 8306POPC   C3B50469   3.027  11.248   7.050
 8306POPC   C4B50470   2.997  11.213   7.350
 8307POPC   NC350471  19.790  22.979   5.550
 8307POPC   PO450472  19.826  22.917   5.850
 8307POPC   GL150473  19.821  22.899   6.150
 8307POPC   GL250474  19.835  22.784   6.150
 8307POPC   C1A50475  19.831  22.915   6.450
 8307POPC   D2A50476  19.811  22.904   6.750
 8307POPC   C3A50477  19.808  22.973   7.050
 8307POPC   C4A50478  19.828  22.894   7.350
 8307POPC   C1B50479  19.875  22.683   6.450
 8307POPC   C2B50480  19.895  22.644   6.750
 8307POPC   C3B50481  19.894  22.686   7.050
 8307POPC   C4B50482  19.817  22.737   7.350
 8308POPC   NC350483   9.018  34.532   5.550
 8308POPC   PO450484   9.002  34.545   5.850
 8308POPC   GL150485   8.992  34.532   6.150
 8308POPC   GL250486   9.083  34.423   6.150
 8308POPC   C1A50487   8.945  34.623   6.450
 8308POPC   D2A50488   8.950  34.595   6.750
 8308POPC   C3A50489   8.972  34.597   7.050
 8308POPC   C4A50490   8.974  34.604   7.350
 8308POPC   C1B50491   9.102  34.355   6.450
 8308POPC   C2B50492   9.068  34.363   6.750
 8308POPC   C3B50493   9.129  34.357   7.050
 8308POPC   C4B50494   9.074  34.361   7.350
 8309POPC   NC350495  39.217  38.468   5.550
 8309POPC   PO450496  39.270  38.470   5.850
 8309POPC   GL150497  39.225  38.418   6.150
 8309POPC   GL250498  39.109  38.371   6.150
 8309POPC   C1A50499  39.253  38.435   6.450
 8309POPC   D2A50500  39.251  38.438   6.750
 8309POPC   C3A50501  39.225  38.483   7.050
 8309POPC   C4A50502  39.224  38.488   7.350
 8309POPC   C1B50503  39.045  38.248   6.450
 8309POPC   C2B50504  39.017  38.289   6.750
 8309POPC   C3B50505  39.043  38.252   7.050
 8309POPC   C4B50506  39.051  38.296   7.350
 8310POPC   NC350507  12.873  12.109   5.550
 8310POPC   PO450508  12.834  12.082   5.850
 8310POPC   GL150509  12.852  12.063   6.150
 8310POPC   GL250510  12.929  12.169   6.150
 8310POPC   C1A50511  12.807  12.037   6.450
 8310POPC   D2A50512  12.810  12.049   6.750
 8310POPC   C3A50513  12.888  12.057   7.050
 8310POPC   C4A50514  12.809  12.081   7.350
 8310POPC   C1B50515  12.975  12.274   6.450
 8310POPC   C2B50516  12.908  12.307   6.750
 8310POPC   C3B50517  12.983  12.275   7.050
 8310POPC   C4B50518  12.988  12.282   7.350
 8311POPC   NC350519  19.874   5.075   5.550
 8311POPC   PO450520  19.849   5.079   5.850
 8311POPC   GL150521  19.820   5.065   6.150
 8311POPC   GL250522  19.967   5.051   6.150
 8311POPC   C1A50523  19.875   5.050   6.450
 8311POPC   D2A50524  19.850   5.067   6.750
 8311POPC   C3A50525  19.870   5.103   7.050
 8311POPC   C4A50526  19.808   5.063   7.350
 8311POPC   C1B50527  20.085   5.039   6.450
 8311POPC   C2B50528  20.023   5.044   6.750
 8311POPC   C3B50529  20.088   5.039   7.050
 8311POPC   C4B50530  20.070   5.033   7.350
 8312POPC   NC350531  20.584  33.832   5.550
 8312POPC   PO450532  20.599  33.834   5.850
 8312POPC   GL150533  20.623  33.796   6.150
 8312POPC   GL250534  20.461  33.816   6.150
 8312POPC   C1A50535  20.583  33.759   6.450
 8312POPC   D2A50536  20.631  33.796   6.750
 8312POPC   C3A50537  20.659  33.792   7.050
 8312POPC   C4A50538  20.586  33.840   7.350
 8312POPC   C1B50539  20.330  33.893   6.450
 8312POPC   C2B50540  20.424  33.893   6.750
 8312POPC   C3B50541  20.421  33.923   7.050
 8312POPC   C4B50542  20.421  33.843   7.350
 8313POPC   NC350543  19.829   1.191   5.550
 8313POPC   PO450544  19.830   1.257   5.850
 8313POPC   GL150545  19.830   1.218   6.150
 8313POPC   GL250546  19.666   1.196   6.150
 8313POPC   C1A50547  19.854   1.215   6.450
 8313POPC   D2A50548  19.867   1.206   6.750
 8313POPC   C3A50549  19.856   1.180   7.050
 8313POPC   C4A50550  19.840   1.192   7.350
 8313POPC   C1B50551  19.571   1.179   6.450
 8313POPC   C2B50552  19.539   1.246   6.750
 8313POPC   C3B50553  19.609   1.193   7.050
 8313POPC   C4B50554  19.627   1.221   7.350
 8314POPC   NC350555  44.616  12.059   5.550
 8314POPC   PO450556  44.632  12.103   5.850
 8314POPC   GL150557  44.643  12.126   6.150
 8314POPC   GL250558  44.663  12.145   6.150
 8314POPC   C1A50559  44.630  12.079   6.450
 8314POPC   D2A50560  44.673  12.108   6.750
 8314POPC   C3A50561  44.615  12.108   7.050
 8314POPC   C4A50562  44.677  12.067   7.350
 8314POPC   C1B50563  44.786  12.354   6.450
 8314POPC   C2B50564  44.787  12.318   6.750
 8314POPC   C3B50565  44.791  12.310   7.050
 8314POPC   C4B50566  44.762  12.326   7.350
 8315POPC   NC350567   0.453   8.199   5.550
 8315POPC   PO450568   0.456   8.226   5.850
 8315POPC   GL150569   0.472   8.219   6.150
 8315POPC   GL250570   0.416   8.327   6.150
 8315POPC   C1A50571   0.455   8.231   6.450
 8315POPC   D2A50572   0.405   8.191   6.750
 8315POPC   C3A50573   0.396   8.224   7.050
 8315POPC   C4A50574   0.414   8.179   7.350
 8315POPC   C1B50575   0.460   8.441   6.450
 8315POPC   C2B50576   0.524   8.434   6.750
 8315POPC   C3B50577   0.519   8.440   7.050
 8315POPC   C4B50578   0.524   8.432   7.350
 8316POPC   NC350579  36.913  11.273   5.550
 8316POPC   PO450580  36.947  11.322   5.850
 8316POPC   GL150581  36.892  11.344   6.150
 8316POPC   GL250582  36.788  11.264   6.150
 8316POPC   C1A50583  36.951  11.295   6.450
 8316POPC   D2A50584  36.902  11.280   6.750
 8316POPC   C3A50585  36.919  11.331   7.050
 8316POPC   C4A50586  36.860  11.325   7.350
 8316POPC   C1B50587  36.667  11.174   6.450
 8316POPC   C2B50588  36.730  11.115   6.750
 8316POPC   C3B50589  36.715  11.123   7.050
 8316POPC   C4B50590  36.682  11.156   7.350
 8317POPC   NC350591  43.116   8.966   5.550
 8317POPC   PO450592  43.092   8.933   5.850
 8317POPC   GL150593  43.148   8.979   6.150
 8317POPC   GL250594  43.157   8.921   6.150
 8317POPC   C1A50595  43.066   8.954   6.450
 8317POPC   D2A50596  43.084   9.005   6.750
 8317POPC   C3A50597  43.075   8.928   7.050
 8317POPC   C4A50598  43.110   8.965   7.350
 8317POPC   C1B50599  43.315   8.804   6.450
 8317POPC   C2B50600  43.280   8.826   6.750
 8317POPC   C3B50601  43.274   8.768   7.050
 8317POPC   C4B50602  43.311   8.809   7.350
 8318POPC   NC350603  31.483   5.828   5.550
 8318POPC   PO450604  31.473   5.880   5.850
 8318POPC   GL150605  31.451   5.828   6.150
 8318POPC   GL250606  31.495   5.995   6.150
 8318POPC   C1A50607  31.431   5.914   6.450
 8318POPC   D2A50608  31.447   5.886   6.750
 8318POPC   C3A50609  31.465   5.830   7.050
 8318POPC   C4A50610  31.456   5.847   7.350
 8318POPC   C1B50611  31.476   6.066   6.450
 8318POPC   C2B50612  31.393   6.097   6.750
 8318POPC   C3B50613  31.445   6.140   7.050
 8318POPC   C4B50614  31.453   6.154   7.350
 8319POPC   NC350615  26.808   6.657   5.550
 8319POPC   PO450616  26.811   6.641   5.850
 8319POPC   GL150617  26.796   6.604   6.150
 8319POPC   GL250618  26.715   6.741   6.150
 8319POPC   C1A50619  26.799   6.622   6.450
 8319POPC   D2A50620  26.775   6.628   6.750
 8319POPC   C3A50621  26.811   6.610   7.050
 8319POPC   C4A50622  26.821   6.614   7.350
 8319POPC   C1B50623  26.665   6.802   6.450
 8319POPC   C2B50624  26.657   6.806   6.750
 8319POPC   C3B50625  26.670   6.821   7.050
 8319POPC   C4B50626  26.593   6.791   7.350
 8320POPC   NC350627   3.559  20.580   5.550
 8320POPC   PO450628   3.495  20.655   5.850
 8320POPC   GL150629   3.513  20.633   6.150
 8320POPC   GL250630   3.412  20.708   6.150
 8320POPC   C1A50631   3.527  20.646   6.450
 8320POPC   D2A50632   3.587  20.640   6.750
 8320POPC   C3A50633   3.552  20.604   7.050
 8320POPC   C4A50634   3.508  20.637   7.350
 8320POPC   C1B50635   3.354  20.800   6.450
 8320POPC   C2B50636   3.348  20.765   6.750
 8320POPC   C3B50637   3.409  20.744   7.050
 8320POPC   C4B50638   3.349  20.776   7.350
 8321POPC   NC350639  29.964  17.459   5.550
 8321POPC   PO450640  29.948  17.524   5.850
 8321POPC   GL150641  29.926  17.464   6.150
 8321POPC   GL250642  30.006  17.602   6.150
 8321POPC   C1A50643  29.882  17.537   6.450
 8321POPC   D2A50644  29.927  17.502   6.750
 8321POPC   C3A50645  29.879  17.546   7.050
 8321POPC   C4A50646  29.953  17.526   7.350
 8321POPC   C1B50647  30.060  17.738   6.450
 8321POPC   C2B50648  30.079  17.734   6.750
 8321POPC   C3B50649  30.063  17.699   7.050
 8321POPC   C4B50650  30.093  17.712   7.350
 8322POPC   NC350651  38.441  12.040   5.550
 8322POPC   PO450652  38.442  12.069   5.850
 8322POPC   GL150653  38.502  12.103   6.150
 8322POPC   GL250654  38.583  11.981   6.150
 8322POPC   C1A50655  38.435  12.055   6.450
 8322POPC   D2A50656  38.438  12.072   6.750
 8322POPC   C3A50657  38.458  12.069   7.050
 8322POPC   C4A50658  38.491  12.114   7.350
 8322POPC   C1B50659  38.597  11.907   6.450
 8322POPC   C2B50660  38.685  11.954   6.750
 8322POPC   C3B50661  38.682  11.866   7.050
 8322POPC   C4B50662  38.631  11.909   7.350
 8323POPC   NC350663   3.515   2.793   5.550
 8323POPC   PO450664   3.572   2.782   5.850
 8323POPC   GL150665   3.512   2.803   6.150
 8323POPC   GL250666   3.716   2.807   6.150
 8323POPC   C1A50667   3.580   2.751   6.450
 8323POPC   D2A50668   3.557   2.771   6.750
 8323POPC   C3A50669   3.588   2.804   7.050
 8323POPC   C4A50670   3.576   2.720   7.350
 8323POPC   C1B50671   3.777   2.726   6.450
 8323POPC   C2B50672   3.828   2.800   6.750
 8323POPC   C3B50673   3.807   2.723   7.050
 8323POPC   C4B50674   3.810   2.765   7.350
 8324POPC   NC350675  31.486  12.886   5.550
 8324POPC   PO450676  31.443  12.867   5.850
 8324POPC   GL150677  31.454  12.816   6.150
 8324POPC   GL250678  31.458  12.926   6.150
 8324POPC   C1A50679  31.507  12.873   6.450
 8324POPC   D2A50680  31.450  12.879   6.750
 8324POPC   C3A50681  31.475  12.898   7.050
 8324POPC   C4A50682  31.515  12.840   7.350
 8324POPC   C1B50683  31.542  13.128   6.450
 8324POPC   C2B50684  31.468  13.099   6.750
 8324POPC   C3B50685  31.490  13.078   7.050
 8324POPC   C4B50686  31.489  13.107   7.350
 8325POPC   NC350687  41.583  24.474   5.550
 8325POPC   PO450688  41.568  24.465   5.850
 8325POPC   GL150689  41.527  24.500   6.150
 8325POPC   GL250690  41.482  24.605   6.150
 8325POPC   C1A50691  41.571  24.535   6.450
 8325POPC   D2A50692  41.601  24.535   6.750
 8325POPC   C3A50693  41.540  24.501   7.050
 8325POPC   C4A50694  41.595  24.521   7.350
 8325POPC   C1B50695  41.498  24.681   6.450
 8325POPC   C2B50696  41.473  24.760   6.750
 8325POPC   C3B50697  41.470  24.746   7.050
 8325POPC   C4B50698  41.422  24.742   7.350
 8326POPC   NC350699  17.480  12.844   5.550
 8326POPC   PO450700  17.479  12.809   5.850
 8326POPC   GL150701  17.535  12.869   6.150
 8326POPC   GL250702  17.486  12.937   6.150
 8326POPC   C1A50703  17.461  12.828   6.450
 8326POPC   D2A50704  17.503  12.816   6.750
 8326POPC   C3A50705  17.485  12.858   7.050
 8326POPC   C4A50706  17.502  12.890   7.350
 8326POPC   C1B50707  17.518  13.132   6.450
 8326POPC   C2B50708  17.530  13.106   6.750
 8326POPC   C3B50709  17.451  13.085   7.050
 8326POPC   C4B50710  17.453  13.062   7.350
 8327POPC   NC350711   1.221  22.973   5.550
 8327POPC   PO450712   1.252  22.965   5.850
 8327POPC   GL150713   1.185  22.934   6.150
 8327POPC   GL250714   1.054  23.005   6.150
 8327POPC   C1A50715   1.200  22.956   6.450
 8327POPC   D2A50716   1.214  22.932   6.750
 8327POPC   C3A50717   1.166  22.943   7.050
 8327POPC   C4A50718   1.241  22.988   7.350
 8327POPC   C1B50719   0.965  22.997   6.450
 8327POPC   C2B50720   0.954  23.021   6.750
 8327POPC   C3B50721   0.954  23.041   7.050
 8327POPC   C4B50722   0.985  23.021   7.350
 8328POPC   NC350723  43.117   2.750   5.550
 8328POPC   PO450724  43.093   2.814   5.850
 8328POPC   GL150725  43.099   2.759   6.150
 8328POPC   GL250726  43.263   2.797   6.150
 8328POPC   C1A50727  43.062   2.765   6.450
 8328POPC   D2A50728  43.082   2.720   6.750
 8328POPC   C3A50729  43.072   2.794   7.050
 8328POPC   C4A50730  43.159   2.764   7.350
 8328POPC   C1B50731  43.401   2.712   6.450
 8328POPC   C2B50732  43.361   2.718   6.750
 8328POPC   C3B50733  43.345   2.762   7.050
 8328POPC   C4B50734  43.333   2.723   7.350
 8329POPC   NC350735   1.201  36.940   5.550
 8329POPC   PO450736   1.178  36.880   5.850
 8329POPC   GL150737   1.182  36.894   6.150
 8329POPC   GL250738   1.218  36.993   6.150
 8329POPC   C1A50739   1.209  36.928   6.450
 8329POPC   D2A50740   1.233  36.942   6.750
 8329POPC   C3A50741   1.229  36.901   7.050
 8329POPC   C4A50742   1.200  36.898   7.350
 8329POPC   C1B50743   1.195  37.153   6.450
 8329POPC   C2B50744   1.189  37.128   6.750
 8329POPC   C3B50745   1.232  37.116   7.050
 8329POPC   C4B50746   1.217  37.126   7.350
 8330POPC   NC350747   2.765   9.758   5.550
 8330POPC   PO450748   2.804   9.773   5.850
 8330POPC   GL150749   2.776   9.761   6.150
 8330POPC   GL250750   2.652   9.717   6.150
 8330POPC   C1A50751   2.758   9.723   6.450
 8330POPC   D2A50752   2.774   9.732   6.750
 8330POPC   C3A50753   2.747   9.722   7.050
 8330POPC   C4A50754   2.753   9.785   7.350
 8330POPC   C1B50755   2.507   9.657   6.450
 8330POPC   C2B50756   2.555   9.734   6.750
 8330POPC   C3B50757   2.513   9.658   7.050
 8330POPC   C4B50758   2.538   9.665   7.350
 8331POPC   NC350759  39.254  19.823   5.550
 8331POPC   PO450760  39.227  19.864   5.850
 8331POPC   GL150761  39.242  19.788   6.150
 8331POPC   GL250762  39.199  19.706   6.150
 8331POPC   C1A50763  39.190  19.853   6.450
 8331POPC   D2A50764  39.205  19.829   6.750
 8331POPC   C3A50765  39.213  19.819   7.050
 8331POPC   C4A50766  39.189  19.856   7.350
 8331POPC   C1B50767  39.219  19.543   6.450
 8331POPC   C2B50768  39.204  19.592   6.750
 8331POPC   C3B50769  39.233  19.564   7.050
 8331POPC   C4B50770  39.228  19.617   7.350
 8332POPC   NC350771  30.700  29.131   5.550
 8332POPC   PO450772  30.666  29.156   5.850
 8332POPC   GL150773  30.673  29.113   6.150
 8332POPC   GL250774  30.546  29.247   6.150
 8332POPC   C1A50775  30.735  29.176   6.450
 8332POPC   D2A50776  30.682  29.137   6.750
 8332POPC   C3A50777  30.717  29.159   7.050
 8332POPC   C4A50778  30.647  29.152   7.350
 8332POPC   C1B50779  30.509  29.301   6.450
 8332POPC   C2B50780  30.458  29.232   6.750
 8332POPC   C3B50781  30.517  29.272   7.050
 8332POPC   C4B50782  30.438  29.283   7.350
 8333POPC   NC350783  42.322  15.925   5.550
 8333POPC   PO450784  42.366  15.958   5.850
 8333POPC   GL150785  42.335  15.951   6.150
 8333POPC   GL250786  42.313  16.105   6.150
 8333POPC   C1A50787  42.350  15.961   6.450
 8333POPC   D2A50788  42.341  15.954   6.750
 8333POPC   C3A50789  42.285  15.925   7.050
 8333POPC   C4A50790  42.364  15.997   7.350
 8333POPC   C1B50791  42.343  16.183   6.450
 8333POPC   C2B50792  42.354  16.180   6.750
 8333POPC   C3B50793  42.358  16.170   7.050
 8333POPC   C4B50794  42.407  16.248   7.350
 8334POPC   NC350795  16.707  11.291   5.550
 8334POPC   PO450796  16.743  11.276   5.850
 8334POPC   GL150797  16.687  11.299   6.150
 8334POPC   GL250798  16.669  11.378   6.150
 8334POPC   C1A50799  16.763  11.344   6.450
 8334POPC   D2A50800  16.771  11.264   6.750
 8334POPC   C3A50801  16.685  11.314   7.050
 8334POPC   C4A50802  16.754  11.292   7.350
 8334POPC   C1B50803  16.699  11.532   6.450
 8334POPC   C2B50804  16.675  11.513   6.750
 8334POPC   C3B50805  16.678  11.575   7.050
 8334POPC   C4B50806  16.654  11.510   7.350
 8335POPC   NC350807  31.511  27.573   5.550
 8335POPC   PO450808  31.429  27.573   5.850
 8335POPC   GL150809  31.463  27.605   6.150
 8335POPC   GL250810  31.502  27.458   6.150
 8335POPC   C1A50811  31.465  27.640   6.450
 8335POPC   D2A50812  31.466  27.635   6.750
 8335POPC   C3A50813  31.448  27.589   7.050
 8335POPC   C4A50814  31.506  27.597   7.350
 8335POPC   C1B50815  31.560  27.349   6.450
 8335POPC   C2B50816  31.628  27.323   6.750
 8335POPC   C3B50817  31.592  27.365   7.050
 8335POPC   C4B50818  31.594  27.344   7.350
 8336POPC   NC350819  42.346  19.036   5.550
 8336POPC   PO450820  42.345  19.071   5.850
 8336POPC   GL150821  42.368  19.039   6.150
 8336POPC   GL250822  42.262  18.976   6.150
 8336POPC   C1A50823  42.333  19.075   6.450
 8336POPC   D2A50824  42.306  19.072   6.750
 8336POPC   C3A50825  42.346  19.063   7.050
 8336POPC   C4A50826  42.335  19.095   7.350
 8336POPC   C1B50827  42.116  18.875   6.450
 8336POPC   C2B50828  42.170  18.880   6.750
 8336POPC   C3B50829  42.182  18.864   7.050
 8336POPC   C4B50830  42.109  18.855   7.350
 8337POPC   NC350831   8.924  19.100   5.550
 8337POPC   PO450832   8.944  19.024   5.850
 8337POPC   GL150833   8.971  19.038   6.150
 8337POPC   GL250834   9.034  18.927   6.150
 8337POPC   C1A50835   8.945  19.090   6.450
 8337POPC   D2A50836   9.000  19.043   6.750
 8337POPC   C3A50837   8.991  19.082   7.050
 8337POPC   C4A50838   8.956  19.033   7.350
 8337POPC   C1B50839   9.202  18.936   6.450
 8337POPC   C2B50840   9.164  18.850   6.750
 8337POPC   C3B50841   9.203  18.892   7.050
 8337POPC   C4B50842   9.123  18.851   7.350
 8338POPC   NC350843  11.286  39.981   5.550
 8338POPC   PO450844  11.291  40.034   5.850
 8338POPC   GL150845  11.345  40.056   6.150
 8338POPC   GL250846  11.319  40.130   6.150
 8338POPC   C1A50847  11.277  40.018   6.450
 8338POPC   D2A50848  11.292  39.999   6.750
 8338POPC   C3A50849  11.325  39.981   7.050
 8338POPC   C4A50850  11.283  40.036   7.350
 8338POPC   C1B50851  11.236  40.209   6.450
 8338POPC   C2B50852  11.321  40.251   6.750
 8338POPC   C3B50853  11.251  40.282   7.050
 8338POPC   C4B50854  11.261  40.214   7.350
 8339POPC   NC350855  16.771   9.787   5.550
 8339POPC   PO450856  16.746   9.758   5.850
 8339POPC   GL150857  16.770   9.707   6.150
 8339POPC   GL250858  16.767   9.653   6.150
 8339POPC   C1A50859  16.765   9.756   6.450
 8339POPC   D2A50860  16.747   9.704   6.750
 8339POPC   C3A50861  16.757   9.778   7.050
 8339POPC   C4A50862  16.739   9.738   7.350
 8339POPC   C1B50863  16.730   9.453   6.450
 8339POPC   C2B50864  16.782   9.475   6.750
 8339POPC   C3B50865  16.733   9.466   7.050
 8339POPC   C4B50866  16.794   9.516   7.350
 8340POPC   NC350867  38.501   8.949   5.550
 8340POPC   PO450868  38.441   8.976   5.850
 8340POPC   GL150869  38.426   8.963   6.150
 8340POPC   GL250870  38.523   9.115   6.150
 8340POPC   C1A50871  38.492   8.953   6.450
 8340POPC   D2A50872  38.440   8.996   6.750
 8340POPC   C3A50873  38.450   8.965   7.050
 8340POPC   C4A50874  38.416   8.966   7.350
 8340POPC   C1B50875  38.519   9.237   6.450
 8340POPC   C2B50876  38.468   9.219   6.750
 8340POPC   C3B50877  38.507   9.246   7.050
 8340POPC   C4B50878  38.519   9.220   7.350
 8341POPC   NC350879  32.997  12.882   5.550
 8341POPC   PO450880  33.033  12.844   5.850
 8341POPC   GL150881  32.994  12.831   6.150
 8341POPC   GL250882  33.103  12.971   6.150
 8341POPC   C1A50883  33.002  12.823   6.450
 8341POPC   D2A50884  33.025  12.887   6.750
 8341POPC   C3A50885  33.072  12.817   7.050
 8341POPC   C4A50886  33.041  12.847   7.350
 8341POPC   C1B50887  33.165  13.005   6.450
 8341POPC   C2B50888  33.176  13.015   6.750
 8341POPC   C3B50889  33.215  12.983   7.050
 8341POPC   C4B50890  33.238  13.023   7.350
 8342POPC   NC350891  38.421  26.826   5.550
 8342POPC   PO450892  38.480  26.818   5.850
 8342POPC   GL150893  38.454  26.849   6.150
 8342POPC   GL250894  38.504  26.721   6.150
 8342POPC   C1A50895  38.443  26.822   6.450
 8342POPC   D2A50896  38.487  26.809   6.750
 8342POPC   C3A50897  38.460  26.850   7.050
 8342POPC   C4A50898  38.459  26.851   7.350
 8342POPC   C1B50899  38.590  26.614   6.450
 8342POPC   C2B50900  38.642  26.630   6.750
 8342POPC   C3B50901  38.648  26.611   7.050
 8342POPC   C4B50902  38.619  26.666   7.350
 8343POPC   NC350903  39.979  31.505   5.550
 8343POPC   PO450904  40.015  31.506   5.850
 8343POPC   GL150905  39.982  31.440   6.150
 8343POPC   GL250906  39.962  31.392   6.150
 8343POPC   C1A50907  40.027  31.472   6.450
 8343POPC   D2A50908  40.036  31.487   6.750
 8343POPC   C3A50909  39.998  31.437   7.050
 8343POPC   C4A50910  39.968  31.473   7.350
 8343POPC   C1B50911  39.880  31.285   6.450
 8343POPC   C2B50912  39.890  31.300   6.750
 8343POPC   C3B50913  39.931  31.286   7.050
 8343POPC   C4B50914  39.931  31.267   7.350
 8344POPC   NC350915  22.924   8.158   5.550
 8344POPC   PO450916  22.959   8.187   5.850
 8344POPC   GL150917  22.972   8.223   6.150
 8344POPC   GL250918  22.998   8.311   6.150
 8344POPC   C1A50919  22.981   8.195   6.450
 8344POPC   D2A50920  22.974   8.221   6.750
 8344POPC   C3A50921  22.915   8.240   7.050
 8344POPC   C4A50922  22.966   8.185   7.350
 8344POPC   C1B50923  23.015   8.450   6.450
 8344POPC   C2B50924  23.020   8.411   6.750
 8344POPC   C3B50925  23.022   8.383   7.050
 8344POPC   C4B50926  23.029   8.395   7.350
 8345POPC   NC350927  37.689  35.354   5.550
 8345POPC   PO450928  37.711  35.381   5.850
 8345POPC   GL150929  37.642  35.386   6.150
 8345POPC   GL250930  37.581  35.243   6.150
 8345POPC   C1A50931  37.668  35.345   6.450
 8345POPC   D2A50932  37.662  35.329   6.750
 8345POPC   C3A50933  37.671  35.392   7.050
 8345POPC   C4A50934  37.657  35.356   7.350
 8345POPC   C1B50935  37.547  35.127   6.450
 8345POPC   C2B50936  37.524  35.207   6.750
 8345POPC   C3B50937  37.467  35.180   7.050
 8345POPC   C4B50938  37.516  35.187   7.350
 8346POPC   NC350939  27.596  19.097   5.550
 8346POPC   PO450940  27.548  19.015   5.850
 8346POPC   GL150941  27.567  19.084   6.150
 8346POPC   GL250942  27.700  19.165   6.150
 8346POPC   C1A50943  27.637  19.023   6.450
 8346POPC   D2A50944  27.630  19.069   6.750
 8346POPC   C3A50945  27.591  19.103   7.050
 8346POPC   C4A50946  27.635  19.025   7.350
 8346POPC   C1B50947  27.718  19.251   6.450
 8346POPC   C2B50948  27.795  19.233   6.750
 8346POPC   C3B50949  27.761  19.217   7.050
 8346POPC   C4B50950  27.717  19.225   7.350
 8347POPC   NC350951  22.201   8.227   5.550
 8347POPC   PO450952  22.183   8.219   5.850
 8347POPC   GL150953  22.182   8.169   6.150
 8347POPC   GL250954  22.030   8.255   6.150
 8347POPC   C1A50955  22.154   8.232   6.450
 8347POPC   D2A50956  22.139   8.218   6.750
 8347POPC   C3A50957  22.194   8.156   7.050
 8347POPC   C4A50958  22.207   8.170   7.350
 8347POPC   C1B50959  21.992   8.286   6.450
 8347POPC   C2B50960  21.948   8.309   6.750
 8347POPC   C3B50961  21.998   8.378   7.050
 8347POPC   C4B50962  21.909   8.296   7.350
 8348POPC   NC350963   2.035  43.105   5.550
 8348POPC   PO450964   2.019  43.143   5.850
 8348POPC   GL150965   1.985  43.128   6.150
 8348POPC   GL250966   1.840  43.011   6.150
 8348POPC   C1A50967   1.954  43.120   6.450
 8348POPC   D2A50968   2.039  43.112   6.750
 8348POPC   C3A50969   2.001  43.157   7.050
 8348POPC   C4A50970   2.034  43.082   7.350
 8348POPC   C1B50971   1.765  42.968   6.450
 8348POPC   C2B50972   1.768  43.006   6.750
 8348POPC   C3B50973   1.818  42.954   7.050
 8348POPC   C4B50974   1.739  42.930   7.350
 8349POPC   NC350975  36.933  23.696   5.550
 8349POPC   PO450976  36.871  23.756   5.850
 8349POPC   GL150977  36.918  23.723   6.150
 8349POPC   GL250978  36.878  23.827   6.150
 8349POPC   C1A50979  36.937  23.705   6.450
 8349POPC   D2A50980  36.930  23.696   6.750
 8349POPC   C3A50981  36.901  23.763   7.050
 8349POPC   C4A50982  36.910  23.678   7.350
 8349POPC   C1B50983  36.920  23.929   6.450
 8349POPC   C2B50984  36.911  24.011   6.750
 8349POPC   C3B50985  36.881  23.917   7.050
 8349POPC   C4B50986  36.887  23.981   7.350
 8350POPC   NC350987   9.745  37.708   5.550
 8350POPC   PO450988   9.783  37.640   5.850
 8350POPC   GL150989   9.757  37.696   6.150
 8350POPC   GL250990   9.676  37.588   6.150
 8350POPC   C1A50991   9.739  37.674   6.450
 8350POPC   D2A50992   9.778  37.677   6.750
 8350POPC   C3A50993   9.734  37.649   7.050
 8350POPC   C4A50994   9.782  37.716   7.350
 8350POPC   C1B50995   9.527  37.557   6.450
 8350POPC   C2B50996   9.529  37.603   6.750
 8350POPC   C3B50997   9.517  37.596   7.050
 8350POPC   C4B50998   9.577  37.573   7.350
 8351POPC   NC350999  34.614  39.970   5.550
 8351POPC   PO451000  34.536  40.042   5.850
 8351POPC   GL151001  34.618  39.992   6.150
 8351POPC   GL251002  34.618  39.832   6.150
 8351POPC   C1A51003  34.614  40.001   6.450
 8351POPC   D2A51004  34.530  40.005   6.750
 8351POPC   C3A51005  34.601  39.974   7.050
 8351POPC   C4A51006  34.544  40.025   7.350
 8351POPC   C1B51007  34.599  39.754   6.450
 8351POPC   C2B51008  34.568  39.806   6.750
 8351POPC   C3B51009  34.574  39.723   7.050
 8351POPC   C4B51010  34.591  39.793   7.350
 8352POPC   NC351011  33.060  42.303   5.550
 8352POPC   PO451012  33.015  42.300   5.850
 8352POPC   GL151013  32.986  42.337   6.150
 8352POPC   GL251014  32.886  42.426   6.150
 8352POPC   C1A51015  33.003  42.366   6.450
 8352POPC   D2A51016  33.003  42.338   6.750
 8352POPC   C3A51017  32.984  42.308   7.050
 8352POPC   C4A51018  33.003  42.373   7.350
 8352POPC   C1B51019  32.828  42.439   6.450
 8352POPC   C2B51020  32.806  42.425   6.750
 8352POPC   C3B51021  32.781  42.519   7.050
 8352POPC   C4B51022  32.791  42.461   7.350
 8353POPC   NC351023  33.000  22.162   5.550
 8353POPC   PO451024  33.068  22.167   5.850
 8353POPC   GL151025  33.027  22.153   6.150
 8353POPC   GL251026  33.169  22.173   6.150
 8353POPC   C1A51027  33.059  22.122   6.450
 8353POPC   D2A51028  33.073  22.113   6.750
 8353POPC   C3A51029  33.039  22.199   7.050
 8353POPC   C4A51030  33.071  22.114   7.350
 8353POPC   C1B51031  33.313  22.112   6.450
 8353POPC   C2B51032  33.218  22.106   6.750
 8353POPC   C3B51033  33.266  22.068   7.050
 8353POPC   C4B51034  33.283  22.075   7.350
 8354POPC   NC351035  11.302  33.071   5.550
 8354POPC   PO451036  11.346  33.013   5.850
 8354POPC   GL151037  11.287  33.055   6.150
 8354POPC   GL251038  11.435  33.056   6.150
 8354POPC   C1A51039  11.279  32.976   6.450
 8354POPC   D2A51040  11.332  33.072   6.750
 8354POPC   C3A51041  11.292  32.980   7.050
 8354POPC   C4A51042  11.303  32.999   7.350
 8354POPC   C1B51043  11.535  33.066   6.450
 8354POPC   C2B51044  11.569  33.024   6.750
 8354POPC   C3B51045  11.591  33.052   7.050
 8354POPC   C4B51046  11.581  33.055   7.350
 8355POPC   NC351047  42.300  29.167   5.550
 8355POPC   PO451048  42.351  29.180   5.850
 8355POPC   GL151049  42.317  29.129   6.150
 8355POPC   GL251050  42.260  29.010   6.150
 8355POPC   C1A51051  42.348  29.148   6.450
 8355POPC   D2A51052  42.330  29.125   6.750
 8355POPC   C3A51053  42.305  29.120   7.050
 8355POPC   C4A51054  42.374  29.190   7.350
 8355POPC   C1B51055  42.287  28.942   6.450
 8355POPC   C2B51056  42.268  28.911   6.750
 8355POPC   C3B51057  42.218  28.954   7.050
 8355POPC   C4B51058  42.201  28.886   7.350
 8356POPC   NC351059  27.584  36.945   5.550
 8356POPC   PO451060  27.616  36.865   5.850
 8356POPC   GL151061  27.590  36.908   6.150
 8356POPC   GL251062  27.689  36.783   6.150
 8356POPC   C1A51063  27.619  36.874   6.450
 8356POPC   D2A51064  27.612  36.892   6.750
 8356POPC   C3A51065  27.595  36.894   7.050
 8356POPC   C4A51066  27.636  36.903   7.350
 8356POPC   C1B51067  27.650  36.680   6.450
 8356POPC   C2B51068  27.646  36.665   6.750
 8356POPC   C3B51069  27.696  36.679   7.050
 8356POPC   C4B51070  27.714  36.674   7.350
 8357POPC   NC351071   5.140  38.454   5.550
 8357POPC   PO451072   5.131  38.442   5.850
 8357POPC   GL151073   5.126  38.433   6.150
 8357POPC   GL251074   5.220  38.323   6.150
 8357POPC   C1A51075   5.113  38.493   6.450
 8357POPC   D2A51076   5.050  38.494   6.750
 8357POPC   C3A51077   5.123  38.474   7.050
 8357POPC   C4A51078   5.138  38.433   7.350
 8357POPC   C1B51079   5.318  38.320   6.450
 8357POPC   C2B51080   5.285  38.291   6.750
 8357POPC   C3B51081   5.261  38.252   7.050
 8357POPC   C4B51082   5.325  38.282   7.350
 8358POPC   NC351083  41.548  32.228   5.550
 8358POPC   PO451084  41.529  32.266   5.850
 8358POPC   GL151085  41.554  32.230   6.150
 8358POPC   GL251086  41.477  32.146   6.150
 8358POPC   C1A51087  41.601  32.273   6.450
 8358POPC   D2A51088  41.607  32.282   6.750
 8358POPC   C3A51089  41.594  32.207   7.050
 8358POPC   C4A51090  41.573  32.228   7.350
 8358POPC   C1B51091  41.475  31.993   6.450
 8358POPC   C2B51092  41.441  32.076   6.750
 8358POPC   C3B51093  41.476  32.073   7.050
 8358POPC   C4B51094  41.464  32.032   7.350
 8359POPC   NC351095  29.931  30.674   5.550
 8359POPC   PO451096  29.934  30.681   5.850
 8359POPC   GL151097  29.884  30.704   6.150
 8359POPC   GL251098  30.081  30.708   6.150
 8359POPC   C1A51099  29.917  30.716   6.450
 8359POPC   D2A51100  29.933  30.708   6.750
 8359POPC   C3A51101  29.913  30.710   7.050
 8359POPC   C4A51102  29.883  30.724   7.350
 8359POPC   C1B51103  30.173  30.637   6.450
 8359POPC   C2B51104  30.153  30.642   6.750
 8359POPC   C3B51105  30.163  30.654   7.050
 8359POPC   C4B51106  30.203  30.647   7.350
 8360POPC   NC351107   1.243  25.313   5.550
 8360POPC   PO451108   1.218  25.270   5.850
 8360POPC   GL151109   1.209  25.243   6.150
 8360POPC   GL251110   1.191  25.118   6.150
 8360POPC   C1A51111   1.249  25.249   6.450
 8360POPC   D2A51112   1.196  25.247   6.750
 8360POPC   C3A51113   1.184  25.245   7.050
 8360POPC   C4A51114   1.230  25.253   7.350
 8360POPC   C1B51115   1.231  24.994   6.450
 8360POPC   C2B51116   1.148  25.046   6.750
 8360POPC   C3B51117   1.190  25.044   7.050
 8360POPC   C4B51118   1.180  25.020   7.350
 8361POPC   NC351119  40.029   4.358   5.550
 8361POPC   PO451120  40.052   4.307   5.850
 8361POPC   GL151121  40.055   4.362   6.150
 8361POPC   GL251122  40.093   4.252   6.150
 8361POPC   C1A51123  40.009   4.338   6.450
 8361POPC   D2A51124  39.980   4.275   6.750
 8361POPC   C3A51125  39.966   4.312   7.050
 8361POPC   C4A51126  40.035   4.346   7.350
 8361POPC   C1B51127  40.197   4.117   6.450
 8361POPC   C2B51128  40.171   4.114   6.750
 8361POPC   C3B51129  40.160   4.147   7.050
 8361POPC   C4B51130  40.119   4.099   7.350
 8362POPC   NC351131  12.890  19.041   5.550
 8362POPC   PO451132  12.840  19.018   5.850
 8362POPC   GL151133  12.877  19.028   6.150
 8362POPC   GL251134  12.936  19.080   6.150
 8362POPC   C1A51135  12.898  19.089   6.450
 8362POPC   D2A51136  12.864  19.053   6.750
 8362POPC   C3A51137  12.854  19.010   7.050
 8362POPC   C4A51138  12.808  19.068   7.350
 8362POPC   C1B51139  13.121  19.062   6.450
 8362POPC   C2B51140  13.069  19.117   6.750
 8362POPC   C3B51141  13.054  19.046   7.050
 8362POPC   C4B51142  13.144  19.065   7.350
 8363POPC   NC351143  35.378   5.068   5.550
 8363POPC   PO451144  35.316   5.104   5.850
 8363POPC   GL151145  35.391   5.104   6.150
 8363POPC   GL251146  35.422   5.195   6.150
 8363POPC   C1A51147  35.338   5.135   6.450
 8363POPC   D2A51148  35.325   5.061   6.750
 8363POPC   C3A51149  35.398   5.060   7.050
 8363POPC   C4A51150  35.311   5.071   7.350
 8363POPC   C1B51151  35.371   5.335   6.450
 8363POPC   C2B51152  35.374   5.295   6.750
 8363POPC   C3B51153  35.358   5.311   7.050
 8363POPC   C4B51154  35.364   5.299   7.350
 8364POPC   NC351155  12.897  22.183   5.550
 8364POPC   PO451156  12.876  22.141   5.850
 8364POPC   GL151157  12.883  22.206   6.150
 8364POPC   GL251158  12.693  22.165   6.150
 8364POPC   C1A51159  12.835  22.168   6.450
 8364POPC   D2A51160  12.830  22.154   6.750
 8364POPC   C3A51161  12.869  22.180   7.050
 8364POPC   C4A51162  12.890  22.176   7.350
 8364POPC   C1B51163  12.643  22.180   6.450
 8364POPC   C2B51164  12.636  22.101   6.750
 8364POPC   C3B51165  12.610  22.165   7.050
 8364POPC   C4B51166  12.600  22.142   7.350
 8365POPC   NC351167   9.792  36.094   5.550
 8365POPC   PO451168   9.794  36.086   5.850
 8365POPC   GL151169   9.769  36.112   6.150
 8365POPC   GL251170   9.764  36.224   6.150
 8365POPC   C1A51171   9.798  36.132   6.450
 8365POPC   D2A51172   9.704  36.153   6.750
 8365POPC   C3A51173   9.699  36.151   7.050
 8365POPC   C4A51174   9.748  36.092   7.350
 8365POPC   C1B51175   9.781  36.401   6.450
 8365POPC   C2B51176   9.775  36.342   6.750
 8365POPC   C3B51177   9.803  36.363   7.050
 8365POPC   C4B51178   9.750  36.375   7.350
 8366POPC   NC351179  25.232  22.143   5.550
 8366POPC   PO451180  25.312  22.148   5.850
 8366POPC   GL151181  25.232  22.128   6.150
 8366POPC   GL251182  25.375  22.142   6.150
 8366POPC   C1A51183  25.303  22.141   6.450
 8366POPC   D2A51184  25.227  22.137   6.750
 8366POPC   C3A51185  25.217  22.116   7.050
 8366POPC   C4A51186  25.254  22.195   7.350
 8366POPC   C1B51187  25.465  22.218   6.450
 8366POPC   C2B51188  25.529  22.249   6.750
 8366POPC   C3B51189  25.473  22.208   7.050
 8366POPC   C4B51190  25.471  22.169   7.350
 8367POPC   NC351191   9.755  28.345   5.550
 8367POPC   PO451192   9.769  28.395   5.850
 8367POPC   GL151193   9.757  28.410   6.150
 8367POPC   GL251194   9.601  28.300   6.150
 8367POPC   C1A51195   9.741  28.393   6.450
 8367POPC   D2A51196   9.779  28.390   6.750
 8367POPC   C3A51197   9.725  28.396   7.050
 8367POPC   C4A51198   9.753  28.342   7.350
 8367POPC   C1B51199   9.526  28.319   6.450
 8367POPC   C2B51200   9.564  28.255   6.750
 8367POPC   C3B51201   9.512  28.302   7.050
 8367POPC   C4B51202   9.506  28.273   7.350
 8368POPC   NC351203  10.491  19.055   5.550
 8368POPC   PO451204  10.536  19.013   5.850
 8368POPC   GL151205  10.478  19.025   6.150
 8368POPC   GL251206  10.598  19.037   6.150
 8368POPC   C1A51207  10.483  19.075   6.450
 8368POPC   D2A51208  10.543  19.103   6.750
 8368POPC   C3A51209  10.559  19.100   7.050
 8368POPC   C4A51210  10.572  19.044   7.350
 8368POPC   C1B51211  10.746  18.901   6.450
 8368POPC   C2B51212  10.701  18.941   6.750
 8368POPC   C3B51213  10.752  18.909   7.050
 8368POPC   C4B51214  10.767  18.923   7.350
 8369POPC   NC351215   8.935  11.267   5.550
 8369POPC   PO451216   9.005  11.281   5.850
 8369POPC   GL151217   8.935  11.299   6.150
 8369POPC   GL251218   8.897  11.390   6.150
 8369POPC   C1A51219   8.933  11.335   6.450
 8369POPC   D2A51220   8.971  11.280   6.750
 8369POPC   C3A51221   9.007  11.287   7.050
 8369POPC   C4A51222   8.944  11.267   7.350
 8369POPC   C1B51223   8.876  11.558   6.450
 8369POPC   C2B51224   8.895  11.494   6.750
 8369POPC   C3B51225   8.905  11.496   7.050
 8369POPC   C4B51226   8.873  11.540   7.350
 8370POPC   NC351227  43.899   2.778   5.550
 8370POPC   PO451228  43.915   2.778   5.850
 8370POPC   GL151229  43.845   2.782   6.150
 8370POPC   GL251230  43.808   2.861   6.150
 8370POPC   C1A51231  43.848   2.764   6.450
 8370POPC   D2A51232  43.885   2.722   6.750
 8370POPC   C3A51233  43.922   2.790   7.050
 8370POPC   C4A51234  43.897   2.716   7.350
 8370POPC   C1B51235  43.762   3.008   6.450
 8370POPC   C2B51236  43.748   2.972   6.750
 8370POPC   C3B51237  43.844   3.025   7.050
 8370POPC   C4B51238  43.839   3.025   7.350
 8371POPC   NC351239  15.181  35.345   5.550
 8371POPC   PO451240  15.162  35.336   5.850
 8371POPC   GL151241  15.186  35.320   6.150
 8371POPC   GL251242  15.271  35.502   6.150
 8371POPC   C1A51243  15.168  35.380   6.450
 8371POPC   D2A51244  15.205  35.399   6.750
 8371POPC   C3A51245  15.159  35.321   7.050
 8371POPC   C4A51246  15.139  35.339   7.350
 8371POPC   C1B51247  15.292  35.604   6.450
 8371POPC   C2B51248  15.291  35.583   6.750
 8371POPC   C3B51249  15.298  35.547   7.050
 8371POPC   C4B51250  15.345  35.538   7.350
 8372POPC   NC351251  41.570  27.573   5.550
 8372POPC   PO451252  41.557  27.581   5.850
 8372POPC   GL151253  41.569  27.632   6.150
 8372POPC   GL251254  41.468  27.599   6.150
 8372POPC   C1A51255  41.577  27.619   6.450
 8372POPC   D2A51256  41.532  27.569   6.750
 8372POPC   C3A51257  41.572  27.580   7.050
 8372POPC   C4A51258  41.527  27.624   7.350
 8372POPC   C1B51259  41.330  27.559   6.450
 8372POPC   C2B51260  41.344  27.553   6.750
 8372POPC   C3B51261  41.265  27.578   7.050
 8372POPC   C4B51262  41.347  27.603   7.350
 8373POPC   NC351263  41.555  17.533   5.550
 8373POPC   PO451264  41.531  17.533   5.850
 8373POPC   GL151265  41.600  17.500   6.150
 8373POPC   GL251266  41.475  17.497   6.150
 8373POPC   C1A51267  41.573  17.458   6.450
 8373POPC   D2A51268  41.608  17.505   6.750
 8373POPC   C3A51269  41.546  17.537   7.050
 8373POPC   C4A51270  41.559  17.463   7.350
 8373POPC   C1B51271  41.332  17.392   6.450
 8373POPC   C2B51272  41.312  17.351   6.750
 8373POPC   C3B51273  41.329  17.369   7.050
 8373POPC   C4B51274  41.314  17.367   7.350
 8374POPC   NC351275   6.623  29.923   5.550
 8374POPC   PO451276   6.645  29.904   5.850
 8374POPC   GL151277   6.637  29.925   6.150
 8374POPC   GL251278   6.798  29.949   6.150
 8374POPC   C1A51279   6.610  29.879   6.450
 8374POPC   D2A51280   6.647  29.946   6.750
 8374POPC   C3A51281   6.664  29.889   7.050
 8374POPC   C4A51282   6.657  29.882   7.350
 8374POPC   C1B51283   6.919  29.903   6.450
 8374POPC   C2B51284   6.938  29.887   6.750
 8374POPC   C3B51285   6.886  29.931   7.050
 8374POPC   C4B51286   6.903  29.952   7.350
 8375POPC   NC351287   6.640  44.614   5.550
 8375POPC   PO451288   6.649  44.651   5.850
 8375POPC   GL151289   6.683  44.659   6.150
 8375POPC   GL251290   6.566  44.648   6.150
 8375POPC   C1A51291   6.604  44.710   6.450
 8375POPC   D2A51292   6.692  44.635   6.750
 8375POPC   C3A51293   6.615  44.637   7.050
 8375POPC   C4A51294   6.681  44.677   7.350
 8375POPC   C1B51295   6.379  44.624   6.450
 8375POPC   C2B51296   6.402  44.643   6.750
 8375POPC   C3B51297   6.413  44.602   7.050
 8375POPC   C4B51298   6.410  44.604   7.350
 8376POPC   NC351299  12.068   1.990   5.550
 8376POPC   PO451300  12.042   2.033   5.850
 8376POPC   GL151301  12.110   2.017   6.150
 8376POPC   GL251302  12.114   1.839   6.150
 8376POPC   C1A51303  12.041   1.977   6.450
 8376POPC   D2A51304  12.048   1.941   6.750
 8376POPC   C3A51305  12.070   2.018   7.050
 8376POPC   C4A51306  12.081   2.019   7.350
 8376POPC   C1B51307  12.154   1.731   6.450
 8376POPC   C2B51308  12.156   1.719   6.750
 8376POPC   C3B51309  12.142   1.781   7.050
 8376POPC   C4B51310  12.163   1.766   7.350
 8377POPC   NC351311  24.532  20.601   5.550
 8377POPC   PO451312  24.464  20.657   5.850
 8377POPC   GL151313  24.498  20.614   6.150
 8377POPC   GL251314  24.495  20.716   6.150
 8377POPC   C1A51315  24.510  20.622   6.450
 8377POPC   D2A51316  24.519  20.643   6.750
 8377POPC   C3A51317  24.540  20.617   7.050
 8377POPC   C4A51318  24.496  20.561   7.350
 8377POPC   C1B51319  24.549  20.896   6.450
 8377POPC   C2B51320  24.560  20.843   6.750
 8377POPC   C3B51321  24.610  20.822   7.050
 8377POPC   C4B51322  24.543  20.828   7.350
 8378POPC   NC351323   9.018  39.957   5.550
 8378POPC   PO451324   8.947  39.960   5.850
 8378POPC   GL151325   8.975  39.970   6.150
 8378POPC   GL251326   8.921  39.906   6.150
 8378POPC   C1A51327   8.959  40.010   6.450
 8378POPC   D2A51328   9.020  40.034   6.750
 8378POPC   C3A51329   8.977  39.973   7.050
 8378POPC   C4A51330   8.972  39.957   7.350
 8378POPC   C1B51331   8.871  39.760   6.450
 8378POPC   C2B51332   8.850  39.754   6.750
 8378POPC   C3B51333   8.843  39.720   7.050
 8378POPC   C4B51334   8.916  39.726   7.350
 8379POPC   NC351335  37.703  17.524   5.550
 8379POPC   PO451336  37.721  17.517   5.850
 8379POPC   GL151337  37.722  17.458   6.150
 8379POPC   GL251338  37.570  17.561   6.150
 8379POPC   C1A51339  37.659  17.543   6.450
 8379POPC   D2A51340  37.654  17.480   6.750
 8379POPC   C3A51341  37.728  17.541   7.050
 8379POPC   C4A51342  37.701  17.498   7.350
 8379POPC   C1B51343  37.444  17.578   6.450
 8379POPC   C2B51344  37.479  17.612   6.750
 8379POPC   C3B51345  37.418  17.530   7.050
 8379POPC   C4B51346  37.392  17.599   7.350
 8380POPC   NC351347  27.561  18.311   5.550
 8380POPC   PO451348  27.549  18.253   5.850
 8380POPC   GL151349  27.544  18.242   6.150
 8380POPC   GL251350  27.675  18.209   6.150
 8380POPC   C1A51351  27.605  18.261   6.450
 8380POPC   D2A51352  27.586  18.311   6.750
 8380POPC   C3A51353  27.635  18.329   7.050
 8380POPC   C4A51354  27.605  18.252   7.350
 8380POPC   C1B51355  27.779  18.143   6.450
 8380POPC   C2B51356  27.803  18.216   6.750
 8380POPC   C3B51357  27.869  18.210   7.050
 8380POPC   C4B51358  27.838  18.182   7.350
 8381POPC   NC351359  41.554   3.527   5.550
 8381POPC   PO451360  41.561   3.543   5.850
 8381POPC   GL151361  41.546   3.549   6.150
 8381POPC   GL251362  41.668   3.558   6.150
 8381POPC   C1A51363  41.568   3.498   6.450
 8381POPC   D2A51364  41.570   3.540   6.750
 8381POPC   C3A51365  41.567   3.512   7.050
 8381POPC   C4A51366  41.531   3.557   7.350
 8381POPC   C1B51367  41.847   3.526   6.450
 8381POPC   C2B51368  41.806   3.540   6.750
 8381POPC   C3B51369  41.768   3.544   7.050
 8381POPC   C4B51370  41.790   3.469   7.350
 8382POPC   NC351371  13.590  43.068   5.550
 8382POPC   PO451372  13.583  43.061   5.850
 8382POPC   GL151373  13.579  43.141   6.150
 8382POPC   GL251374  13.746  42.985   6.150
 8382POPC   C1A51375  13.630  43.072   6.450
 8382POPC   D2A51376  13.580  43.152   6.750
 8382POPC   C3A51377  13.609  43.107   7.050
 8382POPC   C4A51378  13.644  43.115   7.350
 8382POPC   C1B51379  13.770  42.885   6.450
 8382POPC   C2B51380  13.815  42.955   6.750
 8382POPC   C3B51381  13.741  42.967   7.050
 8382POPC   C4B51382  13.753  42.958   7.350
 8383POPC   NC351383  43.075   0.452   5.550
 8383POPC   PO451384  43.144   0.421   5.850
 8383POPC   GL151385  43.130   0.444   6.150
 8383POPC   GL251386  43.062   0.514   6.150
 8383POPC   C1A51387  43.066   0.482   6.450
 8383POPC   D2A51388  43.098   0.399   6.750
 8383POPC   C3A51389  43.062   0.389   7.050
 8383POPC   C4A51390  43.093   0.428   7.350
 8383POPC   C1B51391  43.062   0.695   6.450
 8383POPC   C2B51392  43.109   0.679   6.750
 8383POPC   C3B51393  43.058   0.724   7.050
 8383POPC   C4B51394  43.131   0.665   7.350
 8384POPC   NC351395  38.420   0.472   5.550
 8384POPC   PO451396  38.410   0.456   5.850
 8384POPC   GL151397  38.489   0.444   6.150
 8384POPC   GL251398  38.366   0.524   6.150
 8384POPC   C1A51399  38.493   0.444   6.450
 8384POPC   D2A51400  38.416   0.470   6.750
 8384POPC   C3A51401  38.488   0.482   7.050
 8384POPC   C4A51402  38.423   0.456   7.350
 8384POPC   C1B51403  38.247   0.661   6.450
 8384POPC   C2B51404  38.338   0.659   6.750
 8384POPC   C3B51405  38.289   0.582   7.050
 8384POPC   C4B51406  38.272   0.635   7.350
 8385POPC   NC351407  40.832  37.686   5.550
 8385POPC   PO451408  40.800  37.709   5.850
 8385POPC   GL151409  40.734  37.712   6.150
 8385POPC   GL251410  40.954  37.672   6.150
 8385POPC   C1A51411  40.781  37.722   6.450
 8385POPC   D2A51412  40.808  37.711   6.750
 8385POPC   C3A51413  40.819  37.724   7.050
 8385POPC   C4A51414  40.814  37.722   7.350
 8385POPC   C1B51415  41.038  37.681   6.450
 8385POPC   C2B51416  41.034  37.643   6.750
 8385POPC   C3B51417  41.062  37.629   7.050
 8385POPC   C4B51418  41.014  37.627   7.350
 8386POPC   NC351419  11.261  13.596   5.550
 8386POPC   PO451420  11.272  13.582   5.850
 8386POPC   GL151421  11.257  13.608   6.150
 8386POPC   GL251422  11.273  13.716   6.150
 8386POPC   C1A51423  11.263  13.643   6.450
 8386POPC   D2A51424  11.275  13.607   6.750
 8386POPC   C3A51425  11.261  13.617   7.050
 8386POPC   C4A51426  11.299  13.628   7.350
 8386POPC   C1B51427  11.281  13.920   6.450
 8386POPC   C2B51428  11.349  13.887   6.750
 8386POPC   C3B51429  11.278  13.857   7.050
 8386POPC   C4B51430  11.339  13.892   7.350
 8387POPC   NC351431  22.195  19.800   5.550
 8387POPC   PO451432  22.196  19.796   5.850
 8387POPC   GL151433  22.197  19.789   6.150
 8387POPC   GL251434  22.254  19.859   6.150
 8387POPC   C1A51435  22.207  19.837   6.450
 8387POPC   D2A51436  22.122  19.797   6.750
 8387POPC   C3A51437  22.157  19.837   7.050
 8387POPC   C4A51438  22.136  19.840   7.350
 8387POPC   C1B51439  22.415  19.858   6.450
 8387POPC   C2B51440  22.422  19.799   6.750
 8387POPC   C3B51441  22.453  19.888   7.050
 8387POPC   C4B51442  22.443  19.854   7.350
 8388POPC   NC351443  11.326   2.793   5.550
 8388POPC   PO451444  11.331   2.800   5.850
 8388POPC   GL151445  11.325   2.773   6.150
 8388POPC   GL251446  11.358   2.732   6.150
 8388POPC   C1A51447  11.283   2.806   6.450
 8388POPC   D2A51448  11.334   2.771   6.750
 8388POPC   C3A51449  11.319   2.814   7.050
 8388POPC   C4A51450  11.299   2.810   7.350
 8388POPC   C1B51451  11.548   2.605   6.450
 8388POPC   C2B51452  11.493   2.591   6.750
 8388POPC   C3B51453  11.478   2.598   7.050
 8388POPC   C4B51454  11.463   2.652   7.350
 8389POPC   NC351455  37.662  14.363   5.550
 8389POPC   PO451456  37.708  14.436   5.850
 8389POPC   GL151457  37.728  14.428   6.150
 8389POPC   GL251458  37.731  14.316   6.150
 8389POPC   C1A51459  37.679  14.428   6.450
 8389POPC   D2A51460  37.725  14.448   6.750
 8389POPC   C3A51461  37.711  14.439   7.050
 8389POPC   C4A51462  37.662  14.445   7.350
 8389POPC   C1B51463  37.698  14.138   6.450
 8389POPC   C2B51464  37.639  14.131   6.750
 8389POPC   C3B51465  37.721  14.170   7.050
 8389POPC   C4B51466  37.643  14.148   7.350
 8390POPC   NC351467  22.948  37.648   5.550
 8390POPC   PO451468  22.968  37.659   5.850
 8390POPC   GL151469  22.929  37.681   6.150
 8390POPC   GL251470  22.843  37.709   6.150
 8390POPC   C1A51471  22.969  37.686   6.450
 8390POPC   D2A51472  22.907  37.708   6.750
 8390POPC   C3A51473  22.950  37.728   7.050
 8390POPC   C4A51474  22.933  37.689   7.350
 8390POPC   C1B51475  22.703  37.799   6.450
 8390POPC   C2B51476  22.680  37.834   6.750
 8390POPC   C3B51477  22.706  37.783   7.050
 8390POPC   C4B51478  22.693  37.804   7.350
 8391POPC   NC351479  14.406  43.073   5.550
 8391POPC   PO451480  14.387  43.107   5.850
 8391POPC   GL151481  14.447  43.073   6.150
 8391POPC   GL251482  14.399  43.014   6.150
 8391POPC   C1A51483  14.451  43.081   6.450
 8391POPC   D2A51484  14.411  43.110   6.750
 8391POPC   C3A51485  14.419  43.101   7.050
 8391POPC   C4A51486  14.403  43.064   7.350
 8391POPC   C1B51487  14.401  42.856   6.450
 8391POPC   C2B51488  14.369  42.839   6.750
 8391POPC   C3B51489  14.402  42.827   7.050
 8391POPC   C4B51490  14.409  42.886   7.350
 8392POPC   NC351491  31.457   5.078   5.550
 8392POPC   PO451492  31.500   5.099   5.850
 8392POPC   GL151493  31.432   5.139   6.150
 8392POPC   GL251494  31.403   5.009   6.150
 8392POPC   C1A51495  31.426   5.131   6.450
 8392POPC   D2A51496  31.477   5.092   6.750
 8392POPC   C3A51497  31.514   5.105   7.050
 8392POPC   C4A51498  31.468   5.063   7.350
 8392POPC   C1B51499  31.242   4.947   6.450
 8392POPC   C2B51500  31.241   4.964   6.750
 8392POPC   C3B51501  31.305   4.930   7.050
 8392POPC   C4B51502  31.267   4.963   7.350
 8393POPC   NC351503  21.366  24.474   5.550
 8393POPC   PO451504  21.415  24.477   5.850
 8393POPC   GL151505  21.373  24.461   6.150
 8393POPC   GL251506  21.257  24.458   6.150
 8393POPC   C1A51507  21.385  24.529   6.450
 8393POPC   D2A51508  21.420  24.527   6.750
 8393POPC   C3A51509  21.416  24.455   7.050
 8393POPC   C4A51510  21.404  24.451   7.350
 8393POPC   C1B51511  21.131  24.501   6.450
 8393POPC   C2B51512  21.093  24.501   6.750
 8393POPC   C3B51513  21.129  24.456   7.050
 8393POPC   C4B51514  21.170  24.471   7.350
 8394POPC   NC351515  25.285  41.594   5.550
 8394POPC   PO451516  25.301  41.510   5.850
 8394POPC   GL151517  25.306  41.570   6.150
 8394POPC   GL251518  25.209  41.677   6.150
 8394POPC   C1A51519  25.240  41.559   6.450
 8394POPC   D2A51520  25.226  41.556   6.750
 8394POPC   C3A51521  25.245  41.589   7.050
 8394POPC   C4A51522  25.297  41.523   7.350
 8394POPC   C1B51523  25.031  41.667   6.450
 8394POPC   C2B51524  25.027  41.737   6.750
 8394POPC   C3B51525  25.051  41.658   7.050
 8394POPC   C4B51526  25.072  41.713   7.350
 8395POPC   NC351527  20.646  22.122   5.550
 8395POPC   PO451528  20.626  22.115   5.850
 8395POPC   GL151529  20.564  22.203   6.150
 8395POPC   GL251530  20.582  22.045   6.150
 8395POPC   C1A51531  20.576  22.210   6.450
 8395POPC   D2A51532  20.601  22.167   6.750
 8395POPC   C3A51533  20.573  22.156   7.050
 8395POPC   C4A51534  20.658  22.173   7.350
 8395POPC   C1B51535  20.451  21.968   6.450
 8395POPC   C2B51536  20.513  21.983   6.750
 8395POPC   C3B51537  20.518  21.992   7.050
 8395POPC   C4B51538  20.506  21.916   7.350
 8396POPC   NC351539   8.993  15.946   5.550
 8396POPC   PO451540   8.949  15.962   5.850
 8396POPC   GL151541   8.964  15.922   6.150
 8396POPC   GL251542   8.846  16.037   6.150
 8396POPC   C1A51543   8.983  15.999   6.450
 8396POPC   D2A51544   8.976  15.971   6.750
 8396POPC   C3A51545   8.970  15.993   7.050
 8396POPC   C4A51546   8.985  15.952   7.350
 8396POPC   C1B51547   8.834  16.177   6.450
 8396POPC   C2B51548   8.838  16.145   6.750
 8396POPC   C3B51549   8.796  16.151   7.050
 8396POPC   C4B51550   8.827  16.144   7.350
 8397POPC   NC351551  42.344   1.973   5.550
 8397POPC   PO451552  42.359   2.006   5.850
 8397POPC   GL151553  42.327   1.983   6.150
 8397POPC   GL251554  42.334   1.911   6.150
 8397POPC   C1A51555  42.324   2.032   6.450
 8397POPC   D2A51556  42.364   1.956   6.750
 8397POPC   C3A51557  42.369   1.995   7.050
 8397POPC   C4A51558  42.317   1.990   7.350
 8397POPC   C1B51559  42.341   1.718   6.450
 8397POPC   C2B51560  42.352   1.754   6.750
 8397POPC   C3B51561  42.369   1.720   7.050
 8397POPC   C4B51562  42.368   1.721   7.350
 8398POPC   NC351563  22.122  14.393   5.550
 8398POPC   PO451564  22.133  14.391   5.850
 8398POPC   GL151565  22.206  14.406   6.150
 8398POPC   GL251566  22.046  14.423   6.150
 8398POPC   C1A51567  22.123  14.450   6.450
 8398POPC   D2A51568  22.135  14.431   6.750
 8398POPC   C3A51569  22.191  14.444   7.050
 8398POPC   C4A51570  22.189  14.384   7.350
 8398POPC   C1B51571  21.949  14.449   6.450
 8398POPC   C2B51572  21.970  14.463   6.750
 8398POPC   C3B51573  21.929  14.491   7.050
 8398POPC   C4B51574  21.902  14.486   7.350
 8399POPC   NC351575  28.361  33.771   5.550
 8399POPC   PO451576  28.374  33.842   5.850
 8399POPC   GL151577  28.326  33.799   6.150
 8399POPC   GL251578  28.493  33.838   6.150
 8399POPC   C1A51579  28.374  33.810   6.450
 8399POPC   D2A51580  28.344  33.759   6.750
 8399POPC   C3A51581  28.406  33.768   7.050
 8399POPC   C4A51582  28.390  33.833   7.350
 8399POPC   C1B51583  28.559  33.930   6.450
 8399POPC   C2B51584  28.593  33.930   6.750
 8399POPC   C3B51585  28.632  33.947   7.050
 8399POPC   C4B51586  28.622  33.955   7.350
 8400POPC   NC351587  29.181   4.328   5.550
 8400POPC   PO451588  29.108   4.358   5.850
 8400POPC   GL151589  29.165   4.269   6.150
 8400POPC   GL251590  29.293   4.282   6.150
 8400POPC   C1A51591  29.166   4.289   6.450
 8400POPC   D2A51592  29.099   4.327   6.750
 8400POPC   C3A51593  29.192   4.361   7.050
 8400POPC   C4A51594  29.130   4.293   7.350
 8400POPC   C1B51595  29.354   4.290   6.450
 8400POPC   C2B51596  29.424   4.296   6.750
 8400POPC   C3B51597  29.396   4.308   7.050
 8400POPC   C4B51598  29.376   4.349   7.350
 8401POPC   NC351599   5.873   8.966   5.550
 8401POPC   PO451600   5.869   8.981   5.850
 8401POPC   GL151601   5.876   8.964   6.150
 8401POPC   GL251602   6.039   8.929   6.150
 8401POPC   C1A51603   5.900   8.976   6.450
 8401POPC   D2A51604   5.884   8.933   6.750
 8401POPC   C3A51605   5.823   8.926   7.050
 8401POPC   C4A51606   5.876   8.941   7.350
 8401POPC   C1B51607   6.070   9.008   6.450
 8401POPC   C2B51608   6.141   9.027   6.750
 8401POPC   C3B51609   6.161   9.019   7.050
 8401POPC   C4B51610   6.144   8.943   7.350
 8402POPC   NC351611  21.412   3.544   5.550
 8402POPC   PO451612  21.403   3.564   5.850
 8402POPC   GL151613  21.336   3.561   6.150
 8402POPC   GL251614  21.441   3.453   6.150
 8402POPC   C1A51615  21.431   3.494   6.450
 8402POPC   D2A51616  21.405   3.535   6.750
 8402POPC   C3A51617  21.388   3.526   7.050
 8402POPC   C4A51618  21.346   3.518   7.350
 8402POPC   C1B51619  21.534   3.367   6.450
 8402POPC   C2B51620  21.574   3.385   6.750
 8402POPC   C3B51621  21.548   3.297   7.050
 8402POPC   C4B51622  21.563   3.343   7.350
 8403POPC   NC351623  20.607   8.237   5.550
 8403POPC   PO451624  20.637   8.224   5.850
 8403POPC   GL151625  20.586   8.170   6.150
 8403POPC   GL251626  20.626   8.085   6.150
 8403POPC   C1A51627  20.634   8.157   6.450
 8403POPC   D2A51628  20.588   8.162   6.750
 8403POPC   C3A51629  20.636   8.160   7.050
 8403POPC   C4A51630  20.626   8.202   7.350
 8403POPC   C1B51631  20.644   7.982   6.450
 8403POPC   C2B51632  20.721   7.929   6.750
 8403POPC   C3B51633  20.695   7.963   7.050
 8403POPC   C4B51634  20.711   7.961   7.350
 8404POPC   NC351635   6.630  34.555   5.550
 8404POPC   PO451636   6.618  34.556   5.850
 8404POPC   GL151637   6.656  34.599   6.150
 8404POPC   GL251638   6.710  34.494   6.150
 8404POPC   C1A51639   6.618  34.614   6.450
 8404POPC   D2A51640   6.667  34.620   6.750
 8404POPC   C3A51641   6.688  34.591   7.050
 8404POPC   C4A51642   6.692  34.575   7.350
 8404POPC   C1B51643   6.895  34.392   6.450
 8404POPC   C2B51644   6.866  34.441   6.750
 8404POPC   C3B51645   6.831  34.411   7.050
 8404POPC   C4B51646   6.881  34.396   7.350
 8405POPC   NC351647   9.798  29.913   5.550
 8405POPC   PO451648   9.725  29.910   5.850
 8405POPC   GL151649   9.771  29.959   6.150
 8405POPC   GL251650   9.688  29.838   6.150
 8405POPC   C1A51651   9.792  29.943   6.450
 8405POPC   D2A51652   9.765  29.932   6.750
 8405POPC   C3A51653   9.719  29.926   7.050
 8405POPC   C4A51654   9.760  29.874   7.350
 8405POPC   C1B51655   9.578  29.740   6.450
 8405POPC   C2B51656   9.584  29.695   6.750
 8405POPC   C3B51657   9.581  29.680   7.050
 8405POPC   C4B51658   9.643  29.704   7.350
 8406POPC   NC351659  22.987  23.682   5.550
 8406POPC   PO451660  22.968  23.671   5.850
 8406POPC   GL151661  22.927  23.752   6.150
 8406POPC   GL251662  22.977  23.783   6.150
 8406POPC   C1A51663  22.931  23.701   6.450
 8406POPC   D2A51664  22.944  23.723   6.750
 8406POPC   C3A51665  22.938  23.691   7.050
 8406POPC   C4A51666  22.965  23.715   7.350
 8406POPC   C1B51667  23.061  23.962   6.450
 8406POPC   C2B51668  23.010  23.924   6.750
 8406POPC   C3B51669  23.016  23.946   7.050
 8406POPC   C4B51670  23.047  23.925   7.350
 8407POPC   NC351671   0.412  34.616   5.550
 8407POPC   PO451672   0.391  34.573   5.850
 8407POPC   GL151673   0.487  34.563   6.150
 8407POPC   GL251674   0.457  34.732   6.150
 8407POPC   C1A51675   0.418  34.558   6.450
 8407POPC   D2A51676   0.482  34.570   6.750
 8407POPC   C3A51677   0.398  34.604   7.050
 8407POPC   C4A51678   0.410  34.529   7.350
 8407POPC   C1B51679   0.380  34.834   6.450
 8407POPC   C2B51680   0.411  34.868   6.750
 8407POPC   C3B51681   0.373  34.872   7.050
 8407POPC   C4B51682   0.364  34.780   7.350
 8408POPC   NC351683  20.644  40.814   5.550
 8408POPC   PO451684  20.606  40.803   5.850
 8408POPC   GL151685  20.562  40.827   6.150
 8408POPC   GL251686  20.636  40.879   6.150
 8408POPC   C1A51687  20.563  40.745   6.450
 8408POPC   D2A51688  20.567  40.769   6.750
 8408POPC   C3A51689  20.577  40.744   7.050
 8408POPC   C4A51690  20.638  40.800   7.350
 8408POPC   C1B51691  20.529  41.013   6.450
 8408POPC   C2B51692  20.542  41.061   6.750
 8408POPC   C3B51693  20.542  41.048   7.050
 8408POPC   C4B51694  20.544  41.031   7.350
 8409POPC   NC351695  40.812  41.556   5.550
 8409POPC   PO451696  40.778  41.608   5.850
 8409POPC   GL151697  40.811  41.550   6.150
 8409POPC   GL251698  40.688  41.475   6.150
 8409POPC   C1A51699  40.744  41.605   6.450
 8409POPC   D2A51700  40.758  41.581   6.750
 8409POPC   C3A51701  40.810  41.538   7.050
 8409POPC   C4A51702  40.814  41.582   7.350
 8409POPC   C1B51703  40.588  41.411   6.450
 8409POPC   C2B51704  40.598  41.451   6.750
 8409POPC   C3B51705  40.570  41.467   7.050
 8409POPC   C4B51706  40.551  41.457   7.350
 8410POPC   NC351707  36.916  44.666   5.550
 8410POPC   PO451708  36.943  44.623   5.850
 8410POPC   GL151709  36.892  44.644   6.150
 8410POPC   GL251710  37.015  44.709   6.150
 8410POPC   C1A51711  36.941  44.672   6.450
 8410POPC   D2A51712  36.901  44.711   6.750
 8410POPC   C3A51713  36.885  44.625   7.050
 8410POPC   C4A51714  36.861  44.642   7.350
 8410POPC   C1B51715  37.117  44.754   6.450
 8410POPC   C2B51716  37.144  44.796   6.750
 8410POPC   C3B51717  37.139  44.760   7.050
 8410POPC   C4B51718  37.163  44.756   7.350
 8411POPC   NC351719  43.065  23.720   5.550
 8411POPC   PO451720  43.124  23.730   5.850
 8411POPC   GL151721  43.140  23.711   6.150
 8411POPC   GL251722  43.217  23.634   6.150
 8411POPC   C1A51723  43.112  23.667   6.450
 8411POPC   D2A51724  43.093  23.756   6.750
 8411POPC   C3A51725  43.106  23.689   7.050
 8411POPC   C4A51726  43.136  23.728   7.350
 8411POPC   C1B51727  43.306  23.559   6.450
 8411POPC   C2B51728  43.315  23.567   6.750
 8411POPC   C3B51729  43.352  23.576   7.050
 8411POPC   C4B51730  43.335  23.526   7.350
 8412POPC   NC351731   3.541  31.478   5.550
 8412POPC   PO451732   3.541  31.446   5.850
 8412POPC   GL151733   3.588  31.474   6.150
 8412POPC   GL251734   3.443  31.534   6.150
 8412POPC   C1A51735   3.510  31.426   6.450
 8412POPC   D2A51736   3.513  31.434   6.750
 8412POPC   C3A51737   3.537  31.457   7.050
 8412POPC   C4A51738   3.536  31.490   7.350
 8412POPC   C1B51739   3.300  31.470   6.450
 8412POPC   C2B51740   3.327  31.480   6.750
 8412POPC   C3B51741   3.307  31.525   7.050
 8412POPC   C4B51742   3.269  31.518   7.350
 8413POPC   NC351743  31.487  42.319   5.550
 8413POPC   PO451744  31.450  42.375   5.850
 8413POPC   GL151745  31.488  42.316   6.150
 8413POPC   GL251746  31.386  42.283   6.150
 8413POPC   C1A51747  31.468  42.293   6.450
 8413POPC   D2A51748  31.488  42.346   6.750
 8413POPC   C3A51749  31.487  42.376   7.050
 8413POPC   C4A51750  31.491  42.355   7.350
 8413POPC   C1B51751  31.324  42.182   6.450
 8413POPC   C2B51752  31.354  42.152   6.750
 8413POPC   C3B51753  31.347  42.159   7.050
 8413POPC   C4B51754  31.330  42.136   7.350
 8414POPC   NC351755   3.545   8.192   5.550
 8414POPC   PO451756   3.560   8.191   5.850
 8414POPC   GL151757   3.528   8.212   6.150
 8414POPC   GL251758   3.696   8.126   6.150
 8414POPC   C1A51759   3.543   8.217   6.450
 8414POPC   D2A51760   3.515   8.229   6.750
 8414POPC   C3A51761   3.578   8.167   7.050
 8414POPC   C4A51762   3.505   8.195   7.350
 8414POPC   C1B51763   3.733   8.104   6.450
 8414POPC   C2B51764   3.730   8.052   6.750
 8414POPC   C3B51765   3.786   8.039   7.050
 8414POPC   C4B51766   3.749   8.045   7.350
 8415POPC   NC351767  33.777  42.363   5.550
 8415POPC   PO451768  33.820  42.349   5.850
 8415POPC   GL151769  33.842  42.371   6.150
 8415POPC   GL251770  33.885  42.404   6.150
 8415POPC   C1A51771  33.817  42.309   6.450
 8415POPC   D2A51772  33.829  42.308   6.750
 8415POPC   C3A51773  33.814  42.298   7.050
 8415POPC   C4A51774  33.793  42.286   7.350
 8415POPC   C1B51775  33.980  42.516   6.450
 8415POPC   C2B51776  34.033  42.528   6.750
 8415POPC   C3B51777  34.025  42.522   7.050
 8415POPC   C4B51778  34.027  42.482   7.350
 8416POPC   NC351779  28.383   6.619   5.550
 8416POPC   PO451780  28.368   6.667   5.850
 8416POPC   GL151781  28.365   6.643   6.150
 8416POPC   GL251782  28.479   6.693   6.150
 8416POPC   C1A51783  28.370   6.655   6.450
 8416POPC   D2A51784  28.406   6.601   6.750
 8416POPC   C3A51785  28.381   6.669   7.050
 8416POPC   C4A51786  28.366   6.612   7.350
 8416POPC   C1B51787  28.632   6.621   6.450
 8416POPC   C2B51788  28.611   6.614   6.750
 8416POPC   C3B51789  28.624   6.677   7.050
 8416POPC   C4B51790  28.626   6.626   7.350
 8417POPC   NC351791  44.671  25.262   5.550
 8417POPC   PO451792  44.699  25.238   5.850
 8417POPC   GL151793  44.656  25.298   6.150
 8417POPC   GL251794  44.667  25.368   6.150
 8417POPC   C1A51795  44.670  25.237   6.450
 8417POPC   D2A51796  44.673  25.297   6.750
 8417POPC   C3A51797  44.645  25.302   7.050
 8417POPC   C4A51798  44.667  25.294   7.350
 8417POPC   C1B51799  44.596  25.477   6.450
 8417POPC   C2B51800  44.670  25.507   6.750
 8417POPC   C3B51801  44.687  25.555   7.050
 8417POPC   C4B51802  44.659  25.496   7.350
 8418POPC   NC351803  43.916  17.506   5.550
 8418POPC   PO451804  43.889  17.477   5.850
 8418POPC   GL151805  43.897  17.516   6.150
 8418POPC   GL251806  44.009  17.496   6.150
 8418POPC   C1A51807  43.904  17.478   6.450
 8418POPC   D2A51808  43.894  17.506   6.750
 8418POPC   C3A51809  43.909  17.473   7.050
 8418POPC   C4A51810  43.873  17.511   7.350
 8418POPC   C1B51811  44.139  17.508   6.450
 8418POPC   C2B51812  44.124  17.448   6.750
 8418POPC   C3B51813  44.151  17.431   7.050
 8418POPC   C4B51814  44.097  17.500   7.350
 8419POPC   NC351815  39.234  19.018   5.550
 8419POPC   PO451816  39.233  19.103   5.850
 8419POPC   GL151817  39.191  19.092   6.150
 8419POPC   GL251818  39.148  19.186   6.150
 8419POPC   C1A51819  39.262  19.092   6.450
 8419POPC   D2A51820  39.240  19.058   6.750
 8419POPC   C3A51821  39.220  19.070   7.050
 8419POPC   C4A51822  39.245  19.030   7.350
 8419POPC   C1B51823  39.134  19.261   6.450
 8419POPC   C2B51824  39.096  19.267   6.750
 8419POPC   C3B51825  39.158  19.301   7.050
 8419POPC   C4B51826  39.101  19.264   7.350
 8420POPC   NC351827  28.396  32.230   5.550
 8420POPC   PO451828  28.319  32.204   5.850
 8420POPC   GL151829  28.363  32.225   6.150
 8420POPC   GL251830  28.241  32.336   6.150
 8420POPC   C1A51831  28.378  32.289   6.450
 8420POPC   D2A51832  28.384  32.286   6.750
 8420POPC   C3A51833  28.346  32.275   7.050
 8420POPC   C4A51834  28.417  32.226   7.350
 8420POPC   C1B51835  28.167  32.395   6.450
 8420POPC   C2B51836  28.149  32.398   6.750
 8420POPC   C3B51837  28.178  32.362   7.050
 8420POPC   C4B51838  28.141  32.356   7.350
 8421POPC   NC351839  37.713  27.572   5.550
 8421POPC   PO451840  37.677  27.548   5.850
 8421POPC   GL151841  37.697  27.554   6.150
 8421POPC   GL251842  37.721  27.448   6.150
 8421POPC   C1A51843  37.727  27.584   6.450
 8421POPC   D2A51844  37.696  27.571   6.750
 8421POPC   C3A51845  37.660  27.604   7.050
 8421POPC   C4A51846  37.645  27.604   7.350
 8421POPC   C1B51847  37.823  27.371   6.450
 8421POPC   C2B51848  37.774  27.377   6.750
 8421POPC   C3B51849  37.772  27.372   7.050
 8421POPC   C4B51850  37.789  27.351   7.350
 8422POPC   NC351851   2.737  29.105   5.550
 8422POPC   PO451852   2.773  29.133   5.850
 8422POPC   GL151853   2.803  29.168   6.150
 8422POPC   GL251854   2.931  29.147   6.150
 8422POPC   C1A51855   2.724  29.116   6.450
 8422POPC   D2A51856   2.810  29.112   6.750
 8422POPC   C3A51857   2.796  29.115   7.050
 8422POPC   C4A51858   2.735  29.113   7.350
 8422POPC   C1B51859   3.017  29.172   6.450
 8422POPC   C2B51860   2.965  29.189   6.750
 8422POPC   C3B51861   2.995  29.126   7.050
 8422POPC   C4B51862   3.028  29.139   7.350
 8423POPC   NC351863  32.227  39.206   5.550
 8423POPC   PO451864  32.208  39.277   5.850
 8423POPC   GL151865  32.253  39.255   6.150
 8423POPC   GL251866  32.164  39.143   6.150
 8423POPC   C1A51867  32.259  39.270   6.450
 8423POPC   D2A51868  32.267  39.213   6.750
 8423POPC   C3A51869  32.263  39.268   7.050
 8423POPC   C4A51870  32.274  39.279   7.350
 8423POPC   C1B51871  32.057  39.127   6.450
 8423POPC   C2B51872  32.024  39.117   6.750
 8423POPC   C3B51873  32.084  39.093   7.050
 8423POPC   C4B51874  31.997  39.094   7.350
 8424POPC   NC351875  12.814  32.265   5.550
 8424POPC   PO451876  12.854  32.257   5.850
 8424POPC   GL151877  12.854  32.292   6.150
 8424POPC   GL251878  12.761  32.228   6.150
 8424POPC   C1A51879  12.847  32.282   6.450
 8424POPC   D2A51880  12.857  32.275   6.750
 8424POPC   C3A51881  12.864  32.218   7.050
 8424POPC   C4A51882  12.885  32.252   7.350
 8424POPC   C1B51883  12.560  32.197   6.450
 8424POPC   C2B51884  12.571  32.225   6.750
 8424POPC   C3B51885  12.562  32.181   7.050
 8424POPC   C4B51886  12.617  32.176   7.350
 8425POPC   NC351887  30.741  29.915   5.550
 8425POPC   PO451888  30.696  29.894   5.850
 8425POPC   GL151889  30.700  29.931   6.150
 8425POPC   GL251890  30.827  29.944   6.150
 8425POPC   C1A51891  30.718  29.949   6.450
 8425POPC   D2A51892  30.732  29.911   6.750
 8425POPC   C3A51893  30.717  29.923   7.050
 8425POPC   C4A51894  30.686  29.914   7.350
 8425POPC   C1B51895  30.907  29.965   6.450
 8425POPC   C2B51896  30.938  29.908   6.750
 8425POPC   C3B51897  30.953  29.940   7.050
 8425POPC   C4B51898  30.924  29.897   7.350
 8426POPC   NC351899  14.359  33.024   5.550
 8426POPC   PO451900  14.412  33.061   5.850
 8426POPC   GL151901  14.415  33.049   6.150
 8426POPC   GL251902  14.552  33.054   6.150
 8426POPC   C1A51903  14.389  32.983   6.450
 8426POPC   D2A51904  14.415  33.009   6.750
 8426POPC   C3A51905  14.366  33.016   7.050
 8426POPC   C4A51906  14.385  32.990   7.350
 8426POPC   C1B51907  14.688  33.089   6.450
 8426POPC   C2B51908  14.667  33.086   6.750
 8426POPC   C3B51909  14.684  33.086   7.050
 8426POPC   C4B51910  14.693  33.030   7.350
 8427POPC   NC351911  15.151  40.831   5.550
 8427POPC   PO451912  15.166  40.819   5.850
 8427POPC   GL151913  15.158  40.817   6.150
 8427POPC   GL251914  15.164  40.682   6.150
 8427POPC   C1A51915  15.146  40.743   6.450
 8427POPC   D2A51916  15.199  40.752   6.750
 8427POPC   C3A51917  15.192  40.789   7.050
 8427POPC   C4A51918  15.166  40.741   7.350
 8427POPC   C1B51919  15.157  40.523   6.450
 8427POPC   C2B51920  15.094  40.502   6.750
 8427POPC   C3B51921  15.149  40.560   7.050
 8427POPC   C4B51922  15.107  40.539   7.350
 8428POPC   NC351923  29.872   2.723   5.550
 8428POPC   PO451924  29.914   2.755   5.850
 8428POPC   GL151925  29.929   2.804   6.150
 8428POPC   GL251926  29.823   2.865   6.150
 8428POPC   C1A51927  29.940   2.723   6.450
 8428POPC   D2A51928  29.884   2.803   6.750
 8428POPC   C3A51929  29.876   2.719   7.050
 8428POPC   C4A51930  29.944   2.770   7.350
 8428POPC   C1B51931  29.820   3.011   6.450
 8428POPC   C2B51932  29.742   2.941   6.750
 8428POPC   C3B51933  29.772   2.926   7.050
 8428POPC   C4B51934  29.757   2.930   7.350
 8429POPC   NC351935  22.160  33.761   5.550
 8429POPC   PO451936  22.160  33.818   5.850
 8429POPC   GL151937  22.200  33.826   6.150
 8429POPC   GL251938  22.308  33.851   6.150
 8429POPC   C1A51939  22.177  33.822   6.450
 8429POPC   D2A51940  22.131  33.818   6.750
 8429POPC   C3A51941  22.112  33.817   7.050
 8429POPC   C4A51942  22.161  33.819   7.350
 8429POPC   C1B51943  22.402  33.989   6.450
 8429POPC   C2B51944  22.366  33.948   6.750
 8429POPC   C3B51945  22.346  33.983   7.050
 8429POPC   C4B51946  22.323  33.924   7.350
 8430POPC   NC351947  24.480  27.607   5.550
 8430POPC   PO451948  24.484  27.574   5.850
 8430POPC   GL151949  24.454  27.555   6.150
 8430POPC   GL251950  24.449  27.539   6.150
 8430POPC   C1A51951  24.527  27.609   6.450
 8430POPC   D2A51952  24.539  27.587   6.750
 8430POPC   C3A51953  24.496  27.612   7.050
 8430POPC   C4A51954  24.449  27.566   7.350
 8430POPC   C1B51955  24.356  27.424   6.450
 8430POPC   C2B51956  24.361  27.426   6.750
 8430POPC   C3B51957  24.382  27.404   7.050
 8430POPC   C4B51958  24.345  27.369   7.350
 8431POPC   NC351959  37.700  24.498   5.550
 8431POPC   PO451960  37.640  24.452   5.850
 8431POPC   GL151961  37.643  24.443   6.150
 8431POPC   GL251962  37.653  24.621   6.150
 8431POPC   C1A51963  37.670  24.501   6.450
 8431POPC   D2A51964  37.662  24.512   6.750
 8431POPC   C3A51965  37.718  24.451   7.050
 8431POPC   C4A51966  37.640  24.467   7.350
 8431POPC   C1B51967  37.601  24.708   6.450
 8431POPC   C2B51968  37.564  24.725   6.750
 8431POPC   C3B51969  37.597  24.678   7.050
 8431POPC   C4B51970  37.552  24.748   7.350
 8432POPC   NC351971  22.192   4.303   5.550
 8432POPC   PO451972  22.113   4.350   5.850
 8432POPC   GL151973  22.139   4.297   6.150
 8432POPC   GL251974  22.158   4.169   6.150
 8432POPC   C1A51975  22.158   4.343   6.450
 8432POPC   D2A51976  22.202   4.306   6.750
 8432POPC   C3A51977  22.189   4.278   7.050
 8432POPC   C4A51978  22.175   4.328   7.350
 8432POPC   C1B51979  22.189   4.114   6.450
 8432POPC   C2B51980  22.161   4.021   6.750
 8432POPC   C3B51981  22.156   4.089   7.050
 8432POPC   C4B51982  22.186   4.094   7.350
 8433POPC   NC351983  36.080   3.558   5.550
 8433POPC   PO451984  36.169   3.510   5.850
 8433POPC   GL151985  36.162   3.521   6.150
 8433POPC   GL251986  36.145   3.381   6.150
 8433POPC   C1A51987  36.146   3.508   6.450
 8433POPC   D2A51988  36.154   3.499   6.750
 8433POPC   C3A51989  36.139   3.498   7.050
 8433POPC   C4A51990  36.169   3.560   7.350
 8433POPC   C1B51991  36.106   3.340   6.450
 8433POPC   C2B51992  36.037   3.283   6.750
 8433POPC   C3B51993  36.117   3.340   7.050
 8433POPC   C4B51994  36.076   3.333   7.350
 8434POPC   NC351995  15.162  27.587   5.550
 8434POPC   PO451996  15.195  27.621   5.850
 8434POPC   GL151997  15.224  27.556   6.150
 8434POPC   GL251998  15.288  27.689   6.150
 8434POPC   C1A51999  15.212  27.554   6.450
 8434POPC   D2A52000  15.186  27.593   6.750
 8434POPC   C3A52001  15.209  27.575   7.050
 8434POPC   C4A52002  15.151  27.642   7.350
 8434POPC   C1B52003  15.286  27.822   6.450
 8434POPC   C2B52004  15.282  27.760   6.750
 8434POPC   C3B52005  15.263  27.804   7.050
 8434POPC   C4B52006  15.328  27.853   7.350
 8435POPC   NC352007  39.986  15.999   5.550
 8435POPC   PO452008  40.032  15.926   5.850
 8435POPC   GL152009  39.959  15.951   6.150
 8435POPC   GL252010  40.113  15.964   6.150
 8435POPC   C1A52011  39.969  15.976   6.450
 8435POPC   D2A52012  40.053  16.005   6.750
 8435POPC   C3A52013  40.007  15.976   7.050
 8435POPC   C4A52014  40.046  15.992   7.350
 8435POPC   C1B52015  40.277  15.999   6.450
 8435POPC   C2B52016  40.192  16.000   6.750
 8435POPC   C3B52017  40.192  16.080   7.050
 8435POPC   C4B52018  40.280  16.085   7.350
 8436POPC   NC352019  39.964  12.857   5.550
 8436POPC   PO452020  39.993  12.895   5.850
 8436POPC   GL152021  40.024  12.815   6.150
 8436POPC   GL252022  39.962  12.751   6.150
 8436POPC   C1A52023  40.018  12.826   6.450
 8436POPC   D2A52024  40.025  12.879   6.750
 8436POPC   C3A52025  39.957  12.897   7.050
 8436POPC   C4A52026  39.992  12.880   7.350
 8436POPC   C1B52027  40.002  12.644   6.450
 8436POPC   C2B52028  40.011  12.595   6.750
 8436POPC   C3B52029  39.997  12.560   7.050
 8436POPC   C4B52030  40.037  12.620   7.350
 8437POPC   NC352031  41.566   6.694   5.550
 8437POPC   PO452032  41.516   6.669   5.850
 8437POPC   GL152033  41.545   6.601   6.150
 8437POPC   GL252034  41.568   6.486   6.150
 8437POPC   C1A52035  41.600   6.669   6.450
 8437POPC   D2A52036  41.602   6.660   6.750
 8437POPC   C3A52037  41.535   6.617   7.050
 8437POPC   C4A52038  41.570   6.660   7.350
 8437POPC   C1B52039  41.654   6.459   6.450
 8437POPC   C2B52040  41.694   6.417   6.750
 8437POPC   C3B52041  41.641   6.456   7.050
 8437POPC   C4B52042  41.625   6.410   7.350
 8438POPC   NC352043  31.522  33.776   5.550
 8438POPC   PO452044  31.517  33.794   5.850
 8438POPC   GL152045  31.450  33.849   6.150
 8438POPC   GL252046  31.337  33.770   6.150
 8438POPC   C1A52047  31.509  33.806   6.450
 8438POPC   D2A52048  31.446  33.821   6.750
 8438POPC   C3A52049  31.462  33.792   7.050
 8438POPC   C4A52050  31.503  33.802   7.350
 8438POPC   C1B52051  31.263  33.823   6.450
 8438POPC   C2B52052  31.186  33.790   6.750
 8438POPC   C3B52053  31.217  33.790   7.050
 8438POPC   C4B52054  31.249  33.797   7.350
 8439POPC   NC352055  36.871  12.055   5.550
 8439POPC   PO452056  36.943  12.115   5.850
 8439POPC   GL152057  36.947  12.121   6.150
 8439POPC   GL252058  36.903  12.228   6.150
 8439POPC   C1A52059  36.913  12.079   6.450
 8439POPC   D2A52060  36.939  12.106   6.750
 8439POPC   C3A52061  36.894  12.114   7.050
 8439POPC   C4A52062  36.930  12.083   7.350
 8439POPC   C1B52063  36.972  12.280   6.450
 8439POPC   C2B52064  36.967  12.288   6.750
 8439POPC   C3B52065  36.946  12.292   7.050
 8439POPC   C4B52066  36.934  12.308   7.350
 8440POPC   NC352067  26.792   9.009   5.550
 8440POPC   PO452068  26.840   8.978   5.850
 8440POPC   GL152069  26.852   8.987   6.150
 8440POPC   GL252070  26.929   8.860   6.150
 8440POPC   C1A52071  26.799   8.998   6.450
 8440POPC   D2A52072  26.815   8.993   6.750
 8440POPC   C3A52073  26.783   8.986   7.050
 8440POPC   C4A52074  26.825   9.001   7.350
 8440POPC   C1B52075  26.903   8.722   6.450
 8440POPC   C2B52076  26.946   8.721   6.750
 8440POPC   C3B52077  26.956   8.778   7.050
 8440POPC   C4B52078  26.914   8.754   7.350
 8441POPC   NC352079  36.110  32.277   5.550
 8441POPC   PO452080  36.164  32.247   5.850
 8441POPC   GL152081  36.124  32.249   6.150
 8441POPC   GL252082  36.169  32.149   6.150
 8441POPC   C1A52083  36.083  32.220   6.450
 8441POPC   D2A52084  36.150  32.232   6.750
 8441POPC   C3A52085  36.142  32.296   7.050
 8441POPC   C4A52086  36.126  32.235   7.350
 8441POPC   C1B52087  36.110  31.971   6.450
 8441POPC   C2B52088  36.106  31.972   6.750
 8441POPC   C3B52089  36.137  31.976   7.050
 8441POPC   C4B52090  36.163  31.974   7.350
 8442POPC   NC352091  40.013  27.566   5.550
 8442POPC   PO452092  40.035  27.551   5.850
 8442POPC   GL152093  39.979  27.562   6.150
 8442POPC   GL252094  40.154  27.514   6.150
 8442POPC   C1A52095  40.002  27.606   6.450
 8442POPC   D2A52096  40.001  27.640   6.750
 8442POPC   C3A52097  40.000  27.583   7.050
 8442POPC   C4A52098  40.052  27.605   7.350
 8442POPC   C1B52099  40.232  27.457   6.450
 8442POPC   C2B52100  40.211  27.468   6.750
 8442POPC   C3B52101  40.235  27.515   7.050
 8442POPC   C4B52102  40.226  27.444   7.350
 8443POPC   NC352103   1.214   8.940   5.550
 8443POPC   PO452104   1.257   8.948   5.850
 8443POPC   GL152105   1.246   9.016   6.150
 8443POPC   GL252106   1.281   8.897   6.150
 8443POPC   C1A52107   1.194   8.963   6.450
 8443POPC   D2A52108   1.243   8.999   6.750
 8443POPC   C3A52109   1.169   9.001   7.050
 8443POPC   C4A52110   1.206   8.929   7.350
 8443POPC   C1B52111   1.350   8.801   6.450
 8443POPC   C2B52112   1.410   8.770   6.750
 8443POPC   C3B52113   1.383   8.731   7.050
 8443POPC   C4B52114   1.339   8.758   7.350
 8444POPC   NC352115  27.639  22.185   5.550
 8444POPC   PO452116  27.604  22.210   5.850
 8444POPC   GL152117  27.618  22.148   6.150
 8444POPC   GL252118  27.675  22.246   6.150
 8444POPC   C1A52119  27.577  22.205   6.450
 8444POPC   D2A52120  27.631  22.168   6.750
 8444POPC   C3A52121  27.628  22.160   7.050
 8444POPC   C4A52122  27.559  22.144   7.350
 8444POPC   C1B52123  27.694  22.417   6.450
 8444POPC   C2B52124  27.678  22.381   6.750
 8444POPC   C3B52125  27.672  22.371   7.050
 8444POPC   C4B52126  27.686  22.379   7.350
 8445POPC   NC352127  36.952  35.373   5.550
 8445POPC   PO452128  36.912  35.326   5.850
 8445POPC   GL152129  36.943  35.333   6.150
 8445POPC   GL252130  37.042  35.303   6.150
 8445POPC   C1A52131  36.893  35.307   6.450
 8445POPC   D2A52132  36.899  35.342   6.750
 8445POPC   C3A52133  36.875  35.330   7.050
 8445POPC   C4A52134  36.912  35.355   7.350
 8445POPC   C1B52135  37.185  35.228   6.450
 8445POPC   C2B52136  37.153  35.261   6.750
 8445POPC   C3B52137  37.135  35.264   7.050
 8445POPC   C4B52138  37.179  35.283   7.350
 8446POPC   NC352139  15.945  23.714   5.550
 8446POPC   PO452140  15.984  23.700   5.850
 8446POPC   GL152141  15.988  23.700   6.150
 8446POPC   GL252142  16.095  23.729   6.150
 8446POPC   C1A52143  15.991  23.672   6.450
 8446POPC   D2A52144  15.995  23.739   6.750
 8446POPC   C3A52145  15.920  23.717   7.050
 8446POPC   C4A52146  15.923  23.684   7.350
 8446POPC   C1B52147  16.230  23.722   6.450
 8446POPC   C2B52148  16.172  23.659   6.750
 8446POPC   C3B52149  16.196  23.739   7.050
 8446POPC   C4B52150  16.225  23.725   7.350
 8447POPC   NC352151   2.722  30.700   5.550
 8447POPC   PO452152   2.771  30.692   5.850
 8447POPC   GL152153   2.749  30.705   6.150
 8447POPC   GL252154   2.722  30.580   6.150
 8447POPC   C1A52155   2.747  30.676   6.450
 8447POPC   D2A52156   2.718  30.721   6.750
 8447POPC   C3A52157   2.742  30.715   7.050
 8447POPC   C4A52158   2.788  30.718   7.350
 8447POPC   C1B52159   2.742  30.408   6.450
 8447POPC   C2B52160   2.803  30.435   6.750
 8447POPC   C3B52161   2.794  30.458   7.050
 8447POPC   C4B52162   2.804  30.493   7.350
 8448POPC   NC352163   6.645  36.109   5.550
 8448POPC   PO452164   6.640  36.173   5.850
 8448POPC   GL152165   6.659  36.078   6.150
 8448POPC   GL252166   6.800  36.138   6.150
 8448POPC   C1A52167   6.693  36.111   6.450
 8448POPC   D2A52168   6.679  36.116   6.750
 8448POPC   C3A52169   6.659  36.157   7.050
 8448POPC   C4A52170   6.685  36.146   7.350
 8448POPC   C1B52171   6.889  36.161   6.450
 8448POPC   C2B52172   6.933  36.211   6.750
 8448POPC   C3B52173   6.862  36.212   7.050
 8448POPC   C4B52174   6.850  36.230   7.350
 8449POPC   NC352175  29.175  33.032   5.550
 8449POPC   PO452176  29.097  33.048   5.850
 8449POPC   GL152177  29.149  32.994   6.150
 8449POPC   GL252178  29.289  33.093   6.150
 8449POPC   C1A52179  29.103  33.014   6.450
 8449POPC   D2A52180  29.176  33.034   6.750
 8449POPC   C3A52181  29.181  32.995   7.050
 8449POPC   C4A52182  29.190  33.054   7.350
 8449POPC   C1B52183  29.335  33.126   6.450
 8449POPC   C2B52184  29.411  33.147   6.750
 8449POPC   C3B52185  29.373  33.088   7.050
 8449POPC   C4B52186  29.402  33.135   7.350
 8450POPC   NC352187  30.726   2.809   5.550
 8450POPC   PO452188  30.687   2.802   5.850
 8450POPC   GL152189  30.688   2.782   6.150
 8450POPC   GL252190  30.714   2.612   6.150
 8450POPC   C1A52191  30.709   2.780   6.450
 8450POPC   D2A52192  30.671   2.774   6.750
 8450POPC   C3A52193  30.728   2.755   7.050
 8450POPC   C4A52194  30.733   2.795   7.350
 8450POPC   C1B52195  30.721   2.490   6.450
 8450POPC   C2B52196  30.804   2.571   6.750
 8450POPC   C3B52197  30.808   2.554   7.050
 8450POPC   C4B52198  30.778   2.542   7.350
 8451POPC   NC352199  29.125  36.905   5.550
 8451POPC   PO452200  29.103  36.923   5.850
 8451POPC   GL152201  29.161  36.950   6.150
 8451POPC   GL252202  29.271  36.940   6.150
 8451POPC   C1A52203  29.136  36.949   6.450
 8451POPC   D2A52204  29.100  36.856   6.750
 8451POPC   C3A52205  29.149  36.926   7.050
 8451POPC   C4A52206  29.151  36.854   7.350
 8451POPC   C1B52207  29.418  36.981   6.450
 8451POPC   C2B52208  29.367  36.962   6.750
 8451POPC   C3B52209  29.386  36.987   7.050
 8451POPC   C4B52210  29.349  36.972   7.350
 8452POPC   NC352211  38.485  37.646   5.550
 8452POPC   PO452212  38.460  37.713   5.850
 8452POPC   GL152213  38.489  37.661   6.150
 8452POPC   GL252214  38.327  37.710   6.150
 8452POPC   C1A52215  38.413  37.684   6.450
 8452POPC   D2A52216  38.454  37.701   6.750
 8452POPC   C3A52217  38.432  37.710   7.050
 8452POPC   C4A52218  38.426  37.636   7.350
 8452POPC   C1B52219  38.215  37.734   6.450
 8452POPC   C2B52220  38.167  37.761   6.750
 8452POPC   C3B52221  38.237  37.708   7.050
 8452POPC   C4B52222  38.185  37.679   7.350
 8453POPC   NC352223  14.379  29.922   5.550
 8453POPC   PO452224  14.387  29.915   5.850
 8453POPC   GL152225  14.450  29.890   6.150
 8453POPC   GL252226  14.532  29.909   6.150
 8453POPC   C1A52227  14.411  29.896   6.450
 8453POPC   D2A52228  14.419  29.959   6.750
 8453POPC   C3A52229  14.436  29.916   7.050
 8453POPC   C4A52230  14.447  29.948   7.350
 8453POPC   C1B52231  14.643  29.925   6.450
 8453POPC   C2B52232  14.698  29.908   6.750
 8453POPC   C3B52233  14.680  29.917   7.050
 8453POPC   C4B52234  14.687  29.938   7.350
 8454POPC   NC352235  10.497  34.623   5.550
 8454POPC   PO452236  10.476  34.603   5.850
 8454POPC   GL152237  10.524  34.567   6.150
 8454POPC   GL252238  10.523  34.666   6.150
 8454POPC   C1A52239  10.549  34.558   6.450
 8454POPC   D2A52240  10.535  34.616   6.750
 8454POPC   C3A52241  10.557  34.612   7.050
 8454POPC   C4A52242  10.484  34.564   7.350
 8454POPC   C1B52243  10.630  34.810   6.450
 8454POPC   C2B52244  10.617  34.849   6.750
 8454POPC   C3B52245  10.576  34.801   7.050
 8454POPC   C4B52246  10.643  34.792   7.350
 8455POPC   NC352247  29.144  21.345   5.550
 8455POPC   PO452248  29.138  21.355   5.850
 8455POPC   GL152249  29.180  21.435   6.150
 8455POPC   GL252250  29.243  21.405   6.150
 8455POPC   C1A52251  29.154  21.349   6.450
 8455POPC   D2A52252  29.100  21.361   6.750
 8455POPC   C3A52253  29.178  21.374   7.050
 8455POPC   C4A52254  29.156  21.373   7.350
 8455POPC   C1B52255  29.442  21.397   6.450
 8455POPC   C2B52256  29.424  21.415   6.750
 8455POPC   C3B52257  29.356  21.386   7.050
 8455POPC   C4B52258  29.393  21.364   7.350
 8456POPC   NC352259  17.532  43.060   5.550
 8456POPC   PO452260  17.553  43.078   5.850
 8456POPC   GL152261  17.496  43.150   6.150
 8456POPC   GL252262  17.529  43.220   6.150
 8456POPC   C1A52263  17.505  43.134   6.450
 8456POPC   D2A52264  17.520  43.158   6.750
 8456POPC   C3A52265  17.473  43.094   7.050
 8456POPC   C4A52266  17.537  43.131   7.350
 8456POPC   C1B52267  17.457  43.313   6.450
 8456POPC   C2B52268  17.485  43.349   6.750
 8456POPC   C3B52269  17.466  43.322   7.050
 8456POPC   C4B52270  17.515  43.385   7.350
 8457POPC   NC352271   1.975   3.553   5.550
 8457POPC   PO452272   2.024   3.536   5.850
 8457POPC   GL152273   2.018   3.508   6.150
 8457POPC   GL252274   1.933   3.458   6.150
 8457POPC   C1A52275   1.990   3.545   6.450
 8457POPC   D2A52276   1.943   3.536   6.750
 8457POPC   C3A52277   2.014   3.548   7.050
 8457POPC   C4A52278   1.960   3.499   7.350
 8457POPC   C1B52279   1.933   3.274   6.450
 8457POPC   C2B52280   1.985   3.265   6.750
 8457POPC   C3B52281   1.936   3.286   7.050
 8457POPC   C4B52282   1.922   3.315   7.350
 8458POPC   NC352283   4.328  30.656   5.550
 8458POPC   PO452284   4.287  30.651   5.850
 8458POPC   GL152285   4.341  30.701   6.150
 8458POPC   GL252286   4.434  30.593   6.150
 8458POPC   C1A52287   4.332  30.692   6.450
 8458POPC   D2A52288   4.347  30.746   6.750
 8458POPC   C3A52289   4.323  30.696   7.050
 8458POPC   C4A52290   4.347  30.720   7.350
 8458POPC   C1B52291   4.525  30.581   6.450
 8458POPC   C2B52292   4.529  30.539   6.750
 8458POPC   C3B52293   4.567  30.615   7.050
 8458POPC   C4B52294   4.496  30.536   7.350
 8459POPC   NC352295  43.840   5.868   5.550
 8459POPC   PO452296  43.929   5.838   5.850
 8459POPC   GL152297  43.852   5.828   6.150
 8459POPC   GL252298  43.945   5.899   6.150
 8459POPC   C1A52299  43.921   5.877   6.450
 8459POPC   D2A52300  43.884   5.862   6.750
 8459POPC   C3A52301  43.890   5.895   7.050
 8459POPC   C4A52302  43.933   5.885   7.350
 8459POPC   C1B52303  44.045   6.036   6.450
 8459POPC   C2B52304  44.066   6.046   6.750
 8459POPC   C3B52305  44.100   6.056   7.050
 8459POPC   C4B52306  44.108   6.011   7.350
 8460POPC   NC352307   5.862  35.346   5.550
 8460POPC   PO452308   5.855  35.312   5.850
 8460POPC   GL152309   5.892  35.337   6.150
 8460POPC   GL252310   5.924  35.412   6.150
 8460POPC   C1A52311   5.833  35.385   6.450
 8460POPC   D2A52312   5.911  35.375   6.750
 8460POPC   C3A52313   5.841  35.382   7.050
 8460POPC   C4A52314   5.875  35.338   7.350
 8460POPC   C1B52315   6.049  35.524   6.450
 8460POPC   C2B52316   5.998  35.587   6.750
 8460POPC   C3B52317   6.079  35.507   7.050
 8460POPC   C4B52318   6.057  35.515   7.350
 8461POPC   NC352319  44.699  24.528   5.550
 8461POPC   PO452320  44.629  24.453   5.850
 8461POPC   GL152321  44.705  24.459   6.150
 8461POPC   GL252322  44.676  24.645   6.150
 8461POPC   C1A52323  44.663  24.527   6.450
 8461POPC   D2A52324  44.672  24.510   6.750
 8461POPC   C3A52325  44.643  24.518   7.050
 8461POPC   C4A52326  44.711  24.505   7.350
 8461POPC   C1B52327  44.638  24.729   6.450
 8461POPC   C2B52328  44.650  24.750   6.750
 8461POPC   C3B52329  44.580  24.726   7.050
 8461POPC   C4B52330  44.596  24.785   7.350
 8462POPC   NC352331   8.974   0.421   5.550
 8462POPC   PO452332   8.985   0.403   5.850
 8462POPC   GL152333   8.996   0.476   6.150
 8462POPC   GL252334   8.834   0.433   6.150
 8462POPC   C1A52335   8.939   0.419   6.450
 8462POPC   D2A52336   8.962   0.424   6.750
 8462POPC   C3A52337   8.973   0.469   7.050
 8462POPC   C4A52338   8.954   0.462   7.350
 8462POPC   C1B52339   8.724   0.382   6.450
 8462POPC   C2B52340   8.760   0.355   6.750
 8462POPC   C3B52341   8.734   0.370   7.050
 8462POPC   C4B52342   8.735   0.373   7.350
 8463POPC   NC352343  36.154   5.841   5.550
 8463POPC   PO452344  36.091   5.836   5.850
 8463POPC   GL152345  36.121   5.842   6.150
 8463POPC   GL252346  36.033   5.847   6.150
 8463POPC   C1A52347  36.143   5.871   6.450
 8463POPC   D2A52348  36.095   5.855   6.750
 8463POPC   C3A52349  36.096   5.892   7.050
 8463POPC   C4A52350  36.141   5.891   7.350
 8463POPC   C1B52351  35.874   5.723   6.450
 8463POPC   C2B52352  35.945   5.761   6.750
 8463POPC   C3B52353  35.895   5.727   7.050
 8463POPC   C4B52354  35.918   5.772   7.350
 8464POPC   NC352355  29.943  44.673   5.550
 8464POPC   PO452356  29.937  44.624   5.850
 8464POPC   GL152357  29.877  44.619   6.150
 8464POPC   GL252358  30.005  44.745   6.150
 8464POPC   C1A52359  29.920  44.678   6.450
 8464POPC   D2A52360  29.955  44.616   6.750
 8464POPC   C3A52361  29.959  44.680   7.050
 8464POPC   C4A52362  29.911  44.701   7.350
 8464POPC   C1B52363  29.982  44.895   6.450
 8464POPC   C2B52364  30.012  44.869   6.750
 8464POPC   C3B52365  29.963  44.914   7.050
 8464POPC   C4B52366  29.990  44.950   7.350
 8465POPC   NC352367  22.150  24.462   5.550
 8465POPC   PO452368  22.169  24.518   5.850
 8465POPC   GL152369  22.161  24.447   6.150
 8465POPC   GL252370  22.211  24.627   6.150
 8465POPC   C1A52371  22.128  24.456   6.450
 8465POPC   D2A52372  22.114  24.526   6.750
 8465POPC   C3A52373  22.124  24.446   7.050
 8465POPC   C4A52374  22.147  24.519   7.350
 8465POPC   C1B52375  22.338  24.660   6.450
 8465POPC   C2B52376  22.359  24.715   6.750
 8465POPC   C3B52377  22.286  24.650   7.050
 8465POPC   C4B52378  22.317  24.655   7.350
 8466POPC   NC352379  10.561  23.704   5.550
 8466POPC   PO452380  10.521  23.679   5.850
 8466POPC   GL152381  10.500  23.668   6.150
 8466POPC   GL252382  10.675  23.797   6.150
 8466POPC   C1A52383  10.480  23.754   6.450
 8466POPC   D2A52384  10.514  23.761   6.750
 8466POPC   C3A52385  10.539  23.728   7.050
 8466POPC   C4A52386  10.534  23.758   7.350
 8466POPC   C1B52387  10.739  23.880   6.450
 8466POPC   C2B52388  10.782  23.831   6.750
 8466POPC   C3B52389  10.774  23.841   7.050
 8466POPC   C4B52390  10.690  23.813   7.350
 8467POPC   NC352391  33.800  20.631   5.550
 8467POPC   PO452392  33.752  20.591   5.850
 8467POPC   GL152393  33.843  20.594   6.150
 8467POPC   GL252394  33.837  20.737   6.150
 8467POPC   C1A52395  33.838  20.583   6.450
 8467POPC   D2A52396  33.758  20.626   6.750
 8467POPC   C3A52397  33.820  20.564   7.050
 8467POPC   C4A52398  33.794  20.639   7.350
 8467POPC   C1B52399  33.862  20.897   6.450
 8467POPC   C2B52400  33.874  20.819   6.750
 8467POPC   C3B52401  33.839  20.889   7.050
 8467POPC   C4B52402  33.915  20.802   7.350
 8468POPC   NC352403  36.942  20.630   5.550
 8468POPC   PO452404  36.938  20.633   5.850
 8468POPC   GL152405  36.918  20.641   6.150
 8468POPC   GL252406  36.821  20.633   6.150
 8468POPC   C1A52407  36.937  20.636   6.450
 8468POPC   D2A52408  36.930  20.592   6.750
 8468POPC   C3A52409  36.856  20.617   7.050
 8468POPC   C4A52410  36.943  20.602   7.350
 8468POPC   C1B52411  36.673  20.653   6.450
 8468POPC   C2B52412  36.640  20.630   6.750
 8468POPC   C3B52413  36.609  20.658   7.050
 8468POPC   C4B52414  36.656  20.643   7.350
 8469POPC   NC352415  33.832   1.957   5.550
 8469POPC   PO452416  33.821   1.996   5.850
 8469POPC   GL152417  33.813   2.002   6.150
 8469POPC   GL252418  33.968   1.994   6.150
 8469POPC   C1A52419  33.830   2.006   6.450
 8469POPC   D2A52420  33.790   1.996   6.750
 8469POPC   C3A52421  33.825   1.993   7.050
 8469POPC   C4A52422  33.832   1.971   7.350
 8469POPC   C1B52423  34.011   2.035   6.450
 8469POPC   C2B52424  34.035   2.008   6.750
 8469POPC   C3B52425  34.081   2.050   7.050
 8469POPC   C4B52426  34.009   1.984   7.350
 8470POPC   NC352427   6.601  15.941   5.550
 8470POPC   PO452428   6.596  15.972   5.850
 8470POPC   GL152429   6.642  15.973   6.150
 8470POPC   GL252430   6.617  15.795   6.150
 8470POPC   C1A52431   6.626  15.990   6.450
 8470POPC   D2A52432   6.680  15.922   6.750
 8470POPC   C3A52433   6.651  15.907   7.050
 8470POPC   C4A52434   6.609  16.004   7.350
 8470POPC   C1B52435   6.654  15.723   6.450
 8470POPC   C2B52436   6.580  15.668   6.750
 8470POPC   C3B52437   6.639  15.722   7.050
 8470POPC   C4B52438   6.577  15.664   7.350
 8471POPC   NC352439  33.026   1.977   5.550
 8471POPC   PO452440  32.992   2.001   5.850
 8471POPC   GL152441  33.008   1.964   6.150
 8471POPC   GL252442  32.894   1.982   6.150
 8471POPC   C1A52443  33.026   1.946   6.450
 8471POPC   D2A52444  33.062   1.964   6.750
 8471POPC   C3A52445  33.049   1.954   7.050
 8471POPC   C4A52446  33.012   2.039   7.350
 8471POPC   C1B52447  32.799   1.895   6.450
 8471POPC   C2B52448  32.807   1.875   6.750
 8471POPC   C3B52449  32.792   1.875   7.050
 8471POPC   C4B52450  32.753   1.946   7.350
 8472POPC   NC352451  33.053  44.702   5.550
 8472POPC   PO452452  33.010  44.663   5.850
 8472POPC   GL152453  33.032  44.692   6.150
 8472POPC   GL252454  33.162  44.741   6.150
 8472POPC   C1A52455  32.978  44.684   6.450
 8472POPC   D2A52456  33.019  44.642   6.750
 8472POPC   C3A52457  33.054  44.666   7.050
 8472POPC   C4A52458  32.993  44.653   7.350
 8472POPC   C1B52459  33.273  44.852   6.450
 8472POPC   C2B52460  33.220  44.817   6.750
 8472POPC   C3B52461  33.273  44.757   7.050
 8472POPC   C4B52462  33.206  44.819   7.350
 8473POPC   NC352463   5.904  33.049   5.550
 8473POPC   PO452464   5.857  33.009   5.850
 8473POPC   GL152465   5.877  33.016   6.150
 8473POPC   GL252466   5.836  32.946   6.150
 8473POPC   C1A52467   5.857  32.986   6.450
 8473POPC   D2A52468   5.847  33.019   6.750
 8473POPC   C3A52469   5.916  33.014   7.050
 8473POPC   C4A52470   5.866  33.033   7.350
 8473POPC   C1B52471   5.829  32.755   6.450
 8473POPC   C2B52472   5.804  32.752   6.750
 8473POPC   C3B52473   5.771  32.762   7.050
 8473POPC   C4B52474   5.793  32.741   7.350
 8474POPC   NC352475  11.346  44.696   5.550
 8474POPC   PO452476  11.349  44.644   5.850
 8474POPC   GL152477  11.313  44.708   6.150
 8474POPC   GL252478  11.182  44.713   6.150
 8474POPC   C1A52479  11.272  44.671   6.450
 8474POPC   D2A52480  11.268  44.676   6.750
 8474POPC   C3A52481  11.315  44.664   7.050
 8474POPC   C4A52482  11.332  44.621   7.350
 8474POPC   C1B52483  11.128  44.794   6.450
 8474POPC   C2B52484  11.042  44.737   6.750
 8474POPC   C3B52485  11.080  44.750   7.050
 8474POPC   C4B52486  11.047  44.820   7.350
 8475POPC   NC352487   5.861  39.251   5.550
 8475POPC   PO452488   5.845  39.258   5.850
 8475POPC   GL152489   5.882  39.225   6.150
 8475POPC   GL252490   5.721  39.174   6.150
 8475POPC   C1A52491   5.847  39.194   6.450
 8475POPC   D2A52492   5.842  39.257   6.750
 8475POPC   C3A52493   5.919  39.265   7.050
 8475POPC   C4A52494   5.879  39.275   7.350
 8475POPC   C1B52495   5.679  39.182   6.450
 8475POPC   C2B52496   5.639  39.136   6.750
 8475POPC   C3B52497   5.625  39.107   7.050
 8475POPC   C4B52498   5.590  39.141   7.350
 8476POPC   NC352499  10.543  22.133   5.550
 8476POPC   PO452500  10.527  22.114   5.850
 8476POPC   GL152501  10.565  22.141   6.150
 8476POPC   GL252502  10.502  22.003   6.150
 8476POPC   C1A52503  10.545  22.151   6.450
 8476POPC   D2A52504  10.557  22.190   6.750
 8476POPC   C3A52505  10.549  22.172   7.050
 8476POPC   C4A52506  10.568  22.203   7.350
 8476POPC   C1B52507  10.511  21.943   6.450
 8476POPC   C2B52508  10.556  21.962   6.750
 8476POPC   C3B52509  10.582  21.877   7.050
 8476POPC   C4B52510  10.579  21.944   7.350
 8477POPC   NC352511  30.715  19.071   5.550
 8477POPC   PO452512  30.695  19.046   5.850
 8477POPC   GL152513  30.688  19.035   6.150
 8477POPC   GL252514  30.799  18.981   6.150
 8477POPC   C1A52515  30.673  19.070   6.450
 8477POPC   D2A52516  30.651  19.045   6.750
 8477POPC   C3A52517  30.743  19.064   7.050
 8477POPC   C4A52518  30.682  19.059   7.350
 8477POPC   C1B52519  30.814  18.863   6.450
 8477POPC   C2B52520  30.780  18.819   6.750
 8477POPC   C3B52521  30.815  18.851   7.050
 8477POPC   C4B52522  30.836  18.837   7.350
 8478POPC   NC352523   8.989  16.731   5.550
 8478POPC   PO452524   8.993  16.762   5.850
 8478POPC   GL152525   9.000  16.700   6.150
 8478POPC   GL252526   8.915  16.608   6.150
 8478POPC   C1A52527   9.015  16.720   6.450
 8478POPC   D2A52528   9.012  16.720   6.750
 8478POPC   C3A52529   8.947  16.756   7.050
 8478POPC   C4A52530   9.009  16.712   7.350
 8478POPC   C1B52531   8.932  16.454   6.450
 8478POPC   C2B52532   8.905  16.522   6.750
 8478POPC   C3B52533   8.882  16.530   7.050
 8478POPC   C4B52534   8.884  16.454   7.350
 8479POPC   NC352535  12.807  40.832   5.550
 8479POPC   PO452536  12.857  40.738   5.850
 8479POPC   GL152537  12.858  40.777   6.150
 8479POPC   GL252538  12.805  40.921   6.150
 8479POPC   C1A52539  12.877  40.735   6.450
 8479POPC   D2A52540  12.886  40.769   6.750
 8479POPC   C3A52541  12.820  40.758   7.050
 8479POPC   C4A52542  12.807  40.831   7.350
 8479POPC   C1B52543  12.795  41.049   6.450
 8479POPC   C2B52544  12.819  40.988   6.750
 8479POPC   C3B52545  12.821  41.038   7.050
 8479POPC   C4B52546  12.879  41.049   7.350
 8480POPC   NC352547  20.611  31.450   5.550
 8480POPC   PO452548  20.656  31.470   5.850
 8480POPC   GL152549  20.604  31.454   6.150
 8480POPC   GL252550  20.516  31.545   6.150
 8480POPC   C1A52551  20.567  31.453   6.450
 8480POPC   D2A52552  20.647  31.427   6.750
 8480POPC   C3A52553  20.595  31.502   7.050
 8480POPC   C4A52554  20.569  31.460   7.350
 8480POPC   C1B52555  20.385  31.575   6.450
 8480POPC   C2B52556  20.397  31.562   6.750
 8480POPC   C3B52557  20.432  31.572   7.050
 8480POPC   C4B52558  20.371  31.605   7.350
 8481POPC   NC352559  35.375  15.221   5.550
 8481POPC   PO452560  35.368  15.179   5.850
 8481POPC   GL152561  35.302  15.197   6.150
 8481POPC   GL252562  35.265  15.198   6.150
 8481POPC   C1A52563  35.325  15.196   6.450
 8481POPC   D2A52564  35.379  15.227   6.750
 8481POPC   C3A52565  35.387  15.147   7.050
 8481POPC   C4A52566  35.308  15.224   7.350
 8481POPC   C1B52567  35.082  15.159   6.450
 8481POPC   C2B52568  35.128  15.141   6.750
 8481POPC   C3B52569  35.072  15.180   7.050
 8481POPC   C4B52570  35.054  15.192   7.350
 8482POPC   NC352571  18.293  12.088   5.550
 8482POPC   PO452572  18.326  12.097   5.850
 8482POPC   GL152573  18.237  12.057   6.150
 8482POPC   GL252574  18.263  11.967   6.150
 8482POPC   C1A52575  18.315  12.034   6.450
 8482POPC   D2A52576  18.304  12.032   6.750
 8482POPC   C3A52577  18.287  12.116   7.050
 8482POPC   C4A52578  18.310  12.102   7.350
 8482POPC   C1B52579  18.227  11.790   6.450
 8482POPC   C2B52580  18.281  11.806   6.750
 8482POPC   C3B52581  18.267  11.797   7.050
 8482POPC   C4B52582  18.273  11.877   7.350
 8483POPC   NC352583   6.609  36.927   5.550
 8483POPC   PO452584   6.608  36.925   5.850
 8483POPC   GL152585   6.681  36.858   6.150
 8483POPC   GL252586   6.717  36.970   6.150
 8483POPC   C1A52587   6.597  36.911   6.450
 8483POPC   D2A52588   6.599  36.856   6.750
 8483POPC   C3A52589   6.646  36.933   7.050
 8483POPC   C4A52590   6.627  36.892   7.350
 8483POPC   C1B52591   6.879  37.014   6.450
 8483POPC   C2B52592   6.884  37.019   6.750
 8483POPC   C3B52593   6.797  37.010   7.050
 8483POPC   C4B52594   6.855  37.063   7.350
 8484POPC   NC352595  16.718  10.526   5.550
 8484POPC   PO452596  16.683  10.534   5.850
 8484POPC   GL152597  16.745  10.484   6.150
 8484POPC   GL252598  16.637  10.392   6.150
 8484POPC   C1A52599  16.781  10.569   6.450
 8484POPC   D2A52600  16.720  10.574   6.750
 8484POPC   C3A52601  16.723  10.512   7.050
 8484POPC   C4A52602  16.781  10.483   7.350
 8484POPC   C1B52603  16.646  10.253   6.450
 8484POPC   C2B52604  16.592  10.327   6.750
 8484POPC   C3B52605  16.660  10.276   7.050
 8484POPC   C4B52606  16.610  10.334   7.350
 8485POPC   NC352607  29.138  37.657   5.550
 8485POPC   PO452608  29.169  37.639   5.850
 8485POPC   GL152609  29.116  37.638   6.150
 8485POPC   GL252610  28.993  37.653   6.150
 8485POPC   C1A52611  29.117  37.709   6.450
 8485POPC   D2A52612  29.097  37.709   6.750
 8485POPC   C3A52613  29.178  37.692   7.050
 8485POPC   C4A52614  29.176  37.661   7.350
 8485POPC   C1B52615  28.901  37.568   6.450
 8485POPC   C2B52616  28.981  37.569   6.750
 8485POPC   C3B52617  28.949  37.494   7.050
 8485POPC   C4B52618  28.903  37.563   7.350
 8486POPC   NC352619   9.002  12.096   5.550
 8486POPC   PO452620   8.925  12.064   5.850
 8486POPC   GL152621   8.977  12.124   6.150
 8486POPC   GL252622   8.849  12.154   6.150
 8486POPC   C1A52623   9.012  12.059   6.450
 8486POPC   D2A52624   8.939  12.058   6.750
 8486POPC   C3A52625   8.932  12.119   7.050
 8486POPC   C4A52626   8.924  12.042   7.350
 8486POPC   C1B52627   8.709  12.160   6.450
 8486POPC   C2B52628   8.701  12.129   6.750
 8486POPC   C3B52629   8.693  12.146   7.050
 8486POPC   C4B52630   8.771  12.167   7.350
 8487POPC   NC352631  14.390  22.159   5.550
 8487POPC   PO452632  14.366  22.186   5.850
 8487POPC   GL152633  14.451  22.184   6.150
 8487POPC   GL252634  14.309  22.127   6.150
 8487POPC   C1A52635  14.402  22.192   6.450
 8487POPC   D2A52636  14.413  22.164   6.750
 8487POPC   C3A52637  14.443  22.198   7.050
 8487POPC   C4A52638  14.448  22.123   7.350
 8487POPC   C1B52639  14.148  22.106   6.450
 8487POPC   C2B52640  14.136  22.163   6.750
 8487POPC   C3B52641  14.155  22.131   7.050
 8487POPC   C4B52642  14.159  22.112   7.350
 8488POPC   NC352643   5.096  10.515   5.550
 8488POPC   PO452644   5.111  10.546   5.850
 8488POPC   GL152645   5.055  10.536   6.150
 8488POPC   GL252646   5.215  10.447   6.150
 8488POPC   C1A52647   5.071  10.558   6.450
 8488POPC   D2A52648   5.073  10.558   6.750
 8488POPC   C3A52649   5.070  10.560   7.050
 8488POPC   C4A52650   5.132  10.528   7.350
 8488POPC   C1B52651   5.304  10.414   6.450
 8488POPC   C2B52652   5.315  10.322   6.750
 8488POPC   C3B52653   5.269  10.417   7.050
 8488POPC   C4B52654   5.320  10.413   7.350
 8489POPC   NC352655  29.903  20.610   5.550
 8489POPC   PO452656  29.930  20.599   5.850
 8489POPC   GL152657  29.943  20.596   6.150
 8489POPC   GL252658  30.030  20.548   6.150
 8489POPC   C1A52659  29.878  20.601   6.450
 8489POPC   D2A52660  29.912  20.581   6.750
 8489POPC   C3A52661  29.926  20.576   7.050
 8489POPC   C4A52662  29.937  20.622   7.350
 8489POPC   C1B52663  30.088  20.455   6.450
 8489POPC   C2B52664  30.116  20.420   6.750
 8489POPC   C3B52665  30.156  20.420   7.050
 8489POPC   C4B52666  30.117  20.480   7.350
 8490POPC   NC352667  43.884  14.394   5.550
 8490POPC   PO452668  43.877  14.419   5.850
 8490POPC   GL152669  43.840  14.381   6.150
 8490POPC   GL252670  43.779  14.448   6.150
 8490POPC   C1A52671  43.906  14.404   6.450
 8490POPC   D2A52672  43.863  14.405   6.750
 8490POPC   C3A52673  43.913  14.388   7.050
 8490POPC   C4A52674  43.926  14.425   7.350
 8490POPC   C1B52675  43.643  14.578   6.450
 8490POPC   C2B52676  43.698  14.503   6.750
 8490POPC   C3B52677  43.632  14.546   7.050
 8490POPC   C4B52678  43.675  14.514   7.350
 8491POPC   NC352679  24.492  22.179   5.550
 8491POPC   PO452680  24.501  22.114   5.850
 8491POPC   GL152681  24.473  22.153   6.150
 8491POPC   GL252682  24.416  22.270   6.150
 8491POPC   C1A52683  24.502  22.180   6.450
 8491POPC   D2A52684  24.500  22.163   6.750
 8491POPC   C3A52685  24.444  22.145   7.050
 8491POPC   C4A52686  24.487  22.151   7.350
 8491POPC   C1B52687  24.362  22.363   6.450
 8491POPC   C2B52688  24.360  22.392   6.750
 8491POPC   C3B52689  24.320  22.360   7.050
 8491POPC   C4B52690  24.364  22.359   7.350
 8492POPC   NC352691  30.648  10.523   5.550
 8492POPC   PO452692  30.729  10.531   5.850
 8492POPC   GL152693  30.732  10.532   6.150
 8492POPC   GL252694  30.616  10.501   6.150
 8492POPC   C1A52695  30.653  10.497   6.450
 8492POPC   D2A52696  30.735  10.542   6.750
 8492POPC   C3A52697  30.681  10.510   7.050
 8492POPC   C4A52698  30.690  10.485   7.350
 8492POPC   C1B52699  30.411  10.468   6.450
 8492POPC   C2B52700  30.461  10.508   6.750
 8492POPC   C3B52701  30.493  10.427   7.050
 8492POPC   C4B52702  30.486  10.478   7.350
 8493POPC   NC352703  26.798  24.503   5.550
 8493POPC   PO452704  26.819  24.454   5.850
 8493POPC   GL152705  26.817  24.502   6.150
 8493POPC   GL252706  26.946  24.510   6.150
 8493POPC   C1A52707  26.770  24.466   6.450
 8493POPC   D2A52708  26.846  24.485   6.750
 8493POPC   C3A52709  26.774  24.515   7.050
 8493POPC   C4A52710  26.786  24.459   7.350
 8493POPC   C1B52711  27.065  24.415   6.450
 8493POPC   C2B52712  27.096  24.443   6.750
 8493POPC   C3B52713  27.115  24.460   7.050
 8493POPC   C4B52714  27.041  24.482   7.350
 8494POPC   NC352715  20.568  10.551   5.550
 8494POPC   PO452716  20.607  10.508   5.850
 8494POPC   GL152717  20.620  10.496   6.150
 8494POPC   GL252718  20.686  10.386   6.150
 8494POPC   C1A52719  20.623  10.557   6.450
 8494POPC   D2A52720  20.623  10.496   6.750
 8494POPC   C3A52721  20.570  10.517   7.050
 8494POPC   C4A52722  20.597  10.477   7.350
 8494POPC   C1B52723  20.774  10.357   6.450
 8494POPC   C2B52724  20.766  10.327   6.750
 8494POPC   C3B52725  20.723  10.349   7.050
 8494POPC   C4B52726  20.788  10.293   7.350
 8495POPC   NC352727  43.073  10.495   5.550
 8495POPC   PO452728  43.074  10.542   5.850
 8495POPC   GL152729  43.135  10.500   6.150
 8495POPC   GL252730  43.142  10.410   6.150
 8495POPC   C1A52731  43.083  10.519   6.450
 8495POPC   D2A52732  43.159  10.544   6.750
 8495POPC   C3A52733  43.061  10.501   7.050
 8495POPC   C4A52734  43.135  10.509   7.350
 8495POPC   C1B52735  43.218  10.312   6.450
 8495POPC   C2B52736  43.246  10.299   6.750
 8495POPC   C3B52737  43.278  10.265   7.050
 8495POPC   C4B52738  43.190  10.263   7.350
 8496POPC   NC352739  19.054  22.966   5.550
 8496POPC   PO452740  19.054  22.945   5.850
 8496POPC   GL152741  19.059  22.965   6.150
 8496POPC   GL252742  18.965  23.032   6.150
 8496POPC   C1A52743  19.092  22.970   6.450
 8496POPC   D2A52744  19.038  22.929   6.750
 8496POPC   C3A52745  19.085  22.960   7.050
 8496POPC   C4A52746  19.105  22.973   7.350
 8496POPC   C1B52747  18.895  23.143   6.450
 8496POPC   C2B52748  18.944  23.196   6.750
 8496POPC   C3B52749  18.954  23.199   7.050
 8496POPC   C4B52750  18.891  23.115   7.350
 8497POPC   NC352751  40.738  27.631   5.550
 8497POPC   PO452752  40.810  27.602   5.850
 8497POPC   GL152753  40.793  27.636   6.150
 8497POPC   GL252754  40.903  27.669   6.150
 8497POPC   C1A52755  40.794  27.578   6.450
 8497POPC   D2A52756  40.793  27.544   6.750
 8497POPC   C3A52757  40.765  27.591   7.050
 8497POPC   C4A52758  40.742  27.608   7.350
 8497POPC   C1B52759  41.003  27.679   6.450
 8497POPC   C2B52760  40.970  27.722   6.750
 8497POPC   C3B52761  41.038  27.735   7.050
 8497POPC   C4B52762  41.013  27.675   7.350
 8498POPC   NC352763   6.635  37.705   5.550
 8498POPC   PO452764   6.680  37.703   5.850
 8498POPC   GL152765   6.629  37.632   6.150
 8498POPC   GL252766   6.689  37.821   6.150
 8498POPC   C1A52767   6.667  37.691   6.450
 8498POPC   D2A52768   6.664  37.728   6.750
 8498POPC   C3A52769   6.672  37.652   7.050
 8498POPC   C4A52770   6.662  37.674   7.350
 8498POPC   C1B52771   6.682  37.883   6.450
 8498POPC   C2B52772   6.690  37.913   6.750
 8498POPC   C3B52773   6.697  37.957   7.050
 8498POPC   C4B52774   6.681  37.887   7.350
 8499POPC   NC352775   7.392  28.366   5.550
 8499POPC   PO452776   7.409  28.392   5.850
 8499POPC   GL152777   7.440  28.390   6.150
 8499POPC   GL252778   7.467  28.298   6.150
 8499POPC   C1A52779   7.385  28.375   6.450
 8499POPC   D2A52780   7.467  28.374   6.750
 8499POPC   C3A52781   7.378  28.344   7.050
 8499POPC   C4A52782   7.394  28.413   7.350
 8499POPC   C1B52783   7.629  28.213   6.450
 8499POPC   C2B52784   7.561  28.168   6.750
 8499POPC   C3B52785   7.623  28.178   7.050
 8499POPC   C4B52786   7.565  28.237   7.350
 8500POPC   NC352787  39.970   0.424   5.550
 8500POPC   PO452788  39.985   0.450   5.850
 8500POPC   GL152789  39.957   0.402   6.150
 8500POPC   GL252790  40.133   0.480   6.150
 8500POPC   C1A52791  40.046   0.418   6.450
 8500POPC   D2A52792  39.966   0.483   6.750
 8500POPC   C3A52793  40.012   0.455   7.050
 8500POPC   C4A52794  40.027   0.444   7.350
 8500POPC   C1B52795  40.303   0.491   6.450
 8500POPC   C2B52796  40.303   0.414   6.750
 8500POPC   C3B52797  40.293   0.429   7.050
 8500POPC   C4B52798  40.238   0.474   7.350
 8501POPC   NC352799  24.509  26.026   5.550
 8501POPC   PO452800  24.441  26.026   5.850
 8501POPC   GL152801  24.446  26.031   6.150
 8501POPC   GL252802  24.626  25.994   6.150
 8501POPC   C1A52803  24.461  26.014   6.450
 8501POPC   D2A52804  24.475  25.993   6.750
 8501POPC   C3A52805  24.453  26.013   7.050
 8501POPC   C4A52806  24.524  26.027   7.350
 8501POPC   C1B52807  24.766  25.974   6.450
 8501POPC   C2B52808  24.700  25.992   6.750
 8501POPC   C3B52809  24.717  25.938   7.050
 8501POPC   C4B52810  24.741  25.935   7.350
 8502POPC   NC352811  12.039   4.365   5.550
 8502POPC   PO452812  12.090   4.277   5.850
 8502POPC   GL152813  12.070   4.339   6.150
 8502POPC   GL252814  12.171   4.205   6.150
 8502POPC   C1A52815  12.064   4.268   6.450
 8502POPC   D2A52816  12.121   4.299   6.750
 8502POPC   C3A52817  12.119   4.294   7.050
 8502POPC   C4A52818  12.094   4.362   7.350
 8502POPC   C1B52819  12.238   4.206   6.450
 8502POPC   C2B52820  12.318   4.157   6.750
 8502POPC   C3B52821  12.250   4.189   7.050
 8502POPC   C4B52822  12.228   4.197   7.350
 8503POPC   NC352823  25.244  32.242   5.550
 8503POPC   PO452824  25.272  32.268   5.850
 8503POPC   GL152825  25.314  32.215   6.150
 8503POPC   GL252826  25.288  32.105   6.150
 8503POPC   C1A52827  25.243  32.229   6.450
 8503POPC   D2A52828  25.281  32.266   6.750
 8503POPC   C3A52829  25.218  32.278   7.050
 8503POPC   C4A52830  25.236  32.277   7.350
 8503POPC   C1B52831  25.241  32.044   6.450
 8503POPC   C2B52832  25.165  32.019   6.750
 8503POPC   C3B52833  25.171  32.020   7.050
 8503POPC   C4B52834  25.209  31.981   7.350
 8504POPC   NC352835  38.456  15.914   5.550
 8504POPC   PO452836  38.445  15.954   5.850
 8504POPC   GL152837  38.478  15.927   6.150
 8504POPC   GL252838  38.600  15.892   6.150
 8504POPC   C1A52839  38.407  15.924   6.450
 8504POPC   D2A52840  38.492  15.980   6.750
 8504POPC   C3A52841  38.473  15.922   7.050
 8504POPC   C4A52842  38.484  15.954   7.350
 8504POPC   C1B52843  38.715  15.859   6.450
 8504POPC   C2B52844  38.669  15.810   6.750
 8504POPC   C3B52845  38.714  15.828   7.050
 8504POPC   C4B52846  38.710  15.834   7.350
 8505POPC   NC352847  36.150   4.305   5.550
 8505POPC   PO452848  36.121   4.317   5.850
 8505POPC   GL152849  36.135   4.297   6.150
 8505POPC   GL252850  36.193   4.233   6.150
 8505POPC   C1A52851  36.170   4.349   6.450
 8505POPC   D2A52852  36.088   4.320   6.750
 8505POPC   C3A52853  36.163   4.300   7.050
 8505POPC   C4A52854  36.167   4.325   7.350
 8505POPC   C1B52855  36.247   4.072   6.450
 8505POPC   C2B52856  36.164   4.070   6.750
 8505POPC   C3B52857  36.159   4.053   7.050
 8505POPC   C4B52858  36.185   4.092   7.350
 8506POPC   NC352859   2.717  34.530   5.550
 8506POPC   PO452860   2.805  34.547   5.850
 8506POPC   GL152861   2.734  34.534   6.150
 8506POPC   GL252862   2.677  34.625   6.150
 8506POPC   C1A52863   2.811  34.581   6.450
 8506POPC   D2A52864   2.772  34.622   6.750
 8506POPC   C3A52865   2.772  34.609   7.050
 8506POPC   C4A52866   2.747  34.624   7.350
 8506POPC   C1B52867   2.636  34.776   6.450
 8506POPC   C2B52868   2.579  34.801   6.750
 8506POPC   C3B52869   2.572  34.811   7.050
 8506POPC   C4B52870   2.644  34.732   7.350
 8507POPC   NC352871  11.251  28.340   5.550
 8507POPC   PO452872  11.288  28.416   5.850
 8507POPC   GL152873  11.289  28.360   6.150
 8507POPC   GL252874  11.222  28.409   6.150
 8507POPC   C1A52875  11.288  28.332   6.450
 8507POPC   D2A52876  11.290  28.388   6.750
 8507POPC   C3A52877  11.305  28.336   7.050
 8507POPC   C4A52878  11.324  28.383   7.350
 8507POPC   C1B52879  11.119  28.567   6.450
 8507POPC   C2B52880  11.130  28.508   6.750
 8507POPC   C3B52881  11.082  28.490   7.050
 8507POPC   C4B52882  11.155  28.551   7.350
 8508POPC   NC352883  15.192  26.059   5.550
 8508POPC   PO452884  15.132  26.028   5.850
 8508POPC   GL152885  15.183  26.006   6.150
 8508POPC   GL252886  15.110  25.991   6.150
 8508POPC   C1A52887  15.193  26.062   6.450
 8508POPC   D2A52888  15.176  26.077   6.750
 8508POPC   C3A52889  15.192  26.018   7.050
 8508POPC   C4A52890  15.154  25.992   7.350
 8508POPC   C1B52891  14.999  25.891   6.450
 8508POPC   C2B52892  14.998  25.893   6.750
 8508POPC   C3B52893  15.035  25.872   7.050
 8508POPC   C4B52894  15.013  25.878   7.350
 8509POPC   NC352895   5.093  37.725   5.550
 8509POPC   PO452896   5.119  37.674   5.850
 8509POPC   GL152897   5.055  37.674   6.150
 8509POPC   GL252898   5.038  37.532   6.150
 8509POPC   C1A52899   5.051  37.698   6.450
 8509POPC   D2A52900   5.056  37.705   6.750
 8509POPC   C3A52901   5.082  37.718   7.050
 8509POPC   C4A52902   5.115  37.701   7.350
 8509POPC   C1B52903   4.960  37.523   6.450
 8509POPC   C2B52904   4.966  37.471   6.750
 8509POPC   C3B52905   4.966  37.492   7.050
 8509POPC   C4B52906   4.985  37.489   7.350
 8510POPC   NC352907   5.047  30.670   5.550
 8510POPC   PO452908   5.137  30.671   5.850
 8510POPC   GL152909   5.137  30.727   6.150
 8510POPC   GL252910   5.102  30.529   6.150
 8510POPC   C1A52911   5.107  30.660   6.450
 8510POPC   D2A52912   5.111  30.675   6.750
 8510POPC   C3A52913   5.080  30.650   7.050
 8510POPC   C4A52914   5.089  30.709   7.350
 8510POPC   C1B52915   5.055  30.489   6.450
 8510POPC   C2B52916   5.057  30.400   6.750
 8510POPC   C3B52917   5.019  30.490   7.050
 8510POPC   C4B52918   5.071  30.452   7.350
 8511POPC   NC352919  23.712  17.502   5.550
 8511POPC   PO452920  23.694  17.551   5.850
 8511POPC   GL152921  23.681  17.539   6.150
 8511POPC   GL252922  23.748  17.643   6.150
 8511POPC   C1A52923  23.753  17.527   6.450
 8511POPC   D2A52924  23.723  17.490   6.750
 8511POPC   C3A52925  23.699  17.556   7.050
 8511POPC   C4A52926  23.691  17.507   7.350
 8511POPC   C1B52927  23.877  17.739   6.450
 8511POPC   C2B52928  23.820  17.769   6.750
 8511POPC   C3B52929  23.780  17.737   7.050
 8511POPC   C4B52930  23.842  17.775   7.350
 8512POPC   NC352931  17.553   1.996   5.550
 8512POPC   PO452932  17.463   2.018   5.850
 8512POPC   GL152933  17.494   1.982   6.150
 8512POPC   GL252934  17.412   1.934   6.150
 8512POPC   C1A52935  17.479   2.032   6.450
 8512POPC   D2A52936  17.551   2.008   6.750
 8512POPC   C3A52937  17.472   2.020   7.050
 8512POPC   C4A52938  17.532   2.039   7.350
 8512POPC   C1B52939  17.261   1.845   6.450
 8512POPC   C2B52940  17.257   1.900   6.750
 8512POPC   C3B52941  17.285   1.848   7.050
 8512POPC   C4B52942  17.249   1.927   7.350
 8513POPC   NC352943  22.950  29.163   5.550
 8513POPC   PO452944  22.895  29.164   5.850
 8513POPC   GL152945  22.907  29.110   6.150
 8513POPC   GL252946  22.843  29.264   6.150
 8513POPC   C1A52947  22.911  29.188   6.450
 8513POPC   D2A52948  22.922  29.119   6.750
 8513POPC   C3A52949  22.906  29.160   7.050
 8513POPC   C4A52950  22.914  29.135   7.350
 8513POPC   C1B52951  22.837  29.390   6.450
 8513POPC   C2B52952  22.853  29.403   6.750
 8513POPC   C3B52953  22.781  29.371   7.050
 8513POPC   C4B52954  22.762  29.346   7.350
 8514POPC   NC352955  10.508  38.425   5.550
 8514POPC   PO452956  10.525  38.479   5.850
 8514POPC   GL152957  10.492  38.414   6.150
 8514POPC   GL252958  10.450  38.499   6.150
 8514POPC   C1A52959  10.504  38.463   6.450
 8514POPC   D2A52960  10.527  38.456   6.750
 8514POPC   C3A52961  10.544  38.453   7.050
 8514POPC   C4A52962  10.494  38.412   7.350
 8514POPC   C1B52963  10.255  38.555   6.450
 8514POPC   C2B52964  10.308  38.551   6.750
 8514POPC   C3B52965  10.288  38.545   7.050
 8514POPC   C4B52966  10.264  38.606   7.350
 8515POPC   NC352967  12.095  29.109   5.550
 8515POPC   PO452968  12.029  29.120   5.850
 8515POPC   GL152969  12.073  29.175   6.150
 8515POPC   GL252970  12.218  29.128   6.150
 8515POPC   C1A52971  12.034  29.162   6.450
 8515POPC   D2A52972  12.048  29.181   6.750
 8515POPC   C3A52973  12.089  29.134   7.050
 8515POPC   C4A52974  12.055  29.157   7.350
 8515POPC   C1B52975  12.306  29.048   6.450
 8515POPC   C2B52976  12.298  29.099   6.750
 8515POPC   C3B52977  12.273  29.077   7.050
 8515POPC   C4B52978  12.364  29.079   7.350
 8516POPC   NC352979   5.829  30.700   5.550
 8516POPC   PO452980   5.854  30.687   5.850
 8516POPC   GL152981   5.886  30.667   6.150
 8516POPC   GL252982   5.740  30.724   6.150
 8516POPC   C1A52983   5.917  30.742   6.450
 8516POPC   D2A52984   5.853  30.686   6.750
 8516POPC   C3A52985   5.884  30.654   7.050
 8516POPC   C4A52986   5.917  30.671   7.350
 8516POPC   C1B52987   5.613  30.728   6.450
 8516POPC   C2B52988   5.662  30.722   6.750
 8516POPC   C3B52989   5.661  30.742   7.050
 8516POPC   C4B52990   5.609  30.736   7.350
 8517POPC   NC352991  43.880  43.128   5.550
 8517POPC   PO452992  43.899  43.081   5.850
 8517POPC   GL152993  43.868  43.093   6.150
 8517POPC   GL252994  43.745  43.135   6.150
 8517POPC   C1A52995  43.927  43.105   6.450
 8517POPC   D2A52996  43.864  43.143   6.750
 8517POPC   C3A52997  43.895  43.068   7.050
 8517POPC   C4A52998  43.931  43.132   7.350
 8517POPC   C1B52999  43.639  43.051   6.450
 8517POPC   C2B53000  43.610  43.064   6.750
 8517POPC   C3B53001  43.680  43.069   7.050
 8517POPC   C4B53002  43.678  43.108   7.350
 8518POPC   NC353003  33.848  29.130   5.550
 8518POPC   PO453004  33.759  29.100   5.850
 8518POPC   GL153005  33.836  29.108   6.150
 8518POPC   GL253006  33.879  29.059   6.150
 8518POPC   C1A53007  33.770  29.189   6.450
 8518POPC   D2A53008  33.807  29.164   6.750
 8518POPC   C3A53009  33.803  29.181   7.050
 8518POPC   C4A53010  33.811  29.132   7.350
 8518POPC   C1B53011  34.032  28.953   6.450
 8518POPC   C2B53012  33.993  29.008   6.750
 8518POPC   C3B53013  34.010  29.011   7.050
 8518POPC   C4B53014  33.951  28.973   7.350
 8519POPC   NC353015  19.864  11.343   5.550
 8519POPC   PO453016  19.825  11.300   5.850
 8519POPC   GL153017  19.808  11.304   6.150
 8519POPC   GL253018  19.733  11.219   6.150
 8519POPC   C1A53019  19.878  11.260   6.450
 8519POPC   D2A53020  19.786  11.350   6.750
 8519POPC   C3A53021  19.801  11.334   7.050
 8519POPC   C4A53022  19.855  11.269   7.350
 8519POPC   C1B53023  19.644  11.150   6.450
 8519POPC   C2B53024  19.699  11.144   6.750
 8519POPC   C3B53025  19.684  11.109   7.050
 8519POPC   C4B53026  19.640  11.097   7.350
 8520POPC   NC353027  12.820  17.552   5.550
 8520POPC   PO453028  12.900  17.473   5.850
 8520POPC   GL153029  12.848  17.525   6.150
 8520POPC   GL253030  12.862  17.596   6.150
 8520POPC   C1A53031  12.872  17.542   6.450
 8520POPC   D2A53032  12.846  17.531   6.750
 8520POPC   C3A53033  12.859  17.542   7.050
 8520POPC   C4A53034  12.807  17.511   7.350
 8520POPC   C1B53035  12.844  17.731   6.450
 8520POPC   C2B53036  12.815  17.763   6.750
 8520POPC   C3B53037  12.794  17.734   7.050
 8520POPC   C4B53038  12.838  17.771   7.350
 8521POPC   NC353039  29.192  39.257   5.550
 8521POPC   PO453040  29.125  39.236   5.850
 8521POPC   GL153041  29.190  39.266   6.150
 8521POPC   GL253042  29.038  39.246   6.150
 8521POPC   C1A53043  29.102  39.252   6.450
 8521POPC   D2A53044  29.192  39.188   6.750
 8521POPC   C3A53045  29.131  39.194   7.050
 8521POPC   C4A53046  29.187  39.229   7.350
 8521POPC   C1B53047  28.910  39.301   6.450
 8521POPC   C2B53048  28.919  39.269   6.750
 8521POPC   C3B53049  28.897  39.302   7.050
 8521POPC   C4B53050  28.871  39.347   7.350
 8522POPC   NC353051  18.250   2.745   5.550
 8522POPC   PO453052  18.272   2.762   5.850
 8522POPC   GL153053  18.286   2.794   6.150
 8522POPC   GL253054  18.180   2.741   6.150
 8522POPC   C1A53055  18.307   2.745   6.450
 8522POPC   D2A53056  18.235   2.814   6.750
 8522POPC   C3A53057  18.282   2.778   7.050
 8522POPC   C4A53058  18.272   2.717   7.350
 8522POPC   C1B53059  18.063   2.755   6.450
 8522POPC   C2B53060  18.050   2.755   6.750
 8522POPC   C3B53061  18.019   2.735   7.050
 8522POPC   C4B53062  18.031   2.766   7.350
 8523POPC   NC353063   1.184  12.866   5.550
 8523POPC   PO453064   1.256  12.804   5.850
 8523POPC   GL153065   1.227  12.835   6.150
 8523POPC   GL253066   1.138  12.771   6.150
 8523POPC   C1A53067   1.195  12.805   6.450
 8523POPC   D2A53068   1.201  12.881   6.750
 8523POPC   C3A53069   1.241  12.825   7.050
 8523POPC   C4A53070   1.243  12.868   7.350
 8523POPC   C1B53071   1.061  12.634   6.450
 8523POPC   C2B53072   1.078  12.685   6.750
 8523POPC   C3B53073   1.032  12.644   7.050
 8523POPC   C4B53074   1.051  12.697   7.350
 8524POPC   NC353075   1.169   8.181   5.550
 8524POPC   PO453076   1.178   8.156   5.850
 8524POPC   GL153077   1.233   8.169   6.150
 8524POPC   GL253078   1.277   8.174   6.150
 8524POPC   C1A53079   1.251   8.213   6.450
 8524POPC   D2A53080   1.195   8.206   6.750
 8524POPC   C3A53081   1.233   8.193   7.050
 8524POPC   C4A53082   1.256   8.190   7.350
 8524POPC   C1B53083   1.393   8.094   6.450
 8524POPC   C2B53084   1.419   8.069   6.750
 8524POPC   C3B53085   1.397   8.085   7.050
 8524POPC   C4B53086   1.435   8.068   7.350
 8525POPC   NC353087  40.013  44.628   5.550
 8525POPC   PO453088  40.015  44.615   5.850
 8525POPC   GL153089  39.998  44.675   6.150
 8525POPC   GL253090  39.882  44.618   6.150
 8525POPC   C1A53091  40.025  44.619   6.450
 8525POPC   D2A53092  39.963  44.632   6.750
 8525POPC   C3A53093  40.012  44.685   7.050
 8525POPC   C4A53094  39.957  44.650   7.350
 8525POPC   C1B53095  39.783  44.545   6.450
 8525POPC   C2B53096  39.770  44.591   6.750
 8525POPC   C3B53097  39.728  44.611   7.050
 8525POPC   C4B53098  39.772  44.580   7.350
 8526POPC   NC353099   1.982  33.821   5.550
 8526POPC   PO453100   1.959  33.763   5.850
 8526POPC   GL153101   2.017  33.800   6.150
 8526POPC   GL253102   2.020  33.700   6.150
 8526POPC   C1A53103   2.028  33.819   6.450
 8526POPC   D2A53104   2.012  33.755   6.750
 8526POPC   C3A53105   1.968  33.819   7.050
 8526POPC   C4A53106   1.975  33.808   7.350
 8526POPC   C1B53107   2.150  33.542   6.450
 8526POPC   C2B53108   2.131  33.560   6.750
 8526POPC   C3B53109   2.140  33.586   7.050
 8526POPC   C4B53110   2.140  33.566   7.350
 8527POPC   NC353111  17.472  33.795   5.550
 8527POPC   PO453112  17.542  33.784   5.850
 8527POPC   GL153113  17.495  33.801   6.150
 8527POPC   GL253114  17.458  33.697   6.150
 8527POPC   C1A53115  17.542  33.808   6.450
 8527POPC   D2A53116  17.509  33.795   6.750
 8527POPC   C3A53117  17.536  33.765   7.050
 8527POPC   C4A53118  17.542  33.808   7.350
 8527POPC   C1B53119  17.428  33.568   6.450
 8527POPC   C2B53120  17.417  33.577   6.750
 8527POPC   C3B53121  17.389  33.607   7.050
 8527POPC   C4B53122  17.410  33.618   7.350
 8528POPC   NC353123   7.419  31.436   5.550
 8528POPC   PO453124   7.400  31.475   5.850
 8528POPC   GL153125   7.455  31.471   6.150
 8528POPC   GL253126   7.552  31.366   6.150
 8528POPC   C1A53127   7.380  31.439   6.450
 8528POPC   D2A53128   7.458  31.470   6.750
 8528POPC   C3A53129   7.442  31.427   7.050
 8528POPC   C4A53130   7.428  31.521   7.350
 8528POPC   C1B53131   7.620  31.373   6.450
 8528POPC   C2B53132   7.643  31.335   6.750
 8528POPC   C3B53133   7.648  31.367   7.050
 8528POPC   C4B53134   7.596  31.378   7.350
 8529POPC   NC353135  13.597  44.675   5.550
 8529POPC   PO453136  13.635  44.631   5.850
 8529POPC   GL153137  13.639  44.624   6.150
 8529POPC   GL253138  13.680  44.828   6.150
 8529POPC   C1A53139  13.633  44.619   6.450
 8529POPC   D2A53140  13.666  44.687   6.750
 8529POPC   C3A53141  13.583  44.701   7.050
 8529POPC   C4A53142  13.590  44.635   7.350
 8529POPC   C1B53143  13.600  44.932   6.450
 8529POPC   C2B53144  13.628  44.934   6.750
 8529POPC   C3B53145  13.679  44.960   7.050
 8529POPC   C4B53146  13.668  44.882   7.350
 8530POPC   NC353147  19.011   9.006   5.550
 8530POPC   PO453148  19.023   8.943   5.850
 8530POPC   GL153149  19.049   8.967   6.150
 8530POPC   GL253150  18.942   9.040   6.150
 8530POPC   C1A53151  19.021   8.957   6.450
 8530POPC   D2A53152  19.086   8.953   6.750
 8530POPC   C3A53153  19.070   8.933   7.050
 8530POPC   C4A53154  19.013   8.934   7.350
 8530POPC   C1B53155  18.775   9.019   6.450
 8530POPC   C2B53156  18.813   9.038   6.750
 8530POPC   C3B53157  18.865   9.010   7.050
 8530POPC   C4B53158  18.789   9.047   7.350
 8531POPC   NC353159  21.395  34.600   5.550
 8531POPC   PO453160  21.394  34.566   5.850
 8531POPC   GL153161  21.357  34.551   6.150
 8531POPC   GL253162  21.430  34.450   6.150
 8531POPC   C1A53163  21.346  34.586   6.450
 8531POPC   D2A53164  21.364  34.620   6.750
 8531POPC   C3A53165  21.362  34.552   7.050
 8531POPC   C4A53166  21.423  34.527   7.350
 8531POPC   C1B53167  21.576  34.439   6.450
 8531POPC   C2B53168  21.568  34.394   6.750
 8531POPC   C3B53169  21.542  34.386   7.050
 8531POPC   C4B53170  21.522  34.360   7.350
 8532POPC   NC353171  19.067   9.793   5.550
 8532POPC   PO453172  19.015   9.740   5.850
 8532POPC   GL153173  19.033   9.746   6.150
 8532POPC   GL253174  19.105   9.606   6.150
 8532POPC   C1A53175  19.043   9.705   6.450
 8532POPC   D2A53176  19.010   9.774   6.750
 8532POPC   C3A53177  19.089   9.744   7.050
 8532POPC   C4A53178  19.009   9.745   7.350
 8532POPC   C1B53179  19.110   9.470   6.450
 8532POPC   C2B53180  19.042   9.492   6.750
 8532POPC   C3B53181  19.051   9.525   7.050
 8532POPC   C4B53182  19.081   9.492   7.350
 8533POPC   NC353183   6.604  33.822   5.550
 8533POPC   PO453184   6.688  33.810   5.850
 8533POPC   GL153185   6.633  33.791   6.150
 8533POPC   GL253186   6.576  33.668   6.150
 8533POPC   C1A53187   6.651  33.791   6.450
 8533POPC   D2A53188   6.615  33.793   6.750
 8533POPC   C3A53189   6.609  33.791   7.050
 8533POPC   C4A53190   6.629  33.768   7.350
 8533POPC   C1B53191   6.545  33.541   6.450
 8533POPC   C2B53192   6.470  33.541   6.750
 8533POPC   C3B53193   6.508  33.636   7.050
 8533POPC   C4B53194   6.483  33.621   7.350
 8534POPC   NC353195   0.420  42.313   5.550
 8534POPC   PO453196   0.417  42.351   5.850
 8534POPC   GL153197   0.462  42.301   6.150
 8534POPC   GL253198   0.572  42.223   6.150
 8534POPC   C1A53199   0.408  42.342   6.450
 8534POPC   D2A53200   0.424  42.375   6.750
 8534POPC   C3A53201   0.448  42.286   7.050
 8534POPC   C4A53202   0.421  42.287   7.350
 8534POPC   C1B53203   0.579  42.179   6.450
 8534POPC   C2B53204   0.567  42.176   6.750
 8534POPC   C3B53205   0.635  42.194   7.050
 8534POPC   C4B53206   0.650  42.173   7.350
 8535POPC   NC353207  20.606  21.354   5.550
 8535POPC   PO453208  20.587  21.403   5.850
 8535POPC   GL153209  20.564  21.343   6.150
 8535POPC   GL253210  20.734  21.338   6.150
 8535POPC   C1A53211  20.604  21.356   6.450
 8535POPC   D2A53212  20.629  21.351   6.750
 8535POPC   C3A53213  20.602  21.428   7.050
 8535POPC   C4A53214  20.604  21.381   7.350
 8535POPC   C1B53215  20.853  21.214   6.450
 8535POPC   C2B53216  20.783  21.284   6.750
 8535POPC   C3B53217  20.824  21.242   7.050
 8535POPC   C4B53218  20.782  21.238   7.350
 8536POPC   NC353219  15.963  10.535   5.550
 8536POPC   PO453220  15.923  10.513   5.850
 8536POPC   GL153221  15.906  10.483   6.150
 8536POPC   GL253222  15.996  10.417   6.150
 8536POPC   C1A53223  15.907  10.529   6.450
 8536POPC   D2A53224  15.949  10.552   6.750
 8536POPC   C3A53225  15.922  10.565   7.050
 8536POPC   C4A53226  15.931  10.570   7.350
 8536POPC   C1B53227  16.009  10.252   6.450
 8536POPC   C2B53228  15.960  10.268   6.750
 8536POPC   C3B53229  15.953  10.250   7.050
 8536POPC   C4B53230  16.009  10.319   7.350
 8537POPC   NC353231  27.585  32.280   5.550
 8537POPC   PO453232  27.550  32.228   5.850
 8537POPC   GL153233  27.544  32.259   6.150
 8537POPC   GL253234  27.508  32.413   6.150
 8537POPC   C1A53235  27.623  32.279   6.450
 8537POPC   D2A53236  27.607  32.265   6.750
 8537POPC   C3A53237  27.591  32.254   7.050
 8537POPC   C4A53238  27.622  32.247   7.350
 8537POPC   C1B53239  27.463  32.446   6.450
 8537POPC   C2B53240  27.539  32.438   6.750
 8537POPC   C3B53241  27.496  32.513   7.050
 8537POPC   C4B53242  27.491  32.532   7.350
 8538POPC   NC353243  33.763  12.030   5.550
 8538POPC   PO453244  33.789  12.121   5.850
 8538POPC   GL153245  33.766  12.122   6.150
 8538POPC   GL253246  33.766  12.182   6.150
 8538POPC   C1A53247  33.818  12.045   6.450
 8538POPC   D2A53248  33.769  12.120   6.750
 8538POPC   C3A53249  33.808  12.036   7.050
 8538POPC   C4A53250  33.765  12.029   7.350
 8538POPC   C1B53251  33.778  12.296   6.450
 8538POPC   C2B53252  33.819  12.321   6.750
 8538POPC   C3B53253  33.771  12.361   7.050
 8538POPC   C4B53254  33.747  12.275   7.350
 8539POPC   NC353255  10.492   5.855   5.550
 8539POPC   PO453256  10.501   5.853   5.850
 8539POPC   GL153257  10.527   5.908   6.150
 8539POPC   GL253258  10.630   5.992   6.150
 8539POPC   C1A53259  10.549   5.837   6.450
 8539POPC   D2A53260  10.534   5.918   6.750
 8539POPC   C3A53261  10.564   5.836   7.050
 8539POPC   C4A53262  10.562   5.893   7.350
 8539POPC   C1B53263  10.739   5.975   6.450
 8539POPC   C2B53264  10.756   6.062   6.750
 8539POPC   C3B53265  10.702   5.992   7.050
 8539POPC   C4B53266  10.727   5.982   7.350
 8540POPC   NC353267   6.672  40.830   5.550
 8540POPC   PO453268   6.658  40.772   5.850
 8540POPC   GL153269   6.669  40.794   6.150
 8540POPC   GL253270   6.527  40.817   6.150
 8540POPC   C1A53271   6.684  40.775   6.450
 8540POPC   D2A53272   6.624  40.783   6.750
 8540POPC   C3A53273   6.648  40.784   7.050
 8540POPC   C4A53274   6.614  40.814   7.350
 8540POPC   C1B53275   6.347  40.724   6.450
 8540POPC   C2B53276   6.443  40.753   6.750
 8540POPC   C3B53277   6.437  40.809   7.050
 8540POPC   C4B53278   6.356  40.803   7.350
 8541POPC   NC353279  10.564  42.293   5.550
 8541POPC   PO453280  10.494  42.308   5.850
 8541POPC   GL153281  10.499  42.327   6.150
 8541POPC   GL253282  10.595  42.408   6.150
 8541POPC   C1A53283  10.563  42.364   6.450
 8541POPC   D2A53284  10.481  42.323   6.750
 8541POPC   C3A53285  10.551  42.341   7.050
 8541POPC   C4A53286  10.501  42.330   7.350
 8541POPC   C1B53287  10.718  42.568   6.450
 8541POPC   C2B53288  10.677  42.517   6.750
 8541POPC   C3B53289  10.626  42.559   7.050
 8541POPC   C4B53290  10.693  42.567   7.350
 8542POPC   NC353291   7.382  20.617   5.550
 8542POPC   PO453292   7.454  20.570   5.850
 8542POPC   GL153293   7.378  20.570   6.150
 8542POPC   GL253294   7.546  20.553   6.150
 8542POPC   C1A53295   7.440  20.634   6.450
 8542POPC   D2A53296   7.460  20.647   6.750
 8542POPC   C3A53297   7.387  20.612   7.050
 8542POPC   C4A53298   7.400  20.567   7.350
 8542POPC   C1B53299   7.684  20.526   6.450
 8542POPC   C2B53300   7.603  20.461   6.750
 8542POPC   C3B53301   7.693  20.534   7.050
 8542POPC   C4B53302   7.680  20.552   7.350
 8543POPC   NC353303   1.995  38.435   5.550
 8543POPC   PO453304   1.941  38.471   5.850
 8543POPC   GL153305   2.017  38.425   6.150
 8543POPC   GL253306   2.070  38.402   6.150
 8543POPC   C1A53307   2.015  38.482   6.450
 8543POPC   D2A53308   2.030  38.480   6.750
 8543POPC   C3A53309   1.993  38.478   7.050
 8543POPC   C4A53310   1.965  38.473   7.350
 8543POPC   C1B53311   2.236  38.423   6.450
 8543POPC   C2B53312   2.276  38.421   6.750
 8543POPC   C3B53313   2.192  38.400   7.050
 8543POPC   C4B53314   2.254  38.473   7.350
 8544POPC   NC353315  37.692  36.880   5.550
 8544POPC   PO453316  37.709  36.886   5.850
 8544POPC   GL153317  37.686  36.911   6.150
 8544POPC   GL253318  37.755  37.042   6.150
 8544POPC   C1A53319  37.635  36.924   6.450
 8544POPC   D2A53320  37.713  36.925   6.750
 8544POPC   C3A53321  37.631  36.903   7.050
 8544POPC   C4A53322  37.700  36.950   7.350
 8544POPC   C1B53323  37.844  37.108   6.450
 8544POPC   C2B53324  37.854  37.133   6.750
 8544POPC   C3B53325  37.764  37.152   7.050
 8544POPC   C4B53326  37.782  37.125   7.350
 8545POPC   NC353327   5.055   1.190   5.550
 8545POPC   PO453328   5.114   1.168   5.850
 8545POPC   GL153329   5.088   1.203   6.150
 8545POPC   GL253330   5.188   1.164   6.150
 8545POPC   C1A53331   5.053   1.202   6.450
 8545POPC   D2A53332   5.089   1.224   6.750
 8545POPC   C3A53333   5.110   1.246   7.050
 8545POPC   C4A53334   5.089   1.232   7.350
 8545POPC   C1B53335   5.384   1.192   6.450
 8545POPC   C2B53336   5.367   1.192   6.750
 8545POPC   C3B53337   5.347   1.209   7.050
 8545POPC   C4B53338   5.348   1.241   7.350
 8546POPC   NC353339  18.258  43.871   5.550
 8546POPC   PO453340  18.263  43.935   5.850
 8546POPC   GL153341  18.308  43.902   6.150
 8546POPC   GL253342  18.435  43.989   6.150
 8546POPC   C1A53343  18.301  43.854   6.450
 8546POPC   D2A53344  18.312  43.852   6.750
 8546POPC   C3A53345  18.288  43.875   7.050
 8546POPC   C4A53346  18.250  43.911   7.350
 8546POPC   C1B53347  18.524  43.992   6.450
 8546POPC   C2B53348  18.493  43.970   6.750
 8546POPC   C3B53349  18.517  44.038   7.050
 8546POPC   C4B53350  18.506  44.041   7.350
 8547POPC   NC353351  11.324  40.739   5.550
 8547POPC   PO453352  11.282  40.756   5.850
 8547POPC   GL153353  11.303  40.759   6.150
 8547POPC   GL253354  11.329  40.648   6.150
 8547POPC   C1A53355  11.304  40.824   6.450
 8547POPC   D2A53356  11.318  40.780   6.750
 8547POPC   C3A53357  11.311  40.778   7.050
 8547POPC   C4A53358  11.331  40.761   7.350
 8547POPC   C1B53359  11.297  40.508   6.450
 8547POPC   C2B53360  11.303  40.540   6.750
 8547POPC   C3B53361  11.270  40.532   7.050
 8547POPC   C4B53362  11.281  40.568   7.350
 8548POPC   NC353363  28.366  26.046   5.550
 8548POPC   PO453364  28.348  26.077   5.850
 8548POPC   GL153365  28.397  26.028   6.150
 8548POPC   GL253366  28.304  26.120   6.150
 8548POPC   C1A53367  28.386  25.996   6.450
 8548POPC   D2A53368  28.379  26.073   6.750
 8548POPC   C3A53369  28.339  26.055   7.050
 8548POPC   C4A53370  28.362  26.070   7.350
 8548POPC   C1B53371  28.234  26.236   6.450
 8548POPC   C2B53372  28.210  26.195   6.750
 8548POPC   C3B53373  28.259  26.268   7.050
 8548POPC   C4B53374  28.182  26.203   7.350
 8549POPC   NC353375   3.577  34.598   5.550
 8549POPC   PO453376   3.561  34.527   5.850
 8549POPC   GL153377   3.555  34.599   6.150
 8549POPC   GL253378   3.525  34.489   6.150
 8549POPC   C1A53379   3.517  34.551   6.450
 8549POPC   D2A53380   3.508  34.599   6.750
 8549POPC   C3A53381   3.556  34.534   7.050
 8549POPC   C4A53382   3.553  34.537   7.350
 8549POPC   C1B53383   3.576  34.337   6.450
 8549POPC   C2B53384   3.546  34.370   6.750
 8549POPC   C3B53385   3.569  34.346   7.050
 8549POPC   C4B53386   3.539  34.333   7.350
 8550POPC   NC353387  18.234  22.962   5.550
 8550POPC   PO453388  18.306  22.958   5.850
 8550POPC   GL153389  18.329  22.927   6.150
 8550POPC   GL253390  18.371  22.877   6.150
 8550POPC   C1A53391  18.288  22.901   6.450
 8550POPC   D2A53392  18.325  22.965   6.750
 8550POPC   C3A53393  18.268  22.905   7.050
 8550POPC   C4A53394  18.276  22.970   7.350
 8550POPC   C1B53395  18.422  22.716   6.450
 8550POPC   C2B53396  18.429  22.780   6.750
 8550POPC   C3B53397  18.476  22.757   7.050
 8550POPC   C4B53398  18.414  22.704   7.350
 8551POPC   NC353399   3.587  41.585   5.550
 8551POPC   PO453400   3.527  41.521   5.850
 8551POPC   GL153401   3.524  41.509   6.150
 8551POPC   GL253402   3.443  41.496   6.150
 8551POPC   C1A53403   3.585  41.557   6.450
 8551POPC   D2A53404   3.520  41.601   6.750
 8551POPC   C3A53405   3.531  41.533   7.050
 8551POPC   C4A53406   3.583  41.540   7.350
 8551POPC   C1B53407   3.340  41.373   6.450
 8551POPC   C2B53408   3.413  41.416   6.750
 8551POPC   C3B53409   3.404  41.383   7.050
 8551POPC   C4B53410   3.327  41.419   7.350
 8552POPC   NC353411  27.550  36.158   5.550
 8552POPC   PO453412  27.631  36.139   5.850
 8552POPC   GL153413  27.624  36.152   6.150
 8552POPC   GL253414  27.674  36.200   6.150
 8552POPC   C1A53415  27.553  36.149   6.450
 8552POPC   D2A53416  27.548  36.126   6.750
 8552POPC   C3A53417  27.545  36.161   7.050
 8552POPC   C4A53418  27.641  36.105   7.350
 8552POPC   C1B53419  27.734  36.296   6.450
 8552POPC   C2B53420  27.745  36.315   6.750
 8552POPC   C3B53421  27.690  36.392   7.050
 8552POPC   C4B53422  27.743  36.385   7.350
 8553POPC   NC353423  29.929   8.943   5.550
 8553POPC   PO453424  29.913   8.979   5.850
 8553POPC   GL153425  29.946   8.996   6.150
 8553POPC   GL253426  29.917   9.118   6.150
 8553POPC   C1A53427  29.942   8.979   6.450
 8553POPC   D2A53428  29.956   8.930   6.750
 8553POPC   C3A53429  29.921   8.982   7.050
 8553POPC   C4A53430  29.943   8.949   7.350
 8553POPC   C1B53431  29.840   9.174   6.450
 8553POPC   C2B53432  29.928   9.176   6.750
 8553POPC   C3B53433  29.910   9.236   7.050
 8553POPC   C4B53434  29.905   9.213   7.350
 8554POPC   NC353435  16.760  44.699   5.550
 8554POPC   PO453436  16.695  44.639   5.850
 8554POPC   GL153437  16.766  44.694   6.150
 8554POPC   GL253438  16.600  44.665   6.150
 8554POPC   C1A53439  16.720  44.633   6.450
 8554POPC   D2A53440  16.693  44.693   6.750
 8554POPC   C3A53441  16.738  44.658   7.050
 8554POPC   C4A53442  16.779  44.680   7.350
 8554POPC   C1B53443  16.520  44.608   6.450
 8554POPC   C2B53444  16.533  44.596   6.750
 8554POPC   C3B53445  16.545  44.587   7.050
 8554POPC   C4B53446  16.471  44.573   7.350
 8555POPC   NC353447   3.494  26.002   5.550
 8555POPC   PO453448   3.549  26.041   5.850
 8555POPC   GL153449   3.504  25.995   6.150
 8555POPC   GL253450   3.471  26.120   6.150
 8555POPC   C1A53451   3.543  26.014   6.450
 8555POPC   D2A53452   3.532  26.060   6.750
 8555POPC   C3A53453   3.520  26.062   7.050
 8555POPC   C4A53454   3.533  26.026   7.350
 8555POPC   C1B53455   3.443  26.227   6.450
 8555POPC   C2B53456   3.446  26.280   6.750
 8555POPC   C3B53457   3.437  26.275   7.050
 8555POPC   C4B53458   3.383  26.278   7.350
 8556POPC   NC353459   8.239  40.807   5.550
 8556POPC   PO453460   8.230  40.777   5.850
 8556POPC   GL153461   8.246  40.813   6.150
 8556POPC   GL253462   8.299  40.718   6.150
 8556POPC   C1A53463   8.191  40.734   6.450
 8556POPC   D2A53464   8.200  40.747   6.750
 8556POPC   C3A53465   8.202  40.774   7.050
 8556POPC   C4A53466   8.192  40.813   7.350
 8556POPC   C1B53467   8.386  40.623   6.450
 8556POPC   C2B53468   8.396  40.648   6.750
 8556POPC   C3B53469   8.425  40.643   7.050
 8556POPC   C4B53470   8.436  40.608   7.350
 8557POPC   NC353471  27.568  39.186   5.550
 8557POPC   PO453472  27.628  39.249   5.850
 8557POPC   GL153473  27.567  39.267   6.150
 8557POPC   GL253474  27.572  39.382   6.150
 8557POPC   C1A53475  27.571  39.244   6.450
 8557POPC   D2A53476  27.579  39.214   6.750
 8557POPC   C3A53477  27.616  39.255   7.050
 8557POPC   C4A53478  27.563  39.213   7.350
 8557POPC   C1B53479  27.583  39.514   6.450
 8557POPC   C2B53480  27.545  39.493   6.750
 8557POPC   C3B53481  27.515  39.499   7.050
 8557POPC   C4B53482  27.542  39.495   7.350
 8558POPC   NC353483  23.725  24.512   5.550
 8558POPC   PO453484  23.690  24.529   5.850
 8558POPC   GL153485  23.749  24.516   6.150
 8558POPC   GL253486  23.576  24.525   6.150
 8558POPC   C1A53487  23.684  24.530   6.450
 8558POPC   D2A53488  23.679  24.537   6.750
 8558POPC   C3A53489  23.668  24.462   7.050
 8558POPC   C4A53490  23.666  24.537   7.350
 8558POPC   C1B53491  23.509  24.601   6.450
 8558POPC   C2B53492  23.463  24.648   6.750
 8558POPC   C3B53493  23.466  24.622   7.050
 8558POPC   C4B53494  23.468  24.657   7.350
 8559POPC   NC353495  25.280  33.033   5.550
 8559POPC   PO453496  25.232  33.074   5.850
 8559POPC   GL153497  25.222  33.065   6.150
 8559POPC   GL253498  25.132  33.013   6.150
 8559POPC   C1A53499  25.266  33.058   6.450
 8559POPC   D2A53500  25.242  32.988   6.750
 8559POPC   C3A53501  25.310  33.032   7.050
 8559POPC   C4A53502  25.240  33.067   7.350
 8559POPC   C1B53503  25.061  32.956   6.450
 8559POPC   C2B53504  25.033  32.911   6.750
 8559POPC   C3B53505  25.008  32.972   7.050
 8559POPC   C4B53506  25.025  32.978   7.350
 8560POPC   NC353507  25.313   7.468   5.550
 8560POPC   PO453508  25.243   7.372   5.850
 8560POPC   GL153509  25.283   7.420   6.150
 8560POPC   GL253510  25.200   7.457   6.150
 8560POPC   C1A53511  25.285   7.455   6.450
 8560POPC   D2A53512  25.248   7.447   6.750
 8560POPC   C3A53513  25.299   7.464   7.050
 8560POPC   C4A53514  25.240   7.389   7.350
 8560POPC   C1B53515  25.026   7.570   6.450
 8560POPC   C2B53516  25.027   7.505   6.750
 8560POPC   C3B53517  25.026   7.589   7.050
 8560POPC   C4B53518  25.060   7.586   7.350
 8561POPC   NC353519  38.447  22.912   5.550
 8561POPC   PO453520  38.504  22.898   5.850
 8561POPC   GL153521  38.444  22.938   6.150
 8561POPC   GL253522  38.462  23.099   6.150
 8561POPC   C1A53523  38.441  22.926   6.450
 8561POPC   D2A53524  38.411  22.959   6.750
 8561POPC   C3A53525  38.414  22.891   7.050
 8561POPC   C4A53526  38.472  22.985   7.350
 8561POPC   C1B53527  38.378  23.148   6.450
 8561POPC   C2B53528  38.438  23.143   6.750
 8561POPC   C3B53529  38.454  23.216   7.050
 8561POPC   C4B53530  38.397  23.208   7.350
 8562POPC   NC353531  42.359  28.405   5.550
 8562POPC   PO453532  42.310  28.360   5.850
 8562POPC   GL153533  42.339  28.412   6.150
 8562POPC   GL253534  42.400  28.429   6.150
 8562POPC   C1A53535  42.317  28.356   6.450
 8562POPC   D2A53536  42.358  28.324   6.750
 8562POPC   C3A53537  42.341  28.388   7.050
 8562POPC   C4A53538  42.300  28.387   7.350
 8562POPC   C1B53539  42.466  28.607   6.450
 8562POPC   C2B53540  42.469  28.538   6.750
 8562POPC   C3B53541  42.487  28.548   7.050
 8562POPC   C4B53542  42.463  28.528   7.350
 8563POPC   NC353543  28.343  24.511   5.550
 8563POPC   PO453544  28.332  24.483   5.850
 8563POPC   GL153545  28.340  24.488   6.150
 8563POPC   GL253546  28.494  24.483   6.150
 8563POPC   C1A53547  28.342  24.482   6.450
 8563POPC   D2A53548  28.330  24.460   6.750
 8563POPC   C3A53549  28.340  24.493   7.050
 8563POPC   C4A53550  28.319  24.474   7.350
 8563POPC   C1B53551  28.568  24.552   6.450
 8563POPC   C2B53552  28.612  24.563   6.750
 8563POPC   C3B53553  28.578  24.486   7.050
 8563POPC   C4B53554  28.611  24.572   7.350
 8564POPC   NC353555  33.822  13.663   5.550
 8564POPC   PO453556  33.773  13.638   5.850
 8564POPC   GL153557  33.757  13.640   6.150
 8564POPC   GL253558  33.862  13.743   6.150
 8564POPC   C1A53559  33.751  13.651   6.450
 8564POPC   D2A53560  33.829  13.672   6.750
 8564POPC   C3A53561  33.849  13.677   7.050
 8564POPC   C4A53562  33.814  13.613   7.350
 8564POPC   C1B53563  33.847  13.888   6.450
 8564POPC   C2B53564  33.855  13.920   6.750
 8564POPC   C3B53565  33.847  13.884   7.050
 8564POPC   C4B53566  33.857  13.825   7.350
 8565POPC   NC353567  38.423  15.148   5.550
 8565POPC   PO453568  38.410  15.161   5.850
 8565POPC   GL153569  38.472  15.228   6.150
 8565POPC   GL253570  38.388  15.282   6.150
 8565POPC   C1A53571  38.459  15.211   6.450
 8565POPC   D2A53572  38.489  15.211   6.750
 8565POPC   C3A53573  38.454  15.206   7.050
 8565POPC   C4A53574  38.421  15.203   7.350
 8565POPC   C1B53575  38.354  15.401   6.450
 8565POPC   C2B53576  38.336  15.424   6.750
 8565POPC   C3B53577  38.376  15.422   7.050
 8565POPC   C4B53578  38.394  15.430   7.350
 8566POPC   NC353579  30.702   5.141   5.550
 8566POPC   PO453580  30.675   5.077   5.850
 8566POPC   GL153581  30.675   5.110   6.150
 8566POPC   GL253582  30.554   5.102   6.150
 8566POPC   C1A53583  30.739   5.117   6.450
 8566POPC   D2A53584  30.693   5.070   6.750
 8566POPC   C3A53585  30.745   5.100   7.050
 8566POPC   C4A53586  30.703   5.044   7.350
 8566POPC   C1B53587  30.444   5.089   6.450
 8566POPC   C2B53588  30.426   5.106   6.750
 8566POPC   C3B53589  30.419   5.143   7.050
 8566POPC   C4B53590  30.491   5.093   7.350
 8567POPC   NC353591  28.387  19.095   5.550
 8567POPC   PO453592  28.402  19.062   5.850
 8567POPC   GL153593  28.378  19.054   6.150
 8567POPC   GL253594  28.378  19.223   6.150
 8567POPC   C1A53595  28.401  19.031   6.450
 8567POPC   D2A53596  28.404  19.024   6.750
 8567POPC   C3A53597  28.347  19.033   7.050
 8567POPC   C4A53598  28.394  19.064   7.350
 8567POPC   C1B53599  28.262  19.271   6.450
 8567POPC   C2B53600  28.329  19.299   6.750
 8567POPC   C3B53601  28.248  19.298   7.050
 8567POPC   C4B53602  28.264  19.252   7.350
 8568POPC   NC353603  32.269  27.564   5.550
 8568POPC   PO453604  32.209  27.619   5.850
 8568POPC   GL153605  32.244  27.559   6.150
 8568POPC   GL253606  32.121  27.480   6.150
 8568POPC   C1A53607  32.215  27.544   6.450
 8568POPC   D2A53608  32.251  27.642   6.750
 8568POPC   C3A53609  32.207  27.578   7.050
 8568POPC   C4A53610  32.273  27.625   7.350
 8568POPC   C1B53611  32.047  27.374   6.450
 8568POPC   C2B53612  32.045  27.442   6.750
 8568POPC   C3B53613  32.047  27.433   7.050
 8568POPC   C4B53614  32.077  27.399   7.350
 8569POPC   NC353615  35.318  44.672   5.550
 8569POPC   PO453616  35.315  44.681   5.850
 8569POPC   GL153617  35.398  44.639   6.150
 8569POPC   GL253618  35.463  44.709   6.150
 8569POPC   C1A53619  35.317  44.659   6.450
 8569POPC   D2A53620  35.303  44.709   6.750
 8569POPC   C3A53621  35.314  44.700   7.050
 8569POPC   C4A53622  35.330  44.637   7.350
 8569POPC   C1B53623  35.626  44.779   6.450
 8569POPC   C2B53624  35.544  44.730   6.750
 8569POPC   C3B53625  35.531  44.731   7.050
 8569POPC   C4B53626  35.614  44.759   7.350
 8570POPC   NC353627  29.152  26.049   5.550
 8570POPC   PO453628  29.105  26.009   5.850
 8570POPC   GL153629  29.166  26.054   6.150
 8570POPC   GL253630  29.173  26.122   6.150
 8570POPC   C1A53631  29.098  26.091   6.450
 8570POPC   D2A53632  29.174  26.071   6.750
 8570POPC   C3A53633  29.161  25.993   7.050
 8570POPC   C4A53634  29.125  26.057   7.350
 8570POPC   C1B53635  29.304  26.242   6.450
 8570POPC   C2B53636  29.330  26.285   6.750
 8570POPC   C3B53637  29.259  26.285   7.050
 8570POPC   C4B53638  29.341  26.246   7.350
 8571POPC   NC353639   9.750   1.215   5.550
 8571POPC   PO453640   9.787   1.164   5.850
 8571POPC   GL153641   9.784   1.189   6.150
 8571POPC   GL253642   9.687   1.303   6.150
 8571POPC   C1A53643   9.704   1.231   6.450
 8571POPC   D2A53644   9.781   1.184   6.750
 8571POPC   C3A53645   9.704   1.229   7.050
 8571POPC   C4A53646   9.775   1.203   7.350
 8571POPC   C1B53647   9.620   1.391   6.450
 8571POPC   C2B53648   9.561   1.361   6.750
 8571POPC   C3B53649   9.574   1.427   7.050
 8571POPC   C4B53650   9.606   1.415   7.350
 8572POPC   NC353651  34.555  29.098   5.550
 8572POPC   PO453652  34.548  29.180   5.850
 8572POPC   GL153653  34.545  29.132   6.150
 8572POPC   GL253654  34.443  29.177   6.150
 8572POPC   C1A53655  34.552  29.095   6.450
 8572POPC   D2A53656  34.561  29.167   6.750
 8572POPC   C3A53657  34.596  29.171   7.050
 8572POPC   C4A53658  34.579  29.182   7.350
 8572POPC   C1B53659  34.312  29.097   6.450
 8572POPC   C2B53660  34.300  29.151   6.750
 8572POPC   C3B53661  34.332  29.119   7.050
 8572POPC   C4B53662  34.280  29.143   7.350
 8573POPC   NC353663  12.076  25.259   5.550
 8573POPC   PO453664  12.062  25.223   5.850
 8573POPC   GL153665  12.077  25.300   6.150
 8573POPC   GL253666  12.230  25.298   6.150
 8573POPC   C1A53667  12.055  25.273   6.450
 8573POPC   D2A53668  12.060  25.241   6.750
 8573POPC   C3A53669  12.040  25.259   7.050
 8573POPC   C4A53670  12.084  25.302   7.350
 8573POPC   C1B53671  12.286  25.344   6.450
 8573POPC   C2B53672  12.368  25.284   6.750
 8573POPC   C3B53673  12.368  25.318   7.050
 8573POPC   C4B53674  12.356  25.367   7.350
 8574POPC   NC353675  29.134  34.558   5.550
 8574POPC   PO453676  29.128  34.618   5.850
 8574POPC   GL153677  29.173  34.561   6.150
 8574POPC   GL253678  28.976  34.585   6.150
 8574POPC   C1A53679  29.159  34.533   6.450
 8574POPC   D2A53680  29.098  34.552   6.750
 8574POPC   C3A53681  29.150  34.535   7.050
 8574POPC   C4A53682  29.166  34.604   7.350
 8574POPC   C1B53683  28.926  34.645   6.450
 8574POPC   C2B53684  28.921  34.672   6.750
 8574POPC   C3B53685  28.923  34.614   7.050
 8574POPC   C4B53686  28.908  34.598   7.350
 8575POPC   NC353687  30.737  36.107   5.550
 8575POPC   PO453688  30.721  36.108   5.850
 8575POPC   GL153689  30.671  36.163   6.150
 8575POPC   GL253690  30.793  36.029   6.150
 8575POPC   C1A53691  30.675  36.150   6.450
 8575POPC   D2A53692  30.696  36.109   6.750
 8575POPC   C3A53693  30.720  36.089   7.050
 8575POPC   C4A53694  30.669  36.148   7.350
 8575POPC   C1B53695  30.946  36.048   6.450
 8575POPC   C2B53696  30.964  35.995   6.750
 8575POPC   C3B53697  30.948  36.039   7.050
 8575POPC   C4B53698  30.930  36.003   7.350
 8576POPC   NC353699  39.271  26.022   5.550
 8576POPC   PO453700  39.227  25.995   5.850
 8576POPC   GL153701  39.187  26.072   6.150
 8576POPC   GL253702  39.176  26.016   6.150
 8576POPC   C1A53703  39.225  26.031   6.450
 8576POPC   D2A53704  39.194  26.087   6.750
 8576POPC   C3A53705  39.238  26.059   7.050
 8576POPC   C4A53706  39.202  26.070   7.350
 8576POPC   C1B53707  39.058  25.885   6.450
 8576POPC   C2B53708  38.988  25.932   6.750
 8576POPC   C3B53709  38.988  25.873   7.050
 8576POPC   C4B53710  39.044  25.906   7.350
 8577POPC   NC353711  32.988  28.397   5.550
 8577POPC   PO453712  33.065  28.335   5.850
 8577POPC   GL153713  33.008  28.356   6.150
 8577POPC   GL253714  32.983  28.229   6.150
 8577POPC   C1A53715  33.012  28.359   6.450
 8577POPC   D2A53716  32.984  28.328   6.750
 8577POPC   C3A53717  33.016  28.335   7.050
 8577POPC   C4A53718  33.016  28.328   7.350
 8577POPC   C1B53719  33.016  28.084   6.450
 8577POPC   C2B53720  32.980  28.120   6.750
 8577POPC   C3B53721  33.026  28.119   7.050
 8577POPC   C4B53722  33.012  28.108   7.350
 8578POPC   NC353723   1.961  36.170   5.550
 8578POPC   PO453724   1.969  36.118   5.850
 8578POPC   GL153725   2.021  36.167   6.150
 8578POPC   GL253726   2.061  36.260   6.150
 8578POPC   C1A53727   2.025  36.120   6.450
 8578POPC   D2A53728   2.024  36.159   6.750
 8578POPC   C3A53729   1.959  36.123   7.050
 8578POPC   C4A53730   1.967  36.108   7.350
 8578POPC   C1B53731   2.051  36.364   6.450
 8578POPC   C2B53732   2.069  36.371   6.750
 8578POPC   C3B53733   2.051  36.370   7.050
 8578POPC   C4B53734   2.102  36.322   7.350
 8579POPC   NC353735  29.132  11.318   5.550
 8579POPC   PO453736  29.140  11.265   5.850
 8579POPC   GL153737  29.141  11.276   6.150
 8579POPC   GL253738  29.224  11.399   6.150
 8579POPC   C1A53739  29.166  11.345   6.450
 8579POPC   D2A53740  29.175  11.284   6.750
 8579POPC   C3A53741  29.142  11.301   7.050
 8579POPC   C4A53742  29.118  11.279   7.350
 8579POPC   C1B53743  29.289  11.435   6.450
 8579POPC   C2B53744  29.315  11.504   6.750
 8579POPC   C3B53745  29.313  11.461   7.050
 8579POPC   C4B53746  29.343  11.491   7.350
 8580POPC   NC353747  22.930  43.841   5.550
 8580POPC   PO453748  22.940  43.861   5.850
 8580POPC   GL153749  22.918  43.918   6.150
 8580POPC   GL253750  22.806  43.878   6.150
 8580POPC   C1A53751  22.907  43.846   6.450
 8580POPC   D2A53752  22.936  43.871   6.750
 8580POPC   C3A53753  22.889  43.902   7.050
 8580POPC   C4A53754  22.920  43.861   7.350
 8580POPC   C1B53755  22.665  43.920   6.450
 8580POPC   C2B53756  22.648  43.882   6.750
 8580POPC   C3B53757  22.663  43.944   7.050
 8580POPC   C4B53758  22.667  43.931   7.350
 8581POPC   NC353759  34.539  44.649   5.550
 8581POPC   PO453760  34.602  44.643   5.850
 8581POPC   GL153761  34.616  44.683   6.150
 8581POPC   GL253762  34.593  44.835   6.150
 8581POPC   C1A53763  34.586  44.634   6.450
 8581POPC   D2A53764  34.608  44.673   6.750
 8581POPC   C3A53765  34.590  44.622   7.050
 8581POPC   C4A53766  34.579  44.684   7.350
 8581POPC   C1B53767  34.577  44.955   6.450
 8581POPC   C2B53768  34.562  44.945   6.750
 8581POPC   C3B53769  34.623  44.934   7.050
 8581POPC   C4B53770  34.616  44.866   7.350
 8582POPC   NC353771  26.017  29.192   5.550
 8582POPC   PO453772  26.055  29.175   5.850
 8582POPC   GL153773  26.027  29.117   6.150
 8582POPC   GL253774  26.124  29.204   6.150
 8582POPC   C1A53775  26.003  29.175   6.450
 8582POPC   D2A53776  26.020  29.133   6.750
 8582POPC   C3A53777  26.090  29.184   7.050
 8582POPC   C4A53778  25.994  29.138   7.350
 8582POPC   C1B53779  26.236  29.288   6.450
 8582POPC   C2B53780  26.231  29.280   6.750
 8582POPC   C3B53781  26.261  29.280   7.050
 8582POPC   C4B53782  26.269  29.263   7.350
 8583POPC   NC353783  28.341  34.538   5.550
 8583POPC   PO453784  28.384  34.548   5.850
 8583POPC   GL153785  28.396  34.564   6.150
 8583POPC   GL253786  28.243  34.593   6.150
 8583POPC   C1A53787  28.410  34.613   6.450
 8583POPC   D2A53788  28.351  34.601   6.750
 8583POPC   C3A53789  28.409  34.571   7.050
 8583POPC   C4A53790  28.408  34.592   7.350
 8583POPC   C1B53791  28.192  34.660   6.450
 8583POPC   C2B53792  28.186  34.724   6.750
 8583POPC   C3B53793  28.198  34.667   7.050
 8583POPC   C4B53794  28.196  34.727   7.350
 8584POPC   NC353795  43.884  26.849   5.550
 8584POPC   PO453796  43.846  26.828   5.850
 8584POPC   GL153797  43.889  26.773   6.150
 8584POPC   GL253798  43.847  26.885   6.150
 8584POPC   C1A53799  43.869  26.829   6.450
 8584POPC   D2A53800  43.872  26.784   6.750
 8584POPC   C3A53801  43.851  26.843   7.050
 8584POPC   C4A53802  43.849  26.773   7.350
 8584POPC   C1B53803  43.797  27.039   6.450
 8584POPC   C2B53804  43.788  27.053   6.750
 8584POPC   C3B53805  43.844  27.017   7.050
 8584POPC   C4B53806  43.834  27.050   7.350
 8585POPC   NC353807   1.237  44.683   5.550
 8585POPC   PO453808   1.168  44.613   5.850
 8585POPC   GL153809   1.193  44.617   6.150
 8585POPC   GL253810   1.303  44.656   6.150
 8585POPC   C1A53811   1.229  44.699   6.450
 8585POPC   D2A53812   1.226  44.662   6.750
 8585POPC   C3A53813   1.209  44.613   7.050
 8585POPC   C4A53814   1.234  44.618   7.350
 8585POPC   C1B53815   1.438  44.709   6.450
 8585POPC   C2B53816   1.422  44.699   6.750
 8585POPC   C3B53817   1.496  44.696   7.050
 8585POPC   C4B53818   1.508  44.747   7.350
 8586POPC   NC353819  31.476  39.975   5.550
 8586POPC   PO453820  31.450  40.036   5.850
 8586POPC   GL153821  31.453  40.026   6.150
 8586POPC   GL253822  31.600  39.936   6.150
 8586POPC   C1A53823  31.452  40.043   6.450
 8586POPC   D2A53824  31.506  40.035   6.750
 8586POPC   C3A53825  31.497  39.961   7.050
 8586POPC   C4A53826  31.448  40.040   7.350
 8586POPC   C1B53827  31.584  39.819   6.450
 8586POPC   C2B53828  31.603  39.859   6.750
 8586POPC   C3B53829  31.590  39.769   7.050
 8586POPC   C4B53830  31.664  39.857   7.350
 8587POPC   NC353831   8.974  40.827   5.550
 8587POPC   PO453832   8.957  40.816   5.850
 8587POPC   GL153833   8.925  40.773   6.150
 8587POPC   GL253834   8.883  40.636   6.150
 8587POPC   C1A53835   9.017  40.748   6.450
 8587POPC   D2A53836   8.931  40.740   6.750
 8587POPC   C3A53837   8.963  40.754   7.050
 8587POPC   C4A53838   9.021  40.803   7.350
 8587POPC   C1B53839   8.850  40.598   6.450
 8587POPC   C2B53840   8.780  40.557   6.750
 8587POPC   C3B53841   8.788  40.580   7.050
 8587POPC   C4B53842   8.797  40.540   7.350
 8588POPC   NC353843  39.268  31.498   5.550
 8588POPC   PO453844  39.217  31.462   5.850
 8588POPC   GL153845  39.208  31.430   6.150
 8588POPC   GL253846  39.242  31.353   6.150
 8588POPC   C1A53847  39.190  31.471   6.450
 8588POPC   D2A53848  39.263  31.442   6.750
 8588POPC   C3A53849  39.276  31.488   7.050
 8588POPC   C4A53850  39.274  31.499   7.350
 8588POPC   C1B53851  39.272  31.205   6.450
 8588POPC   C2B53852  39.229  31.228   6.750
 8588POPC   C3B53853  39.215  31.237   7.050
 8588POPC   C4B53854  39.217  31.250   7.350
 8589POPC   NC353855   6.621  43.147   5.550
 8589POPC   PO453856   6.627  43.118   5.850
 8589POPC   GL153857   6.651  43.142   6.150
 8589POPC   GL253858   6.612  43.032   6.150
 8589POPC   C1A53859   6.640  43.065   6.450
 8589POPC   D2A53860   6.622  43.068   6.750
 8589POPC   C3A53861   6.611  43.121   7.050
 8589POPC   C4A53862   6.680  43.110   7.350
 8589POPC   C1B53863   6.663  42.890   6.450
 8589POPC   C2B53864   6.647  42.887   6.750
 8589POPC   C3B53865   6.635  42.870   7.050
 8589POPC   C4B53866   6.632  42.813   7.350
 8590POPC   NC353867  30.715  18.251   5.550
 8590POPC   PO453868  30.734  18.287   5.850
 8590POPC   GL153869  30.739  18.311   6.150
 8590POPC   GL253870  30.783  18.317   6.150
 8590POPC   C1A53871  30.718  18.283   6.450
 8590POPC   D2A53872  30.742  18.320   6.750
 8590POPC   C3A53873  30.724  18.263   7.050
 8590POPC   C4A53874  30.657  18.299   7.350
 8590POPC   C1B53875  30.946  18.275   6.450
 8590POPC   C2B53876  30.973  18.308   6.750
 8590POPC   C3B53877  30.901  18.335   7.050
 8590POPC   C4B53878  30.910  18.343   7.350
 8591POPC   NC353879  40.754  29.949   5.550
 8591POPC   PO453880  40.780  29.958   5.850
 8591POPC   GL153881  40.764  29.931   6.150
 8591POPC   GL253882  40.677  30.065   6.150
 8591POPC   C1A53883  40.816  29.895   6.450
 8591POPC   D2A53884  40.830  29.909   6.750
 8591POPC   C3A53885  40.775  29.916   7.050
 8591POPC   C4A53886  40.780  29.912   7.350
 8591POPC   C1B53887  40.661  30.103   6.450
 8591POPC   C2B53888  40.698  30.121   6.750
 8591POPC   C3B53889  40.644  30.119   7.050
 8591POPC   C4B53890  40.676  30.155   7.350
 8592POPC   NC353891  33.049  12.123   5.550
 8592POPC   PO453892  33.019  12.058   5.850
 8592POPC   GL153893  33.068  12.075   6.150
 8592POPC   GL253894  33.010  11.974   6.150
 8592POPC   C1A53895  33.070  12.080   6.450
 8592POPC   D2A53896  33.068  12.106   6.750
 8592POPC   C3A53897  33.005  12.040   7.050
 8592POPC   C4A53898  33.004  12.107   7.350
 8592POPC   C1B53899  32.970  11.848   6.450
 8592POPC   C2B53900  32.940  11.866   6.750
 8592POPC   C3B53901  32.933  11.848   7.050
 8592POPC   C4B53902  32.909  11.892   7.350
 8593POPC   NC353903  12.868  34.586   5.550
 8593POPC   PO453904  12.811  34.548   5.850
 8593POPC   GL153905  12.883  34.573   6.150
 8593POPC   GL253906  12.763  34.686   6.150
 8593POPC   C1A53907  12.824  34.550   6.450
 8593POPC   D2A53908  12.862  34.597   6.750
 8593POPC   C3A53909  12.841  34.588   7.050
 8593POPC   C4A53910  12.861  34.616   7.350
 8593POPC   C1B53911  12.725  34.767   6.450
 8593POPC   C2B53912  12.754  34.794   6.750
 8593POPC   C3B53913  12.784  34.750   7.050
 8593POPC   C4B53914  12.779  34.842   7.350
 8594POPC   NC353915  31.518  34.604   5.550
 8594POPC   PO453916  31.522  34.624   5.850
 8594POPC   GL153917  31.467  34.531   6.150
 8594POPC   GL253918  31.470  34.694   6.150
 8594POPC   C1A53919  31.517  34.539   6.450
 8594POPC   D2A53920  31.474  34.624   6.750
 8594POPC   C3A53921  31.501  34.600   7.050
 8594POPC   C4A53922  31.461  34.564   7.350
 8594POPC   C1B53923  31.503  34.833   6.450
 8594POPC   C2B53924  31.563  34.860   6.750
 8594POPC   C3B53925  31.545  34.828   7.050
 8594POPC   C4B53926  31.502  34.854   7.350
 8595POPC   NC353927  37.664  13.665   5.550
 8595POPC   PO453928  37.638  13.657   5.850
 8595POPC   GL153929  37.664  13.637   6.150
 8595POPC   GL253930  37.708  13.503   6.150
 8595POPC   C1A53931  37.709  13.596   6.450
 8595POPC   D2A53932  37.650  13.657   6.750
 8595POPC   C3A53933  37.665  13.630   7.050
 8595POPC   C4A53934  37.646  13.660   7.350
 8595POPC   C1B53935  37.666  13.374   6.450
 8595POPC   C2B53936  37.716  13.333   6.750
 8595POPC   C3B53937  37.702  13.339   7.050
 8595POPC   C4B53938  37.704  13.413   7.350
 8596POPC   NC353939  15.973  11.260   5.550
 8596POPC   PO453940  15.945  11.296   5.850
 8596POPC   GL153941  15.954  11.341   6.150
 8596POPC   GL253942  15.986  11.469   6.150
 8596POPC   C1A53943  15.906  11.327   6.450
 8596POPC   D2A53944  15.932  11.293   6.750
 8596POPC   C3A53945  15.973  11.291   7.050
 8596POPC   C4A53946  15.964  11.272   7.350
 8596POPC   C1B53947  16.011  11.556   6.450
 8596POPC   C2B53948  16.007  11.565   6.750
 8596POPC   C3B53949  16.048  11.542   7.050
 8596POPC   C4B53950  16.053  11.537   7.350
 8597POPC   NC353951  42.380  32.206   5.550
 8597POPC   PO453952  42.364  32.219   5.850
 8597POPC   GL153953  42.307  32.224   6.150
 8597POPC   GL253954  42.222  32.130   6.150
 8597POPC   C1A53955  42.332  32.207   6.450
 8597POPC   D2A53956  42.373  32.275   6.750
 8597POPC   C3A53957  42.304  32.205   7.050
 8597POPC   C4A53958  42.351  32.269   7.350
 8597POPC   C1B53959  42.152  32.021   6.450
 8597POPC   C2B53960  42.160  32.047   6.750
 8597POPC   C3B53961  42.169  32.066   7.050
 8597POPC   C4B53962  42.183  32.059   7.350
 8598POPC   NC353963  29.891  22.912   5.550
 8598POPC   PO453964  29.905  22.971   5.850
 8598POPC   GL153965  29.906  22.928   6.150
 8598POPC   GL253966  29.945  23.044   6.150
 8598POPC   C1A53967  29.931  22.950   6.450
 8598POPC   D2A53968  29.923  22.929   6.750
 8598POPC   C3A53969  29.963  22.964   7.050
 8598POPC   C4A53970  29.922  22.955   7.350
 8598POPC   C1B53971  29.873  23.226   6.450
 8598POPC   C2B53972  29.855  23.221   6.750
 8598POPC   C3B53973  29.894  23.188   7.050
 8598POPC   C4B53974  29.870  23.164   7.350
 8599POPC   NC353975  13.599  38.431   5.550
 8599POPC   PO453976  13.605  38.502   5.850
 8599POPC   GL153977  13.654  38.408   6.150
 8599POPC   GL253978  13.496  38.425   6.150
 8599POPC   C1A53979  13.663  38.419   6.450
 8599POPC   D2A53980  13.593  38.489   6.750
 8599POPC   C3A53981  13.658  38.459   7.050
 8599POPC   C4A53982  13.656  38.432   7.350
 8599POPC   C1B53983  13.413  38.454   6.450
 8599POPC   C2B53984  13.353  38.474   6.750
 8599POPC   C3B53985  13.384  38.476   7.050
 8599POPC   C4B53986  13.386  38.480   7.350
 8600POPC   NC353987  17.499   5.051   5.550
 8600POPC   PO453988  17.532   5.141   5.850
 8600POPC   GL153989  17.493   5.076   6.150
 8600POPC   GL253990  17.449   5.023   6.150
 8600POPC   C1A53991  17.541   5.070   6.450
 8600POPC   D2A53992  17.504   5.070   6.750
 8600POPC   C3A53993  17.476   5.048   7.050
 8600POPC   C4A53994  17.467   5.066   7.350
 8600POPC   C1B53995  17.326   4.950   6.450
 8600POPC   C2B53996  17.280   5.015   6.750
 8600POPC   C3B53997  17.326   5.009   7.050
 8600POPC   C4B53998  17.256   4.987   7.350
 8601POPC   NC353999  36.908  42.320   5.550
 8601POPC   PO454000  36.905  42.373   5.850
 8601POPC   GL154001  36.895  42.349   6.150
 8601POPC   GL254002  36.751  42.222   6.150
 8601POPC   C1A54003  36.952  42.382   6.450
 8601POPC   D2A54004  36.872  42.293   6.750
 8601POPC   C3A54005  36.927  42.358   7.050
 8601POPC   C4A54006  36.927  42.291   7.350
 8601POPC   C1B54007  36.667  42.214   6.450
 8601POPC   C2B54008  36.672  42.152   6.750
 8601POPC   C3B54009  36.703  42.185   7.050
 8601POPC   C4B54010  36.681  42.145   7.350
 8602POPC   NC354011   3.497   1.263   5.550
 8602POPC   PO454012   3.548   1.181   5.850
 8602POPC   GL154013   3.507   1.219   6.150
 8602POPC   GL254014   3.576   1.329   6.150
 8602POPC   C1A54015   3.524   1.232   6.450
 8602POPC   D2A54016   3.531   1.246   6.750
 8602POPC   C3A54017   3.587   1.262   7.050
 8602POPC   C4A54018   3.579   1.217   7.350
 8602POPC   C1B54019   3.605   1.450   6.450
 8602POPC   C2B54020   3.558   1.434   6.750
 8602POPC   C3B54021   3.557   1.480   7.050
 8602POPC   C4B54022   3.558   1.445   7.350
 8603POPC   NC354023  35.306  29.940   5.550
 8603POPC   PO454024  35.318  29.912   5.850
 8603POPC   GL154025  35.399  29.885   6.150
 8603POPC   GL254026  35.305  30.063   6.150
 8603POPC   C1A54027  35.383  29.915   6.450
 8603POPC   D2A54028  35.356  29.959   6.750
 8603POPC   C3A54029  35.342  29.944   7.050
 8603POPC   C4A54030  35.348  29.887   7.350
 8603POPC   C1B54031  35.282  30.139   6.450
 8603POPC   C2B54032  35.305  30.154   6.750
 8603POPC   C3B54033  35.262  30.175   7.050
 8603POPC   C4B54034  35.254  30.168   7.350
 8604POPC   NC354035  30.731  13.676   5.550
 8604POPC   PO454036  30.702  13.650   5.850
 8604POPC   GL154037  30.695  13.625   6.150
 8604POPC   GL254038  30.849  13.642   6.150
 8604POPC   C1A54039  30.712  13.616   6.450
 8604POPC   D2A54040  30.728  13.639   6.750
 8604POPC   C3A54041  30.669  13.655   7.050
 8604POPC   C4A54042  30.664  13.673   7.350
 8604POPC   C1B54043  30.977  13.608   6.450
 8604POPC   C2B54044  30.928  13.653   6.750
 8604POPC   C3B54045  30.967  13.667   7.050
 8604POPC   C4B54046  30.923  13.608   7.350
 8605POPC   NC354047   9.015  35.399   5.550
 8605POPC   PO454048   8.989  35.355   5.850
 8605POPC   GL154049   9.001  35.377   6.150
 8605POPC   GL254050   9.061  35.343   6.150
 8605POPC   C1A54051   9.014  35.382   6.450
 8605POPC   D2A54052   8.957  35.341   6.750
 8605POPC   C3A54053   8.962  35.361   7.050
 8605POPC   C4A54054   8.932  35.388   7.350
 8605POPC   C1B54055   9.240  35.254   6.450
 8605POPC   C2B54056   9.216  35.303   6.750
 8605POPC   C3B54057   9.170  35.236   7.050
 8605POPC   C4B54058   9.251  35.232   7.350
 8606POPC   NC354059   3.544  37.670   5.550
 8606POPC   PO454060   3.584  37.633   5.850
 8606POPC   GL154061   3.570  37.704   6.150
 8606POPC   GL254062   3.374  37.670   6.150
 8606POPC   C1A54063   3.511  37.676   6.450
 8606POPC   D2A54064   3.572  37.638   6.750
 8606POPC   C3A54065   3.523  37.652   7.050
 8606POPC   C4A54066   3.516  37.634   7.350
 8606POPC   C1B54067   3.257  37.598   6.450
 8606POPC   C2B54068   3.301  37.643   6.750
 8606POPC   C3B54069   3.325  37.585   7.050
 8606POPC   C4B54070   3.261  37.551   7.350
 8607POPC   NC354071  43.109  22.155   5.550
 8607POPC   PO454072  43.086  22.178   5.850
 8607POPC   GL154073  43.085  22.158   6.150
 8607POPC   GL254074  43.002  22.177   6.150
 8607POPC   C1A54075  43.093  22.185   6.450
 8607POPC   D2A54076  43.072  22.119   6.750
 8607POPC   C3A54077  43.144  22.171   7.050
 8607POPC   C4A54078  43.109  22.149   7.350
 8607POPC   C1B54079  42.876  22.177   6.450
 8607POPC   C2B54080  42.839  22.192   6.750
 8607POPC   C3B54081  42.870  22.190   7.050
 8607POPC   C4B54082  42.851  22.150   7.350
 8608POPC   NC354083  15.208  28.350   5.550
 8608POPC   PO454084  15.188  28.417   5.850
 8608POPC   GL154085  15.172  28.332   6.150
 8608POPC   GL254086  15.171  28.220   6.150
 8608POPC   C1A54087  15.218  28.321   6.450
 8608POPC   D2A54088  15.184  28.355   6.750
 8608POPC   C3A54089  15.171  28.371   7.050
 8608POPC   C4A54090  15.228  28.352   7.350
 8608POPC   C1B54091  15.232  28.158   6.450
 8608POPC   C2B54092  15.173  28.079   6.750
 8608POPC   C3B54093  15.256  28.152   7.050
 8608POPC   C4B54094  15.237  28.122   7.350
 8609POPC   NC354095   5.117  18.242   5.550
 8609POPC   PO454096   5.097  18.242   5.850
 8609POPC   GL154097   5.128  18.281   6.150
 8609POPC   GL254098   4.978  18.295   6.150
 8609POPC   C1A54099   5.138  18.235   6.450
 8609POPC   D2A54100   5.127  18.323   6.750
 8609POPC   C3A54101   5.059  18.283   7.050
 8609POPC   C4A54102   5.123  18.286   7.350
 8609POPC   C1B54103   4.834  18.352   6.450
 8609POPC   C2B54104   4.838  18.385   6.750
 8609POPC   C3B54105   4.875  18.366   7.050
 8609POPC   C4B54106   4.871  18.353   7.350
 8610POPC   NC354107  20.590  43.157   5.550
 8610POPC   PO454108  20.587  43.126   5.850
 8610POPC   GL154109  20.654  43.096   6.150
 8610POPC   GL254110  20.559  43.063   6.150
 8610POPC   C1A54111  20.631  43.076   6.450
 8610POPC   D2A54112  20.592  43.135   6.750
 8610POPC   C3A54113  20.595  43.090   7.050
 8610POPC   C4A54114  20.585  43.125   7.350
 8610POPC   C1B54115  20.390  42.971   6.450
 8610POPC   C2B54116  20.450  42.941   6.750
 8610POPC   C3B54117  20.464  42.961   7.050
 8610POPC   C4B54118  20.449  42.953   7.350
 8611POPC   NC354119  33.762  19.830   5.550
 8611POPC   PO454120  33.848  19.834   5.850
 8611POPC   GL154121  33.796  19.848   6.150
 8611POPC   GL254122  33.671  19.896   6.150
 8611POPC   C1A54123  33.797  19.822   6.450
 8611POPC   D2A54124  33.810  19.796   6.750
 8611POPC   C3A54125  33.796  19.796   7.050
 8611POPC   C4A54126  33.760  19.847   7.350
 8611POPC   C1B54127  33.586  19.900   6.450
 8611POPC   C2B54128  33.523  19.957   6.750
 8611POPC   C3B54129  33.528  19.894   7.050
 8611POPC   C4B54130  33.577  19.893   7.350
 8612POPC   NC354131  42.320  43.905   5.550
 8612POPC   PO454132  42.286  43.879   5.850
 8612POPC   GL154133  42.303  43.872   6.150
 8612POPC   GL254134  42.236  43.836   6.150
 8612POPC   C1A54135  42.322  43.892   6.450
 8612POPC   D2A54136  42.376  43.901   6.750
 8612POPC   C3A54137  42.365  43.863   7.050
 8612POPC   C4A54138  42.306  43.857   7.350
 8612POPC   C1B54139  42.046  43.825   6.450
 8612POPC   C2B54140  42.082  43.859   6.750
 8612POPC   C3B54141  42.138  43.846   7.050
 8612POPC   C4B54142  42.098  43.805   7.350
 8613POPC   NC354143  32.213  22.930   5.550
 8613POPC   PO454144  32.293  22.967   5.850
 8613POPC   GL154145  32.207  22.956   6.150
 8613POPC   GL254146  32.329  23.053   6.150
 8613POPC   C1A54147  32.218  22.961   6.450
 8613POPC   D2A54148  32.257  22.948   6.750
 8613POPC   C3A54149  32.277  22.933   7.050
 8613POPC   C4A54150  32.286  22.972   7.350
 8613POPC   C1B54151  32.406  23.158   6.450
 8613POPC   C2B54152  32.383  23.202   6.750
 8613POPC   C3B54153  32.399  23.139   7.050
 8613POPC   C4B54154  32.390  23.194   7.350
 8614POPC   NC354155  21.379  38.469   5.550
 8614POPC   PO454156  21.354  38.461   5.850
 8614POPC   GL154157  21.401  38.412   6.150
 8614POPC   GL254158  21.490  38.524   6.150
 8614POPC   C1A54159  21.421  38.504   6.450
 8614POPC   D2A54160  21.337  38.479   6.750
 8614POPC   C3A54161  21.428  38.420   7.050
 8614POPC   C4A54162  21.369  38.430   7.350
 8614POPC   C1B54163  21.543  38.638   6.450
 8614POPC   C2B54164  21.504  38.602   6.750
 8614POPC   C3B54165  21.507  38.612   7.050
 8614POPC   C4B54166  21.510  38.626   7.350
 8615POPC   NC354167   2.773   0.469   5.550
 8615POPC   PO454168   2.756   0.459   5.850
 8615POPC   GL154169   2.790   0.409   6.150
 8615POPC   GL254170   2.858   0.509   6.150
 8615POPC   C1A54171   2.754   0.470   6.450
 8615POPC   D2A54172   2.808   0.433   6.750
 8615POPC   C3A54173   2.758   0.468   7.050
 8615POPC   C4A54174   2.769   0.454   7.350
 8615POPC   C1B54175   3.045   0.572   6.450
 8615POPC   C2B54176   2.993   0.559   6.750
 8615POPC   C3B54177   2.963   0.567   7.050
 8615POPC   C4B54178   2.995   0.527   7.350
 8616POPC   NC354179  19.080   6.622   5.550
 8616POPC   PO454180  19.067   6.604   5.850
 8616POPC   GL154181  19.016   6.665   6.150
 8616POPC   GL254182  19.211   6.715   6.150
 8616POPC   C1A54183  19.102   6.659   6.450
 8616POPC   D2A54184  19.020   6.662   6.750
 8616POPC   C3A54185  19.069   6.639   7.050
 8616POPC   C4A54186  19.049   6.642   7.350
 8616POPC   C1B54187  19.352   6.664   6.450
 8616POPC   C2B54188  19.344   6.683   6.750
 8616POPC   C3B54189  19.289   6.732   7.050
 8616POPC   C4B54190  19.353   6.675   7.350
 8617POPC   NC354191  22.149  29.158   5.550
 8617POPC   PO454192  22.204  29.181   5.850
 8617POPC   GL154193  22.153  29.155   6.150
 8617POPC   GL254194  22.033  29.113   6.150
 8617POPC   C1A54195  22.159  29.116   6.450
 8617POPC   D2A54196  22.204  29.192   6.750
 8617POPC   C3A54197  22.154  29.099   7.050
 8617POPC   C4A54198  22.194  29.149   7.350
 8617POPC   C1B54199  21.960  29.112   6.450
 8617POPC   C2B54200  21.945  29.070   6.750
 8617POPC   C3B54201  21.904  29.063   7.050
 8617POPC   C4B54202  21.964  29.056   7.350
 8618POPC   NC354203  36.915  38.474   5.550
 8618POPC   PO454204  36.909  38.468   5.850
 8618POPC   GL154205  36.909  38.487   6.150
 8618POPC   GL254206  36.906  38.321   6.150
 8618POPC   C1A54207  36.862  38.419   6.450
 8618POPC   D2A54208  36.943  38.451   6.750
 8618POPC   C3A54209  36.944  38.444   7.050
 8618POPC   C4A54210  36.909  38.444   7.350
 8618POPC   C1B54211  36.888  38.209   6.450
 8618POPC   C2B54212  36.897  38.217   6.750
 8618POPC   C3B54213  36.884  38.217   7.050
 8618POPC   C4B54214  36.862  38.230   7.350
 8619POPC   NC354215  20.613  35.340   5.550
 8619POPC   PO454216  20.567  35.387   5.850
 8619POPC   GL154217  20.592  35.308   6.150
 8619POPC   GL254218  20.683  35.312   6.150
 8619POPC   C1A54219  20.596  35.373   6.450
 8619POPC   D2A54220  20.562  35.384   6.750
 8619POPC   C3A54221  20.568  35.384   7.050
 8619POPC   C4A54222  20.603  35.329   7.350
 8619POPC   C1B54223  20.881  35.248   6.450
 8619POPC   C2B54224  20.874  35.287   6.750
 8619POPC   C3B54225  20.870  35.254   7.050
 8619POPC   C4B54226  20.865  35.249   7.350
 8620POPC   NC354227  29.969   4.304   5.550
 8620POPC   PO454228  29.937   4.300   5.850
 8620POPC   GL154229  29.916   4.308   6.150
 8620POPC   GL254230  29.926   4.240   6.150
 8620POPC   C1A54231  29.903   4.332   6.450
 8620POPC   D2A54232  29.967   4.346   6.750
 8620POPC   C3A54233  29.889   4.323   7.050
 8620POPC   C4A54234  29.900   4.303   7.350
 8620POPC   C1B54235  29.873   4.095   6.450
 8620POPC   C2B54236  29.918   4.050   6.750
 8620POPC   C3B54237  29.941   4.020   7.050
 8620POPC   C4B54238  29.894   4.024   7.350
 8621POPC   NC354239  12.123  31.510   5.550
 8621POPC   PO454240  12.077  31.455   5.850
 8621POPC   GL154241  12.084  31.432   6.150
 8621POPC   GL254242  12.201  31.481   6.150
 8621POPC   C1A54243  12.103  31.456   6.450
 8621POPC   D2A54244  12.063  31.488   6.750
 8621POPC   C3A54245  12.095  31.478   7.050
 8621POPC   C4A54246  12.043  31.515   7.350
 8621POPC   C1B54247  12.362  31.478   6.450
 8621POPC   C2B54248  12.305  31.450   6.750
 8621POPC   C3B54249  12.363  31.453   7.050
 8621POPC   C4B54250  12.361  31.463   7.350
 8622POPC   NC354251  29.945  15.216   5.550
 8622POPC   PO454252  29.902  15.165   5.850
 8622POPC   GL154253  29.962  15.136   6.150
 8622POPC   GL254254  30.010  15.207   6.150
 8622POPC   C1A54255  29.942  15.220   6.450
 8622POPC   D2A54256  29.931  15.218   6.750
 8622POPC   C3A54257  29.914  15.218   7.050
 8622POPC   C4A54258  29.961  15.203   7.350
 8622POPC   C1B54259  30.127  15.244   6.450
 8622POPC   C2B54260  30.118  15.250   6.750
 8622POPC   C3B54261  30.145  15.283   7.050
 8622POPC   C4B54262  30.158  15.208   7.350
 8623POPC   NC354263  23.705  30.686   5.550
 8623POPC   PO454264  23.680  30.651   5.850
 8623POPC   GL154265  23.683  30.721   6.150
 8623POPC   GL254266  23.614  30.588   6.150
 8623POPC   C1A54267  23.695  30.663   6.450
 8623POPC   D2A54268  23.709  30.660   6.750
 8623POPC   C3A54269  23.697  30.662   7.050
 8623POPC   C4A54270  23.690  30.718   7.350
 8623POPC   C1B54271  23.468  30.535   6.450
 8623POPC   C2B54272  23.471  30.522   6.750
 8623POPC   C3B54273  23.468  30.586   7.050
 8623POPC   C4B54274  23.464  30.570   7.350
 8624POPC   NC354275  14.384  26.854   5.550
 8624POPC   PO454276  14.408  26.835   5.850
 8624POPC   GL154277  14.424  26.800   6.150
 8624POPC   GL254278  14.461  26.917   6.150
 8624POPC   C1A54279  14.397  26.776   6.450
 8624POPC   D2A54280  14.388  26.832   6.750
 8624POPC   C3A54281  14.443  26.802   7.050
 8624POPC   C4A54282  14.433  26.806   7.350
 8624POPC   C1B54283  14.577  27.021   6.450
 8624POPC   C2B54284  14.509  26.984   6.750
 8624POPC   C3B54285  14.582  27.045   7.050
 8624POPC   C4B54286  14.561  27.061   7.350
 8625POPC   NC354287  43.124  17.502   5.550
 8625POPC   PO454288  43.062  17.459   5.850
 8625POPC   GL154289  43.157  17.464   6.150
 8625POPC   GL254290  43.229  17.437   6.150
 8625POPC   C1A54291  43.082  17.544   6.450
 8625POPC   D2A54292  43.146  17.463   6.750
 8625POPC   C3A54293  43.133  17.546   7.050
 8625POPC   C4A54294  43.156  17.548   7.350
 8625POPC   C1B54295  43.284  17.319   6.450
 8625POPC   C2B54296  43.234  17.297   6.750
 8625POPC   C3B54297  43.294  17.296   7.050
 8625POPC   C4B54298  43.283  17.296   7.350
 8626POPC   NC354299  16.703  14.428   5.550
 8626POPC   PO454300  16.694  14.403   5.850
 8626POPC   GL154301  16.744  14.452   6.150
 8626POPC   GL254302  16.823  14.496   6.150
 8626POPC   C1A54303  16.770  14.372   6.450
 8626POPC   D2A54304  16.692  14.356   6.750
 8626POPC   C3A54305  16.726  14.397   7.050
 8626POPC   C4A54306  16.770  14.393   7.350
 8626POPC   C1B54307  16.785  14.586   6.450
 8626POPC   C2B54308  16.790  14.682   6.750
 8626POPC   C3B54309  16.803  14.647   7.050
 8626POPC   C4B54310  16.830  14.681   7.350
 8627POPC   NC354311  11.339  23.733   5.550
 8627POPC   PO454312  11.304  23.693   5.850
 8627POPC   GL154313  11.317  23.706   6.150
 8627POPC   GL254314  11.190  23.806   6.150
 8627POPC   C1A54315  11.302  23.669   6.450
 8627POPC   D2A54316  11.290  23.744   6.750
 8627POPC   C3A54317  11.306  23.716   7.050
 8627POPC   C4A54318  11.316  23.757   7.350
 8627POPC   C1B54319  11.130  23.846   6.450
 8627POPC   C2B54320  11.089  23.905   6.750
 8627POPC   C3B54321  11.055  23.894   7.050
 8627POPC   C4B54322  11.121  23.869   7.350
 8628POPC   NC354323  12.062  40.747   5.550
 8628POPC   PO454324  12.125  40.743   5.850
 8628POPC   GL154325  12.060  40.804   6.150
 8628POPC   GL254326  12.054  40.866   6.150
 8628POPC   C1A54327  12.032  40.828   6.450
 8628POPC   D2A54328  12.054  40.810   6.750
 8628POPC   C3A54329  12.073  40.798   7.050
 8628POPC   C4A54330  12.086  40.751   7.350
 8628POPC   C1B54331  11.984  40.987   6.450
 8628POPC   C2B54332  12.070  41.016   6.750
 8628POPC   C3B54333  11.998  41.029   7.050
 8628POPC   C4B54334  12.064  41.073   7.350
 8629POPC   NC354335  33.757  38.493   5.550
 8629POPC   PO454336  33.784  38.419   5.850
 8629POPC   GL154337  33.833  38.501   6.150
 8629POPC   GL254338  33.940  38.379   6.150
 8629POPC   C1A54339  33.761  38.439   6.450
 8629POPC   D2A54340  33.835  38.473   6.750
 8629POPC   C3A54341  33.790  38.496   7.050
 8629POPC   C4A54342  33.779  38.472   7.350
 8629POPC   C1B54343  34.030  38.261   6.450
 8629POPC   C2B54344  33.949  38.290   6.750
 8629POPC   C3B54345  34.024  38.289   7.050
 8629POPC   C4B54346  34.027  38.264   7.350
 8630POPC   NC354347  15.168  34.624   5.550
 8630POPC   PO454348  15.210  34.617   5.850
 8630POPC   GL154349  15.161  34.625   6.150
 8630POPC   GL254350  15.297  34.636   6.150
 8630POPC   C1A54351  15.150  34.529   6.450
 8630POPC   D2A54352  15.191  34.568   6.750
 8630POPC   C3A54353  15.177  34.549   7.050
 8630POPC   C4A54354  15.146  34.536   7.350
 8630POPC   C1B54355  15.330  34.792   6.450
 8630POPC   C2B54356  15.325  34.714   6.750
 8630POPC   C3B54357  15.335  34.803   7.050
 8630POPC   C4B54358  15.385  34.780   7.350
 8631POPC   NC354359  18.262   9.703   5.550
 8631POPC   PO454360  18.287   9.740   5.850
 8631POPC   GL154361  18.290   9.709   6.150
 8631POPC   GL254362  18.352   9.828   6.150
 8631POPC   C1A54363  18.293   9.703   6.450
 8631POPC   D2A54364  18.304   9.789   6.750
 8631POPC   C3A54365  18.256   9.705   7.050
 8631POPC   C4A54366  18.290   9.711   7.350
 8631POPC   C1B54367  18.441   9.850   6.450
 8631POPC   C2B54368  18.540   9.929   6.750
 8631POPC   C3B54369  18.453   9.922   7.050
 8631POPC   C4B54370  18.499   9.849   7.350
 8632POPC   NC354371   5.137  31.423   5.550
 8632POPC   PO454372   5.125  31.431   5.850
 8632POPC   GL154373   5.115  31.496   6.150
 8632POPC   GL254374   5.190  31.364   6.150
 8632POPC   C1A54375   5.135  31.444   6.450
 8632POPC   D2A54376   5.114  31.454   6.750
 8632POPC   C3A54377   5.114  31.461   7.050
 8632POPC   C4A54378   5.049  31.488   7.350
 8632POPC   C1B54379   5.262  31.248   6.450
 8632POPC   C2B54380   5.227  31.291   6.750
 8632POPC   C3B54381   5.271  31.272   7.050
 8632POPC   C4B54382   5.194  31.219   7.350
 8633POPC   NC354383  15.985   1.976   5.550
 8633POPC   PO454384  16.005   2.016   5.850
 8633POPC   GL154385  15.926   2.013   6.150
 8633POPC   GL254386  15.834   1.953   6.150
 8633POPC   C1A54387  15.981   1.984   6.450
 8633POPC   D2A54388  15.967   2.033   6.750
 8633POPC   C3A54389  15.943   1.985   7.050
 8633POPC   C4A54390  15.957   1.957   7.350
 8633POPC   C1B54391  15.746   1.934   6.450
 8633POPC   C2B54392  15.705   1.957   6.750
 8633POPC   C3B54393  15.686   1.960   7.050
 8633POPC   C4B54394  15.703   1.938   7.350
 8634POPC   NC354395  36.175   8.191   5.550
 8634POPC   PO454396  36.085   8.195   5.850
 8634POPC   GL154397  36.080   8.217   6.150
 8634POPC   GL254398  36.229   8.166   6.150
 8634POPC   C1A54399  36.129   8.175   6.450
 8634POPC   D2A54400  36.135   8.225   6.750
 8634POPC   C3A54401  36.123   8.202   7.050
 8634POPC   C4A54402  36.094   8.193   7.350
 8634POPC   C1B54403  36.335   8.008   6.450
 8634POPC   C2B54404  36.318   8.072   6.750
 8634POPC   C3B54405  36.272   8.063   7.050
 8634POPC   C4B54406  36.300   8.026   7.350
 8635POPC   NC354407  35.314  25.999   5.550
 8635POPC   PO454408  35.353  26.048   5.850
 8635POPC   GL154409  35.371  26.089   6.150
 8635POPC   GL254410  35.290  25.980   6.150
 8635POPC   C1A54411  35.386  26.009   6.450
 8635POPC   D2A54412  35.305  26.040   6.750
 8635POPC   C3A54413  35.370  26.010   7.050
 8635POPC   C4A54414  35.318  26.037   7.350
 8635POPC   C1B54415  35.208  25.846   6.450
 8635POPC   C2B54416  35.196  25.788   6.750
 8635POPC   C3B54417  35.266  25.832   7.050
 8635POPC   C4B54418  35.196  25.796   7.350
 8636POPC   NC354419  14.398  31.497   5.550
 8636POPC   PO454420  14.356  31.465   5.850
 8636POPC   GL154421  14.440  31.454   6.150
 8636POPC   GL254422  14.481  31.470   6.150
 8636POPC   C1A54423  14.370  31.434   6.450
 8636POPC   D2A54424  14.402  31.454   6.750
 8636POPC   C3A54425  14.377  31.514   7.050
 8636POPC   C4A54426  14.403  31.519   7.350
 8636POPC   C1B54427  14.667  31.396   6.450
 8636POPC   C2B54428  14.651  31.420   6.750
 8636POPC   C3B54429  14.644  31.350   7.050
 8636POPC   C4B54430  14.626  31.394   7.350
 8637POPC   NC354431  29.102  43.843   5.550
 8637POPC   PO454432  29.109  43.863   5.850
 8637POPC   GL154433  29.130  43.844   6.150
 8637POPC   GL254434  29.128  44.058   6.150
 8637POPC   C1A54435  29.100  43.899   6.450
 8637POPC   D2A54436  29.156  43.837   6.750
 8637POPC   C3A54437  29.149  43.921   7.050
 8637POPC   C4A54438  29.107  43.860   7.350
 8637POPC   C1B54439  29.128  44.167   6.450
 8637POPC   C2B54440  29.127  44.121   6.750
 8637POPC   C3B54441  29.190  44.180   7.050
 8637POPC   C4B54442  29.188  44.179   7.350
 8638POPC   NC354443   4.330   9.722   5.550
 8638POPC   PO454444   4.283   9.728   5.850
 8638POPC   GL154445   4.297   9.788   6.150
 8638POPC   GL254446   4.165   9.781   6.150
 8638POPC   C1A54447   4.335   9.761   6.450
 8638POPC   D2A54448   4.349   9.699   6.750
 8638POPC   C3A54449   4.270   9.748   7.050
 8638POPC   C4A54450   4.357   9.735   7.350
 8638POPC   C1B54451   4.099   9.901   6.450
 8638POPC   C2B54452   4.098   9.839   6.750
 8638POPC   C3B54453   4.114   9.868   7.050
 8638POPC   C4B54454   4.122   9.835   7.350
 8639POPC   NC354455  21.416  20.637   5.550
 8639POPC   PO454456  21.341  20.615   5.850
 8639POPC   GL154457  21.337  20.645   6.150
 8639POPC   GL254458  21.283  20.504   6.150
 8639POPC   C1A54459  21.395  20.639   6.450
 8639POPC   D2A54460  21.421  20.638   6.750
 8639POPC   C3A54461  21.363  20.644   7.050
 8639POPC   C4A54462  21.341  20.653   7.350
 8639POPC   C1B54463  21.294  20.435   6.450
 8639POPC   C2B54464  21.269  20.427   6.750
 8639POPC   C3B54465  21.260  20.428   7.050
 8639POPC   C4B54466  21.252  20.396   7.350
 8640POPC   NC354467  30.706   6.636   5.550
 8640POPC   PO454468  30.661   6.596   5.850
 8640POPC   GL154469  30.730   6.673   6.150
 8640POPC   GL254470  30.683   6.528   6.150
 8640POPC   C1A54471  30.651   6.685   6.450
 8640POPC   D2A54472  30.668   6.639   6.750
 8640POPC   C3A54473  30.688   6.650   7.050
 8640POPC   C4A54474  30.738   6.684   7.350
 8640POPC   C1B54475  30.637   6.350   6.450
 8640POPC   C2B54476  30.656   6.402   6.750
 8640POPC   C3B54477  30.686   6.405   7.050
 8640POPC   C4B54478  30.696   6.436   7.350
 8641POPC   NC354479  39.984   8.223   5.550
 8641POPC   PO454480  39.982   8.237   5.850
 8641POPC   GL154481  39.989   8.193   6.150
 8641POPC   GL254482  39.978   8.097   6.150
 8641POPC   C1A54483  39.963   8.182   6.450
 8641POPC   D2A54484  40.020   8.244   6.750
 8641POPC   C3A54485  40.005   8.212   7.050
 8641POPC   C4A54486  39.991   8.216   7.350
 8641POPC   C1B54487  40.052   7.923   6.450
 8641POPC   C2B54488  40.074   7.958   6.750
 8641POPC   C3B54489  40.079   7.908   7.050
 8641POPC   C4B54490  40.055   7.963   7.350
 8642POPC   NC354491   1.250   5.074   5.550
 8642POPC   PO454492   1.191   5.060   5.850
 8642POPC   GL154493   1.246   5.104   6.150
 8642POPC   GL254494   1.139   5.156   6.150
 8642POPC   C1A54495   1.250   5.048   6.450
 8642POPC   D2A54496   1.232   5.130   6.750
 8642POPC   C3A54497   1.197   5.073   7.050
 8642POPC   C4A54498   1.188   5.063   7.350
 8642POPC   C1B54499   1.073   5.270   6.450
 8642POPC   C2B54500   1.045   5.271   6.750
 8642POPC   C3B54501   1.080   5.233   7.050
 8642POPC   C4B54502   1.049   5.246   7.350
 8643POPC   NC354503  42.378  19.814   5.550
 8643POPC   PO454504  42.289  19.833   5.850
 8643POPC   GL154505  42.323  19.878   6.150
 8643POPC   GL254506  42.456  19.808   6.150
 8643POPC   C1A54507  42.318  19.866   6.450
 8643POPC   D2A54508  42.305  19.840   6.750
 8643POPC   C3A54509  42.362  19.871   7.050
 8643POPC   C4A54510  42.346  19.850   7.350
 8643POPC   C1B54511  42.557  19.827   6.450
 8643POPC   C2B54512  42.558  19.870   6.750
 8643POPC   C3B54513  42.536  19.846   7.050
 8643POPC   C4B54514  42.577  19.814   7.350
 8644POPC   NC354515  31.461  13.613   5.550
 8644POPC   PO454516  31.461  13.585   5.850
 8644POPC   GL154517  31.445  13.668   6.150
 8644POPC   GL254518  31.386  13.691   6.150
 8644POPC   C1A54519  31.446  13.617   6.450
 8644POPC   D2A54520  31.485  13.601   6.750
 8644POPC   C3A54521  31.490  13.673   7.050
 8644POPC   C4A54522  31.452  13.658   7.350
 8644POPC   C1B54523  31.361  13.884   6.450
 8644POPC   C2B54524  31.370  13.895   6.750
 8644POPC   C3B54525  31.315  13.865   7.050
 8644POPC   C4B54526  31.357  13.833   7.350
 8645POPC   NC354527   1.228  19.801   5.550
 8645POPC   PO454528   1.170  19.818   5.850
 8645POPC   GL154529   1.240  19.873   6.150
 8645POPC   GL254530   1.352  19.876   6.150
 8645POPC   C1A54531   1.166  19.844   6.450
 8645POPC   D2A54532   1.168  19.824   6.750
 8645POPC   C3A54533   1.173  19.793   7.050
 8645POPC   C4A54534   1.224  19.849   7.350
 8645POPC   C1B54535   1.403  19.963   6.450
 8645POPC   C2B54536   1.424  19.988   6.750
 8645POPC   C3B54537   1.471  19.948   7.050
 8645POPC   C4B54538   1.445  20.004   7.350
 8646POPC   NC354539   5.076  33.782   5.550
 8646POPC   PO454540   5.085  33.809   5.850
 8646POPC   GL154541   5.079  33.830   6.150
 8646POPC   GL254542   4.948  33.862   6.150
 8646POPC   C1A54543   5.058  33.804   6.450
 8646POPC   D2A54544   5.125  33.818   6.750
 8646POPC   C3A54545   5.073  33.785   7.050
 8646POPC   C4A54546   5.084  33.772   7.350
 8646POPC   C1B54547   4.931  33.908   6.450
 8646POPC   C2B54548   4.839  33.910   6.750
 8646POPC   C3B54549   4.911  33.927   7.050
 8646POPC   C4B54550   4.866  33.898   7.350
 8647POPC   NC354551   5.819  16.743   5.550
 8647POPC   PO454552   5.822  16.723   5.850
 8647POPC   GL154553   5.858  16.733   6.150
 8647POPC   GL254554   5.721  16.748   6.150
 8647POPC   C1A54555   5.894  16.728   6.450
 8647POPC   D2A54556   5.824  16.696   6.750
 8647POPC   C3A54557   5.891  16.770   7.050
 8647POPC   C4A54558   5.849  16.777   7.350
 8647POPC   C1B54559   5.647  16.767   6.450
 8647POPC   C2B54560   5.613  16.768   6.750
 8647POPC   C3B54561   5.584  16.792   7.050
 8647POPC   C4B54562   5.610  16.786   7.350
 8648POPC   NC354563  21.371  39.221   5.550
 8648POPC   PO454564  21.410  39.220   5.850
 8648POPC   GL154565  21.362  39.234   6.150
 8648POPC   GL254566  21.394  39.330   6.150
 8648POPC   C1A54567  21.403  39.188   6.450
 8648POPC   D2A54568  21.375  39.203   6.750
 8648POPC   C3A54569  21.381  39.228   7.050
 8648POPC   C4A54570  21.403  39.186   7.350
 8648POPC   C1B54571  21.480  39.444   6.450
 8648POPC   C2B54572  21.480  39.452   6.750
 8648POPC   C3B54573  21.508  39.496   7.050
 8648POPC   C4B54574  21.449  39.496   7.350
 8649POPC   NC354575  22.938   4.364   5.550
 8649POPC   PO454576  22.933   4.324   5.850
 8649POPC   GL154577  22.951   4.293   6.150
 8649POPC   GL254578  23.016   4.348   6.150
 8649POPC   C1A54579  22.903   4.350   6.450
 8649POPC   D2A54580  22.981   4.289   6.750
 8649POPC   C3A54581  22.952   4.290   7.050
 8649POPC   C4A54582  22.983   4.307   7.350
 8649POPC   C1B54583  23.230   4.357   6.450
 8649POPC   C2B54584  23.229   4.368   6.750
 8649POPC   C3B54585  23.133   4.412   7.050
 8649POPC   C4B54586  23.143   4.359   7.350
 8650POPC   NC354587  43.155   8.149   5.550
 8650POPC   PO454588  43.112   8.223   5.850
 8650POPC   GL154589  43.159   8.191   6.150
 8650POPC   GL254590  43.019   8.103   6.150
 8650POPC   C1A54591  43.121   8.200   6.450
 8650POPC   D2A54592  43.148   8.148   6.750
 8650POPC   C3A54593  43.127   8.238   7.050
 8650POPC   C4A54594  43.147   8.194   7.350
 8650POPC   C1B54595  42.946   8.066   6.450
 8650POPC   C2B54596  42.973   7.975   6.750
 8650POPC   C3B54597  42.915   8.055   7.050
 8650POPC   C4B54598  42.975   8.033   7.350
 8651POPC   NC354599  22.978  42.371   5.550
 8651POPC   PO454600  22.980  42.314   5.850
 8651POPC   GL154601  22.948  42.324   6.150
 8651POPC   GL254602  23.059  42.243   6.150
 8651POPC   C1A54603  22.956  42.304   6.450
 8651POPC   D2A54604  22.935  42.381   6.750
 8651POPC   C3A54605  22.966  42.294   7.050
 8651POPC   C4A54606  22.906  42.369   7.350
 8651POPC   C1B54607  23.097  42.145   6.450
 8651POPC   C2B54608  23.130  42.152   6.750
 8651POPC   C3B54609  23.085  42.194   7.050
 8651POPC   C4B54610  23.101  42.189   7.350
 8652POPC   NC354611  22.909  43.067   5.550
 8652POPC   PO454612  22.944  43.077   5.850
 8652POPC   GL154613  22.966  43.136   6.150
 8652POPC   GL254614  23.041  43.095   6.150
 8652POPC   C1A54615  22.898  43.143   6.450
 8652POPC   D2A54616  22.945  43.143   6.750
 8652POPC   C3A54617  22.950  43.116   7.050
 8652POPC   C4A54618  22.905  43.128   7.350
 8652POPC   C1B54619  23.166  43.122   6.450
 8652POPC   C2B54620  23.205  43.117   6.750
 8652POPC   C3B54621  23.175  43.094   7.050
 8652POPC   C4B54622  23.205  43.114   7.350
 8653POPC   NC354623  12.101  14.390   5.550
 8653POPC   PO454624  12.096  14.427   5.850
 8653POPC   GL154625  12.074  14.410   6.150
 8653POPC   GL254626  12.066  14.260   6.150
 8653POPC   C1A54627  12.116  14.369   6.450
 8653POPC   D2A54628  12.077  14.372   6.750
 8653POPC   C3A54629  12.050  14.377   7.050
 8653POPC   C4A54630  12.046  14.359   7.350
 8653POPC   C1B54631  11.961  14.136   6.450
 8653POPC   C2B54632  11.949  14.196   6.750
 8653POPC   C3B54633  12.000  14.143   7.050
 8653POPC   C4B54634  11.989  14.172   7.350
 8654POPC   NC354635  12.809  16.686   5.550
 8654POPC   PO454636  12.823  16.760   5.850
 8654POPC   GL154637  12.828  16.703   6.150
 8654POPC   GL254638  12.958  16.815   6.150
 8654POPC   C1A54639  12.893  16.698   6.450
 8654POPC   D2A54640  12.895  16.694   6.750
 8654POPC   C3A54641  12.841  16.746   7.050
 8654POPC   C4A54642  12.858  16.708   7.350
 8654POPC   C1B54643  13.105  16.807   6.450
 8654POPC   C2B54644  13.121  16.762   6.750
 8654POPC   C3B54645  13.079  16.764   7.050
 8654POPC   C4B54646  13.064  16.785   7.350
 8655POPC   NC354647  33.830  28.372   5.550
 8655POPC   PO454648  33.818  28.341   5.850
 8655POPC   GL154649  33.819  28.401   6.150
 8655POPC   GL254650  33.791  28.446   6.150
 8655POPC   C1A54651  33.778  28.379   6.450
 8655POPC   D2A54652  33.771  28.411   6.750
 8655POPC   C3A54653  33.839  28.415   7.050
 8655POPC   C4A54654  33.827  28.356   7.350
 8655POPC   C1B54655  33.770  28.594   6.450
 8655POPC   C2B54656  33.683  28.618   6.750
 8655POPC   C3B54657  33.759  28.580   7.050
 8655POPC   C4B54658  33.744  28.584   7.350
 8656POPC   NC354659   3.580  30.692   5.550
 8656POPC   PO454660   3.580  30.699   5.850
 8656POPC   GL154661   3.512  30.730   6.150
 8656POPC   GL254662   3.539  30.590   6.150
 8656POPC   C1A54663   3.547  30.712   6.450
 8656POPC   D2A54664   3.566  30.726   6.750
 8656POPC   C3A54665   3.526  30.684   7.050
 8656POPC   C4A54666   3.523  30.705   7.350
 8656POPC   C1B54667   3.432  30.421   6.450
 8656POPC   C2B54668   3.485  30.414   6.750
 8656POPC   C3B54669   3.480  30.436   7.050
 8656POPC   C4B54670   3.440  30.488   7.350
 8657POPC   NC354671  40.739  22.205   5.550
 8657POPC   PO454672  40.788  22.118   5.850
 8657POPC   GL154673  40.733  22.146   6.150
 8657POPC   GL254674  40.695  22.140   6.150
 8657POPC   C1A54675  40.790  22.155   6.450
 8657POPC   D2A54676  40.829  22.161   6.750
 8657POPC   C3A54677  40.786  22.200   7.050
 8657POPC   C4A54678  40.764  22.156   7.350
 8657POPC   C1B54679  40.565  22.191   6.450
 8657POPC   C2B54680  40.536  22.174   6.750
 8657POPC   C3B54681  40.497  22.222   7.050
 8657POPC   C4B54682  40.556  22.155   7.350
 8658POPC   NC354683  12.026  19.033   5.550
 8658POPC   PO454684  12.059  19.019   5.850
 8658POPC   GL154685  12.100  19.102   6.150
 8658POPC   GL254686  12.058  19.181   6.150
 8658POPC   C1A54687  12.108  19.043   6.450
 8658POPC   D2A54688  12.030  19.037   6.750
 8658POPC   C3A54689  12.073  19.102   7.050
 8658POPC   C4A54690  12.059  19.035   7.350
 8658POPC   C1B54691  12.040  19.271   6.450
 8658POPC   C2B54692  11.992  19.264   6.750
 8658POPC   C3B54693  12.026  19.294   7.050
 8658POPC   C4B54694  11.981  19.339   7.350
 8659POPC   NC354695  39.184   1.230   5.550
 8659POPC   PO454696  39.188   1.169   5.850
 8659POPC   GL154697  39.232   1.258   6.150
 8659POPC   GL254698  39.183   1.124   6.150
 8659POPC   C1A54699  39.280   1.262   6.450
 8659POPC   D2A54700  39.232   1.231   6.750
 8659POPC   C3A54701  39.229   1.247   7.050
 8659POPC   C4A54702  39.222   1.249   7.350
 8659POPC   C1B54703  39.158   0.974   6.450
 8659POPC   C2B54704  39.105   0.991   6.750
 8659POPC   C3B54705  39.117   0.996   7.050
 8659POPC   C4B54706  39.143   0.976   7.350
 8660POPC   NC354707  15.997   3.522   5.550
 8660POPC   PO454708  15.989   3.493   5.850
 8660POPC   GL154709  16.004   3.563   6.150
 8660POPC   GL254710  16.018   3.685   6.150
 8660POPC   C1A54711  15.998   3.584   6.450
 8660POPC   D2A54712  15.939   3.555   6.750
 8660POPC   C3A54713  15.980   3.554   7.050
 8660POPC   C4A54714  15.978   3.513   7.350
 8660POPC   C1B54715  16.088   3.802   6.450
 8660POPC   C2B54716  16.077   3.776   6.750
 8660POPC   C3B54717  16.125   3.752   7.050
 8660POPC   C4B54718  16.118   3.745   7.350
 8661POPC   NC354719  37.700   6.667   5.550
 8661POPC   PO454720  37.702   6.613   5.850
 8661POPC   GL154721  37.652   6.621   6.150
 8661POPC   GL254722  37.757   6.561   6.150
 8661POPC   C1A54723  37.718   6.673   6.450
 8661POPC   D2A54724  37.644   6.603   6.750
 8661POPC   C3A54725  37.692   6.603   7.050
 8661POPC   C4A54726  37.674   6.613   7.350
 8661POPC   C1B54727  37.919   6.554   6.450
 8661POPC   C2B54728  37.872   6.602   6.750
 8661POPC   C3B54729  37.875   6.574   7.050
 8661POPC   C4B54730  37.910   6.595   7.350
 8662POPC   NC354731  34.541   2.776   5.550
 8662POPC   PO454732  34.591   2.813   5.850
 8662POPC   GL154733  34.526   2.790   6.150
 8662POPC   GL254734  34.696   2.874   6.150
 8662POPC   C1A54735  34.616   2.770   6.450
 8662POPC   D2A54736  34.573   2.719   6.750
 8662POPC   C3A54737  34.545   2.775   7.050
 8662POPC   C4A54738  34.566   2.772   7.350
 8662POPC   C1B54739  34.807   2.913   6.450
 8662POPC   C2B54740  34.764   2.870   6.750
 8662POPC   C3B54741  34.754   2.930   7.050
 8662POPC   C4B54742  34.803   2.922   7.350
 8663POPC   NC354743  18.291  32.235   5.550
 8663POPC   PO454744  18.327  32.278   5.850
 8663POPC   GL154745  18.291  32.245   6.150
 8663POPC   GL254746  18.352  32.318   6.150
 8663POPC   C1A54747  18.305  32.217   6.450
 8663POPC   D2A54748  18.331  32.269   6.750
 8663POPC   C3A54749  18.282  32.252   7.050
 8663POPC   C4A54750  18.328  32.235   7.350
 8663POPC   C1B54751  18.487  32.327   6.450
 8663POPC   C2B54752  18.485  32.362   6.750
 8663POPC   C3B54753  18.560  32.368   7.050
 8663POPC   C4B54754  18.541  32.285   7.350
 8664POPC   NC354755  33.847  29.880   5.550
 8664POPC   PO454756  33.846  29.958   5.850
 8664POPC   GL154757  33.814  29.875   6.150
 8664POPC   GL254758  33.772  29.779   6.150
 8664POPC   C1A54759  33.790  29.905   6.450
 8664POPC   D2A54760  33.779  29.874   6.750
 8664POPC   C3A54761  33.765  29.946   7.050
 8664POPC   C4A54762  33.822  29.912   7.350
 8664POPC   C1B54763  33.768  29.674   6.450
 8664POPC   C2B54764  33.776  29.678   6.750
 8664POPC   C3B54765  33.734  29.699   7.050
 8664POPC   C4B54766  33.732  29.642   7.350
 8665POPC   NC354767  36.945   2.745   5.550
 8665POPC   PO454768  36.889   2.764   5.850
 8665POPC   GL154769  36.854   2.740   6.150
 8665POPC   GL254770  36.929   2.679   6.150
 8665POPC   C1A54771  36.853   2.796   6.450
 8665POPC   D2A54772  36.928   2.767   6.750
 8665POPC   C3A54773  36.873   2.815   7.050
 8665POPC   C4A54774  36.951   2.801   7.350
 8665POPC   C1B54775  37.007   2.593   6.450
 8665POPC   C2B54776  37.074   2.596   6.750
 8665POPC   C3B54777  37.000   2.530   7.050
 8665POPC   C4B54778  37.051   2.550   7.350
 8666POPC   NC354779  14.378  25.216   5.550
 8666POPC   PO454780  14.419  25.299   5.850
 8666POPC   GL154781  14.432  25.235   6.150
 8666POPC   GL254782  14.529  25.280   6.150
 8666POPC   C1A54783  14.438  25.279   6.450
 8666POPC   D2A54784  14.371  25.299   6.750
 8666POPC   C3A54785  14.409  25.313   7.050
 8666POPC   C4A54786  14.356  25.246   7.350
 8666POPC   C1B54787  14.681  25.153   6.450
 8666POPC   C2B54788  14.632  25.175   6.750
 8666POPC   C3B54789  14.642  25.164   7.050
 8666POPC   C4B54790  14.636  25.173   7.350
 8667POPC   NC354791  22.209  22.138   5.550
 8667POPC   PO454792  22.160  22.158   5.850
 8667POPC   GL154793  22.200  22.131   6.150
 8667POPC   GL254794  22.115  22.243   6.150
 8667POPC   C1A54795  22.166  22.127   6.450
 8667POPC   D2A54796  22.201  22.139   6.750
 8667POPC   C3A54797  22.208  22.203   7.050
 8667POPC   C4A54798  22.140  22.181   7.350
 8667POPC   C1B54799  22.088  22.416   6.450
 8667POPC   C2B54800  22.056  22.413   6.750
 8667POPC   C3B54801  22.085  22.407   7.050
 8667POPC   C4B54802  22.046  22.375   7.350
 8668POPC   NC354803  23.761  35.353   5.550
 8668POPC   PO454804  23.664  35.339   5.850
 8668POPC   GL154805  23.697  35.349   6.150
 8668POPC   GL254806  23.653  35.280   6.150
 8668POPC   C1A54807  23.665  35.311   6.450
 8668POPC   D2A54808  23.711  35.316   6.750
 8668POPC   C3A54809  23.737  35.386   7.050
 8668POPC   C4A54810  23.670  35.360   7.350
 8668POPC   C1B54811  23.603  35.107   6.450
 8668POPC   C2B54812  23.563  35.126   6.750
 8668POPC   C3B54813  23.564  35.138   7.050
 8668POPC   C4B54814  23.551  35.184   7.350
 8669POPC   NC354815  19.100   1.262   5.550
 8669POPC   PO454816  19.096   1.176   5.850
 8669POPC   GL154817  19.101   1.203   6.150
 8669POPC   GL254818  18.930   1.164   6.150
 8669POPC   C1A54819  19.106   1.237   6.450
 8669POPC   D2A54820  19.029   1.238   6.750
 8669POPC   C3A54821  19.047   1.182   7.050
 8669POPC   C4A54822  19.050   1.183   7.350
 8669POPC   C1B54823  18.785   1.169   6.450
 8669POPC   C2B54824  18.809   1.251   6.750
 8669POPC   C3B54825  18.817   1.242   7.050
 8669POPC   C4B54826  18.853   1.166   7.350
 8670POPC   NC354827   3.536  44.680   5.550
 8670POPC   PO454828   3.538  44.656   5.850
 8670POPC   GL154829   3.560  44.624   6.150
 8670POPC   GL254830   3.613  44.566   6.150
 8670POPC   C1A54831   3.507  44.658   6.450
 8670POPC   D2A54832   3.579  44.650   6.750
 8670POPC   C3A54833   3.575  44.668   7.050
 8670POPC   C4A54834   3.561  44.680   7.350
 8670POPC   C1B54835   3.753  44.573   6.450
 8670POPC   C2B54836   3.731  44.506   6.750
 8670POPC   C3B54837   3.806  44.521   7.050
 8670POPC   C4B54838   3.736  44.485   7.350
 8671POPC   NC354839  40.812  31.502   5.550
 8671POPC   PO454840  40.734  31.465   5.850
 8671POPC   GL154841  40.820  31.469   6.150
 8671POPC   GL254842  40.842  31.370   6.150
 8671POPC   C1A54843  40.827  31.482   6.450
 8671POPC   D2A54844  40.828  31.480   6.750
 8671POPC   C3A54845  40.734  31.472   7.050
 8671POPC   C4A54846  40.793  31.474   7.350
 8671POPC   C1B54847  40.997  31.312   6.450
 8671POPC   C2B54848  41.002  31.324   6.750
 8671POPC   C3B54849  40.994  31.297   7.050
 8671POPC   C4B54850  40.998  31.322   7.350
 8672POPC   NC354851   5.860  37.683   5.550
 8672POPC   PO454852   5.884  37.715   5.850
 8672POPC   GL154853   5.903  37.640   6.150
 8672POPC   GL254854   5.962  37.538   6.150
 8672POPC   C1A54855   5.837  37.662   6.450
 8672POPC   D2A54856   5.870  37.679   6.750
 8672POPC   C3A54857   5.846  37.648   7.050
 8672POPC   C4A54858   5.869  37.690   7.350
 8672POPC   C1B54859   5.934  37.472   6.450
 8672POPC   C2B54860   5.938  37.439   6.750
 8672POPC   C3B54861   5.929  37.485   7.050
 8672POPC   C4B54862   5.956  37.490   7.350
 8673POPC   NC354863  12.086  41.543   5.550
 8673POPC   PO454864  12.051  41.540   5.850
 8673POPC   GL154865  12.115  41.554   6.150
 8673POPC   GL254866  11.924  41.513   6.150
 8673POPC   C1A54867  12.082  41.529   6.450
 8673POPC   D2A54868  12.089  41.585   6.750
 8673POPC   C3A54869  12.084  41.586   7.050
 8673POPC   C4A54870  12.080  41.534   7.350
 8673POPC   C1B54871  11.879  41.514   6.450
 8673POPC   C2B54872  11.850  41.516   6.750
 8673POPC   C3B54873  11.837  41.443   7.050
 8673POPC   C4B54874  11.789  41.514   7.350
 8674POPC   NC354875  24.471  26.814   5.550
 8674POPC   PO454876  24.473  26.795   5.850
 8674POPC   GL154877  24.511  26.852   6.150
 8674POPC   GL254878  24.483  26.914   6.150
 8674POPC   C1A54879  24.445  26.835   6.450
 8674POPC   D2A54880  24.509  26.839   6.750
 8674POPC   C3A54881  24.493  26.788   7.050
 8674POPC   C4A54882  24.489  26.846   7.350
 8674POPC   C1B54883  24.581  27.044   6.450
 8674POPC   C2B54884  24.568  27.017   6.750
 8674POPC   C3B54885  24.599  27.084   7.050
 8674POPC   C4B54886  24.529  27.009   7.350
 8675POPC   NC354887  43.111   1.179   5.550
 8675POPC   PO454888  43.150   1.227   5.850
 8675POPC   GL154889  43.090   1.186   6.150
 8675POPC   GL254890  43.257   1.262   6.150
 8675POPC   C1A54891  43.103   1.213   6.450
 8675POPC   D2A54892  43.093   1.188   6.750
 8675POPC   C3A54893  43.135   1.261   7.050
 8675POPC   C4A54894  43.148   1.176   7.350
 8675POPC   C1B54895  43.352   1.326   6.450
 8675POPC   C2B54896  43.378   1.342   6.750
 8675POPC   C3B54897  43.344   1.337   7.050
 8675POPC   C4B54898  43.306   1.305   7.350
 8676POPC   NC354899  35.351   0.392   5.550
 8676POPC   PO454900  35.334   0.473   5.850
 8676POPC   GL154901  35.399   0.392   6.150
 8676POPC   GL254902  35.324   0.601   6.150
 8676POPC   C1A54903  35.323   0.480   6.450
 8676POPC   D2A54904  35.348   0.470   6.750
 8676POPC   C3A54905  35.322   0.408   7.050
 8676POPC   C4A54906  35.318   0.411   7.350
 8676POPC   C1B54907  35.267   0.698   6.450
 8676POPC   C2B54908  35.324   0.649   6.750
 8676POPC   C3B54909  35.263   0.686   7.050
 8676POPC   C4B54910  35.274   0.678   7.350
 8677POPC   NC354911  25.258  37.631   5.550
 8677POPC   PO454912  25.228  37.634   5.850
 8677POPC   GL154913  25.313  37.671   6.150
 8677POPC   GL254914  25.344  37.568   6.150
 8677POPC   C1A54915  25.218  37.655   6.450
 8677POPC   D2A54916  25.257  37.679   6.750
 8677POPC   C3A54917  25.304  37.637   7.050
 8677POPC   C4A54918  25.300  37.684   7.350
 8677POPC   C1B54919  25.283  37.479   6.450
 8677POPC   C2B54920  25.286  37.485   6.750
 8677POPC   C3B54921  25.373  37.437   7.050
 8677POPC   C4B54922  25.313  37.469   7.350
 8678POPC   NC354923  34.582   4.355   5.550
 8678POPC   PO454924  34.537   4.314   5.850
 8678POPC   GL154925  34.546   4.319   6.150
 8678POPC   GL254926  34.619   4.189   6.150
 8678POPC   C1A54927  34.562   4.307   6.450
 8678POPC   D2A54928  34.615   4.316   6.750
 8678POPC   C3A54929  34.564   4.284   7.050
 8678POPC   C4A54930  34.625   4.277   7.350
 8678POPC   C1B54931  34.533   4.029   6.450
 8678POPC   C2B54932  34.546   4.097   6.750
 8678POPC   C3B54933  34.578   4.070   7.050
 8678POPC   C4B54934  34.561   4.084   7.350
 8679POPC   NC354935  18.234   2.013   5.550
 8679POPC   PO454936  18.314   2.029   5.850
 8679POPC   GL154937  18.290   1.984   6.150
 8679POPC   GL254938  18.383   1.952   6.150
 8679POPC   C1A54939  18.250   1.978   6.450
 8679POPC   D2A54940  18.282   2.013   6.750
 8679POPC   C3A54941  18.266   2.003   7.050
 8679POPC   C4A54942  18.278   1.976   7.350
 8679POPC   C1B54943  18.554   1.957   6.450
 8679POPC   C2B54944  18.570   2.056   6.750
 8679POPC   C3B54945  18.538   2.045   7.050
 8679POPC   C4B54946  18.543   2.038   7.350
 8680POPC   NC354947  13.626  30.652   5.550
 8680POPC   PO454948  13.631  30.698   5.850
 8680POPC   GL154949  13.672  30.697   6.150
 8680POPC   GL254950  13.507  30.650   6.150
 8680POPC   C1A54951  13.581  30.659   6.450
 8680POPC   D2A54952  13.629  30.694   6.750
 8680POPC   C3A54953  13.603  30.702   7.050
 8680POPC   C4A54954  13.627  30.715   7.350
 8680POPC   C1B54955  13.393  30.704   6.450
 8680POPC   C2B54956  13.374  30.680   6.750
 8680POPC   C3B54957  13.418  30.692   7.050
 8680POPC   C4B54958  13.421  30.682   7.350
 8681POPC   NC354959  30.732  20.583   5.550
 8681POPC   PO454960  30.672  20.629   5.850
 8681POPC   GL154961  30.739  20.590   6.150
 8681POPC   GL254962  30.767  20.768   6.150
 8681POPC   C1A54963  30.743  20.566   6.450
 8681POPC   D2A54964  30.728  20.568   6.750
 8681POPC   C3A54965  30.743  20.654   7.050
 8681POPC   C4A54966  30.649  20.610   7.350
 8681POPC   C1B54967  30.794  20.816   6.450
 8681POPC   C2B54968  30.787  20.865   6.750
 8681POPC   C3B54969  30.796  20.817   7.050
 8681POPC   C4B54970  30.820  20.819   7.350
 8682POPC   NC354971  29.104  12.122   5.550
 8682POPC   PO454972  29.147  12.069   5.850
 8682POPC   GL154973  29.154  12.053   6.150
 8682POPC   GL254974  29.254  12.172   6.150
 8682POPC   C1A54975  29.109  12.041   6.450
 8682POPC   D2A54976  29.165  12.102   6.750
 8682POPC   C3A54977  29.155  12.094   7.050
 8682POPC   C4A54978  29.163  12.038   7.350
 8682POPC   C1B54979  29.368  12.271   6.450
 8682POPC   C2B54980  29.363  12.253   6.750
 8682POPC   C3B54981  29.362  12.278   7.050
 8682POPC   C4B54982  29.295  12.256   7.350
 8683POPC   NC354983  38.496   9.762   5.550
 8683POPC   PO454984  38.501   9.698   5.850
 8683POPC   GL154985  38.434   9.791   6.150
 8683POPC   GL254986  38.338   9.751   6.150
 8683POPC   C1A54987  38.498   9.698   6.450
 8683POPC   D2A54988  38.423   9.717   6.750
 8683POPC   C3A54989  38.495   9.751   7.050
 8683POPC   C4A54990  38.468   9.712   7.350
 8683POPC   C1B54991  38.269   9.844   6.450
 8683POPC   C2B54992  38.263   9.821   6.750
 8683POPC   C3B54993  38.247   9.831   7.050
 8683POPC   C4B54994  38.269   9.883   7.350
 8684POPC   NC354995  42.311   2.812   5.550
 8684POPC   PO454996  42.323   2.759   5.850
 8684POPC   GL154997  42.307   2.741   6.150
 8684POPC   GL254998  42.474   2.673   6.150
 8684POPC   C1A54999  42.384   2.763   6.450
 8684POPC   D2A55000  42.315   2.741   6.750
 8684POPC   C3A55001  42.365   2.720   7.050
 8684POPC   C4A55002  42.312   2.747   7.350
 8684POPC   C1B55003  42.541   2.694   6.450
 8684POPC   C2B55004  42.611   2.636   6.750
 8684POPC   C3B55005  42.537   2.640   7.050
 8684POPC   C4B55006  42.531   2.683   7.350
 8685POPC   NC355007  30.660  39.202   5.550
 8685POPC   PO455008  30.697  39.197   5.850
 8685POPC   GL155009  30.705  39.254   6.150
 8685POPC   GL255010  30.670  39.327   6.150
 8685POPC   C1A55011  30.708  39.218   6.450
 8685POPC   D2A55012  30.725  39.211   6.750
 8685POPC   C3A55013  30.745  39.217   7.050
 8685POPC   C4A55014  30.671  39.191   7.350
 8685POPC   C1B55015  30.628  39.495   6.450
 8685POPC   C2B55016  30.598  39.458   6.750
 8685POPC   C3B55017  30.563  39.427   7.050
 8685POPC   C4B55018  30.546  39.468   7.350
 8686POPC   NC355019  27.575  37.727   5.550
 8686POPC   PO455020  27.604  37.641   5.850
 8686POPC   GL155021  27.581  37.712   6.150
 8686POPC   GL255022  27.713  37.637   6.150
 8686POPC   C1A55023  27.618  37.665   6.450
 8686POPC   D2A55024  27.548  37.660   6.750
 8686POPC   C3A55025  27.560  37.658   7.050
 8686POPC   C4A55026  27.624  37.666   7.350
 8686POPC   C1B55027  27.759  37.562   6.450
 8686POPC   C2B55028  27.785  37.560   6.750
 8686POPC   C3B55029  27.836  37.520   7.050
 8686POPC   C4B55030  27.773  37.565   7.350
 8687POPC   NC355031  30.713  12.045   5.550
 8687POPC   PO455032  30.694  12.088   5.850
 8687POPC   GL155033  30.727  12.083   6.150
 8687POPC   GL255034  30.787  12.161   6.150
 8687POPC   C1A55035  30.718  12.080   6.450
 8687POPC   D2A55036  30.739  12.090   6.750
 8687POPC   C3A55037  30.745  12.081   7.050
 8687POPC   C4A55038  30.667  12.095   7.350
 8687POPC   C1B55039  30.889  12.263   6.450
 8687POPC   C2B55040  30.882  12.232   6.750
 8687POPC   C3B55041  30.863  12.200   7.050
 8687POPC   C4B55042  30.890  12.198   7.350
 8688POPC   NC355043  11.320  22.186   5.550
 8688POPC   PO455044  11.268  22.206   5.850
 8688POPC   GL155045  11.277  22.170   6.150
 8688POPC   GL255046  11.346  22.014   6.150
 8688POPC   C1A55047  11.279  22.121   6.450
 8688POPC   D2A55048  11.275  22.151   6.750
 8688POPC   C3A55049  11.309  22.151   7.050
 8688POPC   C4A55050  11.337  22.159   7.350
 8688POPC   C1B55051  11.355  21.961   6.450
 8688POPC   C2B55052  11.402  21.965   6.750
 8688POPC   C3B55053  11.417  21.954   7.050
 8688POPC   C4B55054  11.325  21.878   7.350
 8689POPC   NC355055  33.843   5.131   5.550
 8689POPC   PO455056  33.772   5.098   5.850
 8689POPC   GL155057  33.844   5.127   6.150
 8689POPC   GL255058  33.915   5.108   6.150
 8689POPC   C1A55059  33.825   5.108   6.450
 8689POPC   D2A55060  33.817   5.082   6.750
 8689POPC   C3A55061  33.757   5.130   7.050
 8689POPC   C4A55062  33.776   5.109   7.350
 8689POPC   C1B55063  34.079   5.145   6.450
 8689POPC   C2B55064  34.050   5.169   6.750
 8689POPC   C3B55065  34.026   5.124   7.050
 8689POPC   C4B55066  34.023   5.101   7.350
 8690POPC   NC355067  14.411  27.577   5.550
 8690POPC   PO455068  14.367  27.607   5.850
 8690POPC   GL155069  14.371  27.574   6.150
 8690POPC   GL255070  14.436  27.676   6.150
 8690POPC   C1A55071  14.381  27.637   6.450
 8690POPC   D2A55072  14.413  27.613   6.750
 8690POPC   C3A55073  14.375  27.586   7.050
 8690POPC   C4A55074  14.396  27.621   7.350
 8690POPC   C1B55075  14.595  27.835   6.450
 8690POPC   C2B55076  14.523  27.803   6.750
 8690POPC   C3B55077  14.606  27.832   7.050
 8690POPC   C4B55078  14.514  27.828   7.350
 8691POPC   NC355079   5.050  17.521   5.550
 8691POPC   PO455080   5.116  17.503   5.850
 8691POPC   GL155081   5.087  17.457   6.150
 8691POPC   GL255082   4.964  17.393   6.150
 8691POPC   C1A55083   5.065  17.466   6.450
 8691POPC   D2A55084   5.054  17.521   6.750
 8691POPC   C3A55085   5.079  17.459   7.050
 8691POPC   C4A55086   5.090  17.535   7.350
 8691POPC   C1B55087   4.896  17.280   6.450
 8691POPC   C2B55088   4.879  17.316   6.750
 8691POPC   C3B55089   4.949  17.274   7.050
 8691POPC   C4B55090   4.878  17.318   7.350
 8692POPC   NC355091  41.577   5.833   5.550
 8692POPC   PO455092  41.596   5.848   5.850
 8692POPC   GL155093  41.568   5.843   6.150
 8692POPC   GL255094  41.512   5.973   6.150
 8692POPC   C1A55095  41.591   5.827   6.450
 8692POPC   D2A55096  41.552   5.898   6.750
 8692POPC   C3A55097  41.550   5.821   7.050
 8692POPC   C4A55098  41.597   5.865   7.350
 8692POPC   C1B55099  41.382   5.990   6.450
 8692POPC   C2B55100  41.342   6.033   6.750
 8692POPC   C3B55101  41.325   6.059   7.050
 8692POPC   C4B55102  41.412   5.992   7.350
 8693POPC   NC355103  29.102  31.431   5.550
 8693POPC   PO455104  29.128  31.463   5.850
 8693POPC   GL155105  29.166  31.481   6.150
 8693POPC   GL255106  28.986  31.470   6.150
 8693POPC   C1A55107  29.099  31.458   6.450
 8693POPC   D2A55108  29.107  31.480   6.750
 8693POPC   C3A55109  29.107  31.458   7.050
 8693POPC   C4A55110  29.193  31.509   7.350
 8693POPC   C1B55111  28.903  31.398   6.450
 8693POPC   C2B55112  28.865  31.418   6.750
 8693POPC   C3B55113  28.921  31.438   7.050
 8693POPC   C4B55114  28.887  31.458   7.350
 8694POPC   NC355115  20.568  19.051   5.550
 8694POPC   PO455116  20.567  19.088   5.850
 8694POPC   GL155117  20.649  19.016   6.150
 8694POPC   GL255118  20.501  18.986   6.150
 8694POPC   C1A55119  20.635  19.019   6.450
 8694POPC   D2A55120  20.637  19.014   6.750
 8694POPC   C3A55121  20.587  19.108   7.050
 8694POPC   C4A55122  20.611  19.046   7.350
 8694POPC   C1B55123  20.368  19.022   6.450
 8694POPC   C2B55124  20.409  19.019   6.750
 8694POPC   C3B55125  20.409  19.045   7.050
 8694POPC   C4B55126  20.405  18.964   7.350
 8695POPC   NC355127   1.941  44.643   5.550
 8695POPC   PO455128   2.039  44.711   5.850
 8695POPC   GL155129   1.985  44.674   6.150
 8695POPC   GL255130   1.990  44.550   6.150
 8695POPC   C1A55131   2.039  44.639   6.450
 8695POPC   D2A55132   2.006  44.639   6.750
 8695POPC   C3A55133   1.979  44.649   7.050
 8695POPC   C4A55134   2.031  44.644   7.350
 8695POPC   C1B55135   2.055  44.454   6.450
 8695POPC   C2B55136   2.046  44.458   6.750
 8695POPC   C3B55137   2.055  44.430   7.050
 8695POPC   C4B55138   2.030  44.458   7.350
 8696POPC   NC355139  20.636  39.978   5.550
 8696POPC   PO455140  20.622  40.001   5.850
 8696POPC   GL155141  20.612  40.022   6.150
 8696POPC   GL255142  20.582  40.109   6.150
 8696POPC   C1A55143  20.581  40.004   6.450
 8696POPC   D2A55144  20.636  39.983   6.750
 8696POPC   C3A55145  20.582  40.035   7.050
 8696POPC   C4A55146  20.570  39.972   7.350
 8696POPC   C1B55147  20.434  40.245   6.450
 8696POPC   C2B55148  20.437  40.246   6.750
 8696POPC   C3B55149  20.419  40.232   7.050
 8696POPC   C4B55150  20.464  40.194   7.350
 8697POPC   NC355151   6.631   0.407   5.550
 8697POPC   PO455152   6.685   0.483   5.850
 8697POPC   GL155153   6.628   0.461   6.150
 8697POPC   GL255154   6.748   0.339   6.150
 8697POPC   C1A55155   6.637   0.430   6.450
 8697POPC   D2A55156   6.686   0.468   6.750
 8697POPC   C3A55157   6.661   0.427   7.050
 8697POPC   C4A55158   6.650   0.465   7.350
 8697POPC   C1B55159   6.841   0.379   6.450
 8697POPC   C2B55160   6.849   0.364   6.750
 8697POPC   C3B55161   6.888   0.330   7.050
 8697POPC   C4B55162   6.887   0.340   7.350
 8698POPC   NC355163  22.156  21.363   5.550
 8698POPC   PO455164  22.152  21.436   5.850
 8698POPC   GL155165  22.196  21.399   6.150
 8698POPC   GL255166  22.213  21.296   6.150
 8698POPC   C1A55167  22.195  21.391   6.450
 8698POPC   D2A55168  22.141  21.378   6.750
 8698POPC   C3A55169  22.211  21.407   7.050
 8698POPC   C4A55170  22.200  21.392   7.350
 8698POPC   C1B55171  22.309  21.168   6.450
 8698POPC   C2B55172  22.321  21.233   6.750
 8698POPC   C3B55173  22.378  21.215   7.050
 8698POPC   C4B55174  22.342  21.243   7.350
 8699POPC   NC355175  43.915  22.131   5.550
 8699POPC   PO455176  43.902  22.116   5.850
 8699POPC   GL155177  43.843  22.118   6.150
 8699POPC   GL255178  44.026  22.228   6.150
 8699POPC   C1A55179  43.861  22.142   6.450
 8699POPC   D2A55180  43.920  22.166   6.750
 8699POPC   C3A55181  43.911  22.132   7.050
 8699POPC   C4A55182  43.926  22.149   7.350
 8699POPC   C1B55183  44.086  22.279   6.450
 8699POPC   C2B55184  44.119  22.343   6.750
 8699POPC   C3B55185  44.062  22.345   7.050
 8699POPC   C4B55186  44.116  22.294   7.350
 8700POPC   NC355187   9.776  32.201   5.550
 8700POPC   PO455188   9.728  32.221   5.850
 8700POPC   GL155189   9.724  32.216   6.150
 8700POPC   GL255190   9.831  32.308   6.150
 8700POPC   C1A55191   9.712  32.284   6.450
 8700POPC   D2A55192   9.786  32.277   6.750
 8700POPC   C3A55193   9.778  32.296   7.050
 8700POPC   C4A55194   9.754  32.221   7.350
 8700POPC   C1B55195   9.914  32.440   6.450
 8700POPC   C2B55196   9.858  32.507   6.750
 8700POPC   C3B55197   9.931  32.455   7.050
 8700POPC   C4B55198   9.869  32.424   7.350
 8701POPC   NC355199  29.880  42.359   5.550
 8701POPC   PO455200  29.959  42.302   5.850
 8701POPC   GL155201  29.947  42.303   6.150
 8701POPC   GL255202  29.919  42.219   6.150
 8701POPC   C1A55203  29.930  42.329   6.450
 8701POPC   D2A55204  29.897  42.293   6.750
 8701POPC   C3A55205  29.965  42.327   7.050
 8701POPC   C4A55206  29.916  42.362   7.350
 8701POPC   C1B55207  30.016  42.095   6.450
 8701POPC   C2B55208  29.959  42.055   6.750
 8701POPC   C3B55209  29.974  42.104   7.050
 8701POPC   C4B55210  29.947  42.093   7.350
 8702POPC   NC355211   6.687   8.999   5.550
 8702POPC   PO455212   6.654   8.960   5.850
 8702POPC   GL155213   6.640   8.953   6.150
 8702POPC   GL255214   6.512   8.996   6.150
 8702POPC   C1A55215   6.692   8.975   6.450
 8702POPC   D2A55216   6.622   8.924   6.750
 8702POPC   C3A55217   6.602   8.989   7.050
 8702POPC   C4A55218   6.614   8.933   7.350
 8702POPC   C1B55219   6.389   9.064   6.450
 8702POPC   C2B55220   6.457   9.093   6.750
 8702POPC   C3B55221   6.380   9.119   7.050
 8702POPC   C4B55222   6.392   9.094   7.350
 8703POPC   NC355223  16.707  23.763   5.550
 8703POPC   PO455224  16.710  23.733   5.850
 8703POPC   GL155225  16.754  23.734   6.150
 8703POPC   GL255226  16.890  23.781   6.150
 8703POPC   C1A55227  16.695  23.695   6.450
 8703POPC   D2A55228  16.726  23.679   6.750
 8703POPC   C3A55229  16.710  23.721   7.050
 8703POPC   C4A55230  16.697  23.686   7.350
 8703POPC   C1B55231  16.906  23.797   6.450
 8703POPC   C2B55232  16.979  23.799   6.750
 8703POPC   C3B55233  16.940  23.856   7.050
 8703POPC   C4B55234  16.928  23.805   7.350
 8704POPC   NC355235  12.045   6.648   5.550
 8704POPC   PO455236  12.066   6.662   5.850
 8704POPC   GL155237  12.100   6.677   6.150
 8704POPC   GL255238  12.000   6.530   6.150
 8704POPC   C1A55239  12.041   6.668   6.450
 8704POPC   D2A55240  12.101   6.602   6.750
 8704POPC   C3A55241  12.089   6.645   7.050
 8704POPC   C4A55242  12.058   6.627   7.350
 8704POPC   C1B55243  11.926   6.457   6.450
 8704POPC   C2B55244  11.936   6.409   6.750
 8704POPC   C3B55245  11.899   6.448   7.050
 8704POPC   C4B55246  11.866   6.481   7.350
 8705POPC   NC355247  22.944   1.182   5.550
 8705POPC   PO455248  22.975   1.231   5.850
 8705POPC   GL155249  22.938   1.195   6.150
 8705POPC   GL255250  22.817   1.163   6.150
 8705POPC   C1A55251  22.955   1.182   6.450
 8705POPC   D2A55252  22.914   1.245   6.750
 8705POPC   C3A55253  22.938   1.217   7.050
 8705POPC   C4A55254  22.931   1.253   7.350
 8705POPC   C1B55255  22.693   1.149   6.450
 8705POPC   C2B55256  22.736   1.138   6.750
 8705POPC   C3B55257  22.688   1.086   7.050
 8705POPC   C4B55258  22.670   1.171   7.350
 8706POPC   NC355259  32.269   3.524   5.550
 8706POPC   PO455260  32.284   3.494   5.850
 8706POPC   GL155261  32.252   3.502   6.150
 8706POPC   GL255262  32.115   3.468   6.150
 8706POPC   C1A55263  32.268   3.497   6.450
 8706POPC   D2A55264  32.262   3.566   6.750
 8706POPC   C3A55265  32.217   3.560   7.050
 8706POPC   C4A55266  32.253   3.508   7.350
 8706POPC   C1B55267  32.006   3.431   6.450
 8706POPC   C2B55268  32.012   3.448   6.750
 8706POPC   C3B55269  31.990   3.431   7.050
 8706POPC   C4B55270  31.999   3.472   7.350
 8707POPC   NC355271  33.816  22.169   5.550
 8707POPC   PO455272  33.797  22.208   5.850
 8707POPC   GL155273  33.845  22.164   6.150
 8707POPC   GL255274  33.647  22.065   6.150
 8707POPC   C1A55275  33.777  22.208   6.450
 8707POPC   D2A55276  33.832  22.192   6.750
 8707POPC   C3A55277  33.755  22.191   7.050
 8707POPC   C4A55278  33.823  22.198   7.350
 8707POPC   C1B55279  33.577  22.054   6.450
 8707POPC   C2B55280  33.596  21.993   6.750
 8707POPC   C3B55281  33.612  22.025   7.050
 8707POPC   C4B55282  33.609  21.994   7.350
 8708POPC   NC355283  24.441  18.308   5.550
 8708POPC   PO455284  24.511  18.277   5.850
 8708POPC   GL155285  24.474  18.264   6.150
 8708POPC   GL255286  24.538  18.382   6.150
 8708POPC   C1A55287  24.442  18.275   6.450
 8708POPC   D2A55288  24.498  18.281   6.750
 8708POPC   C3A55289  24.480  18.304   7.050
 8708POPC   C4A55290  24.528  18.283   7.350
 8708POPC   C1B55291  24.540  18.561   6.450
 8708POPC   C2B55292  24.586  18.478   6.750
 8708POPC   C3B55293  24.584  18.489   7.050
 8708POPC   C4B55294  24.540  18.480   7.350
 8709POPC   NC355295  15.131   1.947   5.550
 8709POPC   PO455296  15.166   1.946   5.850
 8709POPC   GL155297  15.144   1.952   6.150
 8709POPC   GL255298  15.052   2.083   6.150
 8709POPC   C1A55299  15.183   1.946   6.450
 8709POPC   D2A55300  15.219   1.991   6.750
 8709POPC   C3A55301  15.215   1.964   7.050
 8709POPC   C4A55302  15.152   1.956   7.350
 8709POPC   C1B55303  14.952   2.167   6.450
 8709POPC   C2B55304  14.997   2.150   6.750
 8709POPC   C3B55305  15.004   2.123   7.050
 8709POPC   C4B55306  14.925   2.085   7.350
 8710POPC   NC355307   2.027  20.593   5.550
 8710POPC   PO455308   1.992  20.565   5.850
 8710POPC   GL155309   2.020  20.614   6.150
 8710POPC   GL255310   1.842  20.628   6.150
 8710POPC   C1A55311   1.973  20.606   6.450
 8710POPC   D2A55312   2.023  20.659   6.750
 8710POPC   C3A55313   2.017  20.567   7.050
 8710POPC   C4A55314   2.035  20.654   7.350
 8710POPC   C1B55315   1.746  20.657   6.450
 8710POPC   C2B55316   1.759  20.592   6.750
 8710POPC   C3B55317   1.727  20.649   7.050
 8710POPC   C4B55318   1.730  20.583   7.350
 8711POPC   NC355319   9.783  44.633   5.550
 8711POPC   PO455320   9.745  44.646   5.850
 8711POPC   GL155321   9.748  44.686   6.150
 8711POPC   GL255322   9.829  44.539   6.150
 8711POPC   C1A55323   9.732  44.695   6.450
 8711POPC   D2A55324   9.708  44.658   6.750
 8711POPC   C3A55325   9.753  44.638   7.050
 8711POPC   C4A55326   9.716  44.711   7.350
 8711POPC   C1B55327   9.898  44.529   6.450
 8711POPC   C2B55328   9.979  44.486   6.750
 8711POPC   C3B55329   9.974  44.531   7.050
 8711POPC   C4B55330   9.966  44.517   7.350
 8712POPC   NC355331   3.525  19.802   5.550
 8712POPC   PO455332   3.557  19.806   5.850
 8712POPC   GL155333   3.557  19.795   6.150
 8712POPC   GL255334   3.505  19.956   6.150
 8712POPC   C1A55335   3.493  19.844   6.450
 8712POPC   D2A55336   3.569  19.819   6.750
 8712POPC   C3A55337   3.573  19.846   7.050
 8712POPC   C4A55338   3.497  19.835   7.350
 8712POPC   C1B55339   3.558  20.095   6.450
 8712POPC   C2B55340   3.509  20.087   6.750
 8712POPC   C3B55341   3.491  20.036   7.050
 8712POPC   C4B55342   3.491  20.056   7.350
 8713POPC   NC355343  31.494  18.236   5.550
 8713POPC   PO455344  31.488  18.304   5.850
 8713POPC   GL155345  31.449  18.248   6.150
 8713POPC   GL255346  31.463  18.377   6.150
 8713POPC   C1A55347  31.439  18.237   6.450
 8713POPC   D2A55348  31.475  18.278   6.750
 8713POPC   C3A55349  31.487  18.315   7.050
 8713POPC   C4A55350  31.448  18.305   7.350
 8713POPC   C1B55351  31.520  18.524   6.450
 8713POPC   C2B55352  31.513  18.484   6.750
 8713POPC   C3B55353  31.425  18.489   7.050
 8713POPC   C4B55354  31.503  18.531   7.350
 8714POPC   NC355355   3.585  19.027   5.550
 8714POPC   PO455356   3.497  19.023   5.850
 8714POPC   GL155357   3.509  19.033   6.150
 8714POPC   GL255358   3.564  19.214   6.150
 8714POPC   C1A55359   3.528  19.076   6.450
 8714POPC   D2A55360   3.523  19.068   6.750
 8714POPC   C3A55361   3.503  19.015   7.050
 8714POPC   C4A55362   3.546  19.099   7.350
 8714POPC   C1B55363   3.560  19.290   6.450
 8714POPC   C2B55364   3.504  19.281   6.750
 8714POPC   C3B55365   3.576  19.306   7.050
 8714POPC   C4B55366   3.574  19.260   7.350
 8715POPC   NC355367  26.824  15.972   5.550
 8715POPC   PO455368  26.823  15.992   5.850
 8715POPC   GL155369  26.808  15.922   6.150
 8715POPC   GL255370  26.747  16.067   6.150
 8715POPC   C1A55371  26.781  15.940   6.450
 8715POPC   D2A55372  26.809  15.941   6.750
 8715POPC   C3A55373  26.804  15.970   7.050
 8715POPC   C4A55374  26.788  15.952   7.350
 8715POPC   C1B55375  26.626  16.141   6.450
 8715POPC   C2B55376  26.666  16.185   6.750
 8715POPC   C3B55377  26.654  16.184   7.050
 8715POPC   C4B55378  26.652  16.207   7.350
 8716POPC   NC355379  19.009   8.164   5.550
 8716POPC   PO455380  19.054   8.203   5.850
 8716POPC   GL155381  19.020   8.225   6.150
 8716POPC   GL255382  19.154   8.196   6.150
 8716POPC   C1A55383  19.022   8.245   6.450
 8716POPC   D2A55384  19.012   8.246   6.750
 8716POPC   C3A55385  19.094   8.147   7.050
 8716POPC   C4A55386  19.053   8.169   7.350
 8716POPC   C1B55387  19.304   8.115   6.450
 8716POPC   C2B55388  19.337   8.138   6.750
 8716POPC   C3B55389  19.312   8.074   7.050
 8716POPC   C4B55390  19.295   8.106   7.350
 8717POPC   NC355391  35.342  27.599   5.550
 8717POPC   PO455392  35.397  27.605   5.850
 8717POPC   GL155393  35.319  27.553   6.150
 8717POPC   GL255394  35.445  27.743   6.150
 8717POPC   C1A55395  35.314  27.570   6.450
 8717POPC   D2A55396  35.382  27.551   6.750
 8717POPC   C3A55397  35.398  27.545   7.050
 8717POPC   C4A55398  35.341  27.640   7.350
 8717POPC   C1B55399  35.472  27.785   6.450
 8717POPC   C2B55400  35.466  27.824   6.750
 8717POPC   C3B55401  35.474  27.777   7.050
 8717POPC   C4B55402  35.467  27.830   7.350
 8718POPC   NC355403  40.787  22.889   5.550
 8718POPC   PO455404  40.801  22.974   5.850
 8718POPC   GL155405  40.781  22.962   6.150
 8718POPC   GL255406  40.669  23.065   6.150
 8718POPC   C1A55407  40.751  22.960   6.450
 8718POPC   D2A55408  40.780  22.969   6.750
 8718POPC   C3A55409  40.829  22.927   7.050
 8718POPC   C4A55410  40.754  22.942   7.350
 8718POPC   C1B55411  40.609  23.123   6.450
 8718POPC   C2B55412  40.613  23.137   6.750
 8718POPC   C3B55413  40.607  23.098   7.050
 8718POPC   C4B55414  40.648  23.114   7.350
 8719POPC   NC355415  19.856  20.571   5.550
 8719POPC   PO455416  19.884  20.596   5.850
 8719POPC   GL155417  19.860  20.599   6.150
 8719POPC   GL255418  19.683  20.631   6.150
 8719POPC   C1A55419  19.846  20.561   6.450
 8719POPC   D2A55420  19.857  20.562   6.750
 8719POPC   C3A55421  19.825  20.611   7.050
 8719POPC   C4A55422  19.859  20.594   7.350
 8719POPC   C1B55423  19.646  20.781   6.450
 8719POPC   C2B55424  19.605  20.751   6.750
 8719POPC   C3B55425  19.649  20.740   7.050
 8719POPC   C4B55426  19.619  20.764   7.350
 8720POPC   NC355427   4.300  20.597   5.550
 8720POPC   PO455428   4.292  20.591   5.850
 8720POPC   GL155429   4.357  20.624   6.150
 8720POPC   GL255430   4.185  20.702   6.150
 8720POPC   C1A55431   4.351  20.580   6.450
 8720POPC   D2A55432   4.326  20.638   6.750
 8720POPC   C3A55433   4.336  20.617   7.050
 8720POPC   C4A55434   4.304  20.584   7.350
 8720POPC   C1B55435   4.072  20.713   6.450
 8720POPC   C2B55436   4.103  20.741   6.750
 8720POPC   C3B55437   4.064  20.737   7.050
 8720POPC   C4B55438   4.114  20.760   7.350
 8721POPC   NC355439  29.895  29.155   5.550
 8721POPC   PO455440  29.886  29.184   5.850
 8721POPC   GL155441  29.946  29.138   6.150
 8721POPC   GL255442  30.031  29.018   6.150
 8721POPC   C1A55443  29.898  29.131   6.450
 8721POPC   D2A55444  29.927  29.129   6.750
 8721POPC   C3A55445  29.955  29.151   7.050
 8721POPC   C4A55446  29.887  29.098   7.350
 8721POPC   C1B55447  30.083  28.926   6.450
 8721POPC   C2B55448  30.085  28.919   6.750
 8721POPC   C3B55449  30.139  28.954   7.050
 8721POPC   C4B55450  30.128  28.953   7.350
 8722POPC   NC355451   8.997  12.811   5.550
 8722POPC   PO455452   8.994  12.893   5.850
 8722POPC   GL155453   9.000  12.840   6.150
 8722POPC   GL255454   8.992  12.964   6.150
 8722POPC   C1A55455   8.956  12.814   6.450
 8722POPC   D2A55456   8.966  12.895   6.750
 8722POPC   C3A55457   9.022  12.899   7.050
 8722POPC   C4A55458   8.950  12.809   7.350
 8722POPC   C1B55459   8.974  13.109   6.450
 8722POPC   C2B55460   9.034  13.112   6.750
 8722POPC   C3B55461   9.054  13.078   7.050
 8722POPC   C4B55462   9.021  13.059   7.350
 8723POPC   NC355463  12.114  18.289   5.550
 8723POPC   PO455464  12.030  18.235   5.850
 8723POPC   GL155465  12.037  18.321   6.150
 8723POPC   GL255466  11.975  18.407   6.150
 8723POPC   C1A55467  12.112  18.323   6.450
 8723POPC   D2A55468  12.104  18.300   6.750
 8723POPC   C3A55469  12.032  18.329   7.050
 8723POPC   C4A55470  12.119  18.258   7.350
 8723POPC   C1B55471  11.972  18.518   6.450
 8723POPC   C2B55472  11.936  18.474   6.750
 8723POPC   C3B55473  11.969  18.501   7.050
 8723POPC   C4B55474  11.895  18.537   7.350
 8724POPC   NC355475   5.869  18.331   5.550
 8724POPC   PO455476   5.819  18.308   5.850
 8724POPC   GL155477   5.876  18.253   6.150
 8724POPC   GL255478   5.983  18.212   6.150
 8724POPC   C1A55479   5.863  18.275   6.450
 8724POPC   D2A55480   5.848  18.253   6.750
 8724POPC   C3A55481   5.902  18.237   7.050
 8724POPC   C4A55482   5.910  18.258   7.350
 8724POPC   C1B55483   6.014  18.038   6.450
 8724POPC   C2B55484   5.973  18.050   6.750
 8724POPC   C3B55485   6.022  18.057   7.050
 8724POPC   C4B55486   5.984  18.040   7.350
 8725POPC   NC355487  24.520  16.766   5.550
 8725POPC   PO455488  24.537  16.749   5.850
 8725POPC   GL155489  24.456  16.704   6.150
 8725POPC   GL255490  24.546  16.804   6.150
 8725POPC   C1A55491  24.457  16.734   6.450
 8725POPC   D2A55492  24.497  16.732   6.750
 8725POPC   C3A55493  24.476  16.745   7.050
 8725POPC   C4A55494  24.491  16.718   7.350
 8725POPC   C1B55495  24.558  16.952   6.450
 8725POPC   C2B55496  24.534  16.925   6.750
 8725POPC   C3B55497  24.571  17.007   7.050
 8725POPC   C4B55498  24.545  16.961   7.350
 8726POPC   NC355499  13.600  15.130   5.550
 8726POPC   PO455500  13.676  15.167   5.850
 8726POPC   GL155501  13.594  15.158   6.150
 8726POPC   GL255502  13.660  15.065   6.150
 8726POPC   C1A55503  13.589  15.216   6.450
 8726POPC   D2A55504  13.644  15.140   6.750
 8726POPC   C3A55505  13.663  15.176   7.050
 8726POPC   C4A55506  13.627  15.139   7.350
 8726POPC   C1B55507  13.638  14.964   6.450
 8726POPC   C2B55508  13.713  14.968   6.750
 8726POPC   C3B55509  13.713  14.884   7.050
 8726POPC   C4B55510  13.656  14.909   7.350
 8727POPC   NC355511   9.721   0.418   5.550
 8727POPC   PO455512   9.781   0.402   5.850
 8727POPC   GL155513   9.785   0.410   6.150
 8727POPC   GL255514   9.865   0.344   6.150
 8727POPC   C1A55515   9.770   0.402   6.450
 8727POPC   D2A55516   9.749   0.479   6.750
 8727POPC   C3A55517   9.762   0.482   7.050
 8727POPC   C4A55518   9.700   0.454   7.350
 8727POPC   C1B55519   9.986   0.265   6.450
 8727POPC   C2B55520   9.985   0.287   6.750
 8727POPC   C3B55521   9.952   0.273   7.050
 8727POPC   C4B55522   9.994   0.265   7.350
 8728POPC   NC355523  34.604  35.340   5.550
 8728POPC   PO455524  34.537  35.376   5.850
 8728POPC   GL155525  34.621  35.326   6.150
 8728POPC   GL255526  34.581  35.247   6.150
 8728POPC   C1A55527  34.528  35.398   6.450
 8728POPC   D2A55528  34.586  35.398   6.750
 8728POPC   C3A55529  34.604  35.373   7.050
 8728POPC   C4A55530  34.596  35.394   7.350
 8728POPC   C1B55531  34.498  35.102   6.450
 8728POPC   C2B55532  34.520  35.120   6.750
 8728POPC   C3B55533  34.537  35.126   7.050
 8728POPC   C4B55534  34.473  35.098   7.350
 8729POPC   NC355535   8.230  36.108   5.550
 8729POPC   PO455536   8.158  36.173   5.850
 8729POPC   GL155537   8.184  36.155   6.150
 8729POPC   GL255538   8.117  36.077   6.150
 8729POPC   C1A55539   8.212  36.140   6.450
 8729POPC   D2A55540   8.178  36.102   6.750
 8729POPC   C3A55541   8.169  36.159   7.050
 8729POPC   C4A55542   8.228  36.178   7.350
 8729POPC   C1B55543   7.995  36.107   6.450
 8729POPC   C2B55544   7.958  36.133   6.750
 8729POPC   C3B55545   7.949  36.068   7.050
 8729POPC   C4B55546   7.985  36.095   7.350
 8730POPC   NC355547  12.067  32.983   5.550
 8730POPC   PO455548  12.060  33.018   5.850
 8730POPC   GL155549  12.055  33.069   6.150
 8730POPC   GL255550  12.170  32.998   6.150
 8730POPC   C1A55551  12.048  32.992   6.450
 8730POPC   D2A55552  12.115  32.996   6.750
 8730POPC   C3A55553  12.058  33.052   7.050
 8730POPC   C4A55554  12.038  33.031   7.350
 8730POPC   C1B55555  12.359  32.979   6.450
 8730POPC   C2B55556  12.319  32.952   6.750
 8730POPC   C3B55557  12.275  33.003   7.050
 8730POPC   C4B55558  12.305  32.989   7.350
 8731POPC   NC355559  26.019  30.744   5.550
 8731POPC   PO455560  26.090  30.681   5.850
 8731POPC   GL155561  26.039  30.741   6.150
 8731POPC   GL255562  26.087  30.791   6.150
 8731POPC   C1A55563  26.056  30.690   6.450
 8731POPC   D2A55564  26.045  30.736   6.750
 8731POPC   C3A55565  25.998  30.690   7.050
 8731POPC   C4A55566  26.072  30.722   7.350
 8731POPC   C1B55567  26.127  30.924   6.450
 8731POPC   C2B55568  26.164  30.974   6.750
 8731POPC   C3B55569  26.137  30.913   7.050
 8731POPC   C4B55570  26.103  30.891   7.350
 8732POPC   NC355571   7.463  19.827   5.550
 8732POPC   PO455572   7.454  19.825   5.850
 8732POPC   GL155573   7.411  19.878   6.150
 8732POPC   GL255574   7.344  19.816   6.150
 8732POPC   C1A55575   7.420  19.856   6.450
 8732POPC   D2A55576   7.408  19.801   6.750
 8732POPC   C3A55577   7.428  19.855   7.050
 8732POPC   C4A55578   7.454  19.821   7.350
 8732POPC   C1B55579   7.178  19.836   6.450
 8732POPC   C2B55580   7.195  19.852   6.750
 8732POPC   C3B55581   7.159  19.813   7.050
 8732POPC   C4B55582   7.200  19.824   7.350
 8733POPC   NC355583   6.674  32.984   5.550
 8733POPC   PO455584   6.691  33.006   5.850
 8733POPC   GL155585   6.679  33.008   6.150
 8733POPC   GL255586   6.565  33.058   6.150
 8733POPC   C1A55587   6.646  33.060   6.450
 8733POPC   D2A55588   6.653  33.002   6.750
 8733POPC   C3A55589   6.623  33.065   7.050
 8733POPC   C4A55590   6.596  33.004   7.350
 8733POPC   C1B55591   6.439  33.002   6.450
 8733POPC   C2B55592   6.415  33.003   6.750
 8733POPC   C3B55593   6.435  32.991   7.050
 8733POPC   C4B55594   6.426  32.992   7.350
 8734POPC   NC355595  43.143  16.776   5.550
 8734POPC   PO455596  43.149  16.724   5.850
 8734POPC   GL155597  43.110  16.710   6.150
 8734POPC   GL255598  42.989  16.695   6.150
 8734POPC   C1A55599  43.102  16.721   6.450
 8734POPC   D2A55600  43.086  16.739   6.750
 8734POPC   C3A55601  43.075  16.704   7.050
 8734POPC   C4A55602  43.122  16.755   7.350
 8734POPC   C1B55603  42.879  16.706   6.450
 8734POPC   C2B55604  42.905  16.643   6.750
 8734POPC   C3B55605  42.875  16.627   7.050
 8734POPC   C4B55606  42.908  16.677   7.350
 8735POPC   NC355607  36.097  41.605   5.550
 8735POPC   PO455608  36.110  41.597   5.850
 8735POPC   GL155609  36.112  41.596   6.150
 8735POPC   GL255610  36.091  41.458   6.150
 8735POPC   C1A55611  36.089  41.526   6.450
 8735POPC   D2A55612  36.111  41.570   6.750
 8735POPC   C3A55613  36.089  41.564   7.050
 8735POPC   C4A55614  36.166  41.531   7.350
 8735POPC   C1B55615  36.034  41.287   6.450
 8735POPC   C2B55616  36.058  41.368   6.750
 8735POPC   C3B55617  36.006  41.317   7.050
 8735POPC   C4B55618  36.015  41.279   7.350
 8736POPC   NC355619  37.658   5.907   5.550
 8736POPC   PO455620  37.708   5.845   5.850
 8736POPC   GL155621  37.693   5.882   6.150
 8736POPC   GL255622  37.817   5.909   6.150
 8736POPC   C1A55623  37.712   5.898   6.450
 8736POPC   D2A55624  37.706   5.881   6.750
 8736POPC   C3A55625  37.649   5.883   7.050
 8736POPC   C4A55626  37.691   5.880   7.350
 8736POPC   C1B55627  37.907   5.888   6.450
 8736POPC   C2B55628  37.922   5.874   6.750
 8736POPC   C3B55629  37.960   5.901   7.050
 8736POPC   C4B55630  37.966   5.889   7.350
 8737POPC   NC355631   0.417  16.727   5.550
 8737POPC   PO455632   0.405  16.719   5.850
 8737POPC   GL155633   0.438  16.747   6.150
 8737POPC   GL255634   0.414  16.807   6.150
 8737POPC   C1A55635   0.441  16.751   6.450
 8737POPC   D2A55636   0.406  16.777   6.750
 8737POPC   C3A55637   0.458  16.705   7.050
 8737POPC   C4A55638   0.463  16.725   7.350
 8737POPC   C1B55639   0.444  16.942   6.450
 8737POPC   C2B55640   0.501  17.016   6.750
 8737POPC   C3B55641   0.432  16.981   7.050
 8737POPC   C4B55642   0.453  16.980   7.350
 8738POPC   NC355643   1.213  34.536   5.550
 8738POPC   PO455644   1.247  34.552   5.850
 8738POPC   GL155645   1.195  34.557   6.150
 8738POPC   GL255646   1.152  34.630   6.150
 8738POPC   C1A55647   1.238  34.607   6.450
 8738POPC   D2A55648   1.222  34.528   6.750
 8738POPC   C3A55649   1.247  34.577   7.050
 8738POPC   C4A55650   1.197  34.538   7.350
 8738POPC   C1B55651   0.981  34.747   6.450
 8738POPC   C2B55652   1.010  34.696   6.750
 8738POPC   C3B55653   1.022  34.710   7.050
 8738POPC   C4B55654   1.053  34.726   7.350
 8739POPC   NC355655  19.828  17.540   5.550
 8739POPC   PO455656  19.824  17.488   5.850
 8739POPC   GL155657  19.864  17.535   6.150
 8739POPC   GL255658  19.904  17.368   6.150
 8739POPC   C1A55659  19.837  17.470   6.450
 8739POPC   D2A55660  19.863  17.482   6.750
 8739POPC   C3A55661  19.819  17.464   7.050
 8739POPC   C4A55662  19.800  17.499   7.350
 8739POPC   C1B55663  19.997  17.330   6.450
 8739POPC   C2B55664  20.015  17.304   6.750
 8739POPC   C3B55665  19.990  17.347   7.050
 8739POPC   C4B55666  20.030  17.335   7.350
 8740POPC   NC355667  33.073  30.727   5.550
 8740POPC   PO455668  33.034  30.698   5.850
 8740POPC   GL155669  32.974  30.648   6.150
 8740POPC   GL255670  33.097  30.711   6.150
 8740POPC   C1A55671  33.046  30.677   6.450
 8740POPC   D2A55672  33.004  30.719   6.750
 8740POPC   C3A55673  33.071  30.679   7.050
 8740POPC   C4A55674  33.018  30.735   7.350
 8740POPC   C1B55675  33.280  30.819   6.450
 8740POPC   C2B55676  33.241  30.743   6.750
 8740POPC   C3B55677  33.235  30.731   7.050
 8740POPC   C4B55678  33.251  30.795   7.350
 8741POPC   NC355679  36.154   2.723   5.550
 8741POPC   PO455680  36.083   2.796   5.850
 8741POPC   GL155681  36.106   2.727   6.150
 8741POPC   GL255682  35.988   2.718   6.150
 8741POPC   C1A55683  36.083   2.729   6.450
 8741POPC   D2A55684  36.142   2.785   6.750
 8741POPC   C3A55685  36.094   2.778   7.050
 8741POPC   C4A55686  36.153   2.802   7.350
 8741POPC   C1B55687  35.909   2.777   6.450
 8741POPC   C2B55688  35.895   2.785   6.750
 8741POPC   C3B55689  35.874   2.774   7.050
 8741POPC   C4B55690  35.914   2.747   7.350
 8742POPC   NC355691  25.229  39.196   5.550
 8742POPC   PO455692  25.219  39.263   5.850
 8742POPC   GL155693  25.252  39.230   6.150
 8742POPC   GL255694  25.390  39.166   6.150
 8742POPC   C1A55695  25.256  39.195   6.450
 8742POPC   D2A55696  25.292  39.228   6.750
 8742POPC   C3A55697  25.260  39.200   7.050
 8742POPC   C4A55698  25.244  39.215   7.350
 8742POPC   C1B55699  25.459  39.175   6.450
 8742POPC   C2B55700  25.455  39.106   6.750
 8742POPC   C3B55701  25.533  39.177   7.050
 8742POPC   C4B55702  25.482  39.107   7.350
 8743POPC   NC355703  33.778  32.989   5.550
 8743POPC   PO455704  33.808  33.062   5.850
 8743POPC   GL155705  33.769  33.016   6.150
 8743POPC   GL255706  33.943  32.981   6.150
 8743POPC   C1A55707  33.808  32.978   6.450
 8743POPC   D2A55708  33.758  32.977   6.750
 8743POPC   C3A55709  33.754  33.047   7.050
 8743POPC   C4A55710  33.848  33.070   7.350
 8743POPC   C1B55711  34.025  32.932   6.450
 8743POPC   C2B55712  33.994  32.902   6.750
 8743POPC   C3B55713  34.010  32.882   7.050
 8743POPC   C4B55714  33.970  32.901   7.350
 8744POPC   NC355715  19.830  35.315   5.550
 8744POPC   PO455716  19.838  35.348   5.850
 8744POPC   GL155717  19.869  35.375   6.150
 8744POPC   GL255718  19.852  35.423   6.150
 8744POPC   C1A55719  19.871  35.333   6.450
 8744POPC   D2A55720  19.875  35.349   6.750
 8744POPC   C3A55721  19.807  35.368   7.050
 8744POPC   C4A55722  19.844  35.381   7.350
 8744POPC   C1B55723  19.890  35.584   6.450
 8744POPC   C2B55724  19.952  35.566   6.750
 8744POPC   C3B55725  19.910  35.591   7.050
 8744POPC   C4B55726  19.867  35.632   7.350
 8745POPC   NC355727   6.684  38.456   5.550
 8745POPC   PO455728   6.628  38.437   5.850
 8745POPC   GL155729   6.693  38.483   6.150
 8745POPC   GL255730   6.674  38.314   6.150
 8745POPC   C1A55731   6.610  38.407   6.450
 8745POPC   D2A55732   6.596  38.433   6.750
 8745POPC   C3A55733   6.613  38.475   7.050
 8745POPC   C4A55734   6.601  38.426   7.350
 8745POPC   C1B55735   6.692  38.235   6.450
 8745POPC   C2B55736   6.671  38.157   6.750
 8745POPC   C3B55737   6.696  38.237   7.050
 8745POPC   C4B55738   6.625  38.244   7.350
 8746POPC   NC355739  38.406  18.310   5.550
 8746POPC   PO455740  38.454  18.324   5.850
 8746POPC   GL155741  38.456  18.268   6.150
 8746POPC   GL255742  38.332  18.295   6.150
 8746POPC   C1A55743  38.419  18.240   6.450
 8746POPC   D2A55744  38.474  18.256   6.750
 8746POPC   C3A55745  38.424  18.272   7.050
 8746POPC   C4A55746  38.474  18.281   7.350
 8746POPC   C1B55747  38.191  18.378   6.450
 8746POPC   C2B55748  38.205  18.366   6.750
 8746POPC   C3B55749  38.209  18.317   7.050
 8746POPC   C4B55750  38.257  18.377   7.350
 8747POPC   NC355751  36.879  36.877   5.550
 8747POPC   PO455752  36.930  36.872   5.850
 8747POPC   GL155753  36.928  36.885   6.150
 8747POPC   GL255754  36.894  37.045   6.150
 8747POPC   C1A55755  36.889  36.879   6.450
 8747POPC   D2A55756  36.939  36.931   6.750
 8747POPC   C3A55757  36.931  36.942   7.050
 8747POPC   C4A55758  36.921  36.863   7.350
 8747POPC   C1B55759  36.866  37.148   6.450
 8747POPC   C2B55760  36.872  37.145   6.750
 8747POPC   C3B55761  36.852  37.101   7.050
 8747POPC   C4B55762  36.804  37.125   7.350
 8748POPC   NC355763  11.308  17.551   5.550
 8748POPC   PO455764  11.250  17.549   5.850
 8748POPC   GL155765  11.329  17.524   6.150
 8748POPC   GL255766  11.470  17.541   6.150
 8748POPC   C1A55767  11.284  17.505   6.450
 8748POPC   D2A55768  11.255  17.463   6.750
 8748POPC   C3A55769  11.258  17.537   7.050
 8748POPC   C4A55770  11.328  17.478   7.350
 8748POPC   C1B55771  11.545  17.537   6.450
 8748POPC   C2B55772  11.523  17.538   6.750
 8748POPC   C3B55773  11.557  17.492   7.050
 8748POPC   C4B55774  11.505  17.537   7.350
 8749POPC   NC355775  15.985  22.917   5.550
 8749POPC   PO455776  15.971  22.950   5.850
 8749POPC   GL155777  15.974  22.950   6.150
 8749POPC   GL255778  16.013  22.847   6.150
 8749POPC   C1A55779  15.980  22.906   6.450
 8749POPC   D2A55780  15.906  22.985   6.750
 8749POPC   C3A55781  15.916  22.982   7.050
 8749POPC   C4A55782  15.936  22.921   7.350
 8749POPC   C1B55783  16.120  22.717   6.450
 8749POPC   C2B55784  16.049  22.675   6.750
 8749POPC   C3B55785  16.131  22.732   7.050
 8749POPC   C4B55786  16.038  22.725   7.350
 8750POPC   NC355787  30.682  43.068   5.550
 8750POPC   PO455788  30.660  43.130   5.850
 8750POPC   GL155789  30.730  43.085   6.150
 8750POPC   GL255790  30.683  42.951   6.150
 8750POPC   C1A55791  30.719  43.113   6.450
 8750POPC   D2A55792  30.702  43.149   6.750
 8750POPC   C3A55793  30.740  43.079   7.050
 8750POPC   C4A55794  30.695  43.112   7.350
 8750POPC   C1B55795  30.726  42.837   6.450
 8750POPC   C2B55796  30.773  42.832   6.750
 8750POPC   C3B55797  30.681  42.818   7.050
 8750POPC   C4B55798  30.751  42.885   7.350
 8751POPC   NC355799  43.917  15.173   5.550
 8751POPC   PO455800  43.850  15.210   5.850
 8751POPC   GL155801  43.936  15.140   6.150
 8751POPC   GL255802  43.850  15.342   6.150
 8751POPC   C1A55803  43.838  15.176   6.450
 8751POPC   D2A55804  43.911  15.181   6.750
 8751POPC   C3A55805  43.902  15.149   7.050
 8751POPC   C4A55806  43.857  15.179   7.350
 8751POPC   C1B55807  43.843  15.391   6.450
 8751POPC   C2B55808  43.893  15.440   6.750
 8751POPC   C3B55809  43.893  15.429   7.050
 8751POPC   C4B55810  43.881  15.435   7.350
 8752POPC   NC355811   4.279  34.617   5.550
 8752POPC   PO455812   4.292  34.582   5.850
 8752POPC   GL155813   4.276  34.586   6.150
 8752POPC   GL255814   4.444  34.608   6.150
 8752POPC   C1A55815   4.349  34.573   6.450
 8752POPC   D2A55816   4.342  34.567   6.750
 8752POPC   C3A55817   4.318  34.543   7.050
 8752POPC   C4A55818   4.366  34.531   7.350
 8752POPC   C1B55819   4.522  34.634   6.450
 8752POPC   C2B55820   4.514  34.656   6.750
 8752POPC   C3B55821   4.594  34.582   7.050
 8752POPC   C4B55822   4.554  34.592   7.350
 8753POPC   NC355823  18.316  36.170   5.550
 8753POPC   PO455824  18.240  36.139   5.850
 8753POPC   GL155825  18.294  36.143   6.150
 8753POPC   GL255826  18.182  36.207   6.150
 8753POPC   C1A55827  18.299  36.124   6.450
 8753POPC   D2A55828  18.285  36.095   6.750
 8753POPC   C3A55829  18.258  36.140   7.050
 8753POPC   C4A55830  18.283  36.103   7.350
 8753POPC   C1B55831  18.080  36.257   6.450
 8753POPC   C2B55832  18.087  36.292   6.750
 8753POPC   C3B55833  18.051  36.301   7.050
 8753POPC   C4B55834  18.124  36.290   7.350
 8754POPC   NC355835  32.981  36.874   5.550
 8754POPC   PO455836  33.066  36.856   5.850
 8754POPC   GL155837  33.013  36.928   6.150
 8754POPC   GL255838  33.130  37.002   6.150
 8754POPC   C1A55839  32.981  36.868   6.450
 8754POPC   D2A55840  33.029  36.881   6.750
 8754POPC   C3A55841  33.042  36.909   7.050
 8754POPC   C4A55842  32.981  36.906   7.350
 8754POPC   C1B55843  33.231  37.045   6.450
 8754POPC   C2B55844  33.252  36.989   6.750
 8754POPC   C3B55845  33.230  36.983   7.050
 8754POPC   C4B55846  33.232  36.998   7.350
 8755POPC   NC355847  11.324  14.382   5.550
 8755POPC   PO455848  11.292  14.401   5.850
 8755POPC   GL155849  11.326  14.443   6.150
 8755POPC   GL255850  11.298  14.550   6.150
 8755POPC   C1A55851  11.345  14.415   6.450
 8755POPC   D2A55852  11.348  14.387   6.750
 8755POPC   C3A55853  11.259  14.420   7.050
 8755POPC   C4A55854  11.297  14.397   7.350
 8755POPC   C1B55855  11.405  14.677   6.450
 8755POPC   C2B55856  11.345  14.609   6.750
 8755POPC   C3B55857  11.360  14.654   7.050
 8755POPC   C4B55858  11.418  14.642   7.350
 8756POPC   NC355859  13.635  37.631   5.550
 8756POPC   PO455860  13.634  37.691   5.850
 8756POPC   GL155861  13.670  37.653   6.150
 8756POPC   GL255862  13.576  37.608   6.150
 8756POPC   C1A55863  13.635  37.646   6.450
 8756POPC   D2A55864  13.615  37.677   6.750
 8756POPC   C3A55865  13.626  37.654   7.050
 8756POPC   C4A55866  13.591  37.690   7.350
 8756POPC   C1B55867  13.501  37.478   6.450
 8756POPC   C2B55868  13.550  37.414   6.750
 8756POPC   C3B55869  13.536  37.453   7.050
 8756POPC   C4B55870  13.527  37.433   7.350
 8757POPC   NC355871  14.433  40.824   5.550
 8757POPC   PO455872  14.415  40.822   5.850
 8757POPC   GL155873  14.382  40.736   6.150
 8757POPC   GL255874  14.546  40.868   6.150
 8757POPC   C1A55875  14.399  40.745   6.450
 8757POPC   D2A55876  14.410  40.808   6.750
 8757POPC   C3A55877  14.416  40.765   7.050
 8757POPC   C4A55878  14.432  40.829   7.350
 8757POPC   C1B55879  14.598  40.863   6.450
 8757POPC   C2B55880  14.614  40.905   6.750
 8757POPC   C3B55881  14.601  40.852   7.050
 8757POPC   C4B55882  14.644  40.900   7.350
 8758POPC   NC355883  11.298  43.856   5.550
 8758POPC   PO455884  11.305  43.923   5.850
 8758POPC   GL155885  11.290  43.862   6.150
 8758POPC   GL255886  11.190  43.963   6.150
 8758POPC   C1A55887  11.253  43.848   6.450
 8758POPC   D2A55888  11.301  43.875   6.750
 8758POPC   C3A55889  11.296  43.866   7.050
 8758POPC   C4A55890  11.336  43.837   7.350
 8758POPC   C1B55891  11.153  44.112   6.450
 8758POPC   C2B55892  11.132  44.097   6.750
 8758POPC   C3B55893  11.135  44.030   7.050
 8758POPC   C4B55894  11.106  44.054   7.350
 8759POPC   NC355895  28.405  28.370   5.550
 8759POPC   PO455896  28.409  28.416   5.850
 8759POPC   GL155897  28.376  28.395   6.150
 8759POPC   GL255898  28.441  28.471   6.150
 8759POPC   C1A55899  28.387  28.337   6.450
 8759POPC   D2A55900  28.324  28.331   6.750
 8759POPC   C3A55901  28.400  28.333   7.050
 8759POPC   C4A55902  28.354  28.342   7.350
 8759POPC   C1B55903  28.575  28.553   6.450
 8759POPC   C2B55904  28.567  28.514   6.750
 8759POPC   C3B55905  28.567  28.502   7.050
 8759POPC   C4B55906  28.523  28.545   7.350
 8760POPC   NC355907  10.526   8.933   5.550
 8760POPC   PO455908  10.570   8.969   5.850
 8760POPC   GL155909  10.534   9.015   6.150
 8760POPC   GL255910  10.461   8.852   6.150
 8760POPC   C1A55911  10.501   8.993   6.450
 8760POPC   D2A55912  10.566   8.967   6.750
 8760POPC   C3A55913  10.538   8.945   7.050
 8760POPC   C4A55914  10.513   9.005   7.350
 8760POPC   C1B55915  10.468   8.753   6.450
 8760POPC   C2B55916  10.484   8.764   6.750
 8760POPC   C3B55917  10.422   8.768   7.050
 8760POPC   C4B55918  10.448   8.735   7.350
 8761POPC   NC355919  18.308  21.399   5.550
 8761POPC   PO455920  18.308  21.375   5.850
 8761POPC   GL155921  18.303  21.354   6.150
 8761POPC   GL255922  18.188  21.345   6.150
 8761POPC   C1A55923  18.257  21.372   6.450
 8761POPC   D2A55924  18.309  21.340   6.750
 8761POPC   C3A55925  18.271  21.436   7.050
 8761POPC   C4A55926  18.245  21.399   7.350
 8761POPC   C1B55927  18.088  21.172   6.450
 8761POPC   C2B55928  18.147  21.250   6.750
 8761POPC   C3B55929  18.094  21.170   7.050
 8761POPC   C4B55930  18.120  21.165   7.350
 8762POPC   NC355931  28.367   4.284   5.550
 8762POPC   PO455932  28.413   4.273   5.850
 8762POPC   GL155933  28.351   4.273   6.150
 8762POPC   GL255934  28.291   4.377   6.150
 8762POPC   C1A55935  28.367   4.342   6.450
 8762POPC   D2A55936  28.353   4.347   6.750
 8762POPC   C3A55937  28.371   4.281   7.050
 8762POPC   C4A55938  28.348   4.319   7.350
 8762POPC   C1B55939  28.128   4.510   6.450
 8762POPC   C2B55940  28.128   4.501   6.750
 8762POPC   C3B55941  28.191   4.425   7.050
 8762POPC   C4B55942  28.218   4.489   7.350
 8763POPC   NC355943  16.721  20.640   5.550
 8763POPC   PO455944  16.724  20.616   5.850
 8763POPC   GL155945  16.773  20.643   6.150
 8763POPC   GL255946  16.732  20.776   6.150
 8763POPC   C1A55947  16.730  20.610   6.450
 8763POPC   D2A55948  16.703  20.653   6.750
 8763POPC   C3A55949  16.739  20.592   7.050
 8763POPC   C4A55950  16.727  20.564   7.350
 8763POPC   C1B55951  16.803  20.863   6.450
 8763POPC   C2B55952  16.826  20.881   6.750
 8763POPC   C3B55953  16.791  20.865   7.050
 8763POPC   C4B55954  16.799  20.825   7.350
 8764POPC   NC355955  28.345  13.667   5.550
 8764POPC   PO455956  28.335  13.658   5.850
 8764POPC   GL155957  28.407  13.646   6.150
 8764POPC   GL255958  28.303  13.560   6.150
 8764POPC   C1A55959  28.330  13.587   6.450
 8764POPC   D2A55960  28.387  13.629   6.750
 8764POPC   C3A55961  28.326  13.622   7.050
 8764POPC   C4A55962  28.340  13.605   7.350
 8764POPC   C1B55963  28.244  13.383   6.450
 8764POPC   C2B55964  28.226  13.406   6.750
 8764POPC   C3B55965  28.265  13.392   7.050
 8764POPC   C4B55966  28.226  13.402   7.350
 8765POPC   NC355967  23.720  40.055   5.550
 8765POPC   PO455968  23.747  40.018   5.850
 8765POPC   GL155969  23.732  39.962   6.150
 8765POPC   GL255970  23.678  39.911   6.150
 8765POPC   C1A55971  23.715  39.985   6.450
 8765POPC   D2A55972  23.742  40.022   6.750
 8765POPC   C3A55973  23.715  40.016   7.050
 8765POPC   C4A55974  23.670  39.990   7.350
 8765POPC   C1B55975  23.635  39.738   6.450
 8765POPC   C2B55976  23.652  39.773   6.750
 8765POPC   C3B55977  23.614  39.786   7.050
 8765POPC   C4B55978  23.591  39.818   7.350
 8766POPC   NC355979  28.337  29.939   5.550
 8766POPC   PO455980  28.406  29.967   5.850
 8766POPC   GL155981  28.410  29.880   6.150
 8766POPC   GL255982  28.238  29.910   6.150
 8766POPC   C1A55983  28.321  29.878   6.450
 8766POPC   D2A55984  28.406  29.895   6.750
 8766POPC   C3A55985  28.339  29.928   7.050
 8766POPC   C4A55986  28.408  29.964   7.350
 8766POPC   C1B55987  28.108  29.809   6.450
 8766POPC   C2B55988  28.169  29.843   6.750
 8766POPC   C3B55989  28.157  29.854   7.050
 8766POPC   C4B55990  28.100  29.862   7.350
 8767POPC   NC355991  42.323  12.115   5.550
 8767POPC   PO455992  42.323  12.089   5.850
 8767POPC   GL155993  42.345  12.124   6.150
 8767POPC   GL255994  42.240  12.075   6.150
 8767POPC   C1A55995  42.300  12.109   6.450
 8767POPC   D2A55996  42.364  12.039   6.750
 8767POPC   C3A55997  42.365  12.051   7.050
 8767POPC   C4A55998  42.378  12.084   7.350
 8767POPC   C1B55999  42.076  12.081   6.450
 8767POPC   C2B56000  42.116  12.044   6.750
 8767POPC   C3B56001  42.038  12.072   7.050
 8767POPC   C4B56002  42.037  12.103   7.350
 8768POPC   NC356003   5.087  32.217   5.550
 8768POPC   PO456004   5.099  32.243   5.850
 8768POPC   GL156005   5.099  32.206   6.150
 8768POPC   GL256006   5.169  32.317   6.150
 8768POPC   C1A56007   5.094  32.294   6.450
 8768POPC   D2A56008   5.101  32.266   6.750
 8768POPC   C3A56009   5.100  32.267   7.050
 8768POPC   C4A56010   5.070  32.203   7.350
 8768POPC   C1B56011   5.197  32.439   6.450
 8768POPC   C2B56012   5.170  32.477   6.750
 8768POPC   C3B56013   5.266  32.457   7.050
 8768POPC   C4B56014   5.249  32.488   7.350
 8769POPC   NC356015  10.527  43.100   5.550
 8769POPC   PO456016  10.527  43.132   5.850
 8769POPC   GL156017  10.544  43.102   6.150
 8769POPC   GL256018  10.647  43.113   6.150
 8769POPC   C1A56019  10.532  43.111   6.450
 8769POPC   D2A56020  10.524  43.123   6.750
 8769POPC   C3A56021  10.496  43.120   7.050
 8769POPC   C4A56022  10.546  43.097   7.350
 8769POPC   C1B56023  10.755  42.994   6.450
 8769POPC   C2B56024  10.796  43.040   6.750
 8769POPC   C3B56025  10.758  43.047   7.050
 8769POPC   C4B56026  10.768  43.015   7.350
 8770POPC   NC356027  26.813  30.689   5.550
 8770POPC   PO456028  26.788  30.700   5.850
 8770POPC   GL156029  26.843  30.686   6.150
 8770POPC   GL256030  26.872  30.586   6.150
 8770POPC   C1A56031  26.860  30.662   6.450
 8770POPC   D2A56032  26.776  30.694   6.750
 8770POPC   C3A56033  26.850  30.659   7.050
 8770POPC   C4A56034  26.773  30.676   7.350
 8770POPC   C1B56035  27.041  30.503   6.450
 8770POPC   C2B56036  27.014  30.542   6.750
 8770POPC   C3B56037  26.993  30.507   7.050
 8770POPC   C4B56038  27.007  30.544   7.350
 8771POPC   NC356039  15.222  41.552   5.550
 8771POPC   PO456040  15.130  41.561   5.850
 8771POPC   GL156041  15.176  41.588   6.150
 8771POPC   GL256042  15.341  41.524   6.150
 8771POPC   C1A56043  15.175  41.546   6.450
 8771POPC   D2A56044  15.139  41.585   6.750
 8771POPC   C3A56045  15.186  41.523   7.050
 8771POPC   C4A56046  15.201  41.592   7.350
 8771POPC   C1B56047  15.383  41.481   6.450
 8771POPC   C2B56048  15.458  41.464   6.750
 8771POPC   C3B56049  15.405  41.531   7.050
 8771POPC   C4B56050  15.375  41.475   7.350
 8772POPC   NC356051  42.379  43.066   5.550
 8772POPC   PO456052  42.347  43.063   5.850
 8772POPC   GL156053  42.350  43.079   6.150
 8772POPC   GL256054  42.451  43.141   6.150
 8772POPC   C1A56055  42.333  43.134   6.450
 8772POPC   D2A56056  42.312  43.077   6.750
 8772POPC   C3A56057  42.357  43.061   7.050
 8772POPC   C4A56058  42.323  43.090   7.350
 8772POPC   C1B56059  42.523  43.243   6.450
 8772POPC   C2B56060  42.522  43.211   6.750
 8772POPC   C3B56061  42.591  43.250   7.050
 8772POPC   C4B56062  42.558  43.223   7.350
 8773POPC   NC356063  14.425  18.255   5.550
 8773POPC   PO456064  14.384  18.246   5.850
 8773POPC   GL156065  14.373  18.246   6.150
 8773POPC   GL256066  14.548  18.261   6.150
 8773POPC   C1A56067  14.449  18.306   6.450
 8773POPC   D2A56068  14.425  18.279   6.750
 8773POPC   C3A56069  14.391  18.326   7.050
 8773POPC   C4A56070  14.374  18.238   7.350
 8773POPC   C1B56071  14.600  18.210   6.450
 8773POPC   C2B56072  14.603  18.267   6.750
 8773POPC   C3B56073  14.689  18.210   7.050
 8773POPC   C4B56074  14.672  18.209   7.350
 8774POPC   NC356075   3.577   9.788   5.550
 8774POPC   PO456076   3.512   9.737   5.850
 8774POPC   GL156077   3.497   9.734   6.150
 8774POPC   GL256078   3.508   9.670   6.150
 8774POPC   C1A56079   3.582   9.709   6.450
 8774POPC   D2A56080   3.537   9.773   6.750
 8774POPC   C3A56081   3.572   9.798   7.050
 8774POPC   C4A56082   3.504   9.731   7.350
 8774POPC   C1B56083   3.534   9.487   6.450
 8774POPC   C2B56084   3.548   9.467   6.750
 8774POPC   C3B56085   3.517   9.536   7.050
 8774POPC   C4B56086   3.551   9.488   7.350
 8775POPC   NC356087  25.292   5.878   5.550
 8775POPC   PO456088  25.223   5.879   5.850
 8775POPC   GL156089  25.307   5.827   6.150
 8775POPC   GL256090  25.417   5.795   6.150
 8775POPC   C1A56091  25.314   5.826   6.450
 8775POPC   D2A56092  25.244   5.878   6.750
 8775POPC   C3A56093  25.263   5.867   7.050
 8775POPC   C4A56094  25.271   5.863   7.350
 8775POPC   C1B56095  25.540   5.837   6.450
 8775POPC   C2B56096  25.478   5.791   6.750
 8775POPC   C3B56097  25.479   5.795   7.050
 8775POPC   C4B56098  25.540   5.776   7.350
 8776POPC   NC356099  15.964  43.915   5.550
 8776POPC   PO456100  15.934  43.863   5.850
 8776POPC   GL156101  15.981  43.868   6.150
 8776POPC   GL256102  16.053  43.831   6.150
 8776POPC   C1A56103  15.909  43.862   6.450
 8776POPC   D2A56104  15.914  43.930   6.750
 8776POPC   C3A56105  15.963  43.899   7.050
 8776POPC   C4A56106  15.957  43.913   7.350
 8776POPC   C1B56107  16.228  43.830   6.450
 8776POPC   C2B56108  16.238  43.861   6.750
 8776POPC   C3B56109  16.181  43.781   7.050
 8776POPC   C4B56110  16.246  43.817   7.350
 8777POPC   NC356111  30.735  14.423   5.550
 8777POPC   PO456112  30.684  14.450   5.850
 8777POPC   GL156113  30.691  14.420   6.150
 8777POPC   GL256114  30.582  14.389   6.150
 8777POPC   C1A56115  30.699  14.367   6.450
 8777POPC   D2A56116  30.701  14.429   6.750
 8777POPC   C3A56117  30.686  14.357   7.050
 8777POPC   C4A56118  30.692  14.452   7.350
 8777POPC   C1B56119  30.448  14.367   6.450
 8777POPC   C2B56120  30.478  14.395   6.750
 8777POPC   C3B56121  30.492  14.331   7.050
 8777POPC   C4B56122  30.445  14.372   7.350
 8778POPC   NC356123   1.976   5.117   5.550
 8778POPC   PO456124   2.016   5.051   5.850
 8778POPC   GL156125   1.975   5.105   6.150
 8778POPC   GL256126   2.051   5.230   6.150
 8778POPC   C1A56127   2.008   5.104   6.450
 8778POPC   D2A56128   1.964   5.069   6.750
 8778POPC   C3A56129   2.012   5.067   7.050
 8778POPC   C4A56130   1.954   5.101   7.350
 8778POPC   C1B56131   2.082   5.369   6.450
 8778POPC   C2B56132   2.009   5.365   6.750
 8778POPC   C3B56133   2.049   5.295   7.050
 8778POPC   C4B56134   2.039   5.343   7.350
 8779POPC   NC356135   8.180   7.417   5.550
 8779POPC   PO456136   8.158   7.379   5.850
 8779POPC   GL156137   8.192   7.384   6.150
 8779POPC   GL256138   8.054   7.409   6.150
 8779POPC   C1A56139   8.171   7.396   6.450
 8779POPC   D2A56140   8.228   7.392   6.750
 8779POPC   C3A56141   8.160   7.458   7.050
 8779POPC   C4A56142   8.242   7.419   7.350
 8779POPC   C1B56143   7.934   7.471   6.450
 8779POPC   C2B56144   7.902   7.428   6.750
 8779POPC   C3B56145   7.981   7.460   7.050
 8779POPC   C4B56146   7.915   7.430   7.350
 8780POPC   NC356147  34.570  25.277   5.550
 8780POPC   PO456148  34.563  25.234   5.850
 8780POPC   GL156149  34.533  25.253   6.150
 8780POPC   GL256150  34.549  25.366   6.150
 8780POPC   C1A56151  34.557  25.246   6.450
 8780POPC   D2A56152  34.582  25.273   6.750
 8780POPC   C3A56153  34.609  25.279   7.050
 8780POPC   C4A56154  34.579  25.262   7.350
 8780POPC   C1B56155  34.615  25.545   6.450
 8780POPC   C2B56156  34.584  25.507   6.750
 8780POPC   C3B56157  34.642  25.491   7.050
 8780POPC   C4B56158  34.555  25.530   7.350
 8781POPC   NC356159  17.465  21.402   5.550
 8781POPC   PO456160  17.531  21.375   5.850
 8781POPC   GL156161  17.500  21.430   6.150
 8781POPC   GL256162  17.537  21.308   6.150
 8781POPC   C1A56163  17.461  21.348   6.450
 8781POPC   D2A56164  17.463  21.380   6.750
 8781POPC   C3A56165  17.471  21.363   7.050
 8781POPC   C4A56166  17.459  21.432   7.350
 8781POPC   C1B56167  17.549  21.140   6.450
 8781POPC   C2B56168  17.477  21.180   6.750
 8781POPC   C3B56169  17.503  21.165   7.050
 8781POPC   C4B56170  17.496  21.130   7.350
 8782POPC   NC356171   3.503  38.408   5.550
 8782POPC   PO456172   3.574  38.460   5.850
 8782POPC   GL156173   3.532  38.473   6.150
 8782POPC   GL256174   3.576  38.545   6.150
 8782POPC   C1A56175   3.510  38.467   6.450
 8782POPC   D2A56176   3.506  38.449   6.750
 8782POPC   C3A56177   3.558  38.406   7.050
 8782POPC   C4A56178   3.504  38.488   7.350
 8782POPC   C1B56179   3.649  38.661   6.450
 8782POPC   C2B56180   3.577  38.714   6.750
 8782POPC   C3B56181   3.565  38.662   7.050
 8782POPC   C4B56182   3.616  38.675   7.350
 8783POPC   NC356183  22.204  13.656   5.550
 8783POPC   PO456184  22.148  13.601   5.850
 8783POPC   GL156185  22.158  13.580   6.150
 8783POPC   GL256186  22.319  13.674   6.150
 8783POPC   C1A56187  22.127  13.598   6.450
 8783POPC   D2A56188  22.194  13.675   6.750
 8783POPC   C3A56189  22.127  13.600   7.050
 8783POPC   C4A56190  22.120  13.649   7.350
 8783POPC   C1B56191  22.436  13.666   6.450
 8783POPC   C2B56192  22.398  13.677   6.750
 8783POPC   C3B56193  22.358  13.678   7.050
 8783POPC   C4B56194  22.408  13.727   7.350
 8784POPC   NC356195  35.319  39.984   5.550
 8784POPC   PO456196  35.319  40.013   5.850
 8784POPC   GL156197  35.308  40.051   6.150
 8784POPC   GL256198  35.259  39.914   6.150
 8784POPC   C1A56199  35.331  39.983   6.450
 8784POPC   D2A56200  35.362  39.962   6.750
 8784POPC   C3A56201  35.334  40.000   7.050
 8784POPC   C4A56202  35.331  39.968   7.350
 8784POPC   C1B56203  35.209  39.742   6.450
 8784POPC   C2B56204  35.228  39.780   6.750
 8784POPC   C3B56205  35.286  39.776   7.050
 8784POPC   C4B56206  35.292  39.746   7.350
 8785POPC   NC356207  22.961  33.051   5.550
 8785POPC   PO456208  22.892  32.989   5.850
 8785POPC   GL156209  22.937  32.982   6.150
 8785POPC   GL256210  22.909  32.901   6.150
 8785POPC   C1A56211  22.963  33.010   6.450
 8785POPC   D2A56212  22.911  32.992   6.750
 8785POPC   C3A56213  22.924  33.003   7.050
 8785POPC   C4A56214  22.939  33.050   7.350
 8785POPC   C1B56215  22.811  32.768   6.450
 8785POPC   C2B56216  22.818  32.813   6.750
 8785POPC   C3B56217  22.846  32.752   7.050
 8785POPC   C4B56218  22.860  32.836   7.350
 8786POPC   NC356219   5.901  22.152   5.550
 8786POPC   PO456220   5.860  22.125   5.850
 8786POPC   GL156221   5.861  22.152   6.150
 8786POPC   GL256222   5.795  22.285   6.150
 8786POPC   C1A56223   5.894  22.208   6.450
 8786POPC   D2A56224   5.845  22.188   6.750
 8786POPC   C3A56225   5.916  22.181   7.050
 8786POPC   C4A56226   5.862  22.146   7.350
 8786POPC   C1B56227   5.696  22.315   6.450
 8786POPC   C2B56228   5.658  22.349   6.750
 8786POPC   C3B56229   5.704  22.373   7.050
 8786POPC   C4B56230   5.697  22.392   7.350
 8787POPC   NC356231  36.888  29.954   5.550
 8787POPC   PO456232  36.941  29.927   5.850
 8787POPC   GL156233  36.894  29.892   6.150
 8787POPC   GL256234  36.956  30.079   6.150
 8787POPC   C1A56235  36.941  29.964   6.450
 8787POPC   D2A56236  36.924  29.941   6.750
 8787POPC   C3A56237  36.943  29.931   7.050
 8787POPC   C4A56238  36.866  29.891   7.350
 8787POPC   C1B56239  36.875  30.170   6.450
 8787POPC   C2B56240  36.960  30.126   6.750
 8787POPC   C3B56241  36.943  30.211   7.050
 8787POPC   C4B56242  36.967  30.127   7.350
 8788POPC   NC356243  22.188   6.606   5.550
 8788POPC   PO456244  22.200   6.599   5.850
 8788POPC   GL156245  22.153   6.598   6.150
 8788POPC   GL256246  22.139   6.756   6.150
 8788POPC   C1A56247  22.153   6.644   6.450
 8788POPC   D2A56248  22.195   6.675   6.750
 8788POPC   C3A56249  22.135   6.613   7.050
 8788POPC   C4A56250  22.170   6.603   7.350
 8788POPC   C1B56251  21.999   6.820   6.450
 8788POPC   C2B56252  22.060   6.902   6.750
 8788POPC   C3B56253  21.984   6.816   7.050
 8788POPC   C4B56254  22.078   6.876   7.350
 8789POPC   NC356255   1.247   2.019   5.550
 8789POPC   PO456256   1.181   2.023   5.850
 8789POPC   GL156257   1.164   2.013   6.150
 8789POPC   GL256258   1.154   1.841   6.150
 8789POPC   C1A56259   1.226   1.957   6.450
 8789POPC   D2A56260   1.178   1.990   6.750
 8789POPC   C3A56261   1.194   1.982   7.050
 8789POPC   C4A56262   1.215   1.969   7.350
 8789POPC   C1B56263   1.084   1.766   6.450
 8789POPC   C2B56264   1.066   1.738   6.750
 8789POPC   C3B56265   1.067   1.732   7.050
 8789POPC   C4B56266   1.086   1.744   7.350
 8790POPC   NC356267   4.274  29.891   5.550
 8790POPC   PO456268   4.366  29.875   5.850
 8790POPC   GL156269   4.296  29.932   6.150
 8790POPC   GL256270   4.362  30.067   6.150
 8790POPC   C1A56271   4.323  29.939   6.450
 8790POPC   D2A56272   4.350  29.937   6.750
 8790POPC   C3A56273   4.354  29.950   7.050
 8790POPC   C4A56274   4.274  29.892   7.350
 8790POPC   C1B56275   4.407  30.119   6.450
 8790POPC   C2B56276   4.339  30.192   6.750
 8790POPC   C3B56277   4.400  30.164   7.050
 8790POPC   C4B56278   4.339  30.141   7.350
 8791POPC   NC356279   8.238   8.147   5.550
 8791POPC   PO456280   8.216   8.212   5.850
 8791POPC   GL156281   8.149   8.238   6.150
 8791POPC   GL256282   8.345   8.222   6.150
 8791POPC   C1A56283   8.188   8.193   6.450
 8791POPC   D2A56284   8.201   8.215   6.750
 8791POPC   C3A56285   8.166   8.221   7.050
 8791POPC   C4A56286   8.171   8.170   7.350
 8791POPC   C1B56287   8.429   8.263   6.450
 8791POPC   C2B56288   8.451   8.238   6.750
 8791POPC   C3B56289   8.452   8.270   7.050
 8791POPC   C4B56290   8.462   8.187   7.350
 8792POPC   NC356291  36.097  22.144   5.550
 8792POPC   PO456292  36.171  22.117   5.850
 8792POPC   GL156293  36.099  22.194   6.150
 8792POPC   GL256294  36.167  22.278   6.150
 8792POPC   C1A56295  36.080  22.168   6.450
 8792POPC   D2A56296  36.147  22.143   6.750
 8792POPC   C3A56297  36.078  22.186   7.050
 8792POPC   C4A56298  36.097  22.156   7.350
 8792POPC   C1B56299  36.309  22.380   6.450
 8792POPC   C2B56300  36.314  22.348   6.750
 8792POPC   C3B56301  36.273  22.329   7.050
 8792POPC   C4B56302  36.310  22.373   7.350
 8793POPC   NC356303   5.115  19.832   5.550
 8793POPC   PO456304   5.104  19.831   5.850
 8793POPC   GL156305   5.136  19.798   6.150
 8793POPC   GL256306   5.027  19.705   6.150
 8793POPC   C1A56307   5.086  19.869   6.450
 8793POPC   D2A56308   5.098  19.847   6.750
 8793POPC   C3A56309   5.091  19.878   7.050
 8793POPC   C4A56310   5.061  19.836   7.350
 8793POPC   C1B56311   5.063  19.597   6.450
 8793POPC   C2B56312   5.079  19.546   6.750
 8793POPC   C3B56313   5.043  19.569   7.050
 8793POPC   C4B56314   5.003  19.578   7.350
 8794POPC   NC356315  20.562  30.655   5.550
 8794POPC   PO456316  20.588  30.667   5.850
 8794POPC   GL156317  20.633  30.662   6.150
 8794POPC   GL256318  20.555  30.812   6.150
 8794POPC   C1A56319  20.641  30.702   6.450
 8794POPC   D2A56320  20.572  30.711   6.750
 8794POPC   C3A56321  20.632  30.683   7.050
 8794POPC   C4A56322  20.601  30.702   7.350
 8794POPC   C1B56323  20.510  30.970   6.450
 8794POPC   C2B56324  20.553  30.914   6.750
 8794POPC   C3B56325  20.540  30.887   7.050
 8794POPC   C4B56326  20.505  30.947   7.350
 8795POPC   NC356327   5.845  19.832   5.550
 8795POPC   PO456328   5.827  19.811   5.850
 8795POPC   GL156329   5.890  19.799   6.150
 8795POPC   GL256330   5.977  19.796   6.150
 8795POPC   C1A56331   5.838  19.853   6.450
 8795POPC   D2A56332   5.878  19.798   6.750
 8795POPC   C3A56333   5.915  19.859   7.050
 8795POPC   C4A56334   5.875  19.874   7.350
 8795POPC   C1B56335   6.140  19.742   6.450
 8795POPC   C2B56336   6.132  19.738   6.750
 8795POPC   C3B56337   6.123  19.775   7.050
 8795POPC   C4B56338   6.087  19.766   7.350
 8796POPC   NC356339   9.772  31.496   5.550
 8796POPC   PO456340   9.720  31.437   5.850
 8796POPC   GL156341   9.785  31.507   6.150
 8796POPC   GL256342   9.881  31.478   6.150
 8796POPC   C1A56343   9.698  31.503   6.450
 8796POPC   D2A56344   9.739  31.488   6.750
 8796POPC   C3A56345   9.770  31.514   7.050
 8796POPC   C4A56346   9.742  31.496   7.350
 8796POPC   C1B56347  10.012  31.606   6.450
 8796POPC   C2B56348  10.029  31.543   6.750
 8796POPC   C3B56349  10.028  31.535   7.050
 8796POPC   C4B56350  10.009  31.523   7.350
 8797POPC   NC356351  31.459   2.779   5.550
 8797POPC   PO456352  31.518   2.753   5.850
 8797POPC   GL156353  31.463   2.755   6.150
 8797POPC   GL256354  31.606   2.805   6.150
 8797POPC   C1A56355  31.450   2.786   6.450
 8797POPC   D2A56356  31.439   2.799   6.750
 8797POPC   C3A56357  31.438   2.720   7.050
 8797POPC   C4A56358  31.463   2.742   7.350
 8797POPC   C1B56359  31.704   2.889   6.450
 8797POPC   C2B56360  31.709   2.910   6.750
 8797POPC   C3B56361  31.693   2.953   7.050
 8797POPC   C4B56362  31.659   2.973   7.350
 8798POPC   NC356363  12.894  35.366   5.550
 8798POPC   PO456364  12.823  35.367   5.850
 8798POPC   GL156365  12.839  35.376   6.150
 8798POPC   GL256366  12.737  35.287   6.150
 8798POPC   C1A56367  12.838  35.397   6.450
 8798POPC   D2A56368  12.808  35.369   6.750
 8798POPC   C3A56369  12.833  35.321   7.050
 8798POPC   C4A56370  12.861  35.369   7.350
 8798POPC   C1B56371  12.697  35.181   6.450
 8798POPC   C2B56372  12.693  35.187   6.750
 8798POPC   C3B56373  12.650  35.126   7.050
 8798POPC   C4B56374  12.727  35.127   7.350
 8799POPC   NC356375   4.303  36.924   5.550
 8799POPC   PO456376   4.327  36.937   5.850
 8799POPC   GL156377   4.351  36.859   6.150
 8799POPC   GL256378   4.178  36.821   6.150
 8799POPC   C1A56379   4.269  36.863   6.450
 8799POPC   D2A56380   4.321  36.865   6.750
 8799POPC   C3A56381   4.347  36.895   7.050
 8799POPC   C4A56382   4.290  36.944   7.350
 8799POPC   C1B56383   4.086  36.857   6.450
 8799POPC   C2B56384   4.033  36.835   6.750
 8799POPC   C3B56385   4.092  36.800   7.050
 8799POPC   C4B56386   4.057  36.783   7.350
 8800POPC   NC356387  38.480  13.598   5.550
 8800POPC   PO456388  38.483  13.611   5.850
 8800POPC   GL156389  38.427  13.615   6.150
 8800POPC   GL256390  38.344  13.527   6.150
 8800POPC   C1A56391  38.495  13.645   6.450
 8800POPC   D2A56392  38.478  13.664   6.750
 8800POPC   C3A56393  38.452  13.628   7.050
 8800POPC   C4A56394  38.475  13.666   7.350
 8800POPC   C1B56395  38.225  13.486   6.450
 8800POPC   C2B56396  38.234  13.431   6.750
 8800POPC   C3B56397  38.282  13.504   7.050
 8800POPC   C4B56398  38.297  13.505   7.350
 8801POPC   NC356399   2.024  41.539   5.550
 8801POPC   PO456400   2.008  41.509   5.850
 8801POPC   GL156401   2.006  41.538   6.150
 8801POPC   GL256402   2.099  41.597   6.150
 8801POPC   C1A56403   2.017  41.529   6.450
 8801POPC   D2A56404   1.985  41.517   6.750
 8801POPC   C3A56405   2.032  41.538   7.050
 8801POPC   C4A56406   1.968  41.566   7.350
 8801POPC   C1B56407   2.218  41.617   6.450
 8801POPC   C2B56408   2.235  41.580   6.750
 8801POPC   C3B56409   2.249  41.582   7.050
 8801POPC   C4B56410   2.236  41.663   7.350
 8802POPC   NC356411   5.047  11.330   5.550
 8802POPC   PO456412   5.063  11.322   5.850
 8802POPC   GL156413   5.087  11.291   6.150
 8802POPC   GL256414   5.093  11.396   6.150
 8802POPC   C1A56415   5.080  11.337   6.450
 8802POPC   D2A56416   5.102  11.277   6.750
 8802POPC   C3A56417   5.079  11.298   7.050
 8802POPC   C4A56418   5.066  11.259   7.350
 8802POPC   C1B56419   5.125  11.524   6.450
 8802POPC   C2B56420   5.127  11.575   6.750
 8802POPC   C3B56421   5.099  11.562   7.050
 8802POPC   C4B56422   5.086  11.533   7.350
 8803POPC   NC356423  36.856  24.459   5.550
 8803POPC   PO456424  36.885  24.460   5.850
 8803POPC   GL156425  36.922  24.442   6.150
 8803POPC   GL256426  36.809  24.375   6.150
 8803POPC   C1A56427  36.886  24.531   6.450
 8803POPC   D2A56428  36.940  24.528   6.750
 8803POPC   C3A56429  36.913  24.456   7.050
 8803POPC   C4A56430  36.862  24.530   7.350
 8803POPC   C1B56431  36.758  24.297   6.450
 8803POPC   C2B56432  36.777  24.281   6.750
 8803POPC   C3B56433  36.762  24.247   7.050
 8803POPC   C4B56434  36.754  24.224   7.350
 8804POPC   NC356435  29.924  31.437   5.550
 8804POPC   PO456436  29.893  31.428   5.850
 8804POPC   GL156437  29.970  31.457   6.150
 8804POPC   GL256438  29.795  31.401   6.150
 8804POPC   C1A56439  29.963  31.446   6.450
 8804POPC   D2A56440  29.966  31.435   6.750
 8804POPC   C3A56441  29.904  31.441   7.050
 8804POPC   C4A56442  29.929  31.430   7.350
 8804POPC   C1B56443  29.715  31.447   6.450
 8804POPC   C2B56444  29.654  31.452   6.750
 8804POPC   C3B56445  29.686  31.373   7.050
 8804POPC   C4B56446  29.634  31.429   7.350
 8805POPC   NC356447  12.859  29.152   5.550
 8805POPC   PO456448  12.859  29.136   5.850
 8805POPC   GL156449  12.890  29.166   6.150
 8805POPC   GL256450  12.759  29.203   6.150
 8805POPC   C1A56451  12.806  29.123   6.450
 8805POPC   D2A56452  12.803  29.178   6.750
 8805POPC   C3A56453  12.872  29.191   7.050
 8805POPC   C4A56454  12.869  29.108   7.350
 8805POPC   C1B56455  12.697  29.360   6.450
 8805POPC   C2B56456  12.727  29.350   6.750
 8805POPC   C3B56457  12.678  29.364   7.050
 8805POPC   C4B56458  12.660  29.384   7.350
 8806POPC   NC356459  23.673  15.191   5.550
 8806POPC   PO456460  23.730  15.169   5.850
 8806POPC   GL156461  23.722  15.203   6.150
 8806POPC   GL256462  23.838  15.234   6.150
 8806POPC   C1A56463  23.691  15.152   6.450
 8806POPC   D2A56464  23.718  15.193   6.750
 8806POPC   C3A56465  23.704  15.193   7.050
 8806POPC   C4A56466  23.723  15.215   7.350
 8806POPC   C1B56467  23.928  15.218   6.450
 8806POPC   C2B56468  23.964  15.260   6.750
 8806POPC   C3B56469  23.920  15.247   7.050
 8806POPC   C4B56470  23.951  15.247   7.350
 8807POPC   NC356471   5.868  27.550   5.550
 8807POPC   PO456472   5.913  27.596   5.850
 8807POPC   GL156473   5.877  27.629   6.150
 8807POPC   GL256474   5.856  27.705   6.150
 8807POPC   C1A56475   5.914  27.565   6.450
 8807POPC   D2A56476   5.901  27.543   6.750
 8807POPC   C3A56477   5.904  27.606   7.050
 8807POPC   C4A56478   5.910  27.551   7.350
 8807POPC   C1B56479   5.862  27.828   6.450
 8807POPC   C2B56480   5.857  27.793   6.750
 8807POPC   C3B56481   5.853  27.816   7.050
 8807POPC   C4B56482   5.850  27.871   7.350
 8808POPC   NC356483  25.306  22.948   5.550
 8808POPC   PO456484  25.262  22.959   5.850
 8808POPC   GL156485  25.231  22.952   6.150
 8808POPC   GL256486  25.262  23.093   6.150
 8808POPC   C1A56487  25.239  22.926   6.450
 8808POPC   D2A56488  25.314  22.909   6.750
 8808POPC   C3A56489  25.227  22.986   7.050
 8808POPC   C4A56490  25.309  22.934   7.350
 8808POPC   C1B56491  25.357  23.221   6.450
 8808POPC   C2B56492  25.343  23.162   6.750
 8808POPC   C3B56493  25.350  23.191   7.050
 8808POPC   C4B56494  25.361  23.144   7.350
 8809POPC   NC356495  14.411   1.956   5.550
 8809POPC   PO456496  14.448   1.973   5.850
 8809POPC   GL156497  14.357   1.946   6.150
 8809POPC   GL256498  14.534   1.871   6.150
 8809POPC   C1A56499  14.413   1.971   6.450
 8809POPC   D2A56500  14.368   2.031   6.750
 8809POPC   C3A56501  14.372   1.976   7.050
 8809POPC   C4A56502  14.416   1.996   7.350
 8809POPC   C1B56503  14.569   1.791   6.450
 8809POPC   C2B56504  14.608   1.781   6.750
 8809POPC   C3B56505  14.526   1.778   7.050
 8809POPC   C4B56506  14.534   1.761   7.350
 8810POPC   NC356507  22.929  19.801   5.550
 8810POPC   PO456508  22.899  19.832   5.850
 8810POPC   GL156509  22.958  19.803   6.150
 8810POPC   GL256510  23.016  19.744   6.150
 8810POPC   C1A56511  22.978  19.882   6.450
 8810POPC   D2A56512  22.983  19.855   6.750
 8810POPC   C3A56513  22.960  19.812   7.050
 8810POPC   C4A56514  22.892  19.803   7.350
 8810POPC   C1B56515  23.026  19.612   6.450
 8810POPC   C2B56516  23.096  19.597   6.750
 8810POPC   C3B56517  23.063  19.644   7.050
 8810POPC   C4B56518  23.112  19.593   7.350
 8811POPC   NC356519  42.318   5.055   5.550
 8811POPC   PO456520  42.379   5.105   5.850
 8811POPC   GL156521  42.313   5.126   6.150
 8811POPC   GL256522  42.285   5.171   6.150
 8811POPC   C1A56523  42.307   5.081   6.450
 8811POPC   D2A56524  42.286   5.139   6.750
 8811POPC   C3A56525  42.360   5.062   7.050
 8811POPC   C4A56526  42.321   5.044   7.350
 8811POPC   C1B56527  42.289   5.308   6.450
 8811POPC   C2B56528  42.282   5.374   6.750
 8811POPC   C3B56529  42.329   5.385   7.050
 8811POPC   C4B56530  42.327   5.373   7.350
 8812POPC   NC356531  26.851  37.681   5.550
 8812POPC   PO456532  26.867  37.682   5.850
 8812POPC   GL156533  26.861  37.642   6.150
 8812POPC   GL256534  26.906  37.689   6.150
 8812POPC   C1A56535  26.793  37.661   6.450
 8812POPC   D2A56536  26.808  37.707   6.750
 8812POPC   C3A56537  26.860  37.724   7.050
 8812POPC   C4A56538  26.808  37.690   7.350
 8812POPC   C1B56539  27.086  37.676   6.450
 8812POPC   C2B56540  27.101  37.635   6.750
 8812POPC   C3B56541  27.036  37.636   7.050
 8812POPC   C4B56542  27.067  37.695   7.350
 8813POPC   NC356543  29.903   2.018   5.550
 8813POPC   PO456544  29.961   1.988   5.850
 8813POPC   GL156545  29.926   1.942   6.150
 8813POPC   GL256546  30.003   1.998   6.150
 8813POPC   C1A56547  29.871   1.974   6.450
 8813POPC   D2A56548  29.913   2.011   6.750
 8813POPC   C3A56549  29.926   2.015   7.050
 8813POPC   C4A56550  29.942   1.950   7.350
 8813POPC   C1B56551  30.166   2.120   6.450
 8813POPC   C2B56552  30.133   2.052   6.750
 8813POPC   C3B56553  30.111   2.097   7.050
 8813POPC   C4B56554  30.106   2.138   7.350
 8814POPC   NC356555  16.696  15.168   5.550
 8814POPC   PO456556  16.758  15.204   5.850
 8814POPC   GL156557  16.755  15.229   6.150
 8814POPC   GL256558  16.820  15.229   6.150
 8814POPC   C1A56559  16.776  15.188   6.450
 8814POPC   D2A56560  16.700  15.227   6.750
 8814POPC   C3A56561  16.710  15.185   7.050
 8814POPC   C4A56562  16.763  15.196   7.350
 8814POPC   C1B56563  16.973  15.307   6.450
 8814POPC   C2B56564  16.965  15.317   6.750
 8814POPC   C3B56565  16.994  15.238   7.050
 8814POPC   C4B56566  16.944  15.302   7.350
 8815POPC   NC356567  35.364  10.485   5.550
 8815POPC   PO456568  35.375  10.508   5.850
 8815POPC   GL156569  35.373  10.525   6.150
 8815POPC   GL256570  35.226  10.473   6.150
 8815POPC   C1A56571  35.354  10.525   6.450
 8815POPC   D2A56572  35.387  10.507   6.750
 8815POPC   C3A56573  35.376  10.541   7.050
 8815POPC   C4A56574  35.397  10.500   7.350
 8815POPC   C1B56575  35.233  10.352   6.450
 8815POPC   C2B56576  35.183  10.353   6.750
 8815POPC   C3B56577  35.206  10.343   7.050
 8815POPC   C4B56578  35.176  10.304   7.350
 8816POPC   NC356579  36.928   5.912   5.550
 8816POPC   PO456580  36.929   5.904   5.850
 8816POPC   GL156581  36.924   5.863   6.150
 8816POPC   GL256582  36.942   6.011   6.150
 8816POPC   C1A56583  36.873   5.891   6.450
 8816POPC   D2A56584  36.938   5.906   6.750
 8816POPC   C3A56585  36.938   5.836   7.050
 8816POPC   C4A56586  36.931   5.865   7.350
 8816POPC   C1B56587  36.979   6.048   6.450
 8816POPC   C2B56588  37.023   6.115   6.750
 8816POPC   C3B56589  36.995   6.121   7.050
 8816POPC   C4B56590  36.991   6.133   7.350
 8817POPC   NC356591  16.703  29.173   5.550
 8817POPC   PO456592  16.775  29.117   5.850
 8817POPC   GL156593  16.720  29.113   6.150
 8817POPC   GL256594  16.795  29.050   6.150
 8817POPC   C1A56595  16.696  29.100   6.450
 8817POPC   D2A56596  16.733  29.185   6.750
 8817POPC   C3A56597  16.685  29.176   7.050
 8817POPC   C4A56598  16.726  29.128   7.350
 8817POPC   C1B56599  16.772  28.884   6.450
 8817POPC   C2B56600  16.776  28.889   6.750
 8817POPC   C3B56601  16.768  28.877   7.050
 8817POPC   C4B56602  16.795  28.892   7.350
 8818POPC   NC356603  29.127   8.208   5.550
 8818POPC   PO456604  29.189   8.224   5.850
 8818POPC   GL156605  29.159   8.168   6.150
 8818POPC   GL256606  29.127   8.085   6.150
 8818POPC   C1A56607  29.141   8.164   6.450
 8818POPC   D2A56608  29.170   8.202   6.750
 8818POPC   C3A56609  29.136   8.148   7.050
 8818POPC   C4A56610  29.158   8.185   7.350
 8818POPC   C1B56611  29.052   8.009   6.450
 8818POPC   C2B56612  29.013   8.008   6.750
 8818POPC   C3B56613  29.072   8.017   7.050
 8818POPC   C4B56614  29.040   7.969   7.350
 8819POPC   NC356615  21.343  43.901   5.550
 8819POPC   PO456616  21.363  43.936   5.850
 8819POPC   GL156617  21.416  43.856   6.150
 8819POPC   GL256618  21.460  43.824   6.150
 8819POPC   C1A56619  21.351  43.849   6.450
 8819POPC   D2A56620  21.425  43.841   6.750
 8819POPC   C3A56621  21.346  43.901   7.050
 8819POPC   C4A56622  21.430  43.840   7.350
 8819POPC   C1B56623  21.665  43.802   6.450
 8819POPC   C2B56624  21.595  43.801   6.750
 8819POPC   C3B56625  21.593  43.835   7.050
 8819POPC   C4B56626  21.632  43.853   7.350
 8820POPC   NC356627  27.565  26.051   5.550
 8820POPC   PO456628  27.599  26.043   5.850
 8820POPC   GL156629  27.619  26.086   6.150
 8820POPC   GL256630  27.480  26.123   6.150
 8820POPC   C1A56631  27.641  26.038   6.450
 8820POPC   D2A56632  27.643  25.996   6.750
 8820POPC   C3A56633  27.578  26.006   7.050
 8820POPC   C4A56634  27.600  26.026   7.350
 8820POPC   C1B56635  27.331  26.151   6.450
 8820POPC   C2B56636  27.360  26.142   6.750
 8820POPC   C3B56637  27.320  26.144   7.050
 8820POPC   C4B56638  27.393  26.195   7.350
 8821POPC   NC356639  26.002  40.024   5.550
 8821POPC   PO456640  26.043  40.046   5.850
 8821POPC   GL156641  26.008  40.051   6.150
 8821POPC   GL256642  26.208  40.041   6.150
 8821POPC   C1A56643  25.998  40.031   6.450
 8821POPC   D2A56644  26.025  39.963   6.750
 8821POPC   C3A56645  26.071  39.986   7.050
 8821POPC   C4A56646  26.055  39.998   7.350
 8821POPC   C1B56647  26.330  40.113   6.450
 8821POPC   C2B56648  26.261  40.050   6.750
 8821POPC   C3B56649  26.248  40.109   7.050
 8821POPC   C4B56650  26.280  40.075   7.350
 8822POPC   NC356651  44.711  19.024   5.550
 8822POPC   PO456652  44.656  19.072   5.850
 8822POPC   GL156653  44.615  19.034   6.150
 8822POPC   GL256654  44.779  19.025   6.150
 8822POPC   C1A56655  44.635  19.055   6.450
 8822POPC   D2A56656  44.637  19.100   6.750
 8822POPC   C3A56657  44.662  19.076   7.050
 8822POPC   C4A56658  44.654  19.098   7.350
 8822POPC   C1B56659  44.890  18.992   6.450
 8822POPC   C2B56660  44.942  19.009   6.750
 8822POPC   C3B56661  44.926  18.993   7.050
 8822POPC   C4B56662  44.938  18.981   7.350
 8823POPC   NC356663  34.554  36.169   5.550
 8823POPC   PO456664  34.555  36.130   5.850
 8823POPC   GL156665  34.581  36.176   6.150
 8823POPC   GL256666  34.713  36.057   6.150
 8823POPC   C1A56667  34.558  36.114   6.450
 8823POPC   D2A56668  34.545  36.164   6.750
 8823POPC   C3A56669  34.613  36.100   7.050
 8823POPC   C4A56670  34.559  36.153   7.350
 8823POPC   C1B56671  34.784  36.064   6.450
 8823POPC   C2B56672  34.801  36.079   6.750
 8823POPC   C3B56673  34.787  36.075   7.050
 8823POPC   C4B56674  34.767  36.013   7.350
 8824POPC   NC356675  16.684  43.909   5.550
 8824POPC   PO456676  16.682  43.924   5.850
 8824POPC   GL156677  16.732  43.897   6.150
 8824POPC   GL256678  16.577  43.817   6.150
 8824POPC   C1A56679  16.738  43.933   6.450
 8824POPC   D2A56680  16.759  43.848   6.750
 8824POPC   C3A56681  16.766  43.919   7.050
 8824POPC   C4A56682  16.692  43.932   7.350
 8824POPC   C1B56683  16.502  43.839   6.450
 8824POPC   C2B56684  16.466  43.770   6.750
 8824POPC   C3B56685  16.470  43.832   7.050
 8824POPC   C4B56686  16.492  43.797   7.350
 8825POPC   NC356687  14.428   0.469   5.550
 8825POPC   PO456688  14.436   0.390   5.850
 8825POPC   GL156689  14.359   0.400   6.150
 8825POPC   GL256690  14.335   0.494   6.150
 8825POPC   C1A56691  14.371   0.467   6.450
 8825POPC   D2A56692  14.404   0.434   6.750
 8825POPC   C3A56693  14.390   0.396   7.050
 8825POPC   C4A56694  14.371   0.444   7.350
 8825POPC   C1B56695  14.200   0.602   6.450
 8825POPC   C2B56696  14.186   0.580   6.750
 8825POPC   C3B56697  14.201   0.590   7.050
 8825POPC   C4B56698  14.214   0.625   7.350
 8826POPC   NC356699  38.444  44.656   5.550
 8826POPC   PO456700  38.468  44.642   5.850
 8826POPC   GL156701  38.441  44.637   6.150
 8826POPC   GL256702  38.510  44.818   6.150
 8826POPC   C1A56703  38.465  44.648   6.450
 8826POPC   D2A56704  38.459  44.663   6.750
 8826POPC   C3A56705  38.505  44.698   7.050
 8826POPC   C4A56706  38.479  44.679   7.350
 8826POPC   C1B56707  38.563  44.898   6.450
 8826POPC   C2B56708  38.499  44.860   6.750
 8826POPC   C3B56709  38.517  44.944   7.050
 8826POPC   C4B56710  38.508  44.872   7.350
 8827POPC   NC356711  43.894  12.867   5.550
 8827POPC   PO456712  43.910  12.861   5.850
 8827POPC   GL156713  43.863  12.895   6.150
 8827POPC   GL256714  44.054  12.800   6.150
 8827POPC   C1A56715  43.908  12.868   6.450
 8827POPC   D2A56716  43.922  12.866   6.750
 8827POPC   C3A56717  43.857  12.803   7.050
 8827POPC   C4A56718  43.921  12.894   7.350
 8827POPC   C1B56719  44.138  12.750   6.450
 8827POPC   C2B56720  44.098  12.819   6.750
 8827POPC   C3B56721  44.172  12.751   7.050
 8827POPC   C4B56722  44.138  12.824   7.350
 8828POPC   NC356723   8.208   8.993   5.550
 8828POPC   PO456724   8.221   8.924   5.850
 8828POPC   GL156725   8.196   8.985   6.150
 8828POPC   GL256726   8.195   9.114   6.150
 8828POPC   C1A56727   8.214   8.990   6.450
 8828POPC   D2A56728   8.159   8.963   6.750
 8828POPC   C3A56729   8.149   9.016   7.050
 8828POPC   C4A56730   8.148   8.991   7.350
 8828POPC   C1B56731   8.221   9.199   6.450
 8828POPC   C2B56732   8.177   9.192   6.750
 8828POPC   C3B56733   8.171   9.228   7.050
 8828POPC   C4B56734   8.241   9.271   7.350
 8829POPC   NC356735  41.532  23.708   5.550
 8829POPC   PO456736  41.571  23.669   5.850
 8829POPC   GL156737  41.577  23.666   6.150
 8829POPC   GL256738  41.434  23.641   6.150
 8829POPC   C1A56739  41.544  23.697   6.450
 8829POPC   D2A56740  41.527  23.670   6.750
 8829POPC   C3A56741  41.566  23.675   7.050
 8829POPC   C4A56742  41.554  23.737   7.350
 8829POPC   C1B56743  41.389  23.578   6.450
 8829POPC   C2B56744  41.309  23.609   6.750
 8829POPC   C3B56745  41.393  23.615   7.050
 8829POPC   C4B56746  41.387  23.604   7.350
 8830POPC   NC356747  16.769   3.559   5.550
 8830POPC   PO456748  16.732   3.492   5.850
 8830POPC   GL156749  16.763   3.552   6.150
 8830POPC   GL256750  16.720   3.392   6.150
 8830POPC   C1A56751  16.683   3.527   6.450
 8830POPC   D2A56752  16.704   3.539   6.750
 8830POPC   C3A56753  16.778   3.548   7.050
 8830POPC   C4A56754  16.687   3.510   7.350
 8830POPC   C1B56755  16.779   3.300   6.450
 8830POPC   C2B56756  16.785   3.318   6.750
 8830POPC   C3B56757  16.751   3.318   7.050
 8830POPC   C4B56758  16.700   3.309   7.350
 8831POPC   NC356759  41.581  26.006   5.550
 8831POPC   PO456760  41.576  26.071   5.850
 8831POPC   GL156761  41.565  26.024   6.150
 8831POPC   GL256762  41.703  26.100   6.150
 8831POPC   C1A56763  41.583  26.033   6.450
 8831POPC   D2A56764  41.574  26.075   6.750
 8831POPC   C3A56765  41.518  26.052   7.050
 8831POPC   C4A56766  41.603  25.993   7.350
 8831POPC   C1B56767  41.788  26.105   6.450
 8831POPC   C2B56768  41.758  26.073   6.750
 8831POPC   C3B56769  41.761  26.048   7.050
 8831POPC   C4B56770  41.764  26.084   7.350
 8832POPC   NC356771  30.716  25.301   5.550
 8832POPC   PO456772  30.656  25.313   5.850
 8832POPC   GL156773  30.716  25.227   6.150
 8832POPC   GL256774  30.844  25.269   6.150
 8832POPC   C1A56775  30.650  25.305   6.450
 8832POPC   D2A56776  30.659  25.315   6.750
 8832POPC   C3A56777  30.658  25.218   7.050
 8832POPC   C4A56778  30.689  25.221   7.350
 8832POPC   C1B56779  30.977  25.284   6.450
 8832POPC   C2B56780  30.912  25.287   6.750
 8832POPC   C3B56781  30.917  25.318   7.050
 8832POPC   C4B56782  30.956  25.350   7.350
 8833POPC   NC356783   9.749  40.812   5.550
 8833POPC   PO456784   9.709  40.745   5.850
 8833POPC   GL156785   9.748  40.816   6.150
 8833POPC   GL256786   9.612  40.768   6.150
 8833POPC   C1A56787   9.741  40.774   6.450
 8833POPC   D2A56788   9.753  40.822   6.750
 8833POPC   C3A56789   9.775  40.769   7.050
 8833POPC   C4A56790   9.722  40.745   7.350
 8833POPC   C1B56791   9.476  40.748   6.450
 8833POPC   C2B56792   9.462  40.702   6.750
 8833POPC   C3B56793   9.521  40.686   7.050
 8833POPC   C4B56794   9.506  40.690   7.350
 8834POPC   NC356795  31.471  28.357   5.550
 8834POPC   PO456796  31.497  28.324   5.850
 8834POPC   GL156797  31.509  28.343   6.150
 8834POPC   GL256798  31.366  28.293   6.150
 8834POPC   C1A56799  31.483  28.410   6.450
 8834POPC   D2A56800  31.436  28.400   6.750
 8834POPC   C3A56801  31.459  28.392   7.050
 8834POPC   C4A56802  31.495  28.342   7.350
 8834POPC   C1B56803  31.326  28.138   6.450
 8834POPC   C2B56804  31.280  28.136   6.750
 8834POPC   C3B56805  31.292  28.195   7.050
 8834POPC   C4B56806  31.269  28.129   7.350
 8835POPC   NC356807   3.532   4.276   5.550
 8835POPC   PO456808   3.522   4.325   5.850
 8835POPC   GL156809   3.544   4.268   6.150
 8835POPC   GL256810   3.384   4.320   6.150
 8835POPC   C1A56811   3.554   4.289   6.450
 8835POPC   D2A56812   3.572   4.320   6.750
 8835POPC   C3A56813   3.562   4.283   7.050
 8835POPC   C4A56814   3.543   4.305   7.350
 8835POPC   C1B56815   3.276   4.385   6.450
 8835POPC   C2B56816   3.310   4.435   6.750
 8835POPC   C3B56817   3.332   4.358   7.050
 8835POPC   C4B56818   3.257   4.434   7.350
 8836POPC   NC356819  26.780  40.002   5.550
 8836POPC   PO456820  26.792  39.962   5.850
 8836POPC   GL156821  26.773  40.004   6.150
 8836POPC   GL256822  26.912  39.997   6.150
 8836POPC   C1A56823  26.771  39.984   6.450
 8836POPC   D2A56824  26.787  40.015   6.750
 8836POPC   C3A56825  26.813  39.977   7.050
 8836POPC   C4A56826  26.812  40.018   7.350
 8836POPC   C1B56827  27.055  40.045   6.450
 8836POPC   C2B56828  27.047  40.023   6.750
 8836POPC   C3B56829  27.072  40.010   7.050
 8836POPC   C4B56830  27.102  40.072   7.350
 8837POPC   NC356831   4.289  19.056   5.550
 8837POPC   PO456832   4.335  19.058   5.850
 8837POPC   GL156833   4.267  19.059   6.150
 8837POPC   GL256834   4.307  18.921   6.150
 8837POPC   C1A56835   4.282  19.059   6.450
 8837POPC   D2A56836   4.279  19.070   6.750
 8837POPC   C3A56837   4.288  19.093   7.050
 8837POPC   C4A56838   4.329  19.059   7.350
 8837POPC   C1B56839   4.216  18.783   6.450
 8837POPC   C2B56840   4.253  18.798   6.750
 8837POPC   C3B56841   4.254  18.829   7.050
 8837POPC   C4B56842   4.287  18.775   7.350
 8838POPC   NC356843   1.242  16.724   5.550
 8838POPC   PO456844   1.217  16.758   5.850
 8838POPC   GL156845   1.256  16.758   6.150
 8838POPC   GL256846   1.371  16.752   6.150
 8838POPC   C1A56847   1.255  16.722   6.450
 8838POPC   D2A56848   1.228  16.770   6.750
 8838POPC   C3A56849   1.230  16.747   7.050
 8838POPC   C4A56850   1.207  16.720   7.350
 8838POPC   C1B56851   1.513  16.720   6.450
 8838POPC   C2B56852   1.488  16.735   6.750
 8838POPC   C3B56853   1.498  16.683   7.050
 8838POPC   C4B56854   1.456  16.697   7.350
 8839POPC   NC356855  40.773  11.260   5.550
 8839POPC   PO456856  40.831  11.304   5.850
 8839POPC   GL156857  40.797  11.315   6.150
 8839POPC   GL256858  40.781  11.227   6.150
 8839POPC   C1A56859  40.762  11.320   6.450
 8839POPC   D2A56860  40.747  11.267   6.750
 8839POPC   C3A56861  40.817  11.318   7.050
 8839POPC   C4A56862  40.822  11.294   7.350
 8839POPC   C1B56863  40.804  11.068   6.450
 8839POPC   C2B56864  40.846  11.065   6.750
 8839POPC   C3B56865  40.811  11.107   7.050
 8839POPC   C4B56866  40.847  11.106   7.350
 8840POPC   NC356867  40.057  40.770   5.550
 8840POPC   PO456868  40.012  40.764   5.850
 8840POPC   GL156869  40.049  40.740   6.150
 8840POPC   GL256870  39.885  40.836   6.150
 8840POPC   C1A56871  40.016  40.777   6.450
 8840POPC   D2A56872  39.997  40.796   6.750
 8840POPC   C3A56873  40.047  40.784   7.050
 8840POPC   C4A56874  40.027  40.737   7.350
 8840POPC   C1B56875  39.774  40.791   6.450
 8840POPC   C2B56876  39.720  40.780   6.750
 8840POPC   C3B56877  39.802  40.860   7.050
 8840POPC   C4B56878  39.776  40.862   7.350
 8841POPC   NC356879   0.462  32.998   5.550
 8841POPC   PO456880   0.486  33.014   5.850
 8841POPC   GL156881   0.469  33.028   6.150
 8841POPC   GL256882   0.424  33.118   6.150
 8841POPC   C1A56883   0.389  32.998   6.450
 8841POPC   D2A56884   0.463  33.024   6.750
 8841POPC   C3A56885   0.389  33.035   7.050
 8841POPC   C4A56886   0.417  33.043   7.350
 8841POPC   C1B56887   0.353  33.286   6.450
 8841POPC   C2B56888   0.325  33.280   6.750
 8841POPC   C3B56889   0.397  33.295   7.050
 8841POPC   C4B56890   0.385  33.260   7.350
 8842POPC   NC356891  23.697   1.224   5.550
 8842POPC   PO456892  23.731   1.242   5.850
 8842POPC   GL156893  23.741   1.258   6.150
 8842POPC   GL256894  23.659   1.291   6.150
 8842POPC   C1A56895  23.733   1.207   6.450
 8842POPC   D2A56896  23.730   1.213   6.750
 8842POPC   C3A56897  23.714   1.177   7.050
 8842POPC   C4A56898  23.722   1.257   7.350
 8842POPC   C1B56899  23.477   1.356   6.450
 8842POPC   C2B56900  23.556   1.320   6.750
 8842POPC   C3B56901  23.495   1.360   7.050
 8842POPC   C4B56902  23.527   1.322   7.350
 8843POPC   NC356903  12.887   2.019   5.550
 8843POPC   PO456904  12.848   1.987   5.850
 8843POPC   GL156905  12.872   1.983   6.150
 8843POPC   GL256906  12.996   1.992   6.150
 8843POPC   C1A56907  12.877   1.985   6.450
 8843POPC   D2A56908  12.832   1.999   6.750
 8843POPC   C3A56909  12.835   2.025   7.050
 8843POPC   C4A56910  12.879   1.964   7.350
 8843POPC   C1B56911  13.065   1.981   6.450
 8843POPC   C2B56912  13.088   2.007   6.750
 8843POPC   C3B56913  13.140   2.043   7.050
 8843POPC   C4B56914  13.112   2.065   7.350
 8844POPC   NC356915  38.418  19.009   5.550
 8844POPC   PO456916  38.466  19.047   5.850
 8844POPC   GL156917  38.405  19.091   6.150
 8844POPC   GL256918  38.535  19.121   6.150
 8844POPC   C1A56919  38.419  19.061   6.450
 8844POPC   D2A56920  38.427  19.018   6.750
 8844POPC   C3A56921  38.451  19.057   7.050
 8844POPC   C4A56922  38.413  19.088   7.350
 8844POPC   C1B56923  38.572  19.281   6.450
 8844POPC   C2B56924  38.581  19.315   6.750
 8844POPC   C3B56925  38.566  19.248   7.050
 8844POPC   C4B56926  38.588  19.318   7.350
 8845POPC   NC356927  44.683  34.620   5.550
 8845POPC   PO456928  44.708  34.602   5.850
 8845POPC   GL156929  44.662  34.544   6.150
 8845POPC   GL256930  44.701  34.434   6.150
 8845POPC   C1A56931  44.624  34.543   6.450
 8845POPC   D2A56932  44.680  34.588   6.750
 8845POPC   C3A56933  44.646  34.604   7.050
 8845POPC   C4A56934  44.620  34.620   7.350
 8845POPC   C1B56935  44.728  34.311   6.450
 8845POPC   C2B56936  44.772  34.380   6.750
 8845POPC   C3B56937  44.797  34.317   7.050
 8845POPC   C4B56938  44.799  34.335   7.350
 8846POPC   NC356939  43.912   1.226   5.550
 8846POPC   PO456940  43.929   1.205   5.850
 8846POPC   GL156941  43.908   1.245   6.150
 8846POPC   GL256942  43.902   1.081   6.150
 8846POPC   C1A56943  43.848   1.250   6.450
 8846POPC   D2A56944  43.910   1.187   6.750
 8846POPC   C3A56945  43.874   1.194   7.050
 8846POPC   C4A56946  43.890   1.231   7.350
 8846POPC   C1B56947  43.886   0.928   6.450
 8846POPC   C2B56948  43.973   0.934   6.750
 8846POPC   C3B56949  43.959   0.996   7.050
 8846POPC   C4B56950  43.965   0.929   7.350
 8847POPC   NC356951  20.563  36.873   5.550
 8847POPC   PO456952  20.604  36.932   5.850
 8847POPC   GL156953  20.591  36.876   6.150
 8847POPC   GL256954  20.578  36.843   6.150
 8847POPC   C1A56955  20.592  36.933   6.450
 8847POPC   D2A56956  20.630  36.874   6.750
 8847POPC   C3A56957  20.610  36.920   7.050
 8847POPC   C4A56958  20.588  36.913   7.350
 8847POPC   C1B56959  20.413  36.711   6.450
 8847POPC   C2B56960  20.431  36.695   6.750
 8847POPC   C3B56961  20.478  36.669   7.050
 8847POPC   C4B56962  20.482  36.710   7.350
 8848POPC   NC356963   0.470  21.362   5.550
 8848POPC   PO456964   0.401  21.348   5.850
 8848POPC   GL156965   0.419  21.355   6.150
 8848POPC   GL256966   0.502  21.311   6.150
 8848POPC   C1A56967   0.470  21.411   6.450
 8848POPC   D2A56968   0.415  21.429   6.750
 8848POPC   C3A56969   0.396  21.364   7.050
 8848POPC   C4A56970   0.412  21.381   7.350
 8848POPC   C1B56971   0.500  21.102   6.450
 8848POPC   C2B56972   0.486  21.124   6.750
 8848POPC   C3B56973   0.452  21.099   7.050
 8848POPC   C4B56974   0.537  21.147   7.350
 8849POPC   NC356975  27.594  29.135   5.550
 8849POPC   PO456976  27.632  29.122   5.850
 8849POPC   GL156977  27.561  29.112   6.150
 8849POPC   GL256978  27.498  29.220   6.150
 8849POPC   C1A56979  27.569  29.176   6.450
 8849POPC   D2A56980  27.557  29.121   6.750
 8849POPC   C3A56981  27.550  29.181   7.050
 8849POPC   C4A56982  27.576  29.159   7.350
 8849POPC   C1B56983  27.428  29.348   6.450
 8849POPC   C2B56984  27.422  29.315   6.750
 8849POPC   C3B56985  27.422  29.383   7.050
 8849POPC   C4B56986  27.478  29.343   7.350
 8850POPC   NC356987   5.885  33.818   5.550
 8850POPC   PO456988   5.895  33.824   5.850
 8850POPC   GL156989   5.849  33.826   6.150
 8850POPC   GL256990   5.945  33.804   6.150
 8850POPC   C1A56991   5.890  33.806   6.450
 8850POPC   D2A56992   5.850  33.813   6.750
 8850POPC   C3A56993   5.862  33.769   7.050
 8850POPC   C4A56994   5.906  33.827   7.350
 8850POPC   C1B56995   6.149  33.746   6.450
 8850POPC   C2B56996   6.154  33.740   6.750
 8850POPC   C3B56997   6.088  33.816   7.050
 8850POPC   C4B56998   6.129  33.777   7.350
 8851POPC   NC356999  25.252  15.963   5.550
 8851POPC   PO457000  25.233  15.983   5.850
 8851POPC   GL157001  25.253  16.001   6.150
 8851POPC   GL257002  25.364  15.959   6.150
 8851POPC   C1A57003  25.245  15.929   6.450
 8851POPC   D2A57004  25.221  15.934   6.750
 8851POPC   C3A57005  25.237  16.000   7.050
 8851POPC   C4A57006  25.280  15.948   7.350
 8851POPC   C1B57007  25.533  15.863   6.450
 8851POPC   C2B57008  25.552  15.887   6.750
 8851POPC   C3B57009  25.521  15.876   7.050
 8851POPC   C4B57010  25.528  15.903   7.350
 8852POPC   NC357011  10.501  11.307   5.550
 8852POPC   PO457012  10.504  11.299   5.850
 8852POPC   GL157013  10.553  11.329   6.150
 8852POPC   GL257014  10.567  11.436   6.150
 8852POPC   C1A57015  10.522  11.283   6.450
 8852POPC   D2A57016  10.514  11.297   6.750
 8852POPC   C3A57017  10.573  11.273   7.050
 8852POPC   C4A57018  10.479  11.287   7.350
 8852POPC   C1B57019  10.697  11.481   6.450
 8852POPC   C2B57020  10.649  11.474   6.750
 8852POPC   C3B57021  10.634  11.539   7.050
 8852POPC   C4B57022  10.628  11.526   7.350
 8853POPC   NC357023  38.465  20.564   5.550
 8853POPC   PO457024  38.460  20.633   5.850
 8853POPC   GL157025  38.437  20.568   6.150
 8853POPC   GL257026  38.548  20.718   6.150
 8853POPC   C1A57027  38.411  20.609   6.450
 8853POPC   D2A57028  38.418  20.583   6.750
 8853POPC   C3A57029  38.502  20.582   7.050
 8853POPC   C4A57030  38.496  20.643   7.350
 8853POPC   C1B57031  38.565  20.848   6.450
 8853POPC   C2B57032  38.540  20.866   6.750
 8853POPC   C3B57033  38.548  20.832   7.050
 8853POPC   C4B57034  38.592  20.864   7.350
 8854POPC   NC357035  24.503   5.891   5.550
 8854POPC   PO457036  24.467   5.867   5.850
 8854POPC   GL157037  24.471   5.906   6.150
 8854POPC   GL257038  24.407   5.751   6.150
 8854POPC   C1A57039  24.448   5.841   6.450
 8854POPC   D2A57040  24.469   5.857   6.750
 8854POPC   C3A57041  24.464   5.913   7.050
 8854POPC   C4A57042  24.531   5.888   7.350
 8854POPC   C1B57043  24.437   5.684   6.450
 8854POPC   C2B57044  24.358   5.656   6.750
 8854POPC   C3B57045  24.380   5.618   7.050
 8854POPC   C4B57046  24.402   5.665   7.350
 8855POPC   NC357047   6.605   8.154   5.550
 8855POPC   PO457048   6.651   8.161   5.850
 8855POPC   GL157049   6.689   8.227   6.150
 8855POPC   GL257050   6.514   8.159   6.150
 8855POPC   C1A57051   6.604   8.190   6.450
 8855POPC   D2A57052   6.623   8.169   6.750
 8855POPC   C3A57053   6.623   8.161   7.050
 8855POPC   C4A57054   6.686   8.208   7.350
 8855POPC   C1B57055   6.432   8.219   6.450
 8855POPC   C2B57056   6.358   8.224   6.750
 8855POPC   C3B57057   6.434   8.195   7.050
 8855POPC   C4B57058   6.418   8.234   7.350
 8856POPC   NC357059  36.163  18.288   5.550
 8856POPC   PO457060  36.080  18.259   5.850
 8856POPC   GL157061  36.151  18.295   6.150
 8856POPC   GL257062  36.158  18.157   6.150
 8856POPC   C1A57063  36.175  18.308   6.450
 8856POPC   D2A57064  36.115  18.328   6.750
 8856POPC   C3A57065  36.091  18.328   7.050
 8856POPC   C4A57066  36.136  18.308   7.350
 8856POPC   C1B57067  36.132  18.060   6.450
 8856POPC   C2B57068  36.096  17.995   6.750
 8856POPC   C3B57069  36.180  18.037   7.050
 8856POPC   C4B57070  36.151  18.059   7.350
 8857POPC   NC357071  40.002  30.746   5.550
 8857POPC   PO457072  40.035  30.730   5.850
 8857POPC   GL157073  40.041  30.692   6.150
 8857POPC   GL257074  40.149  30.817   6.150
 8857POPC   C1A57075  40.054  30.689   6.450
 8857POPC   D2A57076  39.969  30.709   6.750
 8857POPC   C3A57077  39.960  30.686   7.050
 8857POPC   C4A57078  39.980  30.664   7.350
 8857POPC   C1B57079  40.180  30.888   6.450
 8857POPC   C2B57080  40.202  30.860   6.750
 8857POPC   C3B57081  40.182  30.857   7.050
 8857POPC   C4B57082  40.201  30.851   7.350
 8858POPC   NC357083  18.241   1.239   5.550
 8858POPC   PO457084  18.261   1.235   5.850
 8858POPC   GL157085  18.260   1.170   6.150
 8858POPC   GL257086  18.341   1.342   6.150
 8858POPC   C1A57087  18.262   1.178   6.450
 8858POPC   D2A57088  18.242   1.193   6.750
 8858POPC   C3A57089  18.282   1.249   7.050
 8858POPC   C4A57090  18.289   1.175   7.350
 8858POPC   C1B57091  18.414   1.425   6.450
 8858POPC   C2B57092  18.427   1.456   6.750
 8858POPC   C3B57093  18.355   1.413   7.050
 8858POPC   C4B57094  18.401   1.468   7.350
 8859POPC   NC357095  26.826  29.889   5.550
 8859POPC   PO457096  26.802  29.897   5.850
 8859POPC   GL157097  26.821  29.895   6.150
 8859POPC   GL257098  26.811  30.007   6.150
 8859POPC   C1A57099  26.843  29.938   6.450
 8859POPC   D2A57100  26.853  29.904   6.750
 8859POPC   C3A57101  26.859  29.922   7.050
 8859POPC   C4A57102  26.796  29.891   7.350
 8859POPC   C1B57103  26.785  30.145   6.450
 8859POPC   C2B57104  26.749  30.202   6.750
 8859POPC   C3B57105  26.702  30.192   7.050
 8859POPC   C4B57106  26.761  30.115   7.350
 8860POPC   NC357107  31.448  38.438   5.550
 8860POPC   PO457108  31.463  38.443   5.850
 8860POPC   GL157109  31.427  38.433   6.150
 8860POPC   GL257110  31.415  38.393   6.150
 8860POPC   C1A57111  31.472  38.475   6.450
 8860POPC   D2A57112  31.423  38.420   6.750
 8860POPC   C3A57113  31.522  38.455   7.050
 8860POPC   C4A57114  31.431  38.477   7.350
 8860POPC   C1B57115  31.322  38.263   6.450
 8860POPC   C2B57116  31.290  38.255   6.750
 8860POPC   C3B57117  31.280  38.257   7.050
 8860POPC   C4B57118  31.297  38.214   7.350
 8861POPC   NC357119  11.344  25.225   5.550
 8861POPC   PO457120  11.326  25.240   5.850
 8861POPC   GL157121  11.318  25.259   6.150
 8861POPC   GL257122  11.444  25.295   6.150
 8861POPC   C1A57123  11.320  25.289   6.450
 8861POPC   D2A57124  11.257  25.235   6.750
 8861POPC   C3A57125  11.274  25.285   7.050
 8861POPC   C4A57126  11.256  25.278   7.350
 8861POPC   C1B57127  11.495  25.340   6.450
 8861POPC   C2B57128  11.503  25.372   6.750
 8861POPC   C3B57129  11.558  25.415   7.050
 8861POPC   C4B57130  11.531  25.398   7.350
 8862POPC   NC357131   3.573  18.314   5.550
 8862POPC   PO457132   3.539  18.254   5.850
 8862POPC   GL157133   3.549  18.332   6.150
 8862POPC   GL257134   3.586  18.212   6.150
 8862POPC   C1A57135   3.495  18.233   6.450
 8862POPC   D2A57136   3.542  18.270   6.750
 8862POPC   C3A57137   3.567  18.314   7.050
 8862POPC   C4A57138   3.590  18.268   7.350
 8862POPC   C1B57139   3.714  18.061   6.450
 8862POPC   C2B57140   3.650  18.119   6.750
 8862POPC   C3B57141   3.713  18.095   7.050
 8862POPC   C4B57142   3.712  18.108   7.350
 8863POPC   NC357143  43.839  20.631   5.550
 8863POPC   PO457144  43.918  20.651   5.850
 8863POPC   GL157145  43.910  20.618   6.150
 8863POPC   GL257146  43.834  20.497   6.150
 8863POPC   C1A57147  43.843  20.634   6.450
 8863POPC   D2A57148  43.913  20.574   6.750
 8863POPC   C3A57149  43.908  20.563   7.050
 8863POPC   C4A57150  43.918  20.586   7.350
 8863POPC   C1B57151  43.863  20.398   6.450
 8863POPC   C2B57152  43.876  20.379   6.750
 8863POPC   C3B57153  43.837  20.361   7.050
 8863POPC   C4B57154  43.838  20.403   7.350
 8864POPC   NC357155  28.355  10.524   5.550
 8864POPC   PO457156  28.351  10.521   5.850
 8864POPC   GL157157  28.389  10.512   6.150
 8864POPC   GL257158  28.397  10.654   6.150
 8864POPC   C1A57159  28.418  10.493   6.450
 8864POPC   D2A57160  28.403  10.555   6.750
 8864POPC   C3A57161  28.375  10.493   7.050
 8864POPC   C4A57162  28.383  10.492   7.350
 8864POPC   C1B57163  28.382  10.742   6.450
 8864POPC   C2B57164  28.375  10.727   6.750
 8864POPC   C3B57165  28.310  10.788   7.050
 8864POPC   C4B57166  28.306  10.813   7.350
 8865POPC   NC357167  36.946  43.064   5.550
 8865POPC   PO457168  36.938  43.076   5.850
 8865POPC   GL157169  36.915  43.122   6.150
 8865POPC   GL257170  36.835  43.010   6.150
 8865POPC   C1A57171  36.924  43.123   6.450
 8865POPC   D2A57172  36.891  43.103   6.750
 8865POPC   C3A57173  36.940  43.091   7.050
 8865POPC   C4A57174  36.879  43.159   7.350
 8865POPC   C1B57175  36.834  42.921   6.450
 8865POPC   C2B57176  36.812  42.866   6.750
 8865POPC   C3B57177  36.792  42.872   7.050
 8865POPC   C4B57178  36.856  42.913   7.350
 8866POPC   NC357179   8.189  39.981   5.550
 8866POPC   PO457180   8.211  39.961   5.850
 8866POPC   GL157181   8.225  39.962   6.150
 8866POPC   GL257182   8.196  39.882   6.150
 8866POPC   C1A57183   8.186  40.029   6.450
 8866POPC   D2A57184   8.150  40.013   6.750
 8866POPC   C3A57185   8.148  40.001   7.050
 8866POPC   C4A57186   8.207  40.044   7.350
 8866POPC   C1B57187   8.271  39.741   6.450
 8866POPC   C2B57188   8.285  39.762   6.750
 8866POPC   C3B57189   8.269  39.752   7.050
 8866POPC   C4B57190   8.264  39.782   7.350
 8867POPC   NC357191  17.459   1.188   5.550
 8867POPC   PO457192  17.483   1.166   5.850
 8867POPC   GL157193  17.519   1.173   6.150
 8867POPC   GL257194  17.550   1.072   6.150
 8867POPC   C1A57195  17.527   1.185   6.450
 8867POPC   D2A57196  17.524   1.190   6.750
 8867POPC   C3A57197  17.466   1.172   7.050
 8867POPC   C4A57198  17.482   1.231   7.350
 8867POPC   C1B57199  17.642   0.965   6.450
 8867POPC   C2B57200  17.667   1.005   6.750
 8867POPC   C3B57201  17.675   1.045   7.050
 8867POPC   C4B57202  17.665   0.966   7.350
 8868POPC   NC357203   2.812   3.530   5.550
 8868POPC   PO457204   2.806   3.513   5.850
 8868POPC   GL157205   2.815   3.528   6.150
 8868POPC   GL257206   2.844   3.565   6.150
 8868POPC   C1A57207   2.745   3.586   6.450
 8868POPC   D2A57208   2.784   3.541   6.750
 8868POPC   C3A57209   2.741   3.508   7.050
 8868POPC   C4A57210   2.803   3.523   7.350
 8868POPC   C1B57211   3.049   3.565   6.450
 8868POPC   C2B57212   3.016   3.590   6.750
 8868POPC   C3B57213   2.985   3.552   7.050
 8868POPC   C4B57214   3.043   3.572   7.350
 8869POPC   NC357215  41.579   1.252   5.550
 8869POPC   PO457216  41.582   1.211   5.850
 8869POPC   GL157217  41.585   1.240   6.150
 8869POPC   GL257218  41.509   1.311   6.150
 8869POPC   C1A57219  41.594   1.228   6.450
 8869POPC   D2A57220  41.540   1.174   6.750
 8869POPC   C3A57221  41.520   1.177   7.050
 8869POPC   C4A57222  41.522   1.187   7.350
 8869POPC   C1B57223  41.440   1.462   6.450
 8869POPC   C2B57224  41.457   1.385   6.750
 8869POPC   C3B57225  41.397   1.453   7.050
 8869POPC   C4B57226  41.459   1.459   7.350
 8870POPC   NC357227   8.961  20.586   5.550
 8870POPC   PO457228   8.978  20.587   5.850
 8870POPC   GL157229   8.970  20.608   6.150
 8870POPC   GL257230   9.004  20.703   6.150
 8870POPC   C1A57231   8.958  20.659   6.450
 8870POPC   D2A57232   8.978  20.567   6.750
 8870POPC   C3A57233   8.949  20.613   7.050
 8870POPC   C4A57234   8.967  20.586   7.350
 8870POPC   C1B57235   8.981  20.893   6.450
 8870POPC   C2B57236   8.991  20.876   6.750
 8870POPC   C3B57237   8.971  20.905   7.050
 8870POPC   C4B57238   8.970  20.877   7.350
 8871POPC   NC357239  14.438  19.848   5.550
 8871POPC   PO457240  14.438  19.792   5.850
 8871POPC   GL157241  14.442  19.795   6.150
 8871POPC   GL257242  14.335  19.908   6.150
 8871POPC   C1A57243  14.414  19.822   6.450
 8871POPC   D2A57244  14.365  19.864   6.750
 8871POPC   C3A57245  14.361  19.846   7.050
 8871POPC   C4A57246  14.413  19.853   7.350
 8871POPC   C1B57247  14.202  20.016   6.450
 8871POPC   C2B57248  14.184  19.975   6.750
 8871POPC   C3B57249  14.215  19.966   7.050
 8871POPC   C4B57250  14.226  19.992   7.350
 8872POPC   NC357251  42.362  33.753   5.550
 8872POPC   PO457252  42.361  33.847   5.850
 8872POPC   GL157253  42.321  33.758   6.150
 8872POPC   GL257254  42.412  33.725   6.150
 8872POPC   C1A57255  42.291  33.819   6.450
 8872POPC   D2A57256  42.384  33.780   6.750
 8872POPC   C3A57257  42.320  33.796   7.050
 8872POPC   C4A57258  42.350  33.784   7.350
 8872POPC   C1B57259  42.518  33.703   6.450
 8872POPC   C2B57260  42.589  33.669   6.750
 8872POPC   C3B57261  42.544  33.708   7.050
 8872POPC   C4B57262  42.608  33.662   7.350
 8873POPC   NC357263  36.889   7.414   5.550
 8873POPC   PO457264  36.883   7.386   5.850
 8873POPC   GL157265  36.910   7.457   6.150
 8873POPC   GL257266  36.901   7.595   6.150
 8873POPC   C1A57267  36.889   7.434   6.450
 8873POPC   D2A57268  36.881   7.469   6.750
 8873POPC   C3A57269  36.870   7.429   7.050
 8873POPC   C4A57270  36.922   7.422   7.350
 8873POPC   C1B57271  36.834   7.633   6.450
 8873POPC   C2B57272  36.929   7.622   6.750
 8873POPC   C3B57273  36.869   7.713   7.050
 8873POPC   C4B57274  36.842   7.651   7.350
 8874POPC   NC357275   9.725  10.511   5.550
 8874POPC   PO457276   9.716  10.499   5.850
 8874POPC   GL157277   9.730  10.541   6.150
 8874POPC   GL257278   9.890  10.559   6.150
 8874POPC   C1A57279   9.797  10.564   6.450
 8874POPC   D2A57280   9.786  10.516   6.750
 8874POPC   C3A57281   9.701  10.520   7.050
 8874POPC   C4A57282   9.763  10.492   7.350
 8874POPC   C1B57283  10.014  10.535   6.450
 8874POPC   C2B57284   9.976  10.557   6.750
 8874POPC   C3B57285   9.977  10.528   7.050
 8874POPC   C4B57286   9.968  10.545   7.350
 8875POPC   NC357287  20.606  39.217   5.550
 8875POPC   PO457288  20.640  39.202   5.850
 8875POPC   GL157289  20.596  39.208   6.150
 8875POPC   GL257290  20.481  39.244   6.150
 8875POPC   C1A57291  20.588  39.274   6.450
 8875POPC   D2A57292  20.595  39.187   6.750
 8875POPC   C3A57293  20.599  39.255   7.050
 8875POPC   C4A57294  20.655  39.211   7.350
 8875POPC   C1B57295  20.380  39.283   6.450
 8875POPC   C2B57296  20.335  39.239   6.750
 8875POPC   C3B57297  20.347  39.288   7.050
 8875POPC   C4B57298  20.329  39.244   7.350
 8876POPC   NC357299  33.763   2.814   5.550
 8876POPC   PO457300  33.778   2.764   5.850
 8876POPC   GL157301  33.812   2.720   6.150
 8876POPC   GL257302  33.701   2.840   6.150
 8876POPC   C1A57303  33.814   2.730   6.450
 8876POPC   D2A57304  33.783   2.746   6.750
 8876POPC   C3A57305  33.801   2.790   7.050
 8876POPC   C4A57306  33.754   2.803   7.350
 8876POPC   C1B57307  33.609   2.915   6.450
 8876POPC   C2B57308  33.595   2.908   6.750
 8876POPC   C3B57309  33.597   2.915   7.050
 8876POPC   C4B57310  33.610   2.902   7.350
 8877POPC   NC357311  19.861   3.590   5.550
 8877POPC   PO457312  19.859   3.543   5.850
 8877POPC   GL157313  19.794   3.541   6.150
 8877POPC   GL257314  19.821   3.696   6.150
 8877POPC   C1A57315  19.858   3.516   6.450
 8877POPC   D2A57316  19.800   3.498   6.750
 8877POPC   C3A57317  19.805   3.515   7.050
 8877POPC   C4A57318  19.859   3.507   7.350
 8877POPC   C1B57319  19.902   3.806   6.450
 8877POPC   C2B57320  19.897   3.757   6.750
 8877POPC   C3B57321  19.860   3.784   7.050
 8877POPC   C4B57322  19.887   3.808   7.350
 8878POPC   NC357323  12.098  29.889   5.550
 8878POPC   PO457324  12.049  29.964   5.850
 8878POPC   GL157325  12.055  29.956   6.150
 8878POPC   GL257326  11.935  29.914   6.150
 8878POPC   C1A57327  12.065  29.936   6.450
 8878POPC   D2A57328  12.112  29.916   6.750
 8878POPC   C3A57329  12.064  29.942   7.050
 8878POPC   C4A57330  12.089  29.873   7.350
 8878POPC   C1B57331  11.828  30.015   6.450
 8878POPC   C2B57332  11.834  30.001   6.750
 8878POPC   C3B57333  11.884  30.017   7.050
 8878POPC   C4B57334  11.816  29.966   7.350
 8879POPC   NC357335  31.479  11.272   5.550
 8879POPC   PO457336  31.428  11.267   5.850
 8879POPC   GL157337  31.467  11.261   6.150
 8879POPC   GL257338  31.616  11.366   6.150
 8879POPC   C1A57339  31.442  11.333   6.450
 8879POPC   D2A57340  31.483  11.302   6.750
 8879POPC   C3A57341  31.515  11.349   7.050
 8879POPC   C4A57342  31.520  11.294   7.350
 8879POPC   C1B57343  31.668  11.441   6.450
 8879POPC   C2B57344  31.748  11.420   6.750
 8879POPC   C3B57345  31.711  11.398   7.050
 8879POPC   C4B57346  31.662  11.376   7.350
 8880POPC   NC357347  22.940  25.310   5.550
 8880POPC   PO457348  22.961  25.314   5.850
 8880POPC   GL157349  22.985  25.216   6.150
 8880POPC   GL257350  22.846  25.372   6.150
 8880POPC   C1A57351  22.965  25.267   6.450
 8880POPC   D2A57352  22.955  25.314   6.750
 8880POPC   C3A57353  22.905  25.216   7.050
 8880POPC   C4A57354  22.979  25.265   7.350
 8880POPC   C1B57355  22.836  25.428   6.450
 8880POPC   C2B57356  22.811  25.483   6.750
 8880POPC   C3B57357  22.752  25.431   7.050
 8880POPC   C4B57358  22.835  25.458   7.350
 8881POPC   NC357359  31.468  40.822   5.550
 8881POPC   PO457360  31.466  40.747   5.850
 8881POPC   GL157361  31.470  40.816   6.150
 8881POPC   GL257362  31.521  40.626   6.150
 8881POPC   C1A57363  31.424  40.819   6.450
 8881POPC   D2A57364  31.428  40.791   6.750
 8881POPC   C3A57365  31.489  40.764   7.050
 8881POPC   C4A57366  31.432  40.733   7.350
 8881POPC   C1B57367  31.580  40.535   6.450
 8881POPC   C2B57368  31.609  40.575   6.750
 8881POPC   C3B57369  31.530  40.545   7.050
 8881POPC   C4B57370  31.516  40.584   7.350
 8882POPC   NC357371  16.749   1.952   5.550
 8882POPC   PO457372  16.712   1.993   5.850
 8882POPC   GL157373  16.735   1.994   6.150
 8882POPC   GL257374  16.684   1.921   6.150
 8882POPC   C1A57375  16.759   1.990   6.450
 8882POPC   D2A57376  16.753   1.968   6.750
 8882POPC   C3A57377  16.758   2.037   7.050
 8882POPC   C4A57378  16.740   1.955   7.350
 8882POPC   C1B57379  16.630   1.722   6.450
 8882POPC   C2B57380  16.611   1.772   6.750
 8882POPC   C3B57381  16.593   1.762   7.050
 8882POPC   C4B57382  16.650   1.731   7.350
 8883POPC   NC357383   8.968  14.412   5.550
 8883POPC   PO457384   8.937  14.403   5.850
 8883POPC   GL157385   8.924  14.418   6.150
 8883POPC   GL257386   8.874  14.491   6.150
 8883POPC   C1A57387   8.959  14.412   6.450
 8883POPC   D2A57388   8.958  14.368   6.750
 8883POPC   C3A57389   8.947  14.420   7.050
 8883POPC   C4A57390   8.946  14.373   7.350
 8883POPC   C1B57391   8.748  14.484   6.450
 8883POPC   C2B57392   8.743  14.492   6.750
 8883POPC   C3B57393   8.730  14.488   7.050
 8883POPC   C4B57394   8.723  14.495   7.350
 8884POPC   NC357395   5.915  20.573   5.550
 8884POPC   PO457396   5.892  20.631   5.850
 8884POPC   GL157397   5.888  20.631   6.150
 8884POPC   GL257398   5.737  20.562   6.150
 8884POPC   C1A57399   5.903  20.650   6.450
 8884POPC   D2A57400   5.871  20.627   6.750
 8884POPC   C3A57401   5.903  20.635   7.050
 8884POPC   C4A57402   5.886  20.574   7.350
 8884POPC   C1B57403   5.643  20.576   6.450
 8884POPC   C2B57404   5.608  20.572   6.750
 8884POPC   C3B57405   5.583  20.623   7.050
 8884POPC   C4B57406   5.584  20.583   7.350
 8885POPC   NC357407  42.369  17.486   5.550
 8885POPC   PO457408  42.379  17.526   5.850
 8885POPC   GL157409  42.352  17.505   6.150
 8885POPC   GL257410  42.424  17.456   6.150
 8885POPC   C1A57411  42.306  17.509   6.450
 8885POPC   D2A57412  42.378  17.483   6.750
 8885POPC   C3A57413  42.339  17.534   7.050
 8885POPC   C4A57414  42.290  17.502   7.350
 8885POPC   C1B57415  42.496  17.337   6.450
 8885POPC   C2B57416  42.456  17.329   6.750
 8885POPC   C3B57417  42.523  17.301   7.050
 8885POPC   C4B57418  42.517  17.331   7.350
 8886POPC   NC357419  26.854  26.063   5.550
 8886POPC   PO457420  26.854  26.032   5.850
 8886POPC   GL157421  26.808  26.031   6.150
 8886POPC   GL257422  26.936  26.127   6.150
 8886POPC   C1A57423  26.776  26.064   6.450
 8886POPC   D2A57424  26.860  26.057   6.750
 8886POPC   C3A57425  26.835  26.058   7.050
 8886POPC   C4A57426  26.855  26.078   7.350
 8886POPC   C1B57427  26.967  26.226   6.450
 8886POPC   C2B57428  27.004  26.216   6.750
 8886POPC   C3B57429  26.929  26.288   7.050
 8886POPC   C4B57430  26.956  26.277   7.350
 8887POPC   NC357431  42.363   5.877   5.550
 8887POPC   PO457432  42.288   5.856   5.850
 8887POPC   GL157433  42.343   5.897   6.150
 8887POPC   GL257434  42.368   5.769   6.150
 8887POPC   C1A57435  42.312   5.912   6.450
 8887POPC   D2A57436  42.330   5.898   6.750
 8887POPC   C3A57437  42.345   5.905   7.050
 8887POPC   C4A57438  42.305   5.856   7.350
 8887POPC   C1B57439  42.520   5.705   6.450
 8887POPC   C2B57440  42.530   5.657   6.750
 8887POPC   C3B57441  42.505   5.669   7.050
 8887POPC   C4B57442  42.506   5.690   7.350
 8888POPC   NC357443  44.627  22.901   5.550
 8888POPC   PO457444  44.675  22.976   5.850
 8888POPC   GL157445  44.702  22.947   6.150
 8888POPC   GL257446  44.535  22.928   6.150
 8888POPC   C1A57447  44.697  22.895   6.450
 8888POPC   D2A57448  44.699  22.934   6.750
 8888POPC   C3A57449  44.650  22.905   7.050
 8888POPC   C4A57450  44.704  22.903   7.350
 8888POPC   C1B57451  44.437  22.894   6.450
 8888POPC   C2B57452  44.386  22.878   6.750
 8888POPC   C3B57453  44.395  22.886   7.050
 8888POPC   C4B57454  44.430  22.896   7.350
 8889POPC   NC357455  32.242  36.105   5.550
 8889POPC   PO457456  32.225  36.117   5.850
 8889POPC   GL157457  32.217  36.130   6.150
 8889POPC   GL257458  32.242  36.236   6.150
 8889POPC   C1A57459  32.246  36.165   6.450
 8889POPC   D2A57460  32.280  36.121   6.750
 8889POPC   C3A57461  32.264  36.097   7.050
 8889POPC   C4A57462  32.264  36.113   7.350
 8889POPC   C1B57463  32.340  36.370   6.450
 8889POPC   C2B57464  32.288  36.349   6.750
 8889POPC   C3B57465  32.331  36.357   7.050
 8889POPC   C4B57466  32.308  36.409   7.350
 8890POPC   NC357467   2.764  37.727   5.550
 8890POPC   PO457468   2.790  37.712   5.850
 8890POPC   GL157469   2.793  37.714   6.150
 8890POPC   GL257470   2.874  37.784   6.150
 8890POPC   C1A57471   2.808  37.707   6.450
 8890POPC   D2A57472   2.723  37.678   6.750
 8890POPC   C3A57473   2.780  37.693   7.050
 8890POPC   C4A57474   2.801  37.656   7.350
 8890POPC   C1B57475   2.875  37.867   6.450
 8890POPC   C2B57476   2.906  37.875   6.750
 8890POPC   C3B57477   2.925  37.910   7.050
 8890POPC   C4B57478   2.901  37.930   7.350
 8891POPC   NC357479  39.182  42.327   5.550
 8891POPC   PO457480  39.236  42.318   5.850
 8891POPC   GL157481  39.219  42.319   6.150
 8891POPC   GL257482  39.315  42.184   6.150
 8891POPC   C1A57483  39.253  42.302   6.450
 8891POPC   D2A57484  39.279  42.324   6.750
 8891POPC   C3A57485  39.193  42.299   7.050
 8891POPC   C4A57486  39.216  42.327   7.350
 8891POPC   C1B57487  39.348  42.117   6.450
 8891POPC   C2B57488  39.338  42.113   6.750
 8891POPC   C3B57489  39.366  42.092   7.050
 8891POPC   C4B57490  39.337  42.130   7.350
 8892POPC   NC357491  43.907  29.178   5.550
 8892POPC   PO457492  43.888  29.099   5.850
 8892POPC   GL157493  43.924  29.100   6.150
 8892POPC   GL257494  43.908  29.282   6.150
 8892POPC   C1A57495  43.846  29.132   6.450
 8892POPC   D2A57496  43.849  29.193   6.750
 8892POPC   C3A57497  43.907  29.150   7.050
 8892POPC   C4A57498  43.923  29.106   7.350
 8892POPC   C1B57499  44.012  29.383   6.450
 8892POPC   C2B57500  44.012  29.381   6.750
 8892POPC   C3B57501  44.043  29.337   7.050
 8892POPC   C4B57502  43.981  29.412   7.350
 8893POPC   NC357503  13.639  20.573   5.550
 8893POPC   PO457504  13.650  20.565   5.850
 8893POPC   GL157505  13.592  20.646   6.150
 8893POPC   GL257506  13.670  20.686   6.150
 8893POPC   C1A57507  13.593  20.577   6.450
 8893POPC   D2A57508  13.675  20.637   6.750
 8893POPC   C3A57509  13.594  20.638   7.050
 8893POPC   C4A57510  13.666  20.570   7.350
 8893POPC   C1B57511  13.724  20.839   6.450
 8893POPC   C2B57512  13.714  20.877   6.750
 8893POPC   C3B57513  13.754  20.831   7.050
 8893POPC   C4B57514  13.706  20.843   7.350
 8894POPC   NC357515  16.778   1.237   5.550
 8894POPC   PO457516  16.740   1.176   5.850
 8894POPC   GL157517  16.742   1.237   6.150
 8894POPC   GL257518  16.871   1.165   6.150
 8894POPC   C1A57519  16.761   1.218   6.450
 8894POPC   D2A57520  16.740   1.184   6.750
 8894POPC   C3A57521  16.707   1.172   7.050
 8894POPC   C4A57522  16.769   1.186   7.350
 8894POPC   C1B57523  16.915   1.100   6.450
 8894POPC   C2B57524  16.950   1.078   6.750
 8894POPC   C3B57525  16.923   1.086   7.050
 8894POPC   C4B57526  16.976   1.047   7.350
 8895POPC   NC357527  43.877  10.509   5.550
 8895POPC   PO457528  43.846  10.484   5.850
 8895POPC   GL157529  43.880  10.482   6.150
 8895POPC   GL257530  43.797  10.646   6.150
 8895POPC   C1A57531  43.907  10.526   6.450
 8895POPC   D2A57532  43.904  10.536   6.750
 8895POPC   C3A57533  43.851  10.569   7.050
 8895POPC   C4A57534  43.863  10.532   7.350
 8895POPC   C1B57535  43.826  10.792   6.450
 8895POPC   C2B57536  43.823  10.774   6.750
 8895POPC   C3B57537  43.787  10.769   7.050
 8895POPC   C4B57538  43.764  10.793   7.350
 8896POPC   NC357539   1.221   1.221   5.550
 8896POPC   PO457540   1.192   1.183   5.850
 8896POPC   GL157541   1.231   1.195   6.150
 8896POPC   GL257542   1.321   1.295   6.150
 8896POPC   C1A57543   1.212   1.204   6.450
 8896POPC   D2A57544   1.261   1.242   6.750
 8896POPC   C3A57545   1.178   1.219   7.050
 8896POPC   C4A57546   1.234   1.245   7.350
 8896POPC   C1B57547   1.465   1.247   6.450
 8896POPC   C2B57548   1.429   1.331   6.750
 8896POPC   C3B57549   1.444   1.280   7.050
 8896POPC   C4B57550   1.484   1.335   7.350
 8897POPC   NC357551   4.272  42.365   5.550
 8897POPC   PO457552   4.306  42.306   5.850
 8897POPC   GL157553   4.346  42.369   6.150
 8897POPC   GL257554   4.388  42.198   6.150
 8897POPC   C1A57555   4.269  42.369   6.450
 8897POPC   D2A57556   4.298  42.296   6.750
 8897POPC   C3A57557   4.359  42.368   7.050
 8897POPC   C4A57558   4.339  42.338   7.350
 8897POPC   C1B57559   4.532  42.191   6.450
 8897POPC   C2B57560   4.470  42.148   6.750
 8897POPC   C3B57561   4.507  42.123   7.050
 8897POPC   C4B57562   4.531  42.174   7.350
 8898POPC   NC357563  37.636  34.563   5.550
 8898POPC   PO457564  37.659  34.611   5.850
 8898POPC   GL157565  37.682  34.620   6.150
 8898POPC   GL257566  37.693  34.447   6.150
 8898POPC   C1A57567  37.700  34.589   6.450
 8898POPC   D2A57568  37.652  34.577   6.750
 8898POPC   C3A57569  37.696  34.619   7.050
 8898POPC   C4A57570  37.676  34.529   7.350
 8898POPC   C1B57571  37.829  34.335   6.450
 8898POPC   C2B57572  37.802  34.338   6.750
 8898POPC   C3B57573  37.760  34.355   7.050
 8898POPC   C4B57574  37.750  34.366   7.350
 8899POPC   NC357575  15.174  43.137   5.550
 8899POPC   PO457576  15.196  43.076   5.850
 8899POPC   GL157577  15.149  43.068   6.150
 8899POPC   GL257578  15.296  42.987   6.150
 8899POPC   C1A57579  15.152  43.104   6.450
 8899POPC   D2A57580  15.186  43.082   6.750
 8899POPC   C3A57581  15.136  43.108   7.050
 8899POPC   C4A57582  15.150  43.109   7.350
 8899POPC   C1B57583  15.396  42.898   6.450
 8899POPC   C2B57584  15.385  42.903   6.750
 8899POPC   C3B57585  15.350  42.921   7.050
 8899POPC   C4B57586  15.344  42.946   7.350
 8900POPC   NC357587  20.645   1.963   5.550
 8900POPC   PO457588  20.593   1.994   5.850
 8900POPC   GL157589  20.654   2.024   6.150
 8900POPC   GL257590  20.591   2.124   6.150
 8900POPC   C1A57591  20.633   1.981   6.450
 8900POPC   D2A57592  20.612   2.013   6.750
 8900POPC   C3A57593  20.642   2.017   7.050
 8900POPC   C4A57594  20.659   2.027   7.350
 8900POPC   C1B57595  20.600   2.262   6.450
 8900POPC   C2B57596  20.594   2.219   6.750
 8900POPC   C3B57597  20.670   2.289   7.050
 8900POPC   C4B57598  20.629   2.242   7.350
 8901POPC   NC357599  31.429  26.768   5.550
 8901POPC   PO457600  31.457  26.784   5.850
 8901POPC   GL157601  31.471  26.779   6.150
 8901POPC   GL257602  31.441  26.984   6.150
 8901POPC   C1A57603  31.444  26.782   6.450
 8901POPC   D2A57604  31.486  26.835   6.750
 8901POPC   C3A57605  31.465  26.830   7.050
 8901POPC   C4A57606  31.516  26.849   7.350
 8901POPC   C1B57607  31.459  27.024   6.450
 8901POPC   C2B57608  31.424  27.055   6.750
 8901POPC   C3B57609  31.422  27.091   7.050
 8901POPC   C4B57610  31.407  27.101   7.350
 8902POPC   NC357611  27.558  28.416   5.550
 8902POPC   PO457612  27.637  28.345   5.850
 8902POPC   GL157613  27.621  28.331   6.150
 8902POPC   GL257614  27.590  28.458   6.150
 8902POPC   C1A57615  27.619  28.397   6.450
 8902POPC   D2A57616  27.608  28.363   6.750
 8902POPC   C3A57617  27.630  28.404   7.050
 8902POPC   C4A57618  27.559  28.415   7.350
 8902POPC   C1B57619  27.531  28.572   6.450
 8902POPC   C2B57620  27.583  28.596   6.750
 8902POPC   C3B57621  27.578  28.605   7.050
 8902POPC   C4B57622  27.512  28.591   7.350
 8903POPC   NC357623  22.956  17.476   5.550
 8903POPC   PO457624  22.922  17.466   5.850
 8903POPC   GL157625  22.957  17.516   6.150
 8903POPC   GL257626  22.879  17.612   6.150
 8903POPC   C1A57627  22.985  17.512   6.450
 8903POPC   D2A57628  22.902  17.473   6.750
 8903POPC   C3A57629  22.972  17.489   7.050
 8903POPC   C4A57630  22.978  17.492   7.350
 8903POPC   C1B57631  22.720  17.677   6.450
 8903POPC   C2B57632  22.705  17.660   6.750
 8903POPC   C3B57633  22.743  17.668   7.050
 8903POPC   C4B57634  22.722  17.682   7.350
 8904POPC   NC357635  25.246  23.700   5.550
 8904POPC   PO457636  25.312  23.739   5.850
 8904POPC   GL157637  25.277  23.721   6.150
 8904POPC   GL257638  25.185  23.580   6.150
 8904POPC   C1A57639  25.261  23.739   6.450
 8904POPC   D2A57640  25.297  23.711   6.750
 8904POPC   C3A57641  25.301  23.680   7.050
 8904POPC   C4A57642  25.242  23.728   7.350
 8904POPC   C1B57643  25.176  23.515   6.450
 8904POPC   C2B57644  25.197  23.508   6.750
 8904POPC   C3B57645  25.142  23.435   7.050
 8904POPC   C4B57646  25.170  23.435   7.350
 8905POPC   NC357647  32.206  21.393   5.550
 8905POPC   PO457648  32.248  21.355   5.850
 8905POPC   GL157649  32.236  21.342   6.150
 8905POPC   GL257650  32.321  21.266   6.150
 8905POPC   C1A57651  32.259  21.390   6.450
 8905POPC   D2A57652  32.224  21.346   6.750
 8905POPC   C3A57653  32.295  21.421   7.050
 8905POPC   C4A57654  32.297  21.416   7.350
 8905POPC   C1B57655  32.381  21.214   6.450
 8905POPC   C2B57656  32.440  21.165   6.750
 8905POPC   C3B57657  32.428  21.210   7.050
 8905POPC   C4B57658  32.386  21.177   7.350
 8906POPC   NC357659   6.681  11.296   5.550
 8906POPC   PO457660   6.604  11.274   5.850
 8906POPC   GL157661   6.624  11.280   6.150
 8906POPC   GL257662   6.793  11.333   6.150
 8906POPC   C1A57663   6.693  11.267   6.450
 8906POPC   D2A57664   6.660  11.274   6.750
 8906POPC   C3A57665   6.676  11.317   7.050
 8906POPC   C4A57666   6.645  11.319   7.350
 8906POPC   C1B57667   6.941  11.365   6.450
 8906POPC   C2B57668   6.852  11.361   6.750
 8906POPC   C3B57669   6.885  11.379   7.050
 8906POPC   C4B57670   6.858  11.307   7.350
 8907POPC   NC357671  20.571  43.883   5.550
 8907POPC   PO457672  20.618  43.858   5.850
 8907POPC   GL157673  20.611  43.858   6.150
 8907POPC   GL257674  20.583  43.800   6.150
 8907POPC   C1A57675  20.642  43.927   6.450
 8907POPC   D2A57676  20.607  43.883   6.750
 8907POPC   C3A57677  20.581  43.904   7.050
 8907POPC   C4A57678  20.613  43.857   7.350
 8907POPC   C1B57679  20.552  43.686   6.450
 8907POPC   C2B57680  20.542  43.649   6.750
 8907POPC   C3B57681  20.519  43.679   7.050
 8907POPC   C4B57682  20.579  43.650   7.350
 8908POPC   NC357683  10.483  39.997   5.550
 8908POPC   PO457684  10.538  39.981   5.850
 8908POPC   GL157685  10.534  40.017   6.150
 8908POPC   GL257686  10.646  40.094   6.150
 8908POPC   C1A57687  10.564  40.029   6.450
 8908POPC   D2A57688  10.505  39.996   6.750
 8908POPC   C3A57689  10.574  40.019   7.050
 8908POPC   C4A57690  10.541  40.017   7.350
 8908POPC   C1B57691  10.743  40.091   6.450
 8908POPC   C2B57692  10.748  40.054   6.750
 8908POPC   C3B57693  10.735  40.071   7.050
 8908POPC   C4B57694  10.723  40.137   7.350
 8909POPC   NC357695  36.172  16.730   5.550
 8909POPC   PO457696  36.171  16.746   5.850
 8909POPC   GL157697  36.148  16.765   6.150
 8909POPC   GL257698  36.253  16.645   6.150
 8909POPC   C1A57699  36.121  16.769   6.450
 8909POPC   D2A57700  36.102  16.702   6.750
 8909POPC   C3A57701  36.166  16.753   7.050
 8909POPC   C4A57702  36.135  16.745   7.350
 8909POPC   C1B57703  36.378  16.582   6.450
 8909POPC   C2B57704  36.374  16.561   6.750
 8909POPC   C3B57705  36.310  16.584   7.050
 8909POPC   C4B57706  36.342  16.626   7.350
 8910POPC   NC357707   8.944  31.429   5.550
 8910POPC   PO457708   8.964  31.433   5.850
 8910POPC   GL157709   8.928  31.520   6.150
 8910POPC   GL257710   9.100  31.511   6.150
 8910POPC   C1A57711   8.935  31.467   6.450
 8910POPC   D2A57712   8.984  31.459   6.750
 8910POPC   C3A57713   8.935  31.502   7.050
 8910POPC   C4A57714   8.936  31.481   7.350
 8910POPC   C1B57715   9.199  31.513   6.450
 8910POPC   C2B57716   9.225  31.542   6.750
 8910POPC   C3B57717   9.222  31.508   7.050
 8910POPC   C4B57718   9.260  31.535   7.350
 8911POPC   NC357719  19.828  42.350   5.550
 8911POPC   PO457720  19.879  42.310   5.850
 8911POPC   GL157721  19.866  42.378   6.150
 8911POPC   GL257722  19.869  42.167   6.150
 8911POPC   C1A57723  19.824  42.365   6.450
 8911POPC   D2A57724  19.880  42.320   6.750
 8911POPC   C3A57725  19.790  42.295   7.050
 8911POPC   C4A57726  19.853  42.357   7.350
 8911POPC   C1B57727  19.844  42.110   6.450
 8911POPC   C2B57728  19.851  42.037   6.750
 8911POPC   C3B57729  19.877  42.048   7.050
 8911POPC   C4B57730  19.894  42.063   7.350
 8912POPC   NC357731   8.996  39.204   5.550
 8912POPC   PO457732   8.951  39.261   5.850
 8912POPC   GL157733   8.956  39.215   6.150
 8912POPC   GL257734   9.030  39.353   6.150
 8912POPC   C1A57735   8.987  39.225   6.450
 8912POPC   D2A57736   9.020  39.230   6.750
 8912POPC   C3A57737   8.935  39.281   7.050
 8912POPC   C4A57738   9.012  39.212   7.350
 8912POPC   C1B57739   9.093  39.494   6.450
 8912POPC   C2B57740   9.056  39.464   6.750
 8912POPC   C3B57741   9.082  39.467   7.050
 8912POPC   C4B57742   9.122  39.498   7.350
 8913POPC   NC357743   1.992   5.837   5.550
 8913POPC   PO457744   2.007   5.849   5.850
 8913POPC   GL157745   2.007   5.918   6.150
 8913POPC   GL257746   1.963   6.015   6.150
 8913POPC   C1A57747   2.032   5.821   6.450
 8913POPC   D2A57748   1.996   5.824   6.750
 8913POPC   C3A57749   1.985   5.833   7.050
 8913POPC   C4A57750   2.035   5.893   7.350
 8913POPC   C1B57751   1.930   6.062   6.450
 8913POPC   C2B57752   1.922   6.145   6.750
 8913POPC   C3B57753   1.887   6.130   7.050
 8913POPC   C4B57754   1.882   6.058   7.350
 8914POPC   NC357755  33.814  30.725   5.550
 8914POPC   PO457756  33.811  30.696   5.850
 8914POPC   GL157757  33.845  30.648   6.150
 8914POPC   GL257758  33.939  30.699   6.150
 8914POPC   C1A57759  33.825  30.713   6.450
 8914POPC   D2A57760  33.822  30.650   6.750
 8914POPC   C3A57761  33.754  30.665   7.050
 8914POPC   C4A57762  33.782  30.668   7.350
 8914POPC   C1B57763  34.094  30.786   6.450
 8914POPC   C2B57764  34.019  30.747   6.750
 8914POPC   C3B57765  34.053  30.766   7.050
 8914POPC   C4B57766  34.027  30.703   7.350
 8915POPC   NC357767  20.644   7.398   5.550
 8915POPC   PO457768  20.614   7.415   5.850
 8915POPC   GL157769  20.640   7.382   6.150
 8915POPC   GL257770  20.436   7.423   6.150
 8915POPC   C1A57771  20.603   7.463   6.450
 8915POPC   D2A57772  20.631   7.455   6.750
 8915POPC   C3A57773  20.618   7.392   7.050
 8915POPC   C4A57774  20.638   7.396   7.350
 8915POPC   C1B57775  20.401   7.414   6.450
 8915POPC   C2B57776  20.396   7.387   6.750
 8915POPC   C3B57777  20.312   7.369   7.050
 8915POPC   C4B57778  20.342   7.397   7.350
 8916POPC   NC357779  36.146  34.570   5.550
 8916POPC   PO457780  36.164  34.609   5.850
 8916POPC   GL157781  36.093  34.582   6.150
 8916POPC   GL257782  36.191  34.471   6.150
 8916POPC   C1A57783  36.097  34.603   6.450
 8916POPC   D2A57784  36.091  34.557   6.750
 8916POPC   C3A57785  36.161  34.605   7.050
 8916POPC   C4A57786  36.160  34.589   7.350
 8916POPC   C1B57787  36.273  34.306   6.450
 8916POPC   C2B57788  36.222  34.316   6.750
 8916POPC   C3B57789  36.240  34.396   7.050
 8916POPC   C4B57790  36.213  34.373   7.350
 8917POPC   NC357791  39.974  24.465   5.550
 8917POPC   PO457792  40.009  24.535   5.850
 8917POPC   GL157793  40.034  24.441   6.150
 8917POPC   GL257794  40.110  24.439   6.150
 8917POPC   C1A57795  40.033  24.478   6.450
 8917POPC   D2A57796  40.018  24.530   6.750
 8917POPC   C3A57797  39.997  24.513   7.050
 8917POPC   C4A57798  40.015  24.461   7.350
 8917POPC   C1B57799  40.239  24.401   6.450
 8917POPC   C2B57800  40.241  24.450   6.750
 8917POPC   C3B57801  40.210  24.402   7.050
 8917POPC   C4B57802  40.213  24.384   7.350
 8918POPC   NC357803  35.318  39.201   5.550
 8918POPC   PO457804  35.400  39.200   5.850
 8918POPC   GL157805  35.368  39.256   6.150
 8918POPC   GL257806  35.378  39.074   6.150
 8918POPC   C1A57807  35.376  39.219   6.450
 8918POPC   D2A57808  35.313  39.277   6.750
 8918POPC   C3A57809  35.320  39.230   7.050
 8918POPC   C4A57810  35.398  39.189   7.350
 8918POPC   C1B57811  35.429  39.010   6.450
 8918POPC   C2B57812  35.430  38.958   6.750
 8918POPC   C3B57813  35.395  38.943   7.050
 8918POPC   C4B57814  35.432  38.961   7.350
 8919POPC   NC357815  22.189  15.225   5.550
 8919POPC   PO457816  22.199  15.160   5.850
 8919POPC   GL157817  22.176  15.167   6.150
 8919POPC   GL257818  22.201  15.331   6.150
 8919POPC   C1A57819  22.192  15.203   6.450
 8919POPC   D2A57820  22.137  15.163   6.750
 8919POPC   C3A57821  22.186  15.147   7.050
 8919POPC   C4A57822  22.196  15.152   7.350
 8919POPC   C1B57823  22.204  15.427   6.450
 8919POPC   C2B57824  22.259  15.413   6.750
 8919POPC   C3B57825  22.238  15.439   7.050
 8919POPC   C4B57826  22.209  15.458   7.350
 8920POPC   NC357827  44.634  15.155   5.550
 8920POPC   PO457828  44.685  15.167   5.850
 8920POPC   GL157829  44.650  15.150   6.150
 8920POPC   GL257830  44.557  15.169   6.150
 8920POPC   C1A57831  44.710  15.154   6.450
 8920POPC   D2A57832  44.672  15.141   6.750
 8920POPC   C3A57833  44.707  15.159   7.050
 8920POPC   C4A57834  44.650  15.166   7.350
 8920POPC   C1B57835  44.422  15.143   6.450
 8920POPC   C2B57836  44.375  15.196   6.750
 8920POPC   C3B57837  44.391  15.143   7.050
 8920POPC   C4B57838  44.380  15.198   7.350
 8921POPC   NC357839  14.419  34.528   5.550
 8921POPC   PO457840  14.428  34.561   5.850
 8921POPC   GL157841  14.390  34.591   6.150
 8921POPC   GL257842  14.513  34.560   6.150
 8921POPC   C1A57843  14.400  34.588   6.450
 8921POPC   D2A57844  14.402  34.549   6.750
 8921POPC   C3A57845  14.411  34.601   7.050
 8921POPC   C4A57846  14.426  34.614   7.350
 8921POPC   C1B57847  14.602  34.434   6.450
 8921POPC   C2B57848  14.655  34.471   6.750
 8921POPC   C3B57849  14.660  34.493   7.050
 8921POPC   C4B57850  14.665  34.467   7.350
 8922POPC   NC357851   7.416  13.621   5.550
 8922POPC   PO457852   7.461  13.610   5.850
 8922POPC   GL157853   7.377  13.587   6.150
 8922POPC   GL257854   7.495  13.718   6.150
 8922POPC   C1A57855   7.422  13.665   6.450
 8922POPC   D2A57856   7.377  13.645   6.750
 8922POPC   C3A57857   7.393  13.658   7.050
 8922POPC   C4A57858   7.427  13.603   7.350
 8922POPC   C1B57859   7.526  13.894   6.450
 8922POPC   C2B57860   7.489  13.803   6.750
 8922POPC   C3B57861   7.508  13.897   7.050
 8922POPC   C4B57862   7.503  13.839   7.350
 8923POPC   NC357863  38.467  35.351   5.550
 8923POPC   PO457864  38.481  35.315   5.850
 8923POPC   GL157865  38.440  35.341   6.150
 8923POPC   GL257866  38.463  35.481   6.150
 8923POPC   C1A57867  38.474  35.352   6.450
 8923POPC   D2A57868  38.410  35.316   6.750
 8923POPC   C3A57869  38.437  35.355   7.050
 8923POPC   C4A57870  38.497  35.360   7.350
 8923POPC   C1B57871  38.569  35.577   6.450
 8923POPC   C2B57872  38.504  35.538   6.750
 8923POPC   C3B57873  38.545  35.538   7.050
 8923POPC   C4B57874  38.558  35.574   7.350
 8924POPC   NC357875  44.712  44.639   5.550
 8924POPC   PO457876  44.623  44.652   5.850
 8924POPC   GL157877  44.649  44.701   6.150
 8924POPC   GL257878  44.543  44.674   6.150
 8924POPC   C1A57879  44.663  44.705   6.450
 8924POPC   D2A57880  44.665  44.680   6.750
 8924POPC   C3A57881  44.622  44.650   7.050
 8924POPC   C4A57882  44.667  44.695   7.350
 8924POPC   C1B57883  44.398  44.726   6.450
 8924POPC   C2B57884  44.398  44.761   6.750
 8924POPC   C3B57885  44.450  44.737   7.050
 8924POPC   C4B57886  44.449  44.761   7.350
 8925POPC   NC357887  18.332   5.824   5.550
 8925POPC   PO457888  18.246   5.854   5.850
 8925POPC   GL157889  18.246   5.881   6.150
 8925POPC   GL257890  18.363   5.910   6.150
 8925POPC   C1A57891  18.260   5.865   6.450
 8925POPC   D2A57892  18.264   5.864   6.750
 8925POPC   C3A57893  18.263   5.893   7.050
 8925POPC   C4A57894  18.244   5.908   7.350
 8925POPC   C1B57895  18.517   5.981   6.450
 8925POPC   C2B57896  18.474   6.025   6.750
 8925POPC   C3B57897  18.452   5.987   7.050
 8925POPC   C4B57898  18.489   5.982   7.350
 8926POPC   NC357899   5.109  33.040   5.550
 8926POPC   PO457900   5.073  32.994   5.850
 8926POPC   GL157901   5.124  32.993   6.150
 8926POPC   GL257902   5.075  33.176   6.150
 8926POPC   C1A57903   5.084  33.053   6.450
 8926POPC   D2A57904   5.055  32.983   6.750
 8926POPC   C3A57905   5.089  33.041   7.050
 8926POPC   C4A57906   5.132  33.069   7.350
 8926POPC   C1B57907   5.114  33.296   6.450
 8926POPC   C2B57908   5.044  33.259   6.750
 8926POPC   C3B57909   5.108  33.225   7.050
 8926POPC   C4B57910   5.091  33.245   7.350
 8927POPC   NC357911  11.294   8.969   5.550
 8927POPC   PO457912  11.293   8.952   5.850
 8927POPC   GL157913  11.327   8.956   6.150
 8927POPC   GL257914  11.150   8.950   6.150
 8927POPC   C1A57915  11.336   9.007   6.450
 8927POPC   D2A57916  11.339   9.020   6.750
 8927POPC   C3A57917  11.336   8.962   7.050
 8927POPC   C4A57918  11.299   9.009   7.350
 8927POPC   C1B57919  11.088   8.919   6.450
 8927POPC   C2B57920  11.054   8.937   6.750
 8927POPC   C3B57921  11.025   8.958   7.050
 8927POPC   C4B57922  11.098   8.914   7.350
 8928POPC   NC357923  11.309  12.044   5.550
 8928POPC   PO457924  11.315  12.088   5.850
 8928POPC   GL157925  11.271  12.117   6.150
 8928POPC   GL257926  11.351  12.220   6.150
 8928POPC   C1A57927  11.293  12.070   6.450
 8928POPC   D2A57928  11.332  12.058   6.750
 8928POPC   C3A57929  11.271  12.058   7.050
 8928POPC   C4A57930  11.288  12.113   7.350
 8928POPC   C1B57931  11.417  12.308   6.450
 8928POPC   C2B57932  11.426  12.318   6.750
 8928POPC   C3B57933  11.410  12.273   7.050
 8928POPC   C4B57934  11.452  12.258   7.350
 8929POPC   NC357935   9.730   5.103   5.550
 8929POPC   PO457936   9.793   5.074   5.850
 8929POPC   GL157937   9.753   5.070   6.150
 8929POPC   GL257938   9.865   5.221   6.150
 8929POPC   C1A57939   9.729   5.070   6.450
 8929POPC   D2A57940   9.719   5.046   6.750
 8929POPC   C3A57941   9.716   5.123   7.050
 8929POPC   C4A57942   9.776   5.084   7.350
 8929POPC   C1B57943   9.908   5.306   6.450
 8929POPC   C2B57944   9.852   5.295   6.750
 8929POPC   C3B57945   9.870   5.260   7.050
 8929POPC   C4B57946   9.876   5.312   7.350
 8930POPC   NC357947   6.657  30.709   5.550
 8930POPC   PO457948   6.636  30.659   5.850
 8930POPC   GL157949   6.679  30.702   6.150
 8930POPC   GL257950   6.594  30.605   6.150
 8930POPC   C1A57951   6.649  30.694   6.450
 8930POPC   D2A57952   6.678  30.719   6.750
 8930POPC   C3A57953   6.642  30.705   7.050
 8930POPC   C4A57954   6.605  30.713   7.350
 8930POPC   C1B57955   6.571  30.478   6.450
 8930POPC   C2B57956   6.599  30.414   6.750
 8930POPC   C3B57957   6.651  30.446   7.050
 8930POPC   C4B57958   6.588  30.493   7.350
 8931POPC   NC357959   6.695  17.462   5.550
 8931POPC   PO457960   6.603  17.525   5.850
 8931POPC   GL157961   6.681  17.513   6.150
 8931POPC   GL257962   6.667  17.677   6.150
 8931POPC   C1A57963   6.687  17.500   6.450
 8931POPC   D2A57964   6.657  17.486   6.750
 8931POPC   C3A57965   6.620  17.493   7.050
 8931POPC   C4A57966   6.681  17.516   7.350
 8931POPC   C1B57967   6.722  17.762   6.450
 8931POPC   C2B57968   6.726  17.796   6.750
 8931POPC   C3B57969   6.732  17.776   7.050
 8931POPC   C4B57970   6.692  17.703   7.350
 8932POPC   NC357971  41.601  22.148   5.550
 8932POPC   PO457972  41.571  22.182   5.850
 8932POPC   GL157973  41.572  22.179   6.150
 8932POPC   GL257974  41.503  22.245   6.150
 8932POPC   C1A57975  41.540  22.177   6.450
 8932POPC   D2A57976  41.591  22.122   6.750
 8932POPC   C3A57977  41.545  22.169   7.050
 8932POPC   C4A57978  41.545  22.126   7.350
 8932POPC   C1B57979  41.502  22.365   6.450
 8932POPC   C2B57980  41.502  22.396   6.750
 8932POPC   C3B57981  41.514  22.396   7.050
 8932POPC   C4B57982  41.455  22.364   7.350
 8933POPC   NC357983   1.988  21.346   5.550
 8933POPC   PO457984   1.983  21.410   5.850
 8933POPC   GL157985   2.028  21.426   6.150
 8933POPC   GL257986   2.016  21.486   6.150
 8933POPC   C1A57987   1.970  21.377   6.450
 8933POPC   D2A57988   2.015  21.349   6.750
 8933POPC   C3A57989   1.966  21.402   7.050
 8933POPC   C4A57990   1.985  21.352   7.350
 8933POPC   C1B57991   2.109  21.629   6.450
 8933POPC   C2B57992   2.035  21.642   6.750
 8933POPC   C3B57993   2.042  21.633   7.050
 8933POPC   C4B57994   2.041  21.612   7.350
 8934POPC   NC357995  13.598  13.643   5.550
 8934POPC   PO457996  13.603  13.660   5.850
 8934POPC   GL157997  13.594  13.617   6.150
 8934POPC   GL257998  13.727  13.521   6.150
 8934POPC   C1A57999  13.633  13.616   6.450
 8934POPC   D2A58000  13.670  13.626   6.750
 8934POPC   C3A58001  13.593  13.579   7.050
 8934POPC   C4A58002  13.662  13.635   7.350
 8934POPC   C1B58003  13.765  13.386   6.450
 8934POPC   C2B58004  13.772  13.410   6.750
 8934POPC   C3B58005  13.788  13.368   7.050
 8934POPC   C4B58006  13.744  13.444   7.350
 8935POPC   NC358007  27.589  12.087   5.550
 8935POPC   PO458008  27.557  12.070   5.850
 8935POPC   GL158009  27.590  12.028   6.150
 8935POPC   GL258010  27.681  12.069   6.150
 8935POPC   C1A58011  27.572  12.053   6.450
 8935POPC   D2A58012  27.639  12.082   6.750
 8935POPC   C3A58013  27.546  12.039   7.050
 8935POPC   C4A58014  27.567  12.060   7.350
 8935POPC   C1B58015  27.872  12.055   6.450
 8935POPC   C2B58016  27.802  12.035   6.750
 8935POPC   C3B58017  27.852  12.073   7.050
 8935POPC   C4B58018  27.851  12.036   7.350
 8936POPC   NC358019   2.812   1.217   5.550
 8936POPC   PO458020   2.794   1.175   5.850
 8936POPC   GL158021   2.738   1.232   6.150
 8936POPC   GL258022   2.808   1.117   6.150
 8936POPC   C1A58023   2.807   1.177   6.450
 8936POPC   D2A58024   2.793   1.209   6.750
 8936POPC   C3A58025   2.758   1.210   7.050
 8936POPC   C4A58026   2.720   1.241   7.350
 8936POPC   C1B58027   2.835   0.984   6.450
 8936POPC   C2B58028   2.830   0.927   6.750
 8936POPC   C3B58029   2.859   0.922   7.050
 8936POPC   C4B58030   2.809   0.950   7.350
 8937POPC   NC358031   5.048  40.810   5.550
 8937POPC   PO458032   5.142  40.743   5.850
 8937POPC   GL158033   5.119  40.831   6.150
 8937POPC   GL258034   5.011  40.857   6.150
 8937POPC   C1A58035   5.061  40.785   6.450
 8937POPC   D2A58036   5.125  40.770   6.750
 8937POPC   C3A58037   5.131  40.792   7.050
 8937POPC   C4A58038   5.127  40.819   7.350
 8937POPC   C1B58039   4.989  40.961   6.450
 8937POPC   C2B58040   4.925  40.989   6.750
 8937POPC   C3B58041   4.948  41.015   7.050
 8937POPC   C4B58042   4.953  40.969   7.350
 8938POPC   NC358043  39.202   7.440   5.550
 8938POPC   PO458044  39.222   7.426   5.850
 8938POPC   GL158045  39.190   7.443   6.150
 8938POPC   GL258046  39.319   7.410   6.150
 8938POPC   C1A58047  39.232   7.439   6.450
 8938POPC   D2A58048  39.272   7.378   6.750
 8938POPC   C3A58049  39.190   7.394   7.050
 8938POPC   C4A58050  39.266   7.374   7.350
 8938POPC   C1B58051  39.434   7.466   6.450
 8938POPC   C2B58052  39.489   7.459   6.750
 8938POPC   C3B58053  39.448   7.472   7.050
 8938POPC   C4B58054  39.431   7.494   7.350
 8939POPC   NC358055  29.100  32.249   5.550
 8939POPC   PO458056  29.128  32.291   5.850
 8939POPC   GL158057  29.114  32.205   6.150
 8939POPC   GL258058  29.228  32.127   6.150
 8939POPC   C1A58059  29.145  32.209   6.450
 8939POPC   D2A58060  29.137  32.219   6.750
 8939POPC   C3A58061  29.179  32.292   7.050
 8939POPC   C4A58062  29.100  32.241   7.350
 8939POPC   C1B58063  29.218  32.023   6.450
 8939POPC   C2B58064  29.211  32.012   6.750
 8939POPC   C3B58065  29.204  31.984   7.050
 8939POPC   C4B58066  29.206  32.022   7.350
 8940POPC   NC358067  32.288  30.741   5.550
 8940POPC   PO458068  32.203  30.667   5.850
 8940POPC   GL158069  32.274  30.663   6.150
 8940POPC   GL258070  32.334  30.601   6.150
 8940POPC   C1A58071  32.229  30.731   6.450
 8940POPC   D2A58072  32.251  30.715   6.750
 8940POPC   C3A58073  32.275  30.647   7.050
 8940POPC   C4A58074  32.208  30.709   7.350
 8940POPC   C1B58075  32.404  30.508   6.450
 8940POPC   C2B58076  32.413  30.459   6.750
 8940POPC   C3B58077  32.374  30.453   7.050
 8940POPC   C4B58078  32.390  30.472   7.350
 8941POPC   NC358079  43.841   7.432   5.550
 8941POPC   PO458080  43.921   7.398   5.850
 8941POPC   GL158081  43.882   7.445   6.150
 8941POPC   GL258082  43.872   7.292   6.150
 8941POPC   C1A58083  43.910   7.410   6.450
 8941POPC   D2A58084  43.871   7.470   6.750
 8941POPC   C3A58085  43.926   7.379   7.050
 8941POPC   C4A58086  43.857   7.462   7.350
 8941POPC   C1B58087  43.819   7.155   6.450
 8941POPC   C2B58088  43.814   7.224   6.750
 8941POPC   C3B58089  43.812   7.139   7.050
 8941POPC   C4B58090  43.823   7.228   7.350
 8942POPC   NC358091  39.252  39.209   5.550
 8942POPC   PO458092  39.222  39.255   5.850
 8942POPC   GL158093  39.197  39.273   6.150
 8942POPC   GL258094  39.275  39.129   6.150
 8942POPC   C1A58095  39.266  39.232   6.450
 8942POPC   D2A58096  39.252  39.212   6.750
 8942POPC   C3A58097  39.268  39.280   7.050
 8942POPC   C4A58098  39.193  39.233   7.350
 8942POPC   C1B58099  39.207  38.981   6.450
 8942POPC   C2B58100  39.250  38.983   6.750
 8942POPC   C3B58101  39.238  38.992   7.050
 8942POPC   C4B58102  39.261  39.007   7.350
 8943POPC   NC358103  13.662  36.157   5.550
 8943POPC   PO458104  13.624  36.146   5.850
 8943POPC   GL158105  13.618  36.161   6.150
 8943POPC   GL258106  13.525  36.208   6.150
 8943POPC   C1A58107  13.655  36.156   6.450
 8943POPC   D2A58108  13.605  36.092   6.750
 8943POPC   C3A58109  13.639  36.142   7.050
 8943POPC   C4A58110  13.639  36.162   7.350
 8943POPC   C1B58111  13.376  36.161   6.450
 8943POPC   C2B58112  13.414  36.152   6.750
 8943POPC   C3B58113  13.374  36.180   7.050
 8943POPC   C4B58114  13.403  36.189   7.350
 8944POPC   NC358115  43.102  12.810   5.550
 8944POPC   PO458116  43.092  12.834   5.850
 8944POPC   GL158117  43.098  12.803   6.150
 8944POPC   GL258118  42.981  12.869   6.150
 8944POPC   C1A58119  43.133  12.806   6.450
 8944POPC   D2A58120  43.139  12.808   6.750
 8944POPC   C3A58121  43.118  12.881   7.050
 8944POPC   C4A58122  43.127  12.815   7.350
 8944POPC   C1B58123  42.863  12.944   6.450
 8944POPC   C2B58124  42.854  12.922   6.750
 8944POPC   C3B58125  42.897  12.992   7.050
 8944POPC   C4B58126  42.900  12.950   7.350
 8945POPC   NC358127   4.357   7.408   5.550
 8945POPC   PO458128   4.357   7.403   5.850
 8945POPC   GL158129   4.314   7.391   6.150
 8945POPC   GL258130   4.253   7.462   6.150
 8945POPC   C1A58131   4.304   7.455   6.450
 8945POPC   D2A58132   4.364   7.417   6.750
 8945POPC   C3A58133   4.285   7.466   7.050
 8945POPC   C4A58134   4.328   7.405   7.350
 8945POPC   C1B58135   4.114   7.539   6.450
 8945POPC   C2B58136   4.093   7.513   6.750
 8945POPC   C3B58137   4.113   7.558   7.050
 8945POPC   C4B58138   4.066   7.582   7.350
 8946POPC   NC358139  30.687  26.809   5.550
 8946POPC   PO458140  30.673  26.839   5.850
 8946POPC   GL158141  30.695  26.866   6.150
 8946POPC   GL258142  30.830  26.827   6.150
 8946POPC   C1A58143  30.683  26.776   6.450
 8946POPC   D2A58144  30.724  26.778   6.750
 8946POPC   C3A58145  30.659  26.866   7.050
 8946POPC   C4A58146  30.697  26.829   7.350
 8946POPC   C1B58147  30.974  26.754   6.450
 8946POPC   C2B58148  30.904  26.766   6.750
 8946POPC   C3B58149  30.959  26.822   7.050
 8946POPC   C4B58150  30.949  26.755   7.350
 8947POPC   NC358151  10.498  16.705   5.550
 8947POPC   PO458152  10.539  16.708   5.850
 8947POPC   GL158153  10.518  16.758   6.150
 8947POPC   GL258154  10.573  16.883   6.150
 8947POPC   C1A58155  10.540  16.726   6.450
 8947POPC   D2A58156  10.558  16.742   6.750
 8947POPC   C3A58157  10.516  16.689   7.050
 8947POPC   C4A58158  10.536  16.739   7.350
 8947POPC   C1B58159  10.569  16.967   6.450
 8947POPC   C2B58160  10.571  16.971   6.750
 8947POPC   C3B58161  10.504  17.021   7.050
 8947POPC   C4B58162  10.558  16.937   7.350
 8948POPC   NC358163  17.525  31.485   5.550
 8948POPC   PO458164  17.466  31.446   5.850
 8948POPC   GL158165  17.515  31.475   6.150
 8948POPC   GL258166  17.570  31.390   6.150
 8948POPC   C1A58167  17.481  31.463   6.450
 8948POPC   D2A58168  17.469  31.517   6.750
 8948POPC   C3A58169  17.510  31.504   7.050
 8948POPC   C4A58170  17.499  31.517   7.350
 8948POPC   C1B58171  17.683  31.297   6.450
 8948POPC   C2B58172  17.660  31.346   6.750
 8948POPC   C3B58173  17.707  31.332   7.050
 8948POPC   C4B58174  17.721  31.325   7.350
 8949POPC   NC358175  12.894  42.286   5.550
 8949POPC   PO458176  12.858  42.315   5.850
 8949POPC   GL158177  12.820  42.364   6.150
 8949POPC   GL258178  12.850  42.201   6.150
 8949POPC   C1A58179  12.846  42.382   6.450
 8949POPC   D2A58180  12.889  42.309   6.750
 8949POPC   C3A58181  12.823  42.325   7.050
 8949POPC   C4A58182  12.871  42.322   7.350
 8949POPC   C1B58183  12.780  42.075   6.450
 8949POPC   C2B58184  12.825  42.100   6.750
 8949POPC   C3B58185  12.820  42.073   7.050
 8949POPC   C4B58186  12.828  42.137   7.350
 8950POPC   NC358187  34.592   5.856   5.550
 8950POPC   PO458188  34.605   5.913   5.850
 8950POPC   GL158189  34.593   5.861   6.150
 8950POPC   GL258190  34.706   5.910   6.150
 8950POPC   C1A58191  34.567   5.846   6.450
 8950POPC   D2A58192  34.541   5.823   6.750
 8950POPC   C3A58193  34.601   5.917   7.050
 8950POPC   C4A58194  34.619   5.858   7.350
 8950POPC   C1B58195  34.867   5.891   6.450
 8950POPC   C2B58196  34.818   5.888   6.750
 8950POPC   C3B58197  34.851   5.893   7.050
 8950POPC   C4B58198  34.808   5.841   7.350
 8951POPC   NC358199  25.992  32.239   5.550
 8951POPC   PO458200  26.089  32.208   5.850
 8951POPC   GL158201  26.004  32.276   6.150
 8951POPC   GL258202  26.065  32.122   6.150
 8951POPC   C1A58203  25.994  32.245   6.450
 8951POPC   D2A58204  26.014  32.278   6.750
 8951POPC   C3A58205  26.066  32.268   7.050
 8951POPC   C4A58206  26.036  32.277   7.350
 8951POPC   C1B58207  26.119  32.071   6.450
 8951POPC   C2B58208  26.146  31.999   6.750
 8951POPC   C3B58209  26.199  31.994   7.050
 8951POPC   C4B58210  26.174  31.999   7.350
 8952POPC   NC358211  37.681  20.569   5.550
 8952POPC   PO458212  37.678  20.634   5.850
 8952POPC   GL158213  37.700  20.638   6.150
 8952POPC   GL258214  37.745  20.712   6.150
 8952POPC   C1A58215  37.725  20.658   6.450
 8952POPC   D2A58216  37.654  20.580   6.750
 8952POPC   C3A58217  37.645  20.637   7.050
 8952POPC   C4A58218  37.642  20.653   7.350
 8952POPC   C1B58219  37.810  20.835   6.450
 8952POPC   C2B58220  37.804  20.795   6.750
 8952POPC   C3B58221  37.741  20.798   7.050
 8952POPC   C4B58222  37.795  20.864   7.350
 8953POPC   NC358223   4.323  37.655   5.550
 8953POPC   PO458224   4.320  37.695   5.850
 8953POPC   GL158225   4.324  37.634   6.150
 8953POPC   GL258226   4.246  37.614   6.150
 8953POPC   C1A58227   4.334  37.675   6.450
 8953POPC   D2A58228   4.307  37.691   6.750
 8953POPC   C3A58229   4.364  37.689   7.050
 8953POPC   C4A58230   4.359  37.663   7.350
 8953POPC   C1B58231   4.164  37.458   6.450
 8953POPC   C2B58232   4.145  37.452   6.750
 8953POPC   C3B58233   4.206  37.509   7.050
 8953POPC   C4B58234   4.183  37.497   7.350
 8954POPC   NC358235   8.943  36.157   5.550
 8954POPC   PO458236   8.936  36.129   5.850
 8954POPC   GL158237   8.944  36.131   6.150
 8954POPC   GL258238   8.953  36.009   6.150
 8954POPC   C1A58239   8.967  36.166   6.450
 8954POPC   D2A58240   8.988  36.085   6.750
 8954POPC   C3A58241   8.986  36.130   7.050
 8954POPC   C4A58242   8.984  36.099   7.350
 8954POPC   C1B58243   8.989  35.887   6.450
 8954POPC   C2B58244   8.958  35.853   6.750
 8954POPC   C3B58245   8.999  35.908   7.050
 8954POPC   C4B58246   9.000  35.870   7.350
 8955POPC   NC358247  29.926  10.486   5.550
 8955POPC   PO458248  29.931  10.512   5.850
 8955POPC   GL158249  29.954  10.510   6.150
 8955POPC   GL258250  30.042  10.535   6.150
 8955POPC   C1A58251  29.883  10.557   6.450
 8955POPC   D2A58252  29.876  10.510   6.750
 8955POPC   C3A58253  29.903  10.518   7.050
 8955POPC   C4A58254  29.923  10.538   7.350
 8955POPC   C1B58255  30.185  10.523   6.450
 8955POPC   C2B58256  30.191  10.597   6.750
 8955POPC   C3B58257  30.160  10.606   7.050
 8955POPC   C4B58258  30.158  10.613   7.350
 8956POPC   NC358259   9.021   7.431   5.550
 8956POPC   PO458260   9.022   7.380   5.850
 8956POPC   GL158261   8.952   7.389   6.150
 8956POPC   GL258262   8.980   7.322   6.150
 8956POPC   C1A58263   8.971   7.381   6.450
 8956POPC   D2A58264   8.932   7.447   6.750
 8956POPC   C3A58265   8.994   7.421   7.050
 8956POPC   C4A58266   8.925   7.449   7.350
 8956POPC   C1B58267   8.909   7.204   6.450
 8956POPC   C2B58268   8.996   7.133   6.750
 8956POPC   C3B58269   8.941   7.199   7.050
 8956POPC   C4B58270   8.937   7.149   7.350
 8957POPC   NC358271  10.568  13.676   5.550
 8957POPC   PO458272  10.516  13.631   5.850
 8957POPC   GL158273  10.528  13.660   6.150
 8957POPC   GL258274  10.583  13.741   6.150
 8957POPC   C1A58275  10.570  13.676   6.450
 8957POPC   D2A58276  10.546  13.598   6.750
 8957POPC   C3A58277  10.503  13.579   7.050
 8957POPC   C4A58278  10.484  13.630   7.350
 8957POPC   C1B58279  10.657  13.858   6.450
 8957POPC   C2B58280  10.642  13.887   6.750
 8957POPC   C3B58281  10.663  13.830   7.050
 8957POPC   C4B58282  10.620  13.864   7.350
 8958POPC   NC358283  43.876  31.507   5.550
 8958POPC   PO458284  43.873  31.470   5.850
 8958POPC   GL158285  43.896  31.474   6.150
 8958POPC   GL258286  43.988  31.348   6.150
 8958POPC   C1A58287  43.871  31.429   6.450
 8958POPC   D2A58288  43.850  31.501   6.750
 8958POPC   C3A58289  43.864  31.459   7.050
 8958POPC   C4A58290  43.906  31.501   7.350
 8958POPC   C1B58291  44.110  31.341   6.450
 8958POPC   C2B58292  44.023  31.262   6.750
 8958POPC   C3B58293  44.034  31.320   7.050
 8958POPC   C4B58294  44.044  31.311   7.350
 8959POPC   NC358295   9.011  13.582   5.550
 8959POPC   PO458296   9.020  13.613   5.850
 8959POPC   GL158297   8.933  13.607   6.150
 8959POPC   GL258298   8.824  13.684   6.150
 8959POPC   C1A58299   9.007  13.661   6.450
 8959POPC   D2A58300   9.004  13.644   6.750
 8959POPC   C3A58301   9.005  13.650   7.050
 8959POPC   C4A58302   8.953  13.639   7.350
 8959POPC   C1B58303   8.686  13.720   6.450
 8959POPC   C2B58304   8.773  13.653   6.750
 8959POPC   C3B58305   8.719  13.725   7.050
 8959POPC   C4B58306   8.752  13.639   7.350
 8960POPC   NC358307  12.117  16.707   5.550
 8960POPC   PO458308  12.066  16.754   5.850
 8960POPC   GL158309  12.071  16.778   6.150
 8960POPC   GL258310  12.117  16.575   6.150
 8960POPC   C1A58311  12.125  16.733   6.450
 8960POPC   D2A58312  12.124  16.683   6.750
 8960POPC   C3A58313  12.035  16.695   7.050
 8960POPC   C4A58314  12.094  16.776   7.350
 8960POPC   C1B58315  12.111  16.521   6.450
 8960POPC   C2B58316  12.139  16.461   6.750
 8960POPC   C3B58317  12.057  16.500   7.050
 8960POPC   C4B58318  12.072  16.440   7.350
 8961POPC   NC358319  24.445   1.218   5.550
 8961POPC   PO458320  24.448   1.194   5.850
 8961POPC   GL158321  24.451   1.256   6.150
 8961POPC   GL258322  24.402   1.159   6.150
 8961POPC   C1A58323  24.472   1.225   6.450
 8961POPC   D2A58324  24.458   1.206   6.750
 8961POPC   C3A58325  24.498   1.260   7.050
 8961POPC   C4A58326  24.447   1.192   7.350
 8961POPC   C1B58327  24.340   1.019   6.450
 8961POPC   C2B58328  24.375   1.003   6.750
 8961POPC   C3B58329  24.385   0.961   7.050
 8961POPC   C4B58330  24.347   0.962   7.350
 8962POPC   NC358331  10.480  10.528   5.550
 8962POPC   PO458332  10.548  10.523   5.850
 8962POPC   GL158333  10.556  10.486   6.150
 8962POPC   GL258334  10.607  10.590   6.150
 8962POPC   C1A58335  10.532  10.573   6.450
 8962POPC   D2A58336  10.483  10.571   6.750
 8962POPC   C3A58337  10.511  10.541   7.050
 8962POPC   C4A58338  10.528  10.517   7.350
 8962POPC   C1B58339  10.747  10.573   6.450
 8962POPC   C2B58340  10.784  10.572   6.750
 8962POPC   C3B58341  10.739  10.602   7.050
 8962POPC   C4B58342  10.807  10.618   7.350
 8963POPC   NC358343  40.039  29.889   5.550
 8963POPC   PO458344  40.010  29.938   5.850
 8963POPC   GL158345  39.989  29.910   6.150
 8963POPC   GL258346  40.144  29.859   6.150
 8963POPC   C1A58347  40.014  29.876   6.450
 8963POPC   D2A58348  40.048  29.872   6.750
 8963POPC   C3A58349  40.048  29.939   7.050
 8963POPC   C4A58350  40.035  29.899   7.350
 8963POPC   C1B58351  40.230  29.840   6.450
 8963POPC   C2B58352  40.222  29.858   6.750
 8963POPC   C3B58353  40.200  29.806   7.050
 8963POPC   C4B58354  40.252  29.806   7.350
 8964POPC   NC358355  35.385  43.086   5.550
 8964POPC   PO458356  35.319  43.068   5.850
 8964POPC   GL158357  35.372  43.078   6.150
 8964POPC   GL258358  35.318  42.976   6.150
 8964POPC   C1A58359  35.353  43.141   6.450
 8964POPC   D2A58360  35.334  43.100   6.750
 8964POPC   C3A58361  35.340  43.080   7.050
 8964POPC   C4A58362  35.348  43.062   7.350
 8964POPC   C1B58363  35.196  42.879   6.450
 8964POPC   C2B58364  35.192  42.911   6.750
 8964POPC   C3B58365  35.227  42.852   7.050
 8964POPC   C4B58366  35.175  42.907   7.350
 8965POPC   NC358367   1.200  40.018   5.550
 8965POPC   PO458368   1.245  39.974   5.850
 8965POPC   GL158369   1.203  40.050   6.150
 8965POPC   GL258370   1.311  40.146   6.150
 8965POPC   C1A58371   1.220  39.959   6.450
 8965POPC   D2A58372   1.167  40.043   6.750
 8965POPC   C3A58373   1.240  40.054   7.050
 8965POPC   C4A58374   1.221  39.963   7.350
 8965POPC   C1B58375   1.285  40.263   6.450
 8965POPC   C2B58376   1.348  40.215   6.750
 8965POPC   C3B58377   1.352  40.241   7.050
 8965POPC   C4B58378   1.343  40.192   7.350
 8966POPC   NC358379  36.924  39.279   5.550
 8966POPC   PO458380  36.933  39.218   5.850
 8966POPC   GL158381  36.871  39.187   6.150
 8966POPC   GL258382  36.804  39.342   6.150
 8966POPC   C1A58383  36.856  39.261   6.450
 8966POPC   D2A58384  36.912  39.274   6.750
 8966POPC   C3A58385  36.869  39.228   7.050
 8966POPC   C4A58386  36.867  39.216   7.350
 8966POPC   C1B58387  36.766  39.435   6.450
 8966POPC   C2B58388  36.773  39.404   6.750
 8966POPC   C3B58389  36.723  39.377   7.050
 8966POPC   C4B58390  36.696  39.433   7.350
 8967POPC   NC358391   2.003   1.981   5.550
 8967POPC   PO458392   1.959   1.943   5.850
 8967POPC   GL158393   2.037   2.036   6.150
 8967POPC   GL258394   2.077   1.924   6.150
 8967POPC   C1A58395   2.025   1.965   6.450
 8967POPC   D2A58396   1.957   2.015   6.750
 8967POPC   C3A58397   1.961   2.035   7.050
 8967POPC   C4A58398   1.990   1.964   7.350
 8967POPC   C1B58399   2.144   1.761   6.450
 8967POPC   C2B58400   2.133   1.785   6.750
 8967POPC   C3B58401   2.128   1.814   7.050
 8967POPC   C4B58402   2.086   1.752   7.350
 8968POPC   NC358403  19.797  10.536   5.550
 8968POPC   PO458404  19.817  10.563   5.850
 8968POPC   GL158405  19.799  10.568   6.150
 8968POPC   GL258406  19.708  10.547   6.150
 8968POPC   C1A58407  19.794  10.489   6.450
 8968POPC   D2A58408  19.785  10.552   6.750
 8968POPC   C3A58409  19.856  10.554   7.050
 8968POPC   C4A58410  19.854  10.572   7.350
 8968POPC   C1B58411  19.604  10.662   6.450
 8968POPC   C2B58412  19.569  10.670   6.750
 8968POPC   C3B58413  19.587  10.639   7.050
 8968POPC   C4B58414  19.617  10.575   7.350
 8969POPC   NC358415  28.416   8.244   5.550
 8969POPC   PO458416  28.366   8.230   5.850
 8969POPC   GL158417  28.345   8.242   6.150
 8969POPC   GL258418  28.259   8.111   6.150
 8969POPC   C1A58419  28.333   8.213   6.450
 8969POPC   D2A58420  28.364   8.218   6.750
 8969POPC   C3A58421  28.351   8.185   7.050
 8969POPC   C4A58422  28.417   8.205   7.350
 8969POPC   C1B58423  28.188   7.984   6.450
 8969POPC   C2B58424  28.229   8.062   6.750
 8969POPC   C3B58425  28.157   8.070   7.050
 8969POPC   C4B58426  28.201   7.995   7.350
 8970POPC   NC358427  26.078  14.438   5.550
 8970POPC   PO458428  26.017  14.387   5.850
 8970POPC   GL158429  25.993  14.354   6.150
 8970POPC   GL258430  26.072  14.334   6.150
 8970POPC   C1A58431  25.997  14.449   6.450
 8970POPC   D2A58432  26.054  14.447   6.750
 8970POPC   C3A58433  26.032  14.392   7.050
 8970POPC   C4A58434  26.026  14.440   7.350
 8970POPC   C1B58435  26.185  14.216   6.450
 8970POPC   C2B58436  26.164  14.236   6.750
 8970POPC   C3B58437  26.145  14.144   7.050
 8970POPC   C4B58438  26.156  14.193   7.350
 8971POPC   NC358439  10.548  25.292   5.550
 8971POPC   PO458440  10.479  25.283   5.850
 8971POPC   GL158441  10.484  25.270   6.150
 8971POPC   GL258442  10.486  25.365   6.150
 8971POPC   C1A58443  10.552  25.310   6.450
 8971POPC   D2A58444  10.500  25.307   6.750
 8971POPC   C3A58445  10.574  25.284   7.050
 8971POPC   C4A58446  10.500  25.295   7.350
 8971POPC   C1B58447  10.492  25.553   6.450
 8971POPC   C2B58448  10.487  25.482   6.750
 8971POPC   C3B58449  10.474  25.535   7.050
 8971POPC   C4B58450  10.501  25.547   7.350
 8972POPC   NC358451   3.494  36.165   5.550
 8972POPC   PO458452   3.552  36.099   5.850
 8972POPC   GL158453   3.502  36.144   6.150
 8972POPC   GL258454   3.382  36.103   6.150
 8972POPC   C1A58455   3.589  36.163   6.450
 8972POPC   D2A58456   3.578  36.141   6.750
 8972POPC   C3A58457   3.585  36.122   7.050
 8972POPC   C4A58458   3.549  36.144   7.350
 8972POPC   C1B58459   3.302  36.036   6.450
 8972POPC   C2B58460   3.279  36.050   6.750
 8972POPC   C3B58461   3.267  36.068   7.050
 8972POPC   C4B58462   3.309  36.119   7.350
 8973POPC   NC358463  43.113  19.799   5.550
 8973POPC   PO458464  43.114  19.795   5.850
 8973POPC   GL158465  43.115  19.859   6.150
 8973POPC   GL258466  43.190  19.732   6.150
 8973POPC   C1A58467  43.099  19.793   6.450
 8973POPC   D2A58468  43.063  19.875   6.750
 8973POPC   C3A58469  43.073  19.795   7.050
 8973POPC   C4A58470  43.138  19.868   7.350
 8973POPC   C1B58471  43.174  19.633   6.450
 8973POPC   C2B58472  43.209  19.586   6.750
 8973POPC   C3B58473  43.240  19.654   7.050
 8973POPC   C4B58474  43.179  19.623   7.350
 8974POPC   NC358475  43.914  25.997   5.550
 8974POPC   PO458476  43.869  26.020   5.850
 8974POPC   GL158477  43.878  26.043   6.150
 8974POPC   GL258478  43.764  25.990   6.150
 8974POPC   C1A58479  43.845  26.082   6.450
 8974POPC   D2A58480  43.864  26.031   6.750
 8974POPC   C3A58481  43.887  26.048   7.050
 8974POPC   C4A58482  43.898  26.072   7.350
 8974POPC   C1B58483  43.626  25.933   6.450
 8974POPC   C2B58484  43.700  25.919   6.750
 8974POPC   C3B58485  43.621  25.920   7.050
 8974POPC   C4B58486  43.649  25.909   7.350
 8975POPC   NC358487  30.708   1.955   5.550
 8975POPC   PO458488  30.664   1.975   5.850
 8975POPC   GL158489  30.708   1.966   6.150
 8975POPC   GL258490  30.773   2.030   6.150
 8975POPC   C1A58491  30.708   1.953   6.450
 8975POPC   D2A58492  30.705   1.988   6.750
 8975POPC   C3A58493  30.686   1.998   7.050
 8975POPC   C4A58494  30.695   1.996   7.350
 8975POPC   C1B58495  30.942   2.113   6.450
 8975POPC   C2B58496  30.871   2.135   6.750
 8975POPC   C3B58497  30.903   2.119   7.050
 8975POPC   C4B58498  30.913   2.136   7.350
 8976POPC   NC358499  29.932  23.700   5.550
 8976POPC   PO458500  29.899  23.719   5.850
 8976POPC   GL158501  29.882  23.668   6.150
 8976POPC   GL258502  30.002  23.574   6.150
 8976POPC   C1A58503  29.954  23.666   6.450
 8976POPC   D2A58504  29.939  23.713   6.750
 8976POPC   C3A58505  29.924  23.677   7.050
 8976POPC   C4A58506  29.919  23.744   7.350
 8976POPC   C1B58507  29.955  23.464   6.450
 8976POPC   C2B58508  30.008  23.513   6.750
 8976POPC   C3B58509  29.964  23.521   7.050
 8976POPC   C4B58510  29.953  23.512   7.350
 8977POPC   NC358511   8.204  22.208   5.550
 8977POPC   PO458512   8.189  22.132   5.850
 8977POPC   GL158513   8.232  22.140   6.150
 8977POPC   GL258514   8.291  22.058   6.150
 8977POPC   C1A58515   8.202  22.143   6.450
 8977POPC   D2A58516   8.167  22.168   6.750
 8977POPC   C3A58517   8.225  22.172   7.050
 8977POPC   C4A58518   8.215  22.201   7.350
 8977POPC   C1B58519   8.411  22.007   6.450
 8977POPC   C2B58520   8.417  22.022   6.750
 8977POPC   C3B58521   8.383  22.023   7.050
 8977POPC   C4B58522   8.429  22.048   7.350
 8978POPC   NC358523  36.907  13.622   5.550
 8978POPC   PO458524  36.893  13.653   5.850
 8978POPC   GL158525  36.908  13.622   6.150
 8978POPC   GL258526  36.808  13.670   6.150
 8978POPC   C1A58527  36.942  13.654   6.450
 8978POPC   D2A58528  36.868  13.625   6.750
 8978POPC   C3A58529  36.861  13.591   7.050
 8978POPC   C4A58530  36.924  13.669   7.350
 8978POPC   C1B58531  36.722  13.748   6.450
 8978POPC   C2B58532  36.766  13.750   6.750
 8978POPC   C3B58533  36.679  13.825   7.050
 8978POPC   C4B58534  36.732  13.804   7.350
 8979POPC   NC358535   9.790  43.111   5.550
 8979POPC   PO458536   9.722  43.088   5.850
 8979POPC   GL158537   9.759  43.074   6.150
 8979POPC   GL258538   9.692  43.015   6.150
 8979POPC   C1A58539   9.728  43.061   6.450
 8979POPC   D2A58540   9.719  43.109   6.750
 8979POPC   C3A58541   9.729  43.125   7.050
 8979POPC   C4A58542   9.728  43.079   7.350
 8979POPC   C1B58543   9.648  42.847   6.450
 8979POPC   C2B58544   9.651  42.827   6.750
 8979POPC   C3B58545   9.643  42.890   7.050
 8979POPC   C4B58546   9.636  42.855   7.350
 8980POPC   NC358547  15.172  12.827   5.550
 8980POPC   PO458548  15.146  12.809   5.850
 8980POPC   GL158549  15.163  12.822   6.150
 8980POPC   GL258550  15.333  12.832   6.150
 8980POPC   C1A58551  15.168  12.893   6.450
 8980POPC   D2A58552  15.198  12.898   6.750
 8980POPC   C3A58553  15.151  12.870   7.050
 8980POPC   C4A58554  15.190  12.853   7.350
 8980POPC   C1B58555  15.403  12.681   6.450
 8980POPC   C2B58556  15.389  12.742   6.750
 8980POPC   C3B58557  15.344  12.741   7.050
 8980POPC   C4B58558  15.392  12.760   7.350
 8981POPC   NC358559   2.802  32.282   5.550
 8981POPC   PO458560   2.791  32.294   5.850
 8981POPC   GL158561   2.772  32.222   6.150
 8981POPC   GL258562   2.875  32.217   6.150
 8981POPC   C1A58563   2.742  32.232   6.450
 8981POPC   D2A58564   2.775  32.258   6.750
 8981POPC   C3A58565   2.736  32.283   7.050
 8981POPC   C4A58566   2.729  32.201   7.350
 8981POPC   C1B58567   2.991  32.163   6.450
 8981POPC   C2B58568   2.985  32.172   6.750
 8981POPC   C3B58569   2.995  32.142   7.050
 8981POPC   C4B58570   3.043  32.152   7.350
 8982POPC   NC358571  41.553  11.302   5.550
 8982POPC   PO458572  41.527  11.333   5.850
 8982POPC   GL158573  41.603  11.264   6.150
 8982POPC   GL258574  41.457  11.399   6.150
 8982POPC   C1A58575  41.594  11.278   6.450
 8982POPC   D2A58576  41.510  11.348   6.750
 8982POPC   C3A58577  41.516  11.308   7.050
 8982POPC   C4A58578  41.535  11.276   7.350
 8982POPC   C1B58579  41.411  11.454   6.450
 8982POPC   C2B58580  41.371  11.534   6.750
 8982POPC   C3B58581  41.376  11.529   7.050
 8982POPC   C4B58582  41.435  11.514   7.350
 8983POPC   NC358583  38.419  16.765   5.550
 8983POPC   PO458584  38.498  16.711   5.850
 8983POPC   GL158585  38.451  16.753   6.150
 8983POPC   GL258586  38.566  16.660   6.150
 8983POPC   C1A58587  38.480  16.748   6.450
 8983POPC   D2A58588  38.428  16.750   6.750
 8983POPC   C3A58589  38.409  16.762   7.050
 8983POPC   C4A58590  38.414  16.764   7.350
 8983POPC   C1B58591  38.664  16.538   6.450
 8983POPC   C2B58592  38.612  16.563   6.750
 8983POPC   C3B58593  38.629  16.539   7.050
 8983POPC   C4B58594  38.604  16.497   7.350
 8984POPC   NC358595  12.852  22.938   5.550
 8984POPC   PO458596  12.826  22.951   5.850
 8984POPC   GL158597  12.820  22.960   6.150
 8984POPC   GL258598  12.710  22.922   6.150
 8984POPC   C1A58599  12.875  22.933   6.450
 8984POPC   D2A58600  12.882  22.932   6.750
 8984POPC   C3A58601  12.882  22.889   7.050
 8984POPC   C4A58602  12.893  22.921   7.350
 8984POPC   C1B58603  12.618  22.790   6.450
 8984POPC   C2B58604  12.644  22.826   6.750
 8984POPC   C3B58605  12.646  22.838   7.050
 8984POPC   C4B58606  12.622  22.873   7.350
 8985POPC   NC358607  12.863   1.234   5.550
 8985POPC   PO458608  12.819   1.197   5.850
 8985POPC   GL158609  12.865   1.218   6.150
 8985POPC   GL258610  12.894   1.326   6.150
 8985POPC   C1A58611  12.867   1.232   6.450
 8985POPC   D2A58612  12.815   1.244   6.750
 8985POPC   C3A58613  12.884   1.180   7.050
 8985POPC   C4A58614  12.809   1.256   7.350
 8985POPC   C1B58615  12.897   1.421   6.450
 8985POPC   C2B58616  12.878   1.501   6.750
 8985POPC   C3B58617  12.890   1.508   7.050
 8985POPC   C4B58618  12.914   1.490   7.350
 8986POPC   NC358619   7.467  29.138   5.550
 8986POPC   PO458620   7.371  29.128   5.850
 8986POPC   GL158621   7.439  29.103   6.150
 8986POPC   GL258622   7.546  29.196   6.150
 8986POPC   C1A58623   7.440  29.140   6.450
 8986POPC   D2A58624   7.372  29.183   6.750
 8986POPC   C3A58625   7.435  29.117   7.050
 8986POPC   C4A58626   7.442  29.109   7.350
 8986POPC   C1B58627   7.696  29.149   6.450
 8986POPC   C2B58628   7.672  29.131   6.750
 8986POPC   C3B58629   7.688  29.142   7.050
 8986POPC   C4B58630   7.635  29.182   7.350
 8987POPC   NC358631   1.950  11.333   5.550
 8987POPC   PO458632   1.990  11.254   5.850
 8987POPC   GL158633   1.968  11.266   6.150
 8987POPC   GL258634   2.084  11.252   6.150
 8987POPC   C1A58635   2.022  11.288   6.450
 8987POPC   D2A58636   2.033  11.318   6.750
 8987POPC   C3A58637   2.009  11.293   7.050
 8987POPC   C4A58638   2.037  11.335   7.350
 8987POPC   C1B58639   2.228  11.235   6.450
 8987POPC   C2B58640   2.187  11.193   6.750
 8987POPC   C3B58641   2.188  11.176   7.050
 8987POPC   C4B58642   2.177  11.225   7.350
 8988POPC   NC358643   8.173  44.698   5.550
 8988POPC   PO458644   8.153  44.711   5.850
 8988POPC   GL158645   8.225  44.624   6.150
 8988POPC   GL258646   8.322  44.614   6.150
 8988POPC   C1A58647   8.207  44.613   6.450
 8988POPC   D2A58648   8.152  44.691   6.750
 8988POPC   C3A58649   8.224  44.631   7.050
 8988POPC   C4A58650   8.153  44.657   7.350
 8988POPC   C1B58651   8.406  44.614   6.450
 8988POPC   C2B58652   8.434  44.632   6.750
 8988POPC   C3B58653   8.433  44.652   7.050
 8988POPC   C4B58654   8.456  44.600   7.350
 8989POPC   NC358655  38.443   1.948   5.550
 8989POPC   PO458656  38.494   1.990   5.850
 8989POPC   GL158657  38.474   1.946   6.150
 8989POPC   GL258658  38.348   1.952   6.150
 8989POPC   C1A58659  38.487   1.949   6.450
 8989POPC   D2A58660  38.485   1.981   6.750
 8989POPC   C3A58661  38.434   2.008   7.050
 8989POPC   C4A58662  38.477   2.020   7.350
 8989POPC   C1B58663  38.221   1.994   6.450
 8989POPC   C2B58664  38.168   1.953   6.750
 8989POPC   C3B58665  38.240   1.963   7.050
 8989POPC   C4B58666  38.223   1.991   7.350
 8990POPC   NC358667  19.044  30.666   5.550
 8990POPC   PO458668  19.021  30.658   5.850
 8990POPC   GL158669  19.023  30.663   6.150
 8990POPC   GL258670  19.179  30.689   6.150
 8990POPC   C1A58671  19.026  30.651   6.450
 8990POPC   D2A58672  19.073  30.699   6.750
 8990POPC   C3A58673  19.021  30.653   7.050
 8990POPC   C4A58674  19.045  30.726   7.350
 8990POPC   C1B58675  19.258  30.624   6.450
 8990POPC   C2B58676  19.314  30.617   6.750
 8990POPC   C3B58677  19.274  30.641   7.050
 8990POPC   C4B58678  19.278  30.709   7.350
 8991POPC   NC358679  36.880  10.569   5.550
 8991POPC   PO458680  36.938  10.573   5.850
 8991POPC   GL158681  36.865  10.572   6.150
 8991POPC   GL258682  36.792  10.466   6.150
 8991POPC   C1A58683  36.941  10.483   6.450
 8991POPC   D2A58684  36.934  10.482   6.750
 8991POPC   C3A58685  36.869  10.570   7.050
 8991POPC   C4A58686  36.925  10.501   7.350
 8991POPC   C1B58687  36.628  10.539   6.450
 8991POPC   C2B58688  36.652  10.466   6.750
 8991POPC   C3B58689  36.682  10.461   7.050
 8991POPC   C4B58690  36.622  10.531   7.350
 8992POPC   NC358691  43.879   3.564   5.550
 8992POPC   PO458692  43.920   3.530   5.850
 8992POPC   GL158693  43.893   3.574   6.150
 8992POPC   GL258694  43.977   3.514   6.150
 8992POPC   C1A58695  43.930   3.501   6.450
 8992POPC   D2A58696  43.909   3.529   6.750
 8992POPC   C3A58697  43.853   3.578   7.050
 8992POPC   C4A58698  43.878   3.514   7.350
 8992POPC   C1B58699  44.151   3.482   6.450
 8992POPC   C2B58700  44.077   3.499   6.750
 8992POPC   C3B58701  44.126   3.459   7.050
 8992POPC   C4B58702  44.173   3.416   7.350
 8993POPC   NC358703  33.020  32.986   5.550
 8993POPC   PO458704  33.037  32.980   5.850
 8993POPC   GL158705  33.057  32.978   6.150
 8993POPC   GL258706  33.020  33.193   6.150
 8993POPC   C1A58707  33.024  33.053   6.450
 8993POPC   D2A58708  33.070  32.992   6.750
 8993POPC   C3A58709  33.067  32.979   7.050
 8993POPC   C4A58710  32.992  33.014   7.350
 8993POPC   C1B58711  32.977  33.239   6.450
 8993POPC   C2B58712  32.966  33.258   6.750
 8993POPC   C3B58713  32.938  33.230   7.050
 8993POPC   C4B58714  32.921  33.302   7.350
 8994POPC   NC358715   5.857  29.098   5.550
 8994POPC   PO458716   5.906  29.102   5.850
 8994POPC   GL158717   5.837  29.133   6.150
 8994POPC   GL258718   5.753  29.214   6.150
 8994POPC   C1A58719   5.917  29.186   6.450
 8994POPC   D2A58720   5.845  29.154   6.750
 8994POPC   C3A58721   5.819  29.191   7.050
 8994POPC   C4A58722   5.875  29.117   7.350
 8994POPC   C1B58723   5.658  29.167   6.450
 8994POPC   C2B58724   5.619  29.146   6.750
 8994POPC   C3B58725   5.628  29.227   7.050
 8994POPC   C4B58726   5.584  29.199   7.350
 8995POPC   NC358727   1.230  26.019   5.550
 8995POPC   PO458728   1.214  26.049   5.850
 8995POPC   GL158729   1.189  26.018   6.150
 8995POPC   GL258730   1.173  26.156   6.150
 8995POPC   C1A58731   1.176  26.036   6.450
 8995POPC   D2A58732   1.206  26.033   6.750
 8995POPC   C3A58733   1.218  26.076   7.050
 8995POPC   C4A58734   1.169  26.039   7.350
 8995POPC   C1B58735   1.028  26.234   6.450
 8995POPC   C2B58736   1.063  26.180   6.750
 8995POPC   C3B58737   1.021  26.231   7.050
 8995POPC   C4B58738   1.022  26.189   7.350
 8996POPC   NC358739  20.648   4.299   5.550
 8996POPC   PO458740  20.659   4.268   5.850
 8996POPC   GL158741  20.627   4.344   6.150
 8996POPC   GL258742  20.594   4.246   6.150
 8996POPC   C1A58743  20.629   4.336   6.450
 8996POPC   D2A58744  20.586   4.309   6.750
 8996POPC   C3A58745  20.569   4.277   7.050
 8996POPC   C4A58746  20.562   4.293   7.350
 8996POPC   C1B58747  20.519   4.126   6.450
 8996POPC   C2B58748  20.468   4.106   6.750
 8996POPC   C3B58749  20.457   4.062   7.050
 8996POPC   C4B58750  20.452   4.117   7.350
 8997POPC   NC358751  21.365  22.940   5.550
 8997POPC   PO458752  21.394  22.923   5.850
 8997POPC   GL158753  21.425  22.933   6.150
 8997POPC   GL258754  21.492  22.948   6.150
 8997POPC   C1A58755  21.416  22.947   6.450
 8997POPC   D2A58756  21.426  22.906   6.750
 8997POPC   C3A58757  21.389  22.909   7.050
 8997POPC   C4A58758  21.422  22.959   7.350
 8997POPC   C1B58759  21.562  23.033   6.450
 8997POPC   C2B58760  21.622  23.066   6.750
 8997POPC   C3B58761  21.631  23.090   7.050
 8997POPC   C4B58762  21.559  23.074   7.350
 8998POPC   NC358763  33.784  44.703   5.550
 8998POPC   PO458764  33.832  44.672   5.850
 8998POPC   GL158765  33.805  44.649   6.150
 8998POPC   GL258766  33.626  44.661   6.150
 8998POPC   C1A58767  33.788  44.687   6.450
 8998POPC   D2A58768  33.815  44.683   6.750
 8998POPC   C3A58769  33.813  44.662   7.050
 8998POPC   C4A58770  33.802  44.706   7.350
 8998POPC   C1B58771  33.565  44.608   6.450
 8998POPC   C2B58772  33.513  44.644   6.750
 8998POPC   C3B58773  33.549  44.664   7.050
 8998POPC   C4B58774  33.552  44.670   7.350
 8999POPC   NC358775   2.809  36.145   5.550
 8999POPC   PO458776   2.737  36.086   5.850
 8999POPC   GL158777   2.805  36.143   6.150
 8999POPC   GL258778   2.651  36.087   6.150
 8999POPC   C1A58779   2.798  36.115   6.450
 8999POPC   D2A58780   2.806  36.125   6.750
 8999POPC   C3A58781   2.804  36.137   7.050
 8999POPC   C4A58782   2.758  36.078   7.350
 8999POPC   C1B58783   2.477  36.119   6.450
 8999POPC   C2B58784   2.497  36.164   6.750
 8999POPC   C3B58785   2.559  36.074   7.050
 8999POPC   C4B58786   2.501  36.116   7.350
 9000POPC   NC358787  38.435  26.037   5.550
 9000POPC   PO458788  38.423  26.066   5.850
 9000POPC   GL158789  38.498  26.002   6.150
 9000POPC   GL258790  38.469  26.106   6.150
 9000POPC   C1A58791  38.475  26.039   6.450
 9000POPC   D2A58792  38.503  26.077   6.750
 9000POPC   C3A58793  38.488  26.010   7.050
 9000POPC   C4A58794  38.462  26.066   7.350
 9000POPC   C1B58795  38.591  26.234   6.450
 9000POPC   C2B58796  38.591  26.288   6.750
 9000POPC   C3B58797  38.597  26.299   7.050
 9000POPC   C4B58798  38.584  26.308   7.350
 9001POPC   NC358799   7.438  19.034   5.550
 9001POPC   PO458800   7.432  19.057   5.850
 9001POPC   GL158801   7.397  19.079   6.150
 9001POPC   GL258802   7.377  18.970   6.150
 9001POPC   C1A58803   7.442  19.079   6.450
 9001POPC   D2A58804   7.453  19.093   6.750
 9001POPC   C3A58805   7.432  19.078   7.050
 9001POPC   C4A58806   7.444  19.034   7.350
 9001POPC   C1B58807   7.328  18.834   6.450
 9001POPC   C2B58808   7.420  18.811   6.750
 9001POPC   C3B58809   7.407  18.763   7.050
 9001POPC   C4B58810   7.388  18.784   7.350
 9002POPC   NC358811  15.914  21.349   5.550
 9002POPC   PO458812  15.977  21.388   5.850
 9002POPC   GL158813  15.909  21.377   6.150
 9002POPC   GL258814  16.059  21.476   6.150
 9002POPC   C1A58815  15.922  21.434   6.450
 9002POPC   D2A58816  15.949  21.379   6.750
 9002POPC   C3A58817  15.929  21.389   7.050
 9002POPC   C4A58818  15.968  21.402   7.350
 9002POPC   C1B58819  16.166  21.569   6.450
 9002POPC   C2B58820  16.154  21.573   6.750
 9002POPC   C3B58821  16.182  21.556   7.050
 9002POPC   C4B58822  16.190  21.541   7.350
 9003POPC   NC358823   5.887  34.570   5.550
 9003POPC   PO458824   5.911  34.527   5.850
 9003POPC   GL158825   5.848  34.582   6.150
 9003POPC   GL258826   5.886  34.689   6.150
 9003POPC   C1A58827   5.908  34.560   6.450
 9003POPC   D2A58828   5.901  34.580   6.750
 9003POPC   C3A58829   5.839  34.588   7.050
 9003POPC   C4A58830   5.909  34.551   7.350
 9003POPC   C1B58831   5.932  34.814   6.450
 9003POPC   C2B58832   5.911  34.852   6.750
 9003POPC   C3B58833   5.970  34.809   7.050
 9003POPC   C4B58834   5.984  34.786   7.350
 9004POPC   NC358835   7.404   0.424   5.550
 9004POPC   PO458836   7.442   0.412   5.850
 9004POPC   GL158837   7.454   0.475   6.150
 9004POPC   GL258838   7.394   0.570   6.150
 9004POPC   C1A58839   7.378   0.427   6.450
 9004POPC   D2A58840   7.412   0.446   6.750
 9004POPC   C3A58841   7.395   0.442   7.050
 9004POPC   C4A58842   7.426   0.472   7.350
 9004POPC   C1B58843   7.471   0.661   6.450
 9004POPC   C2B58844   7.397   0.710   6.750
 9004POPC   C3B58845   7.426   0.700   7.050
 9004POPC   C4B58846   7.419   0.731   7.350
 9005POPC   NC358847  29.174  22.145   5.550
 9005POPC   PO458848  29.153  22.127   5.850
 9005POPC   GL158849  29.178  22.187   6.150
 9005POPC   GL258850  29.036  22.234   6.150
 9005POPC   C1A58851  29.164  22.139   6.450
 9005POPC   D2A58852  29.171  22.207   6.750
 9005POPC   C3A58853  29.157  22.126   7.050
 9005POPC   C4A58854  29.111  22.193   7.350
 9005POPC   C1B58855  28.978  22.363   6.450
 9005POPC   C2B58856  28.906  22.273   6.750
 9005POPC   C3B58857  28.990  22.306   7.050
 9005POPC   C4B58858  28.979  22.309   7.350
 9006POPC   NC358859   4.311  23.730   5.550
 9006POPC   PO458860   4.302  23.668   5.850
 9006POPC   GL158861   4.313  23.721   6.150
 9006POPC   GL258862   4.154  23.699   6.150
 9006POPC   C1A58863   4.363  23.734   6.450
 9006POPC   D2A58864   4.324  23.758   6.750
 9006POPC   C3A58865   4.312  23.673   7.050
 9006POPC   C4A58866   4.362  23.683   7.350
 9006POPC   C1B58867   4.035  23.645   6.450
 9006POPC   C2B58868   4.098  23.673   6.750
 9006POPC   C3B58869   4.064  23.692   7.050
 9006POPC   C4B58870   4.093  23.682   7.350
 9007POPC   NC358871   1.958   8.236   5.550
 9007POPC   PO458872   1.944   8.186   5.850
 9007POPC   GL158873   2.018   8.200   6.150
 9007POPC   GL258874   1.970   8.323   6.150
 9007POPC   C1A58875   1.995   8.150   6.450
 9007POPC   D2A58876   1.947   8.244   6.750
 9007POPC   C3A58877   1.997   8.148   7.050
 9007POPC   C4A58878   2.023   8.197   7.350
 9007POPC   C1B58879   1.923   8.465   6.450
 9007POPC   C2B58880   1.945   8.392   6.750
 9007POPC   C3B58881   1.867   8.436   7.050
 9007POPC   C4B58882   1.945   8.404   7.350
 9008POPC   NC358883  25.228  29.885   5.550
 9008POPC   PO458884  25.311  29.929   5.850
 9008POPC   GL158885  25.251  29.909   6.150
 9008POPC   GL258886  25.359  30.035   6.150
 9008POPC   C1A58887  25.305  29.901   6.450
 9008POPC   D2A58888  25.306  29.920   6.750
 9008POPC   C3A58889  25.305  29.887   7.050
 9008POPC   C4A58890  25.312  29.938   7.350
 9008POPC   C1B58891  25.383  30.088   6.450
 9008POPC   C2B58892  25.427  30.109   6.750
 9008POPC   C3B58893  25.403  30.109   7.050
 9008POPC   C4B58894  25.375  30.101   7.350
 9009POPC   NC358895  23.747  19.085   5.550
 9009POPC   PO458896  23.680  19.030   5.850
 9009POPC   GL158897  23.710  19.095   6.150
 9009POPC   GL258898  23.604  19.135   6.150
 9009POPC   C1A58899  23.702  19.010   6.450
 9009POPC   D2A58900  23.685  19.062   6.750
 9009POPC   C3A58901  23.674  19.069   7.050
 9009POPC   C4A58902  23.710  19.093   7.350
 9009POPC   C1B58903  23.496  19.216   6.450
 9009POPC   C2B58904  23.562  19.223   6.750
 9009POPC   C3B58905  23.543  19.203   7.050
 9009POPC   C4B58906  23.517  19.242   7.350
 9010POPC   NC358907  12.864  13.599   5.550
 9010POPC   PO458908  12.839  13.616   5.850
 9010POPC   GL158909  12.895  13.644   6.150
 9010POPC   GL258910  12.928  13.549   6.150
 9010POPC   C1A58911  12.891  13.585   6.450
 9010POPC   D2A58912  12.841  13.628   6.750
 9010POPC   C3A58913  12.860  13.599   7.050
 9010POPC   C4A58914  12.812  13.659   7.350
 9010POPC   C1B58915  13.074  13.525   6.450
 9010POPC   C2B58916  13.066  13.530   6.750
 9010POPC   C3B58917  13.022  13.491   7.050
 9010POPC   C4B58918  13.080  13.504   7.350
 9011POPC   NC358919  10.571   3.534   5.550
 9011POPC   PO458920  10.573   3.520   5.850
 9011POPC   GL158921  10.506   3.519   6.150
 9011POPC   GL258922  10.592   3.687   6.150
 9011POPC   C1A58923  10.476   3.527   6.450
 9011POPC   D2A58924  10.511   3.560   6.750
 9011POPC   C3A58925  10.521   3.553   7.050
 9011POPC   C4A58926  10.536   3.517   7.350
 9011POPC   C1B58927  10.584   3.799   6.450
 9011POPC   C2B58928  10.641   3.780   6.750
 9011POPC   C3B58929  10.641   3.809   7.050
 9011POPC   C4B58930  10.620   3.737   7.350
 9012POPC   NC358931  35.333  16.695   5.550
 9012POPC   PO458932  35.304  16.760   5.850
 9012POPC   GL158933  35.377  16.708   6.150
 9012POPC   GL258934  35.313  16.805   6.150
 9012POPC   C1A58935  35.302  16.774   6.450
 9012POPC   D2A58936  35.338  16.686   6.750
 9012POPC   C3A58937  35.399  16.699   7.050
 9012POPC   C4A58938  35.329  16.779   7.350
 9012POPC   C1B58939  35.367  16.987   6.450
 9012POPC   C2B58940  35.350  16.954   6.750
 9012POPC   C3B58941  35.340  16.982   7.050
 9012POPC   C4B58942  35.319  16.933   7.350
 9013POPC   NC358943  24.505   5.072   5.550
 9013POPC   PO458944  24.464   5.095   5.850
 9013POPC   GL158945  24.523   5.107   6.150
 9013POPC   GL258946  24.394   5.156   6.150
 9013POPC   C1A58947  24.505   5.114   6.450
 9013POPC   D2A58948  24.533   5.091   6.750
 9013POPC   C3A58949  24.507   5.122   7.050
 9013POPC   C4A58950  24.490   5.095   7.350
 9013POPC   C1B58951  24.375   5.263   6.450
 9013POPC   C2B58952  24.379   5.267   6.750
 9013POPC   C3B58953  24.385   5.353   7.050
 9013POPC   C4B58954  24.403   5.286   7.350
 9014POPC   NC358955  24.442  21.351   5.550
 9014POPC   PO458956  24.448  21.357   5.850
 9014POPC   GL158957  24.497  21.373   6.150
 9014POPC   GL258958  24.352  21.404   6.150
 9014POPC   C1A58959  24.530  21.356   6.450
 9014POPC   D2A58960  24.509  21.393   6.750
 9014POPC   C3A58961  24.475  21.415   7.050
 9014POPC   C4A58962  24.472  21.355   7.350
 9014POPC   C1B58963  24.289  21.465   6.450
 9014POPC   C2B58964  24.201  21.495   6.750
 9014POPC   C3B58965  24.214  21.504   7.050
 9014POPC   C4B58966  24.213  21.457   7.350
 9015POPC   NC358967  40.733   5.891   5.550
 9015POPC   PO458968  40.775   5.823   5.850
 9015POPC   GL158969  40.739   5.855   6.150
 9015POPC   GL258970  40.610   5.933   6.150
 9015POPC   C1A58971  40.828   5.833   6.450
 9015POPC   D2A58972  40.799   5.918   6.750
 9015POPC   C3A58973  40.758   5.904   7.050
 9015POPC   C4A58974  40.785   5.899   7.350
 9015POPC   C1B58975  40.540   5.868   6.450
 9015POPC   C2B58976  40.562   5.875   6.750
 9015POPC   C3B58977  40.562   5.928   7.050
 9015POPC   C4B58978  40.561   5.936   7.350
 9016POPC   NC358979   7.401   9.794   5.550
 9016POPC   PO458980   7.408   9.791   5.850
 9016POPC   GL158981   7.448   9.786   6.150
 9016POPC   GL258982   7.307   9.686   6.150
 9016POPC   C1A58983   7.382   9.784   6.450
 9016POPC   D2A58984   7.392   9.742   6.750
 9016POPC   C3A58985   7.400   9.760   7.050
 9016POPC   C4A58986   7.389   9.774   7.350
 9016POPC   C1B58987   7.154   9.647   6.450
 9016POPC   C2B58988   7.197   9.677   6.750
 9016POPC   C3B58989   7.138   9.729   7.050
 9016POPC   C4B58990   7.213   9.704   7.350
 9017POPC   NC358991  24.498  22.931   5.550
 9017POPC   PO458992  24.535  22.969   5.850
 9017POPC   GL158993  24.448  22.933   6.150
 9017POPC   GL258994  24.353  22.973   6.150
 9017POPC   C1A58995  24.512  22.944   6.450
 9017POPC   D2A58996  24.477  22.966   6.750
 9017POPC   C3A58997  24.441  22.960   7.050
 9017POPC   C4A58998  24.470  22.971   7.350
 9017POPC   C1B58999  24.310  23.025   6.450
 9017POPC   C2B59000  24.246  23.089   6.750
 9017POPC   C3B59001  24.224  23.033   7.050
 9017POPC   C4B59002  24.244  23.095   7.350
 9018POPC   NC359003  42.300  33.050   5.550
 9018POPC   PO459004  42.363  33.046   5.850
 9018POPC   GL159005  42.298  32.975   6.150
 9018POPC   GL259006  42.219  33.093   6.150
 9018POPC   C1A59007  42.294  33.064   6.450
 9018POPC   D2A59008  42.382  32.985   6.750
 9018POPC   C3A59009  42.295  33.013   7.050
 9018POPC   C4A59010  42.375  33.041   7.350
 9018POPC   C1B59011  42.136  33.120   6.450
 9018POPC   C2B59012  42.133  33.067   6.750
 9018POPC   C3B59013  42.087  33.139   7.050
 9018POPC   C4B59014  42.064  33.082   7.350
 9019POPC   NC359015  19.813  13.661   5.550
 9019POPC   PO459016  19.878  13.616   5.850
 9019POPC   GL159017  19.874  13.676   6.150
 9019POPC   GL259018  19.787  13.481   6.150
 9019POPC   C1A59019  19.804  13.596   6.450
 9019POPC   D2A59020  19.877  13.614   6.750
 9019POPC   C3A59021  19.874  13.596   7.050
 9019POPC   C4A59022  19.853  13.617   7.350
 9019POPC   C1B59023  19.706  13.397   6.450
 9019POPC   C2B59024  19.691  13.427   6.750
 9019POPC   C3B59025  19.652  13.449   7.050
 9019POPC   C4B59026  19.738  13.379   7.350
 9020POPC   NC359027  24.482   2.780   5.550
 9020POPC   PO459028  24.538   2.752   5.850
 9020POPC   GL159029  24.455   2.763   6.150
 9020POPC   GL259030  24.574   2.662   6.150
 9020POPC   C1A59031  24.458   2.814   6.450
 9020POPC   D2A59032  24.509   2.754   6.750
 9020POPC   C3A59033  24.472   2.762   7.050
 9020POPC   C4A59034  24.448   2.735   7.350
 9020POPC   C1B59035  24.625   2.563   6.450
 9020POPC   C2B59036  24.584   2.539   6.750
 9020POPC   C3B59037  24.592   2.564   7.050
 9020POPC   C4B59038  24.561   2.576   7.350
 9021POPC   NC359039  16.738  43.117   5.550
 9021POPC   PO459040  16.719  43.122   5.850
 9021POPC   GL159041  16.780  43.102   6.150
 9021POPC   GL259042  16.688  42.999   6.150
 9021POPC   C1A59043  16.762  43.090   6.450
 9021POPC   D2A59044  16.757  43.092   6.750
 9021POPC   C3A59045  16.682  43.071   7.050
 9021POPC   C4A59046  16.718  43.084   7.350
 9021POPC   C1B59047  16.531  42.920   6.450
 9021POPC   C2B59048  16.527  42.975   6.750
 9021POPC   C3B59049  16.522  42.934   7.050
 9021POPC   C4B59050  16.580  42.972   7.350
 9022POPC   NC359051  24.518  36.927   5.550
 9022POPC   PO459052  24.468  36.869   5.850
 9022POPC   GL159053  24.480  36.902   6.150
 9022POPC   GL259054  24.580  36.936   6.150
 9022POPC   C1A59055  24.528  36.911   6.450
 9022POPC   D2A59056  24.456  36.860   6.750
 9022POPC   C3A59057  24.538  36.944   7.050
 9022POPC   C4A59058  24.467  36.862   7.350
 9022POPC   C1B59059  24.711  36.896   6.450
 9022POPC   C2B59060  24.780  36.970   6.750
 9022POPC   C3B59061  24.750  36.898   7.050
 9022POPC   C4B59062  24.774  36.953   7.350
 9023POPC   NC359063  19.827  36.914   5.550
 9023POPC   PO459064  19.789  36.862   5.850
 9023POPC   GL159065  19.845  36.871   6.150
 9023POPC   GL259066  19.956  36.783   6.150
 9023POPC   C1A59067  19.870  36.933   6.450
 9023POPC   D2A59068  19.837  36.941   6.750
 9023POPC   C3A59069  19.848  36.870   7.050
 9023POPC   C4A59070  19.827  36.905   7.350
 9023POPC   C1B59071  20.031  36.753   6.450
 9023POPC   C2B59072  20.052  36.786   6.750
 9023POPC   C3B59073  20.063  36.712   7.050
 9023POPC   C4B59074  20.081  36.776   7.350
 9024POPC   NC359075  39.989  17.468   5.550
 9024POPC   PO459076  40.003  17.463   5.850
 9024POPC   GL159077  40.036  17.525   6.150
 9024POPC   GL259078  39.983  17.640   6.150
 9024POPC   C1A59079  40.003  17.516   6.450
 9024POPC   D2A59080  39.958  17.520   6.750
 9024POPC   C3A59081  39.986  17.477   7.050
 9024POPC   C4A59082  40.034  17.515   7.350
 9024POPC   C1B59083  39.962  17.704   6.450
 9024POPC   C2B59084  39.940  17.712   6.750
 9024POPC   C3B59085  39.959  17.784   7.050
 9024POPC   C4B59086  39.998  17.763   7.350
 9025POPC   NC359087  12.083  12.846   5.550
 9025POPC   PO459088  12.049  12.893   5.850
 9025POPC   GL159089  12.097  12.897   6.150
 9025POPC   GL259090  12.141  12.940   6.150
 9025POPC   C1A59091  12.027  12.812   6.450
 9025POPC   D2A59092  12.091  12.823   6.750
 9025POPC   C3A59093  12.092  12.894   7.050
 9025POPC   C4A59094  12.117  12.866   7.350
 9025POPC   C1B59095  12.209  13.029   6.450
 9025POPC   C2B59096  12.242  13.022   6.750
 9025POPC   C3B59097  12.211  13.011   7.050
 9025POPC   C4B59098  12.194  13.006   7.350
 9026POPC   NC359099  39.275  33.754   5.550
 9026POPC   PO459100  39.223  33.798   5.850
 9026POPC   GL159101  39.251  33.771   6.150
 9026POPC   GL259102  39.103  33.858   6.150
 9026POPC   C1A59103  39.190  33.844   6.450
 9026POPC   D2A59104  39.239  33.809   6.750
 9026POPC   C3A59105  39.235  33.827   7.050
 9026POPC   C4A59106  39.250  33.838   7.350
 9026POPC   C1B59107  39.106  33.984   6.450
 9026POPC   C2B59108  39.033  33.964   6.750
 9026POPC   C3B59109  39.105  33.993   7.050
 9026POPC   C4B59110  39.027  34.014   7.350
 9027POPC   NC359111  41.579  18.257   5.550
 9027POPC   PO459112  41.593  18.289   5.850
 9027POPC   GL159113  41.540  18.262   6.150
 9027POPC   GL259114  41.537  18.400   6.150
 9027POPC   C1A59115  41.598  18.323   6.450
 9027POPC   D2A59116  41.583  18.261   6.750
 9027POPC   C3A59117  41.585  18.304   7.050
 9027POPC   C4A59118  41.509  18.330   7.350
 9027POPC   C1B59119  41.522  18.480   6.450
 9027POPC   C2B59120  41.522  18.566   6.750
 9027POPC   C3B59121  41.459  18.543   7.050
 9027POPC   C4B59122  41.500  18.533   7.350
 9028POPC   NC359123  40.775  25.274   5.550
 9028POPC   PO459124  40.827  25.262   5.850
 9028POPC   GL159125  40.774  25.216   6.150
 9028POPC   GL259126  40.920  25.209   6.150
 9028POPC   C1A59127  40.758  25.227   6.450
 9028POPC   D2A59128  40.746  25.294   6.750
 9028POPC   C3A59129  40.750  25.281   7.050
 9028POPC   C4A59130  40.802  25.292   7.350
 9028POPC   C1B59131  41.033  25.177   6.450
 9028POPC   C2B59132  40.995  25.215   6.750
 9028POPC   C3B59133  41.056  25.160   7.050
 9028POPC   C4B59134  40.991  25.196   7.350
 9029POPC   NC359135   3.573  22.166   5.550
 9029POPC   PO459136   3.518  22.208   5.850
 9029POPC   GL159137   3.535  22.160   6.150
 9029POPC   GL259138   3.656  22.108   6.150
 9029POPC   C1A59139   3.564  22.163   6.450
 9029POPC   D2A59140   3.533  22.170   6.750
 9029POPC   C3A59141   3.532  22.187   7.050
 9029POPC   C4A59142   3.591  22.184   7.350
 9029POPC   C1B59143   3.791  22.060   6.450
 9029POPC   C2B59144   3.745  22.037   6.750
 9029POPC   C3B59145   3.732  21.998   7.050
 9029POPC   C4B59146   3.751  22.059   7.350
 9030POPC   NC359147  33.828  32.262   5.550
 9030POPC   PO459148  33.841  32.205   5.850
 9030POPC   GL159149  33.818  32.266   6.150
 9030POPC   GL259150  33.872  32.106   6.150
 9030POPC   C1A59151  33.771  32.284   6.450
 9030POPC   D2A59152  33.766  32.293   6.750
 9030POPC   C3A59153  33.795  32.269   7.050
 9030POPC   C4A59154  33.751  32.237   7.350
 9030POPC   C1B59155  33.857  31.976   6.450
 9030POPC   C2B59156  33.924  31.972   6.750
 9030POPC   C3B59157  33.905  32.055   7.050
 9030POPC   C4B59158  33.866  32.018   7.350
 9031POPC   NC359159  33.005  23.671   5.550
 9031POPC   PO459160  33.008  23.693   5.850
 9031POPC   GL159161  33.020  23.678   6.150
 9031POPC   GL259162  33.175  23.755   6.150
 9031POPC   C1A59163  33.047  23.670   6.450
 9031POPC   D2A59164  33.037  23.757   6.750
 9031POPC   C3A59165  33.012  23.709   7.050
 9031POPC   C4A59166  33.066  23.723   7.350
 9031POPC   C1B59167  33.313  23.771   6.450
 9031POPC   C2B59168  33.257  23.788   6.750
 9031POPC   C3B59169  33.286  23.728   7.050
 9031POPC   C4B59170  33.260  23.754   7.350
 9032POPC   NC359171   2.026  31.465   5.550
 9032POPC   PO459172   1.956  31.517   5.850
 9032POPC   GL159173   1.965  31.451   6.150
 9032POPC   GL259174   1.996  31.564   6.150
 9032POPC   C1A59175   1.950  31.522   6.450
 9032POPC   D2A59176   1.961  31.496   6.750
 9032POPC   C3A59177   2.001  31.429   7.050
 9032POPC   C4A59178   2.005  31.438   7.350
 9032POPC   C1B59179   2.078  31.662   6.450
 9032POPC   C2B59180   2.029  31.743   6.750
 9032POPC   C3B59181   2.101  31.706   7.050
 9032POPC   C4B59182   2.053  31.752   7.350
 9033POPC   NC359183  36.175  29.871   5.550
 9033POPC   PO459184  36.089  29.948   5.850
 9033POPC   GL159185  36.164  29.889   6.150
 9033POPC   GL259186  36.059  29.957   6.150
 9033POPC   C1A59187  36.129  29.932   6.450
 9033POPC   D2A59188  36.115  29.945   6.750
 9033POPC   C3A59189  36.129  29.954   7.050
 9033POPC   C4A59190  36.082  29.941   7.350
 9033POPC   C1B59191  35.914  30.065   6.450
 9033POPC   C2B59192  35.874  30.014   6.750
 9033POPC   C3B59193  35.914  30.034   7.050
 9033POPC   C4B59194  35.938  30.001   7.350
 9034POPC   NC359195  39.198  24.532   5.550
 9034POPC   PO459196  39.278  24.456   5.850
 9034POPC   GL159197  39.245  24.446   6.150
 9034POPC   GL259198  39.149  24.476   6.150
 9034POPC   C1A59199  39.203  24.491   6.450
 9034POPC   D2A59200  39.255  24.461   6.750
 9034POPC   C3A59201  39.195  24.533   7.050
 9034POPC   C4A59202  39.257  24.464   7.350
 9034POPC   C1B59203  38.962  24.418   6.450
 9034POPC   C2B59204  38.965  24.422   6.750
 9034POPC   C3B59205  39.016  24.451   7.050
 9034POPC   C4B59206  39.001  24.426   7.350
 9035POPC   NC359207  19.065   3.577   5.550
 9035POPC   PO459208  19.054   3.579   5.850
 9035POPC   GL159209  19.095   3.555   6.150
 9035POPC   GL259210  19.168   3.562   6.150
 9035POPC   C1A59211  19.053   3.560   6.450
 9035POPC   D2A59212  19.063   3.563   6.750
 9035POPC   C3A59213  19.077   3.513   7.050
 9035POPC   C4A59214  19.057   3.550   7.350
 9035POPC   C1B59215  19.335   3.542   6.450
 9035POPC   C2B59216  19.298   3.616   6.750
 9035POPC   C3B59217  19.261   3.576   7.050
 9035POPC   C4B59218  19.334   3.538   7.350
 9036POPC   NC359219  30.677   8.236   5.550
 9036POPC   PO459220  30.731   8.167   5.850
 9036POPC   GL159221  30.711   8.217   6.150
 9036POPC   GL259222  30.664   8.279   6.150
 9036POPC   C1A59223  30.663   8.203   6.450
 9036POPC   D2A59224  30.689   8.218   6.750
 9036POPC   C3A59225  30.647   8.242   7.050
 9036POPC   C4A59226  30.713   8.225   7.350
 9036POPC   C1B59227  30.543   8.457   6.450
 9036POPC   C2B59228  30.555   8.443   6.750
 9036POPC   C3B59229  30.582   8.461   7.050
 9036POPC   C4B59230  30.616   8.381   7.350
 9037POPC   NC359231  31.423  43.089   5.550
 9037POPC   PO459232  31.470  43.144   5.850
 9037POPC   GL159233  31.478  43.142   6.150
 9037POPC   GL259234  31.518  43.074   6.150
 9037POPC   C1A59235  31.456  43.106   6.450
 9037POPC   D2A59236  31.461  43.131   6.750
 9037POPC   C3A59237  31.502  43.154   7.050
 9037POPC   C4A59238  31.467  43.083   7.350
 9037POPC   C1B59239  31.630  42.962   6.450
 9037POPC   C2B59240  31.663  42.938   6.750
 9037POPC   C3B59241  31.692  42.949   7.050
 9037POPC   C4B59242  31.653  42.891   7.350
 9038POPC   NC359243  19.082   4.292   5.550
 9038POPC   PO459244  19.081   4.312   5.850
 9038POPC   GL159245  19.081   4.355   6.150
 9038POPC   GL259246  18.934   4.366   6.150
 9038POPC   C1A59247  19.051   4.343   6.450
 9038POPC   D2A59248  19.037   4.292   6.750
 9038POPC   C3A59249  19.061   4.323   7.050
 9038POPC   C4A59250  19.055   4.301   7.350
 9038POPC   C1B59251  18.777   4.320   6.450
 9038POPC   C2B59252  18.836   4.298   6.750
 9038POPC   C3B59253  18.823   4.277   7.050
 9038POPC   C4B59254  18.840   4.362   7.350
 9039POPC   NC359255  26.826  17.513   5.550
 9039POPC   PO459256  26.844  17.556   5.850
 9039POPC   GL159257  26.815  17.552   6.150
 9039POPC   GL259258  26.866  17.543   6.150
 9039POPC   C1A59259  26.851  17.496   6.450
 9039POPC   D2A59260  26.845  17.534   6.750
 9039POPC   C3A59261  26.804  17.517   7.050
 9039POPC   C4A59262  26.787  17.554   7.350
 9039POPC   C1B59263  26.965  17.670   6.450
 9039POPC   C2B59264  27.000  17.633   6.750
 9039POPC   C3B59265  27.051  17.620   7.050
 9039POPC   C4B59266  26.993  17.642   7.350
 9040POPC   NC359267  29.108  13.608   5.550
 9040POPC   PO459268  29.113  13.591   5.850
 9040POPC   GL159269  29.176  13.596   6.150
 9040POPC   GL259270  29.261  13.548   6.150
 9040POPC   C1A59271  29.182  13.626   6.450
 9040POPC   D2A59272  29.128  13.651   6.750
 9040POPC   C3A59273  29.136  13.605   7.050
 9040POPC   C4A59274  29.118  13.651   7.350
 9040POPC   C1B59275  29.338  13.496   6.450
 9040POPC   C2B59276  29.319  13.495   6.750
 9040POPC   C3B59277  29.371  13.497   7.050
 9040POPC   C4B59278  29.336  13.543   7.350
 9041POPC   NC359279  40.789  39.970   5.550
 9041POPC   PO459280  40.741  39.980   5.850
 9041POPC   GL159281  40.816  40.032   6.150
 9041POPC   GL259282  40.910  40.081   6.150
 9041POPC   C1A59283  40.741  40.020   6.450
 9041POPC   D2A59284  40.739  40.002   6.750
 9041POPC   C3A59285  40.768  39.985   7.050
 9041POPC   C4A59286  40.828  39.989   7.350
 9041POPC   C1B59287  41.033  40.114   6.450
 9041POPC   C2B59288  40.963  40.112   6.750
 9041POPC   C3B59289  41.007  40.170   7.050
 9041POPC   C4B59290  40.998  40.108   7.350
 9042POPC   NC359291  26.794  21.367   5.550
 9042POPC   PO459292  26.855  21.347   5.850
 9042POPC   GL159293  26.783  21.349   6.150
 9042POPC   GL259294  26.824  21.498   6.150
 9042POPC   C1A59295  26.815  21.351   6.450
 9042POPC   D2A59296  26.852  21.344   6.750
 9042POPC   C3A59297  26.772  21.394   7.050
 9042POPC   C4A59298  26.795  21.344   7.350
 9042POPC   C1B59299  26.838  21.657   6.450
 9042POPC   C2B59300  26.798  21.638   6.750
 9042POPC   C3B59301  26.799  21.658   7.050
 9042POPC   C4B59302  26.872  21.652   7.350
 9043POPC   NC359303  44.618  30.733   5.550
 9043POPC   PO459304  44.665  30.722   5.850
 9043POPC   GL159305  44.652  30.683   6.150
 9043POPC   GL259306  44.531  30.712   6.150
 9043POPC   C1A59307  44.647  30.647   6.450
 9043POPC   D2A59308  44.645  30.709   6.750
 9043POPC   C3A59309  44.650  30.734   7.050
 9043POPC   C4A59310  44.630  30.698   7.350
 9043POPC   C1B59311  44.415  30.746   6.450
 9043POPC   C2B59312  44.424  30.776   6.750
 9043POPC   C3B59313  44.435  30.822   7.050
 9043POPC   C4B59314  44.443  30.745   7.350
 9044POPC   NC359315  19.033  32.980   5.550
 9044POPC   PO459316  19.075  33.005   5.850
 9044POPC   GL159317  19.097  32.981   6.150
 9044POPC   GL259318  18.925  33.067   6.150
 9044POPC   C1A59319  19.104  33.064   6.450
 9044POPC   D2A59320  19.016  33.022   6.750
 9044POPC   C3A59321  19.104  33.047   7.050
 9044POPC   C4A59322  19.019  33.035   7.350
 9044POPC   C1B59323  18.806  33.086   6.450
 9044POPC   C2B59324  18.840  33.108   6.750
 9044POPC   C3B59325  18.839  33.096   7.050
 9044POPC   C4B59326  18.838  33.079   7.350
 9045POPC   NC359327   1.998   1.181   5.550
 9045POPC   PO459328   1.946   1.180   5.850
 9045POPC   GL159329   1.951   1.212   6.150
 9045POPC   GL259330   1.878   1.079   6.150
 9045POPC   C1A59331   1.979   1.175   6.450
 9045POPC   D2A59332   1.975   1.227   6.750
 9045POPC   C3A59333   1.985   1.220   7.050
 9045POPC   C4A59334   1.998   1.200   7.350
 9045POPC   C1B59335   1.852   1.054   6.450
 9045POPC   C2B59336   1.843   0.988   6.750
 9045POPC   C3B59337   1.863   0.995   7.050
 9045POPC   C4B59338   1.876   1.016   7.350
 9046POPC   NC359339  29.193  14.433   5.550
 9046POPC   PO459340  29.105  14.405   5.850
 9046POPC   GL159341  29.183  14.384   6.150
 9046POPC   GL259342  29.273  14.503   6.150
 9046POPC   C1A59343  29.190  14.437   6.450
 9046POPC   D2A59344  29.112  14.374   6.750
 9046POPC   C3A59345  29.192  14.437   7.050
 9046POPC   C4A59346  29.190  14.445   7.350
 9046POPC   C1B59347  29.340  14.497   6.450
 9046POPC   C2B59348  29.313  14.548   6.750
 9046POPC   C3B59349  29.376  14.579   7.050
 9046POPC   C4B59350  29.396  14.573   7.350
 9047POPC   NC359351  12.879  33.790   5.550
 9047POPC   PO459352  12.814  33.838   5.850
 9047POPC   GL159353  12.820  33.848   6.150
 9047POPC   GL259354  12.902  33.913   6.150
 9047POPC   C1A59355  12.826  33.780   6.450
 9047POPC   D2A59356  12.822  33.820   6.750
 9047POPC   C3A59357  12.829  33.787   7.050
 9047POPC   C4A59358  12.866  33.759   7.350
 9047POPC   C1B59359  12.915  34.028   6.450
 9047POPC   C2B59360  12.898  34.044   6.750
 9047POPC   C3B59361  12.908  33.995   7.050
 9047POPC   C4B59362  12.875  34.023   7.350
 9048POPC   NC359363  23.759  19.787   5.550
 9048POPC   PO459364  23.745  19.868   5.850
 9048POPC   GL159365  23.674  19.866   6.150
 9048POPC   GL259366  23.638  19.955   6.150
 9048POPC   C1A59367  23.760  19.801   6.450
 9048POPC   D2A59368  23.672  19.815   6.750
 9048POPC   C3A59369  23.716  19.881   7.050
 9048POPC   C4A59370  23.702  19.855   7.350
 9048POPC   C1B59371  23.570  20.080   6.450
 9048POPC   C2B59372  23.574  20.039   6.750
 9048POPC   C3B59373  23.647  20.085   7.050
 9048POPC   C4B59374  23.568  20.107   7.350
 9049POPC   NC359375  42.311  41.535   5.550
 9049POPC   PO459376  42.344  41.518   5.850
 9049POPC   GL159377  42.324  41.558   6.150
 9049POPC   GL259378  42.241  41.424   6.150
 9049POPC   C1A59379  42.360  41.585   6.450
 9049POPC   D2A59380  42.347  41.558   6.750
 9049POPC   C3A59381  42.312  41.603   7.050
 9049POPC   C4A59382  42.320  41.582   7.350
 9049POPC   C1B59383  42.176  41.372   6.450
 9049POPC   C2B59384  42.190  41.409   6.750
 9049POPC   C3B59385  42.187  41.400   7.050
 9049POPC   C4B59386  42.190  41.408   7.350
 9050POPC   NC359387  12.085   9.712   5.550
 9050POPC   PO459388  12.112   9.716   5.850
 9050POPC   GL159389  12.043   9.702   6.150
 9050POPC   GL259390  11.991   9.635   6.150
 9050POPC   C1A59391  12.029   9.712   6.450
 9050POPC   D2A59392  12.058   9.726   6.750
 9050POPC   C3A59393  12.109   9.795   7.050
 9050POPC   C4A59394  12.051   9.737   7.350
 9050POPC   C1B59395  11.902   9.586   6.450
 9050POPC   C2B59396  11.947   9.555   6.750
 9050POPC   C3B59397  11.927   9.519   7.050
 9050POPC   C4B59398  11.900   9.543   7.350
 9051POPC   NC359399  25.301  16.733   5.550
 9051POPC   PO459400  25.272  16.686   5.850
 9051POPC   GL159401  25.224  16.731   6.150
 9051POPC   GL259402  25.162  16.822   6.150
 9051POPC   C1A59403  25.274  16.773   6.450
 9051POPC   D2A59404  25.289  16.767   6.750
 9051POPC   C3A59405  25.236  16.702   7.050
 9051POPC   C4A59406  25.226  16.740   7.350
 9051POPC   C1B59407  25.189  16.955   6.450
 9051POPC   C2B59408  25.113  16.956   6.750
 9051POPC   C3B59409  25.141  16.912   7.050
 9051POPC   C4B59410  25.104  16.943   7.350
 9052POPC   NC359411   5.847  38.408   5.550
 9052POPC   PO459412   5.905  38.461   5.850
 9052POPC   GL159413   5.867  38.415   6.150
 9052POPC   GL259414   5.800  38.360   6.150
 9052POPC   C1A59415   5.887  38.501   6.450
 9052POPC   D2A59416   5.865  38.425   6.750
 9052POPC   C3A59417   5.876  38.443   7.050
 9052POPC   C4A59418   5.840  38.444   7.350
 9052POPC   C1B59419   5.646  38.243   6.450
 9052POPC   C2B59420   5.682  38.269   6.750
 9052POPC   C3B59421   5.734  38.283   7.050
 9052POPC   C4B59422   5.664  38.297   7.350
 9053POPC   NC359423  42.372  40.799   5.550
 9053POPC   PO459424  42.343  40.831   5.850
 9053POPC   GL159425  42.378  40.775   6.150
 9053POPC   GL259426  42.334  40.875   6.150
 9053POPC   C1A59427  42.374  40.793   6.450
 9053POPC   D2A59428  42.353  40.815   6.750
 9053POPC   C3A59429  42.324  40.814   7.050
 9053POPC   C4A59430  42.301  40.769   7.350
 9053POPC   C1B59431  42.439  41.017   6.450
 9053POPC   C2B59432  42.360  41.034   6.750
 9053POPC   C3B59433  42.403  41.058   7.050
 9053POPC   C4B59434  42.402  41.006   7.350
 9054POPC   NC359435  31.499  15.220   5.550
 9054POPC   PO459436  31.437  15.193   5.850
 9054POPC   GL159437  31.511  15.130   6.150
 9054POPC   GL259438  31.621  15.172   6.150
 9054POPC   C1A59439  31.506  15.158   6.450
 9054POPC   D2A59440  31.472  15.205   6.750
 9054POPC   C3A59441  31.452  15.141   7.050
 9054POPC   C4A59442  31.437  15.223   7.350
 9054POPC   C1B59443  31.752  15.264   6.450
 9054POPC   C2B59444  31.768  15.248   6.750
 9054POPC   C3B59445  31.711  15.171   7.050
 9054POPC   C4B59446  31.677  15.168   7.350
 9055POPC   NC359447   5.091   8.214   5.550
 9055POPC   PO459448   5.096   8.223   5.850
 9055POPC   GL159449   5.126   8.182   6.150
 9055POPC   GL259450   4.934   8.201   6.150
 9055POPC   C1A59451   5.123   8.151   6.450
 9055POPC   D2A59452   5.045   8.227   6.750
 9055POPC   C3A59453   5.079   8.164   7.050
 9055POPC   C4A59454   5.121   8.154   7.350
 9055POPC   C1B59455   4.891   8.297   6.450
 9055POPC   C2B59456   4.871   8.236   6.750
 9055POPC   C3B59457   4.844   8.261   7.050
 9055POPC   C4B59458   4.877   8.226   7.350
 9056POPC   NC359459  43.855  13.600   5.550
 9056POPC   PO459460  43.864  13.607   5.850
 9056POPC   GL159461  43.850  13.629   6.150
 9056POPC   GL259462  43.855  13.755   6.150
 9056POPC   C1A59463  43.898  13.662   6.450
 9056POPC   D2A59464  43.857  13.654   6.750
 9056POPC   C3A59465  43.899  13.630   7.050
 9056POPC   C4A59466  43.840  13.646   7.350
 9056POPC   C1B59467  43.781  13.821   6.450
 9056POPC   C2B59468  43.778  13.911   6.750
 9056POPC   C3B59469  43.781  13.860   7.050
 9056POPC   C4B59470  43.837  13.819   7.350
 9057POPC   NC359471  16.765  34.542   5.550
 9057POPC   PO459472  16.766  34.613   5.850
 9057POPC   GL159473  16.723  34.543   6.150
 9057POPC   GL259474  16.678  34.622   6.150
 9057POPC   C1A59475  16.724  34.601   6.450
 9057POPC   D2A59476  16.727  34.529   6.750
 9057POPC   C3A59477  16.736  34.590   7.050
 9057POPC   C4A59478  16.769  34.581   7.350
 9057POPC   C1B59479  16.526  34.716   6.450
 9057POPC   C2B59480  16.584  34.754   6.750
 9057POPC   C3B59481  16.559  34.744   7.050
 9057POPC   C4B59482  16.514  34.749   7.350
 9058POPC   NC359483  21.400  16.756   5.550
 9058POPC   PO459484  21.411  16.686   5.850
 9058POPC   GL159485  21.338  16.741   6.150
 9058POPC   GL259486  21.348  16.802   6.150
 9058POPC   C1A59487  21.428  16.727   6.450
 9058POPC   D2A59488  21.358  16.711   6.750
 9058POPC   C3A59489  21.386  16.711   7.050
 9058POPC   C4A59490  21.398  16.729   7.350
 9058POPC   C1B59491  21.321  16.921   6.450
 9058POPC   C2B59492  21.289  16.950   6.750
 9058POPC   C3B59493  21.336  16.986   7.050
 9058POPC   C4B59494  21.346  17.008   7.350
 9059POPC   NC359495  35.345  19.820   5.550
 9059POPC   PO459496  35.316  19.865   5.850
 9059POPC   GL159497  35.366  19.823   6.150
 9059POPC   GL259498  35.345  19.728   6.150
 9059POPC   C1A59499  35.362  19.793   6.450
 9059POPC   D2A59500  35.402  19.820   6.750
 9059POPC   C3A59501  35.388  19.791   7.050
 9059POPC   C4A59502  35.316  19.830   7.350
 9059POPC   C1B59503  35.439  19.550   6.450
 9059POPC   C2B59504  35.389  19.549   6.750
 9059POPC   C3B59505  35.442  19.633   7.050
 9059POPC   C4B59506  35.420  19.604   7.350
 9060POPC   NC359507  43.128   5.894   5.550
 9060POPC   PO459508  43.109   5.904   5.850
 9060POPC   GL159509  43.140   5.895   6.150
 9060POPC   GL259510  43.124   5.958   6.150
 9060POPC   C1A59511  43.123   5.900   6.450
 9060POPC   D2A59512  43.150   5.897   6.750
 9060POPC   C3A59513  43.074   5.905   7.050
 9060POPC   C4A59514  43.153   5.849   7.350
 9060POPC   C1B59515  43.014   6.102   6.450
 9060POPC   C2B59516  43.032   6.155   6.750
 9060POPC   C3B59517  43.083   6.093   7.050
 9060POPC   C4B59518  43.041   6.066   7.350
 9061POPC   NC359519  15.191   0.452   5.550
 9061POPC   PO459520  15.134   0.416   5.850
 9061POPC   GL159521  15.167   0.474   6.150
 9061POPC   GL259522  15.091   0.394   6.150
 9061POPC   C1A59523  15.177   0.402   6.450
 9061POPC   D2A59524  15.148   0.396   6.750
 9061POPC   C3A59525  15.161   0.464   7.050
 9061POPC   C4A59526  15.168   0.462   7.350
 9061POPC   C1B59527  14.992   0.378   6.450
 9061POPC   C2B59528  14.992   0.355   6.750
 9061POPC   C3B59529  14.930   0.307   7.050
 9061POPC   C4B59530  14.918   0.330   7.350
 9062POPC   NC359531  33.032   2.729   5.550
 9062POPC   PO459532  33.047   2.741   5.850
 9062POPC   GL159533  33.043   2.802   6.150
 9062POPC   GL259534  32.913   2.661   6.150
 9062POPC   C1A59535  33.036   2.741   6.450
 9062POPC   D2A59536  32.981   2.782   6.750
 9062POPC   C3A59537  33.004   2.717   7.050
 9062POPC   C4A59538  33.024   2.724   7.350
 9062POPC   C1B59539  32.792   2.601   6.450
 9062POPC   C2B59540  32.858   2.606   6.750
 9062POPC   C3B59541  32.808   2.591   7.050
 9062POPC   C4B59542  32.786   2.650   7.350
 9063POPC   NC359543  16.692  42.368   5.550
 9063POPC   PO459544  16.761  42.337   5.850
 9063POPC   GL159545  16.702  42.310   6.150
 9063POPC   GL259546  16.610  42.293   6.150
 9063POPC   C1A59547  16.779  42.288   6.450
 9063POPC   D2A59548  16.729  42.379   6.750
 9063POPC   C3A59549  16.723  42.365   7.050
 9063POPC   C4A59550  16.756  42.324   7.350
 9063POPC   C1B59551  16.450  42.382   6.450
 9063POPC   C2B59552  16.507  42.376   6.750
 9063POPC   C3B59553  16.459  42.377   7.050
 9063POPC   C4B59554  16.468  42.303   7.350
 9064POPC   NC359555  41.537   0.420   5.550
 9064POPC   PO459556  41.564   0.439   5.850
 9064POPC   GL159557  41.545   0.487   6.150
 9064POPC   GL259558  41.415   0.403   6.150
 9064POPC   C1A59559  41.600   0.426   6.450
 9064POPC   D2A59560  41.557   0.398   6.750
 9064POPC   C3A59561  41.559   0.402   7.050
 9064POPC   C4A59562  41.581   0.486   7.350
 9064POPC   C1B59563  41.262   0.401   6.450
 9064POPC   C2B59564  41.294   0.453   6.750
 9064POPC   C3B59565  41.300   0.360   7.050
 9064POPC   C4B59566  41.339   0.450   7.350
 9065POPC   NC359567   4.332  19.842   5.550
 9065POPC   PO459568   4.291  19.858   5.850
 9065POPC   GL159569   4.298  19.791   6.150
 9065POPC   GL259570   4.440  19.876   6.150
 9065POPC   C1A59571   4.288  19.806   6.450
 9065POPC   D2A59572   4.316  19.871   6.750
 9065POPC   C3A59573   4.335  19.846   7.050
 9065POPC   C4A59574   4.315  19.857   7.350
 9065POPC   C1B59575   4.573  19.855   6.450
 9065POPC   C2B59576   4.559  19.868   6.750
 9065POPC   C3B59577   4.537  19.830   7.050
 9065POPC   C4B59578   4.614  19.831   7.350
 9066POPC   NC359579   7.376  33.029   5.550
 9066POPC   PO459580   7.408  33.017   5.850
 9066POPC   GL159581   7.465  32.996   6.150
 9066POPC   GL259582   7.351  33.166   6.150
 9066POPC   C1A59583   7.433  33.051   6.450
 9066POPC   D2A59584   7.466  33.009   6.750
 9066POPC   C3A59585   7.377  33.064   7.050
 9066POPC   C4A59586   7.375  33.015   7.350
 9066POPC   C1B59587   7.230  33.273   6.450
 9066POPC   C2B59588   7.327  33.242   6.750
 9066POPC   C3B59589   7.242  33.237   7.050
 9066POPC   C4B59590   7.303  33.222   7.350
 9067POPC   NC359591  26.054  26.828   5.550
 9067POPC   PO459592  25.995  26.779   5.850
 9067POPC   GL159593  26.000  26.788   6.150
 9067POPC   GL259594  25.988  26.965   6.150
 9067POPC   C1A59595  25.994  26.796   6.450
 9067POPC   D2A59596  26.014  26.867   6.750
 9067POPC   C3A59597  26.056  26.789   7.050
 9067POPC   C4A59598  26.064  26.844   7.350
 9067POPC   C1B59599  25.984  27.049   6.450
 9067POPC   C2B59600  26.041  27.082   6.750
 9067POPC   C3B59601  26.017  27.052   7.050
 9067POPC   C4B59602  25.962  27.051   7.350
 9068POPC   NC359603  21.434  41.551   5.550
 9068POPC   PO459604  21.373  41.597   5.850
 9068POPC   GL159605  21.351  41.561   6.150
 9068POPC   GL259606  21.500  41.562   6.150
 9068POPC   C1A59607  21.355  41.589   6.450
 9068POPC   D2A59608  21.381  41.528   6.750
 9068POPC   C3A59609  21.361  41.593   7.050
 9068POPC   C4A59610  21.382  41.555   7.350
 9068POPC   C1B59611  21.669  41.556   6.450
 9068POPC   C2B59612  21.618  41.499   6.750
 9068POPC   C3B59613  21.605  41.551   7.050
 9068POPC   C4B59614  21.668  41.592   7.350
 9069POPC   NC359615  15.974  22.134   5.550
 9069POPC   PO459616  15.974  22.120   5.850
 9069POPC   GL159617  15.961  22.199   6.150
 9069POPC   GL259618  15.821  22.209   6.150
 9069POPC   C1A59619  15.941  22.200   6.450
 9069POPC   D2A59620  15.943  22.123   6.750
 9069POPC   C3A59621  15.991  22.195   7.050
 9069POPC   C4A59622  15.985  22.135   7.350
 9069POPC   C1B59623  15.708  22.332   6.450
 9069POPC   C2B59624  15.788  22.255   6.750
 9069POPC   C3B59625  15.736  22.280   7.050
 9069POPC   C4B59626  15.713  22.288   7.350
 9070POPC   NC359627  19.065  20.583   5.550
 9070POPC   PO459628  19.035  20.599   5.850
 9070POPC   GL159629  19.095  20.562   6.150
 9070POPC   GL259630  18.936  20.659   6.150
 9070POPC   C1A59631  19.093  20.626   6.450
 9070POPC   D2A59632  19.015  20.651   6.750
 9070POPC   C3A59633  19.018  20.591   7.050
 9070POPC   C4A59634  19.106  20.658   7.350
 9070POPC   C1B59635  18.848  20.822   6.450
 9070POPC   C2B59636  18.877  20.761   6.750
 9070POPC   C3B59637  18.871  20.788   7.050
 9070POPC   C4B59638  18.932  20.780   7.350
 9071POPC   NC359639   5.863  43.900   5.550
 9071POPC   PO459640   5.881  43.858   5.850
 9071POPC   GL159641   5.840  43.931   6.150
 9071POPC   GL259642   5.989  43.896   6.150
 9071POPC   C1A59643   5.912  43.932   6.450
 9071POPC   D2A59644   5.830  43.911   6.750
 9071POPC   C3A59645   5.830  43.898   7.050
 9071POPC   C4A59646   5.837  43.911   7.350
 9071POPC   C1B59647   6.090  43.878   6.450
 9071POPC   C2B59648   6.077  43.857   6.750
 9071POPC   C3B59649   6.146  43.858   7.050
 9071POPC   C4B59650   6.150  43.855   7.350
 9072POPC   NC359651  34.594  10.552   5.550
 9072POPC   PO459652  34.538  10.509   5.850
 9072POPC   GL159653  34.575  10.507   6.150
 9072POPC   GL259654  34.447  10.452   6.150
 9072POPC   C1A59655  34.536  10.538   6.450
 9072POPC   D2A59656  34.612  10.503   6.750
 9072POPC   C3A59657  34.593  10.564   7.050
 9072POPC   C4A59658  34.548  10.562   7.350
 9072POPC   C1B59659  34.340  10.404   6.450
 9072POPC   C2B59660  34.383  10.423   6.750
 9072POPC   C3B59661  34.350  10.391   7.050
 9072POPC   C4B59662  34.408  10.401   7.350
 9073POPC   NC359663  37.668  23.669   5.550
 9073POPC   PO459664  37.635  23.681   5.850
 9073POPC   GL159665  37.727  23.754   6.150
 9073POPC   GL259666  37.661  23.845   6.150
 9073POPC   C1A59667  37.719  23.731   6.450
 9073POPC   D2A59668  37.659  23.703   6.750
 9073POPC   C3A59669  37.694  23.738   7.050
 9073POPC   C4A59670  37.719  23.692   7.350
 9073POPC   C1B59671  37.757  23.950   6.450
 9073POPC   C2B59672  37.742  24.007   6.750
 9073POPC   C3B59673  37.765  23.936   7.050
 9073POPC   C4B59674  37.703  24.004   7.350
 9074POPC   NC359675  43.889  18.245   5.550
 9074POPC   PO459676  43.889  18.279   5.850
 9074POPC   GL159677  43.860  18.268   6.150
 9074POPC   GL259678  43.910  18.147   6.150
 9074POPC   C1A59679  43.911  18.255   6.450
 9074POPC   D2A59680  43.850  18.310   6.750
 9074POPC   C3A59681  43.922  18.256   7.050
 9074POPC   C4A59682  43.891  18.286   7.350
 9074POPC   C1B59683  43.969  18.107   6.450
 9074POPC   C2B59684  44.037  18.023   6.750
 9074POPC   C3B59685  44.024  18.053   7.050
 9074POPC   C4B59686  43.956  18.094   7.350
 9075POPC   NC359687  43.884   8.239   5.550
 9075POPC   PO459688  43.838   8.150   5.850
 9075POPC   GL159689  43.883   8.190   6.150
 9075POPC   GL259690  43.948   8.304   6.150
 9075POPC   C1A59691  43.888   8.202   6.450
 9075POPC   D2A59692  43.904   8.230   6.750
 9075POPC   C3A59693  43.867   8.215   7.050
 9075POPC   C4A59694  43.896   8.158   7.350
 9075POPC   C1B59695  43.993   8.390   6.450
 9075POPC   C2B59696  44.082   8.374   6.750
 9075POPC   C3B59697  44.052   8.410   7.050
 9075POPC   C4B59698  44.087   8.378   7.350
 9076POPC   NC359699  33.792   0.431   5.550
 9076POPC   PO459700  33.817   0.486   5.850
 9076POPC   GL159701  33.768   0.426   6.150
 9076POPC   GL259702  33.860   0.491   6.150
 9076POPC   C1A59703  33.820   0.456   6.450
 9076POPC   D2A59704  33.835   0.450   6.750
 9076POPC   C3A59705  33.792   0.485   7.050
 9076POPC   C4A59706  33.849   0.475   7.350
 9076POPC   C1B59707  33.914   0.590   6.450
 9076POPC   C2B59708  33.945   0.688   6.750
 9076POPC   C3B59709  33.980   0.621   7.050
 9076POPC   C4B59710  33.948   0.604   7.350
 9077POPC   NC359711  26.849   7.454   5.550
 9077POPC   PO459712  26.810   7.391   5.850
 9077POPC   GL159713  26.841   7.445   6.150
 9077POPC   GL259714  26.761   7.576   6.150
 9077POPC   C1A59715  26.819   7.418   6.450
 9077POPC   D2A59716  26.823   7.453   6.750
 9077POPC   C3A59717  26.824   7.394   7.050
 9077POPC   C4A59718  26.814   7.425   7.350
 9077POPC   C1B59719  26.697   7.607   6.450
 9077POPC   C2B59720  26.703   7.672   6.750
 9077POPC   C3B59721  26.707   7.644   7.050
 9077POPC   C4B59722  26.668   7.622   7.350
 9078POPC   NC359723   2.791  36.858   5.550
 9078POPC   PO459724   2.719  36.880   5.850
 9078POPC   GL159725   2.751  36.945   6.150
 9078POPC   GL259726   2.778  37.027   6.150
 9078POPC   C1A59727   2.773  36.884   6.450
 9078POPC   D2A59728   2.760  36.902   6.750
 9078POPC   C3A59729   2.780  36.902   7.050
 9078POPC   C4A59730   2.744  36.907   7.350
 9078POPC   C1B59731   2.713  37.200   6.450
 9078POPC   C2B59732   2.802  37.107   6.750
 9078POPC   C3B59733   2.786  37.199   7.050
 9078POPC   C4B59734   2.793  37.140   7.350
 9079POPC   NC359735  35.350   2.722   5.550
 9079POPC   PO459736  35.374   2.728   5.850
 9079POPC   GL159737  35.315   2.763   6.150
 9079POPC   GL259738  35.274   2.826   6.150
 9079POPC   C1A59739  35.341   2.766   6.450
 9079POPC   D2A59740  35.396   2.804   6.750
 9079POPC   C3A59741  35.369   2.732   7.050
 9079POPC   C4A59742  35.302   2.770   7.350
 9079POPC   C1B59743  35.125   2.817   6.450
 9079POPC   C2B59744  35.095   2.811   6.750
 9079POPC   C3B59745  35.101   2.842   7.050
 9079POPC   C4B59746  35.133   2.801   7.350
 9080POPC   NC359747   8.968  10.497   5.550
 9080POPC   PO459748   8.961  10.488   5.850
 9080POPC   GL159749   8.993  10.510   6.150
 9080POPC   GL259750   9.103  10.516   6.150
 9080POPC   C1A59751   8.941  10.550   6.450
 9080POPC   D2A59752   8.948  10.491   6.750
 9080POPC   C3A59753   8.948  10.552   7.050
 9080POPC   C4A59754   8.955  10.557   7.350
 9080POPC   C1B59755   9.206  10.584   6.450
 9080POPC   C2B59756   9.246  10.564   6.750
 9080POPC   C3B59757   9.269  10.518   7.050
 9080POPC   C4B59758   9.229  10.585   7.350
 9081POPC   NC359759   5.071  19.014   5.550
 9081POPC   PO459760   5.079  19.013   5.850
 9081POPC   GL159761   5.095  19.071   6.150
 9081POPC   GL259762   4.995  19.174   6.150
 9081POPC   C1A59763   5.061  19.079   6.450
 9081POPC   D2A59764   5.107  19.077   6.750
 9081POPC   C3A59765   5.072  19.106   7.050
 9081POPC   C4A59766   5.124  19.095   7.350
 9081POPC   C1B59767   4.838  19.181   6.450
 9081POPC   C2B59768   4.923  19.214   6.750
 9081POPC   C3B59769   4.922  19.224   7.050
 9081POPC   C4B59770   4.908  19.232   7.350
 9082POPC   NC359771   5.096  43.865   5.550
 9082POPC   PO459772   5.051  43.929   5.850
 9082POPC   GL159773   5.102  43.898   6.150
 9082POPC   GL259774   5.039  44.042   6.150
 9082POPC   C1A59775   5.132  43.847   6.450
 9082POPC   D2A59776   5.117  43.902   6.750
 9082POPC   C3A59777   5.072  43.870   7.050
 9082POPC   C4A59778   5.119  43.872   7.350
 9082POPC   C1B59779   4.946  44.114   6.450
 9082POPC   C2B59780   5.026  44.094   6.750
 9082POPC   C3B59781   4.991  44.110   7.050
 9082POPC   C4B59782   4.959  44.134   7.350
 9083POPC   NC359783  19.021  23.665   5.550
 9083POPC   PO459784  19.047  23.744   5.850
 9083POPC   GL159785  19.074  23.694   6.150
 9083POPC   GL259786  19.127  23.561   6.150
 9083POPC   C1A59787  19.013  23.680   6.450
 9083POPC   D2A59788  19.108  23.763   6.750
 9083POPC   C3A59789  19.065  23.688   7.050
 9083POPC   C4A59790  19.010  23.745   7.350
 9083POPC   C1B59791  19.120  23.533   6.450
 9083POPC   C2B59792  19.133  23.498   6.750
 9083POPC   C3B59793  19.189  23.495   7.050
 9083POPC   C4B59794  19.203  23.478   7.350
 9084POPC   NC359795  41.509  12.117   5.550
 9084POPC   PO459796  41.558  12.061   5.850
 9084POPC   GL159797  41.596  12.107   6.150
 9084POPC   GL259798  41.685  12.087   6.150
 9084POPC   C1A59799  41.603  12.066   6.450
 9084POPC   D2A59800  41.541  12.072   6.750
 9084POPC   C3A59801  41.520  12.049   7.050
 9084POPC   C4A59802  41.549  12.105   7.350
 9084POPC   C1B59803  41.766  12.125   6.450
 9084POPC   C2B59804  41.824  12.114   6.750
 9084POPC   C3B59805  41.830  12.173   7.050
 9084POPC   C4B59806  41.849  12.166   7.350
 9085POPC   NC359807  29.873  34.546   5.550
 9085POPC   PO459808  29.889  34.572   5.850
 9085POPC   GL159809  29.878  34.572   6.150
 9085POPC   GL259810  29.905  34.410   6.150
 9085POPC   C1A59811  29.924  34.584   6.450
 9085POPC   D2A59812  29.931  34.544   6.750
 9085POPC   C3A59813  29.913  34.573   7.050
 9085POPC   C4A59814  29.944  34.626   7.350
 9085POPC   C1B59815  29.926  34.344   6.450
 9085POPC   C2B59816  29.941  34.278   6.750
 9085POPC   C3B59817  29.888  34.330   7.050
 9085POPC   C4B59818  29.881  34.326   7.350
 9086POPC   NC359819  15.958   4.299   5.550
 9086POPC   PO459820  15.995   4.304   5.850
 9086POPC   GL159821  15.942   4.358   6.150
 9086POPC   GL259822  15.868   4.194   6.150
 9086POPC   C1A59823  15.941   4.335   6.450
 9086POPC   D2A59824  15.962   4.365   6.750
 9086POPC   C3A59825  15.991   4.288   7.050
 9086POPC   C4A59826  15.941   4.309   7.350
 9086POPC   C1B59827  15.787   4.149   6.450
 9086POPC   C2B59828  15.802   4.117   6.750
 9086POPC   C3B59829  15.811   4.069   7.050
 9086POPC   C4B59830  15.815   4.150   7.350
 9087POPC   NC359831  16.691   2.718   5.550
 9087POPC   PO459832  16.731   2.737   5.850
 9087POPC   GL159833  16.775   2.750   6.150
 9087POPC   GL259834  16.628   2.802   6.150
 9087POPC   C1A59835  16.747   2.725   6.450
 9087POPC   D2A59836  16.770   2.777   6.750
 9087POPC   C3A59837  16.690   2.781   7.050
 9087POPC   C4A59838  16.777   2.727   7.350
 9087POPC   C1B59839  16.472   2.878   6.450
 9087POPC   C2B59840  16.545   2.848   6.750
 9087POPC   C3B59841  16.455   2.814   7.050
 9087POPC   C4B59842  16.473   2.861   7.350
 9088POPC   NC359843  32.245  13.637   5.550
 9088POPC   PO459844  32.271  13.674   5.850
 9088POPC   GL159845  32.243  13.645   6.150
 9088POPC   GL259846  32.238  13.521   6.150
 9088POPC   C1A59847  32.206  13.590   6.450
 9088POPC   D2A59848  32.199  13.615   6.750
 9088POPC   C3A59849  32.273  13.648   7.050
 9088POPC   C4A59850  32.213  13.622   7.350
 9088POPC   C1B59851  32.306  13.370   6.450
 9088POPC   C2B59852  32.235  13.336   6.750
 9088POPC   C3B59853  32.226  13.356   7.050
 9088POPC   C4B59854  32.231  13.412   7.350
 9089POPC   NC359855  25.305  38.431   5.550
 9089POPC   PO459856  25.307  38.423   5.850
 9089POPC   GL159857  25.237  38.407   6.150
 9089POPC   GL259858  25.349  38.589   6.150
 9089POPC   C1A59859  25.269  38.448   6.450
 9089POPC   D2A59860  25.230  38.464   6.750
 9089POPC   C3A59861  25.268  38.471   7.050
 9089POPC   C4A59862  25.301  38.473   7.350
 9089POPC   C1B59863  25.366  38.644   6.450
 9089POPC   C2B59864  25.316  38.668   6.750
 9089POPC   C3B59865  25.300  38.742   7.050
 9089POPC   C4B59866  25.374  38.733   7.350
 9090POPC   NC359867  31.429   9.737   5.550
 9090POPC   PO459868  31.423   9.725   5.850
 9090POPC   GL159869  31.434   9.713   6.150
 9090POPC   GL259870  31.571   9.759   6.150
 9090POPC   C1A59871  31.438   9.711   6.450
 9090POPC   D2A59872  31.507   9.735   6.750
 9090POPC   C3A59873  31.472   9.751   7.050
 9090POPC   C4A59874  31.463   9.735   7.350
 9090POPC   C1B59875  31.772   9.718   6.450
 9090POPC   C2B59876  31.684   9.761   6.750
 9090POPC   C3B59877  31.772   9.699   7.050
 9090POPC   C4B59878  31.768   9.751   7.350
 9091POPC   NC359879  12.110  39.980   5.550
 9091POPC   PO459880  12.066  40.024   5.850
 9091POPC   GL159881  12.090  40.009   6.150
 9091POPC   GL259882  12.065  39.863   6.150
 9091POPC   C1A59883  12.061  40.025   6.450
 9091POPC   D2A59884  12.053  39.983   6.750
 9091POPC   C3A59885  12.088  40.037   7.050
 9091POPC   C4A59886  12.063  39.992   7.350
 9091POPC   C1B59887  12.006  39.809   6.450
 9091POPC   C2B59888  12.008  39.807   6.750
 9091POPC   C3B59889  11.984  39.800   7.050
 9091POPC   C4B59890  11.949  39.826   7.350
 9092POPC   NC359891  24.494  14.445   5.550
 9092POPC   PO459892  24.454  14.453   5.850
 9092POPC   GL159893  24.468  14.394   6.150
 9092POPC   GL259894  24.580  14.290   6.150
 9092POPC   C1A59895  24.514  14.419   6.450
 9092POPC   D2A59896  24.466  14.392   6.750
 9092POPC   C3A59897  24.521  14.413   7.050
 9092POPC   C4A59898  24.521  14.356   7.350
 9092POPC   C1B59899  24.606  14.215   6.450
 9092POPC   C2B59900  24.589  14.164   6.750
 9092POPC   C3B59901  24.615  14.192   7.050
 9092POPC   C4B59902  24.582  14.149   7.350
 9093POPC   NC359903  22.896  26.858   5.550
 9093POPC   PO459904  22.944  26.822   5.850
 9093POPC   GL159905  22.964  26.796   6.150
 9093POPC   GL259906  22.799  26.788   6.150
 9093POPC   C1A59907  22.934  26.783   6.450
 9093POPC   D2A59908  22.953  26.844   6.750
 9093POPC   C3A59909  22.951  26.831   7.050
 9093POPC   C4A59910  22.936  26.783   7.350
 9093POPC   C1B59911  22.681  26.752   6.450
 9093POPC   C2B59912  22.736  26.816   6.750
 9093POPC   C3B59913  22.672  26.759   7.050
 9093POPC   C4B59914  22.736  26.792   7.350
 9094POPC   NC359915  22.151  43.858   5.550
 9094POPC   PO459916  22.181  43.928   5.850
 9094POPC   GL159917  22.206  43.927   6.150
 9094POPC   GL259918  22.271  43.931   6.150
 9094POPC   C1A59919  22.193  43.891   6.450
 9094POPC   D2A59920  22.188  43.863   6.750
 9094POPC   C3A59921  22.184  43.919   7.050
 9094POPC   C4A59922  22.186  43.917   7.350
 9094POPC   C1B59923  22.350  44.040   6.450
 9094POPC   C2B59924  22.400  44.094   6.750
 9094POPC   C3B59925  22.393  44.088   7.050
 9094POPC   C4B59926  22.397  44.001   7.350
 9095POPC   NC359927   8.234  30.711   5.550
 9095POPC   PO459928   8.222  30.678   5.850
 9095POPC   GL159929   8.241  30.725   6.150
 9095POPC   GL259930   8.315  30.570   6.150
 9095POPC   C1A59931   8.159  30.672   6.450
 9095POPC   D2A59932   8.222  30.691   6.750
 9095POPC   C3A59933   8.202  30.654   7.050
 9095POPC   C4A59934   8.245  30.721   7.350
 9095POPC   C1B59935   8.378  30.461   6.450
 9095POPC   C2B59936   8.323  30.457   6.750
 9095POPC   C3B59937   8.366  30.527   7.050
 9095POPC   C4B59938   8.342  30.477   7.350
 9096POPC   NC359939  30.649   0.483   5.550
 9096POPC   PO459940  30.743   0.440   5.850
 9096POPC   GL159941  30.732   0.459   6.150
 9096POPC   GL259942  30.703   0.305   6.150
 9096POPC   C1A59943  30.706   0.424   6.450
 9096POPC   D2A59944  30.726   0.437   6.750
 9096POPC   C3A59945  30.742   0.450   7.050
 9096POPC   C4A59946  30.661   0.441   7.350
 9096POPC   C1B59947  30.675   0.217   6.450
 9096POPC   C2B59948  30.651   0.231   6.750
 9096POPC   C3B59949  30.610   0.193   7.050
 9096POPC   C4B59950  30.604   0.231   7.350
 9097POPC   NC359951  29.900   0.486   5.550
 9097POPC   PO459952  29.898   0.458   5.850
 9097POPC   GL159953  29.967   0.461   6.150
 9097POPC   GL259954  29.891   0.333   6.150
 9097POPC   C1A59955  29.882   0.393   6.450
 9097POPC   D2A59956  29.956   0.484   6.750
 9097POPC   C3A59957  29.957   0.438   7.050
 9097POPC   C4A59958  29.926   0.461   7.350
 9097POPC   C1B59959  29.757   0.229   6.450
 9097POPC   C2B59960  29.769   0.215   6.750
 9097POPC   C3B59961  29.776   0.217   7.050
 9097POPC   C4B59962  29.786   0.202   7.350
 9098POPC   NC359963  43.898  41.565   5.550
 9098POPC   PO459964  43.887  41.527   5.850
 9098POPC   GL159965  43.930  41.512   6.150
 9098POPC   GL259966  44.057  41.556   6.150
 9098POPC   C1A59967  43.874  41.602   6.450
 9098POPC   D2A59968  43.930  41.607   6.750
 9098POPC   C3A59969  43.839  41.566   7.050
 9098POPC   C4A59970  43.859  41.605   7.350
 9098POPC   C1B59971  44.176  41.573   6.450
 9098POPC   C2B59972  44.178  41.595   6.750
 9098POPC   C3B59973  44.155  41.509   7.050
 9098POPC   C4B59974  44.161  41.555   7.350
 9099POPC   NC359975  15.228  13.666   5.550
 9099POPC   PO459976  15.163  13.617   5.850
 9099POPC   GL159977  15.144  13.630   6.150
 9099POPC   GL259978  15.121  13.507   6.150
 9099POPC   C1A59979  15.190  13.611   6.450
 9099POPC   D2A59980  15.228  13.663   6.750
 9099POPC   C3A59981  15.163  13.666   7.050
 9099POPC   C4A59982  15.210  13.655   7.350
 9099POPC   C1B59983  15.010  13.447   6.450
 9099POPC   C2B59984  15.018  13.466   6.750
 9099POPC   C3B59985  15.071  13.449   7.050
 9099POPC   C4B59986  15.052  13.398   7.350
 9100POPC   NC359987  15.966  30.672   5.550
 9100POPC   PO459988  15.996  30.664   5.850
 9100POPC   GL159989  15.958  30.691   6.150
 9100POPC   GL259990  15.943  30.538   6.150
 9100POPC   C1A59991  15.946  30.675   6.450
 9100POPC   D2A59992  15.980  30.680   6.750
 9100POPC   C3A59993  15.909  30.741   7.050
 9100POPC   C4A59994  15.977  30.735   7.350
 9100POPC   C1B59995  16.006  30.409   6.450
 9100POPC   C2B59996  16.014  30.443   6.750
 9100POPC   C3B59997  16.022  30.450   7.050
 9100POPC   C4B59998  16.027  30.487   7.350
 9101POPC   NC359999  36.930  12.887   5.550
 9101POPC   PO460000  36.943  12.897   5.850
 9101POPC   GL160001  36.858  12.839   6.150
 9101POPC   GL260002  36.882  12.963   6.150
 9101POPC   C1A60003  36.857  12.849   6.450
 9101POPC   D2A60004  36.874  12.880   6.750
 9101POPC   C3A60005  36.880  12.898   7.050
 9101POPC   C4A60006  36.901  12.828   7.350
 9101POPC   C1B60007  36.757  13.097   6.450
 9101POPC   C2B60008  36.814  13.033   6.750
 9101POPC   C3B60009  36.814  13.061   7.050
 9101POPC   C4B60010  36.804  13.081   7.350
 9102POPC   NC360011   7.460  36.121   5.550
 9102POPC   PO460012   7.399  36.155   5.850
 9102POPC   GL160013   7.442  36.134   6.150
 9102POPC   GL260014   7.328  36.093   6.150
 9102POPC   C1A60015   7.414  36.102   6.450
 9102POPC   D2A60016   7.396  36.094   6.750
 9102POPC   C3A60017   7.457  36.110   7.050
 9102POPC   C4A60018   7.438  36.167   7.350
 9102POPC   C1B60019   7.240  35.936   6.450
 9102POPC   C2B60020   7.266  35.921   6.750
 9102POPC   C3B60021   7.186  35.984   7.050
 9102POPC   C4B60022   7.272  35.999   7.350
 9103POPC   NC360023   6.677  29.096   5.550
 9103POPC   PO460024   6.629  29.115   5.850
 9103POPC   GL160025   6.617  29.115   6.150
 9103POPC   GL260026   6.674  29.020   6.150
 9103POPC   C1A60027   6.638  29.129   6.450
 9103POPC   D2A60028   6.631  29.109   6.750
 9103POPC   C3A60029   6.638  29.193   7.050
 9103POPC   C4A60030   6.630  29.140   7.350
 9103POPC   C1B60031   6.740  28.896   6.450
 9103POPC   C2B60032   6.816  28.974   6.750
 9103POPC   C3B60033   6.770  28.940   7.050
 9103POPC   C4B60034   6.809  28.903   7.350
 9104POPC   NC360035  44.636  31.453   5.550
 9104POPC   PO460036  44.626  31.511   5.850
 9104POPC   GL160037  44.612  31.509   6.150
 9104POPC   GL260038  44.728  31.317   6.150
 9104POPC   C1A60039  44.692  31.427   6.450
 9104POPC   D2A60040  44.637  31.496   6.750
 9104POPC   C3A60041  44.706  31.434   7.050
 9104POPC   C4A60042  44.648  31.512   7.350
 9104POPC   C1B60043  44.739  31.238   6.450
 9104POPC   C2B60044  44.760  31.226   6.750
 9104POPC   C3B60045  44.736  31.213   7.050
 9104POPC   C4B60046  44.782  31.242   7.350
 9105POPC   NC360047   9.750   7.457   5.550
 9105POPC   PO460048   9.702   7.433   5.850
 9105POPC   GL160049   9.735   7.424   6.150
 9105POPC   GL260050   9.651   7.331   6.150
 9105POPC   C1A60051   9.766   7.428   6.450
 9105POPC   D2A60052   9.791   7.425   6.750
 9105POPC   C3A60053   9.765   7.431   7.050
 9105POPC   C4A60054   9.722   7.412   7.350
 9105POPC   C1B60055   9.661   7.191   6.450
 9105POPC   C2B60056   9.618   7.190   6.750
 9105POPC   C3B60057   9.659   7.172   7.050
 9105POPC   C4B60058   9.609   7.197   7.350
 9106POPC   NC360059  19.069   5.099   5.550
 9106POPC   PO460060  19.089   5.122   5.850
 9106POPC   GL160061  19.079   5.082   6.150
 9106POPC   GL260062  19.160   5.106   6.150
 9106POPC   C1A60063  19.079   5.051   6.450
 9106POPC   D2A60064  19.040   5.061   6.750
 9106POPC   C3A60065  19.101   5.098   7.050
 9106POPC   C4A60066  19.093   5.096   7.350
 9106POPC   C1B60067  19.342   5.050   6.450
 9106POPC   C2B60068  19.299   5.049   6.750
 9106POPC   C3B60069  19.348   5.054   7.050
 9106POPC   C4B60070  19.335   5.079   7.350
 9107POPC   NC360071  14.365  21.368   5.550
 9107POPC   PO460072  14.370  21.392   5.850
 9107POPC   GL160073  14.364  21.430   6.150
 9107POPC   GL260074  14.475  21.520   6.150
 9107POPC   C1A60075  14.441  21.363   6.450
 9107POPC   D2A60076  14.442  21.379   6.750
 9107POPC   C3A60077  14.385  21.401   7.050
 9107POPC   C4A60078  14.377  21.422   7.350
 9107POPC   C1B60079  14.439  21.637   6.450
 9107POPC   C2B60080  14.505  21.579   6.750
 9107POPC   C3B60081  14.453  21.582   7.050
 9107POPC   C4B60082  14.511  21.588   7.350
 9108POPC   NC360083  21.356  30.699   5.550
 9108POPC   PO460084  21.425  30.681   5.850
 9108POPC   GL160085  21.382  30.730   6.150
 9108POPC   GL260086  21.372  30.792   6.150
 9108POPC   C1A60087  21.353  30.686   6.450
 9108POPC   D2A60088  21.425  30.746   6.750
 9108POPC   C3A60089  21.419  30.709   7.050
 9108POPC   C4A60090  21.345  30.724   7.350
 9108POPC   C1B60091  21.401  30.928   6.450
 9108POPC   C2B60092  21.393  30.913   6.750
 9108POPC   C3B60093  21.469  30.985   7.050
 9108POPC   C4B60094  21.410  30.928   7.350
 9109POPC   NC360095  14.404  13.594   5.550
 9109POPC   PO460096  14.411  13.594   5.850
 9109POPC   GL160097  14.449  13.602   6.150
 9109POPC   GL260098  14.248  13.683   6.150
 9109POPC   C1A60099  14.406  13.602   6.450
 9109POPC   D2A60100  14.364  13.647   6.750
 9109POPC   C3A60101  14.395  13.611   7.050
 9109POPC   C4A60102  14.382  13.578   7.350
 9109POPC   C1B60103  14.132  13.645   6.450
 9109POPC   C2B60104  14.170  13.673   6.750
 9109POPC   C3B60105  14.136  13.674   7.050
 9109POPC   C4B60106  14.170  13.625   7.350
 9110POPC   NC360107  28.404  31.492   5.550
 9110POPC   PO460108  28.338  31.477   5.850
 9110POPC   GL160109  28.321  31.473   6.150
 9110POPC   GL260110  28.238  31.428   6.150
 9110POPC   C1A60111  28.415  31.483   6.450
 9110POPC   D2A60112  28.364  31.440   6.750
 9110POPC   C3A60113  28.409  31.490   7.050
 9110POPC   C4A60114  28.359  31.439   7.350
 9110POPC   C1B60115  28.137  31.476   6.450
 9110POPC   C2B60116  28.171  31.482   6.750
 9110POPC   C3B60117  28.086  31.476   7.050
 9110POPC   C4B60118  28.100  31.427   7.350
 9111POPC   NC360119  32.256  14.413   5.550
 9111POPC   PO460120  32.237  14.396   5.850
 9111POPC   GL160121  32.268  14.400   6.150
 9111POPC   GL260122  32.328  14.269   6.150
 9111POPC   C1A60123  32.237  14.440   6.450
 9111POPC   D2A60124  32.231  14.453   6.750
 9111POPC   C3A60125  32.232  14.438   7.050
 9111POPC   C4A60126  32.258  14.386   7.350
 9111POPC   C1B60127  32.379  14.237   6.450
 9111POPC   C2B60128  32.384  14.232   6.750
 9111POPC   C3B60129  32.425  14.180   7.050
 9111POPC   C4B60130  32.429  14.170   7.350
 9112POPC   NC360131  29.957  36.087   5.550
 9112POPC   PO460132  29.897  36.108   5.850
 9112POPC   GL160133  29.927  36.112   6.150
 9112POPC   GL260134  29.889  36.278   6.150
 9112POPC   C1A60135  29.934  36.140   6.450
 9112POPC   D2A60136  29.919  36.152   6.750
 9112POPC   C3A60137  29.883  36.114   7.050
 9112POPC   C4A60138  29.922  36.086   7.350
 9112POPC   C1B60139  29.890  36.394   6.450
 9112POPC   C2B60140  29.837  36.356   6.750
 9112POPC   C3B60141  29.869  36.389   7.050
 9112POPC   C4B60142  29.835  36.378   7.350
 9113POPC   NC360143   8.964  28.360   5.550
 9113POPC   PO460144   8.935  28.351   5.850
 9113POPC   GL160145   8.932  28.369   6.150
 9113POPC   GL260146   9.001  28.244   6.150
 9113POPC   C1A60147   9.004  28.341   6.450
 9113POPC   D2A60148   9.013  28.372   6.750
 9113POPC   C3A60149   8.941  28.418   7.050
 9113POPC   C4A60150   8.984  28.416   7.350
 9113POPC   C1B60151   9.041  28.184   6.450
 9113POPC   C2B60152   9.062  28.193   6.750
 9113POPC   C3B60153   9.103  28.189   7.050
 9113POPC   C4B60154   9.068  28.152   7.350
 9114POPC   NC360155  35.355  19.079   5.550
 9114POPC   PO460156  35.358  19.041   5.850
 9114POPC   GL160157  35.307  19.018   6.150
 9114POPC   GL260158  35.332  19.158   6.150
 9114POPC   C1A60159  35.339  19.028   6.450
 9114POPC   D2A60160  35.336  19.081   6.750
 9114POPC   C3A60161  35.378  19.011   7.050
 9114POPC   C4A60162  35.314  19.039   7.350
 9114POPC   C1B60163  35.314  19.290   6.450
 9114POPC   C2B60164  35.346  19.315   6.750
 9114POPC   C3B60165  35.334  19.297   7.050
 9114POPC   C4B60166  35.352  19.342   7.350
 9115POPC   NC360167  40.009  10.548   5.550
 9115POPC   PO460168  39.998  10.520   5.850
 9115POPC   GL160169  39.985  10.477   6.150
 9115POPC   GL260170  40.073  10.460   6.150
 9115POPC   C1A60171  40.019  10.501   6.450
 9115POPC   D2A60172  39.964  10.545   6.750
 9115POPC   C3A60173  40.006  10.509   7.050
 9115POPC   C4A60174  39.957  10.510   7.350
 9115POPC   C1B60175  40.237  10.351   6.450
 9115POPC   C2B60176  40.193  10.392   6.750
 9115POPC   C3B60177  40.176  10.338   7.050
 9115POPC   C4B60178  40.232  10.393   7.350
 9116POPC   NC360179  12.030  34.558   5.550
 9116POPC   PO460180  12.046  34.574   5.850
 9116POPC   GL160181  12.067  34.598   6.150
 9116POPC   GL260182  12.223  34.568   6.150
 9116POPC   C1A60183  12.118  34.580   6.450
 9116POPC   D2A60184  12.094  34.532   6.750
 9116POPC   C3A60185  12.114  34.539   7.050
 9116POPC   C4A60186  12.034  34.559   7.350
 9116POPC   C1B60187  12.303  34.566   6.450
 9116POPC   C2B60188  12.289  34.551   6.750
 9116POPC   C3B60189  12.330  34.618   7.050
 9116POPC   C4B60190  12.362  34.637   7.350
 9117POPC   NC360191  39.201  40.042   5.550
 9117POPC   PO460192  39.279  39.988   5.850
 9117POPC   GL160193  39.244  39.962   6.150
 9117POPC   GL260194  39.290  39.993   6.150
 9117POPC   C1A60195  39.224  40.037   6.450
 9117POPC   D2A60196  39.279  39.995   6.750
 9117POPC   C3A60197  39.249  40.004   7.050
 9117POPC   C4A60198  39.247  40.009   7.350
 9117POPC   C1B60199  39.418  39.884   6.450
 9117POPC   C2B60200  39.482  39.899   6.750
 9117POPC   C3B60201  39.448  39.905   7.050
 9117POPC   C4B60202  39.456  39.898   7.350
 9118POPC   NC360203   6.609  41.541   5.550
 9118POPC   PO460204   6.672  41.556   5.850
 9118POPC   GL160205   6.693  41.592   6.150
 9118POPC   GL260206   6.591  41.636   6.150
 9118POPC   C1A60207   6.686  41.595   6.450
 9118POPC   D2A60208   6.692  41.572   6.750
 9118POPC   C3A60209   6.692  41.526   7.050
 9118POPC   C4A60210   6.615  41.554   7.350
 9118POPC   C1B60211   6.546  41.786   6.450
 9118POPC   C2B60212   6.632  41.815   6.750
 9118POPC   C3B60213   6.574  41.754   7.050
 9118POPC   C4B60214   6.588  41.787   7.350
 9119POPC   NC360215  36.138  10.501   5.550
 9119POPC   PO460216  36.159  10.565   5.850
 9119POPC   GL160217  36.120  10.564   6.150
 9119POPC   GL260218  36.040  10.540   6.150
 9119POPC   C1A60219  36.104  10.523   6.450
 9119POPC   D2A60220  36.161  10.494   6.750
 9119POPC   C3A60221  36.151  10.484   7.050
 9119POPC   C4A60222  36.152  10.511   7.350
 9119POPC   C1B60223  35.923  10.611   6.450
 9119POPC   C2B60224  35.918  10.551   6.750
 9119POPC   C3B60225  35.914  10.616   7.050
 9119POPC   C4B60226  35.901  10.569   7.350
 9120POPC   NC360227  29.933  21.390   5.550
 9120POPC   PO460228  29.877  21.392   5.850
 9120POPC   GL160229  29.940  21.376   6.150
 9120POPC   GL260230  29.799  21.416   6.150
 9120POPC   C1A60231  29.881  21.389   6.450
 9120POPC   D2A60232  29.902  21.402   6.750
 9120POPC   C3A60233  29.890  21.337   7.050
 9120POPC   C4A60234  29.960  21.386   7.350
 9120POPC   C1B60235  29.718  21.504   6.450
 9120POPC   C2B60236  29.685  21.503   6.750
 9120POPC   C3B60237  29.724  21.459   7.050
 9120POPC   C4B60238  29.698  21.464   7.350
 9121POPC   NC360239  36.869  31.484   5.550
 9121POPC   PO460240  36.884  31.518   5.850
 9121POPC   GL160241  36.880  31.513   6.150
 9121POPC   GL260242  37.040  31.482   6.150
 9121POPC   C1A60243  36.938  31.432   6.450
 9121POPC   D2A60244  36.943  31.439   6.750
 9121POPC   C3A60245  36.900  31.450   7.050
 9121POPC   C4A60246  36.946  31.432   7.350
 9121POPC   C1B60247  37.153  31.540   6.450
 9121POPC   C2B60248  37.113  31.521   6.750
 9121POPC   C3B60249  37.119  31.499   7.050
 9121POPC   C4B60250  37.150  31.495   7.350
 9122POPC   NC360251  33.035  37.659   5.550
 9122POPC   PO460252  33.012  37.711   5.850
 9122POPC   GL160253  33.048  37.702   6.150
 9122POPC   GL260254  32.860  37.606   6.150
 9122POPC   C1A60255  33.043  37.697   6.450
 9122POPC   D2A60256  33.073  37.634   6.750
 9122POPC   C3A60257  33.070  37.682   7.050
 9122POPC   C4A60258  33.035  37.720   7.350
 9122POPC   C1B60259  32.792  37.575   6.450
 9122POPC   C2B60260  32.774  37.610   6.750
 9122POPC   C3B60261  32.787  37.596   7.050
 9122POPC   C4B60262  32.746  37.626   7.350
 9123POPC   NC360263  22.899   1.999   5.550
 9123POPC   PO460264  22.911   2.028   5.850
 9123POPC   GL160265  22.921   2.027   6.150
 9123POPC   GL260266  22.819   2.109   6.150
 9123POPC   C1A60267  22.958   1.966   6.450
 9123POPC   D2A60268  22.914   2.016   6.750
 9123POPC   C3A60269  22.911   1.955   7.050
 9123POPC   C4A60270  22.967   2.027   7.350
 9123POPC   C1B60271  22.822   2.188   6.450
 9123POPC   C2B60272  22.765   2.190   6.750
 9123POPC   C3B60273  22.798   2.155   7.050
 9123POPC   C4B60274  22.815   2.136   7.350
 9124POPC   NC360275   2.759   5.828   5.550
 9124POPC   PO460276   2.732   5.836   5.850
 9124POPC   GL160277   2.726   5.849   6.150
 9124POPC   GL260278   2.741   5.783   6.150
 9124POPC   C1A60279   2.785   5.823   6.450
 9124POPC   D2A60280   2.771   5.914   6.750
 9124POPC   C3A60281   2.766   5.875   7.050
 9124POPC   C4A60282   2.783   5.915   7.350
 9124POPC   C1B60283   2.789   5.584   6.450
 9124POPC   C2B60284   2.844   5.606   6.750
 9124POPC   C3B60285   2.845   5.669   7.050
 9124POPC   C4B60286   2.816   5.665   7.350
 9125POPC   NC360287  20.651  20.632   5.550
 9125POPC   PO460288  20.621  20.591   5.850
 9125POPC   GL160289  20.621  20.608   6.150
 9125POPC   GL260290  20.714  20.530   6.150
 9125POPC   C1A60291  20.593  20.578   6.450
 9125POPC   D2A60292  20.600  20.653   6.750
 9125POPC   C3A60293  20.561  20.635   7.050
 9125POPC   C4A60294  20.629  20.576   7.350
 9125POPC   C1B60295  20.766  20.375   6.450
 9125POPC   C2B60296  20.788  20.427   6.750
 9125POPC   C3B60297  20.795  20.385   7.050
 9125POPC   C4B60298  20.715  20.401   7.350
 9126POPC   NC360299  19.076  12.060   5.550
 9126POPC   PO460300  19.079  12.084   5.850
 9126POPC   GL160301  19.026  12.103   6.150
 9126POPC   GL260302  18.997  12.021   6.150
 9126POPC   C1A60303  19.010  12.104   6.450
 9126POPC   D2A60304  19.033  12.048   6.750
 9126POPC   C3A60305  19.009  12.046   7.050
 9126POPC   C4A60306  19.025  12.036   7.350
 9126POPC   C1B60307  18.851  11.973   6.450
 9126POPC   C2B60308  18.892  11.967   6.750
 9126POPC   C3B60309  18.855  11.920   7.050
 9126POPC   C4B60310  18.867  11.957   7.350
 9127POPC   NC360311   1.253   4.334   5.550
 9127POPC   PO460312   1.238   4.287   5.850
 9127POPC   GL160313   1.171   4.366   6.150
 9127POPC   GL260314   1.258   4.409   6.150
 9127POPC   C1A60315   1.209   4.318   6.450
 9127POPC   D2A60316   1.174   4.279   6.750
 9127POPC   C3A60317   1.210   4.352   7.050
 9127POPC   C4A60318   1.177   4.291   7.350
 9127POPC   C1B60319   1.347   4.472   6.450
 9127POPC   C2B60320   1.389   4.517   6.750
 9127POPC   C3B60321   1.338   4.495   7.050
 9127POPC   C4B60322   1.378   4.562   7.350
 9128POPC   NC360323   1.166  42.361   5.550
 9128POPC   PO460324   1.197  42.337   5.850
 9128POPC   GL160325   1.209  42.382   6.150
 9128POPC   GL260326   1.250  42.483   6.150
 9128POPC   C1A60327   1.251  42.314   6.450
 9128POPC   D2A60328   1.195  42.309   6.750
 9128POPC   C3A60329   1.177  42.290   7.050
 9128POPC   C4A60330   1.240  42.326   7.350
 9128POPC   C1B60331   1.210  42.578   6.450
 9128POPC   C2B60332   1.223  42.612   6.750
 9128POPC   C3B60333   1.221  42.575   7.050
 9128POPC   C4B60334   1.217  42.577   7.350
 9129POPC   NC360335   3.492  29.108   5.550
 9129POPC   PO460336   3.566  29.116   5.850
 9129POPC   GL160337   3.535  29.099   6.150
 9129POPC   GL260338   3.520  29.311   6.150
 9129POPC   C1A60339   3.553  29.191   6.450
 9129POPC   D2A60340   3.551  29.150   6.750
 9129POPC   C3A60341   3.532  29.134   7.050
 9129POPC   C4A60342   3.551  29.195   7.350
 9129POPC   C1B60343   3.495  29.440   6.450
 9129POPC   C2B60344   3.571  29.427   6.750
 9129POPC   C3B60345   3.481  29.352   7.050
 9129POPC   C4B60346   3.521  29.401   7.350
 9130POPC   NC360347  22.117  27.626   5.550
 9130POPC   PO460348  22.121  27.594   5.850
 9130POPC   GL160349  22.142  27.566   6.150
 9130POPC   GL260350  22.048  27.628   6.150
 9130POPC   C1A60351  22.159  27.565   6.450
 9130POPC   D2A60352  22.207  27.578   6.750
 9130POPC   C3A60353  22.153  27.559   7.050
 9130POPC   C4A60354  22.120  27.578   7.350
 9130POPC   C1B60355  21.909  27.771   6.450
 9130POPC   C2B60356  21.943  27.753   6.750
 9130POPC   C3B60357  22.004  27.702   7.050
 9130POPC   C4B60358  21.975  27.734   7.350
 9131POPC   NC360359  11.259  19.827   5.550
 9131POPC   PO460360  11.292  19.855   5.850
 9131POPC   GL160361  11.331  19.792   6.150
 9131POPC   GL260362  11.182  19.802   6.150
 9131POPC   C1A60363  11.311  19.845   6.450
 9131POPC   D2A60364  11.321  19.826   6.750
 9131POPC   C3A60365  11.285  19.844   7.050
 9131POPC   C4A60366  11.260  19.798   7.350
 9131POPC   C1B60367  11.026  19.846   6.450
 9131POPC   C2B60368  11.042  19.855   6.750
 9131POPC   C3B60369  11.065  19.802   7.050
 9131POPC   C4B60370  11.025  19.825   7.350
 9132POPC   NC360371  23.716   5.918   5.550
 9132POPC   PO460372  23.715   5.902   5.850
 9132POPC   GL160373  23.680   5.828   6.150
 9132POPC   GL260374  23.556   5.885   6.150
 9132POPC   C1A60375  23.743   5.879   6.450
 9132POPC   D2A60376  23.757   5.819   6.750
 9132POPC   C3A60377  23.743   5.833   7.050
 9132POPC   C4A60378  23.701   5.887   7.350
 9132POPC   C1B60379  23.494   5.924   6.450
 9132POPC   C2B60380  23.518   5.929   6.750
 9132POPC   C3B60381  23.513   5.934   7.050
 9132POPC   C4B60382  23.465   5.998   7.350
 9133POPC   NC360383  11.269   9.724   5.550
 9133POPC   PO460384  11.347   9.788   5.850
 9133POPC   GL160385  11.310   9.732   6.150
 9133POPC   GL260386  11.375   9.842   6.150
 9133POPC   C1A60387  11.281   9.761   6.450
 9133POPC   D2A60388  11.312   9.783   6.750
 9133POPC   C3A60389  11.348   9.717   7.050
 9133POPC   C4A60390  11.251   9.792   7.350
 9133POPC   C1B60391  11.473   9.906   6.450
 9133POPC   C2B60392  11.521   9.875   6.750
 9133POPC   C3B60393  11.475   9.937   7.050
 9133POPC   C4B60394  11.503   9.872   7.350
 9134POPC   NC360395  32.261   5.832   5.550
 9134POPC   PO460396  32.287   5.849   5.850
 9134POPC   GL160397  32.243   5.888   6.150
 9134POPC   GL260398  32.393   5.815   6.150
 9134POPC   C1A60399  32.281   5.853   6.450
 9134POPC   D2A60400  32.267   5.822   6.750
 9134POPC   C3A60401  32.227   5.900   7.050
 9134POPC   C4A60402  32.248   5.894   7.350
 9134POPC   C1B60403  32.512   5.747   6.450
 9134POPC   C2B60404  32.485   5.819   6.750
 9134POPC   C3B60405  32.451   5.811   7.050
 9134POPC   C4B60406  32.531   5.843   7.350
 9135POPC   NC360407  27.576   6.690   5.550
 9135POPC   PO460408  27.570   6.623   5.850
 9135POPC   GL160409  27.545   6.680   6.150
 9135POPC   GL260410  27.555   6.499   6.150
 9135POPC   C1A60411  27.578   6.671   6.450
 9135POPC   D2A60412  27.546   6.618   6.750
 9135POPC   C3A60413  27.606   6.652   7.050
 9135POPC   C4A60414  27.583   6.609   7.350
 9135POPC   C1B60415  27.476   6.408   6.450
 9135POPC   C2B60416  27.488   6.448   6.750
 9135POPC   C3B60417  27.444   6.438   7.050
 9135POPC   C4B60418  27.505   6.387   7.350
 9136POPC   NC360419  40.046   8.935   5.550
 9136POPC   PO460420  40.029   8.981   5.850
 9136POPC   GL160421  40.001   8.997   6.150
 9136POPC   GL260422  40.069   9.036   6.150
 9136POPC   C1A60423  39.995   9.014   6.450
 9136POPC   D2A60424  40.025   8.989   6.750
 9136POPC   C3A60425  40.036   8.995   7.050
 9136POPC   C4A60426  40.023   8.974   7.350
 9136POPC   C1B60427  40.120   9.170   6.450
 9136POPC   C2B60428  40.136   9.235   6.750
 9136POPC   C3B60429  40.095   9.167   7.050
 9136POPC   C4B60430  40.124   9.184   7.350
 9137POPC   NC360431  42.382  42.303   5.550
 9137POPC   PO460432  42.378  42.293   5.850
 9137POPC   GL160433  42.347  42.338   6.150
 9137POPC   GL260434  42.249  42.277   6.150
 9137POPC   C1A60435  42.355  42.358   6.450
 9137POPC   D2A60436  42.309  42.304   6.750
 9137POPC   C3A60437  42.327  42.352   7.050
 9137POPC   C4A60438  42.379  42.292   7.350
 9137POPC   C1B60439  42.094  42.199   6.450
 9137POPC   C2B60440  42.132  42.260   6.750
 9137POPC   C3B60441  42.114  42.242   7.050
 9137POPC   C4B60442  42.054  42.236   7.350
 9138POPC   NC360443  26.087  18.274   5.550
 9138POPC   PO460444  26.014  18.245   5.850
 9138POPC   GL160445  26.009  18.298   6.150
 9138POPC   GL260446  25.940  18.285   6.150
 9138POPC   C1A60447  26.075  18.269   6.450
 9138POPC   D2A60448  26.084  18.256   6.750
 9138POPC   C3A60449  26.064  18.295   7.050
 9138POPC   C4A60450  25.994  18.237   7.350
 9138POPC   C1B60451  25.837  18.225   6.450
 9138POPC   C2B60452  25.761  18.251   6.750
 9138POPC   C3B60453  25.817  18.210   7.050
 9138POPC   C4B60454  25.756  18.167   7.350
 9139POPC   NC360455  44.626  40.025   5.550
 9139POPC   PO460456  44.642  39.974   5.850
 9139POPC   GL160457  44.696  39.977   6.150
 9139POPC   GL260458  44.730  40.089   6.150
 9139POPC   C1A60459  44.673  39.979   6.450
 9139POPC   D2A60460  44.652  39.975   6.750
 9139POPC   C3A60461  44.645  40.029   7.050
 9139POPC   C4A60462  44.691  40.035   7.350
 9139POPC   C1B60463  44.802  40.189   6.450
 9139POPC   C2B60464  44.734  40.203   6.750
 9139POPC   C3B60465  44.828  40.188   7.050
 9139POPC   C4B60466  44.828  40.208   7.350
 9140POPC   NC360467  31.438  41.588   5.550
 9140POPC   PO460468  31.433  41.514   5.850
 9140POPC   GL160469  31.443  41.516   6.150
 9140POPC   GL260470  31.578  41.497   6.150
 9140POPC   C1A60471  31.462  41.550   6.450
 9140POPC   D2A60472  31.468  41.523   6.750
 9140POPC   C3A60473  31.462  41.563   7.050
 9140POPC   C4A60474  31.433  41.551   7.350
 9140POPC   C1B60475  31.657  41.416   6.450
 9140POPC   C2B60476  31.654  41.401   6.750
 9140POPC   C3B60477  31.668  41.384   7.050
 9140POPC   C4B60478  31.704  41.352   7.350
 9141POPC   NC360479   9.003  36.941   5.550
 9141POPC   PO460480   8.968  36.921   5.850
 9141POPC   GL160481   8.949  36.918   6.150
 9141POPC   GL260482   8.962  37.024   6.150
 9141POPC   C1A60483   9.004  36.882   6.450
 9141POPC   D2A60484   9.020  36.918   6.750
 9141POPC   C3A60485   8.958  36.944   7.050
 9141POPC   C4A60486   8.943  36.880   7.350
 9141POPC   C1B60487   8.900  37.171   6.450
 9141POPC   C2B60488   8.903  37.106   6.750
 9141POPC   C3B60489   8.906  37.170   7.050
 9141POPC   C4B60490   8.963  37.111   7.350
 9142POPC   NC360491  25.306  18.285   5.550
 9142POPC   PO460492  25.314  18.247   5.850
 9142POPC   GL160493  25.303  18.251   6.150
 9142POPC   GL260494  25.201  18.411   6.150
 9142POPC   C1A60495  25.263  18.244   6.450
 9142POPC   D2A60496  25.297  18.279   6.750
 9142POPC   C3A60497  25.300  18.297   7.050
 9142POPC   C4A60498  25.246  18.308   7.350
 9142POPC   C1B60499  25.180  18.538   6.450
 9142POPC   C2B60500  25.132  18.480   6.750
 9142POPC   C3B60501  25.156  18.529   7.050
 9142POPC   C4B60502  25.158  18.536   7.350
 9143POPC   NC360503   2.024  22.149   5.550
 9143POPC   PO460504   1.976  22.190   5.850
 9143POPC   GL160505   1.952  22.156   6.150
 9143POPC   GL260506   2.152  22.222   6.150
 9143POPC   C1A60507   1.951  22.151   6.450
 9143POPC   D2A60508   1.992  22.147   6.750
 9143POPC   C3A60509   1.954  22.122   7.050
 9143POPC   C4A60510   1.975  22.130   7.350
 9143POPC   C1B60511   2.225  22.261   6.450
 9143POPC   C2B60512   2.283  22.206   6.750
 9143POPC   C3B60513   2.193  22.193   7.050
 9143POPC   C4B60514   2.188  22.212   7.350
 9144POPC   NC360515  10.486  44.642   5.550
 9144POPC   PO460516  10.550  44.687   5.850
 9144POPC   GL160517  10.495  44.673   6.150
 9144POPC   GL260518  10.470  44.493   6.150
 9144POPC   C1A60519  10.538  44.629   6.450
 9144POPC   D2A60520  10.528  44.681   6.750
 9144POPC   C3A60521  10.489  44.654   7.050
 9144POPC   C4A60522  10.498  44.613   7.350
 9144POPC   C1B60523  10.491  44.447   6.450
 9144POPC   C2B60524  10.456  44.424   6.750
 9144POPC   C3B60525  10.459  44.450   7.050
 9144POPC   C4B60526  10.451  44.415   7.350
 9145POPC   NC360527  40.800  18.293   5.550
 9145POPC   PO460528  40.822  18.284   5.850
 9145POPC   GL160529  40.823  18.257   6.150
 9145POPC   GL260530  40.650  18.223   6.150
 9145POPC   C1A60531  40.831  18.325   6.450
 9145POPC   D2A60532  40.789  18.331   6.750
 9145POPC   C3A60533  40.766  18.289   7.050
 9145POPC   C4A60534  40.819  18.302   7.350
 9145POPC   C1B60535  40.548  18.261   6.450
 9145POPC   C2B60536  40.501  18.264   6.750
 9145POPC   C3B60537  40.533  18.252   7.050
 9145POPC   C4B60538  40.540  18.264   7.350
 9146POPC   NC360539  15.979   0.445   5.550
 9146POPC   PO460540  15.980   0.414   5.850
 9146POPC   GL160541  15.986   0.436   6.150
 9146POPC   GL260542  15.820   0.397   6.150
 9146POPC   C1A60543  15.908   0.416   6.450
 9146POPC   D2A60544  15.988   0.416   6.750
 9146POPC   C3A60545  15.997   0.475   7.050
 9146POPC   C4A60546  15.933   0.404   7.350
 9146POPC   C1B60547  15.721   0.308   6.450
 9146POPC   C2B60548  15.773   0.351   6.750
 9146POPC   C3B60549  15.686   0.341   7.050
 9146POPC   C4B60550  15.737   0.353   7.350
 9147POPC   NC360551  12.891  19.809   5.550
 9147POPC   PO460552  12.877  19.856   5.850
 9147POPC   GL160553  12.896  19.798   6.150
 9147POPC   GL260554  12.983  19.749   6.150
 9147POPC   C1A60555  12.819  19.819   6.450
 9147POPC   D2A60556  12.884  19.867   6.750
 9147POPC   C3A60557  12.815  19.804   7.050
 9147POPC   C4A60558  12.837  19.829   7.350
 9147POPC   C1B60559  13.022  19.680   6.450
 9147POPC   C2B60560  13.026  19.734   6.750
 9147POPC   C3B60561  13.023  19.739   7.050
 9147POPC   C4B60562  13.115  19.683   7.350
 9148POPC   NC360563  44.661   5.129   5.550
 9148POPC   PO460564  44.645   5.080   5.850
 9148POPC   GL160565  44.655   5.058   6.150
 9148POPC   GL260566  44.627   4.942   6.150
 9148POPC   C1A60567  44.658   5.048   6.450
 9148POPC   D2A60568  44.666   5.124   6.750
 9148POPC   C3A60569  44.694   5.132   7.050
 9148POPC   C4A60570  44.633   5.072   7.350
 9148POPC   C1B60571  44.562   4.904   6.450
 9148POPC   C2B60572  44.546   4.894   6.750
 9148POPC   C3B60573  44.524   4.860   7.050
 9148POPC   C4B60574  44.544   4.915   7.350
 9149POPC   NC360575  21.396   1.997   5.550
 9149POPC   PO460576  21.431   2.024   5.850
 9149POPC   GL160577  21.337   2.026   6.150
 9149POPC   GL260578  21.293   1.958   6.150
 9149POPC   C1A60579  21.405   1.960   6.450
 9149POPC   D2A60580  21.388   2.037   6.750
 9149POPC   C3A60581  21.360   1.958   7.050
 9149POPC   C4A60582  21.420   2.038   7.350
 9149POPC   C1B60583  21.107   2.062   6.450
 9149POPC   C2B60584  21.116   1.982   6.750
 9149POPC   C3B60585  21.149   2.001   7.050
 9149POPC   C4B60586  21.094   2.026   7.350
 9150POPC   NC360587  30.671  38.422   5.550
 9150POPC   PO460588  30.659  38.414   5.850
 9150POPC   GL160589  30.728  38.491   6.150
 9150POPC   GL260590  30.803  38.545   6.150
 9150POPC   C1A60591  30.735  38.447   6.450
 9150POPC   D2A60592  30.731  38.476   6.750
 9150POPC   C3A60593  30.673  38.488   7.050
 9150POPC   C4A60594  30.679  38.466   7.350
 9150POPC   C1B60595  30.866  38.651   6.450
 9150POPC   C2B60596  30.867  38.669   6.750
 9150POPC   C3B60597  30.929  38.607   7.050
 9150POPC   C4B60598  30.891  38.573   7.350
 9151POPC   NC360599  38.487  42.334   5.550
 9151POPC   PO460600  38.439  42.332   5.850
 9151POPC   GL160601  38.484  42.340   6.150
 9151POPC   GL260602  38.384  42.325   6.150
 9151POPC   C1A60603  38.465  42.289   6.450
 9151POPC   D2A60604  38.494  42.287   6.750
 9151POPC   C3A60605  38.432  42.321   7.050
 9151POPC   C4A60606  38.480  42.318   7.350
 9151POPC   C1B60607  38.263  42.204   6.450
 9151POPC   C2B60608  38.186  42.221   6.750
 9151POPC   C3B60609  38.227  42.270   7.050
 9151POPC   C4B60610  38.226  42.228   7.350
 9152POPC   NC360611  39.995  29.134   5.550
 9152POPC   PO460612  40.042  29.144   5.850
 9152POPC   GL160613  39.966  29.146   6.150
 9152POPC   GL260614  40.087  29.272   6.150
 9152POPC   C1A60615  39.990  29.158   6.450
 9152POPC   D2A60616  40.032  29.117   6.750
 9152POPC   C3A60617  40.007  29.183   7.050
 9152POPC   C4A60618  40.012  29.134   7.350
 9152POPC   C1B60619  40.224  29.292   6.450
 9152POPC   C2B60620  40.222  29.367   6.750
 9152POPC   C3B60621  40.142  29.355   7.050
 9152POPC   C4B60622  40.193  29.279   7.350
 9153POPC   NC360623   8.246  35.353   5.550
 9153POPC   PO460624   8.160  35.389   5.850
 9153POPC   GL160625   8.222  35.331   6.150
 9153POPC   GL260626   8.070  35.350   6.150
 9153POPC   C1A60627   8.179  35.321   6.450
 9153POPC   D2A60628   8.228  35.345   6.750
 9153POPC   C3A60629   8.214  35.358   7.050
 9153POPC   C4A60630   8.189  35.385   7.350
 9153POPC   C1B60631   7.958  35.365   6.450
 9153POPC   C2B60632   7.993  35.321   6.750
 9153POPC   C3B60633   7.931  35.366   7.050
 9153POPC   C4B60634   7.943  35.390   7.350
 9154POPC   NC360635  42.322  18.317   5.550
 9154POPC   PO460636  42.358  18.237   5.850
 9154POPC   GL160637  42.347  18.250   6.150
 9154POPC   GL260638  42.257  18.368   6.150
 9154POPC   C1A60639  42.319  18.324   6.450
 9154POPC   D2A60640  42.368  18.243   6.750
 9154POPC   C3A60641  42.380  18.331   7.050
 9154POPC   C4A60642  42.384  18.293   7.350
 9154POPC   C1B60643  42.253  18.465   6.450
 9154POPC   C2B60644  42.251  18.470   6.750
 9154POPC   C3B60645  42.204  18.528   7.050
 9154POPC   C4B60646  42.289  18.515   7.350
 9155POPC   NC360647  26.809  34.559   5.550
 9155POPC   PO460648  26.852  34.596   5.850
 9155POPC   GL160649  26.790  34.583   6.150
 9155POPC   GL260650  26.897  34.643   6.150
 9155POPC   C1A60651  26.818  34.536   6.450
 9155POPC   D2A60652  26.865  34.569   6.750
 9155POPC   C3A60653  26.864  34.576   7.050
 9155POPC   C4A60654  26.773  34.621   7.350
 9155POPC   C1B60655  27.069  34.636   6.450
 9155POPC   C2B60656  27.086  34.632   6.750
 9155POPC   C3B60657  27.084  34.655   7.050
 9155POPC   C4B60658  27.054  34.657   7.350
 9156POPC   NC360659  23.680  34.563   5.550
 9156POPC   PO460660  23.701  34.559   5.850
 9156POPC   GL160661  23.760  34.567   6.150
 9156POPC   GL260662  23.830  34.612   6.150
 9156POPC   C1A60663  23.714  34.587   6.450
 9156POPC   D2A60664  23.716  34.567   6.750
 9156POPC   C3A60665  23.699  34.533   7.050
 9156POPC   C4A60666  23.674  34.584   7.350
 9156POPC   C1B60667  23.967  34.629   6.450
 9156POPC   C2B60668  23.993  34.642   6.750
 9156POPC   C3B60669  23.973  34.654   7.050
 9156POPC   C4B60670  23.909  34.593   7.350
 9157POPC   NC360671   1.210  26.800   5.550
 9157POPC   PO460672   1.234  26.809   5.850
 9157POPC   GL160673   1.222  26.862   6.150
 9157POPC   GL260674   1.083  26.736   6.150
 9157POPC   C1A60675   1.213  26.793   6.450
 9157POPC   D2A60676   1.203  26.800   6.750
 9157POPC   C3A60677   1.240  26.849   7.050
 9157POPC   C4A60678   1.240  26.845   7.350
 9157POPC   C1B60679   0.971  26.774   6.450
 9157POPC   C2B60680   0.965  26.761   6.750
 9157POPC   C3B60681   0.996  26.715   7.050
 9157POPC   C4B60682   0.987  26.710   7.350
 9158POPC   NC360683  35.370  28.381   5.550
 9158POPC   PO460684  35.319  28.368   5.850
 9158POPC   GL160685  35.325  28.321   6.150
 9158POPC   GL260686  35.270  28.459   6.150
 9158POPC   C1A60687  35.308  28.373   6.450
 9158POPC   D2A60688  35.322  28.349   6.750
 9158POPC   C3A60689  35.361  28.325   7.050
 9158POPC   C4A60690  35.317  28.390   7.350
 9158POPC   C1B60691  35.155  28.481   6.450
 9158POPC   C2B60692  35.124  28.440   6.750
 9158POPC   C3B60693  35.127  28.519   7.050
 9158POPC   C4B60694  35.180  28.449   7.350
 9159POPC   NC360695  19.026  31.496   5.550
 9159POPC   PO460696  19.045  31.472   5.850
 9159POPC   GL160697  19.027  31.429   6.150
 9159POPC   GL260698  19.154  31.431   6.150
 9159POPC   C1A60699  19.072  31.481   6.450
 9159POPC   D2A60700  19.082  31.519   6.750
 9159POPC   C3A60701  19.049  31.517   7.050
 9159POPC   C4A60702  19.072  31.489   7.350
 9159POPC   C1B60703  19.228  31.336   6.450
 9159POPC   C2B60704  19.220  31.315   6.750
 9159POPC   C3B60705  19.242  31.317   7.050
 9159POPC   C4B60706  19.313  31.285   7.350
 9160POPC   NC360707   7.391  21.339   5.550
 9160POPC   PO460708   7.385  21.424   5.850
 9160POPC   GL160709   7.427  21.342   6.150
 9160POPC   GL260710   7.376  21.264   6.150
 9160POPC   C1A60711   7.460  21.409   6.450
 9160POPC   D2A60712   7.394  21.429   6.750
 9160POPC   C3A60713   7.439  21.381   7.050
 9160POPC   C4A60714   7.453  21.401   7.350
 9160POPC   C1B60715   7.373  21.158   6.450
 9160POPC   C2B60716   7.394  21.186   6.750
 9160POPC   C3B60717   7.326  21.180   7.050
 9160POPC   C4B60718   7.385  21.134   7.350
 9161POPC   NC360719  29.930  22.179   5.550
 9161POPC   PO460720  29.928  22.191   5.850
 9161POPC   GL160721  29.930  22.178   6.150
 9161POPC   GL260722  29.955  22.279   6.150
 9161POPC   C1A60723  29.939  22.153   6.450
 9161POPC   D2A60724  29.873  22.191   6.750
 9161POPC   C3A60725  29.944  22.155   7.050
 9161POPC   C4A60726  29.963  22.191   7.350
 9161POPC   C1B60727  29.856  22.380   6.450
 9161POPC   C2B60728  29.902  22.442   6.750
 9161POPC   C3B60729  29.856  22.432   7.050
 9161POPC   C4B60730  29.944  22.455   7.350
 9162POPC   NC360731   2.807  43.131   5.550
 9162POPC   PO460732   2.776  43.096   5.850
 9162POPC   GL160733   2.733  43.104   6.150
 9162POPC   GL260734   2.870  43.065   6.150
 9162POPC   C1A60735   2.745  43.157   6.450
 9162POPC   D2A60736   2.798  43.099   6.750
 9162POPC   C3A60737   2.755  43.108   7.050
 9162POPC   C4A60738   2.764  43.140   7.350
 9162POPC   C1B60739   3.039  43.061   6.450
 9162POPC   C2B60740   2.952  42.991   6.750
 9162POPC   C3B60741   3.016  43.006   7.050
 9162POPC   C4B60742   3.002  43.053   7.350
 9163POPC   NC360743  21.345   8.186   5.550
 9163POPC   PO460744  21.422   8.153   5.850
 9163POPC   GL160745  21.367   8.244   6.150
 9163POPC   GL260746  21.478   8.232   6.150
 9163POPC   C1A60747  21.373   8.208   6.450
 9163POPC   D2A60748  21.401   8.173   6.750
 9163POPC   C3A60749  21.336   8.186   7.050
 9163POPC   C4A60750  21.422   8.174   7.350
 9163POPC   C1B60751  21.608   8.310   6.450
 9163POPC   C2B60752  21.591   8.272   6.750
 9163POPC   C3B60753  21.609   8.307   7.050
 9163POPC   C4B60754  21.578   8.240   7.350
 9164POPC   NC360755  32.202  37.700   5.550
 9164POPC   PO460756  32.199  37.647   5.850
 9164POPC   GL160757  32.226  37.725   6.150
 9164POPC   GL260758  32.257  37.824   6.150
 9164POPC   C1A60759  32.210  37.701   6.450
 9164POPC   D2A60760  32.243  37.703   6.750
 9164POPC   C3A60761  32.215  37.651   7.050
 9164POPC   C4A60762  32.230  37.704   7.350
 9164POPC   C1B60763  32.285  37.886   6.450
 9164POPC   C2B60764  32.330  37.886   6.750
 9164POPC   C3B60765  32.324  37.954   7.050
 9164POPC   C4B60766  32.344  37.942   7.350
 9165POPC   NC360767  43.928  23.713   5.550
 9165POPC   PO460768  43.876  23.700   5.850
 9165POPC   GL160769  43.921  23.737   6.150
 9165POPC   GL260770  43.990  23.643   6.150
 9165POPC   C1A60771  43.920  23.726   6.450
 9165POPC   D2A60772  43.846  23.685   6.750
 9165POPC   C3A60773  43.894  23.752   7.050
 9165POPC   C4A60774  43.900  23.711   7.350
 9165POPC   C1B60775  44.071  23.455   6.450
 9165POPC   C2B60776  44.026  23.456   6.750
 9165POPC   C3B60777  44.020  23.553   7.050
 9165POPC   C4B60778  44.023  23.538   7.350
 9166POPC   NC360779   4.352  27.628   5.550
 9166POPC   PO460780   4.340  27.599   5.850
 9166POPC   GL160781   4.367  27.552   6.150
 9166POPC   GL260782   4.481  27.603   6.150
 9166POPC   C1A60783   4.322  27.625   6.450
 9166POPC   D2A60784   4.289  27.601   6.750
 9166POPC   C3A60785   4.289  27.601   7.050
 9166POPC   C4A60786   4.306  27.564   7.350
 9166POPC   C1B60787   4.557  27.625   6.450
 9166POPC   C2B60788   4.516  27.631   6.750
 9166POPC   C3B60789   4.527  27.634   7.050
 9166POPC   C4B60790   4.510  27.627   7.350
 9167POPC   NC360791  27.636  33.840   5.550
 9167POPC   PO460792  27.586  33.790   5.850
 9167POPC   GL160793  27.550  33.759   6.150
 9167POPC   GL260794  27.555  33.914   6.150
 9167POPC   C1A60795  27.630  33.821   6.450
 9167POPC   D2A60796  27.632  33.757   6.750
 9167POPC   C3A60797  27.628  33.783   7.050
 9167POPC   C4A60798  27.575  33.783   7.350
 9167POPC   C1B60799  27.431  33.990   6.450
 9167POPC   C2B60800  27.392  34.007   6.750
 9167POPC   C3B60801  27.422  33.973   7.050
 9167POPC   C4B60802  27.447  33.970   7.350
 9168POPC   NC360803  43.845  15.965   5.550
 9168POPC   PO460804  43.902  15.931   5.850
 9168POPC   GL160805  43.894  15.939   6.150
 9168POPC   GL260806  44.007  16.057   6.150
 9168POPC   C1A60807  43.914  15.976   6.450
 9168POPC   D2A60808  43.873  15.974   6.750
 9168POPC   C3A60809  43.862  15.946   7.050
 9168POPC   C4A60810  43.898  15.910   7.350
 9168POPC   C1B60811  44.033  16.086   6.450
 9168POPC   C2B60812  44.110  16.155   6.750
 9168POPC   C3B60813  44.031  16.153   7.050
 9168POPC   C4B60814  44.051  16.103   7.350
 9169POPC   NC360815  15.982  42.378   5.550
 9169POPC   PO460816  15.923  42.344   5.850
 9169POPC   GL160817  15.986  42.360   6.150
 9169POPC   GL260818  15.994  42.497   6.150
 9169POPC   C1A60819  15.938  42.365   6.450
 9169POPC   D2A60820  15.978  42.359   6.750
 9169POPC   C3A60821  15.979  42.366   7.050
 9169POPC   C4A60822  15.968  42.370   7.350
 9169POPC   C1B60823  16.011  42.603   6.450
 9169POPC   C2B60824  15.969  42.620   6.750
 9169POPC   C3B60825  16.033  42.618   7.050
 9169POPC   C4B60826  16.046  42.538   7.350
 9170POPC   NC360827   9.729  36.942   5.550
 9170POPC   PO460828   9.722  36.884   5.850
 9170POPC   GL160829   9.728  36.890   6.150
 9170POPC   GL260830   9.680  37.042   6.150
 9170POPC   C1A60831   9.706  36.911   6.450
 9170POPC   D2A60832   9.712  36.926   6.750
 9170POPC   C3A60833   9.741  36.913   7.050
 9170POPC   C4A60834   9.739  36.895   7.350
 9170POPC   C1B60835   9.686  37.140   6.450
 9170POPC   C2B60836   9.629  37.139   6.750
 9170POPC   C3B60837   9.614  37.117   7.050
 9170POPC   C4B60838   9.629  37.134   7.350
 9171POPC   NC360839  43.850   0.431   5.550
 9171POPC   PO460840  43.928   0.426   5.850
 9171POPC   GL160841  43.935   0.432   6.150
 9171POPC   GL260842  43.872   0.279   6.150
 9171POPC   C1A60843  43.873   0.442   6.450
 9171POPC   D2A60844  43.902   0.483   6.750
 9171POPC   C3A60845  43.913   0.417   7.050
 9171POPC   C4A60846  43.897   0.467   7.350
 9171POPC   C1B60847  43.852   0.194   6.450
 9171POPC   C2B60848  43.840   0.177   6.750
 9171POPC   C3B60849  43.812   0.167   7.050
 9171POPC   C4B60850  43.846   0.201   7.350
 9172POPC   NC360851  33.037  29.170   5.550
 9172POPC   PO460852  33.013  29.178   5.850
 9172POPC   GL160853  33.051  29.161   6.150
 9172POPC   GL260854  32.968  29.027   6.150
 9172POPC   C1A60855  33.051  29.130   6.450
 9172POPC   D2A60856  33.048  29.115   6.750
 9172POPC   C3A60857  32.975  29.144   7.050
 9172POPC   C4A60858  32.978  29.169   7.350
 9172POPC   C1B60859  32.839  28.962   6.450
 9172POPC   C2B60860  32.889  28.951   6.750
 9172POPC   C3B60861  32.834  28.915   7.050
 9172POPC   C4B60862  32.840  28.991   7.350
 9173POPC   NC360863   9.707  34.578   5.550
 9173POPC   PO460864   9.790  34.593   5.850
 9173POPC   GL160865   9.707  34.577   6.150
 9173POPC   GL260866   9.850  34.483   6.150
 9173POPC   C1A60867   9.779  34.551   6.450
 9173POPC   D2A60868   9.701  34.553   6.750
 9173POPC   C3A60869   9.745  34.590   7.050
 9173POPC   C4A60870   9.726  34.539   7.350
 9173POPC   C1B60871   9.978  34.475   6.450
 9173POPC   C2B60872   9.922  34.501   6.750
 9173POPC   C3B60873   9.997  34.502   7.050
 9173POPC   C4B60874   9.942  34.480   7.350
 9174POPC   NC360875  16.727  40.773   5.550
 9174POPC   PO460876  16.716  40.824   5.850
 9174POPC   GL160877  16.743  40.803   6.150
 9174POPC   GL260878  16.599  40.783   6.150
 9174POPC   C1A60879  16.733  40.828   6.450
 9174POPC   D2A60880  16.711  40.780   6.750
 9174POPC   C3A60881  16.746  40.764   7.050
 9174POPC   C4A60882  16.759  40.806   7.350
 9174POPC   C1B60883  16.534  40.740   6.450
 9174POPC   C2B60884  16.504  40.763   6.750
 9174POPC   C3B60885  16.487  40.726   7.050
 9174POPC   C4B60886  16.513  40.738   7.350
 9175POPC   NC360887  22.894  36.088   5.550
 9175POPC   PO460888  22.902  36.170   5.850
 9175POPC   GL160889  22.938  36.083   6.150
 9175POPC   GL260890  23.029  36.207   6.150
 9175POPC   C1A60891  22.911  36.150   6.450
 9175POPC   D2A60892  22.949  36.095   6.750
 9175POPC   C3A60893  22.974  36.121   7.050
 9175POPC   C4A60894  22.909  36.140   7.350
 9175POPC   C1B60895  23.171  36.210   6.450
 9175POPC   C2B60896  23.162  36.279   6.750
 9175POPC   C3B60897  23.208  36.254   7.050
 9175POPC   C4B60898  23.211  36.204   7.350
 9176POPC   NC360899  21.397  32.227   5.550
 9176POPC   PO460900  21.433  32.214   5.850
 9176POPC   GL160901  21.382  32.200   6.150
 9176POPC   GL260902  21.296  32.344   6.150
 9176POPC   C1A60903  21.353  32.259   6.450
 9176POPC   D2A60904  21.370  32.277   6.750
 9176POPC   C3A60905  21.397  32.228   7.050
 9176POPC   C4A60906  21.433  32.226   7.350
 9176POPC   C1B60907  21.224  32.424   6.450
 9176POPC   C2B60908  21.204  32.376   6.750
 9176POPC   C3B60909  21.179  32.463   7.050
 9176POPC   C4B60910  21.176  32.398   7.350
 9177POPC   NC360911  12.870  16.003   5.550
 9177POPC   PO460912  12.890  15.926   5.850
 9177POPC   GL160913  12.814  15.956   6.150
 9177POPC   GL260914  12.942  16.081   6.150
 9177POPC   C1A60915  12.807  15.912   6.450
 9177POPC   D2A60916  12.817  15.950   6.750
 9177POPC   C3A60917  12.880  15.976   7.050
 9177POPC   C4A60918  12.815  15.986   7.350
 9177POPC   C1B60919  13.015  16.105   6.450
 9177POPC   C2B60920  13.060  16.121   6.750
 9177POPC   C3B60921  13.025  16.157   7.050
 9177POPC   C4B60922  13.072  16.088   7.350
 9178POPC   NC360923  36.897  28.332   5.550
 9178POPC   PO460924  36.938  28.354   5.850
 9178POPC   GL160925  36.937  28.329   6.150
 9178POPC   GL260926  36.814  28.240   6.150
 9178POPC   C1A60927  36.937  28.402   6.450
 9178POPC   D2A60928  36.912  28.322   6.750
 9178POPC   C3A60929  36.945  28.342   7.050
 9178POPC   C4A60930  36.950  28.336   7.350
 9178POPC   C1B60931  36.828  28.117   6.450
 9178POPC   C2B60932  36.828  28.139   6.750
 9178POPC   C3B60933  36.796  28.127   7.050
 9178POPC   C4B60934  36.824  28.113   7.350
 9179POPC   NC360935  28.347  18.279   5.550
 9179POPC   PO460936  28.333  18.312   5.850
 9179POPC   GL160937  28.359  18.331   6.150
 9179POPC   GL260938  28.494  18.205   6.150
 9179POPC   C1A60939  28.378  18.257   6.450
 9179POPC   D2A60940  28.349  18.296   6.750
 9179POPC   C3A60941  28.365  18.285   7.050
 9179POPC   C4A60942  28.413  18.316   7.350
 9179POPC   C1B60943  28.560  18.092   6.450
 9179POPC   C2B60944  28.581  18.122   6.750
 9179POPC   C3B60945  28.538  18.097   7.050
 9179POPC   C4B60946  28.548  18.158   7.350
 9180POPC   NC360947  20.564  12.881   5.550
 9180POPC   PO460948  20.621  12.892   5.850
 9180POPC   GL160949  20.627  12.893   6.150
 9180POPC   GL260950  20.454  12.846   6.150
 9180POPC   C1A60951  20.568  12.857   6.450
 9180POPC   D2A60952  20.638  12.887   6.750
 9180POPC   C3A60953  20.565  12.900   7.050
 9180POPC   C4A60954  20.604  12.813   7.350
 9180POPC   C1B60955  20.399  12.951   6.450
 9180POPC   C2B60956  20.337  12.948   6.750
 9180POPC   C3B60957  20.358  12.918   7.050
 9180POPC   C4B60958  20.349  12.895   7.350
 9181POPC   NC360959  34.583  33.838   5.550
 9181POPC   PO460960  34.557  33.779   5.850
 9181POPC   GL160961  34.602  33.840   6.150
 9181POPC   GL260962  34.488  33.763   6.150
 9181POPC   C1A60963  34.603  33.787   6.450
 9181POPC   D2A60964  34.552  33.806   6.750
 9181POPC   C3A60965  34.593  33.769   7.050
 9181POPC   C4A60966  34.557  33.779   7.350
 9181POPC   C1B60967  34.360  33.756   6.450
 9181POPC   C2B60968  34.353  33.768   6.750
 9181POPC   C3B60969  34.299  33.713   7.050
 9181POPC   C4B60970  34.308  33.672   7.350
 9182POPC   NC360971   1.220  41.604   5.550
 9182POPC   PO460972   1.201  41.521   5.850
 9182POPC   GL160973   1.200  41.527   6.150
 9182POPC   GL260974   1.150  41.468   6.150
 9182POPC   C1A60975   1.227  41.562   6.450
 9182POPC   D2A60976   1.212  41.575   6.750
 9182POPC   C3A60977   1.176  41.520   7.050
 9182POPC   C4A60978   1.251  41.555   7.350
 9182POPC   C1B60979   1.123  41.314   6.450
 9182POPC   C2B60980   1.043  41.338   6.750
 9182POPC   C3B60981   1.039  41.383   7.050
 9182POPC   C4B60982   1.096  41.335   7.350
 9183POPC   NC360983  15.202  15.907   5.550
 9183POPC   PO460984  15.154  15.999   5.850
 9183POPC   GL160985  15.219  15.951   6.150
 9183POPC   GL260986  15.081  15.914   6.150
 9183POPC   C1A60987  15.149  16.002   6.450
 9183POPC   D2A60988  15.167  16.003   6.750
 9183POPC   C3A60989  15.149  15.941   7.050
 9183POPC   C4A60990  15.164  16.002   7.350
 9183POPC   C1B60991  14.906  15.936   6.450
 9183POPC   C2B60992  14.906  15.961   6.750
 9183POPC   C3B60993  14.941  15.910   7.050
 9183POPC   C4B60994  14.892  15.910   7.350
 9184POPC   NC360995  10.562   1.952   5.550
 9184POPC   PO460996  10.556   1.946   5.850
 9184POPC   GL160997  10.549   1.994   6.150
 9184POPC   GL260998  10.367   1.981   6.150
 9184POPC   C1A60999  10.570   2.033   6.450
 9184POPC   D2A61000  10.553   1.990   6.750
 9184POPC   C3A61001  10.479   2.037   7.050
 9184POPC   C4A61002  10.521   1.958   7.350
 9184POPC   C1B61003  10.289   1.960   6.450
 9184POPC   C2B61004  10.293   2.014   6.750
 9184POPC   C3B61005  10.292   1.956   7.050
 9184POPC   C4B61006  10.262   2.004   7.350
 9185POPC   NC361007  19.064  44.678   5.550
 9185POPC   PO461008  19.083  44.697   5.850
 9185POPC   GL161009  19.064  44.623   6.150
 9185POPC   GL261010  19.162  44.732   6.150
 9185POPC   C1A61011  19.106  44.670   6.450
 9185POPC   D2A61012  19.057  44.634   6.750
 9185POPC   C3A61013  19.106  44.614   7.050
 9185POPC   C4A61014  19.056  44.699   7.350
 9185POPC   C1B61015  19.306  44.696   6.450
 9185POPC   C2B61016  19.321  44.701   6.750
 9185POPC   C3B61017  19.328  44.682   7.050
 9185POPC   C4B61018  19.315  44.752   7.350
 9186POPC   NC361019  18.268  44.655   5.550
 9186POPC   PO461020  18.331  44.703   5.850
 9186POPC   GL161021  18.281  44.620   6.150
 9186POPC   GL261022  18.198  44.548   6.150
 9186POPC   C1A61023  18.268  44.710   6.450
 9186POPC   D2A61024  18.270  44.672   6.750
 9186POPC   C3A61025  18.272  44.632   7.050
 9186POPC   C4A61026  18.256  44.638   7.350
 9186POPC   C1B61027  18.193  44.413   6.450
 9186POPC   C2B61028  18.235  44.403   6.750
 9186POPC   C3B61029  18.213  44.462   7.050
 9186POPC   C4B61030  18.220  44.434   7.350
 9187POPC   NC361031  21.436  23.716   5.550
 9187POPC   PO461032  21.382  23.709   5.850
 9187POPC   GL161033  21.416  23.754   6.150
 9187POPC   GL261034  21.305  23.590   6.150
 9187POPC   C1A61035  21.407  23.681   6.450
 9187POPC   D2A61036  21.425  23.747   6.750
 9187POPC   C3A61037  21.377  23.758   7.050
 9187POPC   C4A61038  21.357  23.702   7.350
 9187POPC   C1B61039  21.246  23.534   6.450
 9187POPC   C2B61040  21.235  23.533   6.750
 9187POPC   C3B61041  21.169  23.562   7.050
 9187POPC   C4B61042  21.242  23.541   7.350
 9188POPC   NC361043  31.522  26.065   5.550
 9188POPC   PO461044  31.510  26.050   5.850
 9188POPC   GL161045  31.513  26.081   6.150
 9188POPC   GL261046  31.418  25.934   6.150
 9188POPC   C1A61047  31.509  26.047   6.450
 9188POPC   D2A61048  31.518  26.005   6.750
 9188POPC   C3A61049  31.501  26.017   7.050
 9188POPC   C4A61050  31.499  26.006   7.350
 9188POPC   C1B61051  31.315  25.826   6.450
 9188POPC   C2B61052  31.329  25.775   6.750
 9188POPC   C3B61053  31.353  25.774   7.050
 9188POPC   C4B61054  31.300  25.847   7.350
 9189POPC   NC361055  41.604  33.770   5.550
 9189POPC   PO461056  41.551  33.804   5.850
 9189POPC   GL161057  41.520  33.782   6.150
 9189POPC   GL261058  41.483  33.814   6.150
 9189POPC   C1A61059  41.530  33.819   6.450
 9189POPC   D2A61060  41.576  33.807   6.750
 9189POPC   C3A61061  41.539  33.795   7.050
 9189POPC   C4A61062  41.571  33.777   7.350
 9189POPC   C1B61063  41.262  33.794   6.450
 9189POPC   C2B61064  41.322  33.832   6.750
 9189POPC   C3B61065  41.279  33.816   7.050
 9189POPC   C4B61066  41.349  33.790   7.350
 9190POPC   NC361067  23.733   4.366   5.550
 9190POPC   PO461068  23.692   4.309   5.850
 9190POPC   GL161069  23.717   4.348   6.150
 9190POPC   GL261070  23.702   4.415   6.150
 9190POPC   C1A61071  23.754   4.287   6.450
 9190POPC   D2A61072  23.718   4.308   6.750
 9190POPC   C3A61073  23.735   4.300   7.050
 9190POPC   C4A61074  23.743   4.314   7.350
 9190POPC   C1B61075  23.688   4.530   6.450
 9190POPC   C2B61076  23.638   4.556   6.750
 9190POPC   C3B61077  23.647   4.516   7.050
 9190POPC   C4B61078  23.692   4.551   7.350
 9191POPC   NC361079   5.900  11.350   5.550
 9191POPC   PO461080   5.878  11.308   5.850
 9191POPC   GL161081   5.858  11.332   6.150
 9191POPC   GL261082   5.919  11.170   6.150
 9191POPC   C1A61083   5.853  11.311   6.450
 9191POPC   D2A61084   5.902  11.340   6.750
 9191POPC   C3A61085   5.828  11.279   7.050
 9191POPC   C4A61086   5.901  11.291   7.350
 9191POPC   C1B61087   5.967  11.104   6.450
 9191POPC   C2B61088   5.942  11.077   6.750
 9191POPC   C3B61089   6.006  11.031   7.050
 9191POPC   C4B61090   5.990  11.061   7.350
 9192POPC   NC361091  20.563  15.916   5.550
 9192POPC   PO461092  20.611  15.940   5.850
 9192POPC   GL161093  20.629  15.920   6.150
 9192POPC   GL261094  20.515  15.968   6.150
 9192POPC   C1A61095  20.585  15.990   6.450
 9192POPC   D2A61096  20.634  15.997   6.750
 9192POPC   C3A61097  20.570  15.916   7.050
 9192POPC   C4A61098  20.642  15.996   7.350
 9192POPC   C1B61099  20.379  15.871   6.450
 9192POPC   C2B61100  20.375  15.965   6.750
 9192POPC   C3B61101  20.319  15.879   7.050
 9192POPC   C4B61102  20.409  15.930   7.350
 9193POPC   NC361103  20.603  13.603   5.550
 9193POPC   PO461104  20.607  13.629   5.850
 9193POPC   GL161105  20.602  13.654   6.150
 9193POPC   GL261106  20.764  13.591   6.150
 9193POPC   C1A61107  20.577  13.599   6.450
 9193POPC   D2A61108  20.616  13.672   6.750
 9193POPC   C3A61109  20.575  13.635   7.050
 9193POPC   C4A61110  20.626  13.624   7.350
 9193POPC   C1B61111  20.858  13.480   6.450
 9193POPC   C2B61112  20.834  13.498   6.750
 9193POPC   C3B61113  20.871  13.461   7.050
 9193POPC   C4B61114  20.815  13.456   7.350
 9194POPC   NC361115  40.774   1.994   5.550
 9194POPC   PO461116  40.758   1.968   5.850
 9194POPC   GL161117  40.761   1.978   6.150
 9194POPC   GL261118  40.614   2.026   6.150
 9194POPC   C1A61119  40.759   2.003   6.450
 9194POPC   D2A61120  40.785   1.947   6.750
 9194POPC   C3A61121  40.748   2.034   7.050
 9194POPC   C4A61122  40.776   1.986   7.350
 9194POPC   C1B61123  40.508   1.979   6.450
 9194POPC   C2B61124  40.579   2.018   6.750
 9194POPC   C3B61125  40.567   1.994   7.050
 9194POPC   C4B61126  40.566   2.014   7.350
 9195POPC   NC361127   1.215  40.810   5.550
 9195POPC   PO461128   1.168  40.830   5.850
 9195POPC   GL161129   1.240  40.758   6.150
 9195POPC   GL261130   1.069  40.772   6.150
 9195POPC   C1A61131   1.213  40.831   6.450
 9195POPC   D2A61132   1.219  40.749   6.750
 9195POPC   C3A61133   1.180  40.782   7.050
 9195POPC   C4A61134   1.207  40.801   7.350
 9195POPC   C1B61135   0.976  40.673   6.450
 9195POPC   C2B61136   0.979  40.711   6.750
 9195POPC   C3B61137   0.942  40.712   7.050
 9195POPC   C4B61138   0.936  40.644   7.350
 9196POPC   NC361139  15.950  33.848   5.550
 9196POPC   PO461140  15.974  33.767   5.850
 9196POPC   GL161141  15.989  33.800   6.150
 9196POPC   GL261142  15.936  33.888   6.150
 9196POPC   C1A61143  15.983  33.827   6.450
 9196POPC   D2A61144  15.929  33.830   6.750
 9196POPC   C3A61145  15.976  33.789   7.050
 9196POPC   C4A61146  16.000  33.830   7.350
 9196POPC   C1B61147  15.842  34.063   6.450
 9196POPC   C2B61148  15.907  34.056   6.750
 9196POPC   C3B61149  15.930  34.063   7.050
 9196POPC   C4B61150  15.917  34.055   7.350
 9197POPC   NC361151  18.287  11.313   5.550
 9197POPC   PO461152  18.296  11.293   5.850
 9197POPC   GL161153  18.250  11.265   6.150
 9197POPC   GL261154  18.353  11.349   6.150
 9197POPC   C1A61155  18.286  11.306   6.450
 9197POPC   D2A61156  18.319  11.287   6.750
 9197POPC   C3A61157  18.277  11.264   7.050
 9197POPC   C4A61158  18.332  11.311   7.350
 9197POPC   C1B61159  18.542  11.407   6.450
 9197POPC   C2B61160  18.509  11.422   6.750
 9197POPC   C3B61161  18.516  11.437   7.050
 9197POPC   C4B61162  18.513  11.419   7.350
 9198POPC   NC361163  12.806   9.782   5.550
 9198POPC   PO461164  12.860   9.789   5.850
 9198POPC   GL161165  12.896   9.767   6.150
 9198POPC   GL261166  12.706   9.788   6.150
 9198POPC   C1A61167  12.805   9.767   6.450
 9198POPC   D2A61168  12.870   9.734   6.750
 9198POPC   C3A61169  12.803   9.794   7.050
 9198POPC   C4A61170  12.882   9.768   7.350
 9198POPC   C1B61171  12.630   9.810   6.450
 9198POPC   C2B61172  12.601   9.811   6.750
 9198POPC   C3B61173  12.610   9.798   7.050
 9198POPC   C4B61174  12.573   9.780   7.350
 9199POPC   NC361175  33.835  43.101   5.550
 9199POPC   PO461176  33.796  43.083   5.850
 9199POPC   GL161177  33.782  43.116   6.150
 9199POPC   GL261178  33.793  42.969   6.150
 9199POPC   C1A61179  33.765  43.097   6.450
 9199POPC   D2A61180  33.817  43.104   6.750
 9199POPC   C3A61181  33.816  43.083   7.050
 9199POPC   C4A61182  33.788  43.147   7.350
 9199POPC   C1B61183  33.877  42.863   6.450
 9199POPC   C2B61184  33.822  42.878   6.750
 9199POPC   C3B61185  33.868  42.860   7.050
 9199POPC   C4B61186  33.836  42.870   7.350
 9200POPC   NC361187  11.331  29.185   5.550
 9200POPC   PO461188  11.318  29.186   5.850
 9200POPC   GL161189  11.317  29.102   6.150
 9200POPC   GL261190  11.242  29.224   6.150
 9200POPC   C1A61191  11.334  29.188   6.450
 9200POPC   D2A61192  11.346  29.115   6.750
 9200POPC   C3A61193  11.304  29.128   7.050
 9200POPC   C4A61194  11.262  29.165   7.350
 9200POPC   C1B61195  11.098  29.314   6.450
 9200POPC   C2B61196  11.063  29.294   6.750
 9200POPC   C3B61197  11.075  29.338   7.050
 9200POPC   C4B61198  11.067  29.309   7.350
 9201POPC   NC361199  32.272   8.220   5.550
 9201POPC   PO461200  32.285   8.213   5.850
 9201POPC   GL161201  32.239   8.184   6.150
 9201POPC   GL261202  32.370   8.271   6.150
 9201POPC   C1A61203  32.247   8.193   6.450
 9201POPC   D2A61204  32.276   8.177   6.750
 9201POPC   C3A61205  32.201   8.244   7.050
 9201POPC   C4A61206  32.211   8.201   7.350
 9201POPC   C1B61207  32.482   8.273   6.450
 9201POPC   C2B61208  32.498   8.321   6.750
 9201POPC   C3B61209  32.513   8.360   7.050
 9201POPC   C4B61210  32.423   8.275   7.350
 9202POPC   NC361211  26.810  16.732   5.550
 9202POPC   PO461212  26.857  16.741   5.850
 9202POPC   GL161213  26.802  16.710   6.150
 9202POPC   GL261214  26.690  16.751   6.150
 9202POPC   C1A61215  26.798  16.730   6.450
 9202POPC   D2A61216  26.862  16.723   6.750
 9202POPC   C3A61217  26.777  16.749   7.050
 9202POPC   C4A61218  26.805  16.749   7.350
 9202POPC   C1B61219  26.578  16.838   6.450
 9202POPC   C2B61220  26.615  16.786   6.750
 9202POPC   C3B61221  26.582  16.824   7.050
 9202POPC   C4B61222  26.627  16.825   7.350
 9203POPC   NC361223  37.633  29.173   5.550
 9203POPC   PO461224  37.704  29.124   5.850
 9203POPC   GL161225  37.719  29.194   6.150
 9203POPC   GL261226  37.587  29.202   6.150
 9203POPC   C1A61227  37.723  29.139   6.450
 9203POPC   D2A61228  37.713  29.117   6.750
 9203POPC   C3A61229  37.700  29.187   7.050
 9203POPC   C4A61230  37.664  29.117   7.350
 9203POPC   C1B61231  37.425  29.208   6.450
 9203POPC   C2B61232  37.487  29.199   6.750
 9203POPC   C3B61233  37.406  29.195   7.050
 9203POPC   C4B61234  37.440  29.256   7.350
 9204POPC   NC361235  36.154  38.421   5.550
 9204POPC   PO461236  36.110  38.461   5.850
 9204POPC   GL161237  36.171  38.478   6.150
 9204POPC   GL261238  36.088  38.369   6.150
 9204POPC   C1A61239  36.093  38.495   6.450
 9204POPC   D2A61240  36.110  38.492   6.750
 9204POPC   C3A61241  36.117  38.498   7.050
 9204POPC   C4A61242  36.144  38.438   7.350
 9204POPC   C1B61243  36.085  38.162   6.450
 9204POPC   C2B61244  36.093  38.221   6.750
 9204POPC   C3B61245  36.077  38.258   7.050
 9204POPC   C4B61246  36.113  38.170   7.350
 9205POPC   NC361247  12.107  12.029   5.550
 9205POPC   PO461248  12.043  12.092   5.850
 9205POPC   GL161249  12.102  12.079   6.150
 9205POPC   GL261250  12.110  11.994   6.150
 9205POPC   C1A61251  12.037  12.070   6.450
 9205POPC   D2A61252  12.096  12.058   6.750
 9205POPC   C3A61253  12.055  12.058   7.050
 9205POPC   C4A61254  12.110  12.062   7.350
 9205POPC   C1B61255  12.173  11.861   6.450
 9205POPC   C2B61256  12.174  11.842   6.750
 9205POPC   C3B61257  12.229  11.863   7.050
 9205POPC   C4B61258  12.190  11.867   7.350
 9206POPC   NC361259  10.475   0.402   5.550
 9206POPC   PO461260  10.503   0.463   5.850
 9206POPC   GL161261  10.535   0.476   6.150
 9206POPC   GL261262  10.616   0.446   6.150
 9206POPC   C1A61263  10.506   0.398   6.450
 9206POPC   D2A61264  10.520   0.420   6.750
 9206POPC   C3A61265  10.523   0.392   7.050
 9206POPC   C4A61266  10.537   0.406   7.350
 9206POPC   C1B61267  10.816   0.450   6.450
 9206POPC   C2B61268  10.726   0.408   6.750
 9206POPC   C3B61269  10.728   0.422   7.050
 9206POPC   C4B61270  10.783   0.482   7.350
 9207POPC   NC361271   1.167  27.575   5.550
 9207POPC   PO461272   1.237  27.614   5.850
 9207POPC   GL161273   1.239  27.616   6.150
 9207POPC   GL261274   1.137  27.592   6.150
 9207POPC   C1A61275   1.246  27.635   6.450
 9207POPC   D2A61276   1.259  27.581   6.750
 9207POPC   C3A61277   1.241  27.544   7.050
 9207POPC   C4A61278   1.263  27.608   7.350
 9207POPC   C1B61279   0.979  27.650   6.450
 9207POPC   C2B61280   0.953  27.710   6.750
 9207POPC   C3B61281   0.945  27.644   7.050
 9207POPC   C4B61282   0.929  27.644   7.350
 9208POPC   NC361283   8.949  32.240   5.550
 9208POPC   PO461284   8.972  32.253   5.850
 9208POPC   GL161285   9.005  32.203   6.150
 9208POPC   GL261286   8.821  32.266   6.150
 9208POPC   C1A61287   8.980  32.233   6.450
 9208POPC   D2A61288   9.009  32.229   6.750
 9208POPC   C3A61289   8.926  32.259   7.050
 9208POPC   C4A61290   8.935  32.218   7.350
 9208POPC   C1B61291   8.757  32.207   6.450
 9208POPC   C2B61292   8.760  32.264   6.750
 9208POPC   C3B61293   8.734  32.234   7.050
 9208POPC   C4B61294   8.698  32.215   7.350
 9209POPC   NC361295  40.783   9.785   5.550
 9209POPC   PO461296  40.794   9.779   5.850
 9209POPC   GL161297  40.821   9.729   6.150
 9209POPC   GL261298  40.719   9.627   6.150
 9209POPC   C1A61299  40.743   9.726   6.450
 9209POPC   D2A61300  40.737   9.739   6.750
 9209POPC   C3A61301  40.783   9.792   7.050
 9209POPC   C4A61302  40.794   9.778   7.350
 9209POPC   C1B61303  40.636   9.535   6.450
 9209POPC   C2B61304  40.618   9.507   6.750
 9209POPC   C3B61305  40.685   9.563   7.050
 9209POPC   C4B61306  40.684   9.583   7.350
 9210POPC   NC361307   1.192   3.509   5.550
 9210POPC   PO461308   1.250   3.566   5.850
 9210POPC   GL161309   1.237   3.523   6.150
 9210POPC   GL261310   1.110   3.651   6.150
 9210POPC   C1A61311   1.225   3.562   6.450
 9210POPC   D2A61312   1.257   3.591   6.750
 9210POPC   C3A61313   1.177   3.501   7.050
 9210POPC   C4A61314   1.255   3.501   7.350
 9210POPC   C1B61315   1.041   3.712   6.450
 9210POPC   C2B61316   1.090   3.741   6.750
 9210POPC   C3B61317   1.028   3.749   7.050
 9210POPC   C4B61318   1.075   3.775   7.350
 9211POPC   NC361319  39.992  42.378   5.550
 9211POPC   PO461320  39.980  42.321   5.850
 9211POPC   GL161321  40.020  42.305   6.150
 9211POPC   GL261322  40.155  42.321   6.150
 9211POPC   C1A61323  39.982  42.286   6.450
 9211POPC   D2A61324  40.048  42.376   6.750
 9211POPC   C3A61325  40.021  42.292   7.050
 9211POPC   C4A61326  40.014  42.303   7.350
 9211POPC   C1B61327  40.251  42.205   6.450
 9211POPC   C2B61328  40.253  42.290   6.750
 9211POPC   C3B61329  40.278  42.279   7.050
 9211POPC   C4B61330  40.199  42.207   7.350
 9212POPC   NC361331  29.128   5.911   5.550
 9212POPC   PO461332  29.156   5.916   5.850
 9212POPC   GL161333  29.100   5.838   6.150
 9212POPC   GL261334  29.249   5.897   6.150
 9212POPC   C1A61335  29.191   5.916   6.450
 9212POPC   D2A61336  29.159   5.824   6.750
 9212POPC   C3A61337  29.177   5.857   7.050
 9212POPC   C4A61338  29.137   5.873   7.350
 9212POPC   C1B61339  29.395   5.964   6.450
 9212POPC   C2B61340  29.386   5.887   6.750
 9212POPC   C3B61341  29.361   5.920   7.050
 9212POPC   C4B61342  29.420   5.916   7.350
 9213POPC   NC361343  20.627  33.036   5.550
 9213POPC   PO461344  20.585  33.047   5.850
 9213POPC   GL161345  20.648  33.038   6.150
 9213POPC   GL261346  20.657  32.878   6.150
 9213POPC   C1A61347  20.601  33.061   6.450
 9213POPC   D2A61348  20.612  32.997   6.750
 9213POPC   C3A61349  20.659  33.071   7.050
 9213POPC   C4A61350  20.629  33.029   7.350
 9213POPC   C1B61351  20.679  32.813   6.450
 9213POPC   C2B61352  20.620  32.753   6.750
 9213POPC   C3B61353  20.632  32.773   7.050
 9213POPC   C4B61354  20.691  32.802   7.350
 9214POPC   NC361355  21.414  15.156   5.550
 9214POPC   PO461356  21.418  15.224   5.850
 9214POPC   GL161357  21.395  15.169   6.150
 9214POPC   GL261358  21.496  15.228   6.150
 9214POPC   C1A61359  21.380  15.172   6.450
 9214POPC   D2A61360  21.436  15.182   6.750
 9214POPC   C3A61361  21.387  15.160   7.050
 9214POPC   C4A61362  21.386  15.198   7.350
 9214POPC   C1B61363  21.608  15.274   6.450
 9214POPC   C2B61364  21.594  15.273   6.750
 9214POPC   C3B61365  21.635  15.251   7.050
 9214POPC   C4B61366  21.587  15.317   7.350
 9215POPC   NC361367   8.153  16.765   5.550
 9215POPC   PO461368   8.164  16.683   5.850
 9215POPC   GL161369   8.199  16.777   6.150
 9215POPC   GL261370   8.297  16.647   6.150
 9215POPC   C1A61371   8.223  16.711   6.450
 9215POPC   D2A61372   8.245  16.692   6.750
 9215POPC   C3A61373   8.148  16.682   7.050
 9215POPC   C4A61374   8.177  16.779   7.350
 9215POPC   C1B61375   8.360  16.515   6.450
 9215POPC   C2B61376   8.313  16.482   6.750
 9215POPC   C3B61377   8.312  16.515   7.050
 9215POPC   C4B61378   8.376  16.476   7.350
 9216POPC   NC361379  22.190  19.094   5.550
 9216POPC   PO461380  22.152  19.022   5.850
 9216POPC   GL161381  22.127  19.096   6.150
 9216POPC   GL261382  22.297  19.159   6.150
 9216POPC   C1A61383  22.142  19.075   6.450
 9216POPC   D2A61384  22.114  19.026   6.750
 9216POPC   C3A61385  22.123  19.036   7.050
 9216POPC   C4A61386  22.195  19.107   7.350
 9216POPC   C1B61387  22.408  19.189   6.450
 9216POPC   C2B61388  22.318  19.244   6.750
 9216POPC   C3B61389  22.333  19.212   7.050
 9216POPC   C4B61390  22.329  19.199   7.350
 9217POPC   NC361391  36.905   9.744   5.550
 9217POPC   PO461392  36.933   9.757   5.850
 9217POPC   GL161393  36.888   9.755   6.150
 9217POPC   GL261394  36.833   9.860   6.150
 9217POPC   C1A61395  36.880   9.755   6.450
 9217POPC   D2A61396  36.860   9.741   6.750
 9217POPC   C3A61397  36.865   9.716   7.050
 9217POPC   C4A61398  36.945   9.777   7.350
 9217POPC   C1B61399  36.740   9.984   6.450
 9217POPC   C2B61400  36.792  10.007   6.750
 9217POPC   C3B61401  36.804   9.917   7.050
 9217POPC   C4B61402  36.755   9.946   7.350
 9218POPC   NC361403  32.240  33.026   5.550
 9218POPC   PO461404  32.238  33.058   5.850
 9218POPC   GL161405  32.227  33.047   6.150
 9218POPC   GL261406  32.359  33.129   6.150
 9218POPC   C1A61407  32.224  33.021   6.450
 9218POPC   D2A61408  32.202  33.061   6.750
 9218POPC   C3A61409  32.249  32.976   7.050
 9218POPC   C4A61410  32.206  32.982   7.350
 9218POPC   C1B61411  32.499  33.183   6.450
 9218POPC   C2B61412  32.446  33.182   6.750
 9218POPC   C3B61413  32.449  33.190   7.050
 9218POPC   C4B61414  32.478  33.123   7.350
 9219POPC   NC361415  13.616  28.397   5.550
 9219POPC   PO461416  13.669  28.324   5.850
 9219POPC   GL161417  13.658  28.395   6.150
 9219POPC   GL261418  13.573  28.337   6.150
 9219POPC   C1A61419  13.677  28.367   6.450
 9219POPC   D2A61420  13.624  28.351   6.750
 9219POPC   C3A61421  13.587  28.353   7.050
 9219POPC   C4A61422  13.638  28.386   7.350
 9219POPC   C1B61423  13.407  28.255   6.450
 9219POPC   C2B61424  13.429  28.218   6.750
 9219POPC   C3B61425  13.426  28.200   7.050
 9219POPC   C4B61426  13.415  28.210   7.350
 9220POPC   NC361427   1.231  21.384   5.550
 9220POPC   PO461428   1.232  21.370   5.850
 9220POPC   GL161429   1.177  21.371   6.150
 9220POPC   GL261430   1.235  21.307   6.150
 9220POPC   C1A61431   1.228  21.394   6.450
 9220POPC   D2A61432   1.251  21.355   6.750
 9220POPC   C3A61433   1.259  21.394   7.050
 9220POPC   C4A61434   1.178  21.418   7.350
 9220POPC   C1B61435   1.314  21.210   6.450
 9220POPC   C2B61436   1.386  21.193   6.750
 9220POPC   C3B61437   1.357  21.147   7.050
 9220POPC   C4B61438   1.374  21.221   7.350
 9221POPC   NC361439  12.812  20.627   5.550
 9221POPC   PO461440  12.844  20.649   5.850
 9221POPC   GL161441  12.820  20.639   6.150
 9221POPC   GL261442  12.765  20.520   6.150
 9221POPC   C1A61443  12.887  20.618   6.450
 9221POPC   D2A61444  12.885  20.654   6.750
 9221POPC   C3A61445  12.823  20.594   7.050
 9221POPC   C4A61446  12.889  20.589   7.350
 9221POPC   C1B61447  12.677  20.413   6.450
 9221POPC   C2B61448  12.709  20.427   6.750
 9221POPC   C3B61449  12.705  20.416   7.050
 9221POPC   C4B61450  12.686  20.427   7.350
 9222POPC   NC361451   0.470  40.756   5.550
 9222POPC   PO461452   0.426  40.749   5.850
 9222POPC   GL161453   0.410  40.801   6.150
 9222POPC   GL261454   0.522  40.671   6.150
 9222POPC   C1A61455   0.416  40.750   6.450
 9222POPC   D2A61456   0.412  40.778   6.750
 9222POPC   C3A61457   0.392  40.822   7.050
 9222POPC   C4A61458   0.393  40.758   7.350
 9222POPC   C1B61459   0.605  40.572   6.450
 9222POPC   C2B61460   0.623  40.550   6.750
 9222POPC   C3B61461   0.583  40.541   7.050
 9222POPC   C4B61462   0.598  40.531   7.350
 9223POPC   NC361463  20.564  22.986   5.550
 9223POPC   PO461464  20.564  22.928   5.850
 9223POPC   GL161465  20.614  22.925   6.150
 9223POPC   GL261466  20.612  22.811   6.150
 9223POPC   C1A61467  20.656  22.973   6.450
 9223POPC   D2A61468  20.660  22.961   6.750
 9223POPC   C3A61469  20.578  22.914   7.050
 9223POPC   C4A61470  20.601  22.922   7.350
 9223POPC   C1B61471  20.581  22.675   6.450
 9223POPC   C2B61472  20.578  22.671   6.750
 9223POPC   C3B61473  20.555  22.689   7.050
 9223POPC   C4B61474  20.482  22.690   7.350
 9224POPC   NC361475  26.043  36.916   5.550
 9224POPC   PO461476  26.002  36.899   5.850
 9224POPC   GL161477  26.019  36.886   6.150
 9224POPC   GL261478  26.016  36.772   6.150
 9224POPC   C1A61479  26.071  36.895   6.450
 9224POPC   D2A61480  26.069  36.903   6.750
 9224POPC   C3A61481  26.043  36.927   7.050
 9224POPC   C4A61482  26.083  36.926   7.350
 9224POPC   C1B61483  26.038  36.618   6.450
 9224POPC   C2B61484  26.012  36.636   6.750
 9224POPC   C3B61485  25.993  36.691   7.050
 9224POPC   C4B61486  26.025  36.611   7.350
 9225POPC   NC361487  32.205  25.237   5.550
 9225POPC   PO461488  32.204  25.282   5.850
 9225POPC   GL161489  32.291  25.250   6.150
 9225POPC   GL261490  32.155  25.273   6.150
 9225POPC   C1A61491  32.293  25.288   6.450
 9225POPC   D2A61492  32.289  25.241   6.750
 9225POPC   C3A61493  32.256  25.231   7.050
 9225POPC   C4A61494  32.295  25.216   7.350
 9225POPC   C1B61495  31.961  25.203   6.450
 9225POPC   C2B61496  32.033  25.207   6.750
 9225POPC   C3B61497  32.049  25.290   7.050
 9225POPC   C4B61498  32.043  25.206   7.350
 9226POPC   NC361499   2.794  26.077   5.550
 9226POPC   PO461500   2.717  26.027   5.850
 9226POPC   GL161501   2.779  26.032   6.150
 9226POPC   GL261502   2.817  25.942   6.150
 9226POPC   C1A61503   2.771  26.073   6.450
 9226POPC   D2A61504   2.722  26.070   6.750
 9226POPC   C3A61505   2.771  26.073   7.050
 9226POPC   C4A61506   2.768  26.061   7.350
 9226POPC   C1B61507   2.967  25.917   6.450
 9226POPC   C2B61508   2.965  25.926   6.750
 9226POPC   C3B61509   2.947  25.908   7.050
 9226POPC   C4B61510   3.006  25.865   7.350
 9227POPC   NC361511  33.023   8.228   5.550
 9227POPC   PO461512  33.041   8.155   5.850
 9227POPC   GL161513  33.041   8.152   6.150
 9227POPC   GL261514  33.009   8.128   6.150
 9227POPC   C1A61515  32.993   8.223   6.450
 9227POPC   D2A61516  33.063   8.227   6.750
 9227POPC   C3A61517  33.008   8.241   7.050
 9227POPC   C4A61518  32.987   8.208   7.350
 9227POPC   C1B61519  32.864   7.977   6.450
 9227POPC   C2B61520  32.920   7.958   6.750
 9227POPC   C3B61521  32.891   8.023   7.050
 9227POPC   C4B61522  32.948   7.945   7.350
 9228POPC   NC361523  20.570  17.482   5.550
 9228POPC   PO461524  20.623  17.556   5.850
 9228POPC   GL161525  20.629  17.511   6.150
 9228POPC   GL261526  20.652  17.575   6.150
 9228POPC   C1A61527  20.598  17.482   6.450
 9228POPC   D2A61528  20.594  17.540   6.750
 9228POPC   C3A61529  20.602  17.504   7.050
 9228POPC   C4A61530  20.576  17.539   7.350
 9228POPC   C1B61531  20.740  17.718   6.450
 9228POPC   C2B61532  20.726  17.754   6.750
 9228POPC   C3B61533  20.694  17.756   7.050
 9228POPC   C4B61534  20.752  17.726   7.350
 9229POPC   NC361535  15.211  32.228   5.550
 9229POPC   PO461536  15.224  32.235   5.850
 9229POPC   GL161537  15.201  32.248   6.150
 9229POPC   GL261538  15.289  32.370   6.150
 9229POPC   C1A61539  15.177  32.283   6.450
 9229POPC   D2A61540  15.154  32.269   6.750
 9229POPC   C3A61541  15.207  32.260   7.050
 9229POPC   C4A61542  15.214  32.246   7.350
 9229POPC   C1B61543  15.382  32.453   6.450
 9229POPC   C2B61544  15.368  32.427   6.750
 9229POPC   C3B61545  15.343  32.476   7.050
 9229POPC   C4B61546  15.317  32.439   7.350
 9230POPC   NC361547  12.090  30.701   5.550
 9230POPC   PO461548  12.034  30.663   5.850
 9230POPC   GL161549  12.096  30.680   6.150
 9230POPC   GL261550  12.040  30.561   6.150
 9230POPC   C1A61551  12.069  30.648   6.450
 9230POPC   D2A61552  12.052  30.699   6.750
 9230POPC   C3A61553  12.053  30.709   7.050
 9230POPC   C4A61554  12.125  30.660   7.350
 9230POPC   C1B61555  12.074  30.397   6.450
 9230POPC   C2B61556  12.098  30.438   6.750
 9230POPC   C3B61557  12.050  30.401   7.050
 9230POPC   C4B61558  12.093  30.440   7.350
 9231POPC   NC361559  29.099  38.457   5.550
 9231POPC   PO461560  29.178  38.485   5.850
 9231POPC   GL161561  29.193  38.446   6.150
 9231POPC   GL261562  29.093  38.590   6.150
 9231POPC   C1A61563  29.144  38.414   6.450
 9231POPC   D2A61564  29.113  38.419   6.750
 9231POPC   C3A61565  29.125  38.432   7.050
 9231POPC   C4A61566  29.185  38.482   7.350
 9231POPC   C1B61567  28.963  38.657   6.450
 9231POPC   C2B61568  28.999  38.606   6.750
 9231POPC   C3B61569  28.983  38.675   7.050
 9231POPC   C4B61570  28.948  38.610   7.350
 9232POPC   NC361571  13.629  26.779   5.550
 9232POPC   PO461572  13.579  26.776   5.850
 9232POPC   GL161573  13.648  26.785   6.150
 9232POPC   GL261574  13.536  26.855   6.150
 9232POPC   C1A61575  13.586  26.848   6.450
 9232POPC   D2A61576  13.602  26.803   6.750
 9232POPC   C3A61577  13.672  26.813   7.050
 9232POPC   C4A61578  13.629  26.831   7.350
 9232POPC   C1B61579  13.392  26.932   6.450
 9232POPC   C2B61580  13.381  26.907   6.750
 9232POPC   C3B61581  13.395  26.840   7.050
 9232POPC   C4B61582  13.349  26.899   7.350
 9233POPC   NC361583   3.560  32.249   5.550
 9233POPC   PO461584   3.536  32.269   5.850
 9233POPC   GL161585   3.493  32.287   6.150
 9233POPC   GL261586   3.561  32.152   6.150
 9233POPC   C1A61587   3.559  32.285   6.450
 9233POPC   D2A61588   3.504  32.266   6.750
 9233POPC   C3A61589   3.590  32.262   7.050
 9233POPC   C4A61590   3.498  32.202   7.350
 9233POPC   C1B61591   3.572  31.988   6.450
 9233POPC   C2B61592   3.498  32.017   6.750
 9233POPC   C3B61593   3.549  31.950   7.050
 9233POPC   C4B61594   3.512  31.983   7.350
 9234POPC   NC361595  26.802  27.622   5.550
 9234POPC   PO461596  26.773  27.630   5.850
 9234POPC   GL161597  26.864  27.556   6.150
 9234POPC   GL261598  26.949  27.454   6.150
 9234POPC   C1A61599  26.843  27.562   6.450
 9234POPC   D2A61600  26.802  27.619   6.750
 9234POPC   C3A61601  26.790  27.599   7.050
 9234POPC   C4A61602  26.773  27.628   7.350
 9234POPC   C1B61603  26.995  27.435   6.450
 9234POPC   C2B61604  26.948  27.405   6.750
 9234POPC   C3B61605  27.013  27.414   7.050
 9234POPC   C4B61606  26.966  27.390   7.350
 9235POPC   NC361607  19.048  12.866   5.550
 9235POPC   PO461608  19.105  12.883   5.850
 9235POPC   GL161609  19.046  12.817   6.150
 9235POPC   GL261610  19.111  12.774   6.150
 9235POPC   C1A61611  19.061  12.814   6.450
 9235POPC   D2A61612  19.100  12.809   6.750
 9235POPC   C3A61613  19.055  12.882   7.050
 9235POPC   C4A61614  19.046  12.840   7.350
 9235POPC   C1B61615  19.229  12.656   6.450
 9235POPC   C2B61616  19.263  12.672   6.750
 9235POPC   C3B61617  19.193  12.627   7.050
 9235POPC   C4B61618  19.177  12.629   7.350
 9236POPC   NC361619  31.504  43.932   5.550
 9236POPC   PO461620  31.494  43.918   5.850
 9236POPC   GL161621  31.464  43.912   6.150
 9236POPC   GL261622  31.553  43.937   6.150
 9236POPC   C1A61623  31.487  43.898   6.450
 9236POPC   D2A61624  31.464  43.892   6.750
 9236POPC   C3A61625  31.430  43.883   7.050
 9236POPC   C4A61626  31.510  43.898   7.350
 9236POPC   C1B61627  31.681  43.867   6.450
 9236POPC   C2B61628  31.759  43.867   6.750
 9236POPC   C3B61629  31.733  43.907   7.050
 9236POPC   C4B61630  31.742  43.927   7.350
 9237POPC   NC361631  22.120  38.446   5.550
 9237POPC   PO461632  22.148  38.428   5.850
 9237POPC   GL161633  22.130  38.483   6.150
 9237POPC   GL261634  22.115  38.589   6.150
 9237POPC   C1A61635  22.130  38.420   6.450
 9237POPC   D2A61636  22.191  38.461   6.750
 9237POPC   C3A61637  22.186  38.494   7.050
 9237POPC   C4A61638  22.176  38.488   7.350
 9237POPC   C1B61639  22.142  38.733   6.450
 9237POPC   C2B61640  22.080  38.652   6.750
 9237POPC   C3B61641  22.143  38.694   7.050
 9237POPC   C4B61642  22.065  38.700   7.350
 9238POPC   NC361643  12.852  10.492   5.550
 9238POPC   PO461644  12.833  10.519   5.850
 9238POPC   GL161645  12.860  10.534   6.150
 9238POPC   GL261646  12.938  10.468   6.150
 9238POPC   C1A61647  12.833  10.563   6.450
 9238POPC   D2A61648  12.879  10.570   6.750
 9238POPC   C3A61649  12.892  10.519   7.050
 9238POPC   C4A61650  12.808  10.527   7.350
 9238POPC   C1B61651  13.033  10.456   6.450
 9238POPC   C2B61652  13.111  10.401   6.750
 9238POPC   C3B61653  13.125  10.445   7.050
 9238POPC   C4B61654  13.033  10.450   7.350
 9239POPC   NC361655  26.033  17.487   5.550
 9239POPC   PO461656  26.064  17.534   5.850
 9239POPC   GL161657  26.039  17.518   6.150
 9239POPC   GL261658  26.143  17.592   6.150
 9239POPC   C1A61659  26.005  17.552   6.450
 9239POPC   D2A61660  26.013  17.467   6.750
 9239POPC   C3A61661  26.064  17.516   7.050
 9239POPC   C4A61662  26.049  17.537   7.350
 9239POPC   C1B61663  26.246  17.666   6.450
 9239POPC   C2B61664  26.184  17.663   6.750
 9239POPC   C3B61665  26.248  17.671   7.050
 9239POPC   C4B61666  26.251  17.657   7.350
 9240POPC   NC361667  43.122  33.792   5.550
 9240POPC   PO461668  43.093  33.767   5.850
 9240POPC   GL161669  43.092  33.790   6.150
 9240POPC   GL261670  43.049  33.955   6.150
 9240POPC   C1A61671  43.127  33.804   6.450
 9240POPC   D2A61672  43.112  33.834   6.750
 9240POPC   C3A61673  43.146  33.764   7.050
 9240POPC   C4A61674  43.119  33.802   7.350
 9240POPC   C1B61675  43.026  34.084   6.450
 9240POPC   C2B61676  43.028  34.069   6.750
 9240POPC   C3B61677  43.071  34.024   7.050
 9240POPC   C4B61678  43.000  34.065   7.350
 9241POPC   NC361679  29.967   1.188   5.550
 9241POPC   PO461680  29.892   1.175   5.850
 9241POPC   GL161681  29.908   1.165   6.150
 9241POPC   GL261682  29.994   1.308   6.150
 9241POPC   C1A61683  29.943   1.252   6.450
 9241POPC   D2A61684  29.932   1.223   6.750
 9241POPC   C3A61685  29.914   1.261   7.050
 9241POPC   C4A61686  29.902   1.207   7.350
 9241POPC   C1B61687  30.156   1.343   6.450
 9241POPC   C2B61688  30.184   1.337   6.750
 9241POPC   C3B61689  30.106   1.336   7.050
 9241POPC   C4B61690  30.142   1.325   7.350
 9242POPC   NC361691  19.837  14.420   5.550
 9242POPC   PO461692  19.881  14.410   5.850
 9242POPC   GL161693  19.871  14.403   6.150
 9242POPC   GL261694  19.909  14.536   6.150
 9242POPC   C1A61695  19.844  14.376   6.450
 9242POPC   D2A61696  19.869  14.434   6.750
 9242POPC   C3A61697  19.875  14.439   7.050
 9242POPC   C4A61698  19.881  14.421   7.350
 9242POPC   C1B61699  19.988  14.581   6.450
 9242POPC   C2B61700  20.042  14.602   6.750
 9242POPC   C3B61701  19.991  14.575   7.050
 9242POPC   C4B61702  20.006  14.599   7.350
 9243POPC   NC361703   9.743  35.330   5.550
 9243POPC   PO461704   9.716  35.334   5.850
 9243POPC   GL161705   9.785  35.396   6.150
 9243POPC   GL261706   9.681  35.289   6.150
 9243POPC   C1A61707   9.763  35.390   6.450
 9243POPC   D2A61708   9.739  35.317   6.750
 9243POPC   C3A61709   9.787  35.308   7.050
 9243POPC   C4A61710   9.768  35.345   7.350
 9243POPC   C1B61711   9.507  35.172   6.450
 9243POPC   C2B61712   9.547  35.193   6.750
 9243POPC   C3B61713   9.490  35.197   7.050
 9243POPC   C4B61714   9.530  35.245   7.350
 9244POPC   NC361715  26.062   5.914   5.550
 9244POPC   PO461716  26.072   5.864   5.850
 9244POPC   GL161717  26.002   5.916   6.150
 9244POPC   GL261718  26.028   5.797   6.150
 9244POPC   C1A61719  26.056   5.913   6.450
 9244POPC   D2A61720  26.062   5.830   6.750
 9244POPC   C3A61721  26.000   5.871   7.050
 9244POPC   C4A61722  26.071   5.858   7.350
 9244POPC   C1B61723  26.120   5.601   6.450
 9244POPC   C2B61724  26.127   5.586   6.750
 9244POPC   C3B61725  26.084   5.627   7.050
 9244POPC   C4B61726  26.100   5.645   7.350
 9245POPC   NC361727   7.460  41.602   5.550
 9245POPC   PO461728   7.463  41.569   5.850
 9245POPC   GL161729   7.450  41.597   6.150
 9245POPC   GL261730   7.567  41.628   6.150
 9245POPC   C1A61731   7.398  41.568   6.450
 9245POPC   D2A61732   7.419  41.592   6.750
 9245POPC   C3A61733   7.390  41.574   7.050
 9245POPC   C4A61734   7.457  41.602   7.350
 9245POPC   C1B61735   7.656  41.648   6.450
 9245POPC   C2B61736   7.652  41.697   6.750
 9245POPC   C3B61737   7.639  41.709   7.050
 9245POPC   C4B61738   7.673  41.641   7.350
 9246POPC   NC361739  15.942  12.054   5.550
 9246POPC   PO461740  15.928  12.032   5.850
 9246POPC   GL161741  15.968  12.110   6.150
 9246POPC   GL261742  15.997  12.202   6.150
 9246POPC   C1A61743  15.990  12.065   6.450
 9246POPC   D2A61744  15.924  12.107   6.750
 9246POPC   C3A61745  15.969  12.115   7.050
 9246POPC   C4A61746  15.931  12.026   7.350
 9246POPC   C1B61747  16.111  12.227   6.450
 9246POPC   C2B61748  16.102  12.258   6.750
 9246POPC   C3B61749  16.109  12.235   7.050
 9246POPC   C4B61750  16.093  12.276   7.350
 9247POPC   NC361751   6.647  32.249   5.550
 9247POPC   PO461752   6.653  32.295   5.850
 9247POPC   GL161753   6.608  32.297   6.150
 9247POPC   GL261754   6.546  32.303   6.150
 9247POPC   C1A61755   6.678  32.284   6.450
 9247POPC   D2A61756   6.626  32.210   6.750
 9247POPC   C3A61757   6.608  32.294   7.050
 9247POPC   C4A61758   6.693  32.272   7.350
 9247POPC   C1B61759   6.378  32.320   6.450
 9247POPC   C2B61760   6.458  32.374   6.750
 9247POPC   C3B61761   6.384  32.336   7.050
 9247POPC   C4B61762   6.402  32.333   7.350
 9248POPC   NC361763  17.519  33.012   5.550
 9248POPC   PO461764  17.524  32.978   5.850
 9248POPC   GL161765  17.555  33.045   6.150
 9248POPC   GL261766  17.574  33.104   6.150
 9248POPC   C1A61767  17.551  33.070   6.450
 9248POPC   D2A61768  17.470  33.049   6.750
 9248POPC   C3A61769  17.555  33.034   7.050
 9248POPC   C4A61770  17.459  32.986   7.350
 9248POPC   C1B61771  17.692  33.201   6.450
 9248POPC   C2B61772  17.732  33.124   6.750
 9248POPC   C3B61773  17.749  33.206   7.050
 9248POPC   C4B61774  17.670  33.139   7.350
 9249POPC   NC361775  36.097  44.685   5.550
 9249POPC   PO461776  36.126  44.613   5.850
 9249POPC   GL161777  36.106  44.696   6.150
 9249POPC   GL261778  36.223  44.704   6.150
 9249POPC   C1A61779  36.161  44.670   6.450
 9249POPC   D2A61780  36.102  44.694   6.750
 9249POPC   C3A61781  36.083  44.671   7.050
 9249POPC   C4A61782  36.127  44.689   7.350
 9249POPC   C1B61783  36.364  44.624   6.450
 9249POPC   C2B61784  36.387  44.656   6.750
 9249POPC   C3B61785  36.370  44.700   7.050
 9249POPC   C4B61786  36.353  44.653   7.350
 9250POPC   NC361787   8.240  12.073   5.550
 9250POPC   PO461788   8.153  12.066   5.850
 9250POPC   GL161789   8.190  12.103   6.150
 9250POPC   GL261790   8.321  12.013   6.150
 9250POPC   C1A61791   8.187  12.029   6.450
 9250POPC   D2A61792   8.220  12.030   6.750
 9250POPC   C3A61793   8.151  12.035   7.050
 9250POPC   C4A61794   8.204  12.037   7.350
 9250POPC   C1B61795   8.456  11.978   6.450
 9250POPC   C2B61796   8.448  11.922   6.750
 9250POPC   C3B61797   8.368  11.989   7.050
 9250POPC   C4B61798   8.368  11.965   7.350
 9251POPC   NC361799   7.413  11.251   5.550
 9251POPC   PO461800   7.413  11.257   5.850
 9251POPC   GL161801   7.395  11.318   6.150
 9251POPC   GL261802   7.520  11.208   6.150
 9251POPC   C1A61803   7.454  11.255   6.450
 9251POPC   D2A61804   7.371  11.280   6.750
 9251POPC   C3A61805   7.377  11.305   7.050
 9251POPC   C4A61806   7.403  11.333   7.350
 9251POPC   C1B61807   7.594  11.137   6.450
 9251POPC   C2B61808   7.590  11.105   6.750
 9251POPC   C3B61809   7.576  11.158   7.050
 9251POPC   C4B61810   7.559  11.145   7.350
 9252POPC   NC361811  29.935  27.600   5.550
 9252POPC   PO461812  29.889  27.583   5.850
 9252POPC   GL161813  29.959  27.616   6.150
 9252POPC   GL261814  29.914  27.727   6.150
 9252POPC   C1A61815  29.897  27.595   6.450
 9252POPC   D2A61816  29.880  27.605   6.750
 9252POPC   C3A61817  29.969  27.638   7.050
 9252POPC   C4A61818  29.922  27.595   7.350
 9252POPC   C1B61819  29.865  27.854   6.450
 9252POPC   C2B61820  29.875  27.818   6.750
 9252POPC   C3B61821  29.887  27.871   7.050
 9252POPC   C4B61822  29.842  27.842   7.350
 9253POPC   NC361823  22.964  24.480   5.550
 9253POPC   PO461824  22.936  24.467   5.850
 9253POPC   GL161825  22.962  24.464   6.150
 9253POPC   GL261826  22.894  24.569   6.150
 9253POPC   C1A61827  22.973  24.511   6.450
 9253POPC   D2A61828  22.948  24.529   6.750
 9253POPC   C3A61829  22.917  24.472   7.050
 9253POPC   C4A61830  22.983  24.491   7.350
 9253POPC   C1B61831  22.761  24.696   6.450
 9253POPC   C2B61832  22.806  24.708   6.750
 9253POPC   C3B61833  22.780  24.668   7.050
 9253POPC   C4B61834  22.815  24.666   7.350
 9254POPC   NC361835  15.957  29.161   5.550
 9254POPC   PO461836  15.909  29.160   5.850
 9254POPC   GL161837  15.967  29.187   6.150
 9254POPC   GL261838  15.848  29.125   6.150
 9254POPC   C1A61839  15.996  29.096   6.450
 9254POPC   D2A61840  15.981  29.169   6.750
 9254POPC   C3A61841  15.997  29.150   7.050
 9254POPC   C4A61842  15.911  29.193   7.350
 9254POPC   C1B61843  15.664  29.120   6.450
 9254POPC   C2B61844  15.666  29.083   6.750
 9254POPC   C3B61845  15.730  29.104   7.050
 9254POPC   C4B61846  15.691  29.130   7.350
 9255POPC   NC361847  22.984  22.918   5.550
 9255POPC   PO461848  22.915  22.897   5.850
 9255POPC   GL161849  22.902  22.914   6.150
 9255POPC   GL261850  23.011  23.048   6.150
 9255POPC   C1A61851  22.894  22.929   6.450
 9255POPC   D2A61852  22.929  22.954   6.750
 9255POPC   C3A61853  22.947  22.933   7.050
 9255POPC   C4A61854  22.951  22.928   7.350
 9255POPC   C1B61855  23.068  23.122   6.450
 9255POPC   C2B61856  23.128  23.094   6.750
 9255POPC   C3B61857  23.101  23.108   7.050
 9255POPC   C4B61858  23.032  23.135   7.350
 9256POPC   NC361859  12.093  43.900   5.550
 9256POPC   PO461860  12.125  43.849   5.850
 9256POPC   GL161861  12.089  43.905   6.150
 9256POPC   GL261862  11.947  43.977   6.150
 9256POPC   C1A61863  12.110  43.898   6.450
 9256POPC   D2A61864  12.066  43.896   6.750
 9256POPC   C3A61865  12.103  43.837   7.050
 9256POPC   C4A61866  12.098  43.912   7.350
 9256POPC   C1B61867  11.809  44.014   6.450
 9256POPC   C2B61868  11.836  44.041   6.750
 9256POPC   C3B61869  11.819  43.990   7.050
 9256POPC   C4B61870  11.845  43.988   7.350
 9257POPC   NC361871  21.382  25.268   5.550
 9257POPC   PO461872  21.356  25.303   5.850
 9257POPC   GL161873  21.407  25.259   6.150
 9257POPC   GL261874  21.353  25.103   6.150
 9257POPC   C1A61875  21.378  25.216   6.450
 9257POPC   D2A61876  21.344  25.303   6.750
 9257POPC   C3A61877  21.423  25.218   7.050
 9257POPC   C4A61878  21.363  25.216   7.350
 9257POPC   C1B61879  21.414  25.024   6.450
 9257POPC   C2B61880  21.402  25.051   6.750
 9257POPC   C3B61881  21.334  25.063   7.050
 9257POPC   C4B61882  21.390  25.036   7.350
 9258POPC   NC361883  42.379   6.658   5.550
 9258POPC   PO461884  42.317   6.660   5.850
 9258POPC   GL161885  42.340   6.615   6.150
 9258POPC   GL261886  42.480   6.668   6.150
 9258POPC   C1A61887  42.320   6.684   6.450
 9258POPC   D2A61888  42.285   6.604   6.750
 9258POPC   C3A61889  42.384   6.605   7.050
 9258POPC   C4A61890  42.346   6.655   7.350
 9258POPC   C1B61891  42.513   6.783   6.450
 9258POPC   C2B61892  42.501   6.762   6.750
 9258POPC   C3B61893  42.562   6.761   7.050
 9258POPC   C4B61894  42.534   6.807   7.350
 9259POPC   NC361895  11.287  24.473   5.550
 9259POPC   PO461896  11.318  24.525   5.850
 9259POPC   GL161897  11.329  24.501   6.150
 9259POPC   GL261898  11.348  24.396   6.150
 9259POPC   C1A61899  11.344  24.464   6.450
 9259POPC   D2A61900  11.311  24.443   6.750
 9259POPC   C3A61901  11.332  24.503   7.050
 9259POPC   C4A61902  11.303  24.460   7.350
 9259POPC   C1B61903  11.354  24.287   6.450
 9259POPC   C2B61904  11.386  24.230   6.750
 9259POPC   C3B61905  11.310  24.256   7.050
 9259POPC   C4B61906  11.347  24.268   7.350
 9260POPC   NC361907  36.116  39.219   5.550
 9260POPC   PO461908  36.118  39.201   5.850
 9260POPC   GL161909  36.176  39.212   6.150
 9260POPC   GL261910  36.260  39.309   6.150
 9260POPC   C1A61911  36.145  39.239   6.450
 9260POPC   D2A61912  36.157  39.201   6.750
 9260POPC   C3A61913  36.084  39.233   7.050
 9260POPC   C4A61914  36.114  39.251   7.350
 9260POPC   C1B61915  36.339  39.386   6.450
 9260POPC   C2B61916  36.395  39.337   6.750
 9260POPC   C3B61917  36.301  39.305   7.050
 9260POPC   C4B61918  36.308  39.348   7.350
 9261POPC   NC361919  36.159  37.630   5.550
 9261POPC   PO461920  36.105  37.711   5.850
 9261POPC   GL161921  36.081  37.668   6.150
 9261POPC   GL261922  36.063  37.785   6.150
 9261POPC   C1A61923  36.160  37.659   6.450
 9261POPC   D2A61924  36.143  37.716   6.750
 9261POPC   C3A61925  36.135  37.649   7.050
 9261POPC   C4A61926  36.112  37.679   7.350
 9261POPC   C1B61927  36.063  37.943   6.450
 9261POPC   C2B61928  36.067  37.893   6.750
 9261POPC   C3B61929  36.073  37.954   7.050
 9261POPC   C4B61930  36.017  37.893   7.350
 9262POPC   NC361931  11.339  35.344   5.550
 9262POPC   PO461932  11.308  35.334   5.850
 9262POPC   GL161933  11.324  35.367   6.150
 9262POPC   GL261934  11.223  35.432   6.150
 9262POPC   C1A61935  11.296  35.374   6.450
 9262POPC   D2A61936  11.272  35.386   6.750
 9262POPC   C3A61937  11.287  35.351   7.050
 9262POPC   C4A61938  11.279  35.388   7.350
 9262POPC   C1B61939  11.071  35.534   6.450
 9262POPC   C2B61940  11.051  35.464   6.750
 9262POPC   C3B61941  11.072  35.510   7.050
 9262POPC   C4B61942  11.123  35.465   7.350
 9263POPC   NC361943  12.872  36.146   5.550
 9263POPC   PO461944  12.830  36.154   5.850
 9263POPC   GL161945  12.895  36.092   6.150
 9263POPC   GL261946  12.872  36.280   6.150
 9263POPC   C1A61947  12.897  36.121   6.450
 9263POPC   D2A61948  12.863  36.097   6.750
 9263POPC   C3A61949  12.893  36.087   7.050
 9263POPC   C4A61950  12.874  36.117   7.350
 9263POPC   C1B61951  12.762  36.405   6.450
 9263POPC   C2B61952  12.826  36.421   6.750
 9263POPC   C3B61953  12.818  36.359   7.050
 9263POPC   C4B61954  12.824  36.380   7.350
 9264POPC   NC361955  30.657  37.723   5.550
 9264POPC   PO461956  30.691  37.654   5.850
 9264POPC   GL161957  30.674  37.685   6.150
 9264POPC   GL261958  30.595  37.614   6.150
 9264POPC   C1A61959  30.689  37.684   6.450
 9264POPC   D2A61960  30.658  37.728   6.750
 9264POPC   C3A61961  30.686  37.722   7.050
 9264POPC   C4A61962  30.717  37.635   7.350
 9264POPC   C1B61963  30.458  37.584   6.450
 9264POPC   C2B61964  30.465  37.543   6.750
 9264POPC   C3B61965  30.536  37.579   7.050
 9264POPC   C4B61966  30.521  37.507   7.350
 9265POPC   NC361967  26.029  13.647   5.550
 9265POPC   PO461968  26.062  13.602   5.850
 9265POPC   GL161969  26.026  13.635   6.150
 9265POPC   GL261970  26.038  13.780   6.150
 9265POPC   C1A61971  26.078  13.600   6.450
 9265POPC   D2A61972  26.013  13.664   6.750
 9265POPC   C3A61973  26.019  13.591   7.050
 9265POPC   C4A61974  26.078  13.676   7.350
 9265POPC   C1B61975  25.935  13.871   6.450
 9265POPC   C2B61976  26.015  13.899   6.750
 9265POPC   C3B61977  26.003  13.869   7.050
 9265POPC   C4B61978  25.950  13.824   7.350
 9266POPC   NC361979  11.295   1.986   5.550
 9266POPC   PO461980  11.282   1.991   5.850
 9266POPC   GL161981  11.321   2.010   6.150
 9266POPC   GL261982  11.166   2.040   6.150
 9266POPC   C1A61983  11.281   1.946   6.450
 9266POPC   D2A61984  11.259   1.960   6.750
 9266POPC   C3A61985  11.349   1.997   7.050
 9266POPC   C4A61986  11.316   2.012   7.350
 9266POPC   C1B61987  11.053   2.068   6.450
 9266POPC   C2B61988  11.022   2.021   6.750
 9266POPC   C3B61989  11.065   2.098   7.050
 9266POPC   C4B61990  11.070   2.096   7.350
 9267POPC   NC361991  32.202  28.345   5.550
 9267POPC   PO461992  32.235  28.375   5.850
 9267POPC   GL161993  32.219  28.384   6.150
 9267POPC   GL261994  32.144  28.286   6.150
 9267POPC   C1A61995  32.223  28.400   6.450
 9267POPC   D2A61996  32.278  28.368   6.750
 9267POPC   C3A61997  32.238  28.368   7.050
 9267POPC   C4A61998  32.288  28.336   7.350
 9267POPC   C1B61999  32.125  28.158   6.450
 9267POPC   C2B62000  32.098  28.210   6.750
 9267POPC   C3B62001  32.081  28.227   7.050
 9267POPC   C4B62002  32.054  28.182   7.350
 9268POPC   NC362003   0.410  30.650   5.550
 9268POPC   PO462004   0.395  30.670   5.850
 9268POPC   GL162005   0.470  30.676   6.150
 9268POPC   GL262006   0.366  30.764   6.150
 9268POPC   C1A62007   0.418  30.681   6.450
 9268POPC   D2A62008   0.441  30.704   6.750
 9268POPC   C3A62009   0.472  30.694   7.050
 9268POPC   C4A62010   0.423  30.675   7.350
 9268POPC   C1B62011   0.240  30.779   6.450
 9268POPC   C2B62012   0.239  30.783   6.750
 9268POPC   C3B62013   0.182  30.750   7.050
 9268POPC   C4B62014   0.153  30.754   7.350
 9269POPC   NC362015  19.102  19.865   5.550
 9269POPC   PO462016  19.089  19.842   5.850
 9269POPC   GL162017  19.103  19.815   6.150
 9269POPC   GL262018  19.073  19.757   6.150
 9269POPC   C1A62019  19.088  19.877   6.450
 9269POPC   D2A62020  19.106  19.884   6.750
 9269POPC   C3A62021  19.061  19.841   7.050
 9269POPC   C4A62022  19.011  19.882   7.350
 9269POPC   C1B62023  19.069  19.606   6.450
 9269POPC   C2B62024  19.061  19.617   6.750
 9269POPC   C3B62025  19.084  19.610   7.050
 9269POPC   C4B62026  19.102  19.574   7.350
 9270POPC   NC362027  38.444  22.178   5.550
 9270POPC   PO462028  38.502  22.203   5.850
 9270POPC   GL162029  38.423  22.204   6.150
 9270POPC   GL262030  38.379  22.253   6.150
 9270POPC   C1A62031  38.503  22.187   6.450
 9270POPC   D2A62032  38.485  22.134   6.750
 9270POPC   C3A62033  38.458  22.172   7.050
 9270POPC   C4A62034  38.423  22.192   7.350
 9270POPC   C1B62035  38.319  22.401   6.450
 9270POPC   C2B62036  38.302  22.317   6.750
 9270POPC   C3B62037  38.355  22.384   7.050
 9270POPC   C4B62038  38.352  22.368   7.350
 9271POPC   NC362039  29.134   1.246   5.550
 9271POPC   PO462040  29.158   1.166   5.850
 9271POPC   GL162041  29.154   1.168   6.150
 9271POPC   GL262042  29.073   1.341   6.150
 9271POPC   C1A62043  29.182   1.190   6.450
 9271POPC   D2A62044  29.128   1.229   6.750
 9271POPC   C3A62045  29.173   1.199   7.050
 9271POPC   C4A62046  29.188   1.189   7.350
 9271POPC   C1B62047  28.999   1.445   6.450
 9271POPC   C2B62048  28.946   1.451   6.750
 9271POPC   C3B62049  28.996   1.407   7.050
 9271POPC   C4B62050  28.969   1.450   7.350
 9272POPC   NC362051  39.994  28.357   5.550
 9272POPC   PO462052  40.022  28.374   5.850
 9272POPC   GL162053  40.013  28.417   6.150
 9272POPC   GL262054  40.124  28.415   6.150
 9272POPC   C1A62055  40.057  28.335   6.450
 9272POPC   D2A62056  40.038  28.371   6.750
 9272POPC   C3A62057  40.019  28.337   7.050
 9272POPC   C4A62058  40.007  28.411   7.350
 9272POPC   C1B62059  40.153  28.513   6.450
 9272POPC   C2B62060  40.192  28.562   6.750
 9272POPC   C3B62061  40.143  28.542   7.050
 9272POPC   C4B62062  40.173  28.587   7.350
 9273POPC   NC362063  28.405  22.207   5.550
 9273POPC   PO462064  28.364  22.178   5.850
 9273POPC   GL162065  28.354  22.196   6.150
 9273POPC   GL262066  28.291  22.314   6.150
 9273POPC   C1A62067  28.369  22.186   6.450
 9273POPC   D2A62068  28.361  22.176   6.750
 9273POPC   C3A62069  28.359  22.169   7.050
 9273POPC   C4A62070  28.402  22.153   7.350
 9273POPC   C1B62071  28.256  22.409   6.450
 9273POPC   C2B62072  28.199  22.337   6.750
 9273POPC   C3B62073  28.270  22.353   7.050
 9273POPC   C4B62074  28.281  22.419   7.350
 9274POPC   NC362075  13.596  21.357   5.550
 9274POPC   PO462076  13.668  21.409   5.850
 9274POPC   GL162077  13.630  21.424   6.150
 9274POPC   GL262078  13.650  21.521   6.150
 9274POPC   C1A62079  13.633  21.435   6.450
 9274POPC   D2A62080  13.677  21.374   6.750
 9274POPC   C3A62081  13.659  21.375   7.050
 9274POPC   C4A62082  13.647  21.397   7.350
 9274POPC   C1B62083  13.619  21.642   6.450
 9274POPC   C2B62084  13.686  21.637   6.750
 9274POPC   C3B62085  13.696  21.642   7.050
 9274POPC   C4B62086  13.677  21.675   7.350
 9275POPC   NC362087  40.787  17.536   5.550
 9275POPC   PO462088  40.759  17.510   5.850
 9275POPC   GL162089  40.804  17.472   6.150
 9275POPC   GL262090  40.740  17.616   6.150
 9275POPC   C1A62091  40.739  17.552   6.450
 9275POPC   D2A62092  40.815  17.530   6.750
 9275POPC   C3A62093  40.813  17.539   7.050
 9275POPC   C4A62094  40.804  17.485   7.350
 9275POPC   C1B62095  40.624  17.684   6.450
 9275POPC   C2B62096  40.622  17.712   6.750
 9275POPC   C3B62097  40.624  17.710   7.050
 9275POPC   C4B62098  40.644  17.688   7.350
 9276POPC   NC362099  22.115  20.568   5.550
 9276POPC   PO462100  22.136  20.610   5.850
 9276POPC   GL162101  22.174  20.561   6.150
 9276POPC   GL262102  21.993  20.636   6.150
 9276POPC   C1A62103  22.150  20.626   6.450
 9276POPC   D2A62104  22.207  20.619   6.750
 9276POPC   C3A62105  22.132  20.569   7.050
 9276POPC   C4A62106  22.151  20.613   7.350
 9276POPC   C1B62107  21.862  20.591   6.450
 9276POPC   C2B62108  21.893  20.574   6.750
 9276POPC   C3B62109  21.921  20.648   7.050
 9276POPC   C4B62110  21.956  20.658   7.350
 9277POPC   NC362111   9.759  22.979   5.550
 9277POPC   PO462112   9.798  22.941   5.850
 9277POPC   GL162113   9.757  22.939   6.150
 9277POPC   GL262114   9.836  23.053   6.150
 9277POPC   C1A62115   9.751  22.918   6.450
 9277POPC   D2A62116   9.788  22.922   6.750
 9277POPC   C3A62117   9.725  22.901   7.050
 9277POPC   C4A62118   9.777  22.914   7.350
 9277POPC   C1B62119   9.950  23.123   6.450
 9277POPC   C2B62120   9.992  23.053   6.750
 9277POPC   C3B62121   9.909  23.132   7.050
 9277POPC   C4B62122   9.987  23.098   7.350
 9278POPC   NC362123   0.465  31.447   5.550
 9278POPC   PO462124   0.483  31.433   5.850
 9278POPC   GL162125   0.410  31.443   6.150
 9278POPC   GL262126   0.561  31.500   6.150
 9278POPC   C1A62127   0.458  31.475   6.450
 9278POPC   D2A62128   0.450  31.451   6.750
 9278POPC   C3A62129   0.425  31.502   7.050
 9278POPC   C4A62130   0.482  31.449   7.350
 9278POPC   C1B62131   0.704  31.436   6.450
 9278POPC   C2B62132   0.708  31.500   6.750
 9278POPC   C3B62133   0.718  31.409   7.050
 9278POPC   C4B62134   0.666  31.447   7.350
 9279POPC   NC362135  43.061  29.881   5.550
 9279POPC   PO462136  43.062  29.971   5.850
 9279POPC   GL162137  43.160  29.956   6.150
 9279POPC   GL262138  43.045  29.821   6.150
 9279POPC   C1A62139  43.081  29.892   6.450
 9279POPC   D2A62140  43.138  29.948   6.750
 9279POPC   C3A62141  43.109  29.949   7.050
 9279POPC   C4A62142  43.136  29.885   7.350
 9279POPC   C1B62143  42.944  29.741   6.450
 9279POPC   C2B62144  42.925  29.778   6.750
 9279POPC   C3B62145  42.889  29.714   7.050
 9279POPC   C4B62146  42.945  29.776   7.350
 9280POPC   NC362147  29.180  29.184   5.550
 9280POPC   PO462148  29.097  29.154   5.850
 9280POPC   GL162149  29.181  29.176   6.150
 9280POPC   GL262150  28.980  29.210   6.150
 9280POPC   C1A62151  29.185  29.174   6.450
 9280POPC   D2A62152  29.168  29.157   6.750
 9280POPC   C3A62153  29.108  29.152   7.050
 9280POPC   C4A62154  29.142  29.191   7.350
 9280POPC   C1B62155  28.921  29.248   6.450
 9280POPC   C2B62156  28.883  29.229   6.750
 9280POPC   C3B62157  28.922  29.162   7.050
 9280POPC   C4B62158  28.939  29.213   7.350
 9281POPC   NC362159  12.051  11.310   5.550
 9281POPC   PO462160  12.112  11.330   5.850
 9281POPC   GL162161  12.078  11.314   6.150
 9281POPC   GL262162  11.914  11.263   6.150
 9281POPC   C1A62163  12.114  11.298   6.450
 9281POPC   D2A62164  12.071  11.260   6.750
 9281POPC   C3A62165  12.078  11.321   7.050
 9281POPC   C4A62166  12.052  11.295   7.350
 9281POPC   C1B62167  11.803  11.245   6.450
 9281POPC   C2B62168  11.861  11.207   6.750
 9281POPC   C3B62169  11.849  11.293   7.050
 9281POPC   C4B62170  11.798  11.277   7.350
 9282POPC   NC362171  30.695  32.237   5.550
 9282POPC   PO462172  30.648  32.263   5.850
 9282POPC   GL162173  30.736  32.221   6.150
 9282POPC   GL262174  30.796  32.320   6.150
 9282POPC   C1A62175  30.680  32.222   6.450
 9282POPC   D2A62176  30.667  32.283   6.750
 9282POPC   C3A62177  30.729  32.239   7.050
 9282POPC   C4A62178  30.728  32.285   7.350
 9282POPC   C1B62179  30.872  32.389   6.450
 9282POPC   C2B62180  30.909  32.395   6.750
 9282POPC   C3B62181  30.842  32.438   7.050
 9282POPC   C4B62182  30.905  32.411   7.350
 9283POPC   NC362183  19.802  41.583   5.550
 9283POPC   PO462184  19.797  41.522   5.850
 9283POPC   GL162185  19.822  41.574   6.150
 9283POPC   GL262186  19.702  41.503   6.150
 9283POPC   C1A62187  19.862  41.550   6.450
 9283POPC   D2A62188  19.864  41.563   6.750
 9283POPC   C3A62189  19.809  41.546   7.050
 9283POPC   C4A62190  19.795  41.564   7.350
 9283POPC   C1B62191  19.542  41.544   6.450
 9283POPC   C2B62192  19.639  41.464   6.750
 9283POPC   C3B62193  19.619  41.483   7.050
 9283POPC   C4B62194  19.626  41.493   7.350
 9284POPC   NC362195  19.878  40.792   5.550
 9284POPC   PO462196  19.880  40.810   5.850
 9284POPC   GL162197  19.862  40.827   6.150
 9284POPC   GL262198  19.736  40.870   6.150
 9284POPC   C1A62199  19.793  40.832   6.450
 9284POPC   D2A62200  19.859  40.818   6.750
 9284POPC   C3A62201  19.855  40.820   7.050
 9284POPC   C4A62202  19.834  40.783   7.350
 9284POPC   C1B62203  19.674  40.940   6.450
 9284POPC   C2B62204  19.612  40.949   6.750
 9284POPC   C3B62205  19.662  40.931   7.050
 9284POPC   C4B62206  19.665  41.000   7.350
 9285POPC   NC362207  11.289  12.901   5.550
 9285POPC   PO462208  11.284  12.816   5.850
 9285POPC   GL162209  11.345  12.815   6.150
 9285POPC   GL262210  11.209  12.814   6.150
 9285POPC   C1A62211  11.344  12.860   6.450
 9285POPC   D2A62212  11.282  12.845   6.750
 9285POPC   C3A62213  11.328  12.883   7.050
 9285POPC   C4A62214  11.253  12.823   7.350
 9285POPC   C1B62215  11.064  12.701   6.450
 9285POPC   C2B62216  11.097  12.689   6.750
 9285POPC   C3B62217  11.053  12.724   7.050
 9285POPC   C4B62218  11.093  12.757   7.350
 9286POPC   NC362219  44.670  41.539   5.550
 9286POPC   PO462220  44.657  41.591   5.850
 9286POPC   GL162221  44.678  41.547   6.150
 9286POPC   GL262222  44.602  41.693   6.150
 9286POPC   C1A62223  44.649  41.588   6.450
 9286POPC   D2A62224  44.706  41.543   6.750
 9286POPC   C3A62225  44.630  41.573   7.050
 9286POPC   C4A62226  44.631  41.521   7.350
 9286POPC   C1B62227  44.480  41.702   6.450
 9286POPC   C2B62228  44.504  41.750   6.750
 9286POPC   C3B62229  44.512  41.713   7.050
 9286POPC   C4B62230  44.525  41.715   7.350
 9287POPC   NC362231  40.763  43.107   5.550
 9287POPC   PO462232  40.813  43.081   5.850
 9287POPC   GL162233  40.816  43.103   6.150
 9287POPC   GL262234  40.859  43.190   6.150
 9287POPC   C1A62235  40.737  43.077   6.450
 9287POPC   D2A62236  40.778  43.064   6.750
 9287POPC   C3A62237  40.786  43.080   7.050
 9287POPC   C4A62238  40.787  43.137   7.350
 9287POPC   C1B62239  40.937  43.257   6.450
 9287POPC   C2B62240  40.994  43.233   6.750
 9287POPC   C3B62241  40.923  43.232   7.050
 9287POPC   C4B62242  40.954  43.322   7.350
 9288POPC   NC362243  12.889  29.912   5.550
 9288POPC   PO462244  12.824  29.903   5.850
 9288POPC   GL162245  12.804  29.955   6.150
 9288POPC   GL262246  12.746  29.946   6.150
 9288POPC   C1A62247  12.876  29.933   6.450
 9288POPC   D2A62248  12.806  29.960   6.750
 9288POPC   C3A62249  12.813  29.968   7.050
 9288POPC   C4A62250  12.806  29.887   7.350
 9288POPC   C1B62251  12.648  29.985   6.450
 9288POPC   C2B62252  12.584  29.970   6.750
 9288POPC   C3B62253  12.575  29.952   7.050
 9288POPC   C4B62254  12.583  29.919   7.350
 9289POPC   NC362255   8.152  20.655   5.550
 9289POPC   PO462256   8.155  20.602   5.850
 9289POPC   GL162257   8.202  20.623   6.150
 9289POPC   GL262258   8.279  20.580   6.150
 9289POPC   C1A62259   8.235  20.564   6.450
 9289POPC   D2A62260   8.194  20.585   6.750
 9289POPC   C3A62261   8.175  20.639   7.050
 9289POPC   C4A62262   8.226  20.571   7.350
 9289POPC   C1B62263   8.454  20.539   6.450
 9289POPC   C2B62264   8.464  20.563   6.750
 9289POPC   C3B62265   8.388  20.576   7.050
 9289POPC   C4B62266   8.445  20.549   7.350
 9290POPC   NC362267  32.216   7.380   5.550
 9290POPC   PO462268  32.268   7.464   5.850
 9290POPC   GL162269  32.276   7.387   6.150
 9290POPC   GL262270  32.114   7.341   6.150
 9290POPC   C1A62271  32.277   7.444   6.450
 9290POPC   D2A62272  32.224   7.455   6.750
 9290POPC   C3A62273  32.241   7.440   7.050
 9290POPC   C4A62274  32.206   7.380   7.350
 9290POPC   C1B62275  32.099   7.268   6.450
 9290POPC   C2B62276  32.094   7.219   6.750
 9290POPC   C3B62277  32.125   7.265   7.050
 9290POPC   C4B62278  32.077   7.203   7.350
 9291POPC   NC362279  36.154  13.604   5.550
 9291POPC   PO462280  36.139  13.676   5.850
 9291POPC   GL162281  36.160  13.617   6.150
 9291POPC   GL262282  36.168  13.752   6.150
 9291POPC   C1A62283  36.116  13.607   6.450
 9291POPC   D2A62284  36.160  13.608   6.750
 9291POPC   C3A62285  36.126  13.603   7.050
 9291POPC   C4A62286  36.101  13.611   7.350
 9291POPC   C1B62287  36.273  13.845   6.450
 9291POPC   C2B62288  36.319  13.780   6.750
 9291POPC   C3B62289  36.270  13.799   7.050
 9291POPC   C4B62290  36.289  13.818   7.350
 9292POPC   NC362291  28.407  15.193   5.550
 9292POPC   PO462292  28.328  15.130   5.850
 9292POPC   GL162293  28.342  15.204   6.150
 9292POPC   GL262294  28.322  15.059   6.150
 9292POPC   C1A62295  28.398  15.205   6.450
 9292POPC   D2A62296  28.393  15.155   6.750
 9292POPC   C3A62297  28.376  15.214   7.050
 9292POPC   C4A62298  28.396  15.174   7.350
 9292POPC   C1B62299  28.221  15.002   6.450
 9292POPC   C2B62300  28.198  15.033   6.750
 9292POPC   C3B62301  28.239  15.045   7.050
 9292POPC   C4B62302  28.211  14.995   7.350
 9293POPC   NC362303  42.360   3.518   5.550
 9293POPC   PO462304  42.297   3.545   5.850
 9293POPC   GL162305  42.350   3.544   6.150
 9293POPC   GL262306  42.470   3.611   6.150
 9293POPC   C1A62307  42.362   3.522   6.450
 9293POPC   D2A62308  42.349   3.558   6.750
 9293POPC   C3A62309  42.358   3.526   7.050
 9293POPC   C4A62310  42.349   3.528   7.350
 9293POPC   C1B62311  42.471   3.690   6.450
 9293POPC   C2B62312  42.520   3.719   6.750
 9293POPC   C3B62313  42.538   3.728   7.050
 9293POPC   C4B62314  42.492   3.746   7.350
 9294POPC   NC362315   0.433  15.222   5.550
 9294POPC   PO462316   0.402  15.194   5.850
 9294POPC   GL162317   0.431  15.190   6.150
 9294POPC   GL262318   0.595  15.097   6.150
 9294POPC   C1A62319   0.481  15.204   6.450
 9294POPC   D2A62320   0.415  15.217   6.750
 9294POPC   C3A62321   0.449  15.179   7.050
 9294POPC   C4A62322   0.389  15.140   7.350
 9294POPC   C1B62323   0.663  15.103   6.450
 9294POPC   C2B62324   0.612  15.090   6.750
 9294POPC   C3B62325   0.699  15.079   7.050
 9294POPC   C4B62326   0.642  15.099   7.350
 9295POPC   NC362327  40.006  32.198   5.550
 9295POPC   PO462328  40.041  32.241   5.850
 9295POPC   GL162329  40.020  32.206   6.150
 9295POPC   GL262330  39.955  32.124   6.150
 9295POPC   C1A62331  39.962  32.285   6.450
 9295POPC   D2A62332  39.957  32.242   6.750
 9295POPC   C3A62333  39.986  32.249   7.050
 9295POPC   C4A62334  39.989  32.286   7.350
 9295POPC   C1B62335  39.888  32.050   6.450
 9295POPC   C2B62336  39.911  32.040   6.750
 9295POPC   C3B62337  39.882  32.042   7.050
 9295POPC   C4B62338  39.901  32.055   7.350
 9296POPC   NC362339  19.107  22.184   5.550
 9296POPC   PO462340  19.054  22.120   5.850
 9296POPC   GL162341  19.015  22.180   6.150
 9296POPC   GL262342  18.911  22.185   6.150
 9296POPC   C1A62343  19.102  22.116   6.450
 9296POPC   D2A62344  19.089  22.124   6.750
 9296POPC   C3A62345  19.085  22.181   7.050
 9296POPC   C4A62346  19.019  22.196   7.350
 9296POPC   C1B62347  18.845  22.190   6.450
 9296POPC   C2B62348  18.790  22.225   6.750
 9296POPC   C3B62349  18.835  22.226   7.050
 9296POPC   C4B62350  18.794  22.226   7.350
 9297POPC   NC362351  18.281  24.525   5.550
 9297POPC   PO462352  18.265  24.530   5.850
 9297POPC   GL162353  18.331  24.471   6.150
 9297POPC   GL262354  18.418  24.410   6.150
 9297POPC   C1A62355  18.260  24.516   6.450
 9297POPC   D2A62356  18.286  24.496   6.750
 9297POPC   C3A62357  18.299  24.538   7.050
 9297POPC   C4A62358  18.271  24.441   7.350
 9297POPC   C1B62359  18.481  24.355   6.450
 9297POPC   C2B62360  18.453  24.356   6.750
 9297POPC   C3B62361  18.522  24.371   7.050
 9297POPC   C4B62362  18.446  24.353   7.350
 9298POPC   NC362363   1.200  37.727   5.550
 9298POPC   PO462364   1.179  37.726   5.850
 9298POPC   GL162365   1.181  37.681   6.150
 9298POPC   GL262366   1.180  37.812   6.150
 9298POPC   C1A62367   1.206  37.705   6.450
 9298POPC   D2A62368   1.171  37.638   6.750
 9298POPC   C3A62369   1.196  37.711   7.050
 9298POPC   C4A62370   1.259  37.717   7.350
 9298POPC   C1B62371   1.188  37.938   6.450
 9298POPC   C2B62372   1.176  37.974   6.750
 9298POPC   C3B62373   1.153  37.896   7.050
 9298POPC   C4B62374   1.203  37.960   7.350
 9299POPC   NC362375  29.962  33.840   5.550
 9299POPC   PO462376  29.909  33.779   5.850
 9299POPC   GL162377  29.871  33.795   6.150
 9299POPC   GL262378  30.044  33.746   6.150
 9299POPC   C1A62379  29.934  33.807   6.450
 9299POPC   D2A62380  29.965  33.821   6.750
 9299POPC   C3A62381  29.951  33.819   7.050
 9299POPC   C4A62382  29.956  33.806   7.350
 9299POPC   C1B62383  30.209  33.734   6.450
 9299POPC   C2B62384  30.202  33.769   6.750
 9299POPC   C3B62385  30.147  33.779   7.050
 9299POPC   C4B62386  30.161  33.691   7.350
 9300POPC   NC362387   3.576  39.212   5.550
 9300POPC   PO462388   3.585  39.248   5.850
 9300POPC   GL162389   3.543  39.267   6.150
 9300POPC   GL262390   3.451  39.192   6.150
 9300POPC   C1A62391   3.583  39.266   6.450
 9300POPC   D2A62392   3.533  39.266   6.750
 9300POPC   C3A62393   3.559  39.205   7.050
 9300POPC   C4A62394   3.572  39.246   7.350
 9300POPC   C1B62395   3.335  39.012   6.450
 9300POPC   C2B62396   3.325  39.005   6.750
 9300POPC   C3B62397   3.348  39.038   7.050
 9300POPC   C4B62398   3.362  39.096   7.350
 9301POPC   NC362399  21.425   0.389   5.550
 9301POPC   PO462400  21.366   0.458   5.850
 9301POPC   GL162401  21.425   0.475   6.150
 9301POPC   GL262402  21.502   0.501   6.150
 9301POPC   C1A62403  21.404   0.481   6.450
 9301POPC   D2A62404  21.420   0.434   6.750
 9301POPC   C3A62405  21.398   0.404   7.050
 9301POPC   C4A62406  21.406   0.421   7.350
 9301POPC   C1B62407  21.626   0.577   6.450
 9301POPC   C2B62408  21.664   0.531   6.750
 9301POPC   C3B62409  21.632   0.555   7.050
 9301POPC   C4B62410  21.617   0.510   7.350
 9302POPC   NC362411  31.490   0.418   5.550
 9302POPC   PO462412  31.472   0.466   5.850
 9302POPC   GL162413  31.468   0.446   6.150
 9302POPC   GL262414  31.414   0.366   6.150
 9302POPC   C1A62415  31.449   0.473   6.450
 9302POPC   D2A62416  31.518   0.425   6.750
 9302POPC   C3A62417  31.516   0.409   7.050
 9302POPC   C4A62418  31.447   0.396   7.350
 9302POPC   C1B62419  31.377   0.177   6.450
 9302POPC   C2B62420  31.381   0.237   6.750
 9302POPC   C3B62421  31.321   0.216   7.050
 9302POPC   C4B62422  31.384   0.227   7.350
 9303POPC   NC362423   2.747  29.950   5.550
 9303POPC   PO462424   2.771  29.900   5.850
 9303POPC   GL162425   2.786  29.960   6.150
 9303POPC   GL262426   2.895  29.989   6.150
 9303POPC   C1A62427   2.765  29.908   6.450
 9303POPC   D2A62428   2.791  29.946   6.750
 9303POPC   C3A62429   2.776  29.902   7.050
 9303POPC   C4A62430   2.730  29.964   7.350
 9303POPC   C1B62431   3.024  30.023   6.450
 9303POPC   C2B62432   2.969  29.958   6.750
 9303POPC   C3B62433   2.968  30.045   7.050
 9303POPC   C4B62434   3.033  30.041   7.350
 9304POPC   NC362435  17.463  34.584   5.550
 9304POPC   PO462436  17.505  34.543   5.850
 9304POPC   GL162437  17.478  34.607   6.150
 9304POPC   GL262438  17.611  34.606   6.150
 9304POPC   C1A62439  17.489  34.590   6.450
 9304POPC   D2A62440  17.484  34.534   6.750
 9304POPC   C3A62441  17.511  34.611   7.050
 9304POPC   C4A62442  17.471  34.545   7.350
 9304POPC   C1B62443  17.750  34.628   6.450
 9304POPC   C2B62444  17.768  34.659   6.750
 9304POPC   C3B62445  17.694  34.681   7.050
 9304POPC   C4B62446  17.784  34.614   7.350
 9305POPC   NC362447   5.118  35.348   5.550
 9305POPC   PO462448   5.111  35.383   5.850
 9305POPC   GL162449   5.069  35.326   6.150
 9305POPC   GL262450   5.194  35.471   6.150
 9305POPC   C1A62451   5.094  35.373   6.450
 9305POPC   D2A62452   5.062  35.332   6.750
 9305POPC   C3A62453   5.089  35.362   7.050
 9305POPC   C4A62454   5.056  35.356   7.350
 9305POPC   C1B62455   5.159  35.543   6.450
 9305POPC   C2B62456   5.250  35.554   6.750
 9305POPC   C3B62457   5.226  35.600   7.050
 9305POPC   C4B62458   5.194  35.528   7.350
 9306POPC   NC362459  37.690   1.248   5.550
 9306POPC   PO462460  37.713   1.169   5.850
 9306POPC   GL162461  37.644   1.212   6.150
 9306POPC   GL262462  37.767   1.178   6.150
 9306POPC   C1A62463  37.655   1.207   6.450
 9306POPC   D2A62464  37.693   1.167   6.750
 9306POPC   C3A62465  37.679   1.231   7.050
 9306POPC   C4A62466  37.663   1.197   7.350
 9306POPC   C1B62467  37.937   1.168   6.450
 9306POPC   C2B62468  37.942   1.166   6.750
 9306POPC   C3B62469  37.920   1.166   7.050
 9306POPC   C4B62470  37.938   1.171   7.350
 9307POPC   NC362471  34.535  15.966   5.550
 9307POPC   PO462472  34.591  15.908   5.850
 9307POPC   GL162473  34.581  15.966   6.150
 9307POPC   GL262474  34.708  15.924   6.150
 9307POPC   C1A62475  34.605  15.994   6.450
 9307POPC   D2A62476  34.533  15.943   6.750
 9307POPC   C3A62477  34.587  15.935   7.050
 9307POPC   C4A62478  34.544  15.956   7.350
 9307POPC   C1B62479  34.785  15.880   6.450
 9307POPC   C2B62480  34.823  15.885   6.750
 9307POPC   C3B62481  34.811  15.858   7.050
 9307POPC   C4B62482  34.814  15.855   7.350
 9308POPC   NC362483  32.206  10.512   5.550
 9308POPC   PO462484  32.201  10.546   5.850
 9308POPC   GL162485  32.287  10.507   6.150
 9308POPC   GL262486  32.293  10.623   6.150
 9308POPC   C1A62487  32.269  10.560   6.450
 9308POPC   D2A62488  32.202  10.530   6.750
 9308POPC   C3A62489  32.281  10.495   7.050
 9308POPC   C4A62490  32.220  10.511   7.350
 9308POPC   C1B62491  32.423  10.734   6.450
 9308POPC   C2B62492  32.447  10.674   6.750
 9308POPC   C3B62493  32.389  10.754   7.050
 9308POPC   C4B62494  32.399  10.741   7.350
 9309POPC   NC362495  39.206  14.396   5.550
 9309POPC   PO462496  39.212  14.361   5.850
 9309POPC   GL162497  39.206  14.442   6.150
 9309POPC   GL262498  39.101  14.340   6.150
 9309POPC   C1A62499  39.219  14.366   6.450
 9309POPC   D2A62500  39.271  14.358   6.750
 9309POPC   C3A62501  39.248  14.414   7.050
 9309POPC   C4A62502  39.264  14.436   7.350
 9309POPC   C1B62503  39.058  14.258   6.450
 9309POPC   C2B62504  38.989  14.266   6.750
 9309POPC   C3B62505  39.036  14.275   7.050
 9309POPC   C4B62506  38.978  14.310   7.350
 9310POPC   NC362507  14.421  36.878   5.550
 9310POPC   PO462508  14.404  36.873   5.850
 9310POPC   GL162509  14.383  36.900   6.150
 9310POPC   GL262510  14.360  36.787   6.150
 9310POPC   C1A62511  14.380  36.951   6.450
 9310POPC   D2A62512  14.428  36.913   6.750
 9310POPC   C3A62513  14.360  36.936   7.050
 9310POPC   C4A62514  14.379  36.864   7.350
 9310POPC   C1B62515  14.311  36.664   6.450
 9310POPC   C2B62516  14.345  36.664   6.750
 9310POPC   C3B62517  14.264  36.657   7.050
 9310POPC   C4B62518  14.343  36.621   7.350
 9311POPC   NC362519  33.024  16.774   5.550
 9311POPC   PO462520  33.055  16.736   5.850
 9311POPC   GL162521  32.981  16.766   6.150
 9311POPC   GL262522  33.051  16.620   6.150
 9311POPC   C1A62523  33.066  16.766   6.450
 9311POPC   D2A62524  33.018  16.766   6.750
 9311POPC   C3A62525  33.042  16.705   7.050
 9311POPC   C4A62526  33.054  16.722   7.350
 9311POPC   C1B62527  33.108  16.464   6.450
 9311POPC   C2B62528  33.191  16.554   6.750
 9311POPC   C3B62529  33.144  16.475   7.050
 9311POPC   C4B62530  33.130  16.543   7.350
 9312POPC   NC362531   8.210  13.593   5.550
 9312POPC   PO462532   8.197  13.637   5.850
 9312POPC   GL162533   8.242  13.634   6.150
 9312POPC   GL262534   8.117  13.752   6.150
 9312POPC   C1A62535   8.195  13.609   6.450
 9312POPC   D2A62536   8.186  13.589   6.750
 9312POPC   C3A62537   8.246  13.639   7.050
 9312POPC   C4A62538   8.155  13.662   7.350
 9312POPC   C1B62539   8.070  13.783   6.450
 9312POPC   C2B62540   8.074  13.840   6.750
 9312POPC   C3B62541   8.072  13.803   7.050
 9312POPC   C4B62542   7.992  13.855   7.350
 9313POPC   NC362543  24.510  31.499   5.550
 9313POPC   PO462544  24.495  31.477   5.850
 9313POPC   GL162545  24.518  31.482   6.150
 9313POPC   GL262546  24.358  31.568   6.150
 9313POPC   C1A62547  24.522  31.427   6.450
 9313POPC   D2A62548  24.537  31.466   6.750
 9313POPC   C3A62549  24.490  31.520   7.050
 9313POPC   C4A62550  24.501  31.507   7.350
 9313POPC   C1B62551  24.284  31.612   6.450
 9313POPC   C2B62552  24.273  31.638   6.750
 9313POPC   C3B62553  24.307  31.571   7.050
 9313POPC   C4B62554  24.311  31.576   7.350
 9314POPC   NC362555  41.526  13.582   5.550
 9314POPC   PO462556  41.551  13.619   5.850
 9314POPC   GL162557  41.523  13.646   6.150
 9314POPC   GL262558  41.664  13.616   6.150
 9314POPC   C1A62559  41.605  13.623   6.450
 9314POPC   D2A62560  41.600  13.599   6.750
 9314POPC   C3A62561  41.571  13.640   7.050
 9314POPC   C4A62562  41.600  13.587   7.350
 9314POPC   C1B62563  41.759  13.560   6.450
 9314POPC   C2B62564  41.753  13.493   6.750
 9314POPC   C3B62565  41.764  13.548   7.050
 9314POPC   C4B62566  41.799  13.546   7.350
 9315POPC   NC362567  29.146  30.659   5.550
 9315POPC   PO462568  29.144  30.733   5.850
 9315POPC   GL162569  29.187  30.723   6.150
 9315POPC   GL262570  29.304  30.675   6.150
 9315POPC   C1A62571  29.147  30.713   6.450
 9315POPC   D2A62572  29.158  30.738   6.750
 9315POPC   C3A62573  29.165  30.692   7.050
 9315POPC   C4A62574  29.131  30.696   7.350
 9315POPC   C1B62575  29.431  30.775   6.450
 9315POPC   C2B62576  29.368  30.754   6.750
 9315POPC   C3B62577  29.419  30.706   7.050
 9315POPC   C4B62578  29.366  30.725   7.350
 9316POPC   NC362579  36.944   1.248   5.550
 9316POPC   PO462580  36.935   1.249   5.850
 9316POPC   GL162581  36.872   1.250   6.150
 9316POPC   GL262582  36.884   1.358   6.150
 9316POPC   C1A62583  36.918   1.170   6.450
 9316POPC   D2A62584  36.875   1.211   6.750
 9316POPC   C3A62585  36.889   1.172   7.050
 9316POPC   C4A62586  36.896   1.248   7.350
 9316POPC   C1B62587  36.811   1.413   6.450
 9316POPC   C2B62588  36.854   1.492   6.750
 9316POPC   C3B62589  36.808   1.402   7.050
 9316POPC   C4B62590  36.789   1.402   7.350
 9317POPC   NC362591   0.412  24.528   5.550
 9317POPC   PO462592   0.388  24.521   5.850
 9317POPC   GL162593   0.423  24.511   6.150
 9317POPC   GL262594   0.362  24.404   6.150
 9317POPC   C1A62595   0.397  24.474   6.450
 9317POPC   D2A62596   0.472  24.508   6.750
 9317POPC   C3A62597   0.484  24.491   7.050
 9317POPC   C4A62598   0.405  24.512   7.350
 9317POPC   C1B62599   0.391  24.247   6.450
 9317POPC   C2B62600   0.370  24.235   6.750
 9317POPC   C3B62601   0.385  24.252   7.050
 9317POPC   C4B62602   0.327  24.236   7.350
 9318POPC   NC362603  27.570  29.924   5.550
 9318POPC   PO462604  27.593  29.946   5.850
 9318POPC   GL162605  27.593  29.955   6.150
 9318POPC   GL262606  27.438  29.969   6.150
 9318POPC   C1A62607  27.622  29.899   6.450
 9318POPC   D2A62608  27.621  29.942   6.750
 9318POPC   C3A62609  27.631  29.921   7.050
 9318POPC   C4A62610  27.571  29.885   7.350
 9318POPC   C1B62611  27.311  30.012   6.450
 9318POPC   C2B62612  27.366  29.951   6.750
 9318POPC   C3B62613  27.341  30.003   7.050
 9318POPC   C4B62614  27.357  29.973   7.350
 9319POPC   NC362615  32.286  15.926   5.550
 9319POPC   PO462616  32.253  15.949   5.850
 9319POPC   GL162617  32.298  15.917   6.150
 9319POPC   GL262618  32.164  15.887   6.150
 9319POPC   C1A62619  32.216  15.911   6.450
 9319POPC   D2A62620  32.297  15.995   6.750
 9319POPC   C3A62621  32.227  15.969   7.050
 9319POPC   C4A62622  32.289  15.948   7.350
 9319POPC   C1B62623  32.087  15.754   6.450
 9319POPC   C2B62624  32.110  15.752   6.750
 9319POPC   C3B62625  32.152  15.775   7.050
 9319POPC   C4B62626  32.165  15.743   7.350
 9320POPC   NC362627   0.404  12.810   5.550
 9320POPC   PO462628   0.449  12.890   5.850
 9320POPC   GL162629   0.446  12.845   6.150
 9320POPC   GL262630   0.504  12.915   6.150
 9320POPC   C1A62631   0.466  12.866   6.450
 9320POPC   D2A62632   0.439  12.854   6.750
 9320POPC   C3A62633   0.428  12.876   7.050
 9320POPC   C4A62634   0.484  12.835   7.350
 9320POPC   C1B62635   0.576  13.045   6.450
 9320POPC   C2B62636   0.584  13.049   6.750
 9320POPC   C3B62637   0.633  12.985   7.050
 9320POPC   C4B62638   0.586  13.000   7.350
 9321POPC   NC362639   8.229  19.041   5.550
 9321POPC   PO462640   8.159  19.091   5.850
 9321POPC   GL162641   8.238  19.053   6.150
 9321POPC   GL262642   8.119  19.111   6.150
 9321POPC   C1A62643   8.210  19.069   6.450
 9321POPC   D2A62644   8.168  19.024   6.750
 9321POPC   C3A62645   8.190  19.023   7.050
 9321POPC   C4A62646   8.189  19.105   7.350
 9321POPC   C1B62647   7.993  19.109   6.450
 9321POPC   C2B62648   7.929  19.103   6.750
 9321POPC   C3B62649   7.999  19.112   7.050
 9321POPC   C4B62650   7.977  19.148   7.350
 9322POPC   NC362651  17.538  24.525   5.550
 9322POPC   PO462652  17.485  24.463   5.850
 9322POPC   GL162653  17.483  24.488   6.150
 9322POPC   GL262654  17.540  24.629   6.150
 9322POPC   C1A62655  17.553  24.473   6.450
 9322POPC   D2A62656  17.502  24.499   6.750
 9322POPC   C3A62657  17.510  24.533   7.050
 9322POPC   C4A62658  17.525  24.445   7.350
 9322POPC   C1B62659  17.496  24.710   6.450
 9322POPC   C2B62660  17.556  24.765   6.750
 9322POPC   C3B62661  17.533  24.751   7.050
 9322POPC   C4B62662  17.554  24.784   7.350
 9323POPC   NC362663  29.879  35.401   5.550
 9323POPC   PO462664  29.908  35.393   5.850
 9323POPC   GL162665  29.901  35.334   6.150
 9323POPC   GL262666  29.834  35.430   6.150
 9323POPC   C1A62667  29.937  35.327   6.450
 9323POPC   D2A62668  29.956  35.317   6.750
 9323POPC   C3A62669  29.879  35.344   7.050
 9323POPC   C4A62670  29.905  35.397   7.350
 9323POPC   C1B62671  29.799  35.503   6.450
 9323POPC   C2B62672  29.746  35.547   6.750
 9323POPC   C3B62673  29.737  35.515   7.050
 9323POPC   C4B62674  29.727  35.551   7.350
 9324POPC   NC362675  12.881  18.296   5.550
 9324POPC   PO462676  12.821  18.296   5.850
 9324POPC   GL162677  12.856  18.297   6.150
 9324POPC   GL262678  12.873  18.149   6.150
 9324POPC   C1A62679  12.803  18.298   6.450
 9324POPC   D2A62680  12.841  18.300   6.750
 9324POPC   C3A62681  12.865  18.270   7.050
 9324POPC   C4A62682  12.832  18.256   7.350
 9324POPC   C1B62683  12.856  18.043   6.450
 9324POPC   C2B62684  12.810  18.014   6.750
 9324POPC   C3B62685  12.855  18.058   7.050
 9324POPC   C4B62686  12.878  18.024   7.350
 9325POPC   NC362687  29.166  28.339   5.550
 9325POPC   PO462688  29.148  28.392   5.850
 9325POPC   GL162689  29.123  28.369   6.150
 9325POPC   GL262690  29.022  28.247   6.150
 9325POPC   C1A62691  29.171  28.390   6.450
 9325POPC   D2A62692  29.149  28.399   6.750
 9325POPC   C3A62693  29.127  28.325   7.050
 9325POPC   C4A62694  29.149  28.353   7.350
 9325POPC   C1B62695  28.977  28.191   6.450
 9325POPC   C2B62696  28.938  28.212   6.750
 9325POPC   C3B62697  28.914  28.242   7.050
 9325POPC   C4B62698  28.991  28.183   7.350
 9326POPC   NC362699  25.314  34.557   5.550
 9326POPC   PO462700  25.219  34.568   5.850
 9326POPC   GL162701  25.223  34.574   6.150
 9326POPC   GL262702  25.211  34.436   6.150
 9326POPC   C1A62703  25.312  34.529   6.450
 9326POPC   D2A62704  25.241  34.590   6.750
 9326POPC   C3A62705  25.246  34.589   7.050
 9326POPC   C4A62706  25.225  34.539   7.350
 9326POPC   C1B62707  25.123  34.386   6.450
 9326POPC   C2B62708  25.131  34.354   6.750
 9326POPC   C3B62709  25.145  34.355   7.050
 9326POPC   C4B62710  25.173  34.358   7.350
 9327POPC   NC362711  12.859  38.423   5.550
 9327POPC   PO462712  12.855  38.431   5.850
 9327POPC   GL162713  12.898  38.415   6.150
 9327POPC   GL262714  12.743  38.402   6.150
 9327POPC   C1A62715  12.858  38.488   6.450
 9327POPC   D2A62716  12.888  38.504   6.750
 9327POPC   C3A62717  12.855  38.415   7.050
 9327POPC   C4A62718  12.897  38.430   7.350
 9327POPC   C1B62719  12.717  38.272   6.450
 9327POPC   C2B62720  12.644  38.280   6.750
 9327POPC   C3B62721  12.716  38.225   7.050
 9327POPC   C4B62722  12.736  38.299   7.350
 9328POPC   NC362723  43.895  40.761   5.550
 9328POPC   PO462724  43.919  40.749   5.850
 9328POPC   GL162725  43.889  40.824   6.150
 9328POPC   GL262726  43.798  40.828   6.150
 9328POPC   C1A62727  43.936  40.776   6.450
 9328POPC   D2A62728  43.908  40.773   6.750
 9328POPC   C3A62729  43.917  40.813   7.050
 9328POPC   C4A62730  43.841  40.798   7.350
 9328POPC   C1B62731  43.697  41.017   6.450
 9328POPC   C2B62732  43.712  40.921   6.750
 9328POPC   C3B62733  43.723  40.977   7.050
 9328POPC   C4B62734  43.757  40.966   7.350
 9329POPC   NC362735  43.907  19.828   5.550
 9329POPC   PO462736  43.903  19.843   5.850
 9329POPC   GL162737  43.875  19.860   6.150
 9329POPC   GL262738  43.762  19.910   6.150
 9329POPC   C1A62739  43.925  19.795   6.450
 9329POPC   D2A62740  43.855  19.840   6.750
 9329POPC   C3A62741  43.920  19.807   7.050
 9329POPC   C4A62742  43.895  19.818   7.350
 9329POPC   C1B62743  43.694  20.061   6.450
 9329POPC   C2B62744  43.680  19.992   6.750
 9329POPC   C3B62745  43.700  20.027   7.050
 9329POPC   C4B62746  43.680  20.052   7.350
 9330POPC   NC362747  33.012   9.721   5.550
 9330POPC   PO462748  32.990   9.731   5.850
 9330POPC   GL162749  33.073   9.778   6.150
 9330POPC   GL262750  33.126   9.629   6.150
 9330POPC   C1A62751  33.056   9.755   6.450
 9330POPC   D2A62752  33.006   9.746   6.750
 9330POPC   C3A62753  33.035   9.784   7.050
 9330POPC   C4A62754  32.999   9.796   7.350
 9330POPC   C1B62755  33.228   9.573   6.450
 9330POPC   C2B62756  33.243   9.550   6.750
 9330POPC   C3B62757  33.216   9.582   7.050
 9330POPC   C4B62758  33.264   9.597   7.350
 9331POPC   NC362759  15.943  36.106   5.550
 9331POPC   PO462760  15.908  36.137   5.850
 9331POPC   GL162761  15.909  36.102   6.150
 9331POPC   GL262762  16.039  36.032   6.150
 9331POPC   C1A62763  15.954  36.177   6.450
 9331POPC   D2A62764  15.986  36.097   6.750
 9331POPC   C3A62765  15.934  36.094   7.050
 9331POPC   C4A62766  15.946  36.158   7.350
 9331POPC   C1B62767  16.153  35.901   6.450
 9331POPC   C2B62768  16.117  35.938   6.750
 9331POPC   C3B62769  16.060  35.929   7.050
 9331POPC   C4B62770  16.116  35.921   7.350
 9332POPC   NC362771  31.428  36.872   5.550
 9332POPC   PO462772  31.450  36.905   5.850
 9332POPC   GL162773  31.424  36.879   6.150
 9332POPC   GL262774  31.315  36.981   6.150
 9332POPC   C1A62775  31.522  36.897   6.450
 9332POPC   D2A62776  31.478  36.866   6.750
 9332POPC   C3A62777  31.500  36.891   7.050
 9332POPC   C4A62778  31.488  36.945   7.350
 9332POPC   C1B62779  31.278  36.981   6.450
 9332POPC   C2B62780  31.237  36.962   6.750
 9332POPC   C3B62781  31.204  36.940   7.050
 9332POPC   C4B62782  31.247  36.952   7.350
 9333POPC   NC362783  31.516  22.143   5.550
 9333POPC   PO462784  31.500  22.203   5.850
 9333POPC   GL162785  31.504  22.210   6.150
 9333POPC   GL262786  31.340  22.236   6.150
 9333POPC   C1A62787  31.447  22.196   6.450
 9333POPC   D2A62788  31.459  22.165   6.750
 9333POPC   C3A62789  31.424  22.124   7.050
 9333POPC   C4A62790  31.502  22.173   7.350
 9333POPC   C1B62791  31.265  22.278   6.450
 9333POPC   C2B62792  31.280  22.254   6.750
 9333POPC   C3B62793  31.213  22.314   7.050
 9333POPC   C4B62794  31.297  22.310   7.350
 9334POPC   NC362795  33.009  40.744   5.550
 9334POPC   PO462796  33.054  40.767   5.850
 9334POPC   GL162797  32.982  40.782   6.150
 9334POPC   GL262798  33.019  40.937   6.150
 9334POPC   C1A62799  33.042  40.788   6.450
 9334POPC   D2A62800  33.051  40.745   6.750
 9334POPC   C3A62801  33.055  40.746   7.050
 9334POPC   C4A62802  33.005  40.831   7.350
 9334POPC   C1B62803  33.022  41.002   6.450
 9334POPC   C2B62804  33.066  41.037   6.750
 9334POPC   C3B62805  33.030  41.061   7.050
 9334POPC   C4B62806  33.025  41.077   7.350
 9335POPC   NC362807  42.377   8.973   5.550
 9335POPC   PO462808  42.354   9.010   5.850
 9335POPC   GL162809  42.330   9.013   6.150
 9335POPC   GL262810  42.316   9.131   6.150
 9335POPC   C1A62811  42.348   8.941   6.450
 9335POPC   D2A62812  42.340   8.950   6.750
 9335POPC   C3A62813  42.346   9.015   7.050
 9335POPC   C4A62814  42.360   9.015   7.350
 9335POPC   C1B62815  42.259   9.248   6.450
 9335POPC   C2B62816  42.202   9.221   6.750
 9335POPC   C3B62817  42.257   9.230   7.050
 9335POPC   C4B62818  42.277   9.183   7.350
 9336POPC   NC362819   5.841  19.078   5.550
 9336POPC   PO462820   5.838  19.087   5.850
 9336POPC   GL162821   5.889  19.021   6.150
 9336POPC   GL262822   5.988  19.060   6.150
 9336POPC   C1A62823   5.878  19.018   6.450
 9336POPC   D2A62824   5.856  19.098   6.750
 9336POPC   C3A62825   5.900  19.012   7.050
 9336POPC   C4A62826   5.828  19.088   7.350
 9336POPC   C1B62827   6.126  18.981   6.450
 9336POPC   C2B62828   6.088  18.990   6.750
 9336POPC   C3B62829   6.082  19.027   7.050
 9336POPC   C4B62830   6.129  18.965   7.350
 9337POPC   NC362831  10.480   2.801   5.550
 9337POPC   PO462832  10.480   2.777   5.850
 9337POPC   GL162833  10.499   2.733   6.150
 9337POPC   GL262834  10.631   2.655   6.150
 9337POPC   C1A62835  10.488   2.750   6.450
 9337POPC   D2A62836  10.520   2.773   6.750
 9337POPC   C3A62837  10.524   2.752   7.050
 9337POPC   C4A62838  10.571   2.748   7.350
 9337POPC   C1B62839  10.687   2.521   6.450
 9337POPC   C2B62840  10.637   2.579   6.750
 9337POPC   C3B62841  10.674   2.556   7.050
 9337POPC   C4B62842  10.711   2.544   7.350
 9338POPC   NC362843  22.112  36.173   5.550
 9338POPC   PO462844  22.181  36.088   5.850
 9338POPC   GL162845  22.199  36.163   6.150
 9338POPC   GL262846  22.142  36.251   6.150
 9338POPC   C1A62847  22.174  36.149   6.450
 9338POPC   D2A62848  22.135  36.106   6.750
 9338POPC   C3A62849  22.161  36.162   7.050
 9338POPC   C4A62850  22.157  36.126   7.350
 9338POPC   C1B62851  22.170  36.349   6.450
 9338POPC   C2B62852  22.143  36.345   6.750
 9338POPC   C3B62853  22.129  36.340   7.050
 9338POPC   C4B62854  22.189  36.417   7.350
 9339POPC   NC362855  19.047  11.330   5.550
 9339POPC   PO462856  19.036  11.347   5.850
 9339POPC   GL162857  19.064  11.303   6.150
 9339POPC   GL262858  19.171  11.331   6.150
 9339POPC   C1A62859  19.103  11.313   6.450
 9339POPC   D2A62860  19.091  11.272   6.750
 9339POPC   C3A62861  19.080  11.288   7.050
 9339POPC   C4A62862  19.035  11.348   7.350
 9339POPC   C1B62863  19.332  11.333   6.450
 9339POPC   C2B62864  19.325  11.285   6.750
 9339POPC   C3B62865  19.263  11.331   7.050
 9339POPC   C4B62866  19.301  11.287   7.350
 9340POPC   NC362867   3.555  26.849   5.550
 9340POPC   PO462868   3.542  26.801   5.850
 9340POPC   GL162869   3.540  26.832   6.150
 9340POPC   GL262870   3.573  26.981   6.150
 9340POPC   C1A62871   3.493  26.809   6.450
 9340POPC   D2A62872   3.553  26.768   6.750
 9340POPC   C3A62873   3.496  26.854   7.050
 9340POPC   C4A62874   3.582  26.812   7.350
 9340POPC   C1B62875   3.588  27.107   6.450
 9340POPC   C2B62876   3.606  27.101   6.750
 9340POPC   C3B62877   3.560  27.030   7.050
 9340POPC   C4B62878   3.583  27.043   7.350
 9341POPC   NC362879  32.222  35.358   5.550
 9341POPC   PO462880  32.221  35.350   5.850
 9341POPC   GL162881  32.293  35.386   6.150
 9341POPC   GL262882  32.324  35.427   6.150
 9341POPC   C1A62883  32.272  35.346   6.450
 9341POPC   D2A62884  32.201  35.392   6.750
 9341POPC   C3A62885  32.260  35.401   7.050
 9341POPC   C4A62886  32.240  35.370   7.350
 9341POPC   C1B62887  32.432  35.509   6.450
 9341POPC   C2B62888  32.516  35.515   6.750
 9341POPC   C3B62889  32.479  35.483   7.050
 9341POPC   C4B62890  32.446  35.423   7.350
 9342POPC   NC362891  33.055  43.904   5.550
 9342POPC   PO462892  33.047  43.893   5.850
 9342POPC   GL162893  33.064  43.919   6.150
 9342POPC   GL262894  32.918  43.851   6.150
 9342POPC   C1A62895  32.980  43.935   6.450
 9342POPC   D2A62896  32.992  43.863   6.750
 9342POPC   C3A62897  33.014  43.845   7.050
 9342POPC   C4A62898  33.018  43.921   7.350
 9342POPC   C1B62899  32.757  43.845   6.450
 9342POPC   C2B62900  32.791  43.853   6.750
 9342POPC   C3B62901  32.823  43.872   7.050
 9342POPC   C4B62902  32.784  43.814   7.350
 9343POPC   NC362903  38.498   5.055   5.550
 9343POPC   PO462904  38.478   5.073   5.850
 9343POPC   GL162905  38.409   5.126   6.150
 9343POPC   GL262906  38.523   4.979   6.150
 9343POPC   C1A62907  38.419   5.046   6.450
 9343POPC   D2A62908  38.499   5.060   6.750
 9343POPC   C3A62909  38.435   5.093   7.050
 9343POPC   C4A62910  38.444   5.118   7.350
 9343POPC   C1B62911  38.560   4.830   6.450
 9343POPC   C2B62912  38.554   4.811   6.750
 9343POPC   C3B62913  38.517   4.897   7.050
 9343POPC   C4B62914  38.532   4.834   7.350
 9344POPC   NC362915  24.512  38.468   5.550
 9344POPC   PO462916  24.459  38.486   5.850
 9344POPC   GL162917  24.510  38.488   6.150
 9344POPC   GL262918  24.412  38.546   6.150
 9344POPC   C1A62919  24.450  38.459   6.450
 9344POPC   D2A62920  24.493  38.479   6.750
 9344POPC   C3A62921  24.480  38.428   7.050
 9344POPC   C4A62922  24.516  38.505   7.350
 9344POPC   C1B62923  24.239  38.636   6.450
 9344POPC   C2B62924  24.255  38.611   6.750
 9344POPC   C3B62925  24.310  38.623   7.050
 9344POPC   C4B62926  24.235  38.577   7.350
 9345POPC   NC362927  32.252  12.856   5.550
 9345POPC   PO462928  32.252  12.836   5.850
 9345POPC   GL162929  32.280  12.821   6.150
 9345POPC   GL262930  32.266  12.732   6.150
 9345POPC   C1A62931  32.243  12.821   6.450
 9345POPC   D2A62932  32.208  12.810   6.750
 9345POPC   C3A62933  32.293  12.858   7.050
 9345POPC   C4A62934  32.249  12.817   7.350
 9345POPC   C1B62935  32.344  12.609   6.450
 9345POPC   C2B62936  32.406  12.611   6.750
 9345POPC   C3B62937  32.326  12.677   7.050
 9345POPC   C4B62938  32.338  12.646   7.350
 9346POPC   NC362939  26.028   2.779   5.550
 9346POPC   PO462940  26.068   2.768   5.850
 9346POPC   GL162941  26.018   2.741   6.150
 9346POPC   GL262942  26.139   2.872   6.150
 9346POPC   C1A62943  26.003   2.795   6.450
 9346POPC   D2A62944  26.083   2.728   6.750
 9346POPC   C3A62945  26.029   2.773   7.050
 9346POPC   C4A62946  25.997   2.730   7.350
 9346POPC   C1B62947  26.147   3.033   6.450
 9346POPC   C2B62948  26.144   2.993   6.750
 9346POPC   C3B62949  26.146   2.968   7.050
 9346POPC   C4B62950  26.193   2.985   7.350
 9347POPC   NC362951  38.479  43.089   5.550
 9347POPC   PO462952  38.488  43.134   5.850
 9347POPC   GL162953  38.431  43.089   6.150
 9347POPC   GL262954  38.520  43.229   6.150
 9347POPC   C1A62955  38.423  43.143   6.450
 9347POPC   D2A62956  38.467  43.095   6.750
 9347POPC   C3A62957  38.414  43.066   7.050
 9347POPC   C4A62958  38.481  43.103   7.350
 9347POPC   C1B62959  38.548  43.301   6.450
 9347POPC   C2B62960  38.626  43.299   6.750
 9347POPC   C3B62961  38.607  43.350   7.050
 9347POPC   C4B62962  38.616  43.289   7.350
 9348POPC   NC362963  28.370  26.834   5.550
 9348POPC   PO462964  28.387  26.865   5.850
 9348POPC   GL162965  28.353  26.789   6.150
 9348POPC   GL262966  28.318  26.922   6.150
 9348POPC   C1A62967  28.328  26.854   6.450
 9348POPC   D2A62968  28.399  26.834   6.750
 9348POPC   C3A62969  28.358  26.839   7.050
 9348POPC   C4A62970  28.419  26.858   7.350
 9348POPC   C1B62971  28.197  27.047   6.450
 9348POPC   C2B62972  28.175  27.050   6.750
 9348POPC   C3B62973  28.186  27.018   7.050
 9348POPC   C4B62974  28.206  27.040   7.350
 9349POPC   NC362975  12.054  36.155   5.550
 9349POPC   PO462976  12.099  36.152   5.850
 9349POPC   GL162977  12.060  36.143   6.150
 9349POPC   GL262978  12.197  36.188   6.150
 9349POPC   C1A62979  12.039  36.164   6.450
 9349POPC   D2A62980  12.090  36.146   6.750
 9349POPC   C3A62981  12.070  36.100   7.050
 9349POPC   C4A62982  12.050  36.118   7.350
 9349POPC   C1B62983  12.338  36.189   6.450
 9349POPC   C2B62984  12.346  36.225   6.750
 9349POPC   C3B62985  12.264  36.177   7.050
 9349POPC   C4B62986  12.274  36.249   7.350
 9350POPC   NC362987  44.617  19.847   5.550
 9350POPC   PO462988  44.627  19.850   5.850
 9350POPC   GL162989  44.618  19.798   6.150
 9350POPC   GL262990  44.587  19.694   6.150
 9350POPC   C1A62991  44.682  19.822   6.450
 9350POPC   D2A62992  44.696  19.856   6.750
 9350POPC   C3A62993  44.634  19.810   7.050
 9350POPC   C4A62994  44.693  19.879   7.350
 9350POPC   C1B62995  44.585  19.593   6.450
 9350POPC   C2B62996  44.606  19.572   6.750
 9350POPC   C3B62997  44.587  19.584   7.050
 9350POPC   C4B62998  44.567  19.555   7.350
 9351POPC   NC362999  22.928   7.433   5.550
 9351POPC   PO463000  22.902   7.421   5.850
 9351POPC   GL163001  22.936   7.414   6.150
 9351POPC   GL263002  23.018   7.505   6.150
 9351POPC   C1A63003  22.918   7.446   6.450
 9351POPC   D2A63004  22.935   7.404   6.750
 9351POPC   C3A63005  22.988   7.434   7.050
 9351POPC   C4A63006  22.954   7.410   7.350
 9351POPC   C1B63007  23.095   7.602   6.450
 9351POPC   C2B63008  23.153   7.543   6.750
 9351POPC   C3B63009  23.135   7.539   7.050
 9351POPC   C4B63010  23.145   7.583   7.350
 9352POPC   NC363011  42.352  14.364   5.550
 9352POPC   PO463012  42.341  14.381   5.850
 9352POPC   GL163013  42.360  14.384   6.150
 9352POPC   GL263014  42.254  14.294   6.150
 9352POPC   C1A63015  42.357  14.403   6.450
 9352POPC   D2A63016  42.384  14.425   6.750
 9352POPC   C3A63017  42.384  14.414   7.050
 9352POPC   C4A63018  42.366  14.370   7.350
 9352POPC   C1B63019  42.081  14.301   6.450
 9352POPC   C2B63020  42.167  14.225   6.750
 9352POPC   C3B63021  42.151  14.276   7.050
 9352POPC   C4B63022  42.086  14.276   7.350
 9353POPC   NC363023  20.570  36.102   5.550
 9353POPC   PO463024  20.637  36.135   5.850
 9353POPC   GL163025  20.593  36.122   6.150
 9353POPC   GL263026  20.669  36.042   6.150
 9353POPC   C1A63027  20.605  36.148   6.450
 9353POPC   D2A63028  20.658  36.154   6.750
 9353POPC   C3A63029  20.598  36.163   7.050
 9353POPC   C4A63030  20.607  36.128   7.350
 9353POPC   C1B63031  20.821  35.922   6.450
 9353POPC   C2B63032  20.740  35.898   6.750
 9353POPC   C3B63033  20.743  35.918   7.050
 9353POPC   C4B63034  20.776  35.890   7.350
 9354POPC   NC363035   0.438  19.046   5.550
 9354POPC   PO463036   0.439  19.015   5.850
 9354POPC   GL163037   0.392  19.093   6.150
 9354POPC   GL263038   0.326  19.029   6.150
 9354POPC   C1A63039   0.412  19.046   6.450
 9354POPC   D2A63040   0.454  19.105   6.750
 9354POPC   C3A63041   0.462  19.032   7.050
 9354POPC   C4A63042   0.444  19.066   7.350
 9354POPC   C1B63043   0.258  18.915   6.450
 9354POPC   C2B63044   0.204  18.933   6.750
 9354POPC   C3B63045   0.241  18.939   7.050
 9354POPC   C4B63046   0.265  18.909   7.350
 9355POPC   NC363047   5.134  28.413   5.550
 9355POPC   PO463048   5.083  28.358   5.850
 9355POPC   GL163049   5.106  28.409   6.150
 9355POPC   GL263050   4.951  28.417   6.150
 9355POPC   C1A63051   5.077  28.359   6.450
 9355POPC   D2A63052   5.122  28.337   6.750
 9355POPC   C3A63053   5.084  28.415   7.050
 9355POPC   C4A63054   5.069  28.346   7.350
 9355POPC   C1B63055   4.861  28.504   6.450
 9355POPC   C2B63056   4.839  28.488   6.750
 9355POPC   C3B63057   4.850  28.535   7.050
 9355POPC   C4B63058   4.901  28.491   7.350
 9356POPC   NC363059  42.322  22.911   5.550
 9356POPC   PO463060  42.377  22.897   5.850
 9356POPC   GL163061  42.333  22.935   6.150
 9356POPC   GL263062  42.327  22.848   6.150
 9356POPC   C1A63063  42.319  22.986   6.450
 9356POPC   D2A63064  42.306  22.985   6.750
 9356POPC   C3A63065  42.315  22.905   7.050
 9356POPC   C4A63066  42.315  22.947   7.350
 9356POPC   C1B63067  42.319  22.681   6.450
 9356POPC   C2B63068  42.301  22.643   6.750
 9356POPC   C3B63069  42.366  22.705   7.050
 9356POPC   C4B63070  42.289  22.730   7.350
 9357POPC   NC363071  32.239  24.474   5.550
 9357POPC   PO463072  32.209  24.505   5.850
 9357POPC   GL163073  32.206  24.532   6.150
 9357POPC   GL263074  32.185  24.580   6.150
 9357POPC   C1A63075  32.262  24.486   6.450
 9357POPC   D2A63076  32.202  24.492   6.750
 9357POPC   C3A63077  32.254  24.528   7.050
 9357POPC   C4A63078  32.258  24.500   7.350
 9357POPC   C1B63079  32.122  24.678   6.450
 9357POPC   C2B63080  32.055  24.640   6.750
 9357POPC   C3B63081  32.041  24.721   7.050
 9357POPC   C4B63082  32.104  24.727   7.350
 9358POPC   NC363083  11.256  36.898   5.550
 9358POPC   PO463084  11.330  36.895   5.850
 9358POPC   GL163085  11.342  36.946   6.150
 9358POPC   GL263086  11.292  37.052   6.150
 9358POPC   C1A63087  11.286  36.923   6.450
 9358POPC   D2A63088  11.255  36.885   6.750
 9358POPC   C3A63089  11.298  36.918   7.050
 9358POPC   C4A63090  11.332  36.871   7.350
 9358POPC   C1B63091  11.184  37.126   6.450
 9358POPC   C2B63092  11.224  37.114   6.750
 9358POPC   C3B63093  11.207  37.101   7.050
 9358POPC   C4B63094  11.219  37.118   7.350
 9359POPC   NC363095  36.859  19.799   5.550
 9359POPC   PO463096  36.921  19.874   5.850
 9359POPC   GL163097  36.949  19.870   6.150
 9359POPC   GL263098  36.867  19.739   6.150
 9359POPC   C1A63099  36.930  19.797   6.450
 9359POPC   D2A63100  36.873  19.851   6.750
 9359POPC   C3A63101  36.884  19.866   7.050
 9359POPC   C4A63102  36.900  19.846   7.350
 9359POPC   C1B63103  36.894  19.633   6.450
 9359POPC   C2B63104  36.929  19.606   6.750
 9359POPC   C3B63105  36.916  19.557   7.050
 9359POPC   C4B63106  36.972  19.608   7.350
 9360POPC   NC363107  40.000  14.441   5.550
 9360POPC   PO463108  40.001  14.355   5.850
 9360POPC   GL163109  40.019  14.394   6.150
 9360POPC   GL263110  39.921  14.449   6.150
 9360POPC   C1A63111  39.985  14.428   6.450
 9360POPC   D2A63112  39.979  14.371   6.750
 9360POPC   C3A63113  39.981  14.388   7.050
 9360POPC   C4A63114  40.004  14.433   7.350
 9360POPC   C1B63115  39.821  14.570   6.450
 9360POPC   C2B63116  39.765  14.489   6.750
 9360POPC   C3B63117  39.814  14.564   7.050
 9360POPC   C4B63118  39.818  14.516   7.350
 9361POPC   NC363119  33.846  10.509   5.550
 9361POPC   PO463120  33.836  10.492   5.850
 9361POPC   GL163121  33.781  10.510   6.150
 9361POPC   GL263122  33.948  10.481   6.150
 9361POPC   C1A63123  33.813  10.495   6.450
 9361POPC   D2A63124  33.834  10.538   6.750
 9361POPC   C3A63125  33.785  10.497   7.050
 9361POPC   C4A63126  33.796  10.546   7.350
 9361POPC   C1B63127  34.041  10.369   6.450
 9361POPC   C2B63128  34.032  10.374   6.750
 9361POPC   C3B63129  33.994  10.339   7.050
 9361POPC   C4B63130  33.963  10.361   7.350
 9362POPC   NC363131   5.119  43.153   5.550
 9362POPC   PO463132   5.085  43.127   5.850
 9362POPC   GL163133   5.078  43.129   6.150
 9362POPC   GL263134   5.092  42.975   6.150
 9362POPC   C1A63135   5.126  43.144   6.450
 9362POPC   D2A63136   5.130  43.150   6.750
 9362POPC   C3A63137   5.083  43.119   7.050
 9362POPC   C4A63138   5.095  43.157   7.350
 9362POPC   C1B63139   5.094  42.883   6.450
 9362POPC   C2B63140   5.083  42.877   6.750
 9362POPC   C3B63141   5.145  42.827   7.050
 9362POPC   C4B63142   5.152  42.846   7.350
 9363POPC   NC363143  10.555   9.725   5.550
 9363POPC   PO463144  10.537   9.710   5.850
 9363POPC   GL163145  10.558   9.724   6.150
 9363POPC   GL263146  10.393   9.766   6.150
 9363POPC   C1A63147  10.533   9.765   6.450
 9363POPC   D2A63148  10.496   9.780   6.750
 9363POPC   C3A63149  10.533   9.740   7.050
 9363POPC   C4A63150  10.542   9.741   7.350
 9363POPC   C1B63151  10.232   9.768   6.450
 9363POPC   C2B63152  10.299   9.797   6.750
 9363POPC   C3B63153  10.252   9.788   7.050
 9363POPC   C4B63154  10.302   9.743   7.350
 9364POPC   NC363155   5.906  39.993   5.550
 9364POPC   PO463156   5.838  40.007   5.850
 9364POPC   GL163157   5.869  40.036   6.150
 9364POPC   GL263158   5.760  39.853   6.150
 9364POPC   C1A63159   5.821  40.019   6.450
 9364POPC   D2A63160   5.837  39.975   6.750
 9364POPC   C3A63161   5.893  40.022   7.050
 9364POPC   C4A63162   5.863  39.981   7.350
 9364POPC   C1B63163   5.769  39.838   6.450
 9364POPC   C2B63164   5.757  39.758   6.750
 9364POPC   C3B63165   5.785  39.780   7.050
 9364POPC   C4B63166   5.730  39.814   7.350
 9365POPC   NC363167  39.214  34.547   5.550
 9365POPC   PO463168  39.274  34.554   5.850
 9365POPC   GL163169  39.208  34.540   6.150
 9365POPC   GL263170  39.141  34.478   6.150
 9365POPC   C1A63171  39.276  34.574   6.450
 9365POPC   D2A63172  39.254  34.609   6.750
 9365POPC   C3A63173  39.267  34.603   7.050
 9365POPC   C4A63174  39.196  34.541   7.350
 9365POPC   C1B63175  39.024  34.374   6.450
 9365POPC   C2B63176  39.018  34.452   6.750
 9365POPC   C3B63177  39.085  34.366   7.050
 9365POPC   C4B63178  39.044  34.456   7.350
 9366POPC   NC363179  20.624  24.534   5.550
 9366POPC   PO463180  20.590  24.505   5.850
 9366POPC   GL163181  20.628  24.464   6.150
 9366POPC   GL263182  20.620  24.393   6.150
 9366POPC   C1A63183  20.658  24.534   6.450
 9366POPC   D2A63184  20.633  24.443   6.750
 9366POPC   C3A63185  20.575  24.477   7.050
 9366POPC   C4A63186  20.592  24.462   7.350
 9366POPC   C1B63187  20.560  24.204   6.450
 9366POPC   C2B63188  20.549  24.256   6.750
 9366POPC   C3B63189  20.575  24.223   7.050
 9366POPC   C4B63190  20.578  24.278   7.350
 9367POPC   NC363191   5.902  32.232   5.550
 9367POPC   PO463192   5.819  32.292   5.850
 9367POPC   GL163193   5.860  32.298   6.150
 9367POPC   GL263194   5.797  32.360   6.150
 9367POPC   C1A63195   5.887  32.240   6.450
 9367POPC   D2A63196   5.819  32.287   6.750
 9367POPC   C3A63197   5.894  32.232   7.050
 9367POPC   C4A63198   5.891  32.233   7.350
 9367POPC   C1B63199   5.716  32.430   6.450
 9367POPC   C2B63200   5.723  32.468   6.750
 9367POPC   C3B63201   5.670  32.462   7.050
 9367POPC   C4B63202   5.713  32.385   7.350
 9368POPC   NC363203  19.876  31.432   5.550
 9368POPC   PO463204  19.821  31.522   5.850
 9368POPC   GL163205  19.856  31.498   6.150
 9368POPC   GL263206  19.864  31.526   6.150
 9368POPC   C1A63207  19.847  31.521   6.450
 9368POPC   D2A63208  19.815  31.442   6.750
 9368POPC   C3A63209  19.880  31.488   7.050
 9368POPC   C4A63210  19.816  31.492   7.350
 9368POPC   C1B63211  19.962  31.617   6.450
 9368POPC   C2B63212  19.944  31.713   6.750
 9368POPC   C3B63213  20.038  31.713   7.050
 9368POPC   C4B63214  20.020  31.702   7.350
 9369POPC   NC363215  21.391   1.264   5.550
 9369POPC   PO463216  21.383   1.255   5.850
 9369POPC   GL163217  21.431   1.198   6.150
 9369POPC   GL263218  21.265   1.271   6.150
 9369POPC   C1A63219  21.339   1.165   6.450
 9369POPC   D2A63220  21.398   1.176   6.750
 9369POPC   C3A63221  21.348   1.173   7.050
 9369POPC   C4A63222  21.389   1.258   7.350
 9369POPC   C1B63223  21.153   1.263   6.450
 9369POPC   C2B63224  21.154   1.338   6.750
 9369POPC   C3B63225  21.133   1.271   7.050
 9369POPC   C4B63226  21.113   1.332   7.350
 9370POPC   NC363227  29.122  15.213   5.550
 9370POPC   PO463228  29.140  15.220   5.850
 9370POPC   GL163229  29.127  15.206   6.150
 9370POPC   GL263230  29.125  15.316   6.150
 9370POPC   C1A63231  29.186  15.178   6.450
 9370POPC   D2A63232  29.183  15.218   6.750
 9370POPC   C3A63233  29.187  15.151   7.050
 9370POPC   C4A63234  29.195  15.145   7.350
 9370POPC   C1B63235  29.066  15.459   6.450
 9370POPC   C2B63236  29.104  15.472   6.750
 9370POPC   C3B63237  29.120  15.392   7.050
 9370POPC   C4B63238  29.159  15.453   7.350
 9371POPC   NC363239  21.343  37.691   5.550
 9371POPC   PO463240  21.360  37.688   5.850
 9371POPC   GL163241  21.338  37.693   6.150
 9371POPC   GL263242  21.466  37.826   6.150
 9371POPC   C1A63243  21.340  37.675   6.450
 9371POPC   D2A63244  21.406  37.647   6.750
 9371POPC   C3A63245  21.360  37.643   7.050
 9371POPC   C4A63246  21.355  37.658   7.350
 9371POPC   C1B63247  21.475  37.928   6.450
 9371POPC   C2B63248  21.459  37.932   6.750
 9371POPC   C3B63249  21.464  37.912   7.050
 9371POPC   C4B63250  21.459  37.923   7.350
 9372POPC   NC363251   3.581  21.427   5.550
 9372POPC   PO463252   3.571  21.362   5.850
 9372POPC   GL163253   3.550  21.378   6.150
 9372POPC   GL263254   3.684  21.363   6.150
 9372POPC   C1A63255   3.580  21.396   6.450
 9372POPC   D2A63256   3.569  21.392   6.750
 9372POPC   C3A63257   3.578  21.425   7.050
 9372POPC   C4A63258   3.501  21.404   7.350
 9372POPC   C1B63259   3.788  21.407   6.450
 9372POPC   C2B63260   3.824  21.393   6.750
 9372POPC   C3B63261   3.765  21.392   7.050
 9372POPC   C4B63262   3.760  21.367   7.350
 9373POPC   NC363263  19.883  30.694   5.550
 9373POPC   PO463264  19.838  30.742   5.850
 9373POPC   GL163265  19.865  30.721   6.150
 9373POPC   GL263266  19.983  30.609   6.150
 9373POPC   C1A63267  19.840  30.685   6.450
 9373POPC   D2A63268  19.863  30.702   6.750
 9373POPC   C3A63269  19.824  30.662   7.050
 9373POPC   C4A63270  19.876  30.672   7.350
 9373POPC   C1B63271  20.035  30.555   6.450
 9373POPC   C2B63272  20.048  30.593   6.750
 9373POPC   C3B63273  20.008  30.513   7.050
 9373POPC   C4B63274  19.992  30.527   7.350
 9374POPC   NC363275  33.760  14.356   5.550
 9374POPC   PO463276  33.832  14.395   5.850
 9374POPC   GL163277  33.817  14.416   6.150
 9374POPC   GL263278  33.888  14.536   6.150
 9374POPC   C1A63279  33.776  14.360   6.450
 9374POPC   D2A63280  33.776  14.447   6.750
 9374POPC   C3A63281  33.791  14.377   7.050
 9374POPC   C4A63282  33.772  14.388   7.350
 9374POPC   C1B63283  33.888  14.661   6.450
 9374POPC   C2B63284  33.891  14.612   6.750
 9374POPC   C3B63285  33.936  14.606   7.050
 9374POPC   C4B63286  33.923  14.629   7.350
 9375POPC   NC363287  15.209  21.373   5.550
 9375POPC   PO463288  15.223  21.369   5.850
 9375POPC   GL163289  15.228  21.399   6.150
 9375POPC   GL263290  15.295  21.492   6.150
 9375POPC   C1A63291  15.154  21.431   6.450
 9375POPC   D2A63292  15.139  21.392   6.750
 9375POPC   C3A63293  15.134  21.362   7.050
 9375POPC   C4A63294  15.157  21.368   7.350
 9375POPC   C1B63295  15.395  21.567   6.450
 9375POPC   C2B63296  15.333  21.598   6.750
 9375POPC   C3B63297  15.332  21.546   7.050
 9375POPC   C4B63298  15.360  21.586   7.350
 9376POPC   NC363299  28.321  36.941   5.550
 9376POPC   PO463300  28.416  36.892   5.850
 9376POPC   GL163301  28.372  36.933   6.150
 9376POPC   GL263302  28.356  36.800   6.150
 9376POPC   C1A63303  28.367  36.878   6.450
 9376POPC   D2A63304  28.331  36.855   6.750
 9376POPC   C3A63305  28.389  36.881   7.050
 9376POPC   C4A63306  28.341  36.866   7.350
 9376POPC   C1B63307  28.417  36.704   6.450
 9376POPC   C2B63308  28.381  36.627   6.750
 9376POPC   C3B63309  28.419  36.630   7.050
 9376POPC   C4B63310  28.409  36.705   7.350
 9377POPC   NC363311  13.631  14.362   5.550
 9377POPC   PO463312  13.580  14.402   5.850
 9377POPC   GL163313  13.578  14.370   6.150
 9377POPC   GL263314  13.518  14.301   6.150
 9377POPC   C1A63315  13.636  14.450   6.450
 9377POPC   D2A63316  13.665  14.364   6.750
 9377POPC   C3A63317  13.648  14.371   7.050
 9377POPC   C4A63318  13.585  14.371   7.350
 9377POPC   C1B63319  13.521  14.164   6.450
 9377POPC   C2B63320  13.473  14.227   6.750
 9377POPC   C3B63321  13.501  14.214   7.050
 9377POPC   C4B63322  13.497  14.152   7.350
 9378POPC   NC363323  27.575  33.043   5.550
 9378POPC   PO463324  27.549  33.058   5.850
 9378POPC   GL163325  27.639  33.061   6.150
 9378POPC   GL263326  27.748  32.999   6.150
 9378POPC   C1A63327  27.634  33.024   6.450
 9378POPC   D2A63328  27.606  33.029   6.750
 9378POPC   C3A63329  27.553  33.057   7.050
 9378POPC   C4A63330  27.577  33.032   7.350
 9378POPC   C1B63331  27.775  32.960   6.450
 9378POPC   C2B63332  27.814  32.940   6.750
 9378POPC   C3B63333  27.791  32.897   7.050
 9378POPC   C4B63334  27.795  32.912   7.350
 9379POPC   NC363335  30.700   7.433   5.550
 9379POPC   PO463336  30.654   7.444   5.850
 9379POPC   GL163337  30.702   7.462   6.150
 9379POPC   GL263338  30.787   7.509   6.150
 9379POPC   C1A63339  30.683   7.375   6.450
 9379POPC   D2A63340  30.705   7.437   6.750
 9379POPC   C3A63341  30.718   7.457   7.050
 9379POPC   C4A63342  30.664   7.438   7.350
 9379POPC   C1B63343  30.885   7.671   6.450
 9379POPC   C2B63344  30.877   7.626   6.750
 9379POPC   C3B63345  30.837   7.594   7.050
 9379POPC   C4B63346  30.815   7.649   7.350
 9380POPC   NC363347  43.140  15.942   5.550
 9380POPC   PO463348  43.084  15.980   5.850
 9380POPC   GL163349  43.103  15.937   6.150
 9380POPC   GL263350  43.123  15.812   6.150
 9380POPC   C1A63351  43.092  15.915   6.450
 9380POPC   D2A63352  43.108  16.004   6.750
 9380POPC   C3A63353  43.079  15.991   7.050
 9380POPC   C4A63354  43.122  15.968   7.350
 9380POPC   C1B63355  43.177  15.665   6.450
 9380POPC   C2B63356  43.103  15.662   6.750
 9380POPC   C3B63357  43.179  15.736   7.050
 9380POPC   C4B63358  43.138  15.732   7.350
 9381POPC   NC363359   2.030  33.073   5.550
 9381POPC   PO463360   1.983  33.051   5.850
 9381POPC   GL163361   2.009  32.988   6.150
 9381POPC   GL263362   1.916  32.934   6.150
 9381POPC   C1A63363   1.943  33.040   6.450
 9381POPC   D2A63364   2.034  33.025   6.750
 9381POPC   C3A63365   1.990  33.016   7.050
 9381POPC   C4A63366   1.946  33.039   7.350
 9381POPC   C1B63367   1.803  32.781   6.450
 9381POPC   C2B63368   1.850  32.832   6.750
 9381POPC   C3B63369   1.874  32.846   7.050
 9381POPC   C4B63370   1.809  32.860   7.350
 9382POPC   NC363371  36.904  15.138   5.550
 9382POPC   PO463372  36.857  15.183   5.850
 9382POPC   GL163373  36.911  15.163   6.150
 9382POPC   GL263374  36.880  15.089   6.150
 9382POPC   C1A63375  36.906  15.186   6.450
 9382POPC   D2A63376  36.901  15.131   6.750
 9382POPC   C3A63377  36.895  15.195   7.050
 9382POPC   C4A63378  36.911  15.142   7.350
 9382POPC   C1B63379  36.798  14.927   6.450
 9382POPC   C2B63380  36.761  14.961   6.750
 9382POPC   C3B63381  36.785  14.976   7.050
 9382POPC   C4B63382  36.745  14.941   7.350
 9383POPC   NC363383  40.024  40.027   5.550
 9383POPC   PO463384  40.008  39.978   5.850
 9383POPC   GL163385  40.033  39.995   6.150
 9383POPC   GL263386  40.056  39.868   6.150
 9383POPC   C1A63387  40.049  40.056   6.450
 9383POPC   D2A63388  40.054  40.022   6.750
 9383POPC   C3A63389  40.019  40.021   7.050
 9383POPC   C4A63390  39.980  40.046   7.350
 9383POPC   C1B63391  40.031  39.737   6.450
 9383POPC   C2B63392  40.027  39.764   6.750
 9383POPC   C3B63393  40.075  39.746   7.050
 9383POPC   C4B63394  40.050  39.739   7.350
 9384POPC   NC363395   5.838  41.579   5.550
 9384POPC   PO463396   5.909  41.526   5.850
 9384POPC   GL163397   5.867  41.540   6.150
 9384POPC   GL263398   6.009  41.531   6.150
 9384POPC   C1A63399   5.857  41.530   6.450
 9384POPC   D2A63400   5.908  41.591   6.750
 9384POPC   C3A63401   5.844  41.544   7.050
 9384POPC   C4A63402   5.854  41.544   7.350
 9384POPC   C1B63403   6.140  41.620   6.450
 9384POPC   C2B63404   6.136  41.589   6.750
 9384POPC   C3B63405   6.108  41.589   7.050
 9384POPC   C4B63406   6.144  41.542   7.350
 9385POPC   NC363407  36.883   8.973   5.550
 9385POPC   PO463408  36.944   8.941   5.850
 9385POPC   GL163409  36.888   9.004   6.150
 9385POPC   GL263410  36.817   9.105   6.150
 9385POPC   C1A63411  36.948   8.953   6.450
 9385POPC   D2A63412  36.904   9.020   6.750
 9385POPC   C3A63413  36.918   8.988   7.050
 9385POPC   C4A63414  36.908   8.962   7.350
 9385POPC   C1B63415  36.768   9.166   6.450
 9385POPC   C2B63416  36.860   9.226   6.750
 9385POPC   C3B63417  36.795   9.194   7.050
 9385POPC   C4B63418  36.819   9.254   7.350
 9386POPC   NC363419  12.873  25.221   5.550
 9386POPC   PO463420  12.832  25.223   5.850
 9386POPC   GL163421  12.814  25.230   6.150
 9386POPC   GL263422  12.917  25.207   6.150
 9386POPC   C1A63423  12.883  25.257   6.450
 9386POPC   D2A63424  12.851  25.304   6.750
 9386POPC   C3A63425  12.900  25.221   7.050
 9386POPC   C4A63426  12.837  25.223   7.350
 9386POPC   C1B63427  13.006  25.101   6.450
 9386POPC   C2B63428  13.051  25.050   6.750
 9386POPC   C3B63429  13.059  25.060   7.050
 9386POPC   C4B63430  13.008  25.092   7.350
 9387POPC   NC363431  31.494  22.980   5.550
 9387POPC   PO463432  31.475  22.944   5.850
 9387POPC   GL163433  31.501  22.941   6.150
 9387POPC   GL263434  31.456  23.015   6.150
 9387POPC   C1A63435  31.431  22.988   6.450
 9387POPC   D2A63436  31.447  22.968   6.750
 9387POPC   C3A63437  31.465  22.898   7.050
 9387POPC   C4A63438  31.515  22.896   7.350
 9387POPC   C1B63439  31.574  23.156   6.450
 9387POPC   C2B63440  31.516  23.206   6.750
 9387POPC   C3B63441  31.493  23.227   7.050
 9387POPC   C4B63442  31.579  23.177   7.350
 9388POPC   NC363443  28.319  22.966   5.550
 9388POPC   PO463444  28.414  22.969   5.850
 9388POPC   GL163445  28.361  22.921   6.150
 9388POPC   GL263446  28.264  22.991   6.150
 9388POPC   C1A63447  28.328  22.904   6.450
 9388POPC   D2A63448  28.399  22.945   6.750
 9388POPC   C3A63449  28.343  22.934   7.050
 9388POPC   C4A63450  28.341  22.947   7.350
 9388POPC   C1B63451  28.155  23.041   6.450
 9388POPC   C2B63452  28.107  23.034   6.750
 9388POPC   C3B63453  28.134  22.988   7.050
 9388POPC   C4B63454  28.091  22.972   7.350
 9389POPC   NC363455  26.044   5.106   5.550
 9389POPC   PO463456  26.019   5.086   5.850
 9389POPC   GL163457  26.089   5.135   6.150
 9389POPC   GL263458  26.101   5.139   6.150
 9389POPC   C1A63459  26.023   5.126   6.450
 9389POPC   D2A63460  26.032   5.100   6.750
 9389POPC   C3A63461  26.084   5.056   7.050
 9389POPC   C4A63462  26.077   5.110   7.350
 9389POPC   C1B63463  26.261   5.181   6.450
 9389POPC   C2B63464  26.229   5.248   6.750
 9389POPC   C3B63465  26.249   5.242   7.050
 9389POPC   C4B63466  26.241   5.256   7.350
 9390POPC   NC363467   5.843  36.948   5.550
 9390POPC   PO463468   5.849  36.936   5.850
 9390POPC   GL163469   5.850  36.929   6.150
 9390POPC   GL263470   5.829  36.794   6.150
 9390POPC   C1A63471   5.889  36.856   6.450
 9390POPC   D2A63472   5.895  36.920   6.750
 9390POPC   C3A63473   5.828  36.862   7.050
 9390POPC   C4A63474   5.846  36.864   7.350
 9390POPC   C1B63475   5.847  36.660   6.450
 9390POPC   C2B63476   5.869  36.659   6.750
 9390POPC   C3B63477   5.862  36.694   7.050
 9390POPC   C4B63478   5.882  36.649   7.350
 9391POPC   NC363479  39.223  27.550   5.550
 9391POPC   PO463480  39.187  27.570   5.850
 9391POPC   GL163481  39.220  27.626   6.150
 9391POPC   GL263482  39.190  27.702   6.150
 9391POPC   C1A63483  39.246  27.631   6.450
 9391POPC   D2A63484  39.185  27.602   6.750
 9391POPC   C3A63485  39.219  27.620   7.050
 9391POPC   C4A63486  39.220  27.623   7.350
 9391POPC   C1B63487  39.042  27.831   6.450
 9391POPC   C2B63488  39.076  27.762   6.750
 9391POPC   C3B63489  39.096  27.843   7.050
 9391POPC   C4B63490  39.131  27.829   7.350
 9392POPC   NC363491  19.055   1.992   5.550
 9392POPC   PO463492  19.072   1.987   5.850
 9392POPC   GL163493  19.052   1.975   6.150
 9392POPC   GL263494  19.209   2.092   6.150
 9392POPC   C1A63495  19.011   2.008   6.450
 9392POPC   D2A63496  19.059   1.963   6.750
 9392POPC   C3A63497  19.031   2.030   7.050
 9392POPC   C4A63498  19.106   1.984   7.350
 9392POPC   C1B63499  19.317   2.049   6.450
 9392POPC   C2B63500  19.276   2.097   6.750
 9392POPC   C3B63501  19.268   2.078   7.050
 9392POPC   C4B63502  19.267   2.110   7.350
 9393POPC   NC363503  32.260  29.958   5.550
 9393POPC   PO463504  32.231  29.888   5.850
 9393POPC   GL163505  32.220  29.942   6.150
 9393POPC   GL263506  32.229  29.822   6.150
 9393POPC   C1A63507  32.208  29.939   6.450
 9393POPC   D2A63508  32.250  29.920   6.750
 9393POPC   C3A63509  32.295  29.936   7.050
 9393POPC   C4A63510  32.260  29.969   7.350
 9393POPC   C1B63511  32.285  29.624   6.450
 9393POPC   C2B63512  32.237  29.624   6.750
 9393POPC   C3B63513  32.271  29.676   7.050
 9393POPC   C4B63514  32.273  29.715   7.350
 9394POPC   NC363515   8.935  21.418   5.550
 9394POPC   PO463516   8.994  21.362   5.850
 9394POPC   GL163517   8.951  21.346   6.150
 9394POPC   GL263518   9.081  21.285   6.150
 9394POPC   C1A63519   8.941  21.432   6.450
 9394POPC   D2A63520   9.009  21.348   6.750
 9394POPC   C3A63521   8.946  21.376   7.050
 9394POPC   C4A63522   8.929  21.392   7.350
 9394POPC   C1B63523   9.147  21.176   6.450
 9394POPC   C2B63524   9.098  21.221   6.750
 9394POPC   C3B63525   9.137  21.218   7.050
 9394POPC   C4B63526   9.143  21.157   7.350
 9395POPC   NC363527  29.908  19.834   5.550
 9395POPC   PO463528  29.922  19.844   5.850
 9395POPC   GL163529  29.872  19.793   6.150
 9395POPC   GL263530  30.064  19.886   6.150
 9395POPC   C1A63531  29.918  19.826   6.450
 9395POPC   D2A63532  29.878  19.829   6.750
 9395POPC   C3A63533  29.923  19.803   7.050
 9395POPC   C4A63534  29.963  19.860   7.350
 9395POPC   C1B63535  30.182  19.916   6.450
 9395POPC   C2B63536  30.140  19.881   6.750
 9395POPC   C3B63537  30.203  19.882   7.050
 9395POPC   C4B63538  30.201  19.903   7.350
 9396POPC   NC363539  27.585  41.515   5.550
 9396POPC   PO463540  27.606  41.528   5.850
 9396POPC   GL163541  27.555  41.575   6.150
 9396POPC   GL263542  27.517  41.484   6.150
 9396POPC   C1A63543  27.605  41.546   6.450
 9396POPC   D2A63544  27.612  41.587   6.750
 9396POPC   C3A63545  27.612  41.591   7.050
 9396POPC   C4A63546  27.561  41.596   7.350
 9396POPC   C1B63547  27.504  41.337   6.450
 9396POPC   C2B63548  27.516  41.280   6.750
 9396POPC   C3B63549  27.520  41.363   7.050
 9396POPC   C4B63550  27.528  41.322   7.350
 9397POPC   NC363551  27.569  11.263   5.550
 9397POPC   PO463552  27.555  11.290   5.850
 9397POPC   GL163553  27.637  11.313   6.150
 9397POPC   GL263554  27.534  11.253   6.150
 9397POPC   C1A63555  27.548  11.306   6.450
 9397POPC   D2A63556  27.631  11.263   6.750
 9397POPC   C3A63557  27.629  11.337   7.050
 9397POPC   C4A63558  27.635  11.315   7.350
 9397POPC   C1B63559  27.447  11.066   6.450
 9397POPC   C2B63560  27.454  11.144   6.750
 9397POPC   C3B63561  27.461  11.156   7.050
 9397POPC   C4B63562  27.440  11.135   7.350
 9398POPC   NC363563  14.451  24.448   5.550
 9398POPC   PO463564  14.435  24.444   5.850
 9398POPC   GL163565  14.382  24.498   6.150
 9398POPC   GL263566  14.514  24.580   6.150
 9398POPC   C1A63567  14.403  24.477   6.450
 9398POPC   D2A63568  14.372  24.444   6.750
 9398POPC   C3A63569  14.382  24.508   7.050
 9398POPC   C4A63570  14.448  24.539   7.350
 9398POPC   C1B63571  14.641  24.662   6.450
 9398POPC   C2B63572  14.648  24.617   6.750
 9398POPC   C3B63573  14.570  24.590   7.050
 9398POPC   C4B63574  14.633  24.589   7.350
 9399POPC   NC363575  26.050  25.309   5.550
 9399POPC   PO463576  26.029  25.301   5.850
 9399POPC   GL163577  26.055  25.216   6.150
 9399POPC   GL263578  26.128  25.372   6.150
 9399POPC   C1A63579  26.060  25.293   6.450
 9399POPC   D2A63580  26.055  25.285   6.750
 9399POPC   C3A63581  25.995  25.258   7.050
 9399POPC   C4A63582  26.025  25.222   7.350
 9399POPC   C1B63583  26.226  25.434   6.450
 9399POPC   C2B63584  26.266  25.363   6.750
 9399POPC   C3B63585  26.294  25.408   7.050
 9399POPC   C4B63586  26.235  25.402   7.350
 9400POPC   NC363587   1.991  32.253   5.550
 9400POPC   PO463588   1.945  32.278   5.850
 9400POPC   GL163589   2.035  32.208   6.150
 9400POPC   GL263590   2.024  32.129   6.150
 9400POPC   C1A63591   1.961  32.247   6.450
 9400POPC   D2A63592   2.021  32.274   6.750
 9400POPC   C3A63593   1.990  32.258   7.050
 9400POPC   C4A63594   1.956  32.218   7.350
 9400POPC   C1B63595   1.939  31.974   6.450
 9400POPC   C2B63596   1.997  32.010   6.750
 9400POPC   C3B63597   2.013  32.035   7.050
 9400POPC   C4B63598   1.982  32.039   7.350
 9401POPC   NC363599   5.052  20.653   5.550
 9401POPC   PO463600   5.065  20.619   5.850
 9401POPC   GL163601   5.105  20.607   6.150
 9401POPC   GL263602   5.246  20.630   6.150
 9401POPC   C1A63603   5.100  20.656   6.450
 9401POPC   D2A63604   5.132  20.600   6.750
 9401POPC   C3A63605   5.045  20.615   7.050
 9401POPC   C4A63606   5.070  20.615   7.350
 9401POPC   C1B63607   5.295  20.754   6.450
 9401POPC   C2B63608   5.278  20.693   6.750
 9401POPC   C3B63609   5.299  20.736   7.050
 9401POPC   C4B63610   5.295  20.701   7.350
 9402POPC   NC363611   3.513   7.375   5.550
 9402POPC   PO463612   3.579   7.430   5.850
 9402POPC   GL163613   3.552   7.430   6.150
 9402POPC   GL263614   3.621   7.425   6.150
 9402POPC   C1A63615   3.508   7.430   6.450
 9402POPC   D2A63616   3.565   7.470   6.750
 9402POPC   C3A63617   3.558   7.398   7.050
 9402POPC   C4A63618   3.573   7.420   7.350
 9402POPC   C1B63619   3.751   7.391   6.450
 9402POPC   C2B63620   3.803   7.330   6.750
 9402POPC   C3B63621   3.763   7.336   7.050
 9402POPC   C4B63622   3.779   7.363   7.350
 9403POPC   NC363623  24.443  23.739   5.550
 9403POPC   PO463624  24.483  23.729   5.850
 9403POPC   GL163625  24.538  23.738   6.150
 9403POPC   GL263626  24.376  23.853   6.150
 9403POPC   C1A63627  24.530  23.673   6.450
 9403POPC   D2A63628  24.441  23.670   6.750
 9403POPC   C3A63629  24.453  23.698   7.050
 9403POPC   C4A63630  24.467  23.730   7.350
 9403POPC   C1B63631  24.366  23.902   6.450
 9403POPC   C2B63632  24.328  23.916   6.750
 9403POPC   C3B63633  24.323  23.906   7.050
 9403POPC   C4B63634  24.338  23.892   7.350
 9404POPC   NC363635  12.837  30.677   5.550
 9404POPC   PO463636  12.826  30.724   5.850
 9404POPC   GL163637  12.850  30.717   6.150
 9404POPC   GL263638  12.949  30.608   6.150
 9404POPC   C1A63639  12.810  30.682   6.450
 9404POPC   D2A63640  12.861  30.677   6.750
 9404POPC   C3A63641  12.902  30.652   7.050
 9404POPC   C4A63642  12.876  30.734   7.350
 9404POPC   C1B63643  12.970  30.463   6.450
 9404POPC   C2B63644  12.966  30.496   6.750
 9404POPC   C3B63645  13.008  30.462   7.050
 9404POPC   C4B63646  13.006  30.507   7.350
 9405POPC   NC363647  20.563   0.399   5.550
 9405POPC   PO463648  20.611   0.399   5.850
 9405POPC   GL163649  20.652   0.421   6.150
 9405POPC   GL263650  20.500   0.401   6.150
 9405POPC   C1A63651  20.573   0.419   6.450
 9405POPC   D2A63652  20.599   0.438   6.750
 9405POPC   C3A63653  20.625   0.440   7.050
 9405POPC   C4A63654  20.616   0.395   7.350
 9405POPC   C1B63655  20.397   0.375   6.450
 9405POPC   C2B63656  20.337   0.359   6.750
 9405POPC   C3B63657  20.373   0.304   7.050
 9405POPC   C4B63658  20.397   0.315   7.350
 9406POPC   NC363659  28.386  12.051   5.550
 9406POPC   PO463660  28.363  12.052   5.850
 9406POPC   GL163661  28.395  12.100   6.150
 9406POPC   GL263662  28.417  12.233   6.150
 9406POPC   C1A63663  28.323  12.043   6.450
 9406POPC   D2A63664  28.349  12.051   6.750
 9406POPC   C3A63665  28.334  12.073   7.050
 9406POPC   C4A63666  28.348  12.048   7.350
 9406POPC   C1B63667  28.477  12.273   6.450
 9406POPC   C2B63668  28.434  12.358   6.750
 9406POPC   C3B63669  28.456  12.311   7.050
 9406POPC   C4B63670  28.488  12.265   7.350
 9407POPC   NC363671  28.337   2.009   5.550
 9407POPC   PO463672  28.340   1.977   5.850
 9407POPC   GL163673  28.337   1.984   6.150
 9407POPC   GL263674  28.407   2.077   6.150
 9407POPC   C1A63675  28.360   1.995   6.450
 9407POPC   D2A63676  28.354   1.952   6.750
 9407POPC   C3A63677  28.343   1.965   7.050
 9407POPC   C4A63678  28.376   1.990   7.350
 9407POPC   C1B63679  28.381   2.271   6.450
 9407POPC   C2B63680  28.397   2.222   6.750
 9407POPC   C3B63681  28.397   2.200   7.050
 9407POPC   C4B63682  28.405   2.252   7.350
 9408POPC   NC363683  34.579   1.216   5.550
 9408POPC   PO463684  34.566   1.213   5.850
 9408POPC   GL163685  34.624   1.233   6.150
 9408POPC   GL263686  34.652   1.112   6.150
 9408POPC   C1A63687  34.606   1.237   6.450
 9408POPC   D2A63688  34.618   1.246   6.750
 9408POPC   C3A63689  34.611   1.262   7.050
 9408POPC   C4A63690  34.535   1.171   7.350
 9408POPC   C1B63691  34.800   0.991   6.450
 9408POPC   C2B63692  34.727   1.054   6.750
 9408POPC   C3B63693  34.706   1.085   7.050
 9408POPC   C4B63694  34.736   1.027   7.350
 9409POPC   NC363695  12.119  42.367   5.550
 9409POPC   PO463696  12.058  42.303   5.850
 9409POPC   GL163697  12.074  42.361   6.150
 9409POPC   GL263698  12.203  42.293   6.150
 9409POPC   C1A63699  12.047  42.305   6.450
 9409POPC   D2A63700  12.031  42.304   6.750
 9409POPC   C3A63701  12.030  42.294   7.050
 9409POPC   C4A63702  12.099  42.300   7.350
 9409POPC   C1B63703  12.355  42.274   6.450
 9409POPC   C2B63704  12.275  42.285   6.750
 9409POPC   C3B63705  12.331  42.250   7.050
 9409POPC   C4B63706  12.268  42.224   7.350
 9410POPC   NC363707  44.629   4.363   5.550
 9410POPC   PO463708  44.694   4.300   5.850
 9410POPC   GL163709  44.680   4.296   6.150
 9410POPC   GL263710  44.555   4.242   6.150
 9410POPC   C1A63711  44.711   4.318   6.450
 9410POPC   D2A63712  44.657   4.353   6.750
 9410POPC   C3A63713  44.670   4.280   7.050
 9410POPC   C4A63714  44.650   4.290   7.350
 9410POPC   C1B63715  44.473   4.141   6.450
 9410POPC   C2B63716  44.486   4.093   6.750
 9410POPC   C3B63717  44.460   4.121   7.050
 9410POPC   C4B63718  44.552   4.124   7.350
 9411POPC   NC363719  38.438   4.328   5.550
 9411POPC   PO463720  38.424   4.282   5.850
 9411POPC   GL163721  38.490   4.348   6.150
 9411POPC   GL263722  38.531   4.274   6.150
 9411POPC   C1A63723  38.420   4.297   6.450
 9411POPC   D2A63724  38.490   4.305   6.750
 9411POPC   C3A63725  38.440   4.292   7.050
 9411POPC   C4A63726  38.458   4.272   7.350
 9411POPC   C1B63727  38.668   4.266   6.450
 9411POPC   C2B63728  38.654   4.278   6.750
 9411POPC   C3B63729  38.683   4.220   7.050
 9411POPC   C4B63730  38.749   4.271   7.350
 9412POPC   NC363731  18.246  23.723   5.550
 9412POPC   PO463732  18.299  23.736   5.850
 9412POPC   GL163733  18.328  23.672   6.150
 9412POPC   GL263734  18.404  23.753   6.150
 9412POPC   C1A63735  18.305  23.701   6.450
 9412POPC   D2A63736  18.274  23.698   6.750
 9412POPC   C3A63737  18.309  23.728   7.050
 9412POPC   C4A63738  18.235  23.699   7.350
 9412POPC   C1B63739  18.531  23.893   6.450
 9412POPC   C2B63740  18.485  23.888   6.750
 9412POPC   C3B63741  18.508  23.817   7.050
 9412POPC   C4B63742  18.532  23.851   7.350
 9413POPC   NC363743  20.647   5.867   5.550
 9413POPC   PO463744  20.633   5.882   5.850
 9413POPC   GL163745  20.575   5.835   6.150
 9413POPC   GL263746  20.620   6.022   6.150
 9413POPC   C1A63747  20.605   5.880   6.450
 9413POPC   D2A63748  20.584   5.917   6.750
 9413POPC   C3A63749  20.570   5.852   7.050
 9413POPC   C4A63750  20.561   5.868   7.350
 9413POPC   C1B63751  20.582   6.111   6.450
 9413POPC   C2B63752  20.534   6.129   6.750
 9413POPC   C3B63753  20.499   6.154   7.050
 9413POPC   C4B63754  20.569   6.093   7.350
 9414POPC   NC363755  26.839  13.610   5.550
 9414POPC   PO463756  26.785  13.645   5.850
 9414POPC   GL163757  26.775  13.651   6.150
 9414POPC   GL263758  26.929  13.714   6.150
 9414POPC   C1A63759  26.797  13.594   6.450
 9414POPC   D2A63760  26.847  13.612   6.750
 9414POPC   C3A63761  26.845  13.671   7.050
 9414POPC   C4A63762  26.840  13.663   7.350
 9414POPC   C1B63763  26.928  13.798   6.450
 9414POPC   C2B63764  26.986  13.861   6.750
 9414POPC   C3B63765  26.923  13.850   7.050
 9414POPC   C4B63766  26.961  13.858   7.350
 9415POPC   NC363767  17.470  12.122   5.550
 9415POPC   PO463768  17.483  12.124   5.850
 9415POPC   GL163769  17.536  12.105   6.150
 9415POPC   GL263770  17.465  12.206   6.150
 9415POPC   C1A63771  17.472  12.037   6.450
 9415POPC   D2A63772  17.519  12.083   6.750
 9415POPC   C3A63773  17.517  12.065   7.050
 9415POPC   C4A63774  17.460  12.078   7.350
 9415POPC   C1B63775  17.465  12.287   6.450
 9415POPC   C2B63776  17.409  12.325   6.750
 9415POPC   C3B63777  17.455  12.360   7.050
 9415POPC   C4B63778  17.479  12.369   7.350
 9416POPC   NC363779  34.557  41.569   5.550
 9416POPC   PO463780  34.604  41.526   5.850
 9416POPC   GL163781  34.572  41.576   6.150
 9416POPC   GL263782  34.551  41.407   6.150
 9416POPC   C1A63783  34.594  41.552   6.450
 9416POPC   D2A63784  34.585  41.523   6.750
 9416POPC   C3A63785  34.612  41.563   7.050
 9416POPC   C4A63786  34.596  41.573   7.350
 9416POPC   C1B63787  34.514  41.289   6.450
 9416POPC   C2B63788  34.595  41.323   6.750
 9416POPC   C3B63789  34.586  41.268   7.050
 9416POPC   C4B63790  34.590  41.333   7.350
 9417POPC   NC363791  13.625  42.330   5.550
 9417POPC   PO463792  13.661  42.331   5.850
 9417POPC   GL163793  13.645  42.285   6.150
 9417POPC   GL263794  13.543  42.429   6.150
 9417POPC   C1A63795  13.581  42.350   6.450
 9417POPC   D2A63796  13.629  42.332   6.750
 9417POPC   C3A63797  13.586  42.348   7.050
 9417POPC   C4A63798  13.600  42.335   7.350
 9417POPC   C1B63799  13.543  42.545   6.450
 9417POPC   C2B63800  13.519  42.532   6.750
 9417POPC   C3B63801  13.545  42.615   7.050
 9417POPC   C4B63802  13.500  42.576   7.350
 9418POPC   NC363803   1.982  40.752   5.550
 9418POPC   PO463804   1.993  40.767   5.850
 9418POPC   GL163805   2.034  40.832   6.150
 9418POPC   GL263806   1.986  40.857   6.150
 9418POPC   C1A63807   2.013  40.743   6.450
 9418POPC   D2A63808   1.957  40.768   6.750
 9418POPC   C3A63809   1.973  40.736   7.050
 9418POPC   C4A63810   2.035  40.781   7.350
 9418POPC   C1B63811   2.046  41.011   6.450
 9418POPC   C2B63812   2.080  41.010   6.750
 9418POPC   C3B63813   2.052  41.026   7.050
 9418POPC   C4B63814   2.064  41.055   7.350
 9419POPC   NC363815  26.081  19.829   5.550
 9419POPC   PO463816  26.082  19.788   5.850
 9419POPC   GL163817  26.053  19.797   6.150
 9419POPC   GL263818  25.939  19.794   6.150
 9419POPC   C1A63819  26.083  19.815   6.450
 9419POPC   D2A63820  26.000  19.800   6.750
 9419POPC   C3A63821  26.016  19.821   7.050
 9419POPC   C4A63822  26.010  19.855   7.350
 9419POPC   C1B63823  25.769  19.759   6.450
 9419POPC   C2B63824  25.779  19.723   6.750
 9419POPC   C3B63825  25.850  19.736   7.050
 9419POPC   C4B63826  25.864  19.758   7.350
 9420POPC   NC363827  19.855   0.413   5.550
 9420POPC   PO463828  19.830   0.437   5.850
 9420POPC   GL163829  19.859   0.420   6.150
 9420POPC   GL263830  19.809   0.293   6.150
 9420POPC   C1A63831  19.869   0.474   6.450
 9420POPC   D2A63832  19.864   0.434   6.750
 9420POPC   C3A63833  19.863   0.390   7.050
 9420POPC   C4A63834  19.866   0.479   7.350
 9420POPC   C1B63835  19.819   0.200   6.450
 9420POPC   C2B63836  19.822   0.150   6.750
 9420POPC   C3B63837  19.880   0.226   7.050
 9420POPC   C4B63838  19.840   0.189   7.350
 9421POPC   NC363839  25.275  21.411   5.550
 9421POPC   PO463840  25.265  21.425   5.850
 9421POPC   GL163841  25.263  21.378   6.150
 9421POPC   GL263842  25.243  21.477   6.150
 9421POPC   C1A63843  25.249  21.381   6.450
 9421POPC   D2A63844  25.242  21.403   6.750
 9421POPC   C3A63845  25.274  21.370   7.050
 9421POPC   C4A63846  25.306  21.401   7.350
 9421POPC   C1B63847  25.167  21.589   6.450
 9421POPC   C2B63848  25.210  21.618   6.750
 9421POPC   C3B63849  25.261  21.590   7.050
 9421POPC   C4B63850  25.195  21.680   7.350
 9422POPC   NC363851  38.483   8.202   5.550
 9422POPC   PO463852  38.496   8.157   5.850
 9422POPC   GL163853  38.460   8.241   6.150
 9422POPC   GL263854  38.309   8.243   6.150
 9422POPC   C1A63855  38.442   8.177   6.450
 9422POPC   D2A63856  38.502   8.172   6.750
 9422POPC   C3A63857  38.466   8.210   7.050
 9422POPC   C4A63858  38.497   8.201   7.350
 9422POPC   C1B63859  38.263   8.312   6.450
 9422POPC   C2B63860  38.225   8.298   6.750
 9422POPC   C3B63861  38.189   8.316   7.050
 9422POPC   C4B63862  38.198   8.320   7.350
 9423POPC   NC363863  19.855  44.705   5.550
 9423POPC   PO463864  19.877  44.648   5.850
 9423POPC   GL163865  19.817  44.687   6.150
 9423POPC   GL263866  19.769  44.612   6.150
 9423POPC   C1A63867  19.859  44.706   6.450
 9423POPC   D2A63868  19.866  44.697   6.750
 9423POPC   C3A63869  19.849  44.674   7.050
 9423POPC   C4A63870  19.837  44.701   7.350
 9423POPC   C1B63871  19.602  44.528   6.450
 9423POPC   C2B63872  19.606  44.502   6.750
 9423POPC   C3B63873  19.620  44.526   7.050
 9423POPC   C4B63874  19.658  44.582   7.350
 9424POPC   NC363875  22.190   5.052   5.550
 9424POPC   PO463876  22.148   5.104   5.850
 9424POPC   GL163877  22.198   5.078   6.150
 9424POPC   GL263878  22.219   4.978   6.150
 9424POPC   C1A63879  22.139   5.109   6.450
 9424POPC   D2A63880  22.210   5.083   6.750
 9424POPC   C3A63881  22.134   5.094   7.050
 9424POPC   C4A63882  22.176   5.048   7.350
 9424POPC   C1B63883  22.296   4.836   6.450
 9424POPC   C2B63884  22.272   4.861   6.750
 9424POPC   C3B63885  22.249   4.888   7.050
 9424POPC   C4B63886  22.225   4.882   7.350
 9425POPC   NC363887  23.732  31.452   5.550
 9425POPC   PO463888  23.727  31.506   5.850
 9425POPC   GL163889  23.723  31.451   6.150
 9425POPC   GL263890  23.750  31.349   6.150
 9425POPC   C1A63891  23.743  31.510   6.450
 9425POPC   D2A63892  23.714  31.516   6.750
 9425POPC   C3A63893  23.679  31.435   7.050
 9425POPC   C4A63894  23.752  31.435   7.350
 9425POPC   C1B63895  23.845  31.244   6.450
 9425POPC   C2B63896  23.833  31.272   6.750
 9425POPC   C3B63897  23.830  31.223   7.050
 9425POPC   C4B63898  23.787  31.258   7.350
 9426POPC   NC363899  22.126  31.462   5.550
 9426POPC   PO463900  22.158  31.496   5.850
 9426POPC   GL163901  22.190  31.481   6.150
 9426POPC   GL263902  22.180  31.322   6.150
 9426POPC   C1A63903  22.117  31.459   6.450
 9426POPC   D2A63904  22.191  31.463   6.750
 9426POPC   C3A63905  22.150  31.480   7.050
 9426POPC   C4A63906  22.161  31.444   7.350
 9426POPC   C1B63907  22.252  31.241   6.450
 9426POPC   C2B63908  22.258  31.223   6.750
 9426POPC   C3B63909  22.274  31.286   7.050
 9426POPC   C4B63910  22.248  31.228   7.350
 9427POPC   NC363911  29.925  12.839   5.550
 9427POPC   PO463912  29.950  12.845   5.850
 9427POPC   GL163913  29.970  12.816   6.150
 9427POPC   GL263914  30.006  12.963   6.150
 9427POPC   C1A63915  29.948  12.808   6.450
 9427POPC   D2A63916  29.962  12.873   6.750
 9427POPC   C3A63917  29.913  12.820   7.050
 9427POPC   C4A63918  29.959  12.890   7.350
 9427POPC   C1B63919  30.114  12.968   6.450
 9427POPC   C2B63920  30.087  13.029   6.750
 9427POPC   C3B63921  30.133  13.007   7.050
 9427POPC   C4B63922  30.092  13.022   7.350
 9428POPC   NC363923  38.408  23.722   5.550
 9428POPC   PO463924  38.470  23.738   5.850
 9428POPC   GL163925  38.409  23.677   6.150
 9428POPC   GL263926  38.518  23.820   6.150
 9428POPC   C1A63927  38.465  23.673   6.450
 9428POPC   D2A63928  38.460  23.709   6.750
 9428POPC   C3A63929  38.444  23.672   7.050
 9428POPC   C4A63930  38.479  23.734   7.350
 9428POPC   C1B63931  38.441  23.952   6.450
 9428POPC   C2B63932  38.449  23.970   6.750
 9428POPC   C3B63933  38.435  23.937   7.050
 9428POPC   C4B63934  38.502  23.974   7.350
 9429POPC   NC363935  26.049  20.566   5.550
 9429POPC   PO463936  26.012  20.577   5.850
 9429POPC   GL163937  26.089  20.655   6.150
 9429POPC   GL263938  25.943  20.558   6.150
 9429POPC   C1A63939  26.037  20.620   6.450
 9429POPC   D2A63940  26.001  20.591   6.750
 9429POPC   C3A63941  25.999  20.644   7.050
 9429POPC   C4A63942  26.006  20.621   7.350
 9429POPC   C1B63943  25.831  20.462   6.450
 9429POPC   C2B63944  25.857  20.457   6.750
 9429POPC   C3B63945  25.900  20.402   7.050
 9429POPC   C4B63946  25.830  20.392   7.350
 9430POPC   NC363947  29.136  25.235   5.550
 9430POPC   PO463948  29.112  25.242   5.850
 9430POPC   GL163949  29.136  25.272   6.150
 9430POPC   GL263950  29.057  25.267   6.150
 9430POPC   C1A63951  29.182  25.244   6.450
 9430POPC   D2A63952  29.131  25.250   6.750
 9430POPC   C3A63953  29.136  25.290   7.050
 9430POPC   C4A63954  29.123  25.240   7.350
 9430POPC   C1B63955  28.909  25.312   6.450
 9430POPC   C2B63956  28.918  25.315   6.750
 9430POPC   C3B63957  28.848  25.332   7.050
 9430POPC   C4B63958  28.916  25.300   7.350
 9431POPC   NC363959   5.053   6.602   5.550
 9431POPC   PO463960   5.099   6.620   5.850
 9431POPC   GL163961   5.065   6.684   6.150
 9431POPC   GL263962   5.227   6.659   6.150
 9431POPC   C1A63963   5.142   6.619   6.450
 9431POPC   D2A63964   5.131   6.614   6.750
 9431POPC   C3A63965   5.105   6.666   7.050
 9431POPC   C4A63966   5.054   6.694   7.350
 9431POPC   C1B63967   5.358   6.655   6.450
 9431POPC   C2B63968   5.366   6.639   6.750
 9431POPC   C3B63969   5.299   6.683   7.050
 9431POPC   C4B63970   5.382   6.650   7.350
 9432POPC   NC363971   8.196  15.994   5.550
 9432POPC   PO463972   8.244  15.919   5.850
 9432POPC   GL163973   8.165  15.991   6.150
 9432POPC   GL263974   8.091  15.991   6.150
 9432POPC   C1A63975   8.181  15.996   6.450
 9432POPC   D2A63976   8.242  15.910   6.750
 9432POPC   C3A63977   8.191  15.918   7.050
 9432POPC   C4A63978   8.169  15.973   7.350
 9432POPC   C1B63979   7.925  16.004   6.450
 9432POPC   C2B63980   7.935  15.987   6.750
 9432POPC   C3B63981   7.945  16.002   7.050
 9432POPC   C4B63982   7.949  15.963   7.350
 9433POPC   NC363983  29.098  33.828   5.550
 9433POPC   PO463984  29.152  33.756   5.850
 9433POPC   GL163985  29.105  33.824   6.150
 9433POPC   GL263986  29.121  33.952   6.150
 9433POPC   C1A63987  29.147  33.761   6.450
 9433POPC   D2A63988  29.096  33.784   6.750
 9433POPC   C3A63989  29.188  33.779   7.050
 9433POPC   C4A63990  29.127  33.837   7.350
 9433POPC   C1B63991  29.097  34.049   6.450
 9433POPC   C2B63992  29.106  34.062   6.750
 9433POPC   C3B63993  29.079  34.041   7.050
 9433POPC   C4B63994  29.060  34.050   7.350
 9434POPC   NC363995   4.340   6.637   5.550
 9434POPC   PO463996   4.293   6.640   5.850
 9434POPC   GL163997   4.340   6.669   6.150
 9434POPC   GL263998   4.470   6.627   6.150
 9434POPC   C1A63999   4.354   6.595   6.450
 9434POPC   D2A64000   4.341   6.657   6.750
 9434POPC   C3A64001   4.367   6.621   7.050
 9434POPC   C4A64002   4.308   6.665   7.350
 9434POPC   C1B64003   4.545   6.641   6.450
 9434POPC   C2B64004   4.563   6.589   6.750
 9434POPC   C3B64005   4.605   6.604   7.050
 9434POPC   C4B64006   4.548   6.654   7.350
 9435POPC   NC364007  41.564  43.925   5.550
 9435POPC   PO464008  41.553  43.880   5.850
 9435POPC   GL164009  41.607  43.844   6.150
 9435POPC   GL264010  41.534  43.732   6.150
 9435POPC   C1A64011  41.581  43.925   6.450
 9435POPC   D2A64012  41.522  43.856   6.750
 9435POPC   C3A64013  41.570  43.893   7.050
 9435POPC   C4A64014  41.570  43.853   7.350
 9435POPC   C1B64015  41.489  43.637   6.450
 9435POPC   C2B64016  41.497  43.630   6.750
 9435POPC   C3B64017  41.524  43.615   7.050
 9435POPC   C4B64018  41.508  43.663   7.350
 9436POPC   NC364019  37.647  16.742   5.550
 9436POPC   PO464020  37.651  16.752   5.850
 9436POPC   GL164021  37.633  16.779   6.150
 9436POPC   GL264022  37.569  16.787   6.150
 9436POPC   C1A64023  37.715  16.767   6.450
 9436POPC   D2A64024  37.682  16.729   6.750
 9436POPC   C3A64025  37.668  16.720   7.050
 9436POPC   C4A64026  37.691  16.734   7.350
 9436POPC   C1B64027  37.473  16.830   6.450
 9436POPC   C2B64028  37.471  16.742   6.750
 9436POPC   C3B64029  37.474  16.792   7.050
 9436POPC   C4B64030  37.481  16.804   7.350
 9437POPC   NC364031  36.087   5.099   5.550
 9437POPC   PO464032  36.091   5.046   5.850
 9437POPC   GL164033  36.123   5.099   6.150
 9437POPC   GL264034  36.051   5.167   6.150
 9437POPC   C1A64035  36.110   5.055   6.450
 9437POPC   D2A64036  36.146   5.097   6.750
 9437POPC   C3A64037  36.146   5.115   7.050
 9437POPC   C4A64038  36.169   5.143   7.350
 9437POPC   C1B64039  35.994   5.306   6.450
 9437POPC   C2B64040  35.946   5.262   6.750
 9437POPC   C3B64041  35.938   5.256   7.050
 9437POPC   C4B64042  35.929   5.253   7.350
 9438POPC   NC364043  33.062  21.353   5.550
 9438POPC   PO464044  33.025  21.436   5.850
 9438POPC   GL164045  33.004  21.343   6.150
 9438POPC   GL264046  32.993  21.508   6.150
 9438POPC   C1A64047  33.054  21.410   6.450
 9438POPC   D2A64048  33.065  21.386   6.750
 9438POPC   C3A64049  33.070  21.349   7.050
 9438POPC   C4A64050  32.997  21.389   7.350
 9438POPC   C1B64051  32.892  21.623   6.450
 9438POPC   C2B64052  32.941  21.558   6.750
 9438POPC   C3B64053  32.882  21.603   7.050
 9438POPC   C4B64054  32.924  21.567   7.350
 9439POPC   NC364055  42.301  12.894   5.550
 9439POPC   PO464056  42.354  12.808   5.850
 9439POPC   GL164057  42.287  12.898   6.150
 9439POPC   GL264058  42.393  12.733   6.150
 9439POPC   C1A64059  42.331  12.827   6.450
 9439POPC   D2A64060  42.353  12.835   6.750
 9439POPC   C3A64061  42.285  12.829   7.050
 9439POPC   C4A64062  42.381  12.830   7.350
 9439POPC   C1B64063  42.444  12.625   6.450
 9439POPC   C2B64064  42.478  12.657   6.750
 9439POPC   C3B64065  42.504  12.670   7.050
 9439POPC   C4B64066  42.539  12.637   7.350
 9440POPC   NC364067   8.148  27.585   5.550
 9440POPC   PO464068   8.238  27.629   5.850
 9440POPC   GL164069   8.148  27.584   6.150
 9440POPC   GL264070   8.175  27.464   6.150
 9440POPC   C1A64071   8.182  27.596   6.450
 9440POPC   D2A64072   8.223  27.557   6.750
 9440POPC   C3A64073   8.243  27.634   7.050
 9440POPC   C4A64074   8.220  27.564   7.350
 9440POPC   C1B64075   8.221  27.359   6.450
 9440POPC   C2B64076   8.227  27.299   6.750
 9440POPC   C3B64077   8.215  27.392   7.050
 9440POPC   C4B64078   8.205  27.301   7.350
 9441POPC   NC364079  22.910  31.457   5.550
 9441POPC   PO464080  22.976  31.495   5.850
 9441POPC   GL164081  22.923  31.497   6.150
 9441POPC   GL264082  23.088  31.470   6.150
 9441POPC   C1A64083  22.976  31.435   6.450
 9441POPC   D2A64084  22.932  31.468   6.750
 9441POPC   C3A64085  22.986  31.496   7.050
 9441POPC   C4A64086  22.960  31.504   7.350
 9441POPC   C1B64087  23.222  31.570   6.450
 9441POPC   C2B64088  23.152  31.529   6.750
 9441POPC   C3B64089  23.153  31.534   7.050
 9441POPC   C4B64090  23.187  31.543   7.350
 9442POPC   NC364091   3.558  22.943   5.550
 9442POPC   PO464092   3.492  22.957   5.850
 9442POPC   GL164093   3.585  22.942   6.150
 9442POPC   GL264094   3.449  22.854   6.150
 9442POPC   C1A64095   3.581  22.942   6.450
 9442POPC   D2A64096   3.538  22.961   6.750
 9442POPC   C3A64097   3.501  22.912   7.050
 9442POPC   C4A64098   3.540  22.974   7.350
 9442POPC   C1B64099   3.338  22.779   6.450
 9442POPC   C2B64100   3.306  22.780   6.750
 9442POPC   C3B64101   3.357  22.833   7.050
 9442POPC   C4B64102   3.276  22.782   7.350
 9443POPC   NC364103  17.482  44.632   5.550
 9443POPC   PO464104  17.482  44.632   5.850
 9443POPC   GL164105  17.549  44.689   6.150
 9443POPC   GL264106  17.661  44.639   6.150
 9443POPC   C1A64107  17.484  44.674   6.450
 9443POPC   D2A64108  17.499  44.660   6.750
 9443POPC   C3A64109  17.534  44.685   7.050
 9443POPC   C4A64110  17.458  44.628   7.350
 9443POPC   C1B64111  17.743  44.665   6.450
 9443POPC   C2B64112  17.780  44.696   6.750
 9443POPC   C3B64113  17.789  44.706   7.050
 9443POPC   C4B64114  17.754  44.693   7.350
 9444POPC   NC364115   0.425   5.845   5.550
 9444POPC   PO464116   0.448   5.832   5.850
 9444POPC   GL164117   0.399   5.830   6.150
 9444POPC   GL264118   0.266   5.918   6.150
 9444POPC   C1A64119   0.396   5.914   6.450
 9444POPC   D2A64120   0.474   5.837   6.750
 9444POPC   C3A64121   0.451   5.899   7.050
 9444POPC   C4A64122   0.390   5.842   7.350
 9444POPC   C1B64123   0.198   5.879   6.450
 9444POPC   C2B64124   0.209   5.876   6.750
 9444POPC   C3B64125   0.173   5.941   7.050
 9444POPC   C4B64126   0.236   5.851   7.350
 9445POPC   NC364127   6.632  35.370   5.550
 9445POPC   PO464128   6.653  35.388   5.850
 9445POPC   GL164129   6.637  35.386   6.150
 9445POPC   GL264130   6.583  35.518   6.150
 9445POPC   C1A64131   6.663  35.390   6.450
 9445POPC   D2A64132   6.615  35.364   6.750
 9445POPC   C3A64133   6.599  35.377   7.050
 9445POPC   C4A64134   6.605  35.327   7.350
 9445POPC   C1B64135   6.580  35.579   6.450
 9445POPC   C2B64136   6.580  35.595   6.750
 9445POPC   C3B64137   6.623  35.572   7.050
 9445POPC   C4B64138   6.634  35.619   7.350
 9446POPC   NC364139  34.595  40.748   5.550
 9446POPC   PO464140  34.542  40.822   5.850
 9446POPC   GL164141  34.605  40.806   6.150
 9446POPC   GL264142  34.566  40.879   6.150
 9446POPC   C1A64143  34.560  40.801   6.450
 9446POPC   D2A64144  34.595  40.778   6.750
 9446POPC   C3A64145  34.555  40.822   7.050
 9446POPC   C4A64146  34.552  40.754   7.350
 9446POPC   C1B64147  34.536  41.051   6.450
 9446POPC   C2B64148  34.491  41.053   6.750
 9446POPC   C3B64149  34.521  41.032   7.050
 9446POPC   C4B64150  34.484  41.039   7.350
 9447POPC   NC364151  37.671  32.289   5.550
 9447POPC   PO464152  37.680  32.265   5.850
 9447POPC   GL164153  37.696  32.213   6.150
 9447POPC   GL264154  37.716  32.407   6.150
 9447POPC   C1A64155  37.638  32.290   6.450
 9447POPC   D2A64156  37.676  32.217   6.750
 9447POPC   C3A64157  37.716  32.220   7.050
 9447POPC   C4A64158  37.720  32.252   7.350
 9447POPC   C1B64159  37.772  32.446   6.450
 9447POPC   C2B64160  37.839  32.474   6.750
 9447POPC   C3B64161  37.773  32.427   7.050
 9447POPC   C4B64162  37.758  32.467   7.350
 9448POPC   NC364163  22.124  44.694   5.550
 9448POPC   PO464164  22.197  44.616   5.850
 9448POPC   GL164165  22.181  44.665   6.150
 9448POPC   GL264166  21.994  44.581   6.150
 9448POPC   C1A64167  22.169  44.703   6.450
 9448POPC   D2A64168  22.205  44.638   6.750
 9448POPC   C3A64169  22.150  44.676   7.050
 9448POPC   C4A64170  22.115  44.639   7.350
 9448POPC   C1B64171  21.899  44.564   6.450
 9448POPC   C2B64172  21.950  44.601   6.750
 9448POPC   C3B64173  21.892  44.571   7.050
 9448POPC   C4B64174  21.920  44.646   7.350
 9449POPC   NC364175  24.508  29.939   5.550
 9449POPC   PO464176  24.524  29.962   5.850
 9449POPC   GL164177  24.533  29.957   6.150
 9449POPC   GL264178  24.588  29.790   6.150
 9449POPC   C1A64179  24.518  29.929   6.450
 9449POPC   D2A64180  24.510  29.925   6.750
 9449POPC   C3A64181  24.453  29.962   7.050
 9449POPC   C4A64182  24.519  29.943   7.350
 9449POPC   C1B64183  24.625  29.670   6.450
 9449POPC   C2B64184  24.652  29.685   6.750
 9449POPC   C3B64185  24.574  29.727   7.050
 9449POPC   C4B64186  24.654  29.701   7.350
 9450POPC   NC364187   7.453  16.781   5.550
 9450POPC   PO464188   7.414  16.684   5.850
 9450POPC   GL164189   7.399  16.743   6.150
 9450POPC   GL264190   7.415  16.557   6.150
 9450POPC   C1A64191   7.413  16.730   6.450
 9450POPC   D2A64192   7.396  16.711   6.750
 9450POPC   C3A64193   7.454  16.687   7.050
 9450POPC   C4A64194   7.396  16.724   7.350
 9450POPC   C1B64195   7.442  16.518   6.450
 9450POPC   C2B64196   7.431  16.530   6.750
 9450POPC   C3B64197   7.465  16.500   7.050
 9450POPC   C4B64198   7.401  16.496   7.350
 9451POPC   NC364199  17.546   0.437   5.550
 9451POPC   PO464200  17.547   0.437   5.850
 9451POPC   GL164201  17.475   0.392   6.150
 9451POPC   GL264202  17.599   0.382   6.150
 9451POPC   C1A64203  17.464   0.389   6.450
 9451POPC   D2A64204  17.544   0.464   6.750
 9451POPC   C3A64205  17.474   0.464   7.050
 9451POPC   C4A64206  17.504   0.437   7.350
 9451POPC   C1B64207  17.719   0.307   6.450
 9451POPC   C2B64208  17.656   0.310   6.750
 9451POPC   C3B64209  17.706   0.275   7.050
 9451POPC   C4B64210  17.702   0.310   7.350
 9452POPC   NC364211  34.591   6.597   5.550
 9452POPC   PO464212  34.551   6.684   5.850
 9452POPC   GL164213  34.538   6.684   6.150
 9452POPC   GL264214  34.516   6.534   6.150
 9452POPC   C1A64215  34.606   6.660   6.450
 9452POPC   D2A64216  34.626   6.694   6.750
 9452POPC   C3A64217  34.549   6.638   7.050
 9452POPC   C4A64218  34.588   6.670   7.350
 9452POPC   C1B64219  34.497   6.451   6.450
 9452POPC   C2B64220  34.535   6.411   6.750
 9452POPC   C3B64221  34.535   6.437   7.050
 9452POPC   C4B64222  34.531   6.446   7.350
 9453POPC   NC364223  25.238  29.179   5.550
 9453POPC   PO464224  25.244  29.096   5.850
 9453POPC   GL164225  25.298  29.147   6.150
 9453POPC   GL264226  25.313  29.276   6.150
 9453POPC   C1A64227  25.245  29.095   6.450
 9453POPC   D2A64228  25.314  29.145   6.750
 9453POPC   C3A64229  25.302  29.167   7.050
 9453POPC   C4A64230  25.231  29.128   7.350
 9453POPC   C1B64231  25.439  29.325   6.450
 9453POPC   C2B64232  25.447  29.369   6.750
 9453POPC   C3B64233  25.433  29.296   7.050
 9453POPC   C4B64234  25.381  29.333   7.350
 9454POPC   NC364235  29.158   6.664   5.550
 9454POPC   PO464236  29.112   6.646   5.850
 9454POPC   GL164237  29.161   6.675   6.150
 9454POPC   GL264238  29.040   6.786   6.150
 9454POPC   C1A64239  29.132   6.641   6.450
 9454POPC   D2A64240  29.142   6.644   6.750
 9454POPC   C3A64241  29.121   6.673   7.050
 9454POPC   C4A64242  29.184   6.665   7.350
 9454POPC   C1B64243  28.945   6.811   6.450
 9454POPC   C2B64244  28.972   6.858   6.750
 9454POPC   C3B64245  28.995   6.848   7.050
 9454POPC   C4B64246  29.024   6.864   7.350
 9455POPC   NC364247  42.297  26.811   5.550
 9455POPC   PO464248  42.320  26.840   5.850
 9455POPC   GL164249  42.362  26.792   6.150
 9455POPC   GL264250  42.421  26.855   6.150
 9455POPC   C1A64251  42.315  26.802   6.450
 9455POPC   D2A64252  42.366  26.866   6.750
 9455POPC   C3A64253  42.322  26.847   7.050
 9455POPC   C4A64254  42.316  26.794   7.350
 9455POPC   C1B64255  42.589  26.866   6.450
 9455POPC   C2B64256  42.572  26.807   6.750
 9455POPC   C3B64257  42.559  26.857   7.050
 9455POPC   C4B64258  42.612  26.849   7.350
 9456POPC   NC364259   9.707  12.869   5.550
 9456POPC   PO464260   9.710  12.859   5.850
 9456POPC   GL164261   9.742  12.846   6.150
 9456POPC   GL264262   9.706  12.993   6.150
 9456POPC   C1A64263   9.761  12.845   6.450
 9456POPC   D2A64264   9.703  12.899   6.750
 9456POPC   C3A64265   9.784  12.822   7.050
 9456POPC   C4A64266   9.778  12.831   7.350
 9456POPC   C1B64267   9.620  13.082   6.450
 9456POPC   C2B64268   9.645  13.113   6.750
 9456POPC   C3B64269   9.640  13.098   7.050
 9456POPC   C4B64270   9.709  13.072   7.350
 9457POPC   NC364271  25.300  17.518   5.550
 9457POPC   PO464272  25.243  17.465   5.850
 9457POPC   GL164273  25.250  17.478   6.150
 9457POPC   GL264274  25.399  17.480   6.150
 9457POPC   C1A64275  25.220  17.548   6.450
 9457POPC   D2A64276  25.252  17.490   6.750
 9457POPC   C3A64277  25.241  17.472   7.050
 9457POPC   C4A64278  25.248  17.500   7.350
 9457POPC   C1B64279  25.487  17.367   6.450
 9457POPC   C2B64280  25.508  17.360   6.750
 9457POPC   C3B64281  25.447  17.395   7.050
 9457POPC   C4B64282  25.455  17.383   7.350
 9458POPC   NC364283  10.545  36.866   5.550
 9458POPC   PO464284  10.512  36.885   5.850
 9458POPC   GL164285  10.558  36.900   6.150
 9458POPC   GL264286  10.645  36.994   6.150
 9458POPC   C1A64287  10.529  36.885   6.450
 9458POPC   D2A64288  10.526  36.940   6.750
 9458POPC   C3A64289  10.527  36.909   7.050
 9458POPC   C4A64290  10.500  36.899   7.350
 9458POPC   C1B64291  10.669  37.121   6.450
 9458POPC   C2B64292  10.651  37.130   6.750
 9458POPC   C3B64293  10.667  37.077   7.050
 9458POPC   C4B64294  10.711  37.089   7.350
 9459POPC   NC364295  23.709  32.290   5.550
 9459POPC   PO464296  23.713  32.293   5.850
 9459POPC   GL164297  23.665  32.264   6.150
 9459POPC   GL264298  23.689  32.133   6.150
 9459POPC   C1A64299  23.692  32.217   6.450
 9459POPC   D2A64300  23.740  32.293   6.750
 9459POPC   C3A64301  23.737  32.242   7.050
 9459POPC   C4A64302  23.678  32.271   7.350
 9459POPC   C1B64303  23.725  31.972   6.450
 9459POPC   C2B64304  23.725  31.977   6.750
 9459POPC   C3B64305  23.773  32.037   7.050
 9459POPC   C4B64306  23.760  31.988   7.350
 9460POPC   NC364307  39.251  20.624   5.550
 9460POPC   PO464308  39.271  20.627   5.850
 9460POPC   GL164309  39.248  20.577   6.150
 9460POPC   GL264310  39.318  20.744   6.150
 9460POPC   C1A64311  39.197  20.599   6.450
 9460POPC   D2A64312  39.219  20.624   6.750
 9460POPC   C3A64313  39.228  20.652   7.050
 9460POPC   C4A64314  39.202  20.615   7.350
 9460POPC   C1B64315  39.339  20.768   6.450
 9460POPC   C2B64316  39.337  20.854   6.750
 9460POPC   C3B64317  39.396  20.799   7.050
 9460POPC   C4B64318  39.340  20.767   7.350
 9461POPC   NC364319  26.819  29.127   5.550
 9461POPC   PO464320  26.768  29.111   5.850
 9461POPC   GL164321  26.852  29.149   6.150
 9461POPC   GL264322  26.900  29.217   6.150
 9461POPC   C1A64323  26.864  29.133   6.450
 9461POPC   D2A64324  26.829  29.130   6.750
 9461POPC   C3A64325  26.860  29.111   7.050
 9461POPC   C4A64326  26.769  29.151   7.350
 9461POPC   C1B64327  26.963  29.321   6.450
 9461POPC   C2B64328  26.950  29.322   6.750
 9461POPC   C3B64329  26.924  29.359   7.050
 9461POPC   C4B64330  26.964  29.324   7.350
 9462POPC   NC364331  12.098  15.948   5.550
 9462POPC   PO464332  12.031  15.916   5.850
 9462POPC   GL164333  12.064  15.997   6.150
 9462POPC   GL264334  12.115  16.104   6.150
 9462POPC   C1A64335  12.079  15.949   6.450
 9462POPC   D2A64336  12.049  15.970   6.750
 9462POPC   C3A64337  12.126  16.000   7.050
 9462POPC   C4A64338  12.105  15.921   7.350
 9462POPC   C1B64339  12.110  16.172   6.450
 9462POPC   C2B64340  12.125  16.166   6.750
 9462POPC   C3B64341  12.120  16.156   7.050
 9462POPC   C4B64342  12.115  16.174   7.350
 9463POPC   NC364343  40.762  33.012   5.550
 9463POPC   PO464344  40.766  33.019   5.850
 9463POPC   GL164345  40.748  32.985   6.150
 9463POPC   GL264346  40.740  32.870   6.150
 9463POPC   C1A64347  40.827  33.057   6.450
 9463POPC   D2A64348  40.803  32.975   6.750
 9463POPC   C3A64349  40.771  33.058   7.050
 9463POPC   C4A64350  40.767  32.988   7.350
 9463POPC   C1B64351  40.787  32.791   6.450
 9463POPC   C2B64352  40.811  32.791   6.750
 9463POPC   C3B64353  40.827  32.800   7.050
 9463POPC   C4B64354  40.741  32.739   7.350
 9464POPC   NC364355  39.194   5.869   5.550
 9464POPC   PO464356  39.203   5.883   5.850
 9464POPC   GL164357  39.260   5.819   6.150
 9464POPC   GL264358  39.307   5.784   6.150
 9464POPC   C1A64359  39.237   5.885   6.450
 9464POPC   D2A64360  39.225   5.861   6.750
 9464POPC   C3A64361  39.184   5.883   7.050
 9464POPC   C4A64362  39.268   5.874   7.350
 9464POPC   C1B64363  39.349   5.717   6.450
 9464POPC   C2B64364  39.393   5.637   6.750
 9464POPC   C3B64365  39.353   5.703   7.050
 9464POPC   C4B64366  39.423   5.657   7.350
 9465POPC   NC364367  35.310   8.169   5.550
 9465POPC   PO464368  35.342   8.161   5.850
 9465POPC   GL164369  35.347   8.170   6.150
 9465POPC   GL264370  35.318   8.061   6.150
 9465POPC   C1A64371  35.309   8.234   6.450
 9465POPC   D2A64372  35.390   8.149   6.750
 9465POPC   C3A64373  35.355   8.156   7.050
 9465POPC   C4A64374  35.341   8.163   7.350
 9465POPC   C1B64375  35.217   8.031   6.450
 9465POPC   C2B64376  35.183   8.012   6.750
 9465POPC   C3B64377  35.175   7.984   7.050
 9465POPC   C4B64378  35.247   8.016   7.350
 9466POPC   NC364379   0.403  43.887   5.550
 9466POPC   PO464380   0.480  43.837   5.850
 9466POPC   GL164381   0.450  43.848   6.150
 9466POPC   GL264382   0.265  43.888   6.150
 9466POPC   C1A64383   0.451  43.903   6.450
 9466POPC   D2A64384   0.400  43.923   6.750
 9466POPC   C3A64385   0.486  43.884   7.050
 9466POPC   C4A64386   0.419  43.842   7.350
 9466POPC   C1B64387   0.165  43.882   6.450
 9466POPC   C2B64388   0.227  43.918   6.750
 9466POPC   C3B64389   0.188  43.891   7.050
 9466POPC   C4B64390   0.217  43.914   7.350
 9467POPC   NC364391  16.767  13.584   5.550
 9467POPC   PO464392  16.689  13.596   5.850
 9467POPC   GL164393  16.726  13.656   6.150
 9467POPC   GL264394  16.833  13.689   6.150
 9467POPC   C1A64395  16.690  13.605   6.450
 9467POPC   D2A64396  16.749  13.578   6.750
 9467POPC   C3A64397  16.759  13.579   7.050
 9467POPC   C4A64398  16.759  13.603   7.350
 9467POPC   C1B64399  16.840  13.823   6.450
 9467POPC   C2B64400  16.866  13.797   6.750
 9467POPC   C3B64401  16.857  13.792   7.050
 9467POPC   C4B64402  16.856  13.859   7.350
 9468POPC   NC364403  44.627  15.980   5.550
 9468POPC   PO464404  44.699  15.974   5.850
 9468POPC   GL164405  44.697  15.932   6.150
 9468POPC   GL264406  44.620  16.080   6.150
 9468POPC   C1A64407  44.703  15.913   6.450
 9468POPC   D2A64408  44.620  15.978   6.750
 9468POPC   C3A64409  44.622  15.978   7.050
 9468POPC   C4A64410  44.619  15.961   7.350
 9468POPC   C1B64411  44.597  16.163   6.450
 9468POPC   C2B64412  44.635  16.190   6.750
 9468POPC   C3B64413  44.571  16.182   7.050
 9468POPC   C4B64414  44.613  16.242   7.350
 9469POPC   NC364415  36.081  21.419   5.550
 9469POPC   PO464416  36.096  21.392   5.850
 9469POPC   GL164417  36.089  21.389   6.150
 9469POPC   GL264418  36.218  21.449   6.150
 9469POPC   C1A64419  36.112  21.395   6.450
 9469POPC   D2A64420  36.171  21.393   6.750
 9469POPC   C3A64421  36.087  21.396   7.050
 9469POPC   C4A64422  36.158  21.419   7.350
 9469POPC   C1B64423  36.296  21.610   6.450
 9469POPC   C2B64424  36.262  21.595   6.750
 9469POPC   C3B64425  36.248  21.560   7.050
 9469POPC   C4B64426  36.274  21.631   7.350
 9470POPC   NC364427  35.375   1.169   5.550
 9470POPC   PO464428  35.396   1.197   5.850
 9470POPC   GL164429  35.338   1.192   6.150
 9470POPC   GL264430  35.468   1.179   6.150
 9470POPC   C1A64431  35.378   1.223   6.450
 9470POPC   D2A64432  35.337   1.199   6.750
 9470POPC   C3A64433  35.339   1.198   7.050
 9470POPC   C4A64434  35.357   1.187   7.350
 9470POPC   C1B64435  35.617   1.052   6.450
 9470POPC   C2B64436  35.543   1.106   6.750
 9470POPC   C3B64437  35.523   1.098   7.050
 9470POPC   C4B64438  35.596   1.090   7.350
 9471POPC   NC364439  34.553  18.318   5.550
 9471POPC   PO464440  34.526  18.310   5.850
 9471POPC   GL164441  34.537  18.278   6.150
 9471POPC   GL264442  34.419  18.358   6.150
 9471POPC   C1A64443  34.591  18.255   6.450
 9471POPC   D2A64444  34.541  18.249   6.750
 9471POPC   C3A64445  34.548  18.298   7.050
 9471POPC   C4A64446  34.600  18.248   7.350
 9471POPC   C1B64447  34.309  18.345   6.450
 9471POPC   C2B64448  34.342  18.344   6.750
 9471POPC   C3B64449  34.305  18.304   7.050
 9471POPC   C4B64450  34.371  18.351   7.350
 9472POPC   NC364451  29.110   9.018   5.550
 9472POPC   PO464452  29.132   8.931   5.850
 9472POPC   GL164453  29.105   8.981   6.150
 9472POPC   GL264454  29.154   9.055   6.150
 9472POPC   C1A64455  29.180   8.957   6.450
 9472POPC   D2A64456  29.166   8.983   6.750
 9472POPC   C3A64457  29.146   9.016   7.050
 9472POPC   C4A64458  29.150   8.932   7.350
 9472POPC   C1B64459  29.139   9.180   6.450
 9472POPC   C2B64460  29.154   9.252   6.750
 9472POPC   C3B64461  29.106   9.247   7.050
 9472POPC   C4B64462  29.064   9.179   7.350
 9473POPC   NC364463  40.001  22.117   5.550
 9473POPC   PO464464  40.004  22.169   5.850
 9473POPC   GL164465  40.039  22.167   6.150
 9473POPC   GL264466  39.886  22.131   6.150
 9473POPC   C1A64467  40.001  22.139   6.450
 9473POPC   D2A64468  40.026  22.147   6.750
 9473POPC   C3A64469  40.011  22.197   7.050
 9473POPC   C4A64470  40.027  22.116   7.350
 9473POPC   C1B64471  39.744  22.079   6.450
 9473POPC   C2B64472  39.743  22.119   6.750
 9473POPC   C3B64473  39.714  22.137   7.050
 9473POPC   C4B64474  39.714  22.074   7.350
 9474POPC   NC364475  40.769   0.440   5.550
 9474POPC   PO464476  40.763   0.410   5.850
 9474POPC   GL164477  40.831   0.400   6.150
 9474POPC   GL264478  40.731   0.332   6.150
 9474POPC   C1A64479  40.798   0.456   6.450
 9474POPC   D2A64480  40.752   0.414   6.750
 9474POPC   C3A64481  40.804   0.478   7.050
 9474POPC   C4A64482  40.809   0.454   7.350
 9474POPC   C1B64483  40.557   0.214   6.450
 9474POPC   C2B64484  40.570   0.272   6.750
 9474POPC   C3B64485  40.573   0.266   7.050
 9474POPC   C4B64486  40.615   0.287   7.350
 9475POPC   NC364487  22.940   5.900   5.550
 9475POPC   PO464488  22.902   5.916   5.850
 9475POPC   GL164489  22.955   5.831   6.150
 9475POPC   GL264490  22.777   5.813   6.150
 9475POPC   C1A64491  22.941   5.865   6.450
 9475POPC   D2A64492  22.986   5.869   6.750
 9475POPC   C3A64493  22.970   5.912   7.050
 9475POPC   C4A64494  22.922   5.862   7.350
 9475POPC   C1B64495  22.661   5.769   6.450
 9475POPC   C2B64496  22.691   5.788   6.750
 9475POPC   C3B64497  22.686   5.798   7.050
 9475POPC   C4B64498  22.662   5.792   7.350
 9476POPC   NC364499  22.112  25.295   5.550
 9476POPC   PO464500  22.193  25.225   5.850
 9476POPC   GL164501  22.118  25.232   6.150
 9476POPC   GL264502  22.321  25.278   6.150
 9476POPC   C1A64503  22.182  25.272   6.450
 9476POPC   D2A64504  22.113  25.294   6.750
 9476POPC   C3A64505  22.205  25.299   7.050
 9476POPC   C4A64506  22.139  25.314   7.350
 9476POPC   C1B64507  22.447  25.308   6.450
 9476POPC   C2B64508  22.429  25.356   6.750
 9476POPC   C3B64509  22.384  25.302   7.050
 9476POPC   C4B64510  22.406  25.362   7.350
 9477POPC   NC364511  27.616  23.754   5.550
 9477POPC   PO464512  27.625  23.712   5.850
 9477POPC   GL164513  27.621  23.731   6.150
 9477POPC   GL264514  27.750  23.750   6.150
 9477POPC   C1A64515  27.555  23.754   6.450
 9477POPC   D2A64516  27.555  23.709   6.750
 9477POPC   C3A64517  27.554  23.723   7.050
 9477POPC   C4A64518  27.625  23.752   7.350
 9477POPC   C1B64519  27.837  23.808   6.450
 9477POPC   C2B64520  27.769  23.879   6.750
 9477POPC   C3B64521  27.797  23.852   7.050
 9477POPC   C4B64522  27.831  23.861   7.350
 9478POPC   NC364523   0.420  32.274   5.550
 9478POPC   PO464524   0.402  32.294   5.850
 9478POPC   GL164525   0.427  32.247   6.150
 9478POPC   GL264526   0.333  32.251   6.150
 9478POPC   C1A64527   0.474  32.259   6.450
 9478POPC   D2A64528   0.473  32.234   6.750
 9478POPC   C3A64529   0.485  32.233   7.050
 9478POPC   C4A64530   0.397  32.213   7.350
 9478POPC   C1B64531   0.234  32.273   6.450
 9478POPC   C2B64532   0.224  32.238   6.750
 9478POPC   C3B64533   0.215  32.212   7.050
 9478POPC   C4B64534   0.228  32.228   7.350
 9479POPC   NC364535  10.566  30.725   5.550
 9479POPC   PO464536  10.521  30.672   5.850
 9479POPC   GL164537  10.564  30.716   6.150
 9479POPC   GL264538  10.561  30.849   6.150
 9479POPC   C1A64539  10.509  30.672   6.450
 9479POPC   D2A64540  10.514  30.664   6.750
 9479POPC   C3A64541  10.540  30.745   7.050
 9479POPC   C4A64542  10.517  30.685   7.350
 9479POPC   C1B64543  10.553  30.958   6.450
 9479POPC   C2B64544  10.646  30.933   6.750
 9479POPC   C3B64545  10.606  30.892   7.050
 9479POPC   C4B64546  10.607  30.949   7.350
 9480POPC   NC364547  27.573   5.064   5.550
 9480POPC   PO464548  27.614   5.105   5.850
 9480POPC   GL164549  27.640   5.092   6.150
 9480POPC   GL264550  27.677   5.082   6.150
 9480POPC   C1A64551  27.580   5.112   6.450
 9480POPC   D2A64552  27.588   5.134   6.750
 9480POPC   C3A64553  27.614   5.095   7.050
 9480POPC   C4A64554  27.632   5.142   7.350
 9480POPC   C1B64555  27.829   5.097   6.450
 9480POPC   C2B64556  27.832   5.059   6.750
 9480POPC   C3B64557  27.813   5.106   7.050
 9480POPC   C4B64558  27.868   5.060   7.350
 9481POPC   NC364559  23.706  22.911   5.550
 9481POPC   PO464560  23.665  22.971   5.850
 9481POPC   GL164561  23.682  22.937   6.150
 9481POPC   GL264562  23.833  22.936   6.150
 9481POPC   C1A64563  23.735  22.948   6.450
 9481POPC   D2A64564  23.683  22.902   6.750
 9481POPC   C3A64565  23.688  22.983   7.050
 9481POPC   C4A64566  23.711  22.947   7.350
 9481POPC   C1B64567  23.921  22.938   6.450
 9481POPC   C2B64568  23.973  22.894   6.750
 9481POPC   C3B64569  23.961  22.929   7.050
 9481POPC   C4B64570  23.930  22.933   7.350
 9482POPC   NC364571  33.813  36.912   5.550
 9482POPC   PO464572  33.812  36.922   5.850
 9482POPC   GL164573  33.835  36.855   6.150
 9482POPC   GL264574  33.853  36.783   6.150
 9482POPC   C1A64575  33.795  36.887   6.450
 9482POPC   D2A64576  33.830  36.854   6.750
 9482POPC   C3A64577  33.799  36.903   7.050
 9482POPC   C4A64578  33.816  36.927   7.350
 9482POPC   C1B64579  33.854  36.705   6.450
 9482POPC   C2B64580  33.838  36.703   6.750
 9482POPC   C3B64581  33.904  36.695   7.050
 9482POPC   C4B64582  33.877  36.635   7.350
 9483POPC   NC364583  17.458  35.397   5.550
 9483POPC   PO464584  17.520  35.329   5.850
 9483POPC   GL164585  17.506  35.326   6.150
 9483POPC   GL264586  17.387  35.394   6.150
 9483POPC   C1A64587  17.537  35.343   6.450
 9483POPC   D2A64588  17.540  35.302   6.750
 9483POPC   C3A64589  17.538  35.373   7.050
 9483POPC   C4A64590  17.528  35.353   7.350
 9483POPC   C1B64591  17.290  35.360   6.450
 9483POPC   C2B64592  17.247  35.390   6.750
 9483POPC   C3B64593  17.255  35.398   7.050
 9483POPC   C4B64594  17.262  35.398   7.350
 9484POPC   NC364595  11.347  31.516   5.550
 9484POPC   PO464596  11.264  31.502   5.850
 9484POPC   GL164597  11.340  31.425   6.150
 9484POPC   GL264598  11.381  31.460   6.150
 9484POPC   C1A64599  11.350  31.437   6.450
 9484POPC   D2A64600  11.333  31.468   6.750
 9484POPC   C3A64601  11.289  31.480   7.050
 9484POPC   C4A64602  11.263  31.426   7.350
 9484POPC   C1B64603  11.522  31.524   6.450
 9484POPC   C2B64604  11.574  31.466   6.750
 9484POPC   C3B64605  11.596  31.540   7.050
 9484POPC   C4B64606  11.573  31.513   7.350
 9485POPC   NC364607  33.032  14.391   5.550
 9485POPC   PO464608  33.053  14.394   5.850
 9485POPC   GL164609  33.012  14.437   6.150
 9485POPC   GL264610  33.062  14.253   6.150
 9485POPC   C1A64611  33.038  14.411   6.450
 9485POPC   D2A64612  33.026  14.432   6.750
 9485POPC   C3A64613  33.015  14.421   7.050
 9485POPC   C4A64614  32.997  14.425   7.350
 9485POPC   C1B64615  33.134  14.227   6.450
 9485POPC   C2B64616  33.103  14.150   6.750
 9485POPC   C3B64617  33.099  14.140   7.050
 9485POPC   C4B64618  33.110  14.179   7.350
 9486POPC   NC364619  15.959  31.516   5.550
 9486POPC   PO464620  15.910  31.519   5.850
 9486POPC   GL164621  15.929  31.492   6.150
 9486POPC   GL264622  15.816  31.481   6.150
 9486POPC   C1A64623  15.999  31.512   6.450
 9486POPC   D2A64624  15.989  31.455   6.750
 9486POPC   C3A64625  15.959  31.497   7.050
 9486POPC   C4A64626  15.954  31.469   7.350
 9486POPC   C1B64627  15.735  31.536   6.450
 9486POPC   C2B64628  15.679  31.487   6.750
 9486POPC   C3B64629  15.750  31.550   7.050
 9486POPC   C4B64630  15.749  31.506   7.350
 9487POPC   NC364631  19.806   5.901   5.550
 9487POPC   PO464632  19.853   5.834   5.850
 9487POPC   GL164633  19.800   5.826   6.150
 9487POPC   GL264634  19.683   5.873   6.150
 9487POPC   C1A64635  19.820   5.904   6.450
 9487POPC   D2A64636  19.882   5.868   6.750
 9487POPC   C3A64637  19.868   5.909   7.050
 9487POPC   C4A64638  19.834   5.829   7.350
 9487POPC   C1B64639  19.635   5.790   6.450
 9487POPC   C2B64640  19.558   5.807   6.750
 9487POPC   C3B64641  19.556   5.758   7.050
 9487POPC   C4B64642  19.549   5.772   7.350
 9488POPC   NC364643  34.544  43.146   5.550
 9488POPC   PO464644  34.617  43.113   5.850
 9488POPC   GL164645  34.583  43.130   6.150
 9488POPC   GL264646  34.481  43.102   6.150
 9488POPC   C1A64647  34.547  43.152   6.450
 9488POPC   D2A64648  34.557  43.086   6.750
 9488POPC   C3A64649  34.569  43.146   7.050
 9488POPC   C4A64650  34.611  43.079   7.350
 9488POPC   C1B64651  34.331  43.158   6.450
 9488POPC   C2B64652  34.297  43.146   6.750
 9488POPC   C3B64653  34.282  43.128   7.050
 9488POPC   C4B64654  34.279  43.169   7.350
 9489POPC   NC364655  33.071  35.348   5.550
 9489POPC   PO464656  33.016  35.386   5.850
 9489POPC   GL164657  33.007  35.366   6.150
 9489POPC   GL264658  33.050  35.461   6.150
 9489POPC   C1A64659  33.037  35.306   6.450
 9489POPC   D2A64660  32.978  35.383   6.750
 9489POPC   C3A64661  33.044  35.337   7.050
 9489POPC   C4A64662  32.987  35.326   7.350
 9489POPC   C1B64663  33.064  35.550   6.450
 9489POPC   C2B64664  33.085  35.621   6.750
 9489POPC   C3B64665  33.037  35.639   7.050
 9489POPC   C4B64666  33.057  35.641   7.350
 9490POPC   NC364667  29.153  26.862   5.550
 9490POPC   PO464668  29.123  26.799   5.850
 9490POPC   GL164669  29.182  26.832   6.150
 9490POPC   GL264670  29.052  26.776   6.150
 9490POPC   C1A64671  29.186  26.772   6.450
 9490POPC   D2A64672  29.119  26.819   6.750
 9490POPC   C3A64673  29.119  26.867   7.050
 9490POPC   C4A64674  29.097  26.778   7.350
 9490POPC   C1B64675  28.909  26.688   6.450
 9490POPC   C2B64676  28.877  26.691   6.750
 9490POPC   C3B64677  28.968  26.747   7.050
 9490POPC   C4B64678  28.903  26.683   7.350
 9491POPC   NC364679   3.543  25.292   5.550
 9491POPC   PO464680   3.527  25.298   5.850
 9491POPC   GL164681   3.505  25.282   6.150
 9491POPC   GL264682   3.434  25.349   6.150
 9491POPC   C1A64683   3.514  25.237   6.450
 9491POPC   D2A64684   3.583  25.298   6.750
 9491POPC   C3A64685   3.587  25.242   7.050
 9491POPC   C4A64686   3.579  25.299   7.350
 9491POPC   C1B64687   3.370  25.459   6.450
 9491POPC   C2B64688   3.361  25.435   6.750
 9491POPC   C3B64689   3.405  25.453   7.050
 9491POPC   C4B64690   3.348  25.460   7.350
 9492POPC   NC364691  20.603  44.665   5.550
 9492POPC   PO464692  20.623  44.630   5.850
 9492POPC   GL164693  20.610  44.664   6.150
 9492POPC   GL264694  20.504  44.691   6.150
 9492POPC   C1A64695  20.609  44.614   6.450
 9492POPC   D2A64696  20.636  44.635   6.750
 9492POPC   C3A64697  20.606  44.688   7.050
 9492POPC   C4A64698  20.604  44.704   7.350
 9492POPC   C1B64699  20.343  44.747   6.450
 9492POPC   C2B64700  20.358  44.761   6.750
 9492POPC   C3B64701  20.379  44.772   7.050
 9492POPC   C4B64702  20.386  44.754   7.350
 9493POPC   NC364703  37.705  40.034   5.550
 9493POPC   PO464704  37.719  39.995   5.850
 9493POPC   GL164705  37.684  40.024   6.150
 9493POPC   GL264706  37.625  39.940   6.150
 9493POPC   C1A64707  37.696  39.964   6.450
 9493POPC   D2A64708  37.644  40.056   6.750
 9493POPC   C3A64709  37.685  40.025   7.050
 9493POPC   C4A64710  37.701  40.012   7.350
 9493POPC   C1B64711  37.550  39.850   6.450
 9493POPC   C2B64712  37.574  39.781   6.750
 9493POPC   C3B64713  37.506  39.831   7.050
 9493POPC   C4B64714  37.529  39.774   7.350
 9494POPC   NC364715  28.347  21.401   5.550
 9494POPC   PO464716  28.415  21.405   5.850
 9494POPC   GL164717  28.392  21.402   6.150
 9494POPC   GL264718  28.270  21.303   6.150
 9494POPC   C1A64719  28.332  21.407   6.450
 9494POPC   D2A64720  28.412  21.350   6.750
 9494POPC   C3A64721  28.333  21.399   7.050
 9494POPC   C4A64722  28.374  21.361   7.350
 9494POPC   C1B64723  28.193  21.202   6.450
 9494POPC   C2B64724  28.237  21.154   6.750
 9494POPC   C3B64725  28.240  21.147   7.050
 9494POPC   C4B64726  28.172  21.210   7.350
 9495POPC   NC364727  29.961   8.168   5.550
 9495POPC   PO464728  29.943   8.216   5.850
 9495POPC   GL164729  29.962   8.155   6.150
 9495POPC   GL264730  29.799   8.211   6.150
 9495POPC   C1A64731  29.930   8.172   6.450
 9495POPC   D2A64732  29.878   8.200   6.750
 9495POPC   C3A64733  29.880   8.244   7.050
 9495POPC   C4A64734  29.900   8.191   7.350
 9495POPC   C1B64735  29.679   8.172   6.450
 9495POPC   C2B64736  29.667   8.134   6.750
 9495POPC   C3B64737  29.672   8.148   7.050
 9495POPC   C4B64738  29.689   8.173   7.350
 9496POPC   NC364739  32.257  23.711   5.550
 9496POPC   PO464740  32.224  23.726   5.850
 9496POPC   GL164741  32.242  23.679   6.150
 9496POPC   GL264742  32.212  23.835   6.150
 9496POPC   C1A64743  32.243  23.733   6.450
 9496POPC   D2A64744  32.242  23.677   6.750
 9496POPC   C3A64745  32.273  23.674   7.050
 9496POPC   C4A64746  32.296  23.690   7.350
 9496POPC   C1B64747  32.208  23.992   6.450
 9496POPC   C2B64748  32.208  23.926   6.750
 9496POPC   C3B64749  32.239  23.968   7.050
 9496POPC   C4B64750  32.195  23.941   7.350
 9497POPC   NC364751  15.202  25.267   5.550
 9497POPC   PO464752  15.158  25.289   5.850
 9497POPC   GL164753  15.204  25.249   6.150
 9497POPC   GL264754  15.208  25.340   6.150
 9497POPC   C1A64755  15.172  25.219   6.450
 9497POPC   D2A64756  15.139  25.289   6.750
 9497POPC   C3A64757  15.143  25.302   7.050
 9497POPC   C4A64758  15.178  25.236   7.350
 9497POPC   C1B64759  15.224  25.475   6.450
 9497POPC   C2B64760  15.276  25.533   6.750
 9497POPC   C3B64761  15.261  25.527   7.050
 9497POPC   C4B64762  15.242  25.515   7.350
 9498POPC   NC364763  18.325  34.605   5.550
 9498POPC   PO464764  18.281  34.615   5.850
 9498POPC   GL164765  18.240  34.592   6.150
 9498POPC   GL264766  18.300  34.735   6.150
 9498POPC   C1A64767  18.288  34.564   6.450
 9498POPC   D2A64768  18.292  34.618   6.750
 9498POPC   C3A64769  18.238  34.540   7.050
 9498POPC   C4A64770  18.285  34.617   7.350
 9498POPC   C1B64771  18.311  34.781   6.450
 9498POPC   C2B64772  18.369  34.818   6.750
 9498POPC   C3B64773  18.304  34.836   7.050
 9498POPC   C4B64774  18.330  34.827   7.350
 9499POPC   NC364775  29.910  11.255   5.550
 9499POPC   PO464776  29.961  11.335   5.850
 9499POPC   GL164777  29.939  11.263   6.150
 9499POPC   GL264778  30.054  11.316   6.150
 9499POPC   C1A64779  29.953  11.322   6.450
 9499POPC   D2A64780  29.899  11.347   6.750
 9499POPC   C3A64781  29.959  11.311   7.050
 9499POPC   C4A64782  29.923  11.348   7.350
 9499POPC   C1B64783  30.128  11.356   6.450
 9499POPC   C2B64784  30.143  11.302   6.750
 9499POPC   C3B64785  30.194  11.300   7.050
 9499POPC   C4B64786  30.147  11.325   7.350
 9500POPC   NC364787  21.416   5.122   5.550
 9500POPC   PO464788  21.380   5.112   5.850
 9500POPC   GL164789  21.395   5.072   6.150
 9500POPC   GL264790  21.357   4.930   6.150
 9500POPC   C1A64791  21.390   5.050   6.450
 9500POPC   D2A64792  21.370   5.093   6.750
 9500POPC   C3A64793  21.381   5.111   7.050
 9500POPC   C4A64794  21.371   5.068   7.350
 9500POPC   C1B64795  21.328   4.854   6.450
 9500POPC   C2B64796  21.375   4.811   6.750
 9500POPC   C3B64797  21.383   4.801   7.050
 9500POPC   C4B64798  21.371   4.884   7.350
 9501POPC   NC364799  12.043  22.987   5.550
 9501POPC   PO464800  12.074  22.948   5.850
 9501POPC   GL164801  12.096  22.947   6.150
 9501POPC   GL264802  12.116  22.988   6.150
 9501POPC   C1A64803  12.068  22.930   6.450
 9501POPC   D2A64804  12.093  22.968   6.750
 9501POPC   C3A64805  12.080  22.935   7.050
 9501POPC   C4A64806  12.091  22.953   7.350
 9501POPC   C1B64807  12.234  23.114   6.450
 9501POPC   C2B64808  12.208  23.169   6.750
 9501POPC   C3B64809  12.246  23.170   7.050
 9501POPC   C4B64810  12.287  23.114   7.350
 9502POPC   NC364811   5.100   9.739   5.550
 9502POPC   PO464812   5.051   9.735   5.850
 9502POPC   GL164813   5.083   9.771   6.150
 9502POPC   GL264814   4.934   9.783   6.150
 9502POPC   C1A64815   5.142   9.783   6.450
 9502POPC   D2A64816   5.045   9.720   6.750
 9502POPC   C3A64817   5.118   9.763   7.050
 9502POPC   C4A64818   5.052   9.726   7.350
 9502POPC   C1B64819   4.890   9.762   6.450
 9502POPC   C2B64820   4.877   9.820   6.750
 9502POPC   C3B64821   4.795   9.740   7.050
 9502POPC   C4B64822   4.870   9.763   7.350
 9503POPC   NC364823  10.571   1.220   5.550
 9503POPC   PO464824  10.476   1.240   5.850
 9503POPC   GL164825  10.483   1.259   6.150
 9503POPC   GL264826  10.457   1.145   6.150
 9503POPC   C1A64827  10.493   1.252   6.450
 9503POPC   D2A64828  10.534   1.218   6.750
 9503POPC   C3A64829  10.545   1.169   7.050
 9503POPC   C4A64830  10.494   1.235   7.350
 9503POPC   C1B64831  10.330   1.109   6.450
 9503POPC   C2B64832  10.289   1.081   6.750
 9503POPC   C3B64833  10.251   1.076   7.050
 9503POPC   C4B64834  10.256   1.152   7.350
 9504POPC   NC364835  35.317  17.462   5.550
 9504POPC   PO464836  35.314  17.555   5.850
 9504POPC   GL164837  35.396  17.474   6.150
 9504POPC   GL264838  35.247  17.580   6.150
 9504POPC   C1A64839  35.383  17.526   6.450
 9504POPC   D2A64840  35.348  17.517   6.750
 9504POPC   C3A64841  35.335  17.508   7.050
 9504POPC   C4A64842  35.358  17.498   7.350
 9504POPC   C1B64843  35.152  17.685   6.450
 9504POPC   C2B64844  35.212  17.734   6.750
 9504POPC   C3B64845  35.182  17.699   7.050
 9504POPC   C4B64846  35.206  17.667   7.350
 9505POPC   NC364847  38.471  43.893   5.550
 9505POPC   PO464848  38.435  43.893   5.850
 9505POPC   GL164849  38.417  43.928   6.150
 9505POPC   GL264850  38.486  43.772   6.150
 9505POPC   C1A64851  38.409  43.845   6.450
 9505POPC   D2A64852  38.456  43.851   6.750
 9505POPC   C3A64853  38.469  43.838   7.050
 9505POPC   C4A64854  38.495  43.870   7.350
 9505POPC   C1B64855  38.431  43.604   6.450
 9505POPC   C2B64856  38.510  43.673   6.750
 9505POPC   C3B64857  38.489  43.608   7.050
 9505POPC   C4B64858  38.478  43.647   7.350
 9506POPC   NC364859  12.855  24.538   5.550
 9506POPC   PO464860  12.900  24.446   5.850
 9506POPC   GL164861  12.867  24.461   6.150
 9506POPC   GL264862  12.737  24.459   6.150
 9506POPC   C1A64863  12.811  24.535   6.450
 9506POPC   D2A64864  12.887  24.498   6.750
 9506POPC   C3A64865  12.891  24.493   7.050
 9506POPC   C4A64866  12.806  24.529   7.350
 9506POPC   C1B64867  12.655  24.391   6.450
 9506POPC   C2B64868  12.564  24.411   6.750
 9506POPC   C3B64869  12.653  24.436   7.050
 9506POPC   C4B64870  12.579  24.447   7.350
 9507POPC   NC364871  36.132   6.655   5.550
 9507POPC   PO464872  36.141   6.598   5.850
 9507POPC   GL164873  36.144   6.646   6.150
 9507POPC   GL264874  36.219   6.626   6.150
 9507POPC   C1A64875  36.153   6.643   6.450
 9507POPC   D2A64876  36.092   6.643   6.750
 9507POPC   C3A64877  36.100   6.669   7.050
 9507POPC   C4A64878  36.114   6.637   7.350
 9507POPC   C1B64879  36.382   6.532   6.450
 9507POPC   C2B64880  36.301   6.560   6.750
 9507POPC   C3B64881  36.309   6.503   7.050
 9507POPC   C4B64882  36.301   6.505   7.350
 9508POPC   NC364883  35.371   3.538   5.550
 9508POPC   PO464884  35.314   3.503   5.850
 9508POPC   GL164885  35.304   3.512   6.150
 9508POPC   GL264886  35.332   3.618   6.150
 9508POPC   C1A64887  35.367   3.513   6.450
 9508POPC   D2A64888  35.352   3.563   6.750
 9508POPC   C3A64889  35.322   3.506   7.050
 9508POPC   C4A64890  35.316   3.520   7.350
 9508POPC   C1B64891  35.300   3.758   6.450
 9508POPC   C2B64892  35.358   3.789   6.750
 9508POPC   C3B64893  35.312   3.786   7.050
 9508POPC   C4B64894  35.384   3.802   7.350
 9509POPC   NC364895  29.121   5.106   5.550
 9509POPC   PO464896  29.177   5.072   5.850
 9509POPC   GL164897  29.117   5.121   6.150
 9509POPC   GL264898  29.306   5.142   6.150
 9509POPC   C1A64899  29.169   5.096   6.450
 9509POPC   D2A64900  29.178   5.110   6.750
 9509POPC   C3A64901  29.151   5.058   7.050
 9509POPC   C4A64902  29.136   5.104   7.350
 9509POPC   C1B64903  29.391   5.115   6.450
 9509POPC   C2B64904  29.383   5.100   6.750
 9509POPC   C3B64905  29.432   5.138   7.050
 9509POPC   C4B64906  29.353   5.135   7.350
 9510POPC   NC364907  12.053   0.481   5.550
 9510POPC   PO464908  12.051   0.431   5.850
 9510POPC   GL164909  12.083   0.468   6.150
 9510POPC   GL264910  12.228   0.520   6.150
 9510POPC   C1A64911  12.085   0.405   6.450
 9510POPC   D2A64912  12.060   0.398   6.750
 9510POPC   C3A64913  12.042   0.444   7.050
 9510POPC   C4A64914  12.086   0.480   7.350
 9510POPC   C1B64915  12.277   0.550   6.450
 9510POPC   C2B64916  12.264   0.509   6.750
 9510POPC   C3B64917  12.311   0.539   7.050
 9510POPC   C4B64918  12.341   0.475   7.350
 9511POPC   NC364919  36.858   3.569   5.550
 9511POPC   PO464920  36.856   3.555   5.850
 9511POPC   GL164921  36.939   3.585   6.150
 9511POPC   GL264922  36.829   3.613   6.150
 9511POPC   C1A64923  36.931   3.559   6.450
 9511POPC   D2A64924  36.886   3.582   6.750
 9511POPC   C3A64925  36.906   3.493   7.050
 9511POPC   C4A64926  36.885   3.526   7.350
 9511POPC   C1B64927  36.827   3.742   6.450
 9511POPC   C2B64928  36.811   3.814   6.750
 9511POPC   C3B64929  36.807   3.740   7.050
 9511POPC   C4B64930  36.798   3.760   7.350
 9512POPC   NC364931  37.706  31.470   5.550
 9512POPC   PO464932  37.649  31.446   5.850
 9512POPC   GL164933  37.675  31.502   6.150
 9512POPC   GL264934  37.768  31.553   6.150
 9512POPC   C1A64935  37.659  31.462   6.450
 9512POPC   D2A64936  37.630  31.465   6.750
 9512POPC   C3A64937  37.675  31.505   7.050
 9512POPC   C4A64938  37.691  31.502   7.350
 9512POPC   C1B64939  37.741  31.747   6.450
 9512POPC   C2B64940  37.795  31.704   6.750
 9512POPC   C3B64941  37.797  31.661   7.050
 9512POPC   C4B64942  37.797  31.680   7.350
 9513POPC   NC364943  23.747  14.367   5.550
 9513POPC   PO464944  23.687  14.372   5.850
 9513POPC   GL164945  23.762  14.373   6.150
 9513POPC   GL264946  23.791  14.522   6.150
 9513POPC   C1A64947  23.692  14.384   6.450
 9513POPC   D2A64948  23.700  14.426   6.750
 9513POPC   C3A64949  23.733  14.401   7.050
 9513POPC   C4A64950  23.686  14.413   7.350
 9513POPC   C1B64951  23.839  14.667   6.450
 9513POPC   C2B64952  23.806  14.665   6.750
 9513POPC   C3B64953  23.826  14.605   7.050
 9513POPC   C4B64954  23.808  14.610   7.350
 9514POPC   NC364955  32.276   5.103   5.550
 9514POPC   PO464956  32.281   5.113   5.850
 9514POPC   GL164957  32.214   5.053   6.150
 9514POPC   GL264958  32.360   4.978   6.150
 9514POPC   C1A64959  32.287   5.061   6.450
 9514POPC   D2A64960  32.246   5.103   6.750
 9514POPC   C3A64961  32.257   5.135   7.050
 9514POPC   C4A64962  32.260   5.085   7.350
 9514POPC   C1B64963  32.412   4.914   6.450
 9514POPC   C2B64964  32.432   4.936   6.750
 9514POPC   C3B64965  32.382   4.941   7.050
 9514POPC   C4B64966  32.405   4.924   7.350
 9515POPC   NC364967   4.283  22.921   5.550
 9515POPC   PO464968   4.340  22.895   5.850
 9515POPC   GL164969   4.312  22.978   6.150
 9515POPC   GL264970   4.312  22.835   6.150
 9515POPC   C1A64971   4.330  22.969   6.450
 9515POPC   D2A64972   4.339  22.919   6.750
 9515POPC   C3A64973   4.281  22.985   7.050
 9515POPC   C4A64974   4.304  22.966   7.350
 9515POPC   C1B64975   4.173  22.727   6.450
 9515POPC   C2B64976   4.203  22.665   6.750
 9515POPC   C3B64977   4.258  22.742   7.050
 9515POPC   C4B64978   4.223  22.740   7.350
 9516POPC   NC364979  29.884  37.720   5.550
 9516POPC   PO464980  29.931  37.667   5.850
 9516POPC   GL164981  29.905  37.707   6.150
 9516POPC   GL264982  29.917  37.786   6.150
 9516POPC   C1A64983  29.937  37.673   6.450
 9516POPC   D2A64984  29.911  37.634   6.750
 9516POPC   C3A64985  29.905  37.661   7.050
 9516POPC   C4A64986  29.957  37.687   7.350
 9516POPC   C1B64987  29.910  37.927   6.450
 9516POPC   C2B64988  29.871  37.942   6.750
 9516POPC   C3B64989  29.839  37.961   7.050
 9516POPC   C4B64990  29.858  37.966   7.350
 9517POPC   NC364991  39.959   2.035   5.550
 9517POPC   PO464992  39.994   1.989   5.850
 9517POPC   GL164993  39.966   1.978   6.150
 9517POPC   GL264994  40.080   1.982   6.150
 9517POPC   C1A64995  39.963   2.011   6.450
 9517POPC   D2A64996  40.016   1.944   6.750
 9517POPC   C3A64997  39.963   2.004   7.050
 9517POPC   C4A64998  40.028   2.036   7.350
 9517POPC   C1B64999  40.249   1.984   6.450
 9517POPC   C2B65000  40.250   1.893   6.750
 9517POPC   C3B65001  40.214   1.937   7.050
 9517POPC   C4B65002  40.289   1.913   7.350
 9518POPC   NC365003  22.209  22.986   5.550
 9518POPC   PO465004  22.159  22.930   5.850
 9518POPC   GL165005  22.115  22.929   6.150
 9518POPC   GL265006  22.178  23.033   6.150
 9518POPC   C1A65007  22.182  22.911   6.450
 9518POPC   D2A65008  22.150  22.927   6.750
 9518POPC   C3A65009  22.133  22.916   7.050
 9518POPC   C4A65010  22.128  22.976   7.350
 9518POPC   C1B65011  22.177  23.174   6.450
 9518POPC   C2B65012  22.168  23.176   6.750
 9518POPC   C3B65013  22.148  23.167   7.050
 9518POPC   C4B65014  22.162  23.166   7.350
 9519POPC   NC365015  34.560  30.656   5.550
 9519POPC   PO465016  34.592  30.672   5.850
 9519POPC   GL165017  34.563  30.715   6.150
 9519POPC   GL265018  34.438  30.674   6.150
 9519POPC   C1A65019  34.554  30.738   6.450
 9519POPC   D2A65020  34.594  30.732   6.750
 9519POPC   C3A65021  34.624  30.695   7.050
 9519POPC   C4A65022  34.559  30.657   7.350
 9519POPC   C1B65023  34.374  30.602   6.450
 9519POPC   C2B65024  34.329  30.551   6.750
 9519POPC   C3B65025  34.337  30.542   7.050
 9519POPC   C4B65026  34.343  30.596   7.350
 9520POPC   NC365027   5.095  36.114   5.550
 9520POPC   PO465028   5.093  36.100   5.850
 9520POPC   GL165029   5.099  36.155   6.150
 9520POPC   GL265030   5.168  36.212   6.150
 9520POPC   C1A65031   5.122  36.173   6.450
 9520POPC   D2A65032   5.077  36.129   6.750
 9520POPC   C3A65033   5.128  36.161   7.050
 9520POPC   C4A65034   5.084  36.083   7.350
 9520POPC   C1B65035   5.258  36.311   6.450
 9520POPC   C2B65036   5.167  36.299   6.750
 9520POPC   C3B65037   5.258  36.343   7.050
 9520POPC   C4B65038   5.222  36.397   7.350
 9521POPC   NC365039  33.805  40.734   5.550
 9521POPC   PO465040  33.815  40.813   5.850
 9521POPC   GL165041  33.841  40.760   6.150
 9521POPC   GL265042  33.934  40.814   6.150
 9521POPC   C1A65043  33.761  40.794   6.450
 9521POPC   D2A65044  33.848  40.778   6.750
 9521POPC   C3A65045  33.773  40.792   7.050
 9521POPC   C4A65046  33.759  40.749   7.350
 9521POPC   C1B65047  34.007  40.863   6.450
 9521POPC   C2B65048  34.065  40.869   6.750
 9521POPC   C3B65049  34.052  40.831   7.050
 9521POPC   C4B65050  34.002  40.829   7.350
 9522POPC   NC365051  22.956  21.339   5.550
 9522POPC   PO465052  22.914  21.416   5.850
 9522POPC   GL165053  22.919  21.345   6.150
 9522POPC   GL265054  22.965  21.259   6.150
 9522POPC   C1A65055  22.907  21.349   6.450
 9522POPC   D2A65056  22.922  21.405   6.750
 9522POPC   C3A65057  22.929  21.365   7.050
 9522POPC   C4A65058  22.935  21.356   7.350
 9522POPC   C1B65059  23.000  21.149   6.450
 9522POPC   C2B65060  22.943  21.152   6.750
 9522POPC   C3B65061  22.970  21.111   7.050
 9522POPC   C4B65062  22.995  21.112   7.350
 9523POPC   NC365063  26.829  32.264   5.550
 9523POPC   PO465064  26.804  32.249   5.850
 9523POPC   GL165065  26.849  32.211   6.150
 9523POPC   GL265066  26.754  32.349   6.150
 9523POPC   C1A65067  26.858  32.248   6.450
 9523POPC   D2A65068  26.795  32.278   6.750
 9523POPC   C3A65069  26.790  32.237   7.050
 9523POPC   C4A65070  26.834  32.226   7.350
 9523POPC   C1B65071  26.606  32.363   6.450
 9523POPC   C2B65072  26.619  32.371   6.750
 9523POPC   C3B65073  26.611  32.443   7.050
 9523POPC   C4B65074  26.639  32.357   7.350
 9524POPC   NC365075  11.257   8.198   5.550
 9524POPC   PO465076  11.304   8.220   5.850
 9524POPC   GL165077  11.274   8.202   6.150
 9524POPC   GL265078  11.212   8.146   6.150
 9524POPC   C1A65079  11.267   8.161   6.450
 9524POPC   D2A65080  11.290   8.160   6.750
 9524POPC   C3A65081  11.272   8.174   7.050
 9524POPC   C4A65082  11.265   8.155   7.350
 9524POPC   C1B65083  11.046   8.190   6.450
 9524POPC   C2B65084  11.039   8.112   6.750
 9524POPC   C3B65085  11.073   8.195   7.050
 9524POPC   C4B65086  11.014   8.154   7.350
 9525POPC   NC365087  11.254   5.054   5.550
 9525POPC   PO465088  11.346   5.118   5.850
 9525POPC   GL165089  11.321   5.131   6.150
 9525POPC   GL265090  11.413   4.947   6.150
 9525POPC   C1A65091  11.290   5.050   6.450
 9525POPC   D2A65092  11.349   5.140   6.750
 9525POPC   C3A65093  11.259   5.076   7.050
 9525POPC   C4A65094  11.284   5.098   7.350
 9525POPC   C1B65095  11.413   4.892   6.450
 9525POPC   C2B65096  11.448   4.843   6.750
 9525POPC   C3B65097  11.477   4.868   7.050
 9525POPC   C4B65098  11.410   4.914   7.350
 9526POPC   NC365099  36.142  14.400   5.550
 9526POPC   PO465100  36.117  14.398   5.850
 9526POPC   GL165101  36.113  14.390   6.150
 9526POPC   GL265102  36.264  14.423   6.150
 9526POPC   C1A65103  36.153  14.367   6.450
 9526POPC   D2A65104  36.167  14.367   6.750
 9526POPC   C3A65105  36.144  14.402   7.050
 9526POPC   C4A65106  36.175  14.420   7.350
 9526POPC   C1B65107  36.368  14.335   6.450
 9526POPC   C2B65108  36.413  14.369   6.750
 9526POPC   C3B65109  36.422  14.389   7.050
 9526POPC   C4B65110  36.338  14.322   7.350
 9527POPC   NC365111  29.885  39.224   5.550
 9527POPC   PO465112  29.932  39.226   5.850
 9527POPC   GL165113  29.956  39.220   6.150
 9527POPC   GL265114  30.014  39.252   6.150
 9527POPC   C1A65115  29.913  39.268   6.450
 9527POPC   D2A65116  29.948  39.197   6.750
 9527POPC   C3A65117  29.950  39.259   7.050
 9527POPC   C4A65118  29.963  39.220   7.350
 9527POPC   C1B65119  30.161  39.200   6.450
 9527POPC   C2B65120  30.159  39.207   6.750
 9527POPC   C3B65121  30.148  39.191   7.050
 9527POPC   C4B65122  30.158  39.228   7.350
 9528POPC   NC365123  29.152  16.699   5.550
 9528POPC   PO465124  29.096  16.691   5.850
 9528POPC   GL165125  29.191  16.706   6.150
 9528POPC   GL265126  29.226  16.748   6.150
 9528POPC   C1A65127  29.101  16.707   6.450
 9528POPC   D2A65128  29.186  16.693   6.750
 9528POPC   C3A65129  29.148  16.709   7.050
 9528POPC   C4A65130  29.111  16.742   7.350
 9528POPC   C1B65131  29.415  16.750   6.450
 9528POPC   C2B65132  29.428  16.726   6.750
 9528POPC   C3B65133  29.410  16.688   7.050
 9528POPC   C4B65134  29.428  16.685   7.350
 9529POPC   NC365135  10.562  43.891   5.550
 9529POPC   PO465136  10.487  43.889   5.850
 9529POPC   GL165137  10.570  43.911   6.150
 9529POPC   GL265138  10.455  43.832   6.150
 9529POPC   C1A65139  10.477  43.932   6.450
 9529POPC   D2A65140  10.571  43.850   6.750
 9529POPC   C3A65141  10.527  43.846   7.050
 9529POPC   C4A65142  10.506  43.859   7.350
 9529POPC   C1B65143  10.274  43.790   6.450
 9529POPC   C2B65144  10.332  43.749   6.750
 9529POPC   C3B65145  10.330  43.808   7.050
 9529POPC   C4B65146  10.352  43.770   7.350
 9530POPC   NC365147  11.319  22.924   5.550
 9530POPC   PO465148  11.338  22.953   5.850
 9530POPC   GL165149  11.321  22.919   6.150
 9530POPC   GL265150  11.167  22.933   6.150
 9530POPC   C1A65151  11.319  22.965   6.450
 9530POPC   D2A65152  11.300  22.906   6.750
 9530POPC   C3A65153  11.280  22.962   7.050
 9530POPC   C4A65154  11.267  22.985   7.350
 9530POPC   C1B65155  11.038  22.861   6.450
 9530POPC   C2B65156  11.021  22.908   6.750
 9530POPC   C3B65157  11.026  22.835   7.050
 9530POPC   C4B65158  11.107  22.904   7.350
 9531POPC   NC365159  31.509   6.670   5.550
 9531POPC   PO465160  31.490   6.644   5.850
 9531POPC   GL165161  31.427   6.599   6.150
 9531POPC   GL265162  31.340   6.617   6.150
 9531POPC   C1A65163  31.435   6.643   6.450
 9531POPC   D2A65164  31.493   6.620   6.750
 9531POPC   C3A65165  31.455   6.662   7.050
 9531POPC   C4A65166  31.465   6.654   7.350
 9531POPC   C1B65167  31.224   6.613   6.450
 9531POPC   C2B65168  31.188   6.533   6.750
 9531POPC   C3B65169  31.221   6.525   7.050
 9531POPC   C4B65170  31.282   6.573   7.350
 9532POPC   NC365171   5.104   0.414   5.550
 9532POPC   PO465172   5.132   0.435   5.850
 9532POPC   GL165173   5.067   0.435   6.150
 9532POPC   GL265174   5.000   0.431   6.150
 9532POPC   C1A65175   5.052   0.391   6.450
 9532POPC   D2A65176   5.091   0.488   6.750
 9532POPC   C3A65177   5.102   0.449   7.050
 9532POPC   C4A65178   5.064   0.427   7.350
 9532POPC   C1B65179   4.826   0.445   6.450
 9532POPC   C2B65180   4.884   0.418   6.750
 9532POPC   C3B65181   4.848   0.484   7.050
 9532POPC   C4B65182   4.802   0.440   7.350
 9533POPC   NC365183  10.562  21.366   5.550
 9533POPC   PO465184  10.519  21.361   5.850
 9533POPC   GL165185  10.528  21.360   6.150
 9533POPC   GL265186  10.663  21.451   6.150
 9533POPC   C1A65187  10.524  21.379   6.450
 9533POPC   D2A65188  10.502  21.341   6.750
 9533POPC   C3A65189  10.556  21.338   7.050
 9533POPC   C4A65190  10.491  21.411   7.350
 9533POPC   C1B65191  10.724  21.543   6.450
 9533POPC   C2B65192  10.774  21.482   6.750
 9533POPC   C3B65193  10.774  21.480   7.050
 9533POPC   C4B65194  10.738  21.514   7.350
 9534POPC   NC365195  12.048  26.031   5.550
 9534POPC   PO465196  12.034  26.070   5.850
 9534POPC   GL165197  12.081  26.013   6.150
 9534POPC   GL265198  12.103  25.954   6.150
 9534POPC   C1A65199  12.046  26.004   6.450
 9534POPC   D2A65200  12.100  26.080   6.750
 9534POPC   C3A65201  12.074  26.040   7.050
 9534POPC   C4A65202  12.080  26.022   7.350
 9534POPC   C1B65203  12.192  25.843   6.450
 9534POPC   C2B65204  12.154  25.826   6.750
 9534POPC   C3B65205  12.219  25.845   7.050
 9534POPC   C4B65206  12.224  25.847   7.350
 9535POPC   NC365207  19.103  14.449   5.550
 9535POPC   PO465208  19.058  14.420   5.850
 9535POPC   GL165209  19.046  14.415   6.150
 9535POPC   GL265210  19.160  14.440   6.150
 9535POPC   C1A65211  19.057  14.359   6.450
 9535POPC   D2A65212  19.061  14.387   6.750
 9535POPC   C3A65213  19.023  14.391   7.050
 9535POPC   C4A65214  19.014  14.442   7.350
 9535POPC   C1B65215  19.329  14.371   6.450
 9535POPC   C2B65216  19.282  14.388   6.750
 9535POPC   C3B65217  19.302  14.391   7.050
 9535POPC   C4B65218  19.311  14.392   7.350
 9536POPC   NC365219  29.961   5.062   5.550
 9536POPC   PO465220  29.946   5.113   5.850
 9536POPC   GL165221  29.948   5.087   6.150
 9536POPC   GL265222  29.797   5.029   6.150
 9536POPC   C1A65223  29.916   5.070   6.450
 9536POPC   D2A65224  29.929   5.092   6.750
 9536POPC   C3A65225  29.909   5.140   7.050
 9536POPC   C4A65226  29.932   5.049   7.350
 9536POPC   C1B65227  29.661   4.976   6.450
 9536POPC   C2B65228  29.712   4.942   6.750
 9536POPC   C3B65229  29.667   5.019   7.050
 9536POPC   C4B65230  29.700   5.008   7.350
 9537POPC   NC365231   1.942   8.934   5.550
 9537POPC   PO465232   2.012   8.980   5.850
 9537POPC   GL165233   1.963   8.954   6.150
 9537POPC   GL265234   2.104   9.015   6.150
 9537POPC   C1A65235   2.038   8.927   6.450
 9537POPC   D2A65236   1.994   9.022   6.750
 9537POPC   C3A65237   2.039   9.020   7.050
 9537POPC   C4A65238   2.008   9.017   7.350
 9537POPC   C1B65239   2.187   9.142   6.450
 9537POPC   C2B65240   2.131   9.197   6.750
 9537POPC   C3B65241   2.140   9.151   7.050
 9537POPC   C4B65242   2.141   9.207   7.350
 9538POPC   NC365243  30.705  26.037   5.550
 9538POPC   PO465244  30.684  26.045   5.850
 9538POPC   GL165245  30.651  26.064   6.150
 9538POPC   GL265246  30.640  25.884   6.150
 9538POPC   C1A65247  30.697  26.033   6.450
 9538POPC   D2A65248  30.738  26.039   6.750
 9538POPC   C3A65249  30.667  26.006   7.050
 9538POPC   C4A65250  30.684  26.052   7.350
 9538POPC   C1B65251  30.616  25.827   6.450
 9538POPC   C2B65252  30.640  25.834   6.750
 9538POPC   C3B65253  30.631  25.788   7.050
 9538POPC   C4B65254  30.634  25.758   7.350
 9539POPC   NC365255  44.631   7.435   5.550
 9539POPC   PO465256  44.702   7.426   5.850
 9539POPC   GL165257  44.660   7.394   6.150
 9539POPC   GL265258  44.614   7.505   6.150
 9539POPC   C1A65259  44.632   7.427   6.450
 9539POPC   D2A65260  44.705   7.391   6.750
 9539POPC   C3A65261  44.698   7.429   7.050
 9539POPC   C4A65262  44.648   7.448   7.350
 9539POPC   C1B65263  44.601   7.705   6.450
 9539POPC   C2B65264  44.639   7.713   6.750
 9539POPC   C3B65265  44.649   7.638   7.050
 9539POPC   C4B65266  44.624   7.651   7.350
 9540POPC   NC365267  29.187  20.650   5.550
 9540POPC   PO465268  29.100  20.655   5.850
 9540POPC   GL165269  29.172  20.581   6.150
 9540POPC   GL265270  29.114  20.663   6.150
 9540POPC   C1A65271  29.129  20.655   6.450
 9540POPC   D2A65272  29.113  20.611   6.750
 9540POPC   C3A65273  29.132  20.578   7.050
 9540POPC   C4A65274  29.121  20.619   7.350
 9540POPC   C1B65275  29.007  20.844   6.450
 9540POPC   C2B65276  28.942  20.778   6.750
 9540POPC   C3B65277  28.967  20.848   7.050
 9540POPC   C4B65278  28.994  20.812   7.350
 9541POPC   NC365279  34.537  43.868   5.550
 9541POPC   PO465280  34.588  43.863   5.850
 9541POPC   GL165281  34.529  43.865   6.150
 9541POPC   GL265282  34.735  43.897   6.150
 9541POPC   C1A65283  34.625  43.895   6.450
 9541POPC   D2A65284  34.527  43.900   6.750
 9541POPC   C3A65285  34.550  43.923   7.050
 9541POPC   C4A65286  34.608  43.899   7.350
 9541POPC   C1B65287  34.858  43.779   6.450
 9541POPC   C2B65288  34.773  43.845   6.750
 9541POPC   C3B65289  34.783  43.767   7.050
 9541POPC   C4B65290  34.826  43.838   7.350
 9542POPC   NC365291  27.604   5.909   5.550
 9542POPC   PO465292  27.610   5.913   5.850
 9542POPC   GL165293  27.579   5.828   6.150
 9542POPC   GL265294  27.684   5.948   6.150
 9542POPC   C1A65295  27.563   5.898   6.450
 9542POPC   D2A65296  27.625   5.866   6.750
 9542POPC   C3A65297  27.544   5.864   7.050
 9542POPC   C4A65298  27.639   5.896   7.350
 9542POPC   C1B65299  27.854   5.929   6.450
 9542POPC   C2B65300  27.789   5.933   6.750
 9542POPC   C3B65301  27.846   5.894   7.050
 9542POPC   C4B65302  27.828   5.889   7.350
 9543POPC   NC365303  23.761  28.408   5.550
 9543POPC   PO465304  23.731  28.351   5.850
 9543POPC   GL165305  23.677  28.371   6.150
 9543POPC   GL265306  23.681  28.448   6.150
 9543POPC   C1A65307  23.707  28.376   6.450
 9543POPC   D2A65308  23.673  28.365   6.750
 9543POPC   C3A65309  23.668  28.405   7.050
 9543POPC   C4A65310  23.717  28.407   7.350
 9543POPC   C1B65311  23.655  28.655   6.450
 9543POPC   C2B65312  23.626  28.627   6.750
 9543POPC   C3B65313  23.607  28.608   7.050
 9543POPC   C4B65314  23.606  28.576   7.350
 9544POPC   NC365315  29.894   3.575   5.550
 9544POPC   PO465316  29.873   3.589   5.850
 9544POPC   GL165317  29.930   3.586   6.150
 9544POPC   GL265318  29.970   3.471   6.150
 9544POPC   C1A65319  29.894   3.541   6.450
 9544POPC   D2A65320  29.898   3.507   6.750
 9544POPC   C3A65321  29.945   3.567   7.050
 9544POPC   C4A65322  29.934   3.547   7.350
 9544POPC   C1B65323  29.967   3.320   6.450
 9544POPC   C2B65324  30.052   3.266   6.750
 9544POPC   C3B65325  30.053   3.327   7.050
 9544POPC   C4B65326  30.017   3.288   7.350
 9545POPC   NC365327  29.171  17.500   5.550
 9545POPC   PO465328  29.173  17.544   5.850
 9545POPC   GL165329  29.102  17.548   6.150
 9545POPC   GL265330  29.186  17.370   6.150
 9545POPC   C1A65331  29.109  17.467   6.450
 9545POPC   D2A65332  29.116  17.470   6.750
 9545POPC   C3A65333  29.136  17.503   7.050
 9545POPC   C4A65334  29.096  17.493   7.350
 9545POPC   C1B65335  29.099  17.237   6.450
 9545POPC   C2B65336  29.152  17.276   6.750
 9545POPC   C3B65337  29.132  17.294   7.050
 9545POPC   C4B65338  29.089  17.262   7.350
 9546POPC   NC365339   8.202  19.789   5.550
 9546POPC   PO465340   8.204  19.785   5.850
 9546POPC   GL165341   8.225  19.851   6.150
 9546POPC   GL265342   8.341  19.759   6.150
 9546POPC   C1A65343   8.223  19.844   6.450
 9546POPC   D2A65344   8.177  19.805   6.750
 9546POPC   C3A65345   8.204  19.875   7.050
 9546POPC   C4A65346   8.245  19.808   7.350
 9546POPC   C1B65347   8.431  19.730   6.450
 9546POPC   C2B65348   8.467  19.713   6.750
 9546POPC   C3B65349   8.457  19.736   7.050
 9546POPC   C4B65350   8.437  19.756   7.350
 9547POPC   NC365351   3.559  23.736   5.550
 9547POPC   PO465352   3.526  23.727   5.850
 9547POPC   GL165353   3.533  23.725   6.150
 9547POPC   GL265354   3.580  23.662   6.150
 9547POPC   C1A65355   3.536  23.680   6.450
 9547POPC   D2A65356   3.561  23.741   6.750
 9547POPC   C3A65357   3.530  23.714   7.050
 9547POPC   C4A65358   3.541  23.752   7.350
 9547POPC   C1B65359   3.715  23.498   6.450
 9547POPC   C2B65360   3.736  23.500   6.750
 9547POPC   C3B65361   3.672  23.525   7.050
 9547POPC   C4B65362   3.704  23.503   7.350
 9548POPC   NC365363  42.314   1.194   5.550
 9548POPC   PO465364  42.310   1.228   5.850
 9548POPC   GL165365  42.383   1.245   6.150
 9548POPC   GL265366  42.296   1.368   6.150
 9548POPC   C1A65367  42.335   1.192   6.450
 9548POPC   D2A65368  42.373   1.263   6.750
 9548POPC   C3A65369  42.327   1.247   7.050
 9548POPC   C4A65370  42.354   1.241   7.350
 9548POPC   C1B65371  42.221   1.414   6.450
 9548POPC   C2B65372  42.228   1.431   6.750
 9548POPC   C3B65373  42.169   1.402   7.050
 9548POPC   C4B65374  42.201   1.386   7.350
 9549POPC   NC365375  39.962  19.022   5.550
 9549POPC   PO465376  39.985  19.088   5.850
 9549POPC   GL165377  40.021  19.049   6.150
 9549POPC   GL265378  40.113  18.978   6.150
 9549POPC   C1A65379  39.961  19.067   6.450
 9549POPC   D2A65380  40.005  19.091   6.750
 9549POPC   C3A65381  39.987  19.078   7.050
 9549POPC   C4A65382  39.985  19.089   7.350
 9549POPC   C1B65383  40.194  18.993   6.450
 9549POPC   C2B65384  40.257  19.012   6.750
 9549POPC   C3B65385  40.253  18.975   7.050
 9549POPC   C4B65386  40.205  18.987   7.350
 9550POPC   NC365387  35.398  42.300   5.550
 9550POPC   PO465388  35.319  42.346   5.850
 9550POPC   GL165389  35.355  42.328   6.150
 9550POPC   GL265390  35.273  42.391   6.150
 9550POPC   C1A65391  35.343  42.285   6.450
 9550POPC   D2A65392  35.326  42.291   6.750
 9550POPC   C3A65393  35.390  42.307   7.050
 9550POPC   C4A65394  35.364  42.378   7.350
 9550POPC   C1B65395  35.129  42.363   6.450
 9550POPC   C2B65396  35.124  42.433   6.750
 9550POPC   C3B65397  35.090  42.368   7.050
 9550POPC   C4B65398  35.140  42.401   7.350
 9551POPC   NC365399  10.530   6.680   5.550
 9551POPC   PO465400  10.490   6.660   5.850
 9551POPC   GL165401  10.544   6.618   6.150
 9551POPC   GL265402  10.636   6.672   6.150
 9551POPC   C1A65403  10.517   6.670   6.450
 9551POPC   D2A65404  10.508   6.653   6.750
 9551POPC   C3A65405  10.488   6.609   7.050
 9551POPC   C4A65406  10.514   6.598   7.350
 9551POPC   C1B65407  10.754   6.754   6.450
 9551POPC   C2B65408  10.710   6.766   6.750
 9551POPC   C3B65409  10.731   6.767   7.050
 9551POPC   C4B65410  10.776   6.761   7.350
 9552POPC   NC365411   2.740  25.304   5.550
 9552POPC   PO465412   2.735  25.268   5.850
 9552POPC   GL165413   2.720  25.250   6.150
 9552POPC   GL265414   2.891  25.214   6.150
 9552POPC   C1A65415   2.750  25.304   6.450
 9552POPC   D2A65416   2.728  25.293   6.750
 9552POPC   C3A65417   2.772  25.241   7.050
 9552POPC   C4A65418   2.728  25.291   7.350
 9552POPC   C1B65419   3.036  25.225   6.450
 9552POPC   C2B65420   2.971  25.187   6.750
 9552POPC   C3B65421   3.014  25.249   7.050
 9552POPC   C4B65422   2.962  25.209   7.350
 9553POPC   NC365423   8.955  19.866   5.550
 9553POPC   PO465424   9.015  19.826   5.850
 9553POPC   GL165425   8.948  19.857   6.150
 9553POPC   GL265426   9.079  19.797   6.150
 9553POPC   C1A65427   8.934  19.862   6.450
 9553POPC   D2A65428   8.967  19.837   6.750
 9553POPC   C3A65429   8.962  19.838   7.050
 9553POPC   C4A65430   8.982  19.880   7.350
 9553POPC   C1B65431   9.165  19.666   6.450
 9553POPC   C2B65432   9.155  19.724   6.750
 9553POPC   C3B65433   9.199  19.674   7.050
 9553POPC   C4B65434   9.168  19.721   7.350
 9554POPC   NC365435  15.193  22.212   5.550
 9554POPC   PO465436  15.173  22.163   5.850
 9554POPC   GL165437  15.141  22.138   6.150
 9554POPC   GL265438  15.274  22.313   6.150
 9554POPC   C1A65439  15.213  22.124   6.450
 9554POPC   D2A65440  15.184  22.113   6.750
 9554POPC   C3A65441  15.214  22.154   7.050
 9554POPC   C4A65442  15.177  22.125   7.350
 9554POPC   C1B65443  15.265  22.391   6.450
 9554POPC   C2B65444  15.278  22.377   6.750
 9554POPC   C3B65445  15.332  22.431   7.050
 9554POPC   C4B65446  15.276  22.336   7.350
 9555POPC   NC365447  39.960  25.303   5.550
 9555POPC   PO465448  40.011  25.238   5.850
 9555POPC   GL165449  39.976  25.245   6.150
 9555POPC   GL265450  39.944  25.368   6.150
 9555POPC   C1A65451  40.029  25.234   6.450
 9555POPC   D2A65452  39.961  25.260   6.750
 9555POPC   C3A65453  40.030  25.216   7.050
 9555POPC   C4A65454  39.987  25.240   7.350
 9555POPC   C1B65455  39.960  25.488   6.450
 9555POPC   C2B65456  39.982  25.511   6.750
 9555POPC   C3B65457  39.962  25.505   7.050
 9555POPC   C4B65458  39.990  25.548   7.350
 9556POPC   NC365459  20.574  23.677   5.550
 9556POPC   PO465460  20.614  23.752   5.850
 9556POPC   GL165461  20.625  23.692   6.150
 9556POPC   GL265462  20.761  23.662   6.150
 9556POPC   C1A65463  20.561  23.747   6.450
 9556POPC   D2A65464  20.624  23.695   6.750
 9556POPC   C3A65465  20.628  23.756   7.050
 9556POPC   C4A65466  20.607  23.700   7.350
 9556POPC   C1B65467  20.838  23.576   6.450
 9556POPC   C2B65468  20.880  23.580   6.750
 9556POPC   C3B65469  20.835  23.644   7.050
 9556POPC   C4B65470  20.798  23.653   7.350
 9557POPC   NC365471   1.193  30.730   5.550
 9557POPC   PO465472   1.171  30.707   5.850
 9557POPC   GL165473   1.243  30.712   6.150
 9557POPC   GL265474   1.271  30.765   6.150
 9557POPC   C1A65475   1.203  30.714   6.450
 9557POPC   D2A65476   1.203  30.664   6.750
 9557POPC   C3A65477   1.209  30.657   7.050
 9557POPC   C4A65478   1.174  30.672   7.350
 9557POPC   C1B65479   1.426  30.786   6.450
 9557POPC   C2B65480   1.440  30.869   6.750
 9557POPC   C3B65481   1.387  30.883   7.050
 9557POPC   C4B65482   1.419  30.847   7.350
 9558POPC   NC365483  33.014  38.437   5.550
 9558POPC   PO465484  33.003  38.407   5.850
 9558POPC   GL165485  32.990  38.451   6.150
 9558POPC   GL265486  33.061  38.590   6.150
 9558POPC   C1A65487  33.068  38.405   6.450
 9558POPC   D2A65488  32.987  38.483   6.750
 9558POPC   C3A65489  33.025  38.418   7.050
 9558POPC   C4A65490  33.056  38.467   7.350
 9558POPC   C1B65491  33.066  38.722   6.450
 9558POPC   C2B65492  33.063  38.703   6.750
 9558POPC   C3B65493  33.013  38.731   7.050
 9558POPC   C4B65494  33.034  38.745   7.350
 9559POPC   NC365495  14.374  44.691   5.550
 9559POPC   PO465496  14.361  44.698   5.850
 9559POPC   GL165497  14.381  44.616   6.150
 9559POPC   GL265498  14.450  44.540   6.150
 9559POPC   C1A65499  14.430  44.702   6.450
 9559POPC   D2A65500  14.398  44.697   6.750
 9559POPC   C3A65501  14.386  44.697   7.050
 9559POPC   C4A65502  14.391  44.633   7.350
 9559POPC   C1B65503  14.627  44.473   6.450
 9559POPC   C2B65504  14.533  44.459   6.750
 9559POPC   C3B65505  14.563  44.465   7.050
 9559POPC   C4B65506  14.615  44.506   7.350
 9560POPC   NC365507  32.210  34.574   5.550
 9560POPC   PO465508  32.275  34.555   5.850
 9560POPC   GL165509  32.230  34.585   6.150
 9560POPC   GL265510  32.386  34.534   6.150
 9560POPC   C1A65511  32.220  34.625   6.450
 9560POPC   D2A65512  32.283  34.543   6.750
 9560POPC   C3A65513  32.247  34.545   7.050
 9560POPC   C4A65514  32.235  34.550   7.350
 9560POPC   C1B65515  32.450  34.522   6.450
 9560POPC   C2B65516  32.466  34.587   6.750
 9560POPC   C3B65517  32.457  34.589   7.050
 9560POPC   C4B65518  32.461  34.599   7.350
 9561POPC   NC365519  43.907   8.974   5.550
 9561POPC   PO465520  43.934   8.952   5.850
 9561POPC   GL165521  43.876   8.945   6.150
 9561POPC   GL265522  44.049   8.905   6.150
 9561POPC   C1A65523  43.892   8.955   6.450
 9561POPC   D2A65524  43.884   8.979   6.750
 9561POPC   C3A65525  43.894   8.991   7.050
 9561POPC   C4A65526  43.906   8.963   7.350
 9561POPC   C1B65527  44.125   8.906   6.450
 9561POPC   C2B65528  44.108   8.834   6.750
 9561POPC   C3B65529  44.120   8.862   7.050
 9561POPC   C4B65530  44.141   8.900   7.350
 9562POPC   NC365531  33.052  18.300   5.550
 9562POPC   PO465532  33.010  18.332   5.850
 9562POPC   GL165533  33.020  18.320   6.150
 9562POPC   GL265534  33.112  18.188   6.150
 9562POPC   C1A65535  33.049  18.317   6.450
 9562POPC   D2A65536  32.984  18.303   6.750
 9562POPC   C3A65537  33.025  18.299   7.050
 9562POPC   C4A65538  33.008  18.244   7.350
 9562POPC   C1B65539  33.181  18.058   6.450
 9562POPC   C2B65540  33.172  18.025   6.750
 9562POPC   C3B65541  33.111  18.036   7.050
 9562POPC   C4B65542  33.102  18.100   7.350
 9563POPC   NC365543  14.413  32.233   5.550
 9563POPC   PO465544  14.429  32.223   5.850
 9563POPC   GL165545  14.391  32.266   6.150
 9563POPC   GL265546  14.434  32.163   6.150
 9563POPC   C1A65547  14.377  32.202   6.450
 9563POPC   D2A65548  14.391  32.270   6.750
 9563POPC   C3A65549  14.404  32.293   7.050
 9563POPC   C4A65550  14.392  32.285   7.350
 9563POPC   C1B65551  14.573  32.034   6.450
 9563POPC   C2B65552  14.506  32.082   6.750
 9563POPC   C3B65553  14.572  32.057   7.050
 9563POPC   C4B65554  14.546  32.067   7.350
 9564POPC   NC365555  16.770  21.424   5.550
 9564POPC   PO465556  16.702  21.363   5.850
 9564POPC   GL165557  16.694  21.377   6.150
 9564POPC   GL265558  16.795  21.264   6.150
 9564POPC   C1A65559  16.775  21.435   6.450
 9564POPC   D2A65560  16.734  21.351   6.750
 9564POPC   C3A65561  16.708  21.417   7.050
 9564POPC   C4A65562  16.727  21.413   7.350
 9564POPC   C1B65563  16.920  21.213   6.450
 9564POPC   C2B65564  16.885  21.199   6.750
 9564POPC   C3B65565  16.896  21.215   7.050
 9564POPC   C4B65566  16.885  21.181   7.350
 9565POPC   NC365567  11.256   3.499   5.550
 9565POPC   PO465568  11.269   3.528   5.850
 9565POPC   GL165569  11.313   3.497   6.150
 9565POPC   GL265570  11.355   3.638   6.150
 9565POPC   C1A65571  11.284   3.544   6.450
 9565POPC   D2A65572  11.258   3.589   6.750
 9565POPC   C3A65573  11.291   3.556   7.050
 9565POPC   C4A65574  11.314   3.518   7.350
 9565POPC   C1B65575  11.437   3.721   6.450
 9565POPC   C2B65576  11.513   3.736   6.750
 9565POPC   C3B65577  11.486   3.751   7.050
 9565POPC   C4B65578  11.461   3.725   7.350
 9566POPC   NC365579  41.555  20.651   5.550
 9566POPC   PO465580  41.510  20.613   5.850
 9566POPC   GL165581  41.534  20.587   6.150
 9566POPC   GL265582  41.491  20.695   6.150
 9566POPC   C1A65583  41.517  20.635   6.450
 9566POPC   D2A65584  41.544  20.599   6.750
 9566POPC   C3A65585  41.606  20.612   7.050
 9566POPC   C4A65586  41.574  20.586   7.350
 9566POPC   C1B65587  41.434  20.803   6.450
 9566POPC   C2B65588  41.379  20.793   6.750
 9566POPC   C3B65589  41.415  20.826   7.050
 9566POPC   C4B65590  41.352  20.795   7.350
 9567POPC   NC365591  36.158   1.253   5.550
 9567POPC   PO465592  36.125   1.184   5.850
 9567POPC   GL165593  36.176   1.227   6.150
 9567POPC   GL265594  36.079   1.315   6.150
 9567POPC   C1A65595  36.097   1.179   6.450
 9567POPC   D2A65596  36.085   1.176   6.750
 9567POPC   C3A65597  36.098   1.225   7.050
 9567POPC   C4A65598  36.157   1.185   7.350
 9567POPC   C1B65599  35.997   1.451   6.450
 9567POPC   C2B65600  36.002   1.383   6.750
 9567POPC   C3B65601  35.968   1.460   7.050
 9567POPC   C4B65602  36.009   1.390   7.350
 9568POPC   NC365603  29.970   6.632   5.550
 9568POPC   PO465604  29.924   6.625   5.850
 9568POPC   GL165605  29.887   6.692   6.150
 9568POPC   GL265606  29.966   6.711   6.150
 9568POPC   C1A65607  29.929   6.660   6.450
 9568POPC   D2A65608  29.877   6.599   6.750
 9568POPC   C3A65609  29.885   6.681   7.050
 9568POPC   C4A65610  29.888   6.650   7.350
 9568POPC   C1B65611  30.064   6.852   6.450
 9568POPC   C2B65612  30.047   6.790   6.750
 9568POPC   C3B65613  30.073   6.838   7.050
 9568POPC   C4B65614  30.098   6.861   7.350
 9569POPC   NC365615  29.117  12.883   5.550
 9569POPC   PO465616  29.124  12.830   5.850
 9569POPC   GL165617  29.112  12.833   6.150
 9569POPC   GL265618  29.216  12.791   6.150
 9569POPC   C1A65619  29.106  12.885   6.450
 9569POPC   D2A65620  29.143  12.804   6.750
 9569POPC   C3A65621  29.122  12.898   7.050
 9569POPC   C4A65622  29.184  12.804   7.350
 9569POPC   C1B65623  29.275  12.680   6.450
 9569POPC   C2B65624  29.325  12.654   6.750
 9569POPC   C3B65625  29.332  12.602   7.050
 9569POPC   C4B65626  29.307  12.689   7.350
 9570POPC   NC365627  22.162  43.082   5.550
 9570POPC   PO465628  22.129  43.126   5.850
 9570POPC   GL165629  22.113  43.101   6.150
 9570POPC   GL265630  22.030  43.197   6.150
 9570POPC   C1A65631  22.212  43.064   6.450
 9570POPC   D2A65632  22.189  43.111   6.750
 9570POPC   C3A65633  22.210  43.084   7.050
 9570POPC   C4A65634  22.196  43.129   7.350
 9570POPC   C1B65635  22.018  43.336   6.450
 9570POPC   C2B65636  22.009  43.251   6.750
 9570POPC   C3B65637  21.987  43.327   7.050
 9570POPC   C4B65638  21.954  43.295   7.350
 9571POPC   NC365639  27.640   4.321   5.550
 9571POPC   PO465640  27.628   4.333   5.850
 9571POPC   GL165641  27.600   4.328   6.150
 9571POPC   GL265642  27.717   4.210   6.150
 9571POPC   C1A65643  27.576   4.336   6.450
 9571POPC   D2A65644  27.575   4.291   6.750
 9571POPC   C3A65645  27.550   4.295   7.050
 9571POPC   C4A65646  27.639   4.325   7.350
 9571POPC   C1B65647  27.813   4.181   6.450
 9571POPC   C2B65648  27.824   4.216   6.750
 9571POPC   C3B65649  27.814   4.184   7.050
 9571POPC   C4B65650  27.855   4.208   7.350
 9572POPC   NC365651  39.214   9.724   5.550
 9572POPC   PO465652  39.206   9.783   5.850
 9572POPC   GL165653  39.258   9.750   6.150
 9572POPC   GL265654  39.368   9.720   6.150
 9572POPC   C1A65655  39.228   9.749   6.450
 9572POPC   D2A65656  39.206   9.732   6.750
 9572POPC   C3A65657  39.232   9.758   7.050
 9572POPC   C4A65658  39.249   9.710   7.350
 9572POPC   C1B65659  39.493   9.789   6.450
 9572POPC   C2B65660  39.466   9.763   6.750
 9572POPC   C3B65661  39.490   9.759   7.050
 9572POPC   C4B65662  39.443   9.816   7.350
 9573POPC   NC365663  23.672  33.810   5.550
 9573POPC   PO465664  23.761  33.842   5.850
 9573POPC   GL165665  23.702  33.827   6.150
 9573POPC   GL265666  23.591  33.887   6.150
 9573POPC   C1A65667  23.756  33.765   6.450
 9573POPC   D2A65668  23.747  33.796   6.750
 9573POPC   C3A65669  23.671  33.820   7.050
 9573POPC   C4A65670  23.699  33.805   7.350
 9573POPC   C1B65671  23.579  33.939   6.450
 9573POPC   C2B65672  23.547  33.986   6.750
 9573POPC   C3B65673  23.588  34.018   7.050
 9573POPC   C4B65674  23.541  34.022   7.350
 9574POPC   NC365675  13.619  12.838   5.550
 9574POPC   PO465676  13.674  12.809   5.850
 9574POPC   GL165677  13.616  12.832   6.150
 9574POPC   GL265678  13.550  12.765   6.150
 9574POPC   C1A65679  13.601  12.899   6.450
 9574POPC   D2A65680  13.638  12.817   6.750
 9574POPC   C3A65681  13.662  12.875   7.050
 9574POPC   C4A65682  13.603  12.845   7.350
 9574POPC   C1B65683  13.429  12.723   6.450
 9574POPC   C2B65684  13.404  12.785   6.750
 9574POPC   C3B65685  13.402  12.733   7.050
 9574POPC   C4B65686  13.361  12.718   7.350
 9575POPC   NC365687  39.193   5.090   5.550
 9575POPC   PO465688  39.268   5.045   5.850
 9575POPC   GL165689  39.220   5.142   6.150
 9575POPC   GL265690  39.225   5.261   6.150
 9575POPC   C1A65691  39.269   5.095   6.450
 9575POPC   D2A65692  39.234   5.055   6.750
 9575POPC   C3A65693  39.279   5.126   7.050
 9575POPC   C4A65694  39.188   5.063   7.350
 9575POPC   C1B65695  39.245   5.321   6.450
 9575POPC   C2B65696  39.190   5.308   6.750
 9575POPC   C3B65697  39.210   5.377   7.050
 9575POPC   C4B65698  39.178   5.371   7.350
 9576POPC   NC365699   6.686  19.810   5.550
 9576POPC   PO465700   6.676  19.874   5.850
 9576POPC   GL165701   6.694  19.882   6.150
 9576POPC   GL265702   6.742  19.765   6.150
 9576POPC   C1A65703   6.683  19.856   6.450
 9576POPC   D2A65704   6.643  19.872   6.750
 9576POPC   C3A65705   6.625  19.812   7.050
 9576POPC   C4A65706   6.671  19.805   7.350
 9576POPC   C1B65707   6.815  19.658   6.450
 9576POPC   C2B65708   6.812  19.703   6.750
 9576POPC   C3B65709   6.829  19.721   7.050
 9576POPC   C4B65710   6.808  19.654   7.350
 9577POPC   NC365711  36.102  26.842   5.550
 9577POPC   PO465712  36.157  26.820   5.850
 9577POPC   GL165713  36.157  26.794   6.150
 9577POPC   GL265714  36.194  26.906   6.150
 9577POPC   C1A65715  36.154  26.849   6.450
 9577POPC   D2A65716  36.124  26.793   6.750
 9577POPC   C3A65717  36.086  26.777   7.050
 9577POPC   C4A65718  36.093  26.809   7.350
 9577POPC   C1B65719  36.350  26.933   6.450
 9577POPC   C2B65720  36.318  26.962   6.750
 9577POPC   C3B65721  36.363  26.934   7.050
 9577POPC   C4B65722  36.358  26.943   7.350
 9578POPC   NC365723  36.165   7.459   5.550
 9578POPC   PO465724  36.177   7.451   5.850
 9578POPC   GL165725  36.101   7.397   6.150
 9578POPC   GL265726  36.074   7.335   6.150
 9578POPC   C1A65727  36.132   7.381   6.450
 9578POPC   D2A65728  36.102   7.410   6.750
 9578POPC   C3A65729  36.151   7.441   7.050
 9578POPC   C4A65730  36.161   7.454   7.350
 9578POPC   C1B65731  35.955   7.293   6.450
 9578POPC   C2B65732  35.910   7.218   6.750
 9578POPC   C3B65733  35.989   7.235   7.050
 9578POPC   C4B65734  35.953   7.299   7.350
 9579POPC   NC365735  22.170  39.966   5.550
 9579POPC   PO465736  22.161  40.050   5.850
 9579POPC   GL165737  22.176  40.045   6.150
 9579POPC   GL265738  22.106  39.903   6.150
 9579POPC   C1A65739  22.189  40.046   6.450
 9579POPC   D2A65740  22.139  40.022   6.750
 9579POPC   C3A65741  22.129  39.984   7.050
 9579POPC   C4A65742  22.131  40.017   7.350
 9579POPC   C1B65743  21.995  39.813   6.450
 9579POPC   C2B65744  22.002  39.818   6.750
 9579POPC   C3B65745  22.017  39.797   7.050
 9579POPC   C4B65746  22.031  39.803   7.350
 9580POPC   NC365747  38.487  29.168   5.550
 9580POPC   PO465748  38.495  29.154   5.850
 9580POPC   GL165749  38.439  29.121   6.150
 9580POPC   GL265750  38.527  29.163   6.150
 9580POPC   C1A65751  38.476  29.109   6.450
 9580POPC   D2A65752  38.494  29.124   6.750
 9580POPC   C3A65753  38.433  29.168   7.050
 9580POPC   C4A65754  38.456  29.179   7.350
 9580POPC   C1B65755  38.647  29.216   6.450
 9580POPC   C2B65756  38.658  29.259   6.750
 9580POPC   C3B65757  38.718  29.245   7.050
 9580POPC   C4B65758  38.649  29.187   7.350
 9581POPC   NC365759  43.095   1.984   5.550
 9581POPC   PO465760  43.090   2.039   5.850
 9581POPC   GL165761  43.074   2.022   6.150
 9581POPC   GL265762  43.018   2.056   6.150
 9581POPC   C1A65763  43.065   1.955   6.450
 9581POPC   D2A65764  43.104   2.016   6.750
 9581POPC   C3A65765  43.099   1.983   7.050
 9581POPC   C4A65766  43.089   2.021   7.350
 9581POPC   C1B65767  42.940   2.188   6.450
 9581POPC   C2B65768  42.954   2.248   6.750
 9581POPC   C3B65769  43.015   2.250   7.050
 9581POPC   C4B65770  42.977   2.204   7.350
 9582POPC   NC365771  15.959  25.314   5.550
 9582POPC   PO465772  15.957  25.231   5.850
 9582POPC   GL165773  15.906  25.218   6.150
 9582POPC   GL265774  16.047  25.194   6.150
 9582POPC   C1A65775  15.907  25.283   6.450
 9582POPC   D2A65776  15.925  25.216   6.750
 9582POPC   C3A65777  15.987  25.226   7.050
 9582POPC   C4A65778  16.005  25.261   7.350
 9582POPC   C1B65779  16.169  25.112   6.450
 9582POPC   C2B65780  16.152  25.123   6.750
 9582POPC   C3B65781  16.157  25.166   7.050
 9582POPC   C4B65782  16.203  25.124   7.350
 9583POPC   NC365783   9.012  29.925   5.550
 9583POPC   PO465784   9.013  29.912   5.850
 9583POPC   GL165785   8.992  29.881   6.150
 9583POPC   GL265786   9.088  29.781   6.150
 9583POPC   C1A65787   8.972  29.874   6.450
 9583POPC   D2A65788   8.982  29.936   6.750
 9583POPC   C3A65789   8.939  29.917   7.050
 9583POPC   C4A65790   8.987  29.902   7.350
 9583POPC   C1B65791   9.099  29.738   6.450
 9583POPC   C2B65792   9.172  29.677   6.750
 9583POPC   C3B65793   9.143  29.717   7.050
 9583POPC   C4B65794   9.154  29.693   7.350
 9584POPC   NC365795   9.716  26.067   5.550
 9584POPC   PO465796   9.776  26.030   5.850
 9584POPC   GL165797   9.796  26.069   6.150
 9584POPC   GL265798   9.849  26.182   6.150
 9584POPC   C1A65799   9.797  25.992   6.450
 9584POPC   D2A65800   9.735  26.059   6.750
 9584POPC   C3A65801   9.734  26.080   7.050
 9584POPC   C4A65802   9.763  26.003   7.350
 9584POPC   C1B65803   9.849  26.267   6.450
 9584POPC   C2B65804   9.842  26.281   6.750
 9584POPC   C3B65805   9.887  26.254   7.050
 9584POPC   C4B65806   9.885  26.278   7.350
 9585POPC   NC365807  32.295  29.177   5.550
 9585POPC   PO465808  32.273  29.148   5.850
 9585POPC   GL165809  32.284  29.159   6.150
 9585POPC   GL265810  32.277  29.065   6.150
 9585POPC   C1A65811  32.283  29.152   6.450
 9585POPC   D2A65812  32.266  29.171   6.750
 9585POPC   C3A65813  32.266  29.098   7.050
 9585POPC   C4A65814  32.215  29.175   7.350
 9585POPC   C1B65815  32.400  28.920   6.450
 9585POPC   C2B65816  32.386  28.924   6.750
 9585POPC   C3B65817  32.315  28.941   7.050
 9585POPC   C4B65818  32.368  28.895   7.350
 9586POPC   NC365819  31.437   8.938   5.550
 9586POPC   PO465820  31.455   8.934   5.850
 9586POPC   GL165821  31.476   8.930   6.150
 9586POPC   GL265822  31.368   8.880   6.150
 9586POPC   C1A65823  31.429   8.987   6.450
 9586POPC   D2A65824  31.475   8.952   6.750
 9586POPC   C3A65825  31.460   8.943   7.050
 9586POPC   C4A65826  31.509   9.013   7.350
 9586POPC   C1B65827  31.296   8.848   6.450
 9586POPC   C2B65828  31.291   8.807   6.750
 9586POPC   C3B65829  31.208   8.867   7.050
 9586POPC   C4B65830  31.280   8.846   7.350
 9587POPC   NC365831   9.735  41.574   5.550
 9587POPC   PO465832   9.710  41.541   5.850
 9587POPC   GL165833   9.736  41.591   6.150
 9587POPC   GL265834   9.907  41.629   6.150
 9587POPC   C1A65835   9.748  41.577   6.450
 9587POPC   D2A65836   9.798  41.510   6.750
 9587POPC   C3A65837   9.706  41.543   7.050
 9587POPC   C4A65838   9.775  41.573   7.350
 9587POPC   C1B65839  10.002  41.617   6.450
 9587POPC   C2B65840  10.022  41.661   6.750
 9587POPC   C3B65841   9.969  41.637   7.050
 9587POPC   C4B65842  10.035  41.624   7.350
 9588POPC   NC365843   8.935  30.683   5.550
 9588POPC   PO465844   8.978  30.734   5.850
 9588POPC   GL165845   8.973  30.705   6.150
 9588POPC   GL265846   8.909  30.836   6.150
 9588POPC   C1A65847   8.947  30.699   6.450
 9588POPC   D2A65848   8.998  30.675   6.750
 9588POPC   C3A65849   8.932  30.675   7.050
 9588POPC   C4A65850   8.937  30.676   7.350
 9588POPC   C1B65851   8.859  30.929   6.450
 9588POPC   C2B65852   8.812  30.857   6.750
 9588POPC   C3B65853   8.790  30.847   7.050
 9588POPC   C4B65854   8.801  30.882   7.350
 9589POPC   NC365855   5.896  29.919   5.550
 9589POPC   PO465856   5.891  29.960   5.850
 9589POPC   GL165857   5.881  29.925   6.150
 9589POPC   GL265858   5.801  29.987   6.150
 9589POPC   C1A65859   5.820  29.913   6.450
 9589POPC   D2A65860   5.914  29.916   6.750
 9589POPC   C3A65861   5.852  29.964   7.050
 9589POPC   C4A65862   5.870  29.968   7.350
 9589POPC   C1B65863   5.701  30.174   6.450
 9589POPC   C2B65864   5.701  30.185   6.750
 9589POPC   C3B65865   5.695  30.142   7.050
 9589POPC   C4B65866   5.705  30.160   7.350
 9590POPC   NC365867  37.649  18.326   5.550
 9590POPC   PO465868  37.657  18.298   5.850
 9590POPC   GL165869  37.669  18.328   6.150
 9590POPC   GL265870  37.620  18.357   6.150
 9590POPC   C1A65871  37.709  18.255   6.450
 9590POPC   D2A65872  37.653  18.267   6.750
 9590POPC   C3A65873  37.711  18.274   7.050
 9590POPC   C4A65874  37.729  18.331   7.350
 9590POPC   C1B65875  37.455  18.413   6.450
 9590POPC   C2B65876  37.467  18.457   6.750
 9590POPC   C3B65877  37.533  18.460   7.050
 9590POPC   C4B65878  37.526  18.449   7.350
 9591POPC   NC365879  20.659  42.368   5.550
 9591POPC   PO465880  20.589  42.370   5.850
 9591POPC   GL165881  20.571  42.290   6.150
 9591POPC   GL265882  20.513  42.376   6.150
 9591POPC   C1A65883  20.584  42.295   6.450
 9591POPC   D2A65884  20.641  42.286   6.750
 9591POPC   C3A65885  20.568  42.315   7.050
 9591POPC   C4A65886  20.618  42.304   7.350
 9591POPC   C1B65887  20.376  42.492   6.450
 9591POPC   C2B65888  20.384  42.505   6.750
 9591POPC   C3B65889  20.376  42.503   7.050
 9591POPC   C4B65890  20.375  42.506   7.350
 9592POPC   NC365891  39.265   4.314   5.550
 9592POPC   PO465892  39.204   4.343   5.850
 9592POPC   GL165893  39.194   4.337   6.150
 9592POPC   GL265894  39.251   4.457   6.150
 9592POPC   C1A65895  39.273   4.320   6.450
 9592POPC   D2A65896  39.265   4.330   6.750
 9592POPC   C3A65897  39.189   4.360   7.050
 9592POPC   C4A65898  39.218   4.350   7.350
 9592POPC   C1B65899  39.197   4.547   6.450
 9592POPC   C2B65900  39.170   4.581   6.750
 9592POPC   C3B65901  39.214   4.551   7.050
 9592POPC   C4B65902  39.243   4.561   7.350
 9593POPC   NC365903  33.009  41.524   5.550
 9593POPC   PO465904  33.020  41.516   5.850
 9593POPC   GL165905  33.035  41.595   6.150
 9593POPC   GL265906  33.070  41.433   6.150
 9593POPC   C1A65907  33.008  41.564   6.450
 9593POPC   D2A65908  33.029  41.545   6.750
 9593POPC   C3A65909  33.070  41.513   7.050
 9593POPC   C4A65910  33.009  41.546   7.350
 9593POPC   C1B65911  33.102  41.369   6.450
 9593POPC   C2B65912  33.094  41.365   6.750
 9593POPC   C3B65913  33.074  41.314   7.050
 9593POPC   C4B65914  33.162  41.329   7.350
 9594POPC   NC365915  12.858  37.679   5.550
 9594POPC   PO465916  12.834  37.718   5.850
 9594POPC   GL165917  12.807  37.660   6.150
 9594POPC   GL265918  13.019  37.682   6.150
 9594POPC   C1A65919  12.828  37.686   6.450
 9594POPC   D2A65920  12.824  37.713   6.750
 9594POPC   C3A65921  12.815  37.690   7.050
 9594POPC   C4A65922  12.882  37.678   7.350
 9594POPC   C1B65923  13.092  37.619   6.450
 9594POPC   C2B65924  13.086  37.668   6.750
 9594POPC   C3B65925  13.073  37.621   7.050
 9594POPC   C4B65926  13.124  37.644   7.350
 9595POPC   NC365927  34.539   8.933   5.550
 9595POPC   PO465928  34.560   8.948   5.850
 9595POPC   GL165929  34.527   8.936   6.150
 9595POPC   GL265930  34.419   8.917   6.150
 9595POPC   C1A65931  34.587   8.983   6.450
 9595POPC   D2A65932  34.541   9.019   6.750
 9595POPC   C3A65933  34.606   9.018   7.050
 9595POPC   C4A65934  34.615   8.952   7.350
 9595POPC   C1B65935  34.322   8.903   6.450
 9595POPC   C2B65936  34.353   8.948   6.750
 9595POPC   C3B65937  34.305   8.951   7.050
 9595POPC   C4B65938  34.359   8.938   7.350
 9596POPC   NC365939   2.779  39.230   5.550
 9596POPC   PO465940   2.802  39.239   5.850
 9596POPC   GL165941   2.775  39.277   6.150
 9596POPC   GL265942   2.738  39.334   6.150
 9596POPC   C1A65943   2.771  39.264   6.450
 9596POPC   D2A65944   2.813  39.270   6.750
 9596POPC   C3A65945   2.741  39.244   7.050
 9596POPC   C4A65946   2.777  39.205   7.350
 9596POPC   C1B65947   2.606  39.402   6.450
 9596POPC   C2B65948   2.673  39.470   6.750
 9596POPC   C3B65949   2.697  39.441   7.050
 9596POPC   C4B65950   2.599  39.494   7.350
 9597POPC   NC365951  40.782   8.161   5.550
 9597POPC   PO465952  40.748   8.240   5.850
 9597POPC   GL165953  40.763   8.163   6.150
 9597POPC   GL265954  40.849   8.334   6.150
 9597POPC   C1A65955  40.751   8.201   6.450
 9597POPC   D2A65956  40.788   8.207   6.750
 9597POPC   C3A65957  40.825   8.210   7.050
 9597POPC   C4A65958  40.801   8.221   7.350
 9597POPC   C1B65959  40.850   8.453   6.450
 9597POPC   C2B65960  40.870   8.397   6.750
 9597POPC   C3B65961  40.896   8.419   7.050
 9597POPC   C4B65962  40.911   8.414   7.350
 9598POPC   NC365963  44.701  27.544   5.550
 9598POPC   PO465964  44.670  27.615   5.850
 9598POPC   GL165965  44.657  27.564   6.150
 9598POPC   GL265966  44.676  27.478   6.150
 9598POPC   C1A65967  44.681  27.643   6.450
 9598POPC   D2A65968  44.685  27.605   6.750
 9598POPC   C3A65969  44.646  27.625   7.050
 9598POPC   C4A65970  44.693  27.631   7.350
 9598POPC   C1B65971  44.776  27.396   6.450
 9598POPC   C2B65972  44.722  27.318   6.750
 9598POPC   C3B65973  44.775  27.373   7.050
 9598POPC   C4B65974  44.732  27.337   7.350
 9599POPC   NC365975  25.292  36.138   5.550
 9599POPC   PO465976  25.303  36.107   5.850
 9599POPC   GL165977  25.220  36.142   6.150
 9599POPC   GL265978  25.189  36.155   6.150
 9599POPC   C1A65979  25.242  36.155   6.450
 9599POPC   D2A65980  25.306  36.133   6.750
 9599POPC   C3A65981  25.265  36.158   7.050
 9599POPC   C4A65982  25.278  36.103   7.350
 9599POPC   C1B65983  25.004  36.191   6.450
 9599POPC   C2B65984  25.072  36.173   6.750
 9599POPC   C3B65985  25.036  36.249   7.050
 9599POPC   C4B65986  25.024  36.195   7.350
 9600POPC   NC365987  37.651   2.004   5.550
 9600POPC   PO465988  37.632   1.946   5.850
 9600POPC   GL165989  37.673   1.952   6.150
 9600POPC   GL265990  37.601   2.081   6.150
 9600POPC   C1A65991  37.655   1.985   6.450
 9600POPC   D2A65992  37.636   1.956   6.750
 9600POPC   C3A65993  37.646   1.944   7.050
 9600POPC   C4A65994  37.716   2.012   7.350
 9600POPC   C1B65995  37.528   2.134   6.450
 9600POPC   C2B65996  37.540   2.201   6.750
 9600POPC   C3B65997  37.484   2.167   7.050
 9600POPC   C4B65998  37.565   2.173   7.350
 9601POPC   NC365999  35.387  26.857   5.550
 9601POPC   PO466000  35.377  26.798   5.850
 9601POPC   GL166001  35.361  26.812   6.150
 9601POPC   GL266002  35.424  26.689   6.150
 9601POPC   C1A66003  35.310  26.817   6.450
 9601POPC   D2A66004  35.393  26.768   6.750
 9601POPC   C3A66005  35.362  26.859   7.050
 9601POPC   C4A66006  35.368  26.849   7.350
 9601POPC   C1B66007  35.538  26.667   6.450
 9601POPC   C2B66008  35.567  26.646   6.750
 9601POPC   C3B66009  35.495  26.655   7.050
 9601POPC   C4B66010  35.480  26.629   7.350
 9602POPC   NC366011  10.535  26.855   5.550
 9602POPC   PO466012  10.491  26.822   5.850
 9602POPC   GL166013  10.519  26.836   6.150
 9602POPC   GL266014  10.492  26.729   6.150
 9602POPC   C1A66015  10.530  26.855   6.450
 9602POPC   D2A66016  10.545  26.818   6.750
 9602POPC   C3A66017  10.534  26.817   7.050
 9602POPC   C4A66018  10.546  26.857   7.350
 9602POPC   C1B66019  10.349  26.559   6.450
 9602POPC   C2B66020  10.414  26.595   6.750
 9602POPC   C3B66021  10.423  26.626   7.050
 9602POPC   C4B66022  10.390  26.600   7.350
 9603POPC   NC366023  15.208  10.523   5.550
 9603POPC   PO466024  15.153  10.564   5.850
 9603POPC   GL166025  15.222  10.477   6.150
 9603POPC   GL266026  15.248  10.443   6.150
 9603POPC   C1A66027  15.223  10.563   6.450
 9603POPC   D2A66028  15.154  10.483   6.750
 9603POPC   C3A66029  15.142  10.561   7.050
 9603POPC   C4A66030  15.146  10.508   7.350
 9603POPC   C1B66031  15.317  10.321   6.450
 9603POPC   C2B66032  15.335  10.373   6.750
 9603POPC   C3B66033  15.332  10.388   7.050
 9603POPC   C4B66034  15.407  10.396   7.350
 9604POPC   NC366035  34.587  23.745   5.550
 9604POPC   PO466036  34.575  23.717   5.850
 9604POPC   GL166037  34.592  23.665   6.150
 9604POPC   GL266038  34.691  23.625   6.150
 9604POPC   C1A66039  34.592  23.729   6.450
 9604POPC   D2A66040  34.549  23.759   6.750
 9604POPC   C3A66041  34.558  23.763   7.050
 9604POPC   C4A66042  34.575  23.697   7.350
 9604POPC   C1B66043  34.769  23.495   6.450
 9604POPC   C2B66044  34.744  23.511   6.750
 9604POPC   C3B66045  34.690  23.503   7.050
 9604POPC   C4B66046  34.678  23.530   7.350
 9605POPC   NC366047  26.013  36.089   5.550
 9605POPC   PO466048  26.090  36.161   5.850
 9605POPC   GL166049  26.027  36.128   6.150
 9605POPC   GL266050  25.930  36.005   6.150
 9605POPC   C1A66051  25.992  36.168   6.450
 9605POPC   D2A66052  26.060  36.088   6.750
 9605POPC   C3A66053  26.060  36.109   7.050
 9605POPC   C4A66054  26.033  36.137   7.350
 9605POPC   C1B66055  25.912  35.882   6.450
 9605POPC   C2B66056  25.871  35.916   6.750
 9605POPC   C3B66057  25.932  35.903   7.050
 9605POPC   C4B66058  25.865  35.885   7.350
 9606POPC   NC366059  10.568  18.327   5.550
 9606POPC   PO466060  10.515  18.311   5.850
 9606POPC   GL166061  10.503  18.258   6.150
 9606POPC   GL266062  10.393  18.180   6.150
 9606POPC   C1A66063  10.535  18.245   6.450
 9606POPC   D2A66064  10.531  18.255   6.750
 9606POPC   C3A66065  10.480  18.313   7.050
 9606POPC   C4A66066  10.513  18.278   7.350
 9606POPC   C1B66067  10.311  18.119   6.450
 9606POPC   C2B66068  10.361  18.128   6.750
 9606POPC   C3B66069  10.338  18.085   7.050
 9606POPC   C4B66070  10.296  18.146   7.350
 9607POPC   NC366071  31.463  16.002   5.550
 9607POPC   PO466072  31.516  15.934   5.850
 9607POPC   GL166073  31.460  15.990   6.150
 9607POPC   GL266074  31.411  16.019   6.150
 9607POPC   C1A66075  31.430  15.967   6.450
 9607POPC   D2A66076  31.482  15.997   6.750
 9607POPC   C3A66077  31.478  15.947   7.050
 9607POPC   C4A66078  31.452  15.980   7.350
 9607POPC   C1B66079  31.297  16.138   6.450
 9607POPC   C2B66080  31.309  16.149   6.750
 9607POPC   C3B66081  31.312  16.143   7.050
 9607POPC   C4B66082  31.261  16.069   7.350
 9608POPC   NC366083  25.240   3.493   5.550
 9608POPC   PO466084  25.298   3.509   5.850
 9608POPC   GL166085  25.268   3.497   6.150
 9608POPC   GL266086  25.119   3.497   6.150
 9608POPC   C1A66087  25.239   3.521   6.450
 9608POPC   D2A66088  25.287   3.544   6.750
 9608POPC   C3A66089  25.263   3.500   7.050
 9608POPC   C4A66090  25.229   3.495   7.350
 9608POPC   C1B66091  25.027   3.513   6.450
 9608POPC   C2B66092  24.976   3.511   6.750
 9608POPC   C3B66093  25.043   3.491   7.050
 9608POPC   C4B66094  25.002   3.486   7.350
 9609POPC   NC366095  26.833   5.103   5.550
 9609POPC   PO466096  26.828   5.081   5.850
 9609POPC   GL166097  26.784   5.046   6.150
 9609POPC   GL266098  26.926   5.046   6.150
 9609POPC   C1A66099  26.853   5.098   6.450
 9609POPC   D2A66100  26.773   5.113   6.750
 9609POPC   C3A66101  26.854   5.117   7.050
 9609POPC   C4A66102  26.858   5.046   7.350
 9609POPC   C1B66103  27.096   4.990   6.450
 9609POPC   C2B66104  27.014   5.012   6.750
 9609POPC   C3B66105  27.036   4.999   7.050
 9609POPC   C4B66106  27.088   4.956   7.350
 9610POPC   NC366107  20.655   1.191   5.550
 9610POPC   PO466108  20.641   1.248   5.850
 9610POPC   GL166109  20.658   1.170   6.150
 9610POPC   GL266110  20.535   1.287   6.150
 9610POPC   C1A66111  20.624   1.262   6.450
 9610POPC   D2A66112  20.604   1.256   6.750
 9610POPC   C3A66113  20.571   1.177   7.050
 9610POPC   C4A66114  20.647   1.172   7.350
 9610POPC   C1B66115  20.541   1.413   6.450
 9610POPC   C2B66116  20.517   1.506   6.750
 9610POPC   C3B66117  20.550   1.425   7.050
 9610POPC   C4B66118  20.576   1.435   7.350
 9611POPC   NC366119  34.618  20.633   5.550
 9611POPC   PO466120  34.572  20.636   5.850
 9611POPC   GL166121  34.570  20.564   6.150
 9611POPC   GL266122  34.672  20.760   6.150
 9611POPC   C1A66123  34.541  20.630   6.450
 9611POPC   D2A66124  34.611  20.610   6.750
 9611POPC   C3A66125  34.535  20.602   7.050
 9611POPC   C4A66126  34.600  20.650   7.350
 9611POPC   C1B66127  34.734  20.787   6.450
 9611POPC   C2B66128  34.752  20.781   6.750
 9611POPC   C3B66129  34.662  20.853   7.050
 9611POPC   C4B66130  34.703  20.809   7.350
 9612POPC   NC366131  33.044   1.239   5.550
 9612POPC   PO466132  33.024   1.169   5.850
 9612POPC   GL166133  32.987   1.214   6.150
 9612POPC   GL266134  33.065   1.367   6.150
 9612POPC   C1A66135  33.029   1.251   6.450
 9612POPC   D2A66136  33.066   1.184   6.750
 9612POPC   C3A66137  33.064   1.218   7.050
 9612POPC   C4A66138  33.012   1.170   7.350
 9612POPC   C1B66139  33.115   1.411   6.450
 9612POPC   C2B66140  33.122   1.423   6.750
 9612POPC   C3B66141  33.139   1.495   7.050
 9612POPC   C4B66142  33.117   1.492   7.350
 9613POPC   NC366143  43.062  40.823   5.550
 9613POPC   PO466144  43.158  40.781   5.850
 9613POPC   GL166145  43.073  40.794   6.150
 9613POPC   GL266146  43.124  40.636   6.150
 9613POPC   C1A66147  43.129  40.738   6.450
 9613POPC   D2A66148  43.068  40.773   6.750
 9613POPC   C3A66149  43.079  40.805   7.050
 9613POPC   C4A66150  43.100  40.742   7.350
 9613POPC   C1B66151  43.100  40.512   6.450
 9613POPC   C2B66152  43.105  40.505   6.750
 9613POPC   C3B66153  43.122  40.520   7.050
 9613POPC   C4B66154  43.152  40.506   7.350
 9614POPC   NC366155  31.437  31.520   5.550
 9614POPC   PO466156  31.467  31.497   5.850
 9614POPC   GL166157  31.457  31.513   6.150
 9614POPC   GL266158  31.408  31.338   6.150
 9614POPC   C1A66159  31.505  31.459   6.450
 9614POPC   D2A66160  31.516  31.451   6.750
 9614POPC   C3A66161  31.508  31.430   7.050
 9614POPC   C4A66162  31.461  31.490   7.350
 9614POPC   C1B66163  31.385  31.212   6.450
 9614POPC   C2B66164  31.323  31.285   6.750
 9614POPC   C3B66165  31.387  31.302   7.050
 9614POPC   C4B66166  31.319  31.306   7.350
 9615POPC   NC366167   2.031  26.781   5.550
 9615POPC   PO466168   1.948  26.777   5.850
 9615POPC   GL166169   1.978  26.820   6.150
 9615POPC   GL266170   2.120  26.840   6.150
 9615POPC   C1A66171   2.035  26.823   6.450
 9615POPC   D2A66172   2.031  26.867   6.750
 9615POPC   C3A66173   1.941  26.791   7.050
 9615POPC   C4A66174   1.988  26.840   7.350
 9615POPC   C1B66175   2.227  26.815   6.450
 9615POPC   C2B66176   2.233  26.827   6.750
 9615POPC   C3B66177   2.212  26.798   7.050
 9615POPC   C4B66178   2.223  26.844   7.350
 9616POPC   NC366179   6.616  16.770   5.550
 9616POPC   PO466180   6.651  16.683   5.850
 9616POPC   GL166181   6.682  16.781   6.150
 9616POPC   GL266182   6.718  16.811   6.150
 9616POPC   C1A66183   6.632  16.734   6.450
 9616POPC   D2A66184   6.687  16.763   6.750
 9616POPC   C3A66185   6.655  16.718   7.050
 9616POPC   C4A66186   6.616  16.774   7.350
 9616POPC   C1B66187   6.845  16.803   6.450
 9616POPC   C2B66188   6.842  16.826   6.750
 9616POPC   C3B66189   6.867  16.872   7.050
 9616POPC   C4B66190   6.873  16.842   7.350
 9617POPC   NC366191  18.286  22.149   5.550
 9617POPC   PO466192  18.285  22.200   5.850
 9617POPC   GL166193  18.282  22.147   6.150
 9617POPC   GL266194  18.406  22.215   6.150
 9617POPC   C1A66195  18.328  22.157   6.450
 9617POPC   D2A66196  18.252  22.129   6.750
 9617POPC   C3A66197  18.324  22.151   7.050
 9617POPC   C4A66198  18.238  22.186   7.350
 9617POPC   C1B66199  18.507  22.155   6.450
 9617POPC   C2B66200  18.493  22.213   6.750
 9617POPC   C3B66201  18.482  22.243   7.050
 9617POPC   C4B66202  18.522  22.152   7.350
 9618POPC   NC366203  34.532  19.857   5.550
 9618POPC   PO466204  34.556  19.858   5.850
 9618POPC   GL166205  34.562  19.814   6.150
 9618POPC   GL266206  34.653  19.919   6.150
 9618POPC   C1A66207  34.585  19.821   6.450
 9618POPC   D2A66208  34.572  19.871   6.750
 9618POPC   C3A66209  34.559  19.798   7.050
 9618POPC   C4A66210  34.570  19.883   7.350
 9618POPC   C1B66211  34.805  19.860   6.450
 9618POPC   C2B66212  34.803  19.875   6.750
 9618POPC   C3B66213  34.814  19.922   7.050
 9618POPC   C4B66214  34.792  19.901   7.350
 9619POPC   NC366215  12.888  44.613   5.550
 9619POPC   PO466216  12.839  44.648   5.850
 9619POPC   GL166217  12.886  44.623   6.150
 9619POPC   GL266218  13.002  44.749   6.150
 9619POPC   C1A66219  12.804  44.695   6.450
 9619POPC   D2A66220  12.806  44.640   6.750
 9619POPC   C3A66221  12.897  44.660   7.050
 9619POPC   C4A66222  12.844  44.621   7.350
 9619POPC   C1B66223  13.072  44.713   6.450
 9619POPC   C2B66224  13.091  44.715   6.750
 9619POPC   C3B66225  13.105  44.750   7.050
 9619POPC   C4B66226  13.044  44.713   7.350
 9620POPC   NC366227   4.304  43.124   5.550
 9620POPC   PO466228   4.335  43.159   5.850
 9620POPC   GL166229   4.310  43.128   6.150
 9620POPC   GL266230   4.415  43.141   6.150
 9620POPC   C1A66231   4.315  43.151   6.450
 9620POPC   D2A66232   4.366  43.118   6.750
 9620POPC   C3A66233   4.299  43.108   7.050
 9620POPC   C4A66234   4.334  43.062   7.350
 9620POPC   C1B66235   4.495  43.287   6.450
 9620POPC   C2B66236   4.558  43.247   6.750
 9620POPC   C3B66237   4.552  43.287   7.050
 9620POPC   C4B66238   4.512  43.240   7.350
 9621POPC   NC366239   6.664  19.101   5.550
 9621POPC   PO466240   6.684  19.035   5.850
 9621POPC   GL166241   6.599  19.103   6.150
 9621POPC   GL266242   6.729  19.096   6.150
 9621POPC   C1A66243   6.667  19.100   6.450
 9621POPC   D2A66244   6.687  19.074   6.750
 9621POPC   C3A66245   6.641  19.011   7.050
 9621POPC   C4A66246   6.608  19.057   7.350
 9621POPC   C1B66247   6.814  19.221   6.450
 9621POPC   C2B66248   6.895  19.193   6.750
 9621POPC   C3B66249   6.880  19.167   7.050
 9621POPC   C4B66250   6.847  19.192   7.350
 9622POPC   NC366251  28.343  41.607   5.550
 9622POPC   PO466252  28.345  41.542   5.850
 9622POPC   GL166253  28.342  41.601   6.150
 9622POPC   GL266254  28.465  41.495   6.150
 9622POPC   C1A66255  28.362  41.526   6.450
 9622POPC   D2A66256  28.418  41.557   6.750
 9622POPC   C3A66257  28.400  41.589   7.050
 9622POPC   C4A66258  28.405  41.587   7.350
 9622POPC   C1B66259  28.567  41.536   6.450
 9622POPC   C2B66260  28.634  41.549   6.750
 9622POPC   C3B66261  28.637  41.526   7.050
 9622POPC   C4B66262  28.577  41.470   7.350
 9623POPC   NC366263  25.997  33.839   5.550
 9623POPC   PO466264  26.063  33.848   5.850
 9623POPC   GL166265  26.037  33.795   6.150
 9623POPC   GL266266  26.201  33.722   6.150
 9623POPC   C1A66267  26.017  33.812   6.450
 9623POPC   D2A66268  26.045  33.789   6.750
 9623POPC   C3A66269  26.003  33.756   7.050
 9623POPC   C4A66270  26.088  33.831   7.350
 9623POPC   C1B66271  26.285  33.699   6.450
 9623POPC   C2B66272  26.260  33.707   6.750
 9623POPC   C3B66273  26.282  33.708   7.050
 9623POPC   C4B66274  26.278  33.735   7.350
 9624POPC   NC366275   0.442  44.708   5.550
 9624POPC   PO466276   0.428  44.671   5.850
 9624POPC   GL166277   0.413  44.648   6.150
 9624POPC   GL266278   0.462  44.534   6.150
 9624POPC   C1A66279   0.470  44.696   6.450
 9624POPC   D2A66280   0.479  44.708   6.750
 9624POPC   C3A66281   0.443  44.683   7.050
 9624POPC   C4A66282   0.391  44.646   7.350
 9624POPC   C1B66283   0.478  44.392   6.450
 9624POPC   C2B66284   0.471  44.421   6.750
 9624POPC   C3B66285   0.501  44.390   7.050
 9624POPC   C4B66286   0.467  44.407   7.350
 9625POPC   NC366287  12.027  15.168   5.550
 9625POPC   PO466288  12.097  15.132   5.850
 9625POPC   GL166289  12.089  15.191   6.150
 9625POPC   GL266290  12.191  15.167   6.150
 9625POPC   C1A66291  12.111  15.154   6.450
 9625POPC   D2A66292  12.050  15.229   6.750
 9625POPC   C3A66293  12.114  15.219   7.050
 9625POPC   C4A66294  12.095  15.213   7.350
 9625POPC   C1B66295  12.318  15.199   6.450
 9625POPC   C2B66296  12.301  15.186   6.750
 9625POPC   C3B66297  12.325  15.117   7.050
 9625POPC   C4B66298  12.331  15.140   7.350
 9626POPC   NC366299  35.347   6.607   5.550
 9626POPC   PO466300  35.330   6.596   5.850
 9626POPC   GL166301  35.375   6.654   6.150
 9626POPC   GL266302  35.408   6.581   6.150
 9626POPC   C1A66303  35.362   6.622   6.450
 9626POPC   D2A66304  35.370   6.605   6.750
 9626POPC   C3A66305  35.356   6.662   7.050
 9626POPC   C4A66306  35.394   6.675   7.350
 9626POPC   C1B66307  35.556   6.464   6.450
 9626POPC   C2B66308  35.526   6.517   6.750
 9626POPC   C3B66309  35.598   6.505   7.050
 9626POPC   C4B66310  35.552   6.467   7.350
 9627POPC   NC366311  30.691  16.714   5.550
 9627POPC   PO466312  30.664  16.770   5.850
 9627POPC   GL166313  30.654  16.698   6.150
 9627POPC   GL266314  30.796  16.760   6.150
 9627POPC   C1A66315  30.706  16.732   6.450
 9627POPC   D2A66316  30.716  16.779   6.750
 9627POPC   C3A66317  30.663  16.733   7.050
 9627POPC   C4A66318  30.708  16.762   7.350
 9627POPC   C1B66319  30.878  16.887   6.450
 9627POPC   C2B66320  30.901  16.823   6.750
 9627POPC   C3B66321  30.935  16.871   7.050
 9627POPC   C4B66322  30.962  16.841   7.350
 9628POPC   NC366323   0.469  26.040   5.550
 9628POPC   PO466324   0.451  26.001   5.850
 9628POPC   GL166325   0.423  26.064   6.150
 9628POPC   GL266326   0.506  26.201   6.150
 9628POPC   C1A66327   0.462  26.033   6.450
 9628POPC   D2A66328   0.446  26.036   6.750
 9628POPC   C3A66329   0.393  26.073   7.050
 9628POPC   C4A66330   0.446  26.059   7.350
 9628POPC   C1B66331   0.518  26.248   6.450
 9628POPC   C2B66332   0.508  26.237   6.750
 9628POPC   C3B66333   0.497  26.286   7.050
 9628POPC   C4B66334   0.550  26.246   7.350
 9629POPC   NC366335  26.023  40.757   5.550
 9629POPC   PO466336  26.086  40.814   5.850
 9629POPC   GL166337  26.021  40.766   6.150
 9629POPC   GL266338  26.136  40.658   6.150
 9629POPC   C1A66339  26.026  40.812   6.450
 9629POPC   D2A66340  26.066  40.774   6.750
 9629POPC   C3A66341  26.050  40.802   7.050
 9629POPC   C4A66342  26.071  40.782   7.350
 9629POPC   C1B66343  26.137  40.503   6.450
 9629POPC   C2B66344  26.097  40.522   6.750
 9629POPC   C3B66345  26.142  40.533   7.050
 9629POPC   C4B66346  26.177  40.579   7.350
 9630POPC   NC366347   7.376  43.134   5.550
 9630POPC   PO466348   7.378  43.060   5.850
 9630POPC   GL166349   7.390  43.152   6.150
 9630POPC   GL266350   7.440  42.999   6.150
 9630POPC   C1A66351   7.387  43.086   6.450
 9630POPC   D2A66352   7.410  43.079   6.750
 9630POPC   C3A66353   7.428  43.154   7.050
 9630POPC   C4A66354   7.414  43.064   7.350
 9630POPC   C1B66355   7.401  42.846   6.450
 9630POPC   C2B66356   7.359  42.900   6.750
 9630POPC   C3B66357   7.406  42.863   7.050
 9630POPC   C4B66358   7.406  42.866   7.350
 9631POPC   NC366359   7.431  40.832   5.550
 9631POPC   PO466360   7.401  40.739   5.850
 9631POPC   GL166361   7.415  40.770   6.150
 9631POPC   GL266362   7.507  40.779   6.150
 9631POPC   C1A66363   7.399  40.806   6.450
 9631POPC   D2A66364   7.405  40.767   6.750
 9631POPC   C3A66365   7.374  40.763   7.050
 9631POPC   C4A66366   7.377  40.801   7.350
 9631POPC   C1B66367   7.697  40.890   6.450
 9631POPC   C2B66368   7.692  40.866   6.750
 9631POPC   C3B66369   7.619  40.902   7.050
 9631POPC   C4B66370   7.641  40.889   7.350
 9632POPC   NC366371   2.003  35.312   5.550
 9632POPC   PO466372   1.960  35.389   5.850
 9632POPC   GL166373   1.991  35.323   6.150
 9632POPC   GL266374   1.864  35.252   6.150
 9632POPC   C1A66375   1.994  35.312   6.450
 9632POPC   D2A66376   2.031  35.371   6.750
 9632POPC   C3A66377   2.001  35.355   7.050
 9632POPC   C4A66378   1.949  35.332   7.350
 9632POPC   C1B66379   1.786  35.136   6.450
 9632POPC   C2B66380   1.854  35.148   6.750
 9632POPC   C3B66381   1.771  35.141   7.050
 9632POPC   C4B66382   1.797  35.162   7.350
 9633POPC   NC366383  29.149  35.392   5.550
 9633POPC   PO466384  29.170  35.302   5.850
 9633POPC   GL166385  29.101  35.372   6.150
 9633POPC   GL266386  29.062  35.404   6.150
 9633POPC   C1A66387  29.125  35.390   6.450
 9633POPC   D2A66388  29.167  35.327   6.750
 9633POPC   C3A66389  29.104  35.392   7.050
 9633POPC   C4A66390  29.105  35.345   7.350
 9633POPC   C1B66391  29.040  35.588   6.450
 9633POPC   C2B66392  29.027  35.534   6.750
 9633POPC   C3B66393  29.023  35.558   7.050
 9633POPC   C4B66394  28.984  35.548   7.350
 9634POPC   NC366395   4.320  38.498   5.550
 9634POPC   PO466396   4.275  38.429   5.850
 9634POPC   GL166397   4.313  38.467   6.150
 9634POPC   GL266398   4.263  38.309   6.150
 9634POPC   C1A66399   4.304  38.489   6.450
 9634POPC   D2A66400   4.319  38.488   6.750
 9634POPC   C3A66401   4.363  38.425   7.050
 9634POPC   C4A66402   4.286  38.505   7.350
 9634POPC   C1B66403   4.221  38.220   6.450
 9634POPC   C2B66404   4.223  38.242   6.750
 9634POPC   C3B66405   4.292  38.184   7.050
 9634POPC   C4B66406   4.269  38.224   7.350
 9635POPC   NC366407  11.256  42.379   5.550
 9635POPC   PO466408  11.346  42.338   5.850
 9635POPC   GL166409  11.317  42.318   6.150
 9635POPC   GL266410  11.265  42.236   6.150
 9635POPC   C1A66411  11.279  42.326   6.450
 9635POPC   D2A66412  11.348  42.342   6.750
 9635POPC   C3A66413  11.336  42.302   7.050
 9635POPC   C4A66414  11.285  42.379   7.350
 9635POPC   C1B66415  11.154  42.099   6.450
 9635POPC   C2B66416  11.224  42.135   6.750
 9635POPC   C3B66417  11.220  42.111   7.050
 9635POPC   C4B66418  11.218  42.108   7.350
 9636POPC   NC366419   1.949  16.688   5.550
 9636POPC   PO466420   1.986  16.772   5.850
 9636POPC   GL166421   1.995  16.736   6.150
 9636POPC   GL266422   2.072  16.776   6.150
 9636POPC   C1A66423   2.014  16.690   6.450
 9636POPC   D2A66424   2.036  16.772   6.750
 9636POPC   C3A66425   2.004  16.749   7.050
 9636POPC   C4A66426   1.986  16.689   7.350
 9636POPC   C1B66427   2.165  16.954   6.450
 9636POPC   C2B66428   2.203  16.884   6.750
 9636POPC   C3B66429   2.123  16.924   7.050
 9636POPC   C4B66430   2.140  16.924   7.350
 9637POPC   NC366431   9.773  22.137   5.550
 9637POPC   PO466432   9.701  22.154   5.850
 9637POPC   GL166433   9.772  22.187   6.150
 9637POPC   GL266434   9.610  22.162   6.150
 9637POPC   C1A66435   9.780  22.128   6.450
 9637POPC   D2A66436   9.793  22.173   6.750
 9637POPC   C3A66437   9.706  22.201   7.050
 9637POPC   C4A66438   9.730  22.190   7.350
 9637POPC   C1B66439   9.463  22.174   6.450
 9637POPC   C2B66440   9.539  22.184   6.750
 9637POPC   C3B66441   9.544  22.155   7.050
 9637POPC   C4B66442   9.489  22.201   7.350
 9638POPC   NC366443  36.887  41.514   5.550
 9638POPC   PO466444  36.937  41.567   5.850
 9638POPC   GL166445  36.867  41.563   6.150
 9638POPC   GL266446  37.006  41.507   6.150
 9638POPC   C1A66447  36.915  41.543   6.450
 9638POPC   D2A66448  36.855  41.557   6.750
 9638POPC   C3A66449  36.883  41.586   7.050
 9638POPC   C4A66450  36.874  41.528   7.350
 9638POPC   C1B66451  37.077  41.354   6.450
 9638POPC   C2B66452  37.094  41.432   6.750
 9638POPC   C3B66453  37.065  41.431   7.050
 9638POPC   C4B66454  37.036  41.334   7.350
 9639POPC   NC366455  15.932  34.556   5.550
 9639POPC   PO466456  15.919  34.572   5.850
 9639POPC   GL166457  15.965  34.565   6.150
 9639POPC   GL266458  16.101  34.569   6.150
 9639POPC   C1A66459  15.928  34.622   6.450
 9639POPC   D2A66460  15.940  34.551   6.750
 9639POPC   C3A66461  15.955  34.624   7.050
 9639POPC   C4A66462  15.929  34.612   7.350
 9639POPC   C1B66463  16.166  34.667   6.450
 9639POPC   C2B66464  16.236  34.608   6.750
 9639POPC   C3B66465  16.175  34.632   7.050
 9639POPC   C4B66466  16.230  34.675   7.350
 9640POPC   NC366467  14.366  30.686   5.550
 9640POPC   PO466468  14.407  30.679   5.850
 9640POPC   GL166469  14.423  30.659   6.150
 9640POPC   GL266470  14.278  30.767   6.150
 9640POPC   C1A66471  14.393  30.674   6.450
 9640POPC   D2A66472  14.418  30.679   6.750
 9640POPC   C3A66473  14.437  30.695   7.050
 9640POPC   C4A66474  14.368  30.701   7.350
 9640POPC   C1B66475  14.215  30.899   6.450
 9640POPC   C2B66476  14.281  30.876   6.750
 9640POPC   C3B66477  14.231  30.860   7.050
 9640POPC   C4B66478  14.273  30.909   7.350
 9641POPC   NC366479  14.398  19.068   5.550
 9641POPC   PO466480  14.407  19.085   5.850
 9641POPC   GL166481  14.356  19.076   6.150
 9641POPC   GL266482  14.551  19.063   6.150
 9641POPC   C1A66483  14.356  19.108   6.450
 9641POPC   D2A66484  14.439  19.074   6.750
 9641POPC   C3A66485  14.397  19.079   7.050
 9641POPC   C4A66486  14.375  19.062   7.350
 9641POPC   C1B66487  14.641  19.055   6.450
 9641POPC   C2B66488  14.672  18.990   6.750
 9641POPC   C3B66489  14.640  18.975   7.050
 9641POPC   C4B66490  14.664  19.002   7.350
 9642POPC   NC366491  12.051  43.089   5.550
 9642POPC   PO466492  12.047  43.067   5.850
 9642POPC   GL166493  12.030  43.099   6.150
 9642POPC   GL266494  12.160  42.994   6.150
 9642POPC   C1A66495  12.070  43.147   6.450
 9642POPC   D2A66496  12.095  43.125   6.750
 9642POPC   C3A66497  12.070  43.127   7.050
 9642POPC   C4A66498  12.109  43.150   7.350
 9642POPC   C1B66499  12.243  42.950   6.450
 9642POPC   C2B66500  12.266  42.922   6.750
 9642POPC   C3B66501  12.258  42.963   7.050
 9642POPC   C4B66502  12.199  42.954   7.350
 9643POPC   NC366503  13.588  41.598   5.550
 9643POPC   PO466504  13.646  41.588   5.850
 9643POPC   GL166505  13.631  41.574   6.150
 9643POPC   GL266506  13.488  41.594   6.150
 9643POPC   C1A66507  13.670  41.514   6.450
 9643POPC   D2A66508  13.659  41.536   6.750
 9643POPC   C3A66509  13.644  41.567   7.050
 9643POPC   C4A66510  13.677  41.546   7.350
 9643POPC   C1B66511  13.357  41.657   6.450
 9643POPC   C2B66512  13.359  41.712   6.750
 9643POPC   C3B66513  13.399  41.670   7.050
 9643POPC   C4B66514  13.417  41.684   7.350
 9644POPC   NC366515  15.174  33.056   5.550
 9644POPC   PO466516  15.172  33.033   5.850
 9644POPC   GL166517  15.221  33.000   6.150
 9644POPC   GL266518  15.151  32.895   6.150
 9644POPC   C1A66519  15.156  33.067   6.450
 9644POPC   D2A66520  15.133  33.000   6.750
 9644POPC   C3A66521  15.208  33.022   7.050
 9644POPC   C4A66522  15.195  33.074   7.350
 9644POPC   C1B66523  15.106  32.805   6.450
 9644POPC   C2B66524  15.082  32.790   6.750
 9644POPC   C3B66525  15.086  32.790   7.050
 9644POPC   C4B66526  15.170  32.765   7.350
 9645POPC   NC366527  29.096  39.993   5.550
 9645POPC   PO466528  29.184  40.013   5.850
 9645POPC   GL166529  29.161  40.008   6.150
 9645POPC   GL266530  29.141  39.867   6.150
 9645POPC   C1A66531  29.111  40.034   6.450
 9645POPC   D2A66532  29.122  40.005   6.750
 9645POPC   C3A66533  29.171  40.028   7.050
 9645POPC   C4A66534  29.158  40.046   7.350
 9645POPC   C1B66535  29.122  39.812   6.450
 9645POPC   C2B66536  29.069  39.800   6.750
 9645POPC   C3B66537  29.108  39.742   7.050
 9645POPC   C4B66538  29.135  39.756   7.350
 9646POPC   NC366539  21.396   6.678   5.550
 9646POPC   PO466540  21.350   6.630   5.850
 9646POPC   GL166541  21.421   6.654   6.150
 9646POPC   GL266542  21.439   6.494   6.150
 9646POPC   C1A66543  21.406   6.642   6.450
 9646POPC   D2A66544  21.351   6.665   6.750
 9646POPC   C3A66545  21.401   6.622   7.050
 9646POPC   C4A66546  21.399   6.639   7.350
 9646POPC   C1B66547  21.450   6.426   6.450
 9646POPC   C2B66548  21.417   6.359   6.750
 9646POPC   C3B66549  21.462   6.390   7.050
 9646POPC   C4B66550  21.392   6.429   7.350
 9647POPC   NC366551   2.006  10.563   5.550
 9647POPC   PO466552   2.001  10.509   5.850
 9647POPC   GL166553   2.035  10.531   6.150
 9647POPC   GL266554   1.902  10.542   6.150
 9647POPC   C1A66555   2.016  10.507   6.450
 9647POPC   D2A66556   1.983  10.571   6.750
 9647POPC   C3A66557   2.033  10.549   7.050
 9647POPC   C4A66558   2.021  10.496   7.350
 9647POPC   C1B66559   1.756  10.508   6.450
 9647POPC   C2B66560   1.724  10.584   6.750
 9647POPC   C3B66561   1.781  10.579   7.050
 9647POPC   C4B66562   1.757  10.556   7.350
 9648POPC   NC366563  40.000  34.621   5.550
 9648POPC   PO466564  40.036  34.607   5.850
 9648POPC   GL166565  40.055  34.537   6.150
 9648POPC   GL266566  39.938  34.426   6.150
 9648POPC   C1A66567  39.960  34.575   6.450
 9648POPC   D2A66568  39.980  34.620   6.750
 9648POPC   C3A66569  40.023  34.570   7.050
 9648POPC   C4A66570  40.049  34.607   7.350
 9648POPC   C1B66571  39.923  34.323   6.450
 9648POPC   C2B66572  39.908  34.355   6.750
 9648POPC   C3B66573  39.958  34.314   7.050
 9648POPC   C4B66574  39.969  34.362   7.350
 9649POPC   NC366575   6.672  42.335   5.550
 9649POPC   PO466576   6.631  42.324   5.850
 9649POPC   GL166577   6.624  42.310   6.150
 9649POPC   GL266578   6.706  42.451   6.150
 9649POPC   C1A66579   6.650  42.303   6.450
 9649POPC   D2A66580   6.618  42.364   6.750
 9649POPC   C3A66581   6.661  42.344   7.050
 9649POPC   C4A66582   6.683  42.355   7.350
 9649POPC   C1B66583   6.680  42.632   6.450
 9649POPC   C2B66584   6.704  42.572   6.750
 9649POPC   C3B66585   6.634  42.534   7.050
 9649POPC   C4B66586   6.679  42.626   7.350
 9650POPC   NC366587  34.606  29.958   5.550
 9650POPC   PO466588  34.563  29.960   5.850
 9650POPC   GL166589  34.619  29.920   6.150
 9650POPC   GL266590  34.619  29.823   6.150
 9650POPC   C1A66591  34.547  29.908   6.450
 9650POPC   D2A66592  34.540  29.929   6.750
 9650POPC   C3A66593  34.585  29.960   7.050
 9650POPC   C4A66594  34.610  29.917   7.350
 9650POPC   C1B66595  34.612  29.717   6.450
 9650POPC   C2B66596  34.635  29.717   6.750
 9650POPC   C3B66597  34.610  29.681   7.050
 9650POPC   C4B66598  34.632  29.720   7.350
 9651POPC   NC366599  26.864   3.536   5.550
 9651POPC   PO466600  26.845   3.501   5.850
 9651POPC   GL166601  26.783   3.586   6.150
 9651POPC   GL266602  26.821   3.637   6.150
 9651POPC   C1A66603  26.768   3.551   6.450
 9651POPC   D2A66604  26.851   3.589   6.750
 9651POPC   C3A66605  26.793   3.576   7.050
 9651POPC   C4A66606  26.787   3.525   7.350
 9651POPC   C1B66607  26.876   3.778   6.450
 9651POPC   C2B66608  26.859   3.789   6.750
 9651POPC   C3B66609  26.889   3.747   7.050
 9651POPC   C4B66610  26.866   3.816   7.350
 9652POPC   NC366611  22.127  37.636   5.550
 9652POPC   PO466612  22.127  37.711   5.850
 9652POPC   GL166613  22.166  37.697   6.150
 9652POPC   GL266614  22.033  37.702   6.150
 9652POPC   C1A66615  22.188  37.638   6.450
 9652POPC   D2A66616  22.160  37.671   6.750
 9652POPC   C3A66617  22.157  37.663   7.050
 9652POPC   C4A66618  22.183  37.694   7.350
 9652POPC   C1B66619  21.907  37.632   6.450
 9652POPC   C2B66620  21.897  37.689   6.750
 9652POPC   C3B66621  21.888  37.633   7.050
 9652POPC   C4B66622  21.941  37.687   7.350
 9653POPC   NC366623  40.046   3.544   5.550
 9653POPC   PO466624  40.037   3.530   5.850
 9653POPC   GL166625  40.021   3.546   6.150
 9653POPC   GL266626  40.079   3.627   6.150
 9653POPC   C1A66627  40.006   3.500   6.450
 9653POPC   D2A66628  40.054   3.575   6.750
 9653POPC   C3A66629  40.037   3.552   7.050
 9653POPC   C4A66630  39.965   3.511   7.350
 9653POPC   C1B66631  40.092   3.763   6.450
 9653POPC   C2B66632  40.125   3.780   6.750
 9653POPC   C3B66633  40.078   3.807   7.050
 9653POPC   C4B66634  40.091   3.778   7.350
 9654POPC   NC366635  40.831   2.812   5.550
 9654POPC   PO466636  40.753   2.755   5.850
 9654POPC   GL166637  40.779   2.772   6.150
 9654POPC   GL266638  40.898   2.694   6.150
 9654POPC   C1A66639  40.773   2.745   6.450
 9654POPC   D2A66640  40.794   2.723   6.750
 9654POPC   C3A66641  40.808   2.732   7.050
 9654POPC   C4A66642  40.735   2.734   7.350
 9654POPC   C1B66643  40.997   2.747   6.450
 9654POPC   C2B66644  41.045   2.723   6.750
 9654POPC   C3B66645  40.990   2.734   7.050
 9654POPC   C4B66646  41.048   2.712   7.350
 9655POPC   NC366647   0.485   3.569   5.550
 9655POPC   PO466648   0.483   3.557   5.850
 9655POPC   GL166649   0.394   3.531   6.150
 9655POPC   GL266650   0.377   3.642   6.150
 9655POPC   C1A66651   0.390   3.567   6.450
 9655POPC   D2A66652   0.388   3.501   6.750
 9655POPC   C3A66653   0.467   3.527   7.050
 9655POPC   C4A66654   0.464   3.520   7.350
 9655POPC   C1B66655   0.292   3.754   6.450
 9655POPC   C2B66656   0.286   3.776   6.750
 9655POPC   C3B66657   0.277   3.772   7.050
 9655POPC   C4B66658   0.291   3.720   7.350
 9656POPC   NC366659  26.778  38.487   5.550
 9656POPC   PO466660  26.792  38.499   5.850
 9656POPC   GL166661  26.816  38.431   6.150
 9656POPC   GL266662  26.747  38.363   6.150
 9656POPC   C1A66663  26.845  38.493   6.450
 9656POPC   D2A66664  26.856  38.450   6.750
 9656POPC   C3A66665  26.848  38.480   7.050
 9656POPC   C4A66666  26.773  38.439   7.350
 9656POPC   C1B66667  26.563  38.361   6.450
 9656POPC   C2B66668  26.608  38.378   6.750
 9656POPC   C3B66669  26.553  38.301   7.050
 9656POPC   C4B66670  26.629  38.343   7.350
 9657POPC   NC366671  10.554  28.366   5.550
 9657POPC   PO466672  10.538  28.401   5.850
 9657POPC   GL166673  10.562  28.408   6.150
 9657POPC   GL266674  10.528  28.295   6.150
 9657POPC   C1A66675  10.479  28.322   6.450
 9657POPC   D2A66676  10.489  28.390   6.750
 9657POPC   C3A66677  10.480  28.365   7.050
 9657POPC   C4A66678  10.539  28.361   7.350
 9657POPC   C1B66679  10.593  28.095   6.450
 9657POPC   C2B66680  10.544  28.148   6.750
 9657POPC   C3B66681  10.608  28.081   7.050
 9657POPC   C4B66682  10.571  28.118   7.350
 9658POPC   NC366683  39.265  13.649   5.550
 9658POPC   PO466684  39.219  13.651   5.850
 9658POPC   GL166685  39.215  13.608   6.150
 9658POPC   GL266686  39.093  13.545   6.150
 9658POPC   C1A66687  39.243  13.589   6.450
 9658POPC   D2A66688  39.195  13.588   6.750
 9658POPC   C3A66689  39.243  13.674   7.050
 9658POPC   C4A66690  39.253  13.614   7.350
 9658POPC   C1B66691  38.994  13.540   6.450
 9658POPC   C2B66692  39.054  13.471   6.750
 9658POPC   C3B66693  38.992  13.547   7.050
 9658POPC   C4B66694  39.052  13.513   7.350
 9659POPC   NC366695  30.682  28.392   5.550
 9659POPC   PO466696  30.684  28.372   5.850
 9659POPC   GL166697  30.730  28.393   6.150
 9659POPC   GL266698  30.589  28.239   6.150
 9659POPC   C1A66699  30.680  28.335   6.450
 9659POPC   D2A66700  30.684  28.321   6.750
 9659POPC   C3A66701  30.699  28.337   7.050
 9659POPC   C4A66702  30.677  28.347   7.350
 9659POPC   C1B66703  30.555  28.159   6.450
 9659POPC   C2B66704  30.571  28.131   6.750
 9659POPC   C3B66705  30.552  28.164   7.050
 9659POPC   C4B66706  30.540  28.205   7.350
 9660POPC   NC366707  32.978  40.049   5.550
 9660POPC   PO466708  33.000  40.034   5.850
 9660POPC   GL166709  33.041  40.001   6.150
 9660POPC   GL266710  32.987  40.174   6.150
 9660POPC   C1A66711  32.983  40.051   6.450
 9660POPC   D2A66712  33.060  39.975   6.750
 9660POPC   C3A66713  33.044  39.997   7.050
 9660POPC   C4A66714  33.006  39.991   7.350
 9660POPC   C1B66715  33.013  40.240   6.450
 9660POPC   C2B66716  32.987  40.235   6.750
 9660POPC   C3B66717  32.985  40.222   7.050
 9660POPC   C4B66718  33.051  40.220   7.350
 9661POPC   NC366719  26.832  28.374   5.550
 9661POPC   PO466720  26.826  28.387   5.850
 9661POPC   GL166721  26.825  28.321   6.150
 9661POPC   GL266722  26.757  28.308   6.150
 9661POPC   C1A66723  26.793  28.336   6.450
 9661POPC   D2A66724  26.824  28.343   6.750
 9661POPC   C3A66725  26.776  28.404   7.050
 9661POPC   C4A66726  26.821  28.385   7.350
 9661POPC   C1B66727  26.592  28.170   6.450
 9661POPC   C2B66728  26.596  28.231   6.750
 9661POPC   C3B66729  26.637  28.198   7.050
 9661POPC   C4B66730  26.620  28.220   7.350
 9662POPC   NC366731  37.704  36.124   5.550
 9662POPC   PO466732  37.658  36.113   5.850
 9662POPC   GL166733  37.668  36.099   6.150
 9662POPC   GL266734  37.547  36.094   6.150
 9662POPC   C1A66735  37.698  36.134   6.450
 9662POPC   D2A66736  37.703  36.177   6.750
 9662POPC   C3A66737  37.664  36.153   7.050
 9662POPC   C4A66738  37.666  36.170   7.350
 9662POPC   C1B66739  37.481  35.984   6.450
 9662POPC   C2B66740  37.498  36.040   6.750
 9662POPC   C3B66741  37.451  36.061   7.050
 9662POPC   C4B66742  37.505  36.058   7.350
 9663POPC   NC366743  15.914  35.330   5.550
 9663POPC   PO466744  15.953  35.391   5.850
 9663POPC   GL166745  15.995  35.383   6.150
 9663POPC   GL266746  15.911  35.260   6.150
 9663POPC   C1A66747  15.966  35.340   6.450
 9663POPC   D2A66748  15.992  35.396   6.750
 9663POPC   C3A66749  15.953  35.379   7.050
 9663POPC   C4A66750  15.998  35.337   7.350
 9663POPC   C1B66751  15.829  35.184   6.450
 9663POPC   C2B66752  15.809  35.209   6.750
 9663POPC   C3B66753  15.825  35.161   7.050
 9663POPC   C4B66754  15.840  35.132   7.350
 9664POPC   NC366755  43.928   6.685   5.550
 9664POPC   PO466756  43.922   6.678   5.850
 9664POPC   GL166757  43.921   6.681   6.150
 9664POPC   GL266758  43.986   6.676   6.150
 9664POPC   C1A66759  43.885   6.602   6.450
 9664POPC   D2A66760  43.919   6.624   6.750
 9664POPC   C3A66761  43.837   6.611   7.050
 9664POPC   C4A66762  43.852   6.599   7.350
 9664POPC   C1B66763  44.140   6.733   6.450
 9664POPC   C2B66764  44.096   6.772   6.750
 9664POPC   C3B66765  44.138   6.743   7.050
 9664POPC   C4B66766  44.099   6.793   7.350
 9665POPC   NC366767  27.587  16.775   5.550
 9665POPC   PO466768  27.638  16.723   5.850
 9665POPC   GL166769  27.558  16.727   6.150
 9665POPC   GL266770  27.491  16.792   6.150
 9665POPC   C1A66771  27.573  16.743   6.450
 9665POPC   D2A66772  27.622  16.698   6.750
 9665POPC   C3A66773  27.547  16.691   7.050
 9665POPC   C4A66774  27.558  16.728   7.350
 9665POPC   C1B66775  27.461  16.888   6.450
 9665POPC   C2B66776  27.448  16.949   6.750
 9665POPC   C3B66777  27.471  16.934   7.050
 9665POPC   C4B66778  27.391  16.965   7.350
 9666POPC   NC366779  18.313  42.309   5.550
 9666POPC   PO466780  18.315  42.326   5.850
 9666POPC   GL166781  18.331  42.381   6.150
 9666POPC   GL266782  18.295  42.452   6.150
 9666POPC   C1A66783  18.259  42.339   6.450
 9666POPC   D2A66784  18.311  42.361   6.750
 9666POPC   C3A66785  18.249  42.316   7.050
 9666POPC   C4A66786  18.285  42.364   7.350
 9666POPC   C1B66787  18.286  42.602   6.450
 9666POPC   C2B66788  18.314  42.536   6.750
 9666POPC   C3B66789  18.321  42.611   7.050
 9666POPC   C4B66790  18.298  42.553   7.350
 9667POPC   NC366791  31.504  33.050   5.550
 9667POPC   PO466792  31.436  33.040   5.850
 9667POPC   GL166793  31.448  32.979   6.150
 9667POPC   GL266794  31.434  32.946   6.150
 9667POPC   C1A66795  31.500  33.010   6.450
 9667POPC   D2A66796  31.429  32.995   6.750
 9667POPC   C3A66797  31.456  33.045   7.050
 9667POPC   C4A66798  31.439  33.043   7.350
 9667POPC   C1B66799  31.360  32.833   6.450
 9667POPC   C2B66800  31.360  32.827   6.750
 9667POPC   C3B66801  31.440  32.830   7.050
 9667POPC   C4B66802  31.431  32.793   7.350
 9668POPC   NC366803   9.725   3.564   5.550
 9668POPC   PO466804   9.738   3.520   5.850
 9668POPC   GL166805   9.719   3.573   6.150
 9668POPC   GL266806   9.657   3.575   6.150
 9668POPC   C1A66807   9.782   3.506   6.450
 9668POPC   D2A66808   9.707   3.545   6.750
 9668POPC   C3A66809   9.703   3.493   7.050
 9668POPC   C4A66810   9.796   3.584   7.350
 9668POPC   C1B66811   9.508   3.601   6.450
 9668POPC   C2B66812   9.464   3.605   6.750
 9668POPC   C3B66813   9.480   3.614   7.050
 9668POPC   C4B66814   9.515   3.651   7.350
 9669POPC   NC366815  14.366  12.046   5.550
 9669POPC   PO466816  14.441  12.059   5.850
 9669POPC   GL166817  14.369  12.109   6.150
 9669POPC   GL266818  14.362  11.987   6.150
 9669POPC   C1A66819  14.354  12.047   6.450
 9669POPC   D2A66820  14.414  12.105   6.750
 9669POPC   C3A66821  14.428  12.077   7.050
 9669POPC   C4A66822  14.432  12.104   7.350
 9669POPC   C1B66823  14.202  11.857   6.450
 9669POPC   C2B66824  14.214  11.898   6.750
 9669POPC   C3B66825  14.231  11.929   7.050
 9669POPC   C4B66826  14.208  11.882   7.350
 9670POPC   NC366827  12.827  15.147   5.550
 9670POPC   PO466828  12.861  15.154   5.850
 9670POPC   GL166829  12.826  15.229   6.150
 9670POPC   GL266830  12.927  15.231   6.150
 9670POPC   C1A66831  12.859  15.176   6.450
 9670POPC   D2A66832  12.890  15.219   6.750
 9670POPC   C3A66833  12.891  15.187   7.050
 9670POPC   C4A66834  12.855  15.144   7.350
 9670POPC   C1B66835  13.130  15.192   6.450
 9670POPC   C2B66836  13.095  15.218   6.750
 9670POPC   C3B66837  13.075  15.239   7.050
 9670POPC   C4B66838  13.054  15.202   7.350
 9671POPC   NC366839  36.094  42.308   5.550
 9671POPC   PO466840  36.113  42.337   5.850
 9671POPC   GL166841  36.088  42.287   6.150
 9671POPC   GL266842  36.235  42.359   6.150
 9671POPC   C1A66843  36.174  42.377   6.450
 9671POPC   D2A66844  36.123  42.364   6.750
 9671POPC   C3A66845  36.150  42.316   7.050
 9671POPC   C4A66846  36.135  42.338   7.350
 9671POPC   C1B66847  36.404  42.382   6.450
 9671POPC   C2B66848  36.339  42.382   6.750
 9671POPC   C3B66849  36.393  42.427   7.050
 9671POPC   C4B66850  36.335  42.345   7.350
 9672POPC   NC366851  35.346  38.472   5.550
 9672POPC   PO466852  35.351  38.492   5.850
 9672POPC   GL166853  35.374  38.452   6.150
 9672POPC   GL266854  35.484  38.349   6.150
 9672POPC   C1A66855  35.368  38.473   6.450
 9672POPC   D2A66856  35.319  38.489   6.750
 9672POPC   C3A66857  35.366  38.448   7.050
 9672POPC   C4A66858  35.352  38.426   7.350
 9672POPC   C1B66859  35.542  38.357   6.450
 9672POPC   C2B66860  35.548  38.302   6.750
 9672POPC   C3B66861  35.602  38.326   7.050
 9672POPC   C4B66862  35.556  38.320   7.350
 9673POPC   NC366863  26.023  34.625   5.550
 9673POPC   PO466864  26.058  34.591   5.850
 9673POPC   GL166865  26.060  34.624   6.150
 9673POPC   GL266866  26.153  34.440   6.150
 9673POPC   C1A66867  26.016  34.613   6.450
 9673POPC   D2A66868  26.041  34.579   6.750
 9673POPC   C3A66869  26.091  34.546   7.050
 9673POPC   C4A66870  26.060  34.622   7.350
 9673POPC   C1B66871  26.218  34.378   6.450
 9673POPC   C2B66872  26.169  34.377   6.750
 9673POPC   C3B66873  26.217  34.393   7.050
 9673POPC   C4B66874  26.212  34.425   7.350
 9674POPC   NC366875   5.119   7.465   5.550
 9674POPC   PO466876   5.073   7.410   5.850
 9674POPC   GL166877   5.112   7.377   6.150
 9674POPC   GL266878   5.152   7.535   6.150
 9674POPC   C1A66879   5.094   7.427   6.450
 9674POPC   D2A66880   5.115   7.459   6.750
 9674POPC   C3A66881   5.092   7.406   7.050
 9674POPC   C4A66882   5.123   7.458   7.350
 9674POPC   C1B66883   5.246   7.636   6.450
 9674POPC   C2B66884   5.271   7.574   6.750
 9674POPC   C3B66885   5.286   7.612   7.050
 9674POPC   C4B66886   5.265   7.599   7.350
 9675POPC   NC366887  36.896  43.902   5.550
 9675POPC   PO466888  36.910  43.902   5.850
 9675POPC   GL166889  36.874  43.912   6.150
 9675POPC   GL266890  36.971  43.935   6.150
 9675POPC   C1A66891  36.885  43.929   6.450
 9675POPC   D2A66892  36.907  43.934   6.750
 9675POPC   C3A66893  36.887  43.915   7.050
 9675POPC   C4A66894  36.882  43.845   7.350
 9675POPC   C1B66895  37.136  43.998   6.450
 9675POPC   C2B66896  37.143  43.999   6.750
 9675POPC   C3B66897  37.096  44.024   7.050
 9675POPC   C4B66898  37.088  44.084   7.350
 9676POPC   NC366899  21.402   4.327   5.550
 9676POPC   PO466900  21.431   4.355   5.850
 9676POPC   GL166901  21.348   4.310   6.150
 9676POPC   GL266902  21.545   4.332   6.150
 9676POPC   C1A66903  21.358   4.343   6.450
 9676POPC   D2A66904  21.433   4.348   6.750
 9676POPC   C3A66905  21.386   4.311   7.050
 9676POPC   C4A66906  21.342   4.290   7.350
 9676POPC   C1B66907  21.643   4.333   6.450
 9676POPC   C2B66908  21.591   4.343   6.750
 9676POPC   C3B66909  21.621   4.361   7.050
 9676POPC   C4B66910  21.607   4.376   7.350
 9677POPC   NC366911  35.367   1.988   5.550
 9677POPC   PO466912  35.325   2.009   5.850
 9677POPC   GL166913  35.328   2.035   6.150
 9677POPC   GL266914  35.259   2.070   6.150
 9677POPC   C1A66915  35.386   1.983   6.450
 9677POPC   D2A66916  35.327   1.959   6.750
 9677POPC   C3A66917  35.312   1.997   7.050
 9677POPC   C4A66918  35.375   1.949   7.350
 9677POPC   C1B66919  35.154   2.125   6.450
 9677POPC   C2B66920  35.174   2.105   6.750
 9677POPC   C3B66921  35.162   2.148   7.050
 9677POPC   C4B66922  35.189   2.185   7.350
 9678POPC   NC366923  11.266  15.936   5.550
 9678POPC   PO466924  11.251  15.977   5.850
 9678POPC   GL166925  11.305  15.995   6.150
 9678POPC   GL266926  11.191  16.053   6.150
 9678POPC   C1A66927  11.279  15.987   6.450
 9678POPC   D2A66928  11.314  15.971   6.750
 9678POPC   C3A66929  11.340  15.934   7.050
 9678POPC   C4A66930  11.253  15.915   7.350
 9678POPC   C1B66931  11.066  16.054   6.450
 9678POPC   C2B66932  11.111  16.042   6.750
 9678POPC   C3B66933  11.083  16.058   7.050
 9678POPC   C4B66934  11.106  16.120   7.350
 9679POPC   NC366935  29.887  18.257   5.550
 9679POPC   PO466936  29.929  18.239   5.850
 9679POPC   GL166937  29.948  18.255   6.150
 9679POPC   GL266938  29.833  18.263   6.150
 9679POPC   C1A66939  29.951  18.294   6.450
 9679POPC   D2A66940  29.963  18.289   6.750
 9679POPC   C3A66941  29.953  18.313   7.050
 9679POPC   C4A66942  29.953  18.291   7.350
 9679POPC   C1B66943  29.715  18.274   6.450
 9679POPC   C2B66944  29.687  18.326   6.750
 9679POPC   C3B66945  29.705  18.324   7.050
 9679POPC   C4B66946  29.699  18.309   7.350
 9680POPC   NC366947  43.075  30.659   5.550
 9680POPC   PO466948  43.129  30.674   5.850
 9680POPC   GL166949  43.146  30.662   6.150
 9680POPC   GL266950  43.098  30.793   6.150
 9680POPC   C1A66951  43.114  30.659   6.450
 9680POPC   D2A66952  43.063  30.656   6.750
 9680POPC   C3A66953  43.107  30.697   7.050
 9680POPC   C4A66954  43.131  30.712   7.350
 9680POPC   C1B66955  43.130  30.966   6.450
 9680POPC   C2B66956  43.179  30.971   6.750
 9680POPC   C3B66957  43.102  30.973   7.050
 9680POPC   C4B66958  43.125  30.907   7.350
 9681POPC   NC366959  20.580  38.492   5.550
 9681POPC   PO466960  20.653  38.434   5.850
 9681POPC   GL166961  20.646  38.453   6.150
 9681POPC   GL266962  20.669  38.369   6.150
 9681POPC   C1A66963  20.594  38.487   6.450
 9681POPC   D2A66964  20.592  38.471   6.750
 9681POPC   C3A66965  20.630  38.431   7.050
 9681POPC   C4A66966  20.572  38.469   7.350
 9681POPC   C1B66967  20.775  38.273   6.450
 9681POPC   C2B66968  20.796  38.248   6.750
 9681POPC   C3B66969  20.802  38.255   7.050
 9681POPC   C4B66970  20.745  38.244   7.350
 9682POPC   NC366971  43.854  24.514   5.550
 9682POPC   PO466972  43.888  24.498   5.850
 9682POPC   GL166973  43.888  24.486   6.150
 9682POPC   GL266974  43.800  24.400   6.150
 9682POPC   C1A66975  43.897  24.494   6.450
 9682POPC   D2A66976  43.880  24.454   6.750
 9682POPC   C3A66977  43.860  24.441   7.050
 9682POPC   C4A66978  43.849  24.460   7.350
 9682POPC   C1B66979  43.721  24.266   6.450
 9682POPC   C2B66980  43.775  24.276   6.750
 9682POPC   C3B66981  43.706  24.296   7.050
 9682POPC   C4B66982  43.769  24.235   7.350
 9683POPC   NC366983   0.483   7.391   5.550
 9683POPC   PO466984   0.488   7.416   5.850
 9683POPC   GL166985   0.453   7.440   6.150
 9683POPC   GL266986   0.313   7.424   6.150
 9683POPC   C1A66987   0.452   7.447   6.450
 9683POPC   D2A66988   0.457   7.438   6.750
 9683POPC   C3A66989   0.421   7.392   7.050
 9683POPC   C4A66990   0.451   7.391   7.350
 9683POPC   C1B66991   0.148   7.464   6.450
 9683POPC   C2B66992   0.220   7.460   6.750
 9683POPC   C3B66993   0.234   7.520   7.050
 9683POPC   C4B66994   0.204   7.521   7.350
 9684POPC   NC366995  39.972  41.515   5.550
 9684POPC   PO466996  39.999  41.572   5.850
 9684POPC   GL166997  39.970  41.527   6.150
 9684POPC   GL266998  39.971  41.648   6.150
 9684POPC   C1A66999  39.985  41.517   6.450
 9684POPC   D2A67000  39.963  41.511   6.750
 9684POPC   C3A67001  39.969  41.555   7.050
 9684POPC   C4A67002  40.032  41.560   7.350
 9684POPC   C1B67003  39.886  41.752   6.450
 9684POPC   C2B67004  39.863  41.822   6.750
 9684POPC   C3B67005  39.933  41.764   7.050
 9684POPC   C4B67006  39.876  41.770   7.350
 9685POPC   NC367007  30.707  30.709   5.550
 9685POPC   PO467008  30.726  30.718   5.850
 9685POPC   GL167009  30.658  30.695   6.150
 9685POPC   GL267010  30.712  30.607   6.150
 9685POPC   C1A67011  30.741  30.724   6.450
 9685POPC   D2A67012  30.721  30.652   6.750
 9685POPC   C3A67013  30.709  30.745   7.050
 9685POPC   C4A67014  30.734  30.699   7.350
 9685POPC   C1B67015  30.778  30.407   6.450
 9685POPC   C2B67016  30.724  30.424   6.750
 9685POPC   C3B67017  30.780  30.420   7.050
 9685POPC   C4B67018  30.774  30.401   7.350
 9686POPC   NC367019  16.721  35.392   5.550
 9686POPC   PO467020  16.768  35.313   5.850
 9686POPC   GL167021  16.741  35.307   6.150
 9686POPC   GL267022  16.592  35.268   6.150
 9686POPC   C1A67023  16.769  35.347   6.450
 9686POPC   D2A67024  16.715  35.394   6.750
 9686POPC   C3A67025  16.704  35.345   7.050
 9686POPC   C4A67026  16.736  35.320   7.350
 9686POPC   C1B67027  16.478  35.292   6.450
 9686POPC   C2B67028  16.526  35.216   6.750
 9686POPC   C3B67029  16.487  35.202   7.050
 9686POPC   C4B67030  16.543  35.237   7.350
 9687POPC   NC367031  39.197   2.726   5.550
 9687POPC   PO467032  39.232   2.807   5.850
 9687POPC   GL167033  39.215   2.809   6.150
 9687POPC   GL267034  39.235   2.924   6.150
 9687POPC   C1A67035  39.207   2.760   6.450
 9687POPC   D2A67036  39.259   2.733   6.750
 9687POPC   C3A67037  39.184   2.739   7.050
 9687POPC   C4A67038  39.262   2.726   7.350
 9687POPC   C1B67039  39.289   3.032   6.450
 9687POPC   C2B67040  39.270   3.001   6.750
 9687POPC   C3B67041  39.336   2.959   7.050
 9687POPC   C4B67042  39.322   3.006   7.350
 9688POPC   NC367043  12.837   3.507   5.550
 9688POPC   PO467044  12.803   3.498   5.850
 9688POPC   GL167045  12.852   3.518   6.150
 9688POPC   GL267046  12.958   3.668   6.150
 9688POPC   C1A67047  12.870   3.568   6.450
 9688POPC   D2A67048  12.895   3.509   6.750
 9688POPC   C3A67049  12.827   3.531   7.050
 9688POPC   C4A67050  12.818   3.501   7.350
 9688POPC   C1B67051  12.999   3.700   6.450
 9688POPC   C2B67052  13.063   3.690   6.750
 9688POPC   C3B67053  13.080   3.712   7.050
 9688POPC   C4B67054  13.086   3.709   7.350
 9689POPC   NC367055  31.495  19.038   5.550
 9689POPC   PO467056  31.474  19.058   5.850
 9689POPC   GL167057  31.500  19.058   6.150
 9689POPC   GL267058  31.349  19.198   6.150
 9689POPC   C1A67059  31.499  19.080   6.450
 9689POPC   D2A67060  31.509  19.029   6.750
 9689POPC   C3A67061  31.486  19.079   7.050
 9689POPC   C4A67062  31.510  19.036   7.350
 9689POPC   C1B67063  31.279  19.218   6.450
 9689POPC   C2B67064  31.330  19.241   6.750
 9689POPC   C3B67065  31.296  19.260   7.050
 9689POPC   C4B67066  31.265  19.253   7.350
 9690POPC   NC367067  44.644   1.192   5.550
 9690POPC   PO467068  44.645   1.202   5.850
 9690POPC   GL167069  44.646   1.165   6.150
 9690POPC   GL267070  44.655   1.101   6.150
 9690POPC   C1A67071  44.643   1.171   6.450
 9690POPC   D2A67072  44.613   1.253   6.750
 9690POPC   C3A67073  44.625   1.245   7.050
 9690POPC   C4A67074  44.629   1.235   7.350
 9690POPC   C1B67075  44.621   0.923   6.450
 9690POPC   C2B67076  44.710   0.932   6.750
 9690POPC   C3B67077  44.691   0.965   7.050
 9690POPC   C4B67078  44.661   0.954   7.350
 9691POPC   NC367079  34.623  22.124   5.550
 9691POPC   PO467080  34.532  22.171   5.850
 9691POPC   GL167081  34.618  22.151   6.150
 9691POPC   GL267082  34.490  22.106   6.150
 9691POPC   C1A67083  34.579  22.200   6.450
 9691POPC   D2A67084  34.599  22.197   6.750
 9691POPC   C3A67085  34.537  22.130   7.050
 9691POPC   C4A67086  34.560  22.183   7.350
 9691POPC   C1B67087  34.313  22.150   6.450
 9691POPC   C2B67088  34.354  22.125   6.750
 9691POPC   C3B67089  34.302  22.184   7.050
 9691POPC   C4B67090  34.333  22.134   7.350
 9692POPC   NC367091   3.494  36.858   5.550
 9692POPC   PO467092   3.511  36.873   5.850
 9692POPC   GL167093   3.577  36.916   6.150
 9692POPC   GL267094   3.695  36.929   6.150
 9692POPC   C1A67095   3.507  36.883   6.450
 9692POPC   D2A67096   3.574  36.884   6.750
 9692POPC   C3A67097   3.506  36.911   7.050
 9692POPC   C4A67098   3.578  36.857   7.350
 9692POPC   C1B67099   3.760  36.945   6.450
 9692POPC   C2B67100   3.772  36.911   6.750
 9692POPC   C3B67101   3.746  36.908   7.050
 9692POPC   C4B67102   3.754  36.954   7.350
 9693POPC   NC367103  28.411  17.547   5.550
 9693POPC   PO467104  28.373  17.544   5.850
 9693POPC   GL167105  28.322  17.501   6.150
 9693POPC   GL267106  28.433  17.395   6.150
 9693POPC   C1A67107  28.403  17.458   6.450
 9693POPC   D2A67108  28.362  17.461   6.750
 9693POPC   C3A67109  28.369  17.554   7.050
 9693POPC   C4A67110  28.325  17.471   7.350
 9693POPC   C1B67111  28.477  17.300   6.450
 9693POPC   C2B67112  28.556  17.312   6.750
 9693POPC   C3B67113  28.499  17.266   7.050
 9693POPC   C4B67114  28.480  17.330   7.350
 9694POPC   NC367115  44.666  29.937   5.550
 9694POPC   PO467116  44.660  29.872   5.850
 9694POPC   GL167117  44.624  29.961   6.150
 9694POPC   GL267118  44.680  29.779   6.150
 9694POPC   C1A67119  44.679  29.940   6.450
 9694POPC   D2A67120  44.688  29.887   6.750
 9694POPC   C3A67121  44.655  29.909   7.050
 9694POPC   C4A67122  44.711  29.876   7.350
 9694POPC   C1B67123  44.760  29.675   6.450
 9694POPC   C2B67124  44.736  29.744   6.750
 9694POPC   C3B67125  44.835  29.712   7.050
 9694POPC   C4B67126  44.781  29.745   7.350
 9695POPC   NC367127  40.805  42.354   5.550
 9695POPC   PO467128  40.827  42.342   5.850
 9695POPC   GL167129  40.767  42.339   6.150
 9695POPC   GL267130  40.705  42.321   6.150
 9695POPC   C1A67131  40.802  42.361   6.450
 9695POPC   D2A67132  40.789  42.330   6.750
 9695POPC   C3A67133  40.831  42.322   7.050
 9695POPC   C4A67134  40.802  42.286   7.350
 9695POPC   C1B67135  40.523  42.321   6.450
 9695POPC   C2B67136  40.546  42.330   6.750
 9695POPC   C3B67137  40.576  42.374   7.050
 9695POPC   C4B67138  40.526  42.315   7.350
 9696POPC   NC367139  17.512   2.795   5.550
 9696POPC   PO467140  17.517   2.796   5.850
 9696POPC   GL167141  17.541   2.736   6.150
 9696POPC   GL267142  17.371   2.852   6.150
 9696POPC   C1A67143  17.480   2.774   6.450
 9696POPC   D2A67144  17.497   2.749   6.750
 9696POPC   C3A67145  17.468   2.731   7.050
 9696POPC   C4A67146  17.522   2.750   7.350
 9696POPC   C1B67147  17.337   2.875   6.450
 9696POPC   C2B67148  17.295   2.914   6.750
 9696POPC   C3B67149  17.315   2.889   7.050
 9696POPC   C4B67150  17.264   2.868   7.350
 9697POPC   NC367151   2.723  26.856   5.550
 9697POPC   PO467152   2.728  26.824   5.850
 9697POPC   GL167153   2.736  26.833   6.150
 9697POPC   GL267154   2.664  26.931   6.150
 9697POPC   C1A67155   2.785  26.814   6.450
 9697POPC   D2A67156   2.719  26.802   6.750
 9697POPC   C3A67157   2.738  26.840   7.050
 9697POPC   C4A67158   2.777  26.863   7.350
 9697POPC   C1B67159   2.613  27.026   6.450
 9697POPC   C2B67160   2.557  27.022   6.750
 9697POPC   C3B67161   2.548  27.018   7.050
 9697POPC   C4B67162   2.604  27.016   7.350
 9698POPC   NC367163  23.736  16.722   5.550
 9698POPC   PO467164  23.721  16.764   5.850
 9698POPC   GL167165  23.708  16.760   6.150
 9698POPC   GL267166  23.581  16.662   6.150
 9698POPC   C1A67167  23.675  16.757   6.450
 9698POPC   D2A67168  23.750  16.708   6.750
 9698POPC   C3A67169  23.680  16.771   7.050
 9698POPC   C4A67170  23.709  16.743   7.350
 9698POPC   C1B67171  23.480  16.545   6.450
 9698POPC   C2B67172  23.506  16.613   6.750
 9698POPC   C3B67173  23.474  16.548   7.050
 9698POPC   C4B67174  23.521  16.587   7.350
 9699POPC   NC367175   4.313  31.456   5.550
 9699POPC   PO467176   4.271  31.454   5.850
 9699POPC   GL167177   4.298  31.437   6.150
 9699POPC   GL267178   4.346  31.311   6.150
 9699POPC   C1A67179   4.355  31.506   6.450
 9699POPC   D2A67180   4.330  31.432   6.750
 9699POPC   C3A67181   4.278  31.431   7.050
 9699POPC   C4A67182   4.280  31.512   7.350
 9699POPC   C1B67183   4.371  31.199   6.450
 9699POPC   C2B67184   4.403  31.276   6.750
 9699POPC   C3B67185   4.373  31.187   7.050
 9699POPC   C4B67186   4.373  31.267   7.350
 9700POPC   NC367187  33.833  35.382   5.550
 9700POPC   PO467188  33.768  35.393   5.850
 9700POPC   GL167189  33.766  35.306   6.150
 9700POPC   GL267190  33.878  35.429   6.150
 9700POPC   C1A67191  33.790  35.352   6.450
 9700POPC   D2A67192  33.797  35.350   6.750
 9700POPC   C3A67193  33.826  35.340   7.050
 9700POPC   C4A67194  33.798  35.374   7.350
 9700POPC   C1B67195  33.949  35.528   6.450
 9700POPC   C2B67196  33.939  35.541   6.750
 9700POPC   C3B67197  33.953  35.503   7.050
 9700POPC   C4B67198  33.976  35.553   7.350
 9701POPC   NC367199  15.973  32.229   5.550
 9701POPC   PO467200  15.921  32.231   5.850
 9701POPC   GL167201  15.926  32.227   6.150
 9701POPC   GL267202  15.910  32.347   6.150
 9701POPC   C1A67203  15.973  32.205   6.450
 9701POPC   D2A67204  15.954  32.254   6.750
 9701POPC   C3A67205  15.961  32.217   7.050
 9701POPC   C4A67206  15.935  32.221   7.350
 9701POPC   C1B67207  15.930  32.522   6.450
 9701POPC   C2B67208  15.854  32.480   6.750
 9701POPC   C3B67209  15.887  32.528   7.050
 9701POPC   C4B67210  15.860  32.462   7.350
 9702POPC   NC367211  28.373  38.431   5.550
 9702POPC   PO467212  28.383  38.500   5.850
 9702POPC   GL167213  28.370  38.421   6.150
 9702POPC   GL267214  28.277  38.448   6.150
 9702POPC   C1A67215  28.405  38.505   6.450
 9702POPC   D2A67216  28.335  38.451   6.750
 9702POPC   C3A67217  28.337  38.433   7.050
 9702POPC   C4A67218  28.344  38.412   7.350
 9702POPC   C1B67219  28.113  38.504   6.450
 9702POPC   C2B67220  28.124  38.490   6.750
 9702POPC   C3B67221  28.094  38.454   7.050
 9702POPC   C4B67222  28.142  38.526   7.350
 9703POPC   NC367223   1.213  29.182   5.550
 9703POPC   PO467224   1.211  29.102   5.850
 9703POPC   GL167225   1.164  29.121   6.150
 9703POPC   GL267226   1.266  29.183   6.150
 9703POPC   C1A67227   1.169  29.099   6.450
 9703POPC   D2A67228   1.166  29.101   6.750
 9703POPC   C3A67229   1.235  29.107   7.050
 9703POPC   C4A67230   1.235  29.192   7.350
 9703POPC   C1B67231   1.389  29.310   6.450
 9703POPC   C2B67232   1.375  29.344   6.750
 9703POPC   C3B67233   1.348  29.314   7.050
 9703POPC   C4B67234   1.351  29.318   7.350
 9704POPC   NC367235  17.475  42.384   5.550
 9704POPC   PO467236  17.467  42.295   5.850
 9704POPC   GL167237  17.479  42.384   6.150
 9704POPC   GL267238  17.402  42.318   6.150
 9704POPC   C1A67239  17.465  42.369   6.450
 9704POPC   D2A67240  17.469  42.368   6.750
 9704POPC   C3A67241  17.508  42.355   7.050
 9704POPC   C4A67242  17.474  42.371   7.350
 9704POPC   C1B67243  17.233  42.199   6.450
 9704POPC   C2B67244  17.298  42.239   6.750
 9704POPC   C3B67245  17.241  42.183   7.050
 9704POPC   C4B67246  17.268  42.225   7.350
 9705POPC   NC367247  10.573  26.030   5.550
 9705POPC   PO467248  10.562  25.992   5.850
 9705POPC   GL167249  10.564  26.027   6.150
 9705POPC   GL267250  10.596  26.157   6.150
 9705POPC   C1A67251  10.485  26.014   6.450
 9705POPC   D2A67252  10.521  26.049   6.750
 9705POPC   C3A67253  10.543  26.076   7.050
 9705POPC   C4A67254  10.486  26.004   7.350
 9705POPC   C1B67255  10.697  26.228   6.450
 9705POPC   C2B67256  10.644  26.191   6.750
 9705POPC   C3B67257  10.733  26.227   7.050
 9705POPC   C4B67258  10.640  26.180   7.350
 9706POPC   NC367259  12.808  26.069   5.550
 9706POPC   PO467260  12.823  26.075   5.850
 9706POPC   GL167261  12.847  26.064   6.150
 9706POPC   GL267262  12.787  26.138   6.150
 9706POPC   C1A67263  12.802  26.009   6.450
 9706POPC   D2A67264  12.872  26.052   6.750
 9706POPC   C3A67265  12.885  26.009   7.050
 9706POPC   C4A67266  12.855  26.018   7.350
 9706POPC   C1B67267  12.830  26.296   6.450
 9706POPC   C2B67268  12.804  26.299   6.750
 9706POPC   C3B67269  12.790  26.304   7.050
 9706POPC   C4B67270  12.828  26.281   7.350
 9707POPC   NC367271  30.708  42.342   5.550
 9707POPC   PO467272  30.700  42.379   5.850
 9707POPC   GL167273  30.654  42.344   6.150
 9707POPC   GL267274  30.794  42.318   6.150
 9707POPC   C1A67275  30.649  42.301   6.450
 9707POPC   D2A67276  30.679  42.305   6.750
 9707POPC   C3A67277  30.701  42.363   7.050
 9707POPC   C4A67278  30.706  42.340   7.350
 9707POPC   C1B67279  30.886  42.185   6.450
 9707POPC   C2B67280  30.934  42.225   6.750
 9707POPC   C3B67281  30.929  42.240   7.050
 9707POPC   C4B67282  30.928  42.181   7.350
 9708POPC   NC367283   0.390  22.983   5.550
 9708POPC   PO467284   0.451  22.955   5.850
 9708POPC   GL167285   0.420  22.928   6.150
 9708POPC   GL267286   0.550  22.879   6.150
 9708POPC   C1A67287   0.437  22.929   6.450
 9708POPC   D2A67288   0.404  22.902   6.750
 9708POPC   C3A67289   0.427  22.946   7.050
 9708POPC   C4A67290   0.428  22.888   7.350
 9708POPC   C1B67291   0.659  22.908   6.450
 9708POPC   C2B67292   0.698  22.918   6.750
 9708POPC   C3B67293   0.646  22.943   7.050
 9708POPC   C4B67294   0.647  22.954   7.350
 9709POPC   NC367295  16.723  31.438   5.550
 9709POPC   PO467296  16.729  31.439   5.850
 9709POPC   GL167297  16.725  31.422   6.150
 9709POPC   GL267298  16.807  31.427   6.150
 9709POPC   C1A67299  16.755  31.511   6.450
 9709POPC   D2A67300  16.683  31.479   6.750
 9709POPC   C3A67301  16.756  31.429   7.050
 9709POPC   C4A67302  16.774  31.445   7.350
 9709POPC   C1B67303  16.976  31.424   6.450
 9709POPC   C2B67304  16.988  31.492   6.750
 9709POPC   C3B67305  16.956  31.428   7.050
 9709POPC   C4B67306  16.931  31.486   7.350
 9710POPC   NC367307  10.501  20.562   5.550
 9710POPC   PO467308  10.500  20.632   5.850
 9710POPC   GL167309  10.497  20.595   6.150
 9710POPC   GL267310  10.593  20.700   6.150
 9710POPC   C1A67311  10.521  20.642   6.450
 9710POPC   D2A67312  10.549  20.594   6.750
 9710POPC   C3A67313  10.483  20.646   7.050
 9710POPC   C4A67314  10.531  20.574   7.350
 9710POPC   C1B67315  10.696  20.738   6.450
 9710POPC   C2B67316  10.759  20.724   6.750
 9710POPC   C3B67317  10.764  20.786   7.050
 9710POPC   C4B67318  10.699  20.739   7.350
 9711POPC   NC367319  32.280  18.288   5.550
 9711POPC   PO467320  32.211  18.255   5.850
 9711POPC   GL167321  32.270  18.302   6.150
 9711POPC   GL267322  32.290  18.212   6.150
 9711POPC   C1A67323  32.241  18.245   6.450
 9711POPC   D2A67324  32.283  18.274   6.750
 9711POPC   C3A67325  32.214  18.267   7.050
 9711POPC   C4A67326  32.286  18.247   7.350
 9711POPC   C1B67327  32.359  18.053   6.450
 9711POPC   C2B67328  32.348  18.084   6.750
 9711POPC   C3B67329  32.388  18.032   7.050
 9711POPC   C4B67330  32.326  18.075   7.350
 9712POPC   NC367331  29.135  29.877   5.550
 9712POPC   PO467332  29.098  29.885   5.850
 9712POPC   GL167333  29.146  29.911   6.150
 9712POPC   GL267334  29.223  29.841   6.150
 9712POPC   C1A67335  29.132  29.938   6.450
 9712POPC   D2A67336  29.131  29.937   6.750
 9712POPC   C3A67337  29.103  29.913   7.050
 9712POPC   C4A67338  29.157  29.939   7.350
 9712POPC   C1B67339  29.224  29.700   6.450
 9712POPC   C2B67340  29.222  29.738   6.750
 9712POPC   C3B67341  29.268  29.673   7.050
 9712POPC   C4B67342  29.302  29.701   7.350
 9713POPC   NC367343  25.307   6.683   5.550
 9713POPC   PO467344  25.261   6.605   5.850
 9713POPC   GL167345  25.227   6.601   6.150
 9713POPC   GL267346  25.384   6.564   6.150
 9713POPC   C1A67347  25.261   6.635   6.450
 9713POPC   D2A67348  25.220   6.675   6.750
 9713POPC   C3A67349  25.266   6.599   7.050
 9713POPC   C4A67350  25.241   6.654   7.350
 9713POPC   C1B67351  25.451   6.475   6.450
 9713POPC   C2B67352  25.421   6.474   6.750
 9713POPC   C3B67353  25.381   6.467   7.050
 9713POPC   C4B67354  25.436   6.471   7.350
 9714POPC   NC367355   4.313  18.286   5.550
 9714POPC   PO467356   4.287  18.264   5.850
 9714POPC   GL167357   4.308  18.239   6.150
 9714POPC   GL267358   4.270  18.203   6.150
 9714POPC   C1A67359   4.338  18.327   6.450
 9714POPC   D2A67360   4.323  18.261   6.750
 9714POPC   C3A67361   4.293  18.236   7.050
 9714POPC   C4A67362   4.271  18.248   7.350
 9714POPC   C1B67363   4.222  18.023   6.450
 9714POPC   C2B67364   4.287  18.017   6.750
 9714POPC   C3B67365   4.285  18.059   7.050
 9714POPC   C4B67366   4.242  18.053   7.350
 9715POPC   NC367367   8.940   8.964   5.550
 9715POPC   PO467368   8.999   8.979   5.850
 9715POPC   GL167369   8.980   9.016   6.150
 9715POPC   GL267370   9.059   8.863   6.150
 9715POPC   C1A67371   8.994   8.969   6.450
 9715POPC   D2A67372   8.995   8.948   6.750
 9715POPC   C3A67373   8.983   8.932   7.050
 9715POPC   C4A67374   8.925   8.983   7.350
 9715POPC   C1B67375   9.120   8.731   6.450
 9715POPC   C2B67376   9.067   8.808   6.750
 9715POPC   C3B67377   9.066   8.756   7.050
 9715POPC   C4B67378   9.114   8.750   7.350
 9716POPC   NC367379  33.840   8.207   5.550
 9716POPC   PO467380  33.847   8.237   5.850
 9716POPC   GL167381  33.766   8.204   6.150
 9716POPC   GL267382  33.797   8.042   6.150
 9716POPC   C1A67383  33.809   8.243   6.450
 9716POPC   D2A67384  33.790   8.188   6.750
 9716POPC   C3A67385  33.831   8.197   7.050
 9716POPC   C4A67386  33.828   8.155   7.350
 9716POPC   C1B67387  33.778   7.962   6.450
 9716POPC   C2B67388  33.729   7.980   6.750
 9716POPC   C3B67389  33.732   7.917   7.050
 9716POPC   C4B67390  33.741   7.902   7.350
 9717POPC   NC367391  11.258  15.197   5.550
 9717POPC   PO467392  11.255  15.222   5.850
 9717POPC   GL167393  11.280  15.180   6.150
 9717POPC   GL267394  11.228  15.303   6.150
 9717POPC   C1A67395  11.298  15.215   6.450
 9717POPC   D2A67396  11.293  15.158   6.750
 9717POPC   C3A67397  11.311  15.226   7.050
 9717POPC   C4A67398  11.322  15.168   7.350
 9717POPC   C1B67399  11.191  15.390   6.450
 9717POPC   C2B67400  11.169  15.397   6.750
 9717POPC   C3B67401  11.166  15.342   7.050
 9717POPC   C4B67402  11.178  15.368   7.350
 9718POPC   NC367403  43.101  22.977   5.550
 9718POPC   PO467404  43.074  22.914   5.850
 9718POPC   GL167405  43.070  22.914   6.150
 9718POPC   GL267406  43.042  22.886   6.150
 9718POPC   C1A67407  43.139  22.918   6.450
 9718POPC   D2A67408  43.132  22.980   6.750
 9718POPC   C3A67409  43.141  22.955   7.050
 9718POPC   C4A67410  43.083  22.944   7.350
 9718POPC   C1B67411  42.909  22.780   6.450
 9718POPC   C2B67412  42.858  22.781   6.750
 9718POPC   C3B67413  42.864  22.829   7.050
 9718POPC   C4B67414  42.882  22.798   7.350
 9719POPC   NC367415   5.850   0.412   5.550
 9719POPC   PO467416   5.856   0.479   5.850
 9719POPC   GL167417   5.894   0.472   6.150
 9719POPC   GL267418   5.905   0.529   6.150
 9719POPC   C1A67419   5.834   0.457   6.450
 9719POPC   D2A67420   5.889   0.389   6.750
 9719POPC   C3A67421   5.897   0.408   7.050
 9719POPC   C4A67422   5.848   0.484   7.350
 9719POPC   C1B67423   5.889   0.639   6.450
 9719POPC   C2B67424   5.932   0.720   6.750
 9719POPC   C3B67425   5.929   0.711   7.050
 9719POPC   C4B67426   5.959   0.682   7.350
 9720POPC   NC367427  11.293  38.435   5.550
 9720POPC   PO467428  11.279  38.410   5.850
 9720POPC   GL167429  11.311  38.433   6.150
 9720POPC   GL267430  11.462  38.434   6.150
 9720POPC   C1A67431  11.275  38.476   6.450
 9720POPC   D2A67432  11.251  38.474   6.750
 9720POPC   C3A67433  11.297  38.421   7.050
 9720POPC   C4A67434  11.346  38.446   7.350
 9720POPC   C1B67435  11.529  38.482   6.450
 9720POPC   C2B67436  11.501  38.464   6.750
 9720POPC   C3B67437  11.563  38.497   7.050
 9720POPC   C4B67438  11.524  38.437   7.350
 9721POPC   NC367439  33.061  19.847   5.550
 9721POPC   PO467440  33.016  19.806   5.850
 9721POPC   GL167441  33.059  19.841   6.150
 9721POPC   GL267442  32.992  19.912   6.150
 9721POPC   C1A67443  32.998  19.818   6.450
 9721POPC   D2A67444  32.986  19.786   6.750
 9721POPC   C3A67445  32.990  19.854   7.050
 9721POPC   C4A67446  33.019  19.818   7.350
 9721POPC   C1B67447  33.004  20.046   6.450
 9721POPC   C2B67448  32.996  20.093   6.750
 9721POPC   C3B67449  32.940  20.107   7.050
 9721POPC   C4B67450  32.946  20.065   7.350
 9722POPC   NC367451  33.843  22.893   5.550
 9722POPC   PO467452  33.760  22.974   5.850
 9722POPC   GL167453  33.814  22.985   6.150
 9722POPC   GL267454  33.669  23.006   6.150
 9722POPC   C1A67455  33.791  22.919   6.450
 9722POPC   D2A67456  33.776  22.982   6.750
 9722POPC   C3A67457  33.818  22.926   7.050
 9722POPC   C4A67458  33.799  22.892   7.350
 9722POPC   C1B67459  33.588  23.016   6.450
 9722POPC   C2B67460  33.568  23.046   6.750
 9722POPC   C3B67461  33.595  23.077   7.050
 9722POPC   C4B67462  33.623  23.044   7.350
 9723POPC   NC367463  37.717  12.104   5.550
 9723POPC   PO467464  37.727  12.085   5.850
 9723POPC   GL167465  37.649  12.077   6.150
 9723POPC   GL267466  37.745  12.244   6.150
 9723POPC   C1A67467  37.660  12.074   6.450
 9723POPC   D2A67468  37.679  12.032   6.750
 9723POPC   C3A67469  37.667  12.043   7.050
 9723POPC   C4A67470  37.691  12.042   7.350
 9723POPC   C1B67471  37.712  12.339   6.450
 9723POPC   C2B67472  37.744  12.303   6.750
 9723POPC   C3B67473  37.753  12.320   7.050
 9723POPC   C4B67474  37.708  12.296   7.350
 9724POPC   NC367475   8.953   6.603   5.550
 9724POPC   PO467476   8.992   6.636   5.850
 9724POPC   GL167477   8.929   6.680   6.150
 9724POPC   GL267478   8.852   6.717   6.150
 9724POPC   C1A67479   9.013   6.682   6.450
 9724POPC   D2A67480   8.971   6.669   6.750
 9724POPC   C3A67481   9.020   6.640   7.050
 9724POPC   C4A67482   8.950   6.616   7.350
 9724POPC   C1B67483   8.805   6.807   6.450
 9724POPC   C2B67484   8.715   6.764   6.750
 9724POPC   C3B67485   8.730   6.746   7.050
 9724POPC   C4B67486   8.778   6.800   7.350
 9725POPC   NC367487  35.311  25.264   5.550
 9725POPC   PO467488  35.394  25.273   5.850
 9725POPC   GL167489  35.334  25.244   6.150
 9725POPC   GL267490  35.255  25.185   6.150
 9725POPC   C1A67491  35.398  25.308   6.450
 9725POPC   D2A67492  35.325  25.254   6.750
 9725POPC   C3A67493  35.394  25.247   7.050
 9725POPC   C4A67494  35.317  25.256   7.350
 9725POPC   C1B67495  35.132  25.067   6.450
 9725POPC   C2B67496  35.123  25.130   6.750
 9725POPC   C3B67497  35.155  25.133   7.050
 9725POPC   C4B67498  35.204  25.134   7.350
 9726POPC   NC367499  12.071  26.848   5.550
 9726POPC   PO467500  12.113  26.775   5.850
 9726POPC   GL167501  12.039  26.821   6.150
 9726POPC   GL267502  12.202  26.703   6.150
 9726POPC   C1A67503  12.116  26.856   6.450
 9726POPC   D2A67504  12.064  26.774   6.750
 9726POPC   C3A67505  12.048  26.845   7.050
 9726POPC   C4A67506  12.102  26.791   7.350
 9726POPC   C1B67507  12.240  26.711   6.450
 9726POPC   C2B67508  12.248  26.636   6.750
 9726POPC   C3B67509  12.318  26.618   7.050
 9726POPC   C4B67510  12.238  26.686   7.350
 9727POPC   NC367511  29.154  10.521   5.550
 9727POPC   PO467512  29.181  10.488   5.850
 9727POPC   GL167513  29.167  10.485   6.150
 9727POPC   GL267514  29.067  10.494   6.150
 9727POPC   C1A67515  29.102  10.486   6.450
 9727POPC   D2A67516  29.182  10.504   6.750
 9727POPC   C3A67517  29.134  10.563   7.050
 9727POPC   C4A67518  29.114  10.545   7.350
 9727POPC   C1B67519  28.847  10.477   6.450
 9727POPC   C2B67520  28.898  10.487   6.750
 9727POPC   C3B67521  28.903  10.482   7.050
 9727POPC   C4B67522  28.898  10.479   7.350
 9728POPC   NC367523  44.692  43.150   5.550
 9728POPC   PO467524  44.706  43.124   5.850
 9728POPC   GL167525  44.661  43.094   6.150
 9728POPC   GL267526  44.813  43.136   6.150
 9728POPC   C1A67527  44.639  43.119   6.450
 9728POPC   D2A67528  44.679  43.141   6.750
 9728POPC   C3A67529  44.621  43.069   7.050
 9728POPC   C4A67530  44.613  43.124   7.350
 9728POPC   C1B67531  44.897  43.104   6.450
 9728POPC   C2B67532  44.903  43.055   6.750
 9728POPC   C3B67533  44.873  43.046   7.050
 9728POPC   C4B67534  44.946  43.058   7.350
 9729POPC   NC367535   7.398  18.302   5.550
 9729POPC   PO467536   7.383  18.262   5.850
 9729POPC   GL167537   7.420  18.286   6.150
 9729POPC   GL267538   7.495  18.213   6.150
 9729POPC   C1A67539   7.453  18.248   6.450
 9729POPC   D2A67540   7.460  18.261   6.750
 9729POPC   C3A67541   7.432  18.327   7.050
 9729POPC   C4A67542   7.461  18.324   7.350
 9729POPC   C1B67543   7.625  18.136   6.450
 9729POPC   C2B67544   7.630  18.113   6.750
 9729POPC   C3B67545   7.611  18.110   7.050
 9729POPC   C4B67546   7.633  18.132   7.350
 9730POPC   NC367547   9.795  29.101   5.550
 9730POPC   PO467548   9.702  29.105   5.850
 9730POPC   GL167549   9.763  29.160   6.150
 9730POPC   GL267550   9.630  29.098   6.150
 9730POPC   C1A67551   9.732  29.109   6.450
 9730POPC   D2A67552   9.713  29.161   6.750
 9730POPC   C3A67553   9.771  29.100   7.050
 9730POPC   C4A67554   9.742  29.098   7.350
 9730POPC   C1B67555   9.588  28.998   6.450
 9730POPC   C2B67556   9.595  28.940   6.750
 9730POPC   C3B67557   9.593  28.974   7.050
 9730POPC   C4B67558   9.572  28.979   7.350
 9731POPC   NC367559  11.308   6.683   5.550
 9731POPC   PO467560  11.264   6.661   5.850
 9731POPC   GL167561  11.296   6.678   6.150
 9731POPC   GL267562  11.343   6.518   6.150
 9731POPC   C1A67563  11.336   6.629   6.450
 9731POPC   D2A67564  11.346   6.664   6.750
 9731POPC   C3A67565  11.311   6.688   7.050
 9731POPC   C4A67566  11.270   6.637   7.350
 9731POPC   C1B67567  11.437   6.454   6.450
 9731POPC   C2B67568  11.489   6.486   6.750
 9731POPC   C3B67569  11.468   6.423   7.050
 9731POPC   C4B67570  11.414   6.471   7.350
 9732POPC   NC367571  13.628  29.932   5.550
 9732POPC   PO467572  13.622  29.917   5.850
 9732POPC   GL167573  13.628  29.936   6.150
 9732POPC   GL267574  13.620  29.775   6.150
 9732POPC   C1A67575  13.610  29.883   6.450
 9732POPC   D2A67576  13.648  29.876   6.750
 9732POPC   C3A67577  13.606  29.946   7.050
 9732POPC   C4A67578  13.614  29.904   7.350
 9732POPC   C1B67579  13.622  29.652   6.450
 9732POPC   C2B67580  13.664  29.623   6.750
 9732POPC   C3B67581  13.642  29.708   7.050
 9732POPC   C4B67582  13.601  29.657   7.350
 9733POPC   NC367583  43.070   5.114   5.550
 9733POPC   PO467584  43.068   5.045   5.850
 9733POPC   GL167585  43.154   5.133   6.150
 9733POPC   GL267586  43.250   5.089   6.150
 9733POPC   C1A67587  43.089   5.121   6.450
 9733POPC   D2A67588  43.062   5.066   6.750
 9733POPC   C3A67589  43.108   5.133   7.050
 9733POPC   C4A67590  43.062   5.095   7.350
 9733POPC   C1B67591  43.380   5.114   6.450
 9733POPC   C2B67592  43.354   5.064   6.750
 9733POPC   C3B67593  43.388   5.044   7.050
 9733POPC   C4B67594  43.364   5.115   7.350
 9734POPC   NC367595  35.344  29.136   5.550
 9734POPC   PO467596  35.387  29.139   5.850
 9734POPC   GL167597  35.366  29.102   6.150
 9734POPC   GL267598  35.371  28.997   6.150
 9734POPC   C1A67599  35.381  29.145   6.450
 9734POPC   D2A67600  35.356  29.128   6.750
 9734POPC   C3A67601  35.344  29.097   7.050
 9734POPC   C4A67602  35.348  29.107   7.350
 9734POPC   C1B67603  35.344  28.928   6.450
 9734POPC   C2B67604  35.344  28.882   6.750
 9734POPC   C3B67605  35.386  28.855   7.050
 9734POPC   C4B67606  35.335  28.911   7.350
 9735POPC   NC367607  32.227  11.255   5.550
 9735POPC   PO467608  32.199  11.274   5.850
 9735POPC   GL167609  32.211  11.279   6.150
 9735POPC   GL267610  32.344  11.406   6.150
 9735POPC   C1A67611  32.220  11.321   6.450
 9735POPC   D2A67612  32.221  11.294   6.750
 9735POPC   C3A67613  32.226  11.349   7.050
 9735POPC   C4A67614  32.204  11.261   7.350
 9735POPC   C1B67615  32.438  11.446   6.450
 9735POPC   C2B67616  32.505  11.451   6.750
 9735POPC   C3B67617  32.485  11.385   7.050
 9735POPC   C4B67618  32.428  11.391   7.350
 9736POPC   NC367619  39.265  44.637   5.550
 9736POPC   PO467620  39.203  44.711   5.850
 9736POPC   GL167621  39.246  44.679   6.150
 9736POPC   GL267622  39.187  44.814   6.150
 9736POPC   C1A67623  39.257  44.695   6.450
 9736POPC   D2A67624  39.225  44.640   6.750
 9736POPC   C3A67625  39.205  44.640   7.050
 9736POPC   C4A67626  39.219  44.684   7.350
 9736POPC   C1B67627  39.184  44.881   6.450
 9736POPC   C2B67628  39.204  44.947   6.750
 9736POPC   C3B67629  39.161  44.896   7.050
 9736POPC   C4B67630  39.217  44.898   7.350
 9737POPC   NC367631   0.461  20.608   5.550
 9737POPC   PO467632   0.426  20.584   5.850
 9737POPC   GL167633   0.392  20.642   6.150
 9737POPC   GL267634   0.594  20.611   6.150
 9737POPC   C1A67635   0.422  20.587   6.450
 9737POPC   D2A67636   0.399  20.642   6.750
 9737POPC   C3A67637   0.426  20.595   7.050
 9737POPC   C4A67638   0.456  20.575   7.350
 9737POPC   C1B67639   0.694  20.578   6.450
 9737POPC   C2B67640   0.704  20.590   6.750
 9737POPC   C3B67641   0.677  20.547   7.050
 9737POPC   C4B67642   0.725  20.601   7.350
 9738POPC   NC367643  39.192  35.306   5.550
 9738POPC   PO467644  39.199  35.342   5.850
 9738POPC   GL167645  39.240  35.311   6.150
 9738POPC   GL267646  39.273  35.421   6.150
 9738POPC   C1A67647  39.240  35.359   6.450
 9738POPC   D2A67648  39.207  35.375   6.750
 9738POPC   C3A67649  39.206  35.391   7.050
 9738POPC   C4A67650  39.243  35.355   7.350
 9738POPC   C1B67651  39.367  35.593   6.450
 9738POPC   C2B67652  39.388  35.581   6.750
 9738POPC   C3B67653  39.388  35.568   7.050
 9738POPC   C4B67654  39.405  35.581   7.350
 9739POPC   NC367655   9.776  30.734   5.550
 9739POPC   PO467656   9.784  30.698   5.850
 9739POPC   GL167657   9.727  30.700   6.150
 9739POPC   GL267658   9.865  30.640   6.150
 9739POPC   C1A67659   9.740  30.710   6.450
 9739POPC   D2A67660   9.762  30.728   6.750
 9739POPC   C3A67661   9.781  30.673   7.050
 9739POPC   C4A67662   9.758  30.654   7.350
 9739POPC   C1B67663   9.967  30.592   6.450
 9739POPC   C2B67664  10.010  30.608   6.750
 9739POPC   C3B67665   9.997  30.606   7.050
 9739POPC   C4B67666   9.931  30.569   7.350
 9740POPC   NC367667   9.711  21.371   5.550
 9740POPC   PO467668   9.754  21.410   5.850
 9740POPC   GL167669   9.757  21.394   6.150
 9740POPC   GL267670   9.598  21.456   6.150
 9740POPC   C1A67671   9.754  21.435   6.450
 9740POPC   D2A67672   9.796  21.337   6.750
 9740POPC   C3A67673   9.700  21.384   7.050
 9740POPC   C4A67674   9.788  21.359   7.350
 9740POPC   C1B67675   9.560  21.458   6.450
 9740POPC   C2B67676   9.537  21.458   6.750
 9740POPC   C3B67677   9.562  21.518   7.050
 9740POPC   C4B67678   9.495  21.486   7.350
 9741POPC   NC367679  24.454   3.527   5.550
 9741POPC   PO467680  24.537   3.515   5.850
 9741POPC   GL167681  24.479   3.516   6.150
 9741POPC   GL267682  24.472   3.679   6.150
 9741POPC   C1A67683  24.512   3.519   6.450
 9741POPC   D2A67684  24.502   3.526   6.750
 9741POPC   C3A67685  24.523   3.519   7.050
 9741POPC   C4A67686  24.525   3.566   7.350
 9741POPC   C1B67687  24.514   3.772   6.450
 9741POPC   C2B67688  24.513   3.775   6.750
 9741POPC   C3B67689  24.530   3.801   7.050
 9741POPC   C4B67690  24.482   3.768   7.350
 9742POPC   NC367691  15.931  44.631   5.550
 9742POPC   PO467692  15.935  44.662   5.850
 9742POPC   GL167693  15.975  44.696   6.150
 9742POPC   GL267694  15.843  44.713   6.150
 9742POPC   C1A67695  15.944  44.644   6.450
 9742POPC   D2A67696  15.940  44.670   6.750
 9742POPC   C3A67697  15.906  44.704   7.050
 9742POPC   C4A67698  15.983  44.656   7.350
 9742POPC   C1B67699  15.724  44.780   6.450
 9742POPC   C2B67700  15.759  44.757   6.750
 9742POPC   C3B67701  15.671  44.768   7.050
 9742POPC   C4B67702  15.745  44.773   7.350
 9743POPC   NC367703  23.682   3.517   5.550
 9743POPC   PO467704  23.671   3.584   5.850
 9743POPC   GL167705  23.730   3.561   6.150
 9743POPC   GL267706  23.793   3.582   6.150
 9743POPC   C1A67707  23.758   3.583   6.450
 9743POPC   D2A67708  23.719   3.532   6.750
 9743POPC   C3A67709  23.758   3.513   7.050
 9743POPC   C4A67710  23.675   3.587   7.350
 9743POPC   C1B67711  23.941   3.635   6.450
 9743POPC   C2B67712  23.949   3.610   6.750
 9743POPC   C3B67713  23.975   3.618   7.050
 9743POPC   C4B67714  24.005   3.568   7.350
 9744POPC   NC367715  28.390  14.440   5.550
 9744POPC   PO467716  28.386  14.369   5.850
 9744POPC   GL167717  28.362  14.398   6.150
 9744POPC   GL267718  28.486  14.386   6.150
 9744POPC   C1A67719  28.322  14.412   6.450
 9744POPC   D2A67720  28.332  14.432   6.750
 9744POPC   C3A67721  28.351  14.410   7.050
 9744POPC   C4A67722  28.400  14.382   7.350
 9744POPC   C1B67723  28.580  14.366   6.450
 9744POPC   C2B67724  28.653  14.417   6.750
 9744POPC   C3B67725  28.637  14.377   7.050
 9744POPC   C4B67726  28.648  14.379   7.350
 9745POPC   NC367727  23.708  26.837   5.550
 9745POPC   PO467728  23.676  26.866   5.850
 9745POPC   GL167729  23.748  26.853   6.150
 9745POPC   GL267730  23.607  26.870   6.150
 9745POPC   C1A67731  23.728  26.811   6.450
 9745POPC   D2A67732  23.682  26.791   6.750
 9745POPC   C3A67733  23.691  26.857   7.050
 9745POPC   C4A67734  23.736  26.816   7.350
 9745POPC   C1B67735  23.537  26.952   6.450
 9745POPC   C2B67736  23.516  26.927   6.750
 9745POPC   C3B67737  23.481  26.927   7.050
 9745POPC   C4B67738  23.547  26.941   7.350
 9746POPC   NC367739  30.704  21.390   5.550
 9746POPC   PO467740  30.745  21.433   5.850
 9746POPC   GL167741  30.682  21.342   6.150
 9746POPC   GL267742  30.783  21.344   6.150
 9746POPC   C1A67743  30.728  21.381   6.450
 9746POPC   D2A67744  30.662  21.418   6.750
 9746POPC   C3A67745  30.656  21.403   7.050
 9746POPC   C4A67746  30.698  21.384   7.350
 9746POPC   C1B67747  30.879  21.237   6.450
 9746POPC   C2B67748  30.930  21.285   6.750
 9746POPC   C3B67749  30.925  21.318   7.050
 9746POPC   C4B67750  30.935  21.291   7.350
 9747POPC   NC367751   7.388   8.211   5.550
 9747POPC   PO467752   7.401   8.173   5.850
 9747POPC   GL167753   7.375   8.166   6.150
 9747POPC   GL267754   7.265   8.134   6.150
 9747POPC   C1A67755   7.451   8.183   6.450
 9747POPC   D2A67756   7.384   8.236   6.750
 9747POPC   C3A67757   7.371   8.209   7.050
 9747POPC   C4A67758   7.376   8.236   7.350
 9747POPC   C1B67759   7.242   8.041   6.450
 9747POPC   C2B67760   7.172   8.089   6.750
 9747POPC   C3B67761   7.239   8.103   7.050
 9747POPC   C4B67762   7.172   8.050   7.350
 9748POPC   NC367763  25.279  39.976   5.550
 9748POPC   PO467764  25.289  39.981   5.850
 9748POPC   GL167765  25.275  40.043   6.150
 9748POPC   GL267766  25.140  39.880   6.150
 9748POPC   C1A67767  25.292  40.054   6.450
 9748POPC   D2A67768  25.266  40.010   6.750
 9748POPC   C3A67769  25.290  39.990   7.050
 9748POPC   C4A67770  25.309  39.973   7.350
 9748POPC   C1B67771  25.066  39.838   6.450
 9748POPC   C2B67772  25.085  39.809   6.750
 9748POPC   C3B67773  25.066  39.874   7.050
 9748POPC   C4B67774  25.058  39.843   7.350
 9749POPC   NC367775  16.692  30.686   5.550
 9749POPC   PO467776  16.740  30.658   5.850
 9749POPC   GL167777  16.707  30.722   6.150
 9749POPC   GL267778  16.732  30.774   6.150
 9749POPC   C1A67779  16.712  30.716   6.450
 9749POPC   D2A67780  16.687  30.740   6.750
 9749POPC   C3A67781  16.721  30.649   7.050
 9749POPC   C4A67782  16.730  30.647   7.350
 9749POPC   C1B67783  16.778  30.953   6.450
 9749POPC   C2B67784  16.748  30.935   6.750
 9749POPC   C3B67785  16.776  30.909   7.050
 9749POPC   C4B67786  16.717  30.979   7.350
 9750POPC   NC367787  24.446  40.046   5.550
 9750POPC   PO467788  24.477  40.052   5.850
 9750POPC   GL167789  24.468  39.964   6.150
 9750POPC   GL267790  24.618  40.017   6.150
 9750POPC   C1A67791  24.454  40.025   6.450
 9750POPC   D2A67792  24.475  40.007   6.750
 9750POPC   C3A67793  24.526  40.001   7.050
 9750POPC   C4A67794  24.452  39.962   7.350
 9750POPC   C1B67795  24.692  39.971   6.450
 9750POPC   C2B67796  24.764  39.976   6.750
 9750POPC   C3B67797  24.752  39.966   7.050
 9750POPC   C4B67798  24.753  39.983   7.350
 9751POPC   NC367799  12.841   8.970   5.550
 9751POPC   PO467800  12.842   8.990   5.850
 9751POPC   GL167801  12.828   8.989   6.150
 9751POPC   GL267802  12.970   9.076   6.150
 9751POPC   C1A67803  12.845   8.964   6.450
 9751POPC   D2A67804  12.849   8.989   6.750
 9751POPC   C3A67805  12.868   8.950   7.050
 9751POPC   C4A67806  12.808   8.982   7.350
 9751POPC   C1B67807  12.964   9.140   6.450
 9751POPC   C2B67808  12.994   9.202   6.750
 9751POPC   C3B67809  13.045   9.142   7.050
 9751POPC   C4B67810  13.015   9.171   7.350
 9752POPC   NC367811  32.258  17.457   5.550
 9752POPC   PO467812  32.271  17.464   5.850
 9752POPC   GL167813  32.247  17.483   6.150
 9752POPC   GL267814  32.187  17.572   6.150
 9752POPC   C1A67815  32.285  17.532   6.450
 9752POPC   D2A67816  32.222  17.476   6.750
 9752POPC   C3A67817  32.219  17.539   7.050
 9752POPC   C4A67818  32.235  17.544   7.350
 9752POPC   C1B67819  32.043  17.622   6.450
 9752POPC   C2B67820  32.048  17.591   6.750
 9752POPC   C3B67821  32.045  17.620   7.050
 9752POPC   C4B67822  32.052  17.681   7.350
 9753POPC   NC367823  33.050  39.229   5.550
 9753POPC   PO467824  33.016  39.193   5.850
 9753POPC   GL167825  33.013  39.253   6.150
 9753POPC   GL267826  33.167  39.223   6.150
 9753POPC   C1A67827  33.069  39.243   6.450
 9753POPC   D2A67828  32.975  39.235   6.750
 9753POPC   C3A67829  33.048  39.184   7.050
 9753POPC   C4A67830  33.013  39.204   7.350
 9753POPC   C1B67831  33.284  39.235   6.450
 9753POPC   C2B67832  33.259  39.279   6.750
 9753POPC   C3B67833  33.259  39.212   7.050
 9753POPC   C4B67834  33.228  39.196   7.350
 9754POPC   NC367835  36.932  22.962   5.550
 9754POPC   PO467836  36.953  22.901   5.850
 9754POPC   GL167837  36.940  22.897   6.150
 9754POPC   GL267838  36.871  23.051   6.150
 9754POPC   C1A67839  36.941  22.965   6.450
 9754POPC   D2A67840  36.891  22.959   6.750
 9754POPC   C3A67841  36.929  22.955   7.050
 9754POPC   C4A67842  36.945  22.969   7.350
 9754POPC   C1B67843  36.892  23.170   6.450
 9754POPC   C2B67844  36.906  23.201   6.750
 9754POPC   C3B67845  36.874  23.177   7.050
 9754POPC   C4B67846  36.893  23.161   7.350
 9755POPC   NC367847  23.692  27.615   5.550
 9755POPC   PO467848  23.744  27.631   5.850
 9755POPC   GL167849  23.682  27.570   6.150
 9755POPC   GL267850  23.682  27.709   6.150
 9755POPC   C1A67851  23.744  27.636   6.450
 9755POPC   D2A67852  23.703  27.547   6.750
 9755POPC   C3A67853  23.674  27.602   7.050
 9755POPC   C4A67854  23.761  27.640   7.350
 9755POPC   C1B67855  23.577  27.839   6.450
 9755POPC   C2B67856  23.599  27.841   6.750
 9755POPC   C3B67857  23.623  27.801   7.050
 9755POPC   C4B67858  23.594  27.815   7.350
 9756POPC   NC367859  39.262  16.688   5.550
 9756POPC   PO467860  39.253  16.768   5.850
 9756POPC   GL167861  39.252  16.689   6.150
 9756POPC   GL267862  39.343  16.669   6.150
 9756POPC   C1A67863  39.245  16.711   6.450
 9756POPC   D2A67864  39.183  16.736   6.750
 9756POPC   C3A67865  39.260  16.759   7.050
 9756POPC   C4A67866  39.275  16.740   7.350
 9756POPC   C1B67867  39.468  16.593   6.450
 9756POPC   C2B67868  39.447  16.586   6.750
 9756POPC   C3B67869  39.403  16.562   7.050
 9756POPC   C4B67870  39.445  16.562   7.350
 9757POPC   NC367871  36.144  15.931   5.550
 9757POPC   PO467872  36.104  15.930   5.850
 9757POPC   GL167873  36.115  15.953   6.150
 9757POPC   GL267874  36.242  15.950   6.150
 9757POPC   C1A67875  36.103  15.971   6.450
 9757POPC   D2A67876  36.167  15.910   6.750
 9757POPC   C3A67877  36.146  15.929   7.050
 9757POPC   C4A67878  36.174  15.960   7.350
 9757POPC   C1B67879  36.377  15.979   6.450
 9757POPC   C2B67880  36.389  15.980   6.750
 9757POPC   C3B67881  36.405  15.975   7.050
 9757POPC   C4B67882  36.423  15.947   7.350
 9758POPC   NC367883  44.702   8.219   5.550
 9758POPC   PO467884  44.689   8.156   5.850
 9758POPC   GL167885  44.626   8.222   6.150
 9758POPC   GL267886  44.601   8.122   6.150
 9758POPC   C1A67887  44.632   8.175   6.450
 9758POPC   D2A67888  44.656   8.182   6.750
 9758POPC   C3A67889  44.617   8.167   7.050
 9758POPC   C4A67890  44.655   8.173   7.350
 9758POPC   C1B67891  44.543   7.982   6.450
 9758POPC   C2B67892  44.510   7.959   6.750
 9758POPC   C3B67893  44.548   8.005   7.050
 9758POPC   C4B67894  44.492   8.026   7.350
 9759POPC   NC367895   1.258  18.301   5.550
 9759POPC   PO467896   1.217  18.270   5.850
 9759POPC   GL167897   1.200  18.247   6.150
 9759POPC   GL267898   1.242  18.397   6.150
 9759POPC   C1A67899   1.167  18.250   6.450
 9759POPC   D2A67900   1.208  18.282   6.750
 9759POPC   C3A67901   1.260  18.279   7.050
 9759POPC   C4A67902   1.193  18.304   7.350
 9759POPC   C1B67903   1.359  18.464   6.450
 9759POPC   C2B67904   1.352  18.518   6.750
 9759POPC   C3B67905   1.358  18.540   7.050
 9759POPC   C4B67906   1.325  18.505   7.350
 9760POPC   NC367907   0.399  39.216   5.550
 9760POPC   PO467908   0.469  39.224   5.850
 9760POPC   GL167909   0.442  39.215   6.150
 9760POPC   GL267910   0.421  39.112   6.150
 9760POPC   C1A67911   0.450  39.213   6.450
 9760POPC   D2A67912   0.457  39.190   6.750
 9760POPC   C3A67913   0.433  39.229   7.050
 9760POPC   C4A67914   0.404  39.232   7.350
 9760POPC   C1B67915   0.436  39.008   6.450
 9760POPC   C2B67916   0.434  39.030   6.750
 9760POPC   C3B67917   0.429  38.956   7.050
 9760POPC   C4B67918   0.473  38.942   7.350
 9761POPC   NC367919  43.848  22.959   5.550
 9761POPC   PO467920  43.856  22.911   5.850
 9761POPC   GL167921  43.867  22.898   6.150
 9761POPC   GL267922  44.007  22.807   6.150
 9761POPC   C1A67923  43.888  22.905   6.450
 9761POPC   D2A67924  43.861  22.898   6.750
 9761POPC   C3A67925  43.880  22.972   7.050
 9761POPC   C4A67926  43.871  22.931   7.350
 9761POPC   C1B67927  44.065  22.751   6.450
 9761POPC   C2B67928  44.055  22.737   6.750
 9761POPC   C3B67929  44.042  22.769   7.050
 9761POPC   C4B67930  44.071  22.720   7.350
 9762POPC   NC367931  40.809  34.585   5.550
 9762POPC   PO467932  40.778  34.587   5.850
 9762POPC   GL167933  40.784  34.571   6.150
 9762POPC   GL267934  40.841  34.641   6.150
 9762POPC   C1A67935  40.826  34.544   6.450
 9762POPC   D2A67936  40.810  34.587   6.750
 9762POPC   C3A67937  40.793  34.531   7.050
 9762POPC   C4A67938  40.755  34.562   7.350
 9762POPC   C1B67939  40.991  34.764   6.450
 9762POPC   C2B67940  40.936  34.742   6.750
 9762POPC   C3B67941  40.956  34.767   7.050
 9762POPC   C4B67942  40.927  34.736   7.350
 9763POPC   NC367943  11.339  41.597   5.550
 9763POPC   PO467944  11.340  41.600   5.850
 9763POPC   GL167945  11.256  41.606   6.150
 9763POPC   GL267946  11.419  41.540   6.150
 9763POPC   C1A67947  11.313  41.590   6.450
 9763POPC   D2A67948  11.312  41.546   6.750
 9763POPC   C3A67949  11.318  41.534   7.050
 9763POPC   C4A67950  11.308  41.596   7.350
 9763POPC   C1B67951  11.584  41.559   6.450
 9763POPC   C2B67952  11.570  41.557   6.750
 9763POPC   C3B67953  11.524  41.539   7.050
 9763POPC   C4B67954  11.528  41.552   7.350
 9764POPC   NC367955  35.335  35.347   5.550
 9764POPC   PO467956  35.335  35.324   5.850
 9764POPC   GL167957  35.367  35.389   6.150
 9764POPC   GL267958  35.341  35.257   6.150
 9764POPC   C1A67959  35.305  35.348   6.450
 9764POPC   D2A67960  35.364  35.325   6.750
 9764POPC   C3A67961  35.362  35.357   7.050
 9764POPC   C4A67962  35.369  35.366   7.350
 9764POPC   C1B67963  35.343  35.078   6.450
 9764POPC   C2B67964  35.347  35.150   6.750
 9764POPC   C3B67965  35.378  35.126   7.050
 9764POPC   C4B67966  35.303  35.057   7.350
 9765POPC   NC367967  24.531  15.147   5.550
 9765POPC   PO467968  24.487  15.174   5.850
 9765POPC   GL167969  24.443  15.185   6.150
 9765POPC   GL267970  24.541  15.237   6.150
 9765POPC   C1A67971  24.506  15.223   6.450
 9765POPC   D2A67972  24.513  15.180   6.750
 9765POPC   C3A67973  24.458  15.195   7.050
 9765POPC   C4A67974  24.509  15.139   7.350
 9765POPC   C1B67975  24.614  15.337   6.450
 9765POPC   C2B67976  24.588  15.404   6.750
 9765POPC   C3B67977  24.593  15.390   7.050
 9765POPC   C4B67978  24.648  15.377   7.350
 9766POPC   NC367979  10.504  41.534   5.550
 9766POPC   PO467980  10.556  41.536   5.850
 9766POPC   GL167981  10.506  41.530   6.150
 9766POPC   GL267982  10.460  41.623   6.150
 9766POPC   C1A67983  10.506  41.554   6.450
 9766POPC   D2A67984  10.495  41.530   6.750
 9766POPC   C3A67985  10.529  41.549   7.050
 9766POPC   C4A67986  10.547  41.522   7.350
 9766POPC   C1B67987  10.356  41.662   6.450
 9766POPC   C2B67988  10.336  41.725   6.750
 9766POPC   C3B67989  10.331  41.667   7.050
 9766POPC   C4B67990  10.335  41.725   7.350
 9767POPC   NC367991  40.013  43.145   5.550
 9767POPC   PO467992  39.978  43.097   5.850
 9767POPC   GL167993  40.037  43.106   6.150
 9767POPC   GL267994  39.918  43.187   6.150
 9767POPC   C1A67995  40.039  43.129   6.450
 9767POPC   D2A67996  40.034  43.109   6.750
 9767POPC   C3A67997  40.014  43.160   7.050
 9767POPC   C4A67998  39.986  43.158   7.350
 9767POPC   C1B67999  39.917  43.351   6.450
 9767POPC   C2B68000  39.884  43.299   6.750
 9767POPC   C3B68001  39.872  43.321   7.050
 9767POPC   C4B68002  39.873  43.338   7.350
 9768POPC   NC368003  12.845  21.386   5.550
 9768POPC   PO468004  12.859  21.350   5.850
 9768POPC   GL168005  12.889  21.369   6.150
 9768POPC   GL268006  12.978  21.393   6.150
 9768POPC   C1A68007  12.852  21.435   6.450
 9768POPC   D2A68008  12.833  21.386   6.750
 9768POPC   C3A68009  12.824  21.364   7.050
 9768POPC   C4A68010  12.805  21.367   7.350
 9768POPC   C1B68011  13.133  21.453   6.450
 9768POPC   C2B68012  13.053  21.434   6.750
 9768POPC   C3B68013  13.133  21.471   7.050
 9768POPC   C4B68014  13.140  21.436   7.350
 9769POPC   NC368015  11.321  10.478   5.550
 9769POPC   PO468016  11.331  10.533   5.850
 9769POPC   GL168017  11.270  10.499   6.150
 9769POPC   GL268018  11.356  10.614   6.150
 9769POPC   C1A68019  11.281  10.564   6.450
 9769POPC   D2A68020  11.305  10.558   6.750
 9769POPC   C3A68021  11.260  10.489   7.050
 9769POPC   C4A68022  11.275  10.483   7.350
 9769POPC   C1B68023  11.504  10.685   6.450
 9769POPC   C2B68024  11.463  10.726   6.750
 9769POPC   C3B68025  11.496  10.738   7.050
 9769POPC   C4B68026  11.492  10.695   7.350
 9770POPC   NC368027   9.701   5.888   5.550
 9770POPC   PO468028   9.770   5.862   5.850
 9770POPC   GL168029   9.722   5.905   6.150
 9770POPC   GL268030   9.810   5.715   6.150
 9770POPC   C1A68031   9.752   5.872   6.450
 9770POPC   D2A68032   9.746   5.888   6.750
 9770POPC   C3A68033   9.721   5.875   7.050
 9770POPC   C4A68034   9.725   5.843   7.350
 9770POPC   C1B68035   9.873   5.638   6.450
 9770POPC   C2B68036   9.789   5.629   6.750
 9770POPC   C3B68037   9.799   5.635   7.050
 9770POPC   C4B68038   9.856   5.660   7.350
 9771POPC   NC368039  14.380  33.847   5.550
 9771POPC   PO468040  14.382  33.758   5.850
 9771POPC   GL168041  14.371  33.834   6.150
 9771POPC   GL268042  14.497  33.806   6.150
 9771POPC   C1A68043  14.363  33.756   6.450
 9771POPC   D2A68044  14.438  33.752   6.750
 9771POPC   C3A68045  14.437  33.839   7.050
 9771POPC   C4A68046  14.355  33.789   7.350
 9771POPC   C1B68047  14.684  33.705   6.450
 9771POPC   C2B68048  14.655  33.766   6.750
 9771POPC   C3B68049  14.653  33.693   7.050
 9771POPC   C4B68050  14.647  33.730   7.350
 9772POPC   NC368051  37.696   5.114   5.550
 9772POPC   PO468052  37.665   5.126   5.850
 9772POPC   GL168053  37.656   5.075   6.150
 9772POPC   GL268054  37.747   5.182   6.150
 9772POPC   C1A68055  37.723   5.070   6.450
 9772POPC   D2A68056  37.651   5.057   6.750
 9772POPC   C3A68057  37.680   5.142   7.050
 9772POPC   C4A68058  37.701   5.051   7.350
 9772POPC   C1B68059  37.889   5.214   6.450
 9772POPC   C2B68060  37.932   5.220   6.750
 9772POPC   C3B68061  37.866   5.233   7.050
 9772POPC   C4B68062  37.895   5.175   7.350
 9773POPC   NC368063  12.116  44.678   5.550
 9773POPC   PO468064  12.094  44.681   5.850
 9773POPC   GL168065  12.048  44.692   6.150
 9773POPC   GL268066  12.226  44.687   6.150
 9773POPC   C1A68067  12.028  44.691   6.450
 9773POPC   D2A68068  12.072  44.706   6.750
 9773POPC   C3A68069  12.048  44.645   7.050
 9773POPC   C4A68070  12.123  44.697   7.350
 9773POPC   C1B68071  12.353  44.731   6.450
 9773POPC   C2B68072  12.343  44.695   6.750
 9773POPC   C3B68073  12.338  44.651   7.050
 9773POPC   C4B68074  12.329  44.733   7.350
 9774POPC   NC368075  35.365  24.450   5.550
 9774POPC   PO468076  35.350  24.501   5.850
 9774POPC   GL168077  35.359  24.529   6.150
 9774POPC   GL268078  35.397  24.574   6.150
 9774POPC   C1A68079  35.376  24.524   6.450
 9774POPC   D2A68080  35.308  24.453   6.750
 9774POPC   C3A68081  35.350  24.512   7.050
 9774POPC   C4A68082  35.306  24.488   7.350
 9774POPC   C1B68083  35.579  24.704   6.450
 9774POPC   C2B68084  35.563  24.635   6.750
 9774POPC   C3B68085  35.486  24.623   7.050
 9774POPC   C4B68086  35.496  24.631   7.350
 9775POPC   NC368087  37.698   7.408   5.550
 9775POPC   PO468088  37.645   7.410   5.850
 9775POPC   GL168089  37.669   7.470   6.150
 9775POPC   GL268090  37.640   7.519   6.150
 9775POPC   C1A68091  37.721   7.427   6.450
 9775POPC   D2A68092  37.684   7.390   6.750
 9775POPC   C3A68093  37.681   7.390   7.050
 9775POPC   C4A68094  37.724   7.452   7.350
 9775POPC   C1B68095  37.502   7.623   6.450
 9775POPC   C2B68096  37.539   7.645   6.750
 9775POPC   C3B68097  37.541   7.672   7.050
 9775POPC   C4B68098  37.500   7.587   7.350
 9776POPC   NC368099  41.527  34.601   5.550
 9776POPC   PO468100  41.525  34.545   5.850
 9776POPC   GL168101  41.531  34.537   6.150
 9776POPC   GL268102  41.543  34.403   6.150
 9776POPC   C1A68103  41.545  34.558   6.450
 9776POPC   D2A68104  41.563  34.573   6.750
 9776POPC   C3A68105  41.575  34.557   7.050
 9776POPC   C4A68106  41.531  34.580   7.350
 9776POPC   C1B68107  41.507  34.290   6.450
 9776POPC   C2B68108  41.488  34.290   6.750
 9776POPC   C3B68109  41.568  34.328   7.050
 9776POPC   C4B68110  41.569  34.370   7.350
 9777POPC   NC368111   8.240  41.546   5.550
 9777POPC   PO468112   8.191  41.540   5.850
 9777POPC   GL168113   8.170  41.552   6.150
 9777POPC   GL268114   8.291  41.686   6.150
 9777POPC   C1A68115   8.177  41.558   6.450
 9777POPC   D2A68116   8.158  41.574   6.750
 9777POPC   C3A68117   8.155  41.589   7.050
 9777POPC   C4A68118   8.243  41.517   7.350
 9777POPC   C1B68119   8.354  41.731   6.450
 9777POPC   C2B68120   8.342  41.729   6.750
 9777POPC   C3B68121   8.307  41.734   7.050
 9777POPC   C4B68122   8.370  41.817   7.350
 9778POPC   NC368123   0.405  26.833   5.550
 9778POPC   PO468124   0.411  26.768   5.850
 9778POPC   GL168125   0.481  26.811   6.150
 9778POPC   GL268126   0.418  26.740   6.150
 9778POPC   C1A68127   0.397  26.866   6.450
 9778POPC   D2A68128   0.422  26.833   6.750
 9778POPC   C3A68129   0.392  26.771   7.050
 9778POPC   C4A68130   0.404  26.770   7.350
 9778POPC   C1B68131   0.330  26.606   6.450
 9778POPC   C2B68132   0.341  26.637   6.750
 9778POPC   C3B68133   0.280  26.566   7.050
 9778POPC   C4B68134   0.303  26.612   7.350
 9779POPC   NC368135  37.646  38.472   5.550
 9779POPC   PO468136  37.688  38.504   5.850
 9779POPC   GL168137  37.691  38.416   6.150
 9779POPC   GL268138  37.593  38.578   6.150
 9779POPC   C1A68139  37.665  38.478   6.450
 9779POPC   D2A68140  37.690  38.414   6.750
 9779POPC   C3A68141  37.695  38.489   7.050
 9779POPC   C4A68142  37.725  38.460   7.350
 9779POPC   C1B68143  37.551  38.611   6.450
 9779POPC   C2B68144  37.510  38.624   6.750
 9779POPC   C3B68145  37.574  38.611   7.050
 9779POPC   C4B68146  37.489  38.646   7.350
 9780POPC   NC368147  37.714  30.703   5.550
 9780POPC   PO468148  37.648  30.652   5.850
 9780POPC   GL168149  37.688  30.704   6.150
 9780POPC   GL268150  37.774  30.674   6.150
 9780POPC   C1A68151  37.673  30.718   6.450
 9780POPC   D2A68152  37.644  30.653   6.750
 9780POPC   C3A68153  37.637  30.679   7.050
 9780POPC   C4A68154  37.647  30.672   7.350
 9780POPC   C1B68155  37.958  30.726   6.450
 9780POPC   C2B68156  37.906  30.747   6.750
 9780POPC   C3B68157  37.964  30.663   7.050
 9780POPC   C4B68158  37.942  30.709   7.350
 9781POPC   NC368159  26.030  35.370   5.550
 9781POPC   PO468160  26.051  35.367   5.850
 9781POPC   GL168161  26.048  35.381   6.150
 9781POPC   GL268162  26.123  35.253   6.150
 9781POPC   C1A68163  26.081  35.399   6.450
 9781POPC   D2A68164  26.078  35.320   6.750
 9781POPC   C3A68165  26.002  35.364   7.050
 9781POPC   C4A68166  26.064  35.333   7.350
 9781POPC   C1B68167  26.191  35.079   6.450
 9781POPC   C2B68168  26.114  35.132   6.750
 9781POPC   C3B68169  26.164  35.110   7.050
 9781POPC   C4B68170  26.159  35.085   7.350
 9782POPC   NC368171  22.979  29.904   5.550
 9782POPC   PO468172  22.897  29.909   5.850
 9782POPC   GL168173  22.912  29.919   6.150
 9782POPC   GL268174  22.853  29.859   6.150
 9782POPC   C1A68175  22.959  29.933   6.450
 9782POPC   D2A68176  22.905  29.938   6.750
 9782POPC   C3A68177  22.919  29.882   7.050
 9782POPC   C4A68178  22.969  29.885   7.350
 9782POPC   C1B68179  22.683  29.815   6.450
 9782POPC   C2B68180  22.676  29.860   6.750
 9782POPC   C3B68181  22.675  29.811   7.050
 9782POPC   C4B68182  22.669  29.909   7.350
 9783POPC   NC368183  12.066  39.245   5.550
 9783POPC   PO468184  12.123  39.246   5.850
 9783POPC   GL168185  12.116  39.225   6.150
 9783POPC   GL268186  12.144  39.131   6.150
 9783POPC   C1A68187  12.102  39.233   6.450
 9783POPC   D2A68188  12.058  39.213   6.750
 9783POPC   C3A68189  12.074  39.260   7.050
 9783POPC   C4A68190  12.028  39.267   7.350
 9783POPC   C1B68191  12.215  39.038   6.450
 9783POPC   C2B68192  12.217  39.004   6.750
 9783POPC   C3B68193  12.173  38.964   7.050
 9783POPC   C4B68194  12.139  39.030   7.350
 9784POPC   NC368195  27.595  22.896   5.550
 9784POPC   PO468196  27.557  22.918   5.850
 9784POPC   GL168197  27.590  22.982   6.150
 9784POPC   GL268198  27.464  23.036   6.150
 9784POPC   C1A68199  27.620  22.985   6.450
 9784POPC   D2A68200  27.567  22.946   6.750
 9784POPC   C3A68201  27.568  22.952   7.050
 9784POPC   C4A68202  27.583  22.945   7.350
 9784POPC   C1B68203  27.448  23.158   6.450
 9784POPC   C2B68204  27.366  23.087   6.750
 9784POPC   C3B68205  27.393  23.076   7.050
 9784POPC   C4B68206  27.376  23.099   7.350
 9785POPC   NC368207   6.639  20.659   5.550
 9785POPC   PO468208   6.657  20.591   5.850
 9785POPC   GL168209   6.631  20.561   6.150
 9785POPC   GL268210   6.738  20.735   6.150
 9785POPC   C1A68211   6.665  20.653   6.450
 9785POPC   D2A68212   6.681  20.573   6.750
 9785POPC   C3A68213   6.619  20.638   7.050
 9785POPC   C4A68214   6.663  20.650   7.350
 9785POPC   C1B68215   6.771  20.790   6.450
 9785POPC   C2B68216   6.816  20.858   6.750
 9785POPC   C3B68217   6.809  20.816   7.050
 9785POPC   C4B68218   6.831  20.763   7.350
 9786POPC   NC368219  39.190  41.604   5.550
 9786POPC   PO468220  39.243  41.581   5.850
 9786POPC   GL168221  39.248  41.521   6.150
 9786POPC   GL268222  39.198  41.421   6.150
 9786POPC   C1A68223  39.250  41.603   6.450
 9786POPC   D2A68224  39.279  41.609   6.750
 9786POPC   C3A68225  39.200  41.544   7.050
 9786POPC   C4A68226  39.204  41.512   7.350
 9786POPC   C1B68227  39.165  41.374   6.450
 9786POPC   C2B68228  39.137  41.359   6.750
 9786POPC   C3B68229  39.111  41.321   7.050
 9786POPC   C4B68230  39.140  41.338   7.350
 9787POPC   NC368231  21.396  19.106   5.550
 9787POPC   PO468232  21.365  19.093   5.850
 9787POPC   GL168233  21.428  19.024   6.150
 9787POPC   GL268234  21.347  18.927   6.150
 9787POPC   C1A68235  21.429  19.038   6.450
 9787POPC   D2A68236  21.378  19.089   6.750
 9787POPC   C3A68237  21.355  19.063   7.050
 9787POPC   C4A68238  21.358  19.030   7.350
 9787POPC   C1B68239  21.389  18.813   6.450
 9787POPC   C2B68240  21.366  18.761   6.750
 9787POPC   C3B68241  21.336  18.820   7.050
 9787POPC   C4B68242  21.407  18.797   7.350
 9788POPC   NC368243  39.983  16.737   5.550
 9788POPC   PO468244  39.986  16.708   5.850
 9788POPC   GL168245  39.974  16.735   6.150
 9788POPC   GL268246  39.868  16.744   6.150
 9788POPC   C1A68247  40.026  16.777   6.450
 9788POPC   D2A68248  40.015  16.770   6.750
 9788POPC   C3A68249  39.980  16.705   7.050
 9788POPC   C4A68250  40.045  16.695   7.350
 9788POPC   C1B68251  39.766  16.827   6.450
 9788POPC   C2B68252  39.723  16.823   6.750
 9788POPC   C3B68253  39.804  16.758   7.050
 9788POPC   C4B68254  39.781  16.753   7.350
 9789POPC   NC368255  44.646   8.964   5.550
 9789POPC   PO468256  44.685   9.020   5.850
 9789POPC   GL168257  44.657   8.948   6.150
 9789POPC   GL268258  44.683   9.126   6.150
 9789POPC   C1A68259  44.629   8.994   6.450
 9789POPC   D2A68260  44.623   8.975   6.750
 9789POPC   C3A68261  44.709   8.949   7.050
 9789POPC   C4A68262  44.632   8.998   7.350
 9789POPC   C1B68263  44.695   9.175   6.450
 9789POPC   C2B68264  44.718   9.206   6.750
 9789POPC   C3B68265  44.772   9.221   7.050
 9789POPC   C4B68266  44.765   9.256   7.350
 9790POPC   NC368267  43.924   5.087   5.550
 9790POPC   PO468268  43.856   5.070   5.850
 9790POPC   GL168269  43.908   5.046   6.150
 9790POPC   GL268270  44.023   5.033   6.150
 9790POPC   C1A68271  43.847   5.084   6.450
 9790POPC   D2A68272  43.872   5.087   6.750
 9790POPC   C3A68273  43.898   5.099   7.050
 9790POPC   C4A68274  43.869   5.060   7.350
 9790POPC   C1B68275  44.058   4.999   6.450
 9790POPC   C2B68276  44.144   4.996   6.750
 9790POPC   C3B68277  44.084   4.962   7.050
 9790POPC   C4B68278  44.068   4.942   7.350
 9791POPC   NC368279   2.770   2.034   5.550
 9791POPC   PO468280   2.782   1.980   5.850
 9791POPC   GL168281   2.726   1.985   6.150
 9791POPC   GL268282   2.717   1.825   6.150
 9791POPC   C1A68283   2.800   1.990   6.450
 9791POPC   D2A68284   2.729   1.940   6.750
 9791POPC   C3A68285   2.781   1.987   7.050
 9791POPC   C4A68286   2.751   2.010   7.350
 9791POPC   C1B68287   2.652   1.734   6.450
 9791POPC   C2B68288   2.700   1.747   6.750
 9791POPC   C3B68289   2.697   1.734   7.050
 9791POPC   C4B68290   2.738   1.713   7.350
 9792POPC   NC368291   9.761  17.465   5.550
 9792POPC   PO468292   9.721  17.462   5.850
 9792POPC   GL168293   9.710  17.539   6.150
 9792POPC   GL268294   9.663  17.389   6.150
 9792POPC   C1A68295   9.711  17.555   6.450
 9792POPC   D2A68296   9.745  17.514   6.750
 9792POPC   C3A68297   9.798  17.509   7.050
 9792POPC   C4A68298   9.727  17.553   7.350
 9792POPC   C1B68299   9.673  17.282   6.450
 9792POPC   C2B68300   9.663  17.309   6.750
 9792POPC   C3B68301   9.605  17.318   7.050
 9792POPC   C4B68302   9.600  17.290   7.350
 9793POPC   NC368303   1.194  36.098   5.550
 9793POPC   PO468304   1.178  36.127   5.850
 9793POPC   GL168305   1.177  36.111   6.150
 9793POPC   GL268306   1.316  36.149   6.150
 9793POPC   C1A68307   1.185  36.080   6.450
 9793POPC   D2A68308   1.245  36.109   6.750
 9793POPC   C3A68309   1.222  36.122   7.050
 9793POPC   C4A68310   1.235  36.085   7.350
 9793POPC   C1B68311   1.448  36.058   6.450
 9793POPC   C2B68312   1.508  36.123   6.750
 9793POPC   C3B68313   1.476  36.084   7.050
 9793POPC   C4B68314   1.433  36.100   7.350
 9794POPC   NC368315  34.533   8.161   5.550
 9794POPC   PO468316  34.596   8.151   5.850
 9794POPC   GL168317  34.579   8.235   6.150
 9794POPC   GL268318  34.432   8.274   6.150
 9794POPC   C1A68319  34.545   8.189   6.450
 9794POPC   D2A68320  34.552   8.210   6.750
 9794POPC   C3A68321  34.535   8.199   7.050
 9794POPC   C4A68322  34.531   8.229   7.350
 9794POPC   C1B68323  34.308   8.354   6.450
 9794POPC   C2B68324  34.397   8.298   6.750
 9794POPC   C3B68325  34.392   8.282   7.050
 9794POPC   C4B68326  34.375   8.287   7.350
 9795POPC   NC368327  19.834  32.273   5.550
 9795POPC   PO468328  19.837  32.220   5.850
 9795POPC   GL168329  19.815  32.287   6.150
 9795POPC   GL268330  19.795  32.097   6.150
 9795POPC   C1A68331  19.795  32.272   6.450
 9795POPC   D2A68332  19.803  32.211   6.750
 9795POPC   C3A68333  19.882  32.245   7.050
 9795POPC   C4A68334  19.838  32.241   7.350
 9795POPC   C1B68335  19.833  31.995   6.450
 9795POPC   C2B68336  19.804  32.011   6.750
 9795POPC   C3B68337  19.801  31.966   7.050
 9795POPC   C4B68338  19.798  32.031   7.350
 9796POPC   NC368339   8.985   1.200   5.550
 9796POPC   PO468340   8.995   1.193   5.850
 9796POPC   GL168341   8.938   1.241   6.150
 9796POPC   GL268342   8.939   1.287   6.150
 9796POPC   C1A68343   8.923   1.183   6.450
 9796POPC   D2A68344   9.009   1.249   6.750
 9796POPC   C3A68345   8.987   1.170   7.050
 9796POPC   C4A68346   8.986   1.258   7.350
 9796POPC   C1B68347   8.868   1.409   6.450
 9796POPC   C2B68348   8.891   1.429   6.750
 9796POPC   C3B68349   8.873   1.446   7.050
 9796POPC   C4B68350   8.875   1.406   7.350
 9797POPC   NC368351  21.350   2.746   5.550
 9797POPC   PO468352  21.368   2.813   5.850
 9797POPC   GL168353  21.390   2.748   6.150
 9797POPC   GL268354  21.467   2.674   6.150
 9797POPC   C1A68355  21.424   2.812   6.450
 9797POPC   D2A68356  21.375   2.740   6.750
 9797POPC   C3A68357  21.371   2.805   7.050
 9797POPC   C4A68358  21.398   2.753   7.350
 9797POPC   C1B68359  21.536   2.543   6.450
 9797POPC   C2B68360  21.506   2.553   6.750
 9797POPC   C3B68361  21.504   2.606   7.050
 9797POPC   C4B68362  21.504   2.588   7.350
 9798POPC   NC368363  35.363   7.443   5.550
 9798POPC   PO468364  35.374   7.429   5.850
 9798POPC   GL168365  35.397   7.405   6.150
 9798POPC   GL268366  35.258   7.337   6.150
 9798POPC   C1A68367  35.303   7.470   6.450
 9798POPC   D2A68368  35.350   7.462   6.750
 9798POPC   C3A68369  35.360   7.371   7.050
 9798POPC   C4A68370  35.329   7.415   7.350
 9798POPC   C1B68371  35.220   7.191   6.450
 9798POPC   C2B68372  35.257   7.166   6.750
 9798POPC   C3B68373  35.205   7.211   7.050
 9798POPC   C4B68374  35.209   7.195   7.350
 9799POPC   NC368375  40.739   4.321   5.550
 9799POPC   PO468376  40.766   4.291   5.850
 9799POPC   GL168377  40.741   4.288   6.150
 9799POPC   GL268378  40.907   4.267   6.150
 9799POPC   C1A68379  40.764   4.332   6.450
 9799POPC   D2A68380  40.801   4.326   6.750
 9799POPC   C3A68381  40.815   4.269   7.050
 9799POPC   C4A68382  40.779   4.348   7.350
 9799POPC   C1B68383  41.028   4.242   6.450
 9799POPC   C2B68384  41.000   4.314   6.750
 9799POPC   C3B68385  41.023   4.305   7.050
 9799POPC   C4B68386  40.984   4.279   7.350
 9800POPC   NC368387  32.288   0.467   5.550
 9800POPC   PO468388  32.291   0.402   5.850
 9800POPC   GL168389  32.253   0.469   6.150
 9800POPC   GL268390  32.113   0.501   6.150
 9800POPC   C1A68391  32.258   0.388   6.450
 9800POPC   D2A68392  32.205   0.464   6.750
 9800POPC   C3A68393  32.212   0.467   7.050
 9800POPC   C4A68394  32.244   0.459   7.350
 9800POPC   C1B68395  32.046   0.580   6.450
 9800POPC   C2B68396  32.085   0.602   6.750
 9800POPC   C3B68397  32.052   0.616   7.050
 9800POPC   C4B68398  32.027   0.630   7.350
 9801POPC   NC368399  12.824  32.994   5.550
 9801POPC   PO468400  12.901  33.033   5.850
 9801POPC   GL168401  12.890  33.003   6.150
 9801POPC   GL268402  12.753  33.089   6.150
 9801POPC   C1A68403  12.834  33.012   6.450
 9801POPC   D2A68404  12.840  32.995   6.750
 9801POPC   C3A68405  12.828  33.056   7.050
 9801POPC   C4A68406  12.846  33.013   7.350
 9801POPC   C1B68407  12.629  33.124   6.450
 9801POPC   C2B68408  12.603  33.116   6.750
 9801POPC   C3B68409  12.625  33.077   7.050
 9801POPC   C4B68410  12.648  33.112   7.350
 9802POPC   NC368411   4.362  10.554   5.550
 9802POPC   PO468412   4.270  10.489   5.850
 9802POPC   GL168413   4.314  10.489   6.150
 9802POPC   GL268414   4.418  10.647   6.150
 9802POPC   C1A68415   4.338  10.537   6.450
 9802POPC   D2A68416   4.346  10.543   6.750
 9802POPC   C3A68417   4.291  10.541   7.050
 9802POPC   C4A68418   4.352  10.548   7.350
 9802POPC   C1B68419   4.444  10.759   6.450
 9802POPC   C2B68420   4.462  10.741   6.750
 9802POPC   C3B68421   4.494  10.704   7.050
 9802POPC   C4B68422   4.478  10.668   7.350
 9803POPC   NC368423  13.606  32.289   5.550
 9803POPC   PO468424  13.663  32.199   5.850
 9803POPC   GL168425  13.585  32.220   6.150
 9803POPC   GL268426  13.591  32.318   6.150
 9803POPC   C1A68427  13.671  32.199   6.450
 9803POPC   D2A68428  13.660  32.267   6.750
 9803POPC   C3A68429  13.633  32.294   7.050
 9803POPC   C4A68430  13.670  32.232   7.350
 9803POPC   C1B68431  13.490  32.454   6.450
 9803POPC   C2B68432  13.418  32.438   6.750
 9803POPC   C3B68433  13.437  32.453   7.050
 9803POPC   C4B68434  13.447  32.435   7.350
 9804POPC   NC368435  22.181   3.587   5.550
 9804POPC   PO468436  22.163   3.494   5.850
 9804POPC   GL168437  22.151   3.589   6.150
 9804POPC   GL268438  22.053   3.545   6.150
 9804POPC   C1A68439  22.202   3.511   6.450
 9804POPC   D2A68440  22.204   3.539   6.750
 9804POPC   C3A68441  22.192   3.578   7.050
 9804POPC   C4A68442  22.187   3.530   7.350
 9804POPC   C1B68443  21.907   3.543   6.450
 9804POPC   C2B68444  21.892   3.561   6.750
 9804POPC   C3B68445  21.911   3.617   7.050
 9804POPC   C4B68446  21.945   3.573   7.350
 9805POPC   NC368447  29.954  33.003   5.550
 9805POPC   PO468448  29.958  32.975   5.850
 9805POPC   GL168449  29.930  33.025   6.150
 9805POPC   GL268450  29.789  32.967   6.150
 9805POPC   C1A68451  29.960  33.012   6.450
 9805POPC   D2A68452  29.912  33.032   6.750
 9805POPC   C3A68453  29.918  33.007   7.050
 9805POPC   C4A68454  29.957  33.022   7.350
 9805POPC   C1B68455  29.644  33.004   6.450
 9805POPC   C2B68456  29.675  32.941   6.750
 9805POPC   C3B68457  29.639  32.960   7.050
 9805POPC   C4B68458  29.721  32.983   7.350
 9806POPC   NC368459  26.056   7.399   5.550
 9806POPC   PO468460  26.062   7.375   5.850
 9806POPC   GL168461  26.017   7.392   6.150
 9806POPC   GL268462  26.017   7.309   6.150
 9806POPC   C1A68463  26.039   7.394   6.450
 9806POPC   D2A68464  26.018   7.449   6.750
 9806POPC   C3A68465  26.032   7.412   7.050
 9806POPC   C4A68466  26.076   7.371   7.350
 9806POPC   C1B68467  26.027   7.208   6.450
 9806POPC   C2B68468  25.947   7.127   6.750
 9806POPC   C3B68469  25.960   7.137   7.050
 9806POPC   C4B68470  25.949   7.222   7.350
 9807POPC   NC368471  22.976   0.399   5.550
 9807POPC   PO468472  22.973   0.391   5.850
 9807POPC   GL168473  22.925   0.433   6.150
 9807POPC   GL268474  22.987   0.579   6.150
 9807POPC   C1A68475  22.932   0.459   6.450
 9807POPC   D2A68476  22.962   0.437   6.750
 9807POPC   C3A68477  22.962   0.476   7.050
 9807POPC   C4A68478  22.948   0.467   7.350
 9807POPC   C1B68479  22.920   0.680   6.450
 9807POPC   C2B68480  22.935   0.664   6.750
 9807POPC   C3B68481  22.914   0.725   7.050
 9807POPC   C4B68482  22.957   0.657   7.350
 9808POPC   NC368483  38.464  41.522   5.550
 9808POPC   PO468484  38.465  41.560   5.850
 9808POPC   GL168485  38.502  41.528   6.150
 9808POPC   GL268486  38.411  41.481   6.150
 9808POPC   C1A68487  38.472  41.543   6.450
 9808POPC   D2A68488  38.489  41.558   6.750
 9808POPC   C3A68489  38.414  41.604   7.050
 9808POPC   C4A68490  38.420  41.574   7.350
 9808POPC   C1B68491  38.366  41.369   6.450
 9808POPC   C2B68492  38.274  41.349   6.750
 9808POPC   C3B68493  38.306  41.365   7.050
 9808POPC   C4B68494  38.295  41.343   7.350
 9809POPC   NC368495   0.448   5.062   5.550
 9809POPC   PO468496   0.399   5.083   5.850
 9809POPC   GL168497   0.394   5.057   6.150
 9809POPC   GL268498   0.580   5.047   6.150
 9809POPC   C1A68499   0.451   5.063   6.450
 9809POPC   D2A68500   0.427   5.071   6.750
 9809POPC   C3A68501   0.449   5.126   7.050
 9809POPC   C4A68502   0.449   5.108   7.350
 9809POPC   C1B68503   0.727   5.113   6.450
 9809POPC   C2B68504   0.690   5.102   6.750
 9809POPC   C3B68505   0.702   5.077   7.050
 9809POPC   C4B68506   0.656   5.115   7.350
 9810POPC   NC368507  19.073   5.892   5.550
 9810POPC   PO468508  19.049   5.897   5.850
 9810POPC   GL168509  19.086   5.835   6.150
 9810POPC   GL268510  19.009   5.828   6.150
 9810POPC   C1A68511  19.083   5.910   6.450
 9810POPC   D2A68512  19.093   5.821   6.750
 9810POPC   C3A68513  19.078   5.875   7.050
 9810POPC   C4A68514  19.071   5.911   7.350
 9810POPC   C1B68515  18.883   5.756   6.450
 9810POPC   C2B68516  18.818   5.686   6.750
 9810POPC   C3B68517  18.846   5.673   7.050
 9810POPC   C4B68518  18.825   5.713   7.350
 9811POPC   NC368519   1.944   0.460   5.550
 9811POPC   PO468520   1.999   0.466   5.850
 9811POPC   GL168521   1.948   0.458   6.150
 9811POPC   GL268522   2.041   0.344   6.150
 9811POPC   C1A68523   2.024   0.449   6.450
 9811POPC   D2A68524   1.940   0.402   6.750
 9811POPC   C3A68525   2.022   0.444   7.050
 9811POPC   C4A68526   1.976   0.435   7.350
 9811POPC   C1B68527   2.129   0.245   6.450
 9811POPC   C2B68528   2.153   0.239   6.750
 9811POPC   C3B68529   2.142   0.203   7.050
 9811POPC   C4B68530   2.153   0.264   7.350
 9812POPC   NC368531  15.167  20.585   5.550
 9812POPC   PO468532  15.154  20.601   5.850
 9812POPC   GL168533  15.205  20.603   6.150
 9812POPC   GL268534  15.082  20.669   6.150
 9812POPC   C1A68535  15.169  20.634   6.450
 9812POPC   D2A68536  15.172  20.578   6.750
 9812POPC   C3A68537  15.143  20.624   7.050
 9812POPC   C4A68538  15.207  20.580   7.350
 9812POPC   C1B68539  14.935  20.737   6.450
 9812POPC   C2B68540  14.906  20.692   6.750
 9812POPC   C3B68541  14.921  20.692   7.050
 9812POPC   C4B68542  15.005  20.760   7.350
 9813POPC   NC368543  35.397   4.338   5.550
 9813POPC   PO468544  35.380   4.364   5.850
 9813POPC   GL168545  35.309   4.321   6.150
 9813POPC   GL268546  35.274   4.207   6.150
 9813POPC   C1A68547  35.349   4.320   6.450
 9813POPC   D2A68548  35.385   4.277   6.750
 9813POPC   C3A68549  35.388   4.349   7.050
 9813POPC   C4A68550  35.368   4.316   7.350
 9813POPC   C1B68551  35.189   4.057   6.450
 9813POPC   C2B68552  35.201   4.143   6.750
 9813POPC   C3B68553  35.180   4.126   7.050
 9813POPC   C4B68554  35.251   4.093   7.350
 9814POPC   NC368555  40.018   5.860   5.550
 9814POPC   PO468556  40.027   5.885   5.850
 9814POPC   GL168557  40.030   5.829   6.150
 9814POPC   GL268558  39.884   5.758   6.150
 9814POPC   C1A68559  39.982   5.848   6.450
 9814POPC   D2A68560  39.996   5.890   6.750
 9814POPC   C3A68561  39.984   5.820   7.050
 9814POPC   C4A68562  40.039   5.862   7.350
 9814POPC   C1B68563  39.833   5.668   6.450
 9814POPC   C2B68564  39.866   5.723   6.750
 9814POPC   C3B68565  39.877   5.671   7.050
 9814POPC   C4B68566  39.813   5.710   7.350
 9815POPC   NC368567  38.445  32.241   5.550
 9815POPC   PO468568  38.424  32.282   5.850
 9815POPC   GL168569  38.409  32.222   6.150
 9815POPC   GL268570  38.514  32.163   6.150
 9815POPC   C1A68571  38.438  32.298   6.450
 9815POPC   D2A68572  38.416  32.227   6.750
 9815POPC   C3A68573  38.415  32.289   7.050
 9815POPC   C4A68574  38.416  32.236   7.350
 9815POPC   C1B68575  38.523  32.039   6.450
 9815POPC   C2B68576  38.543  32.020   6.750
 9815POPC   C3B68577  38.554  32.051   7.050
 9815POPC   C4B68578  38.488  31.971   7.350
 9816POPC   NC368579  43.878   4.270   5.550
 9816POPC   PO468580  43.854   4.304   5.850
 9816POPC   GL168581  43.911   4.338   6.150
 9816POPC   GL268582  43.805   4.389   6.150
 9816POPC   C1A68583  43.887   4.325   6.450
 9816POPC   D2A68584  43.865   4.361   6.750
 9816POPC   C3A68585  43.894   4.271   7.050
 9816POPC   C4A68586  43.877   4.279   7.350
 9816POPC   C1B68587  43.754   4.473   6.450
 9816POPC   C2B68588  43.683   4.503   6.750
 9816POPC   C3B68589  43.715   4.454   7.050
 9816POPC   C4B68590  43.732   4.516   7.350
 9817POPC   NC368591  31.497   8.211   5.550
 9817POPC   PO468592  31.425   8.177   5.850
 9817POPC   GL168593  31.454   8.166   6.150
 9817POPC   GL268594  31.573   8.138   6.150
 9817POPC   C1A68595  31.437   8.230   6.450
 9817POPC   D2A68596  31.485   8.170   6.750
 9817POPC   C3A68597  31.505   8.242   7.050
 9817POPC   C4A68598  31.440   8.203   7.350
 9817POPC   C1B68599  31.640   7.989   6.450
 9817POPC   C2B68600  31.694   8.016   6.750
 9817POPC   C3B68601  31.621   8.034   7.050
 9817POPC   C4B68602  31.699   7.988   7.350
 9818POPC   NC368603  20.623  37.684   5.550
 9818POPC   PO468604  20.628  37.692   5.850
 9818POPC   GL168605  20.576  37.715   6.150
 9818POPC   GL268606  20.484  37.748   6.150
 9818POPC   C1A68607  20.578  37.705   6.450
 9818POPC   D2A68608  20.647  37.668   6.750
 9818POPC   C3A68609  20.651  37.689   7.050
 9818POPC   C4A68610  20.643  37.632   7.350
 9818POPC   C1B68611  20.447  37.871   6.450
 9818POPC   C2B68612  20.395  37.840   6.750
 9818POPC   C3B68613  20.445  37.805   7.050
 9818POPC   C4B68614  20.410  37.818   7.350
 9819POPC   NC368615  26.040  38.472   5.550
 9819POPC   PO468616  26.081  38.428   5.850
 9819POPC   GL168617  25.992  38.493   6.150
 9819POPC   GL268618  26.082  38.528   6.150
 9819POPC   C1A68619  26.034  38.451   6.450
 9819POPC   D2A68620  26.007  38.449   6.750
 9819POPC   C3A68621  26.084  38.438   7.050
 9819POPC   C4A68622  25.997  38.432   7.350
 9819POPC   C1B68623  26.203  38.699   6.450
 9819POPC   C2B68624  26.152  38.670   6.750
 9819POPC   C3B68625  26.189  38.623   7.050
 9819POPC   C4B68626  26.152  38.691   7.350
 9820POPC   NC368627  22.947  22.151   5.550
 9820POPC   PO468628  22.913  22.129   5.850
 9820POPC   GL168629  22.921  22.167   6.150
 9820POPC   GL268630  22.805  22.277   6.150
 9820POPC   C1A68631  22.931  22.119   6.450
 9820POPC   D2A68632  22.967  22.184   6.750
 9820POPC   C3A68633  22.914  22.156   7.050
 9820POPC   C4A68634  22.960  22.165   7.350
 9820POPC   C1B68635  22.760  22.341   6.450
 9820POPC   C2B68636  22.727  22.315   6.750
 9820POPC   C3B68637  22.735  22.298   7.050
 9820POPC   C4B68638  22.710  22.265   7.350
 9821POPC   NC368639  40.733  40.798   5.550
 9821POPC   PO468640  40.776  40.806   5.850
 9821POPC   GL168641  40.791  40.797   6.150
 9821POPC   GL268642  40.892  40.751   6.150
 9821POPC   C1A68643  40.779  40.767   6.450
 9821POPC   D2A68644  40.806  40.812   6.750
 9821POPC   C3A68645  40.784  40.775   7.050
 9821POPC   C4A68646  40.757  40.818   7.350
 9821POPC   C1B68647  40.936  40.674   6.450
 9821POPC   C2B68648  41.005  40.608   6.750
 9821POPC   C3B68649  41.027  40.614   7.050
 9821POPC   C4B68650  40.941  40.607   7.350
 9822POPC   NC368651   9.700  14.411   5.550
 9822POPC   PO468652   9.745  14.359   5.850
 9822POPC   GL168653   9.790  14.417   6.150
 9822POPC   GL268654   9.730  14.536   6.150
 9822POPC   C1A68655   9.789  14.399   6.450
 9822POPC   D2A68656   9.726  14.424   6.750
 9822POPC   C3A68657   9.740  14.396   7.050
 9822POPC   C4A68658   9.736  14.375   7.350
 9822POPC   C1B68659   9.662  14.669   6.450
 9822POPC   C2B68660   9.673  14.603   6.750
 9822POPC   C3B68661   9.629  14.665   7.050
 9822POPC   C4B68662   9.615  14.662   7.350
 9823POPC   NC368663  33.811  41.563   5.550
 9823POPC   PO468664  33.843  41.551   5.850
 9823POPC   GL168665  33.767  41.599   6.150
 9823POPC   GL268666  33.696  41.442   6.150
 9823POPC   C1A68667  33.778  41.523   6.450
 9823POPC   D2A68668  33.770  41.512   6.750
 9823POPC   C3A68669  33.774  41.575   7.050
 9823POPC   C4A68670  33.765  41.541   7.350
 9823POPC   C1B68671  33.632  41.386   6.450
 9823POPC   C2B68672  33.578  41.400   6.750
 9823POPC   C3B68673  33.574  41.452   7.050
 9823POPC   C4B68674  33.569  41.436   7.350
 9824POPC   NC368675  24.461  40.753   5.550
 9824POPC   PO468676  24.525  40.790   5.850
 9824POPC   GL168677  24.491  40.772   6.150
 9824POPC   GL268678  24.316  40.740   6.150
 9824POPC   C1A68679  24.522  40.786   6.450
 9824POPC   D2A68680  24.531  40.810   6.750
 9824POPC   C3A68681  24.446  40.754   7.050
 9824POPC   C4A68682  24.512  40.772   7.350
 9824POPC   C1B68683  24.286  40.783   6.450
 9824POPC   C2B68684  24.218  40.793   6.750
 9824POPC   C3B68685  24.289  40.738   7.050
 9824POPC   C4B68686  24.213  40.758   7.350
 9825POPC   NC368687  17.523  10.523   5.550
 9825POPC   PO468688  17.479  10.486   5.850
 9825POPC   GL168689  17.512  10.563   6.150
 9825POPC   GL268690  17.417  10.573   6.150
 9825POPC   C1A68691  17.518  10.555   6.450
 9825POPC   D2A68692  17.497  10.488   6.750
 9825POPC   C3A68693  17.553  10.525   7.050
 9825POPC   C4A68694  17.551  10.514   7.350
 9825POPC   C1B68695  17.282  10.604   6.450
 9825POPC   C2B68696  17.254  10.617   6.750
 9825POPC   C3B68697  17.293  10.639   7.050
 9825POPC   C4B68698  17.279  10.588   7.350
 9826POPC   NC368699  36.144  19.811   5.550
 9826POPC   PO468700  36.115  19.867   5.850
 9826POPC   GL168701  36.082  19.808   6.150
 9826POPC   GL268702  36.195  19.775   6.150
 9826POPC   C1A68703  36.141  19.796   6.450
 9826POPC   D2A68704  36.134  19.854   6.750
 9826POPC   C3A68705  36.091  19.839   7.050
 9826POPC   C4A68706  36.084  19.867   7.350
 9826POPC   C1B68707  36.310  19.721   6.450
 9826POPC   C2B68708  36.353  19.642   6.750
 9826POPC   C3B68709  36.310  19.696   7.050
 9826POPC   C4B68710  36.350  19.677   7.350
 9827POPC   NC368711  26.777  40.824   5.550
 9827POPC   PO468712  26.782  40.754   5.850
 9827POPC   GL168713  26.857  40.733   6.150
 9827POPC   GL268714  26.710  40.808   6.150
 9827POPC   C1A68715  26.791  40.787   6.450
 9827POPC   D2A68716  26.828  40.747   6.750
 9827POPC   C3A68717  26.801  40.773   7.050
 9827POPC   C4A68718  26.818  40.819   7.350
 9827POPC   C1B68719  26.615  40.758   6.450
 9827POPC   C2B68720  26.588  40.754   6.750
 9827POPC   C3B68721  26.524  40.735   7.050
 9827POPC   C4B68722  26.583  40.753   7.350
 9828POPC   NC368723  24.519   6.690   5.550
 9828POPC   PO468724  24.538   6.607   5.850
 9828POPC   GL168725  24.484   6.648   6.150
 9828POPC   GL268726  24.434   6.609   6.150
 9828POPC   C1A68727  24.499   6.612   6.450
 9828POPC   D2A68728  24.451   6.648   6.750
 9828POPC   C3A68729  24.489   6.689   7.050
 9828POPC   C4A68730  24.511   6.635   7.350
 9828POPC   C1B68731  24.336   6.538   6.450
 9828POPC   C2B68732  24.329   6.525   6.750
 9828POPC   C3B68733  24.237   6.546   7.050
 9828POPC   C4B68734  24.316   6.457   7.350
 9829POPC   NC368735  30.654  17.484   5.550
 9829POPC   PO468736  30.662  17.465   5.850
 9829POPC   GL168737  30.702  17.505   6.150
 9829POPC   GL268738  30.744  17.625   6.150
 9829POPC   C1A68739  30.735  17.466   6.450
 9829POPC   D2A68740  30.647  17.471   6.750
 9829POPC   C3A68741  30.678  17.481   7.050
 9829POPC   C4A68742  30.670  17.532   7.350
 9829POPC   C1B68743  30.719  17.735   6.450
 9829POPC   C2B68744  30.657  17.727   6.750
 9829POPC   C3B68745  30.704  17.756   7.050
 9829POPC   C4B68746  30.742  17.726   7.350
 9830POPC   NC368747  32.285  26.832   5.550
 9830POPC   PO468748  32.226  26.789   5.850
 9830POPC   GL168749  32.268  26.794   6.150
 9830POPC   GL268750  32.199  26.973   6.150
 9830POPC   C1A68751  32.294  26.787   6.450
 9830POPC   D2A68752  32.297  26.772   6.750
 9830POPC   C3A68753  32.268  26.835   7.050
 9830POPC   C4A68754  32.219  26.823   7.350
 9830POPC   C1B68755  32.118  27.012   6.450
 9830POPC   C2B68756  32.185  27.058   6.750
 9830POPC   C3B68757  32.128  27.077   7.050
 9830POPC   C4B68758  32.122  27.074   7.350
 9831POPC   NC368759  44.683  18.271   5.550
 9831POPC   PO468760  44.701  18.297   5.850
 9831POPC   GL168761  44.635  18.264   6.150
 9831POPC   GL268762  44.713  18.152   6.150
 9831POPC   C1A68763  44.703  18.284   6.450
 9831POPC   D2A68764  44.636  18.331   6.750
 9831POPC   C3A68765  44.699  18.242   7.050
 9831POPC   C4A68766  44.670  18.283   7.350
 9831POPC   C1B68767  44.852  18.119   6.450
 9831POPC   C2B68768  44.773  18.068   6.750
 9831POPC   C3B68769  44.816  18.043   7.050
 9831POPC   C4B68770  44.815  18.118   7.350
 9832POPC   NC368771  32.238  26.050   5.550
 9832POPC   PO468772  32.242  26.053   5.850
 9832POPC   GL168773  32.270  26.038   6.150
 9832POPC   GL268774  32.344  26.096   6.150
 9832POPC   C1A68775  32.267  26.026   6.450
 9832POPC   D2A68776  32.287  26.058   6.750
 9832POPC   C3A68777  32.241  26.021   7.050
 9832POPC   C4A68778  32.250  26.071   7.350
 9832POPC   C1B68779  32.427  26.192   6.450
 9832POPC   C2B68780  32.444  26.159   6.750
 9832POPC   C3B68781  32.404  26.173   7.050
 9832POPC   C4B68782  32.457  26.242   7.350
 9833POPC   NC368783  40.802  20.562   5.550
 9833POPC   PO468784  40.765  20.640   5.850
 9833POPC   GL168785  40.819  20.637   6.150
 9833POPC   GL268786  40.838  20.564   6.150
 9833POPC   C1A68787  40.765  20.637   6.450
 9833POPC   D2A68788  40.811  20.619   6.750
 9833POPC   C3A68789  40.808  20.573   7.050
 9833POPC   C4A68790  40.784  20.605   7.350
 9833POPC   C1B68791  40.945  20.405   6.450
 9833POPC   C2B68792  40.931  20.446   6.750
 9833POPC   C3B68793  40.981  20.494   7.050
 9833POPC   C4B68794  40.961  20.429   7.350
 9834POPC   NC368795  43.132  25.277   5.550
 9834POPC   PO468796  43.127  25.256   5.850
 9834POPC   GL168797  43.067  25.234   6.150
 9834POPC   GL268798  43.115  25.342   6.150
 9834POPC   C1A68799  43.063  25.254   6.450
 9834POPC   D2A68800  43.136  25.224   6.750
 9834POPC   C3A68801  43.122  25.282   7.050
 9834POPC   C4A68802  43.107  25.269   7.350
 9834POPC   C1B68803  43.120  25.476   6.450
 9834POPC   C2B68804  43.189  25.502   6.750
 9834POPC   C3B68805  43.148  25.524   7.050
 9834POPC   C4B68806  43.141  25.528   7.350
 9835POPC   NC368807  26.846  35.381   5.550
 9835POPC   PO468808  26.856  35.396   5.850
 9835POPC   GL168809  26.836  35.327   6.150
 9835POPC   GL268810  26.962  35.357   6.150
 9835POPC   C1A68811  26.811  35.343   6.450
 9835POPC   D2A68812  26.854  35.396   6.750
 9835POPC   C3A68813  26.772  35.307   7.050
 9835POPC   C4A68814  26.815  35.314   7.350
 9835POPC   C1B68815  27.070  35.393   6.450
 9835POPC   C2B68816  27.094  35.468   6.750
 9835POPC   C3B68817  27.101  35.457   7.050
 9835POPC   C4B68818  27.027  35.428   7.350
 9836POPC   NC368819  16.760  25.261   5.550
 9836POPC   PO468820  16.694  25.275   5.850
 9836POPC   GL168821  16.768  25.260   6.150
 9836POPC   GL268822  16.598  25.355   6.150
 9836POPC   C1A68823  16.770  25.315   6.450
 9836POPC   D2A68824  16.704  25.257   6.750
 9836POPC   C3A68825  16.703  25.224   7.050
 9836POPC   C4A68826  16.721  25.304   7.350
 9836POPC   C1B68827  16.468  25.385   6.450
 9836POPC   C2B68828  16.555  25.432   6.750
 9836POPC   C3B68829  16.473  25.353   7.050
 9836POPC   C4B68830  16.479  25.429   7.350
 9837POPC   NC368831  22.920  44.702   5.550
 9837POPC   PO468832  22.978  44.644   5.850
 9837POPC   GL168833  22.914  44.656   6.150
 9837POPC   GL268834  22.923  44.754   6.150
 9837POPC   C1A68835  22.939  44.702   6.450
 9837POPC   D2A68836  22.903  44.672   6.750
 9837POPC   C3A68837  22.965  44.620   7.050
 9837POPC   C4A68838  22.964  44.635   7.350
 9837POPC   C1B68839  22.818  44.868   6.450
 9837POPC   C2B68840  22.848  44.904   6.750
 9837POPC   C3B68841  22.823  44.920   7.050
 9837POPC   C4B68842  22.828  44.880   7.350
 9838POPC   NC368843   8.185  38.485   5.550
 9838POPC   PO468844   8.215  38.497   5.850
 9838POPC   GL168845   8.217  38.470   6.150
 9838POPC   GL268846   8.115  38.396   6.150
 9838POPC   C1A68847   8.232  38.473   6.450
 9838POPC   D2A68848   8.180  38.425   6.750
 9838POPC   C3A68849   8.211  38.490   7.050
 9838POPC   C4A68850   8.235  38.441   7.350
 9838POPC   C1B68851   7.946  38.330   6.450
 9838POPC   C2B68852   7.935  38.355   6.750
 9838POPC   C3B68853   8.001  38.344   7.050
 9838POPC   C4B68854   7.976  38.375   7.350
 9839POPC   NC368855   9.771   2.013   5.550
 9839POPC   PO468856   9.756   2.023   5.850
 9839POPC   GL168857   9.785   2.008   6.150
 9839POPC   GL268858   9.599   2.102   6.150
 9839POPC   C1A68859   9.747   1.979   6.450
 9839POPC   D2A68860   9.717   1.974   6.750
 9839POPC   C3A68861   9.748   2.016   7.050
 9839POPC   C4A68862   9.771   2.021   7.350
 9839POPC   C1B68863   9.536   2.143   6.450
 9839POPC   C2B68864   9.535   2.141   6.750
 9839POPC   C3B68865   9.543   2.106   7.050
 9839POPC   C4B68866   9.514   2.140   7.350
 9840POPC   NC368867  13.626  15.989   5.550
 9840POPC   PO468868  13.617  15.975   5.850
 9840POPC   GL168869  13.666  15.993   6.150
 9840POPC   GL268870  13.545  15.882   6.150
 9840POPC   C1A68871  13.648  15.923   6.450
 9840POPC   D2A68872  13.625  15.979   6.750
 9840POPC   C3A68873  13.648  15.934   7.050
 9840POPC   C4A68874  13.639  15.908   7.350
 9840POPC   C1B68875  13.382  15.834   6.450
 9840POPC   C2B68876  13.368  15.857   6.750
 9840POPC   C3B68877  13.420  15.809   7.050
 9840POPC   C4B68878  13.416  15.839   7.350
 9841POPC   NC368879   7.406  30.666   5.550
 9841POPC   PO468880   7.440  30.744   5.850
 9841POPC   GL168881   7.407  30.721   6.150
 9841POPC   GL268882   7.513  30.661   6.150
 9841POPC   C1A68883   7.407  30.734   6.450
 9841POPC   D2A68884   7.418  30.673   6.750
 9841POPC   C3A68885   7.429  30.736   7.050
 9841POPC   C4A68886   7.413  30.648   7.350
 9841POPC   C1B68887   7.673  30.574   6.450
 9841POPC   C2B68888   7.651  30.530   6.750
 9841POPC   C3B68889   7.609  30.611   7.050
 9841POPC   C4B68890   7.603  30.535   7.350
 9842POPC   NC368891  38.449  38.427   5.550
 9842POPC   PO468892  38.423  38.438   5.850
 9842POPC   GL168893  38.408  38.472   6.150
 9842POPC   GL268894  38.305  38.506   6.150
 9842POPC   C1A68895  38.461  38.434   6.450
 9842POPC   D2A68896  38.408  38.406   6.750
 9842POPC   C3A68897  38.446  38.468   7.050
 9842POPC   C4A68898  38.445  38.505   7.350
 9842POPC   C1B68899  38.230  38.548   6.450
 9842POPC   C2B68900  38.193  38.593   6.750
 9842POPC   C3B68901  38.231  38.538   7.050
 9842POPC   C4B68902  38.219  38.522   7.350
 9843POPC   NC368903  15.175  19.081   5.550
 9843POPC   PO468904  15.197  19.094   5.850
 9843POPC   GL168905  15.196  19.094   6.150
 9843POPC   GL268906  15.335  19.006   6.150
 9843POPC   C1A68907  15.178  19.020   6.450
 9843POPC   D2A68908  15.152  19.025   6.750
 9843POPC   C3A68909  15.130  19.061   7.050
 9843POPC   C4A68910  15.163  19.065   7.350
 9843POPC   C1B68911  15.437  18.962   6.450
 9843POPC   C2B68912  15.424  18.920   6.750
 9843POPC   C3B68913  15.371  18.930   7.050
 9843POPC   C4B68914  15.423  18.941   7.350
 9844POPC   NC368915  27.580  34.604   5.550
 9844POPC   PO468916  27.574  34.599   5.850
 9844POPC   GL168917  27.622  34.548   6.150
 9844POPC   GL268918  27.637  34.673   6.150
 9844POPC   C1A68919  27.571  34.598   6.450
 9844POPC   D2A68920  27.549  34.565   6.750
 9844POPC   C3A68921  27.560  34.587   7.050
 9844POPC   C4A68922  27.610  34.600   7.350
 9844POPC   C1B68923  27.762  34.773   6.450
 9844POPC   C2B68924  27.721  34.746   6.750
 9844POPC   C3B68925  27.758  34.784   7.050
 9844POPC   C4B68926  27.714  34.789   7.350
 9845POPC   NC368927   1.980  30.659   5.550
 9845POPC   PO468928   1.992  30.654   5.850
 9845POPC   GL168929   2.037  30.725   6.150
 9845POPC   GL268930   1.924  30.816   6.150
 9845POPC   C1A68931   1.992  30.691   6.450
 9845POPC   D2A68932   2.014  30.701   6.750
 9845POPC   C3A68933   2.025  30.683   7.050
 9845POPC   C4A68934   1.965  30.736   7.350
 9845POPC   C1B68935   1.868  30.938   6.450
 9845POPC   C2B68936   1.868  30.904   6.750
 9845POPC   C3B68937   1.857  30.929   7.050
 9845POPC   C4B68938   1.916  30.963   7.350
 9846POPC   NC368939  41.571   7.415   5.550
 9846POPC   PO468940  41.538   7.396   5.850
 9846POPC   GL168941  41.598   7.407   6.150
 9846POPC   GL268942  41.635   7.462   6.150
 9846POPC   C1A68943  41.597   7.411   6.450
 9846POPC   D2A68944  41.553   7.375   6.750
 9846POPC   C3A68945  41.567   7.394   7.050
 9846POPC   C4A68946  41.529   7.377   7.350
 9846POPC   C1B68947  41.818   7.512   6.450
 9846POPC   C2B68948  41.738   7.569   6.750
 9846POPC   C3B68949  41.795   7.507   7.050
 9846POPC   C4B68950  41.826   7.539   7.350
 9847POPC   NC368951  13.592  24.488   5.550
 9847POPC   PO468952  13.584  24.489   5.850
 9847POPC   GL168953  13.619  24.527   6.150
 9847POPC   GL268954  13.671  24.371   6.150
 9847POPC   C1A68955  13.639  24.449   6.450
 9847POPC   D2A68956  13.615  24.498   6.750
 9847POPC   C3A68957  13.655  24.496   7.050
 9847POPC   C4A68958  13.612  24.516   7.350
 9847POPC   C1B68959  13.692  24.283   6.450
 9847POPC   C2B68960  13.732  24.299   6.750
 9847POPC   C3B68961  13.773  24.297   7.050
 9847POPC   C4B68962  13.706  24.266   7.350
 9848POPC   NC368963  32.222  31.455   5.550
 9848POPC   PO468964  32.296  31.477   5.850
 9848POPC   GL168965  32.205  31.465   6.150
 9848POPC   GL268966  32.194  31.540   6.150
 9848POPC   C1A68967  32.298  31.455   6.450
 9848POPC   D2A68968  32.271  31.518   6.750
 9848POPC   C3A68969  32.298  31.452   7.050
 9848POPC   C4A68970  32.221  31.441   7.350
 9848POPC   C1B68971  32.048  31.593   6.450
 9848POPC   C2B68972  32.029  31.593   6.750
 9848POPC   C3B68973  32.096  31.673   7.050
 9848POPC   C4B68974  32.050  31.618   7.350
 9849POPC   NC368975  26.080  16.716   5.550
 9849POPC   PO468976  26.042  16.750   5.850
 9849POPC   GL168977  25.997  16.752   6.150
 9849POPC   GL268978  26.147  16.786   6.150
 9849POPC   C1A68979  25.999  16.776   6.450
 9849POPC   D2A68980  26.015  16.733   6.750
 9849POPC   C3A68981  26.023  16.750   7.050
 9849POPC   C4A68982  26.027  16.726   7.350
 9849POPC   C1B68983  26.239  16.899   6.450
 9849POPC   C2B68984  26.249  16.914   6.750
 9849POPC   C3B68985  26.220  16.833   7.050
 9849POPC   C4B68986  26.222  16.827   7.350
 9850POPC   NC368987  31.476  20.640   5.550
 9850POPC   PO468988  31.477  20.647   5.850
 9850POPC   GL168989  31.495  20.626   6.150
 9850POPC   GL268990  31.345  20.662   6.150
 9850POPC   C1A68991  31.442  20.637   6.450
 9850POPC   D2A68992  31.501  20.613   6.750
 9850POPC   C3A68993  31.446  20.611   7.050
 9850POPC   C4A68994  31.425  20.617   7.350
 9850POPC   C1B68995  31.257  20.737   6.450
 9850POPC   C2B68996  31.234  20.734   6.750
 9850POPC   C3B68997  31.226  20.721   7.050
 9850POPC   C4B68998  31.243  20.782   7.350
 9851POPC   NC368999  19.050  43.102   5.550
 9851POPC   PO469000  19.084  43.100   5.850
 9851POPC   GL169001  19.062  43.145   6.150
 9851POPC   GL269002  18.929  43.005   6.150
 9851POPC   C1A69003  19.036  43.096   6.450
 9851POPC   D2A69004  19.072  43.088   6.750
 9851POPC   C3A69005  19.041  43.143   7.050
 9851POPC   C4A69006  19.056  43.124   7.350
 9851POPC   C1B69007  18.853  42.993   6.450
 9851POPC   C2B69008  18.892  42.951   6.750
 9851POPC   C3B69009  18.841  42.940   7.050
 9851POPC   C4B69010  18.842  43.015   7.350
 9852POPC   NC369011  25.294  31.501   5.550
 9852POPC   PO469012  25.301  31.439   5.850
 9852POPC   GL169013  25.296  31.429   6.150
 9852POPC   GL269014  25.142  31.378   6.150
 9852POPC   C1A69015  25.283  31.427   6.450
 9852POPC   D2A69016  25.252  31.472   6.750
 9852POPC   C3A69017  25.295  31.457   7.050
 9852POPC   C4A69018  25.225  31.454   7.350
 9852POPC   C1B69019  25.056  31.319   6.450
 9852POPC   C2B69020  25.075  31.315   6.750
 9852POPC   C3B69021  25.041  31.295   7.050
 9852POPC   C4B69022  25.017  31.362   7.350
 9853POPC   NC369023   2.032  24.535   5.550
 9853POPC   PO469024   2.016  24.474   5.850
 9853POPC   GL169025   1.963  24.521   6.150
 9853POPC   GL269026   1.896  24.555   6.150
 9853POPC   C1A69027   1.999  24.507   6.450
 9853POPC   D2A69028   2.019  24.527   6.750
 9853POPC   C3A69029   2.011  24.444   7.050
 9853POPC   C4A69030   2.021  24.463   7.350
 9853POPC   C1B69031   1.795  24.583   6.450
 9853POPC   C2B69032   1.761  24.601   6.750
 9853POPC   C3B69033   1.755  24.585   7.050
 9853POPC   C4B69034   1.734  24.604   7.350
 9854POPC   NC369035  41.543   4.354   5.550
 9854POPC   PO469036  41.581   4.343   5.850
 9854POPC   GL169037  41.564   4.333   6.150
 9854POPC   GL269038  41.650   4.362   6.150
 9854POPC   C1A69039  41.566   4.298   6.450
 9854POPC   D2A69040  41.529   4.321   6.750
 9854POPC   C3A69041  41.540   4.307   7.050
 9854POPC   C4A69042  41.561   4.349   7.350
 9854POPC   C1B69043  41.814   4.389   6.450
 9854POPC   C2B69044  41.809   4.428   6.750
 9854POPC   C3B69045  41.749   4.362   7.050
 9854POPC   C4B69046  41.781   4.412   7.350
 9855POPC   NC369047  16.001  26.068   5.550
 9855POPC   PO469048  15.960  25.996   5.850
 9855POPC   GL169049  15.968  26.069   6.150
 9855POPC   GL269050  15.886  26.168   6.150
 9855POPC   C1A69051  15.950  26.048   6.450
 9855POPC   D2A69052  15.993  26.015   6.750
 9855POPC   C3A69053  15.968  25.992   7.050
 9855POPC   C4A69054  15.915  26.035   7.350
 9855POPC   C1B69055  15.744  26.264   6.450
 9855POPC   C2B69056  15.733  26.196   6.750
 9855POPC   C3B69057  15.761  26.261   7.050
 9855POPC   C4B69058  15.823  26.229   7.350
 9856POPC   NC369059  12.091  20.630   5.550
 9856POPC   PO469060  12.071  20.563   5.850
 9856POPC   GL169061  12.111  20.644   6.150
 9856POPC   GL269062  11.923  20.501   6.150
 9856POPC   C1A69063  12.070  20.583   6.450
 9856POPC   D2A69064  12.062  20.649   6.750
 9856POPC   C3A69065  12.054  20.653   7.050
 9856POPC   C4A69066  12.045  20.561   7.350
 9856POPC   C1B69067  11.879  20.489   6.450
 9856POPC   C2B69068  11.911  20.445   6.750
 9856POPC   C3B69069  11.866  20.472   7.050
 9856POPC   C4B69070  11.870  20.434   7.350
 9857POPC   NC369071  10.544  37.714   5.550
 9857POPC   PO469072  10.522  37.643   5.850
 9857POPC   GL169073  10.515  37.709   6.150
 9857POPC   GL269074  10.575  37.614   6.150
 9857POPC   C1A69075  10.523  37.639   6.450
 9857POPC   D2A69076  10.499  37.721   6.750
 9857POPC   C3A69077  10.548  37.647   7.050
 9857POPC   C4A69078  10.564  37.676   7.350
 9857POPC   C1B69079  10.749  37.479   6.450
 9857POPC   C2B69080  10.716  37.474   6.750
 9857POPC   C3B69081  10.717  37.511   7.050
 9857POPC   C4B69082  10.713  37.518   7.350
 9858POPC   NC369083  31.427  32.231   5.550
 9858POPC   PO469084  31.479  32.293   5.850
 9858POPC   GL169085  31.483  32.270   6.150
 9858POPC   GL269086  31.412  32.360   6.150
 9858POPC   C1A69087  31.426  32.204   6.450
 9858POPC   D2A69088  31.487  32.245   6.750
 9858POPC   C3A69089  31.493  32.210   7.050
 9858POPC   C4A69090  31.470  32.242   7.350
 9858POPC   C1B69091  31.259  32.442   6.450
 9858POPC   C2B69092  31.334  32.420   6.750
 9858POPC   C3B69093  31.327  32.403   7.050
 9858POPC   C4B69094  31.246  32.432   7.350
 9859POPC   NC369095  43.117  15.170   5.550
 9859POPC   PO469096  43.090  15.193   5.850
 9859POPC   GL169097  43.072  15.176   6.150
 9859POPC   GL269098  42.948  15.243   6.150
 9859POPC   C1A69099  43.130  15.219   6.450
 9859POPC   D2A69100  43.096  15.180   6.750
 9859POPC   C3A69101  43.100  15.181   7.050
 9859POPC   C4A69102  43.129  15.211   7.350
 9859POPC   C1B69103  42.823  15.235   6.450
 9859POPC   C2B69104  42.849  15.248   6.750
 9859POPC   C3B69105  42.852  15.281   7.050
 9859POPC   C4B69106  42.867  15.233   7.350
 9860POPC   NC369107  32.273  32.242   5.550
 9860POPC   PO469108  32.225  32.229   5.850
 9860POPC   GL169109  32.271  32.246   6.150
 9860POPC   GL269110  32.272  32.388   6.150
 9860POPC   C1A69111  32.264  32.201   6.450
 9860POPC   D2A69112  32.228  32.235   6.750
 9860POPC   C3A69113  32.293  32.292   7.050
 9860POPC   C4A69114  32.235  32.230   7.350
 9860POPC   C1B69115  32.357  32.478   6.450
 9860POPC   C2B69116  32.425  32.409   6.750
 9860POPC   C3B69117  32.378  32.476   7.050
 9860POPC   C4B69118  32.368  32.451   7.350
 9861POPC   NC369119   0.420  40.009   5.550
 9861POPC   PO469120   0.485  40.036   5.850
 9861POPC   GL169121   0.458  39.968   6.150
 9861POPC   GL269122   0.409  39.902   6.150
 9861POPC   C1A69123   0.481  40.013   6.450
 9861POPC   D2A69124   0.475  40.026   6.750
 9861POPC   C3A69125   0.428  39.968   7.050
 9861POPC   C4A69126   0.396  40.020   7.350
 9861POPC   C1B69127   0.375  39.769   6.450
 9861POPC   C2B69128   0.422  39.737   6.750
 9861POPC   C3B69129   0.402  39.786   7.050
 9861POPC   C4B69130   0.363  39.809   7.350
 9862POPC   NC369131   9.749   4.329   5.550
 9862POPC   PO469132   9.776   4.313   5.850
 9862POPC   GL169133   9.784   4.316   6.150
 9862POPC   GL269134   9.819   4.366   6.150
 9862POPC   C1A69135   9.774   4.332   6.450
 9862POPC   D2A69136   9.787   4.274   6.750
 9862POPC   C3A69137   9.727   4.351   7.050
 9862POPC   C4A69138   9.758   4.306   7.350
 9862POPC   C1B69139   9.996   4.507   6.450
 9862POPC   C2B69140   9.949   4.441   6.750
 9862POPC   C3B69141   9.923   4.513   7.050
 9862POPC   C4B69142   9.981   4.519   7.350
 9863POPC   NC369143  18.268  13.676   5.550
 9863POPC   PO469144  18.291  13.675   5.850
 9863POPC   GL169145  18.249  13.673   6.150
 9863POPC   GL269146  18.439  13.632   6.150
 9863POPC   C1A69147  18.323  13.592   6.450
 9863POPC   D2A69148  18.326  13.642   6.750
 9863POPC   C3A69149  18.279  13.641   7.050
 9863POPC   C4A69150  18.325  13.581   7.350
 9863POPC   C1B69151  18.551  13.664   6.450
 9863POPC   C2B69152  18.532  13.692   6.750
 9863POPC   C3B69153  18.565  13.689   7.050
 9863POPC   C4B69154  18.531  13.693   7.350
 9864POPC   NC369155  21.373  17.489   5.550
 9864POPC   PO469156  21.388  17.548   5.850
 9864POPC   GL169157  21.395  17.504   6.150
 9864POPC   GL269158  21.332  17.574   6.150
 9864POPC   C1A69159  21.425  17.470   6.450
 9864POPC   D2A69160  21.350  17.506   6.750
 9864POPC   C3A69161  21.414  17.471   7.050
 9864POPC   C4A69162  21.348  17.546   7.350
 9864POPC   C1B69163  21.313  17.732   6.450
 9864POPC   C2B69164  21.247  17.731   6.750
 9864POPC   C3B69165  21.258  17.765   7.050
 9864POPC   C4B69166  21.332  17.694   7.350
 9865POPC   NC369167   2.743  33.844   5.550
 9865POPC   PO469168   2.737  33.790   5.850
 9865POPC   GL169169   2.751  33.842   6.150
 9865POPC   GL269170   2.667  33.789   6.150
 9865POPC   C1A69171   2.760  33.796   6.450
 9865POPC   D2A69172   2.793  33.756   6.750
 9865POPC   C3A69173   2.737  33.830   7.050
 9865POPC   C4A69174   2.752  33.845   7.350
 9865POPC   C1B69175   2.483  33.757   6.450
 9865POPC   C2B69176   2.514  33.839   6.750
 9865POPC   C3B69177   2.508  33.845   7.050
 9865POPC   C4B69178   2.523  33.802   7.350
 9866POPC   NC369179  26.025  19.055   5.550
 9866POPC   PO469180  26.084  19.096   5.850
 9866POPC   GL169181  26.059  19.102   6.150
 9866POPC   GL269182  26.055  19.186   6.150
 9866POPC   C1A69183  26.039  19.093   6.450
 9866POPC   D2A69184  26.052  19.103   6.750
 9866POPC   C3A69185  26.089  19.041   7.050
 9866POPC   C4A69186  26.021  19.052   7.350
 9866POPC   C1B69187  26.088  19.342   6.450
 9866POPC   C2B69188  26.143  19.278   6.750
 9866POPC   C3B69189  26.141  19.275   7.050
 9866POPC   C4B69190  26.161  19.292   7.350
 9867POPC   NC369191  27.556  26.789   5.550
 9867POPC   PO469192  27.560  26.773   5.850
 9867POPC   GL169193  27.581  26.786   6.150
 9867POPC   GL269194  27.541  26.710   6.150
 9867POPC   C1A69195  27.629  26.857   6.450
 9867POPC   D2A69196  27.554  26.826   6.750
 9867POPC   C3A69197  27.623  26.813   7.050
 9867POPC   C4A69198  27.592  26.861   7.350
 9867POPC   C1B69199  27.482  26.576   6.450
 9867POPC   C2B69200  27.437  26.567   6.750
 9867POPC   C3B69201  27.488  26.558   7.050
 9867POPC   C4B69202  27.453  26.608   7.350
 9868POPC   NC369203  23.714  12.835   5.550
 9868POPC   PO469204  23.743  12.896   5.850
 9868POPC   GL169205  23.685  12.898   6.150
 9868POPC   GL269206  23.618  12.931   6.150
 9868POPC   C1A69207  23.665  12.869   6.450
 9868POPC   D2A69208  23.744  12.852   6.750
 9868POPC   C3A69209  23.672  12.863   7.050
 9868POPC   C4A69210  23.727  12.823   7.350
 9868POPC   C1B69211  23.545  13.007   6.450
 9868POPC   C2B69212  23.491  13.018   6.750
 9868POPC   C3B69213  23.496  12.968   7.050
 9868POPC   C4B69214  23.502  13.037   7.350
 9869POPC   NC369215  26.837  31.496   5.550
 9869POPC   PO469216  26.804  31.491   5.850
 9869POPC   GL169217  26.827  31.509   6.150
 9869POPC   GL269218  26.677  31.460   6.150
 9869POPC   C1A69219  26.827  31.463   6.450
 9869POPC   D2A69220  26.851  31.496   6.750
 9869POPC   C3A69221  26.834  31.423   7.050
 9869POPC   C4A69222  26.822  31.450   7.350
 9869POPC   C1B69223  26.611  31.358   6.450
 9869POPC   C2B69224  26.606  31.303   6.750
 9869POPC   C3B69225  26.635  31.330   7.050
 9869POPC   C4B69226  26.577  31.381   7.350
 9870POPC   NC369227  36.907  17.547   5.550
 9870POPC   PO469228  36.871  17.497   5.850
 9870POPC   GL169229  36.952  17.494   6.150
 9870POPC   GL269230  36.991  17.420   6.150
 9870POPC   C1A69231  36.921  17.464   6.450
 9870POPC   D2A69232  36.877  17.547   6.750
 9870POPC   C3A69233  36.867  17.544   7.050
 9870POPC   C4A69234  36.952  17.466   7.350
 9870POPC   C1B69235  37.025  17.319   6.450
 9870POPC   C2B69236  37.123  17.292   6.750
 9870POPC   C3B69237  37.028  17.369   7.050
 9870POPC   C4B69238  37.104  17.367   7.350
 9871POPC   NC369239  24.510  39.269   5.550
 9871POPC   PO469240  24.511  39.201   5.850
 9871POPC   GL169241  24.535  39.273   6.150
 9871POPC   GL269242  24.402  39.161   6.150
 9871POPC   C1A69243  24.508  39.206   6.450
 9871POPC   D2A69244  24.512  39.199   6.750
 9871POPC   C3A69245  24.530  39.213   7.050
 9871POPC   C4A69246  24.483  39.264   7.350
 9871POPC   C1B69247  24.351  39.069   6.450
 9871POPC   C2B69248  24.367  39.069   6.750
 9871POPC   C3B69249  24.291  39.070   7.050
 9871POPC   C4B69250  24.339  39.069   7.350
 9872POPC   NC369251  25.288   2.807   5.550
 9872POPC   PO469252  25.247   2.815   5.850
 9872POPC   GL169253  25.295   2.788   6.150
 9872POPC   GL269254  25.151   2.760   6.150
 9872POPC   C1A69255  25.259   2.743   6.450
 9872POPC   D2A69256  25.272   2.768   6.750
 9872POPC   C3A69257  25.235   2.724   7.050
 9872POPC   C4A69258  25.277   2.788   7.350
 9872POPC   C1B69259  25.079   2.617   6.450
 9872POPC   C2B69260  25.023   2.695   6.750
 9872POPC   C3B69261  24.992   2.701   7.050
 9872POPC   C4B69262  24.993   2.627   7.350
 9873POPC   NC369263   0.457  41.593   5.550
 9873POPC   PO469264   0.482  41.517   5.850
 9873POPC   GL169265   0.430  41.604   6.150
 9873POPC   GL269266   0.539  41.478   6.150
 9873POPC   C1A69267   0.464  41.523   6.450
 9873POPC   D2A69268   0.416  41.559   6.750
 9873POPC   C3A69269   0.393  41.546   7.050
 9873POPC   C4A69270   0.485  41.520   7.350
 9873POPC   C1B69271   0.534  41.391   6.450
 9873POPC   C2B69272   0.586  41.396   6.750
 9873POPC   C3B69273   0.619  41.334   7.050
 9873POPC   C4B69274   0.608  41.306   7.350
 9874POPC   NC369275  39.972  36.148   5.550
 9874POPC   PO469276  40.031  36.144   5.850
 9874POPC   GL169277  39.974  36.153   6.150
 9874POPC   GL269278  39.931  36.060   6.150
 9874POPC   C1A69279  39.985  36.103   6.450
 9874POPC   D2A69280  40.005  36.085   6.750
 9874POPC   C3A69281  39.987  36.110   7.050
 9874POPC   C4A69282  40.038  36.149   7.350
 9874POPC   C1B69283  39.857  35.957   6.450
 9874POPC   C2B69284  39.854  35.909   6.750
 9874POPC   C3B69285  39.906  35.942   7.050
 9874POPC   C4B69286  39.838  35.896   7.350
 9875POPC   NC369287  43.844  12.070   5.550
 9875POPC   PO469288  43.903  12.063   5.850
 9875POPC   GL169289  43.888  12.057   6.150
 9875POPC   GL269290  43.775  12.030   6.150
 9875POPC   C1A69291  43.869  12.113   6.450
 9875POPC   D2A69292  43.924  12.094   6.750
 9875POPC   C3A69293  43.869  12.107   7.050
 9875POPC   C4A69294  43.882  12.095   7.350
 9875POPC   C1B69295  43.615  12.079   6.450
 9875POPC   C2B69296  43.599  12.100   6.750
 9875POPC   C3B69297  43.588  12.019   7.050
 9875POPC   C4B69298  43.673  12.040   7.350
 9876POPC   NC369299  42.383  24.481   5.550
 9876POPC   PO469300  42.319  24.462   5.850
 9876POPC   GL169301  42.372  24.441   6.150
 9876POPC   GL269302  42.269  24.410   6.150
 9876POPC   C1A69303  42.309  24.505   6.450
 9876POPC   D2A69304  42.317  24.449   6.750
 9876POPC   C3A69305  42.350  24.488   7.050
 9876POPC   C4A69306  42.346  24.503   7.350
 9876POPC   C1B69307  42.151  24.327   6.450
 9876POPC   C2B69308  42.077  24.399   6.750
 9876POPC   C3B69309  42.126  24.364   7.050
 9876POPC   C4B69310  42.105  24.332   7.350
 9877POPC   NC369311  28.335   2.774   5.550
 9877POPC   PO469312  28.388   2.769   5.850
 9877POPC   GL169313  28.402   2.805   6.150
 9877POPC   GL269314  28.479   2.738   6.150
 9877POPC   C1A69315  28.350   2.716   6.450
 9877POPC   D2A69316  28.347   2.796   6.750
 9877POPC   C3A69317  28.359   2.777   7.050
 9877POPC   C4A69318  28.348   2.776   7.350
 9877POPC   C1B69319  28.664   2.797   6.450
 9877POPC   C2B69320  28.650   2.732   6.750
 9877POPC   C3B69321  28.613   2.814   7.050
 9877POPC   C4B69322  28.588   2.752   7.350
 9878POPC   NC369323   8.925  38.447   5.550
 9878POPC   PO469324   8.929  38.492   5.850
 9878POPC   GL169325   8.986  38.417   6.150
 9878POPC   GL269326   8.915  38.566   6.150
 9878POPC   C1A69327   8.929  38.406   6.450
 9878POPC   D2A69328   8.945  38.421   6.750
 9878POPC   C3A69329   8.971  38.411   7.050
 9878POPC   C4A69330   8.956  38.426   7.350
 9878POPC   C1B69331   8.821  38.590   6.450
 9878POPC   C2B69332   8.736  38.637   6.750
 9878POPC   C3B69333   8.752  38.599   7.050
 9878POPC   C4B69334   8.737  38.614   7.350
 9879POPC   NC369335   7.379  34.570   5.550
 9879POPC   PO469336   7.453  34.587   5.850
 9879POPC   GL169337   7.387  34.594   6.150
 9879POPC   GL269338   7.380  34.427   6.150
 9879POPC   C1A69339   7.415  34.550   6.450
 9879POPC   D2A69340   7.470  34.574   6.750
 9879POPC   C3A69341   7.420  34.571   7.050
 9879POPC   C4A69342   7.438  34.613   7.350
 9879POPC   C1B69343   7.329  34.363   6.450
 9879POPC   C2B69344   7.355  34.308   6.750
 9879POPC   C3B69345   7.338  34.386   7.050
 9879POPC   C4B69346   7.320  34.352   7.350
 9880POPC   NC369347  32.256   4.326   5.550
 9880POPC   PO469348  32.215   4.334   5.850
 9880POPC   GL169349  32.255   4.325   6.150
 9880POPC   GL269350  32.271   4.484   6.150
 9880POPC   C1A69351  32.235   4.356   6.450
 9880POPC   D2A69352  32.243   4.335   6.750
 9880POPC   C3A69353  32.252   4.289   7.050
 9880POPC   C4A69354  32.295   4.269   7.350
 9880POPC   C1B69355  32.236   4.519   6.450
 9880POPC   C2B69356  32.308   4.560   6.750
 9880POPC   C3B69357  32.286   4.551   7.050
 9880POPC   C4B69358  32.299   4.593   7.350
 9881POPC   NC369359  36.950  18.262   5.550
 9881POPC   PO469360  36.917  18.267   5.850
 9881POPC   GL169361  36.894  18.320   6.150
 9881POPC   GL269362  36.886  18.126   6.150
 9881POPC   C1A69363  36.923  18.267   6.450
 9881POPC   D2A69364  36.906  18.257   6.750
 9881POPC   C3A69365  36.909  18.294   7.050
 9881POPC   C4A69366  36.920  18.272   7.350
 9881POPC   C1B69367  36.890  18.021   6.450
 9881POPC   C2B69368  36.969  18.015   6.750
 9881POPC   C3B69369  36.923  17.997   7.050
 9881POPC   C4B69370  36.928  17.999   7.350
 9882POPC   NC369371   2.766   7.437   5.550
 9882POPC   PO469372   2.741   7.410   5.850
 9882POPC   GL169373   2.790   7.434   6.150
 9882POPC   GL269374   2.786   7.498   6.150
 9882POPC   C1A69375   2.719   7.398   6.450
 9882POPC   D2A69376   2.815   7.373   6.750
 9882POPC   C3A69377   2.757   7.410   7.050
 9882POPC   C4A69378   2.815   7.461   7.350
 9882POPC   C1B69379   2.792   7.623   6.450
 9882POPC   C2B69380   2.747   7.690   6.750
 9882POPC   C3B69381   2.730   7.659   7.050
 9882POPC   C4B69382   2.809   7.703   7.350
 9883POPC   NC369383  27.566  31.490   5.550
 9883POPC   PO469384  27.589  31.450   5.850
 9883POPC   GL169385  27.567  31.478   6.150
 9883POPC   GL269386  27.753  31.418   6.150
 9883POPC   C1A69387  27.579  31.500   6.450
 9883POPC   D2A69388  27.545  31.476   6.750
 9883POPC   C3A69389  27.633  31.475   7.050
 9883POPC   C4A69390  27.545  31.424   7.350
 9883POPC   C1B69391  27.839  31.371   6.450
 9883POPC   C2B69392  27.845  31.401   6.750
 9883POPC   C3B69393  27.813  31.388   7.050
 9883POPC   C4B69394  27.789  31.331   7.350
 9884POPC   NC369395  42.336   4.294   5.550
 9884POPC   PO469396  42.353   4.330   5.850
 9884POPC   GL169397  42.296   4.361   6.150
 9884POPC   GL269398  42.196   4.369   6.150
 9884POPC   C1A69399  42.300   4.358   6.450
 9884POPC   D2A69400  42.341   4.335   6.750
 9884POPC   C3A69401  42.303   4.365   7.050
 9884POPC   C4A69402  42.293   4.360   7.350
 9884POPC   C1B69403  42.098   4.419   6.450
 9884POPC   C2B69404  42.145   4.462   6.750
 9884POPC   C3B69405  42.119   4.402   7.050
 9884POPC   C4B69406  42.066   4.446   7.350
 9885POPC   NC369407  36.929   6.688   5.550
 9885POPC   PO469408  36.879   6.640   5.850
 9885POPC   GL169409  36.897   6.684   6.150
 9885POPC   GL269410  36.890   6.544   6.150
 9885POPC   C1A69411  36.923   6.647   6.450
 9885POPC   D2A69412  36.941   6.632   6.750
 9885POPC   C3A69413  36.855   6.613   7.050
 9885POPC   C4A69414  36.920   6.649   7.350
 9885POPC   C1B69415  36.809   6.433   6.450
 9885POPC   C2B69416  36.731   6.406   6.750
 9885POPC   C3B69417  36.768   6.384   7.050
 9885POPC   C4B69418  36.809   6.416   7.350
 9886POPC   NC369419   2.004  26.031   5.550
 9886POPC   PO469420   2.009  26.027   5.850
 9886POPC   GL169421   2.020  26.040   6.150
 9886POPC   GL269422   2.164  26.016   6.150
 9886POPC   C1A69423   2.007  26.046   6.450
 9886POPC   D2A69424   1.996  26.015   6.750
 9886POPC   C3A69425   2.013  26.012   7.050
 9886POPC   C4A69426   2.026  26.075   7.350
 9886POPC   C1B69427   2.232  26.027   6.450
 9886POPC   C2B69428   2.255  26.080   6.750
 9886POPC   C3B69429   2.230  26.025   7.050
 9886POPC   C4B69430   2.228  26.045   7.350
 9887POPC   NC369431  27.597  27.614   5.550
 9887POPC   PO469432  27.603  27.571   5.850
 9887POPC   GL169433  27.573  27.605   6.150
 9887POPC   GL269434  27.685  27.665   6.150
 9887POPC   C1A69435  27.578  27.572   6.450
 9887POPC   D2A69436  27.571  27.597   6.750
 9887POPC   C3A69437  27.555  27.610   7.050
 9887POPC   C4A69438  27.564  27.555   7.350
 9887POPC   C1B69439  27.785  27.719   6.450
 9887POPC   C2B69440  27.840  27.646   6.750
 9887POPC   C3B69441  27.863  27.717   7.050
 9887POPC   C4B69442  27.787  27.721   7.350
 9888POPC   NC369443   2.815  19.815   5.550
 9888POPC   PO469444   2.794  19.825   5.850
 9888POPC   GL169445   2.781  19.853   6.150
 9888POPC   GL269446   2.629  19.832   6.150
 9888POPC   C1A69447   2.779  19.844   6.450
 9888POPC   D2A69448   2.801  19.883   6.750
 9888POPC   C3A69449   2.727  19.858   7.050
 9888POPC   C4A69450   2.753  19.851   7.350
 9888POPC   C1B69451   2.527  19.843   6.450
 9888POPC   C2B69452   2.521  19.772   6.750
 9888POPC   C3B69453   2.529  19.813   7.050
 9888POPC   C4B69454   2.554  19.775   7.350
 9889POPC   NC369455  31.467  29.150   5.550
 9889POPC   PO469456  31.472  29.096   5.850
 9889POPC   GL169457  31.452  29.188   6.150
 9889POPC   GL269458  31.321  29.181   6.150
 9889POPC   C1A69459  31.485  29.147   6.450
 9889POPC   D2A69460  31.464  29.176   6.750
 9889POPC   C3A69461  31.454  29.119   7.050
 9889POPC   C4A69462  31.424  29.105   7.350
 9889POPC   C1B69463  31.216  29.186   6.450
 9889POPC   C2B69464  31.196  29.224   6.750
 9889POPC   C3B69465  31.190  29.187   7.050
 9889POPC   C4B69466  31.210  29.179   7.350
 9890POPC   NC369467  31.516  39.232   5.550
 9890POPC   PO469468  31.482  39.263   5.850
 9890POPC   GL169469  31.456  39.209   6.150
 9890POPC   GL269470  31.340  39.189   6.150
 9890POPC   C1A69471  31.492  39.225   6.450
 9890POPC   D2A69472  31.500  39.261   6.750
 9890POPC   C3A69473  31.432  39.244   7.050
 9890POPC   C4A69474  31.425  39.260   7.350
 9890POPC   C1B69475  31.228  39.176   6.450
 9890POPC   C2B69476  31.215  39.148   6.750
 9890POPC   C3B69477  31.207  39.198   7.050
 9890POPC   C4B69478  31.188  39.110   7.350
 9891POPC   NC369479  43.862  19.017   5.550
 9891POPC   PO469480  43.846  19.020   5.850
 9891POPC   GL169481  43.920  19.085   6.150
 9891POPC   GL269482  43.746  19.104   6.150
 9891POPC   C1A69483  43.836  19.051   6.450
 9891POPC   D2A69484  43.932  19.031   6.750
 9891POPC   C3A69485  43.847  19.053   7.050
 9891POPC   C4A69486  43.878  19.092   7.350
 9891POPC   C1B69487  43.677  19.208   6.450
 9891POPC   C2B69488  43.695  19.234   6.750
 9891POPC   C3B69489  43.677  19.223   7.050
 9891POPC   C4B69490  43.645  19.185   7.350
 9892POPC   NC369491  36.094  19.045   5.550
 9892POPC   PO469492  36.122  19.079   5.850
 9892POPC   GL169493  36.118  19.108   6.150
 9892POPC   GL269494  36.208  18.949   6.150
 9892POPC   C1A69495  36.103  19.016   6.450
 9892POPC   D2A69496  36.143  19.047   6.750
 9892POPC   C3A69497  36.155  19.053   7.050
 9892POPC   C4A69498  36.174  19.029   7.350
 9892POPC   C1B69499  36.290  18.819   6.450
 9892POPC   C2B69500  36.276  18.862   6.750
 9892POPC   C3B69501  36.279  18.818   7.050
 9892POPC   C4B69502  36.270  18.821   7.350
 9893POPC   NC369503  16.002  28.330   5.550
 9893POPC   PO469504  15.957  28.366   5.850
 9893POPC   GL169505  15.971  28.354   6.150
 9893POPC   GL269506  15.872  28.469   6.150
 9893POPC   C1A69507  15.983  28.353   6.450
 9893POPC   D2A69508  15.953  28.394   6.750
 9893POPC   C3A69509  15.947  28.329   7.050
 9893POPC   C4A69510  15.917  28.373   7.350
 9893POPC   C1B69511  15.755  28.484   6.450
 9893POPC   C2B69512  15.728  28.457   6.750
 9893POPC   C3B69513  15.690  28.440   7.050
 9893POPC   C4B69514  15.719  28.452   7.350
 9894POPC   NC369515  40.021   7.452   5.550
 9894POPC   PO469516  40.025   7.434   5.850
 9894POPC   GL169517  40.034   7.454   6.150
 9894POPC   GL269518  40.053   7.542   6.150
 9894POPC   C1A69519  40.020   7.432   6.450
 9894POPC   D2A69520  39.995   7.373   6.750
 9894POPC   C3A69521  40.004   7.453   7.050
 9894POPC   C4A69522  40.008   7.426   7.350
 9894POPC   C1B69523  40.007   7.657   6.450
 9894POPC   C2B69524  40.035   7.698   6.750
 9894POPC   C3B69525  40.069   7.666   7.050
 9894POPC   C4B69526  40.051   7.641   7.350
 9895POPC   NC369527  19.852  38.503   5.550
 9895POPC   PO469528  19.810  38.500   5.850
 9895POPC   GL169529  19.852  38.470   6.150
 9895POPC   GL269530  19.747  38.494   6.150
 9895POPC   C1A69531  19.814  38.457   6.450
 9895POPC   D2A69532  19.856  38.491   6.750
 9895POPC   C3A69533  19.830  38.428   7.050
 9895POPC   C4A69534  19.841  38.427   7.350
 9895POPC   C1B69535  19.680  38.601   6.450
 9895POPC   C2B69536  19.595  38.627   6.750
 9895POPC   C3B69537  19.618  38.605   7.050
 9895POPC   C4B69538  19.628  38.638   7.350
 9896POPC   NC369539  10.542  36.143   5.550
 9896POPC   PO469540  10.544  36.175   5.850
 9896POPC   GL169541  10.505  36.166   6.150
 9896POPC   GL269542  10.680  36.110   6.150
 9896POPC   C1A69543  10.563  36.176   6.450
 9896POPC   D2A69544  10.574  36.093   6.750
 9896POPC   C3A69545  10.505  36.170   7.050
 9896POPC   C4A69546  10.565  36.124   7.350
 9896POPC   C1B69547  10.792  36.070   6.450
 9896POPC   C2B69548  10.781  36.012   6.750
 9896POPC   C3B69549  10.754  35.992   7.050
 9896POPC   C4B69550  10.795  36.007   7.350
 9897POPC   NC369551  36.130  43.096   5.550
 9897POPC   PO469552  36.159  43.087   5.850
 9897POPC   GL169553  36.080  43.102   6.150
 9897POPC   GL269554  36.076  43.231   6.150
 9897POPC   C1A69555  36.093  43.111   6.450
 9897POPC   D2A69556  36.113  43.139   6.750
 9897POPC   C3A69557  36.118  43.115   7.050
 9897POPC   C4A69558  36.127  43.072   7.350
 9897POPC   C1B69559  36.053  43.335   6.450
 9897POPC   C2B69560  36.068  43.315   6.750
 9897POPC   C3B69561  36.093  43.334   7.050
 9897POPC   C4B69562  36.125  43.345   7.350
 9898POPC   NC369563  25.220  28.407   5.550
 9898POPC   PO469564  25.227  28.349   5.850
 9898POPC   GL169565  25.230  28.367   6.150
 9898POPC   GL269566  25.369  28.323   6.150
 9898POPC   C1A69567  25.259  28.335   6.450
 9898POPC   D2A69568  25.220  28.382   6.750
 9898POPC   C3A69569  25.266  28.337   7.050
 9898POPC   C4A69570  25.250  28.325   7.350
 9898POPC   C1B69571  25.405  28.202   6.450
 9898POPC   C2B69572  25.408  28.229   6.750
 9898POPC   C3B69573  25.423  28.224   7.050
 9898POPC   C4B69574  25.443  28.167   7.350
 9899POPC   NC369575  33.064   5.078   5.550
 9899POPC   PO469576  33.021   5.066   5.850
 9899POPC   GL169577  33.025   5.135   6.150
 9899POPC   GL269578  32.905   5.096   6.150
 9899POPC   C1A69579  33.035   5.103   6.450
 9899POPC   D2A69580  33.042   5.097   6.750
 9899POPC   C3A69581  33.064   5.127   7.050
 9899POPC   C4A69582  33.060   5.139   7.350
 9899POPC   C1B69583  32.816   5.048   6.450
 9899POPC   C2B69584  32.813   5.012   6.750
 9899POPC   C3B69585  32.776   5.057   7.050
 9899POPC   C4B69586  32.780   5.056   7.350
 9900POPC   NC369587  15.992  20.581   5.550
 9900POPC   PO469588  15.970  20.623   5.850
 9900POPC   GL169589  15.956  20.625   6.150
 9900POPC   GL269590  16.061  20.666   6.150
 9900POPC   C1A69591  15.941  20.639   6.450
 9900POPC   D2A69592  15.930  20.566   6.750
 9900POPC   C3A69593  15.944  20.621   7.050
 9900POPC   C4A69594  15.980  20.651   7.350
 9900POPC   C1B69595  16.129  20.741   6.450
 9900POPC   C2B69596  16.151  20.760   6.750
 9900POPC   C3B69597  16.138  20.790   7.050
 9900POPC   C4B69598  16.132  20.722   7.350
 9901POPC   NC369599  36.931  19.083   5.550
 9901POPC   PO469600  36.885  19.092   5.850
 9901POPC   GL169601  36.858  19.012   6.150
 9901POPC   GL269602  36.834  19.151   6.150
 9901POPC   C1A69603  36.872  19.026   6.450
 9901POPC   D2A69604  36.908  19.011   6.750
 9901POPC   C3A69605  36.910  19.050   7.050
 9901POPC   C4A69606  36.946  19.041   7.350
 9901POPC   C1B69607  36.773  19.237   6.450
 9901POPC   C2B69608  36.778  19.281   6.750
 9901POPC   C3B69609  36.755  19.232   7.050
 9901POPC   C4B69610  36.743  19.258   7.350
 9902POPC   NC369611  33.060  26.854   5.550
 9902POPC   PO469612  33.039  26.832   5.850
 9902POPC   GL169613  32.988  26.774   6.150
 9902POPC   GL269614  32.984  26.679   6.150
 9902POPC   C1A69615  33.060  26.851   6.450
 9902POPC   D2A69616  33.008  26.829   6.750
 9902POPC   C3A69617  32.980  26.843   7.050
 9902POPC   C4A69618  33.053  26.783   7.350
 9902POPC   C1B69619  32.927  26.550   6.450
 9902POPC   C2B69620  32.982  26.540   6.750
 9902POPC   C3B69621  32.953  26.537   7.050
 9902POPC   C4B69622  32.944  26.619   7.350
 9903POPC   NC369623  36.883  32.271   5.550
 9903POPC   PO469624  36.894  32.200   5.850
 9903POPC   GL169625  36.931  32.205   6.150
 9903POPC   GL269626  36.968  32.140   6.150
 9903POPC   C1A69627  36.926  32.229   6.450
 9903POPC   D2A69628  36.898  32.279   6.750
 9903POPC   C3A69629  36.944  32.219   7.050
 9903POPC   C4A69630  36.871  32.242   7.350
 9903POPC   C1B69631  37.119  32.041   6.450
 9903POPC   C2B69632  37.068  32.109   6.750
 9903POPC   C3B69633  37.033  32.046   7.050
 9903POPC   C4B69634  37.060  32.062   7.350
 9904POPC   NC369635  32.200  38.438   5.550
 9904POPC   PO469636  32.264  38.472   5.850
 9904POPC   GL169637  32.200  38.485   6.150
 9904POPC   GL269638  32.344  38.500   6.150
 9904POPC   C1A69639  32.226  38.420   6.450
 9904POPC   D2A69640  32.211  38.490   6.750
 9904POPC   C3A69641  32.246  38.440   7.050
 9904POPC   C4A69642  32.261  38.411   7.350
 9904POPC   C1B69643  32.418  38.568   6.450
 9904POPC   C2B69644  32.502  38.558   6.750
 9904POPC   C3B69645  32.473  38.600   7.050
 9904POPC   C4B69646  32.449  38.551   7.350
 9905POPC   NC369647  36.078  22.907   5.550
 9905POPC   PO469648  36.103  22.973   5.850
 9905POPC   GL169649  36.172  22.983   6.150
 9905POPC   GL269650  35.978  22.971   6.150
 9905POPC   C1A69651  36.082  22.888   6.450
 9905POPC   D2A69652  36.090  22.934   6.750
 9905POPC   C3A69653  36.084  22.966   7.050
 9905POPC   C4A69654  36.083  22.930   7.350
 9905POPC   C1B69655  35.888  22.989   6.450
 9905POPC   C2B69656  35.913  22.951   6.750
 9905POPC   C3B69657  35.856  22.937   7.050
 9905POPC   C4B69658  35.844  22.937   7.350
 9906POPC   NC369659  17.545  43.837   5.550
 9906POPC   PO469660  17.506  43.921   5.850
 9906POPC   GL169661  17.547  43.896   6.150
 9906POPC   GL269662  17.534  43.816   6.150
 9906POPC   C1A69663  17.525  43.865   6.450
 9906POPC   D2A69664  17.501  43.847   6.750
 9906POPC   C3A69665  17.499  43.860   7.050
 9906POPC   C4A69666  17.536  43.912   7.350
 9906POPC   C1B69667  17.642  43.682   6.450
 9906POPC   C2B69668  17.631  43.682   6.750
 9906POPC   C3B69669  17.572  43.671   7.050
 9906POPC   C4B69670  17.617  43.707   7.350
 9907POPC   NC369671  22.971   6.659   5.550
 9907POPC   PO469672  22.970   6.652   5.850
 9907POPC   GL169673  22.959   6.649   6.150
 9907POPC   GL269674  22.899   6.491   6.150
 9907POPC   C1A69675  22.969   6.687   6.450
 9907POPC   D2A69676  22.932   6.607   6.750
 9907POPC   C3A69677  22.889   6.601   7.050
 9907POPC   C4A69678  22.971   6.683   7.350
 9907POPC   C1B69679  22.882   6.409   6.450
 9907POPC   C2B69680  22.866   6.451   6.750
 9907POPC   C3B69681  22.881   6.453   7.050
 9907POPC   C4B69682  22.865   6.419   7.350
 9908POPC   NC369683   7.447  39.182   5.550
 9908POPC   PO469684   7.463  39.277   5.850
 9908POPC   GL169685   7.435  39.191   6.150
 9908POPC   GL269686   7.399  39.331   6.150
 9908POPC   C1A69687   7.436  39.230   6.450
 9908POPC   D2A69688   7.404  39.193   6.750
 9908POPC   C3A69689   7.427  39.250   7.050
 9908POPC   C4A69690   7.464  39.208   7.350
 9908POPC   C1B69691   7.259  39.454   6.450
 9908POPC   C2B69692   7.279  39.440   6.750
 9908POPC   C3B69693   7.312  39.400   7.050
 9908POPC   C4B69694   7.304  39.456   7.350
 9909POPC   NC369695  29.932  40.021   5.550
 9909POPC   PO469696  29.873  39.990   5.850
 9909POPC   GL169697  29.938  40.001   6.150
 9909POPC   GL269698  29.793  40.036   6.150
 9909POPC   C1A69699  29.935  39.969   6.450
 9909POPC   D2A69700  29.884  40.032   6.750
 9909POPC   C3A69701  29.953  40.044   7.050
 9909POPC   C4A69702  29.937  40.001   7.350
 9909POPC   C1B69703  29.686  39.982   6.450
 9909POPC   C2B69704  29.667  40.003   6.750
 9909POPC   C3B69705  29.693  39.952   7.050
 9909POPC   C4B69706  29.649  39.945   7.350
 9910POPC   NC369707   7.440  17.481   5.550
 9910POPC   PO469708   7.419  17.536   5.850
 9910POPC   GL169709   7.374  17.551   6.150
 9910POPC   GL269710   7.433  17.622   6.150
 9910POPC   C1A69711   7.374  17.545   6.450
 9910POPC   D2A69712   7.408  17.532   6.750
 9910POPC   C3A69713   7.467  17.462   7.050
 9910POPC   C4A69714   7.413  17.552   7.350
 9910POPC   C1B69715   7.493  17.724   6.450
 9910POPC   C2B69716   7.550  17.722   6.750
 9910POPC   C3B69717   7.538  17.752   7.050
 9910POPC   C4B69718   7.496  17.692   7.350
 9911POPC   NC369719  23.724  23.705   5.550
 9911POPC   PO469720  23.716  23.743   5.850
 9911POPC   GL169721  23.718  23.709   6.150
 9911POPC   GL269722  23.621  23.705   6.150
 9911POPC   C1A69723  23.671  23.735   6.450
 9911POPC   D2A69724  23.752  23.723   6.750
 9911POPC   C3A69725  23.693  23.713   7.050
 9911POPC   C4A69726  23.665  23.698   7.350
 9911POPC   C1B69727  23.490  23.654   6.450
 9911POPC   C2B69728  23.463  23.681   6.750
 9911POPC   C3B69729  23.512  23.623   7.050
 9911POPC   C4B69730  23.466  23.620   7.350
 9912POPC   NC369731  35.366   9.711   5.550
 9912POPC   PO469732  35.331   9.778   5.850
 9912POPC   GL169733  35.350   9.760   6.150
 9912POPC   GL269734  35.509   9.821   6.150
 9912POPC   C1A69735  35.354   9.773   6.450
 9912POPC   D2A69736  35.350   9.757   6.750
 9912POPC   C3A69737  35.373   9.785   7.050
 9912POPC   C4A69738  35.321   9.768   7.350
 9912POPC   C1B69739  35.598   9.897   6.450
 9912POPC   C2B69740  35.592   9.897   6.750
 9912POPC   C3B69741  35.589   9.878   7.050
 9912POPC   C4B69742  35.545   9.858   7.350
 9913POPC   NC369743  38.497   1.233   5.550
 9913POPC   PO469744  38.407   1.237   5.850
 9913POPC   GL169745  38.450   1.235   6.150
 9913POPC   GL269746  38.443   1.059   6.150
 9913POPC   C1A69747  38.504   1.248   6.450
 9913POPC   D2A69748  38.480   1.209   6.750
 9913POPC   C3A69749  38.453   1.170   7.050
 9913POPC   C4A69750  38.407   1.228   7.350
 9913POPC   C1B69751  38.411   0.929   6.450
 9913POPC   C2B69752  38.403   1.005   6.750
 9913POPC   C3B69753  38.440   0.934   7.050
 9913POPC   C4B69754  38.489   0.926   7.350
 9914POPC   NC369755  32.297   1.175   5.550
 9914POPC   PO469756  32.235   1.207   5.850
 9914POPC   GL169757  32.278   1.207   6.150
 9914POPC   GL269758  32.182   1.308   6.150
 9914POPC   C1A69759  32.201   1.185   6.450
 9914POPC   D2A69760  32.216   1.214   6.750
 9914POPC   C3A69761  32.288   1.208   7.050
 9914POPC   C4A69762  32.239   1.260   7.350
 9914POPC   C1B69763  32.026   1.353   6.450
 9914POPC   C2B69764  32.003   1.345   6.750
 9914POPC   C3B69765  32.057   1.364   7.050
 9914POPC   C4B69766  32.004   1.395   7.350
 9915POPC   NC369767  37.684   2.735   5.550
 9915POPC   PO469768  37.689   2.786   5.850
 9915POPC   GL169769  37.699   2.735   6.150
 9915POPC   GL269770  37.774   2.773   6.150
 9915POPC   C1A69771  37.709   2.804   6.450
 9915POPC   D2A69772  37.704   2.756   6.750
 9915POPC   C3A69773  37.716   2.777   7.050
 9915POPC   C4A69774  37.703   2.769   7.350
 9915POPC   C1B69775  37.902   2.829   6.450
 9915POPC   C2B69776  37.895   2.827   6.750
 9915POPC   C3B69777  37.960   2.804   7.050
 9915POPC   C4B69778  37.961   2.817   7.350
 9916POPC   NC369779  41.593  10.510   5.550
 9916POPC   PO469780  41.532  10.478   5.850
 9916POPC   GL169781  41.597  10.542   6.150
 9916POPC   GL269782  41.475  10.564   6.150
 9916POPC   C1A69783  41.547  10.480   6.450
 9916POPC   D2A69784  41.565  10.562   6.750
 9916POPC   C3A69785  41.541  10.535   7.050
 9916POPC   C4A69786  41.560  10.529   7.350
 9916POPC   C1B69787  41.304  10.508   6.450
 9916POPC   C2B69788  41.327  10.593   6.750
 9916POPC   C3B69789  41.264  10.523   7.050
 9916POPC   C4B69790  41.342  10.516   7.350
 9917POPC   NC369791  33.816  25.282   5.550
 9917POPC   PO469792  33.840  25.251   5.850
 9917POPC   GL169793  33.812  25.293   6.150
 9917POPC   GL269794  33.868  25.224   6.150
 9917POPC   C1A69795  33.786  25.305   6.450
 9917POPC   D2A69796  33.758  25.288   6.750
 9917POPC   C3A69797  33.811  25.221   7.050
 9917POPC   C4A69798  33.846  25.286   7.350
 9917POPC   C1B69799  34.018  25.116   6.450
 9917POPC   C2B69800  34.047  25.144   6.750
 9917POPC   C3B69801  34.021  25.190   7.050
 9917POPC   C4B69802  34.020  25.185   7.350
 9918POPC   NC369803   9.789  12.077   5.550
 9918POPC   PO469804   9.704  12.072   5.850
 9918POPC   GL169805   9.750  12.074   6.150
 9918POPC   GL269806   9.693  12.145   6.150
 9918POPC   C1A69807   9.743  12.081   6.450
 9918POPC   D2A69808   9.718  12.093   6.750
 9918POPC   C3A69809   9.715  12.100   7.050
 9918POPC   C4A69810   9.794  12.072   7.350
 9918POPC   C1B69811   9.636  12.299   6.450
 9918POPC   C2B69812   9.591  12.272   6.750
 9918POPC   C3B69813   9.556  12.289   7.050
 9918POPC   C4B69814   9.641  12.311   7.350
 9919POPC   NC369815  35.334  21.359   5.550
 9919POPC   PO469816  35.365  21.432   5.850
 9919POPC   GL169817  35.366  21.412   6.150
 9919POPC   GL269818  35.474  21.406   6.150
 9919POPC   C1A69819  35.358  21.381   6.450
 9919POPC   D2A69820  35.400  21.365   6.750
 9919POPC   C3A69821  35.334  21.362   7.050
 9919POPC   C4A69822  35.369  21.431   7.350
 9919POPC   C1B69823  35.597  21.327   6.450
 9919POPC   C2B69824  35.646  21.386   6.750
 9919POPC   C3B69825  35.629  21.351   7.050
 9919POPC   C4B69826  35.633  21.361   7.350
 9920POPC   NC369827   4.283   0.388   5.550
 9920POPC   PO469828   4.316   0.423   5.850
 9920POPC   GL169829   4.291   0.433   6.150
 9920POPC   GL269830   4.378   0.535   6.150
 9920POPC   C1A69831   4.347   0.443   6.450
 9920POPC   D2A69832   4.297   0.460   6.750
 9920POPC   C3A69833   4.307   0.469   7.050
 9920POPC   C4A69834   4.284   0.458   7.350
 9920POPC   C1B69835   4.422   0.670   6.450
 9920POPC   C2B69836   4.354   0.625   6.750
 9920POPC   C3B69837   4.349   0.697   7.050
 9920POPC   C4B69838   4.359   0.696   7.350
 9921POPC   NC369839  40.765  19.839   5.550
 9921POPC   PO469840  40.759  19.823   5.850
 9921POPC   GL169841  40.819  19.853   6.150
 9921POPC   GL269842  40.913  19.736   6.150
 9921POPC   C1A69843  40.829  19.796   6.450
 9921POPC   D2A69844  40.786  19.850   6.750
 9921POPC   C3A69845  40.793  19.879   7.050
 9921POPC   C4A69846  40.781  19.796   7.350
 9921POPC   C1B69847  40.979  19.759   6.450
 9921POPC   C2B69848  41.013  19.746   6.750
 9921POPC   C3B69849  41.056  19.748   7.050
 9921POPC   C4B69850  40.965  19.758   7.350
 9922POPC   NC369851  13.670  29.156   5.550
 9922POPC   PO469852  13.630  29.138   5.850
 9922POPC   GL169853  13.648  29.156   6.150
 9922POPC   GL269854  13.750  29.039   6.150
 9922POPC   C1A69855  13.608  29.127   6.450
 9922POPC   D2A69856  13.601  29.184   6.750
 9922POPC   C3A69857  13.625  29.163   7.050
 9922POPC   C4A69858  13.623  29.124   7.350
 9922POPC   C1B69859  13.857  29.021   6.450
 9922POPC   C2B69860  13.841  28.979   6.750
 9922POPC   C3B69861  13.853  28.980   7.050
 9922POPC   C4B69862  13.820  29.029   7.350
 9923POPC   NC369863  30.702  40.741   5.550
 9923POPC   PO469864  30.720  40.823   5.850
 9923POPC   GL169865  30.665  40.799   6.150
 9923POPC   GL269866  30.846  40.762   6.150
 9923POPC   C1A69867  30.661  40.826   6.450
 9923POPC   D2A69868  30.664  40.759   6.750
 9923POPC   C3A69869  30.715  40.761   7.050
 9923POPC   C4A69870  30.661  40.812   7.350
 9923POPC   C1B69871  30.984  40.783   6.450
 9923POPC   C2B69872  30.950  40.841   6.750
 9923POPC   C3B69873  30.909  40.774   7.050
 9923POPC   C4B69874  30.954  40.838   7.350
 9924POPC   NC369875  18.239  30.671   5.550
 9924POPC   PO469876  18.302  30.725   5.850
 9924POPC   GL169877  18.238  30.647   6.150
 9924POPC   GL269878  18.205  30.779   6.150
 9924POPC   C1A69879  18.257  30.744   6.450
 9924POPC   D2A69880  18.280  30.739   6.750
 9924POPC   C3A69881  18.290  30.649   7.050
 9924POPC   C4A69882  18.235  30.702   7.350
 9924POPC   C1B69883  17.993  30.715   6.450
 9924POPC   C2B69884  17.996  30.769   6.750
 9924POPC   C3B69885  18.086  30.797   7.050
 9924POPC   C4B69886  18.008  30.725   7.350
 9925POPC   NC369887  22.149  32.244   5.550
 9925POPC   PO469888  22.176  32.214   5.850
 9925POPC   GL169889  22.119  32.280   6.150
 9925POPC   GL269890  22.050  32.173   6.150
 9925POPC   C1A69891  22.210  32.255   6.450
 9925POPC   D2A69892  22.139  32.203   6.750
 9925POPC   C3A69893  22.138  32.262   7.050
 9925POPC   C4A69894  22.128  32.287   7.350
 9925POPC   C1B69895  21.950  32.174   6.450
 9925POPC   C2B69896  21.954  32.118   6.750
 9925POPC   C3B69897  21.927  32.133   7.050
 9925POPC   C4B69898  21.907  32.197   7.350
 9926POPC   NC369899  22.925   5.080   5.550
 9926POPC   PO469900  22.955   5.114   5.850
 9926POPC   GL169901  22.927   5.117   6.150
 9926POPC   GL269902  22.865   4.946   6.150
 9926POPC   C1A69903  22.920   5.128   6.450
 9926POPC   D2A69904  22.906   5.057   6.750
 9926POPC   C3A69905  22.913   5.137   7.050
 9926POPC   C4A69906  22.910   5.132   7.350
 9926POPC   C1B69907  22.892   4.876   6.450
 9926POPC   C2B69908  22.891   4.896   6.750
 9926POPC   C3B69909  22.878   4.896   7.050
 9926POPC   C4B69910  22.901   4.814   7.350
 9927POPC   NC369911   6.683  39.253   5.550
 9927POPC   PO469912   6.613  39.230   5.850
 9927POPC   GL169913   6.632  39.268   6.150
 9927POPC   GL269914   6.609  39.330   6.150
 9927POPC   C1A69915   6.659  39.221   6.450
 9927POPC   D2A69916   6.691  39.224   6.750
 9927POPC   C3A69917   6.612  39.246   7.050
 9927POPC   C4A69918   6.663  39.243   7.350
 9927POPC   C1B69919   6.563  39.440   6.450
 9927POPC   C2B69920   6.635  39.426   6.750
 9927POPC   C3B69921   6.599  39.449   7.050
 9927POPC   C4B69922   6.636  39.460   7.350
 9928POPC   NC369923  40.038  37.688   5.550
 9928POPC   PO469924  39.966  37.670   5.850
 9928POPC   GL169925  40.043  37.725   6.150
 9928POPC   GL269926  39.987  37.768   6.150
 9928POPC   C1A69927  40.013  37.636   6.450
 9928POPC   D2A69928  39.973  37.687   6.750
 9928POPC   C3A69929  40.011  37.680   7.050
 9928POPC   C4A69930  39.968  37.717   7.350
 9928POPC   C1B69931  40.050  37.962   6.450
 9928POPC   C2B69932  39.998  37.934   6.750
 9928POPC   C3B69933  40.007  37.919   7.050
 9928POPC   C4B69934  40.030  37.920   7.350
 9929POPC   NC369935   2.759  40.038   5.550
 9929POPC   PO469936   2.763  39.977   5.850
 9929POPC   GL169937   2.716  39.970   6.150
 9929POPC   GL269938   2.810  39.925   6.150
 9929POPC   C1A69939   2.724  40.040   6.450
 9929POPC   D2A69940   2.813  40.038   6.750
 9929POPC   C3A69941   2.722  40.004   7.050
 9929POPC   C4A69942   2.762  40.041   7.350
 9929POPC   C1B69943   2.764  39.727   6.450
 9929POPC   C2B69944   2.801  39.762   6.750
 9929POPC   C3B69945   2.823  39.790   7.050
 9929POPC   C4B69946   2.766  39.741   7.350
 9930POPC   NC369947  40.007  15.207   5.550
 9930POPC   PO469948  40.039  15.211   5.850
 9930POPC   GL169949  40.044  15.153   6.150
 9930POPC   GL269950  39.835  15.206   6.150
 9930POPC   C1A69951  40.020  15.142   6.450
 9930POPC   D2A69952  40.020  15.213   6.750
 9930POPC   C3A69953  39.979  15.162   7.050
 9930POPC   C4A69954  40.008  15.198   7.350
 9930POPC   C1B69955  39.725  15.240   6.450
 9930POPC   C2B69956  39.761  15.244   6.750
 9930POPC   C3B69957  39.734  15.237   7.050
 9930POPC   C4B69958  39.722  15.187   7.350
 9931POPC   NC369959  31.452  12.074   5.550
 9931POPC   PO469960  31.474  12.068   5.850
 9931POPC   GL169961  31.498  12.083   6.150
 9931POPC   GL269962  31.543  11.990   6.150
 9931POPC   C1A69963  31.449  12.031   6.450
 9931POPC   D2A69964  31.484  12.113   6.750
 9931POPC   C3A69965  31.466  12.074   7.050
 9931POPC   C4A69966  31.489  12.039   7.350
 9931POPC   C1B69967  31.581  11.831   6.450
 9931POPC   C2B69968  31.606  11.901   6.750
 9931POPC   C3B69969  31.629  11.835   7.050
 9931POPC   C4B69970  31.557  11.884   7.350
 9932POPC   NC369971   1.248  33.015   5.550
 9932POPC   PO469972   1.256  33.010   5.850
 9932POPC   GL169973   1.201  33.060   6.150
 9932POPC   GL269974   1.172  32.955   6.150
 9932POPC   C1A69975   1.255  33.017   6.450
 9932POPC   D2A69976   1.243  33.063   6.750
 9932POPC   C3A69977   1.211  33.018   7.050
 9932POPC   C4A69978   1.254  33.008   7.350
 9932POPC   C1B69979   1.068  32.753   6.450
 9932POPC   C2B69980   1.141  32.812   6.750
 9932POPC   C3B69981   1.142  32.768   7.050
 9932POPC   C4B69982   1.088  32.775   7.350
 9933POPC   NC369983  16.683  33.773   5.550
 9933POPC   PO469984  16.708  33.799   5.850
 9933POPC   GL169985  16.710  33.847   6.150
 9933POPC   GL269986  16.601  33.822   6.150
 9933POPC   C1A69987  16.743  33.813   6.450
 9933POPC   D2A69988  16.717  33.838   6.750
 9933POPC   C3A69989  16.699  33.836   7.050
 9933POPC   C4A69990  16.757  33.843   7.350
 9933POPC   C1B69991  16.538  33.916   6.450
 9933POPC   C2B69992  16.504  33.943   6.750
 9933POPC   C3B69993  16.495  33.890   7.050
 9933POPC   C4B69994  16.477  33.935   7.350
 9934POPC   NC369995   1.974  40.036   5.550
 9934POPC   PO469996   1.978  40.018   5.850
 9934POPC   GL169997   1.950  40.038   6.150
 9934POPC   GL269998   1.986  40.133   6.150
 9934POPC   C1A69999   2.020  39.959   6.450
 9934POPC   D2A70000   2.001  40.043   6.750
 9934POPC   C3A70001   1.974  40.013   7.050
 9934POPC   C4A70002   1.948  39.984   7.350
 9934POPC   C1B70003   2.019  40.206   6.450
 9934POPC   C2B70004   2.009  40.240   6.750
 9934POPC   C3B70005   2.039  40.251   7.050
 9934POPC   C4B70006   1.992  40.239   7.350
 9935POPC   NC370007  35.331  12.078   5.550
 9935POPC   PO470008  35.331  12.070   5.850
 9935POPC   GL170009  35.381  12.077   6.150
 9935POPC   GL270010  35.232  12.162   6.150
 9935POPC   C1A70011  35.349  12.063   6.450
 9935POPC   D2A70012  35.345  12.096   6.750
 9935POPC   C3A70013  35.372  12.053   7.050
 9935POPC   C4A70014  35.314  12.096   7.350
 9935POPC   C1B70015  35.150  12.290   6.450
 9935POPC   C2B70016  35.133  12.271   6.750
 9935POPC   C3B70017  35.165  12.233   7.050
 9935POPC   C4B70018  35.195  12.286   7.350
 9936POPC   NC370019   9.732  15.213   5.550
 9936POPC   PO470020   9.760  15.164   5.850
 9936POPC   GL170021   9.753  15.147   6.150
 9936POPC   GL270022   9.867  15.280   6.150
 9936POPC   C1A70023   9.699  15.184   6.450
 9936POPC   D2A70024   9.730  15.140   6.750
 9936POPC   C3A70025   9.774  15.134   7.050
 9936POPC   C4A70026   9.780  15.179   7.350
 9936POPC   C1B70027   9.955  15.266   6.450
 9936POPC   C2B70028   9.927  15.313   6.750
 9936POPC   C3B70029   9.973  15.270   7.050
 9936POPC   C4B70030   9.936  15.336   7.350
 9937POPC   NC370031  31.488  37.644   5.550
 9937POPC   PO470032  31.495  37.719   5.850
 9937POPC   GL170033  31.439  37.718   6.150
 9937POPC   GL270034  31.527  37.578   6.150
 9937POPC   C1A70035  31.510  37.677   6.450
 9937POPC   D2A70036  31.467  37.644   6.750
 9937POPC   C3A70037  31.518  37.721   7.050
 9937POPC   C4A70038  31.489  37.690   7.350
 9937POPC   C1B70039  31.489  37.455   6.450
 9937POPC   C2B70040  31.552  37.391   6.750
 9937POPC   C3B70041  31.554  37.464   7.050
 9937POPC   C4B70042  31.538  37.446   7.350
 9938POPC   NC370043  41.599  30.652   5.550
 9938POPC   PO470044  41.562  30.683   5.850
 9938POPC   GL170045  41.555  30.680   6.150
 9938POPC   GL270046  41.639  30.737   6.150
 9938POPC   C1A70047  41.516  30.695   6.450
 9938POPC   D2A70048  41.512  30.673   6.750
 9938POPC   C3A70049  41.543  30.706   7.050
 9938POPC   C4A70050  41.605  30.729   7.350
 9938POPC   C1B70051  41.779  30.868   6.450
 9938POPC   C2B70052  41.719  30.831   6.750
 9938POPC   C3B70053  41.738  30.842   7.050
 9938POPC   C4B70054  41.714  30.895   7.350
 9939POPC   NC370055  37.676  19.835   5.550
 9939POPC   PO470056  37.633  19.840   5.850
 9939POPC   GL170057  37.651  19.819   6.150
 9939POPC   GL270058  37.571  19.842   6.150
 9939POPC   C1A70059  37.658  19.792   6.450
 9939POPC   D2A70060  37.638  19.850   6.750
 9939POPC   C3A70061  37.687  19.787   7.050
 9939POPC   C4A70062  37.712  19.833   7.350
 9939POPC   C1B70063  37.436  19.791   6.450
 9939POPC   C2B70064  37.419  19.766   6.750
 9939POPC   C3B70065  37.442  19.722   7.050
 9939POPC   C4B70066  37.400  19.734   7.350
 9940POPC   NC370067  43.154  13.628   5.550
 9940POPC   PO470068  43.129  13.634   5.850
 9940POPC   GL170069  43.088  13.633   6.150
 9940POPC   GL270070  43.265  13.637   6.150
 9940POPC   C1A70071  43.079  13.616   6.450
 9940POPC   D2A70072  43.070  13.645   6.750
 9940POPC   C3A70073  43.085  13.595   7.050
 9940POPC   C4A70074  43.084  13.599   7.350
 9940POPC   C1B70075  43.328  13.585   6.450
 9940POPC   C2B70076  43.334  13.619   6.750
 9940POPC   C3B70077  43.360  13.620   7.050
 9940POPC   C4B70078  43.313  13.585   7.350
 9941POPC   NC370079   8.943  24.441   5.550
 9941POPC   PO470080   9.022  24.482   5.850
 9941POPC   GL170081   8.930  24.498   6.150
 9941POPC   GL270082   9.021  24.387   6.150
 9941POPC   C1A70083   9.012  24.449   6.450
 9941POPC   D2A70084   8.932  24.480   6.750
 9941POPC   C3A70085   8.937  24.511   7.050
 9941POPC   C4A70086   8.994  24.493   7.350
 9941POPC   C1B70087   9.068  24.270   6.450
 9941POPC   C2B70088   9.067  24.241   6.750
 9941POPC   C3B70089   9.076  24.241   7.050
 9941POPC   C4B70090   9.011  24.302   7.350
 9942POPC   NC370091  43.850  33.844   5.550
 9942POPC   PO470092  43.859  33.794   5.850
 9942POPC   GL170093  43.892  33.826   6.150
 9942POPC   GL270094  43.727  33.762   6.150
 9942POPC   C1A70095  43.886  33.799   6.450
 9942POPC   D2A70096  43.878  33.807   6.750
 9942POPC   C3A70097  43.900  33.783   7.050
 9942POPC   C4A70098  43.931  33.833   7.350
 9942POPC   C1B70099  43.649  33.835   6.450
 9942POPC   C2B70100  43.669  33.836   6.750
 9942POPC   C3B70101  43.619  33.772   7.050
 9942POPC   C4B70102  43.597  33.854   7.350
 9943POPC   NC370103  39.962  12.092   5.550
 9943POPC   PO470104  39.995  12.101   5.850
 9943POPC   GL170105  40.006  12.041   6.150
 9943POPC   GL270106  40.069  12.163   6.150
 9943POPC   C1A70107  40.053  12.064   6.450
 9943POPC   D2A70108  39.962  12.040   6.750
 9943POPC   C3A70109  40.032  12.086   7.050
 9943POPC   C4A70110  40.052  12.116   7.350
 9943POPC   C1B70111  40.238  12.205   6.450
 9943POPC   C2B70112  40.231  12.192   6.750
 9943POPC   C3B70113  40.264  12.175   7.050
 9943POPC   C4B70114  40.232  12.178   7.350
 9944POPC   NC370115   1.971  28.367   5.550
 9944POPC   PO470116   1.941  28.358   5.850
 9944POPC   GL170117   2.039  28.370   6.150
 9944POPC   GL270118   2.073  28.532   6.150
 9944POPC   C1A70119   2.012  28.347   6.450
 9944POPC   D2A70120   2.026  28.380   6.750
 9944POPC   C3A70121   1.962  28.355   7.050
 9944POPC   C4A70122   2.019  28.321   7.350
 9944POPC   C1B70123   2.047  28.555   6.450
 9944POPC   C2B70124   2.064  28.582   6.750
 9944POPC   C3B70125   2.111  28.565   7.050
 9944POPC   C4B70126   2.123  28.631   7.350
 9945POPC   NC370127  29.177   0.447   5.550
 9945POPC   PO470128  29.114   0.455   5.850
 9945POPC   GL170129  29.109   0.479   6.150
 9945POPC   GL270130  29.232   0.310   6.150
 9945POPC   C1A70131  29.124   0.422   6.450
 9945POPC   D2A70132  29.172   0.427   6.750
 9945POPC   C3A70133  29.120   0.470   7.050
 9945POPC   C4A70134  29.098   0.461   7.350
 9945POPC   C1B70135  29.199   0.221   6.450
 9945POPC   C2B70136  29.280   0.217   6.750
 9945POPC   C3B70137  29.261   0.175   7.050
 9945POPC   C4B70138  29.249   0.160   7.350
 9946POPC   NC370139   0.409   6.650   5.550
 9946POPC   PO470140   0.479   6.669   5.850
 9946POPC   GL170141   0.403   6.643   6.150
 9946POPC   GL270142   0.401   6.560   6.150
 9946POPC   C1A70143   0.464   6.658   6.450
 9946POPC   D2A70144   0.430   6.659   6.750
 9946POPC   C3A70145   0.435   6.635   7.050
 9946POPC   C4A70146   0.457   6.695   7.350
 9946POPC   C1B70147   0.339   6.454   6.450
 9946POPC   C2B70148   0.357   6.423   6.750
 9946POPC   C3B70149   0.337   6.455   7.050
 9946POPC   C4B70150   0.346   6.391   7.350
 9947POPC   NC370151  32.994   6.676   5.550
 9947POPC   PO470152  33.042   6.640   5.850
 9947POPC   GL170153  33.068   6.608   6.150
 9947POPC   GL270154  32.934   6.627   6.150
 9947POPC   C1A70155  33.041   6.616   6.450
 9947POPC   D2A70156  33.030   6.646   6.750
 9947POPC   C3A70157  33.012   6.627   7.050
 9947POPC   C4A70158  33.008   6.687   7.350
 9947POPC   C1B70159  32.794   6.496   6.450
 9947POPC   C2B70160  32.770   6.590   6.750
 9947POPC   C3B70161  32.756   6.582   7.050
 9947POPC   C4B70162  32.821   6.585   7.350
 9948POPC   NC370163  37.704  26.811   5.550
 9948POPC   PO470164  37.679  26.813   5.850
 9948POPC   GL170165  37.687  26.796   6.150
 9948POPC   GL270166  37.765  26.680   6.150
 9948POPC   C1A70167  37.639  26.810   6.450
 9948POPC   D2A70168  37.720  26.789   6.750
 9948POPC   C3A70169  37.685  26.825   7.050
 9948POPC   C4A70170  37.656  26.858   7.350
 9948POPC   C1B70171  37.784  26.661   6.450
 9948POPC   C2B70172  37.821  26.607   6.750
 9948POPC   C3B70173  37.875  26.648   7.050
 9948POPC   C4B70174  37.813  26.630   7.350
 9949POPC   NC370175  24.460  32.209   5.550
 9949POPC   PO470176  24.494  32.282   5.850
 9949POPC   GL170177  24.472  32.278   6.150
 9949POPC   GL270178  24.603  32.367   6.150
 9949POPC   C1A70179  24.518  32.209   6.450
 9949POPC   D2A70180  24.489  32.270   6.750
 9949POPC   C3A70181  24.452  32.229   7.050
 9949POPC   C4A70182  24.518  32.211   7.350
 9949POPC   C1B70183  24.701  32.419   6.450
 9949POPC   C2B70184  24.618  32.447   6.750
 9949POPC   C3B70185  24.705  32.420   7.050
 9949POPC   C4B70186  24.653  32.451   7.350
 9950POPC   NC370187   3.576   9.003   5.550
 9950POPC   PO470188   3.546   8.995   5.850
 9950POPC   GL170189   3.556   8.966   6.150
 9950POPC   GL270190   3.391   8.885   6.150
 9950POPC   C1A70191   3.523   9.018   6.450
 9950POPC   D2A70192   3.513   8.974   6.750
 9950POPC   C3A70193   3.525   9.012   7.050
 9950POPC   C4A70194   3.514   8.937   7.350
 9950POPC   C1B70195   3.281   8.887   6.450
 9950POPC   C2B70196   3.277   8.875   6.750
 9950POPC   C3B70197   3.264   8.888   7.050
 9950POPC   C4B70198   3.320   8.871   7.350
 9951POPC   NC370199   2.779   4.308   5.550
 9951POPC   PO470200   2.807   4.278   5.850
 9951POPC   GL170201   2.716   4.285   6.150
 9951POPC   GL270202   2.634   4.271   6.150
 9951POPC   C1A70203   2.797   4.286   6.450
 9951POPC   D2A70204   2.746   4.367   6.750
 9951POPC   C3A70205   2.810   4.276   7.050
 9951POPC   C4A70206   2.801   4.332   7.350
 9951POPC   C1B70207   2.542   4.193   6.450
 9951POPC   C2B70208   2.547   4.225   6.750
 9951POPC   C3B70209   2.555   4.188   7.050
 9951POPC   C4B70210   2.507   4.138   7.350
 9952POPC   NC370211  15.987  24.499   5.550
 9952POPC   PO470212  15.943  24.496   5.850
 9952POPC   GL170213  15.915  24.537   6.150
 9952POPC   GL270214  15.883  24.604   6.150
 9952POPC   C1A70215  15.983  24.502   6.450
 9952POPC   D2A70216  15.931  24.470   6.750
 9952POPC   C3A70217  15.947  24.476   7.050
 9952POPC   C4A70218  15.943  24.530   7.350
 9952POPC   C1B70219  15.760  24.674   6.450
 9952POPC   C2B70220  15.752  24.686   6.750
 9952POPC   C3B70221  15.834  24.642   7.050
 9952POPC   C4B70222  15.776  24.652   7.350
 9953POPC   NC370223  10.487  29.165   5.550
 9953POPC   PO470224  10.474  29.172   5.850
 9953POPC   GL170225  10.536  29.191   6.150
 9953POPC   GL270226  10.630  29.030   6.150
 9953POPC   C1A70227  10.570  29.101   6.450
 9953POPC   D2A70228  10.524  29.177   6.750
 9953POPC   C3A70229  10.486  29.155   7.050
 9953POPC   C4A70230  10.536  29.167   7.350
 9953POPC   C1B70231  10.675  28.958   6.450
 9953POPC   C2B70232  10.686  28.926   6.750
 9953POPC   C3B70233  10.673  28.994   7.050
 9953POPC   C4B70234  10.669  28.978   7.350
 9954POPC   NC370235  10.503  12.839   5.550
 9954POPC   PO470236  10.552  12.826   5.850
 9954POPC   GL170237  10.520  12.827   6.150
 9954POPC   GL270238  10.458  12.763   6.150
 9954POPC   C1A70239  10.540  12.860   6.450
 9954POPC   D2A70240  10.505  12.890   6.750
 9954POPC   C3A70241  10.527  12.892   7.050
 9954POPC   C4A70242  10.543  12.878   7.350
 9954POPC   C1B70243  10.347  12.690   6.450
 9954POPC   C2B70244  10.293  12.711   6.750
 9954POPC   C3B70245  10.274  12.676   7.050
 9954POPC   C4B70246  10.318  12.668   7.350
 9955POPC   NC370247   9.781  19.054   5.550
 9955POPC   PO470248   9.699  19.082   5.850
 9955POPC   GL170249   9.792  19.091   6.150
 9955POPC   GL270250   9.624  19.078   6.150
 9955POPC   C1A70251   9.727  19.014   6.450
 9955POPC   D2A70252   9.786  19.019   6.750
 9955POPC   C3A70253   9.746  19.077   7.050
 9955POPC   C4A70254   9.732  19.093   7.350
 9955POPC   C1B70255   9.500  19.065   6.450
 9955POPC   C2B70256   9.493  19.032   6.750
 9955POPC   C3B70257   9.486  19.005   7.050
 9955POPC   C4B70258   9.509  19.008   7.350
 9956POPC   NC370259   0.466   4.346   5.550
 9956POPC   PO470260   0.415   4.273   5.850
 9956POPC   GL170261   0.453   4.342   6.150
 9956POPC   GL270262   0.453   4.484   6.150
 9956POPC   C1A70263   0.482   4.329   6.450
 9956POPC   D2A70264   0.409   4.337   6.750
 9956POPC   C3A70265   0.464   4.357   7.050
 9956POPC   C4A70266   0.394   4.366   7.350
 9956POPC   C1B70267   0.394   4.595   6.450
 9956POPC   C2B70268   0.383   4.563   6.750
 9956POPC   C3B70269   0.453   4.526   7.050
 9956POPC   C4B70270   0.415   4.523   7.350
 9957POPC   NC370271   9.022  43.125   5.550
 9957POPC   PO470272   8.987  43.152   5.850
 9957POPC   GL170273   8.941  43.134   6.150
 9957POPC   GL270274   8.867  43.213   6.150
 9957POPC   C1A70275   8.961  43.073   6.450
 9957POPC   D2A70276   8.929  43.098   6.750
 9957POPC   C3A70277   8.935  43.098   7.050
 9957POPC   C4A70278   8.927  43.075   7.350
 9957POPC   C1B70279   8.813  43.306   6.450
 9957POPC   C2B70280   8.851  43.259   6.750
 9957POPC   C3B70281   8.811  43.303   7.050
 9957POPC   C4B70282   8.791  43.303   7.350
 9958POPC   NC370283  37.680  19.044   5.550
 9958POPC   PO470284  37.700  19.018   5.850
 9958POPC   GL170285  37.702  19.028   6.150
 9958POPC   GL270286  37.801  19.134   6.150
 9958POPC   C1A70287  37.680  19.089   6.450
 9958POPC   D2A70288  37.717  19.067   6.750
 9958POPC   C3A70289  37.699  19.101   7.050
 9958POPC   C4A70290  37.632  19.028   7.350
 9958POPC   C1B70291  37.848  19.211   6.450
 9958POPC   C2B70292  37.870  19.203   6.750
 9958POPC   C3B70293  37.902  19.197   7.050
 9958POPC   C4B70294  37.835  19.187   7.350
 9959POPC   NC370295  38.448  29.872   5.550
 9959POPC   PO470296  38.450  29.950   5.850
 9959POPC   GL170297  38.491  29.962   6.150
 9959POPC   GL270298  38.334  29.852   6.150
 9959POPC   C1A70299  38.498  29.902   6.450
 9959POPC   D2A70300  38.451  29.928   6.750
 9959POPC   C3A70301  38.486  29.878   7.050
 9959POPC   C4A70302  38.467  29.893   7.350
 9959POPC   C1B70303  38.197  29.806   6.450
 9959POPC   C2B70304  38.270  29.744   6.750
 9959POPC   C3B70305  38.267  29.774   7.050
 9959POPC   C4B70306  38.213  29.766   7.350
 9960POPC   NC370307   9.769  26.793   5.550
 9960POPC   PO470308   9.734  26.858   5.850
 9960POPC   GL170309   9.786  26.785   6.150
 9960POPC   GL270310   9.607  26.843   6.150
 9960POPC   C1A70311   9.771  26.852   6.450
 9960POPC   D2A70312   9.731  26.847   6.750
 9960POPC   C3A70313   9.714  26.834   7.050
 9960POPC   C4A70314   9.732  26.823   7.350
 9960POPC   C1B70315   9.566  26.913   6.450
 9960POPC   C2B70316   9.518  26.954   6.750
 9960POPC   C3B70317   9.564  26.946   7.050
 9960POPC   C4B70318   9.584  26.934   7.350
 9961POPC   NC370319  23.671  29.148   5.550
 9961POPC   PO470320  23.751  29.157   5.850
 9961POPC   GL170321  23.712  29.184   6.150
 9961POPC   GL270322  23.812  29.131   6.150
 9961POPC   C1A70323  23.756  29.168   6.450
 9961POPC   D2A70324  23.676  29.155   6.750
 9961POPC   C3A70325  23.715  29.134   7.050
 9961POPC   C4A70326  23.757  29.109   7.350
 9961POPC   C1B70327  23.921  29.101   6.450
 9961POPC   C2B70328  23.940  29.082   6.750
 9961POPC   C3B70329  24.003  29.131   7.050
 9961POPC   C4B70330  23.920  29.112   7.350
 9962POPC   NC370331   2.016  36.884   5.550
 9962POPC   PO470332   1.979  36.944   5.850
 9962POPC   GL170333   1.954  36.909   6.150
 9962POPC   GL270334   1.900  36.918   6.150
 9962POPC   C1A70335   2.024  36.874   6.450
 9962POPC   D2A70336   2.039  36.879   6.750
 9962POPC   C3A70337   1.940  36.947   7.050
 9962POPC   C4A70338   1.963  36.933   7.350
 9962POPC   C1B70339   1.785  36.971   6.450
 9962POPC   C2B70340   1.791  36.977   6.750
 9962POPC   C3B70341   1.727  36.966   7.050
 9962POPC   C4B70342   1.728  36.960   7.350
 9963POPC   NC370343   2.036  23.738   5.550
 9963POPC   PO470344   1.956  23.706   5.850
 9963POPC   GL170345   1.975  23.708   6.150
 9963POPC   GL270346   1.868  23.715   6.150
 9963POPC   C1A70347   2.023  23.693   6.450
 9963POPC   D2A70348   2.008  23.753   6.750
 9963POPC   C3A70349   2.000  23.744   7.050
 9963POPC   C4A70350   1.973  23.706   7.350
 9963POPC   C1B70351   1.753  23.772   6.450
 9963POPC   C2B70352   1.776  23.769   6.750
 9963POPC   C3B70353   1.784  23.824   7.050
 9963POPC   C4B70354   1.725  23.766   7.350
 9964POPC   NC370355  39.268  22.148   5.550
 9964POPC   PO470356  39.216  22.114   5.850
 9964POPC   GL170357  39.241  22.173   6.150
 9964POPC   GL270358  39.105  22.189   6.150
 9964POPC   C1A70359  39.194  22.153   6.450
 9964POPC   D2A70360  39.254  22.136   6.750
 9964POPC   C3A70361  39.221  22.134   7.050
 9964POPC   C4A70362  39.217  22.181   7.350
 9964POPC   C1B70363  39.010  22.222   6.450
 9964POPC   C2B70364  39.002  22.239   6.750
 9964POPC   C3B70365  38.960  22.276   7.050
 9964POPC   C4B70366  39.028  22.256   7.350
 9965POPC   NC370367  16.713  12.109   5.550
 9965POPC   PO470368  16.731  12.111   5.850
 9965POPC   GL170369  16.681  12.080   6.150
 9965POPC   GL270370  16.566  12.114   6.150
 9965POPC   C1A70371  16.764  12.086   6.450
 9965POPC   D2A70372  16.761  12.093   6.750
 9965POPC   C3A70373  16.730  12.033   7.050
 9965POPC   C4A70374  16.779  12.108   7.350
 9965POPC   C1B70375  16.531  12.096   6.450
 9965POPC   C2B70376  16.443  12.139   6.750
 9965POPC   C3B70377  16.443  12.106   7.050
 9965POPC   C4B70378  16.467  12.099   7.350
 9966POPC   NC370379  18.265  31.515   5.550
 9966POPC   PO470380  18.297  31.474   5.850
 9966POPC   GL170381  18.330  31.440   6.150
 9966POPC   GL270382  18.177  31.418   6.150
 9966POPC   C1A70383  18.307  31.498   6.450
 9966POPC   D2A70384  18.252  31.514   6.750
 9966POPC   C3A70385  18.249  31.512   7.050
 9966POPC   C4A70386  18.272  31.450   7.350
 9966POPC   C1B70387  18.034  31.436   6.450
 9966POPC   C2B70388  18.015  31.469   6.750
 9966POPC   C3B70389  18.040  31.488   7.050
 9966POPC   C4B70390  17.993  31.423   7.350
 9967POPC   NC370391   9.749  43.890   5.550
 9967POPC   PO470392   9.792  43.900   5.850
 9967POPC   GL170393   9.753  43.841   6.150
 9967POPC   GL270394   9.687  43.736   6.150
 9967POPC   C1A70395   9.709  43.883   6.450
 9967POPC   D2A70396   9.745  43.919   6.750
 9967POPC   C3A70397   9.723  43.865   7.050
 9967POPC   C4A70398   9.769  43.935   7.350
 9967POPC   C1B70399   9.634  43.639   6.450
 9967POPC   C2B70400   9.690  43.695   6.750
 9967POPC   C3B70401   9.628  43.688   7.050
 9967POPC   C4B70402   9.659  43.611   7.350
 9968POPC   NC370403  30.699  22.121   5.550
 9968POPC   PO470404  30.738  22.209   5.850
 9968POPC   GL170405  30.701  22.138   6.150
 9968POPC   GL270406  30.648  22.095   6.150
 9968POPC   C1A70407  30.682  22.210   6.450
 9968POPC   D2A70408  30.693  22.209   6.750
 9968POPC   C3A70409  30.703  22.144   7.050
 9968POPC   C4A70410  30.678  22.171   7.350
 9968POPC   C1B70411  30.552  21.995   6.450
 9968POPC   C2B70412  30.584  21.901   6.750
 9968POPC   C3B70413  30.535  21.913   7.050
 9968POPC   C4B70414  30.572  21.912   7.350
 9969POPC   NC370415  27.554   2.786   5.550
 9969POPC   PO470416  27.549   2.729   5.850
 9969POPC   GL170417  27.641   2.808   6.150
 9969POPC   GL270418  27.695   2.729   6.150
 9969POPC   C1A70419  27.594   2.768   6.450
 9969POPC   D2A70420  27.624   2.787   6.750
 9969POPC   C3A70421  27.595   2.718   7.050
 9969POPC   C4A70422  27.568   2.799   7.350
 9969POPC   C1B70423  27.877   2.713   6.450
 9969POPC   C2B70424  27.839   2.778   6.750
 9969POPC   C3B70425  27.814   2.698   7.050
 9969POPC   C4B70426  27.832   2.725   7.350
 9970POPC   NC370427   2.739  18.286   5.550
 9970POPC   PO470428   2.796  18.254   5.850
 9970POPC   GL170429   2.722  18.259   6.150
 9970POPC   GL270430   2.881  18.252   6.150
 9970POPC   C1A70431   2.764  18.253   6.450
 9970POPC   D2A70432   2.727  18.239   6.750
 9970POPC   C3A70433   2.772  18.279   7.050
 9970POPC   C4A70434   2.806  18.254   7.350
 9970POPC   C1B70435   3.026  18.259   6.450
 9970POPC   C2B70436   2.978  18.309   6.750
 9970POPC   C3B70437   2.978  18.274   7.050
 9970POPC   C4B70438   2.987  18.258   7.350
 9971POPC   NC370439  11.338  33.831   5.550
 9971POPC   PO470440  11.301  33.816   5.850
 9971POPC   GL170441  11.272  33.821   6.150
 9971POPC   GL270442  11.418  33.865   6.150
 9971POPC   C1A70443  11.285  33.816   6.450
 9971POPC   D2A70444  11.321  33.818   6.750
 9971POPC   C3A70445  11.324  33.762   7.050
 9971POPC   C4A70446  11.287  33.795   7.350
 9971POPC   C1B70447  11.481  34.017   6.450
 9971POPC   C2B70448  11.444  34.012   6.750
 9971POPC   C3B70449  11.429  34.028   7.050
 9971POPC   C4B70450  11.471  33.960   7.350
 9972POPC   NC370451  31.454  14.360   5.550
 9972POPC   PO470452  31.425  14.382   5.850
 9972POPC   GL170453  31.443  14.430   6.150
 9972POPC   GL270454  31.357  14.373   6.150
 9972POPC   C1A70455  31.448  14.384   6.450
 9972POPC   D2A70456  31.437  14.451   6.750
 9972POPC   C3A70457  31.429  14.365   7.050
 9972POPC   C4A70458  31.426  14.354   7.350
 9972POPC   C1B70459  31.207  14.373   6.450
 9972POPC   C2B70460  31.273  14.370   6.750
 9972POPC   C3B70461  31.183  14.360   7.050
 9972POPC   C4B70462  31.263  14.382   7.350
 9973POPC   NC370463  19.862  32.996   5.550
 9973POPC   PO470464  19.845  33.011   5.850
 9973POPC   GL170465  19.802  33.013   6.150
 9973POPC   GL270466  19.849  33.136   6.150
 9973POPC   C1A70467  19.881  32.998   6.450
 9973POPC   D2A70468  19.830  33.008   6.750
 9973POPC   C3A70469  19.864  33.028   7.050
 9973POPC   C4A70470  19.796  33.060   7.350
 9973POPC   C1B70471  19.761  33.266   6.450
 9973POPC   C2B70472  19.826  33.255   6.750
 9973POPC   C3B70473  19.821  33.226   7.050
 9973POPC   C4B70474  19.754  33.317   7.350
 9974POPC   NC370475  19.071  42.363   5.550
 9974POPC   PO470476  19.054  42.325   5.850
 9974POPC   GL170477  19.075  42.295   6.150
 9974POPC   GL270478  18.984  42.248   6.150
 9974POPC   C1A70479  19.086  42.336   6.450
 9974POPC   D2A70480  19.066  42.288   6.750
 9974POPC   C3A70481  19.080  42.381   7.050
 9974POPC   C4A70482  19.090  42.363   7.350
 9974POPC   C1B70483  18.819  42.219   6.450
 9974POPC   C2B70484  18.799  42.227   6.750
 9974POPC   C3B70485  18.878  42.166   7.050
 9974POPC   C4B70486  18.868  42.178   7.350
 9975POPC   NC370487  32.273  40.738   5.550
 9975POPC   PO470488  32.242  40.769   5.850
 9975POPC   GL170489  32.213  40.781   6.150
 9975POPC   GL270490  32.183  40.830   6.150
 9975POPC   C1A70491  32.221  40.735   6.450
 9975POPC   D2A70492  32.247  40.742   6.750
 9975POPC   C3A70493  32.279  40.741   7.050
 9975POPC   C4A70494  32.292  40.753   7.350
 9975POPC   C1B70495  32.028  40.913   6.450
 9975POPC   C2B70496  32.113  40.983   6.750
 9975POPC   C3B70497  32.030  41.000   7.050
 9975POPC   C4B70498  32.117  40.948   7.350
 9976POPC   NC370499  28.397  29.097   5.550
 9976POPC   PO470500  28.372  29.187   5.850
 9976POPC   GL170501  28.415  29.162   6.150
 9976POPC   GL270502  28.397  29.285   6.150
 9976POPC   C1A70503  28.387  29.118   6.450
 9976POPC   D2A70504  28.361  29.174   6.750
 9976POPC   C3A70505  28.323  29.174   7.050
 9976POPC   C4A70506  28.335  29.108   7.350
 9976POPC   C1B70507  28.379  29.372   6.450
 9976POPC   C2B70508  28.469  29.372   6.750
 9976POPC   C3B70509  28.379  29.398   7.050
 9976POPC   C4B70510  28.427  29.415   7.350
 9977POPC   NC370511  13.598   0.464   5.550
 9977POPC   PO470512  13.629   0.447   5.850
 9977POPC   GL170513  13.620   0.443   6.150
 9977POPC   GL270514  13.532   0.316   6.150
 9977POPC   C1A70515  13.578   0.434   6.450
 9977POPC   D2A70516  13.664   0.456   6.750
 9977POPC   C3A70517  13.607   0.396   7.050
 9977POPC   C4A70518  13.594   0.414   7.350
 9977POPC   C1B70519  13.475   0.248   6.450
 9977POPC   C2B70520  13.517   0.291   6.750
 9977POPC   C3B70521  13.458   0.277   7.050
 9977POPC   C4B70522  13.480   0.278   7.350
 9978POPC   NC370523  23.707  21.372   5.550
 9978POPC   PO470524  23.678  21.340   5.850
 9978POPC   GL170525  23.711  21.342   6.150
 9978POPC   GL270526  23.840  21.394   6.150
 9978POPC   C1A70527  23.717  21.353   6.450
 9978POPC   D2A70528  23.732  21.345   6.750
 9978POPC   C3A70529  23.728  21.394   7.050
 9978POPC   C4A70530  23.741  21.405   7.350
 9978POPC   C1B70531  23.928  21.515   6.450
 9978POPC   C2B70532  23.957  21.534   6.750
 9978POPC   C3B70533  23.972  21.536   7.050
 9978POPC   C4B70534  23.935  21.500   7.350
 9979POPC   NC370535  35.376  20.576   5.550
 9979POPC   PO470536  35.339  20.631   5.850
 9979POPC   GL170537  35.306  20.645   6.150
 9979POPC   GL270538  35.498  20.535   6.150
 9979POPC   C1A70539  35.359  20.660   6.450
 9979POPC   D2A70540  35.339  20.647   6.750
 9979POPC   C3A70541  35.386  20.609   7.050
 9979POPC   C4A70542  35.337  20.611   7.350
 9979POPC   C1B70543  35.551  20.531   6.450
 9979POPC   C2B70544  35.566  20.530   6.750
 9979POPC   C3B70545  35.632  20.559   7.050
 9979POPC   C4B70546  35.567  20.521   7.350
 9980POPC   NC370547  43.084   6.610   5.550
 9980POPC   PO470548  43.114   6.627   5.850
 9980POPC   GL170549  43.110   6.671   6.150
 9980POPC   GL270550  43.080   6.783   6.150
 9980POPC   C1A70551  43.063   6.692   6.450
 9980POPC   D2A70552  43.080   6.682   6.750
 9980POPC   C3A70553  43.083   6.667   7.050
 9980POPC   C4A70554  43.140   6.689   7.350
 9980POPC   C1B70555  43.002   6.875   6.450
 9980POPC   C2B70556  43.052   6.902   6.750
 9980POPC   C3B70557  43.076   6.885   7.050
 9980POPC   C4B70558  43.020   6.879   7.350
 9981POPC   NC370559  10.503  29.956   5.550
 9981POPC   PO470560  10.496  29.927   5.850
 9981POPC   GL170561  10.484  29.904   6.150
 9981POPC   GL270562  10.577  30.035   6.150
 9981POPC   C1A70563  10.562  29.940   6.450
 9981POPC   D2A70564  10.485  29.872   6.750
 9981POPC   C3A70565  10.556  29.882   7.050
 9981POPC   C4A70566  10.573  29.902   7.350
 9981POPC   C1B70567  10.587  30.181   6.450
 9981POPC   C2B70568  10.627  30.112   6.750
 9981POPC   C3B70569  10.580  30.201   7.050
 9981POPC   C4B70570  10.619  30.192   7.350
 9982POPC   NC370571  22.175  18.296   5.550
 9982POPC   PO470572  22.195  18.314   5.850
 9982POPC   GL170573  22.116  18.272   6.150
 9982POPC   GL270574  22.196  18.384   6.150
 9982POPC   C1A70575  22.159  18.271   6.450
 9982POPC   D2A70576  22.161  18.291   6.750
 9982POPC   C3A70577  22.186  18.276   7.050
 9982POPC   C4A70578  22.208  18.294   7.350
 9982POPC   C1B70579  22.205  18.525   6.450
 9982POPC   C2B70580  22.260  18.562   6.750
 9982POPC   C3B70581  22.276  18.567   7.050
 9982POPC   C4B70582  22.255  18.524   7.350
 9983POPC   NC370583  16.755  29.953   5.550
 9983POPC   PO470584  16.693  29.877   5.850
 9983POPC   GL170585  16.686  29.965   6.150
 9983POPC   GL270586  16.726  30.032   6.150
 9983POPC   C1A70587  16.712  29.887   6.450
 9983POPC   D2A70588  16.716  29.908   6.750
 9983POPC   C3A70589  16.734  29.947   7.050
 9983POPC   C4A70590  16.732  29.921   7.350
 9983POPC   C1B70591  16.700  30.130   6.450
 9983POPC   C2B70592  16.746  30.140   6.750
 9983POPC   C3B70593  16.667  30.120   7.050
 9983POPC   C4B70594  16.740  30.124   7.350
 9984POPC   NC370595  42.365  29.945   5.550
 9984POPC   PO470596  42.300  29.966   5.850
 9984POPC   GL170597  42.373  29.895   6.150
 9984POPC   GL270598  42.364  29.791   6.150
 9984POPC   C1A70599  42.290  29.881   6.450
 9984POPC   D2A70600  42.355  29.950   6.750
 9984POPC   C3A70601  42.349  29.927   7.050
 9984POPC   C4A70602  42.366  29.938   7.350
 9984POPC   C1B70603  42.398  29.714   6.450
 9984POPC   C2B70604  42.367  29.677   6.750
 9984POPC   C3B70605  42.302  29.673   7.050
 9984POPC   C4B70606  42.383  29.702   7.350
 9985POPC   NC370607  30.677  36.914   5.550
 9985POPC   PO470608  30.685  36.871   5.850
 9985POPC   GL170609  30.716  36.908   6.150
 9985POPC   GL270610  30.864  36.923   6.150
 9985POPC   C1A70611  30.703  36.945   6.450
 9985POPC   D2A70612  30.693  36.912   6.750
 9985POPC   C3A70613  30.674  36.934   7.050
 9985POPC   C4A70614  30.726  36.884   7.350
 9985POPC   C1B70615  30.988  36.837   6.450
 9985POPC   C2B70616  30.966  36.834   6.750
 9985POPC   C3B70617  30.895  36.836   7.050
 9985POPC   C4B70618  30.928  36.890   7.350
 9986POPC   NC370619  39.223  40.741   5.550
 9986POPC   PO470620  39.223  40.775   5.850
 9986POPC   GL170621  39.226  40.830   6.150
 9986POPC   GL270622  39.345  40.815   6.150
 9986POPC   C1A70623  39.272  40.817   6.450
 9986POPC   D2A70624  39.231  40.806   6.750
 9986POPC   C3A70625  39.264  40.801   7.050
 9986POPC   C4A70626  39.191  40.789   7.350
 9986POPC   C1B70627  39.491  40.768   6.450
 9986POPC   C2B70628  39.430  40.783   6.750
 9986POPC   C3B70629  39.429  40.808   7.050
 9986POPC   C4B70630  39.480  40.780   7.350
 9987POPC   NC370631   5.822   5.845   5.550
 9987POPC   PO470632   5.885   5.868   5.850
 9987POPC   GL170633   5.891   5.865   6.150
 9987POPC   GL270634   5.851   6.029   6.150
 9987POPC   C1A70635   5.914   5.886   6.450
 9987POPC   D2A70636   5.906   5.909   6.750
 9987POPC   C3A70637   5.850   5.833   7.050
 9987POPC   C4A70638   5.839   5.829   7.350
 9987POPC   C1B70639   5.771   6.076   6.450
 9987POPC   C2B70640   5.804   6.093   6.750
 9987POPC   C3B70641   5.765   6.116   7.050
 9987POPC   C4B70642   5.793   6.136   7.350
 9988POPC   NC370643  30.724  12.860   5.550
 9988POPC   PO470644  30.685  12.845   5.850
 9988POPC   GL170645  30.668  12.880   6.150
 9988POPC   GL270646  30.709  12.928   6.150
 9988POPC   C1A70647  30.671  12.898   6.450
 9988POPC   D2A70648  30.731  12.852   6.750
 9988POPC   C3A70649  30.745  12.837   7.050
 9988POPC   C4A70650  30.694  12.806   7.350
 9988POPC   C1B70651  30.603  13.100   6.450
 9988POPC   C2B70652  30.667  13.133   6.750
 9988POPC   C3B70653  30.646  13.067   7.050
 9988POPC   C4B70654  30.612  13.132   7.350
 9989POPC   NC370655   0.440  25.252   5.550
 9989POPC   PO470656   0.465  25.236   5.850
 9989POPC   GL170657   0.439  25.259   6.150
 9989POPC   GL270658   0.556  25.201   6.150
 9989POPC   C1A70659   0.479  25.270   6.450
 9989POPC   D2A70660   0.415  25.269   6.750
 9989POPC   C3A70661   0.411  25.246   7.050
 9989POPC   C4A70662   0.431  25.236   7.350
 9989POPC   C1B70663   0.681  25.222   6.450
 9989POPC   C2B70664   0.685  25.130   6.750
 9989POPC   C3B70665   0.721  25.182   7.050
 9989POPC   C4B70666   0.667  25.188   7.350
 9990POPC   NC370667   9.748  24.463   5.550
 9990POPC   PO470668   9.747  24.515   5.850
 9990POPC   GL170669   9.775  24.452   6.150
 9990POPC   GL270670   9.838  24.383   6.150
 9990POPC   C1A70671   9.791  24.444   6.450
 9990POPC   D2A70672   9.779  24.492   6.750
 9990POPC   C3A70673   9.775  24.528   7.050
 9990POPC   C4A70674   9.754  24.538   7.350
 9990POPC   C1B70675   9.876  24.229   6.450
 9990POPC   C2B70676   9.859  24.217   6.750
 9990POPC   C3B70677   9.879  24.285   7.050
 9990POPC   C4B70678   9.874  24.273   7.350
 9991POPC   NC370679  33.758  16.758   5.550
 9991POPC   PO470680  33.788  16.736   5.850
 9991POPC   GL170681  33.807  16.759   6.150
 9991POPC   GL270682  33.761  16.903   6.150
 9991POPC   C1A70683  33.756  16.775   6.450
 9991POPC   D2A70684  33.766  16.686   6.750
 9991POPC   C3A70685  33.754  16.769   7.050
 9991POPC   C4A70686  33.833  16.781   7.350
 9991POPC   C1B70687  33.764  16.994   6.450
 9991POPC   C2B70688  33.836  16.974   6.750
 9991POPC   C3B70689  33.807  16.931   7.050
 9991POPC   C4B70690  33.751  16.942   7.350
 9992POPC   NC370691  14.407  12.842   5.550
 9992POPC   PO470692  14.413  12.842   5.850
 9992POPC   GL170693  14.396  12.878   6.150
 9992POPC   GL270694  14.365  12.928   6.150
 9992POPC   C1A70695  14.429  12.862   6.450
 9992POPC   D2A70696  14.357  12.858   6.750
 9992POPC   C3A70697  14.416  12.892   7.050
 9992POPC   C4A70698  14.430  12.881   7.350
 9992POPC   C1B70699  14.280  13.070   6.450
 9992POPC   C2B70700  14.262  13.046   6.750
 9992POPC   C3B70701  14.243  13.110   7.050
 9992POPC   C4B70702  14.267  13.026   7.350
 9993POPC   NC370703  22.203  16.744   5.550
 9993POPC   PO470704  22.126  16.736   5.850
 9993POPC   GL170705  22.172  16.779   6.150
 9993POPC   GL270706  22.228  16.601   6.150
 9993POPC   C1A70707  22.177  16.758   6.450
 9993POPC   D2A70708  22.205  16.742   6.750
 9993POPC   C3A70709  22.152  16.733   7.050
 9993POPC   C4A70710  22.114  16.709   7.350
 9993POPC   C1B70711  22.210  16.461   6.450
 9993POPC   C2B70712  22.248  16.536   6.750
 9993POPC   C3B70713  22.190  16.477   7.050
 9993POPC   C4B70714  22.258  16.521   7.350
 9994POPC   NC370715  31.463  35.345   5.550
 9994POPC   PO470716  31.484  35.353   5.850
 9994POPC   GL170717  31.517  35.377   6.150
 9994POPC   GL270718  31.457  35.201   6.150
 9994POPC   C1A70719  31.433  35.375   6.450
 9994POPC   D2A70720  31.432  35.324   6.750
 9994POPC   C3A70721  31.506  35.395   7.050
 9994POPC   C4A70722  31.470  35.347   7.350
 9994POPC   C1B70723  31.545  35.103   6.450
 9994POPC   C2B70724  31.508  35.143   6.750
 9994POPC   C3B70725  31.536  35.139   7.050
 9994POPC   C4B70726  31.510  35.156   7.350
 9995POPC   NC370727  41.603  16.766   5.550
 9995POPC   PO470728  41.578  16.738   5.850
 9995POPC   GL170729  41.562  16.706   6.150
 9995POPC   GL270730  41.483  16.819   6.150
 9995POPC   C1A70731  41.604  16.752   6.450
 9995POPC   D2A70732  41.581  16.765   6.750
 9995POPC   C3A70733  41.515  16.702   7.050
 9995POPC   C4A70734  41.536  16.688   7.350
 9995POPC   C1B70735  41.373  16.924   6.450
 9995POPC   C2B70736  41.388  16.906   6.750
 9995POPC   C3B70737  41.350  16.867   7.050
 9995POPC   C4B70738  41.365  16.883   7.350
 9996POPC   NC370739  29.191  24.443   5.550
 9996POPC   PO470740  29.143  24.440   5.850
 9996POPC   GL170741  29.142  24.442   6.150
 9996POPC   GL270742  29.265  24.503   6.150
 9996POPC   C1A70743  29.130  24.493   6.450
 9996POPC   D2A70744  29.160  24.500   6.750
 9996POPC   C3A70745  29.138  24.459   7.050
 9996POPC   C4A70746  29.108  24.533   7.350
 9996POPC   C1B70747  29.342  24.613   6.450
 9996POPC   C2B70748  29.396  24.640   6.750
 9996POPC   C3B70749  29.401  24.651   7.050
 9996POPC   C4B70750  29.415  24.650   7.350
 9997POPC   NC370751   3.535  24.515   5.550
 9997POPC   PO470752   3.560  24.470   5.850
 9997POPC   GL170753   3.570  24.457   6.150
 9997POPC   GL270754   3.674  24.365   6.150
 9997POPC   C1A70755   3.581  24.444   6.450
 9997POPC   D2A70756   3.517  24.443   6.750
 9997POPC   C3A70757   3.522  24.466   7.050
 9997POPC   C4A70758   3.586  24.463   7.350
 9997POPC   C1B70759   3.678  24.286   6.450
 9997POPC   C2B70760   3.708  24.305   6.750
 9997POPC   C3B70761   3.707  24.317   7.050
 9997POPC   C4B70762   3.680  24.258   7.350
 9998POPC   NC370763  40.742  16.738   5.550
 9998POPC   PO470764  40.814  16.765   5.850
 9998POPC   GL170765  40.803  16.723   6.150
 9998POPC   GL270766  40.782  16.563   6.150
 9998POPC   C1A70767  40.809  16.728   6.450
 9998POPC   D2A70768  40.811  16.780   6.750
 9998POPC   C3A70769  40.739  16.701   7.050
 9998POPC   C4A70770  40.789  16.728   7.350
 9998POPC   C1B70771  40.698  16.513   6.450
 9998POPC   C2B70772  40.735  16.493   6.750
 9998POPC   C3B70773  40.750  16.504   7.050
 9998POPC   C4B70774  40.717  16.486   7.350
 9999POPC   NC370775  25.253  27.582   5.550
 9999POPC   PO470776  25.265  27.587   5.850
 9999POPC   GL170777  25.303  27.625   6.150
 9999POPC   GL270778  25.373  27.506   6.150
 9999POPC   C1A70779  25.233  27.548   6.450
 9999POPC   D2A70780  25.275  27.598   6.750
 9999POPC   C3A70781  25.254  27.549   7.050
 9999POPC   C4A70782  25.310  27.574   7.350
 9999POPC   C1B70783  25.505  27.501   6.450
 9999POPC   C2B70784  25.547  27.468   6.750
 9999POPC   C3B70785  25.523  27.554   7.050
 9999POPC   C4B70786  25.453  27.512   7.350
10000POPC   NC370787  34.546  24.522   5.550
10000POPC   PO470788  34.554  24.491   5.850
10000POPC   GL170789  34.564  24.472   6.150
10000POPC   GL270790  34.456  24.505   6.150
10000POPC   C1A70791  34.528  24.539   6.450
10000POPC   D2A70792  34.624  24.505   6.750
10000POPC   C3A70793  34.593  24.502   7.050
10000POPC   C4A70794  34.613  24.494   7.350
10000POPC   C1B70795  34.351  24.509   6.450
10000POPC   C2B70796  34.354  24.492   6.750
10000POPC   C3B70797  34.301  24.534   7.050
10000POPC   C4B70798  34.375  24.525   7.350
10001POPC   NC370799  18.318   3.544   5.550
10001POPC   PO470800  18.308   3.512   5.850
10001POPC   GL170801  18.235   3.559   6.150
10001POPC   GL270802  18.268   3.664   6.150
10001POPC   C1A70803  18.279   3.523   6.450
10001POPC   D2A70804  18.238   3.528   6.750
10001POPC   C3A70805  18.310   3.536   7.050
10001POPC   C4A70806  18.261   3.513   7.350
10001POPC   C1B70807  18.248   3.784   6.450
10001POPC   C2B70808  18.253   3.771   6.750
10001POPC   C3B70809  18.186   3.810   7.050
10001POPC   C4B70810  18.201   3.789   7.350
10002POPC   NC370811  38.484  33.778   5.550
10002POPC   PO470812  38.432  33.771   5.850
10002POPC   GL170813  38.426  33.792   6.150
10002POPC   GL270814  38.588  33.797   6.150
10002POPC   C1A70815  38.420  33.750   6.450
10002POPC   D2A70816  38.429  33.752   6.750
10002POPC   C3A70817  38.439  33.849   7.050
10002POPC   C4A70818  38.417  33.792   7.350
10002POPC   C1B70819  38.728  33.879   6.450
10002POPC   C2B70820  38.645  33.845   6.750
10002POPC   C3B70821  38.680  33.836   7.050
10002POPC   C4B70822  38.736  33.876   7.350
10003POPC   NC370823  37.649  40.815   5.550
10003POPC   PO470824  37.705  40.745   5.850
10003POPC   GL170825  37.651  40.763   6.150
10003POPC   GL270826  37.597  40.841   6.150
10003POPC   C1A70827  37.666  40.735   6.450
10003POPC   D2A70828  37.671  40.755   6.750
10003POPC   C3A70829  37.713  40.762   7.050
10003POPC   C4A70830  37.694  40.800   7.350
10003POPC   C1B70831  37.395  40.867   6.450
10003POPC   C2B70832  37.386  40.821   6.750
10003POPC   C3B70833  37.457  40.794   7.050
10003POPC   C4B70834  37.454  40.861   7.350
10004POPC   NC370835  21.370  32.979   5.550
10004POPC   PO470836  21.415  33.070   5.850
10004POPC   GL170837  21.426  33.068   6.150
10004POPC   GL270838  21.392  32.877   6.150
10004POPC   C1A70839  21.402  33.006   6.450
10004POPC   D2A70840  21.424  33.033   6.750
10004POPC   C3A70841  21.409  33.063   7.050
10004POPC   C4A70842  21.428  33.050   7.350
10004POPC   C1B70843  21.307  32.794   6.450
10004POPC   C2B70844  21.324  32.765   6.750
10004POPC   C3B70845  21.314  32.757   7.050
10004POPC   C4B70846  21.364  32.745   7.350
10005POPC   NC370847  44.706   0.393   5.550
10005POPC   PO470848  44.632   0.460   5.850
10005POPC   GL170849  44.666   0.428   6.150
10005POPC   GL270850  44.788   0.392   6.150
10005POPC   C1A70851  44.623   0.475   6.450
10005POPC   D2A70852  44.683   0.457   6.750
10005POPC   C3A70853  44.709   0.392   7.050
10005POPC   C4A70854  44.618   0.405   7.350
10005POPC   C1B70855  44.950   0.483   6.450
10005POPC   C2B70856  44.912   0.443   6.750
10005POPC   C3B70857  44.947   0.401   7.050
10005POPC   C4B70858  44.937   0.399   7.350
10006POPC   NC370859  40.005  43.893   5.550
10006POPC   PO470860  40.024  43.928   5.850
10006POPC   GL170861  39.957  43.842   6.150
10006POPC   GL270862  40.070  43.810   6.150
10006POPC   C1A70863  40.045  43.909   6.450
10006POPC   D2A70864  40.048  43.853   6.750
10006POPC   C3A70865  39.958  43.871   7.050
10006POPC   C4A70866  40.033  43.908   7.350
10006POPC   C1B70867  40.261  43.788   6.450
10006POPC   C2B70868  40.197  43.794   6.750
10006POPC   C3B70869  40.255  43.768   7.050
10006POPC   C4B70870  40.235  43.757   7.350
10007POPC   NC370871  10.574  32.255   5.550
10007POPC   PO470872  10.536  32.252   5.850
10007POPC   GL170873  10.557  32.260   6.150
10007POPC   GL270874  10.598  32.303   6.150
10007POPC   C1A70875  10.504  32.264   6.450
10007POPC   D2A70876  10.540  32.245   6.750
10007POPC   C3A70877  10.491  32.283   7.050
10007POPC   C4A70878  10.496  32.227   7.350
10007POPC   C1B70879  10.695  32.351   6.450
10007POPC   C2B70880  10.778  32.430   6.750
10007POPC   C3B70881  10.709  32.402   7.050
10007POPC   C4B70882  10.695  32.349   7.350
10008POPC   NC370883  22.980  19.062   5.550
10008POPC   PO470884  22.946  19.037   5.850
10008POPC   GL170885  22.958  19.030   6.150
10008POPC   GL270886  22.841  18.948   6.150
10008POPC   C1A70887  22.924  19.030   6.450
10008POPC   D2A70888  22.967  19.065   6.750
10008POPC   C3A70889  22.952  19.106   7.050
10008POPC   C4A70890  22.899  19.050   7.350
10008POPC   C1B70891  22.753  18.860   6.450
10008POPC   C2B70892  22.777  18.863   6.750
10008POPC   C3B70893  22.764  18.910   7.050
10008POPC   C4B70894  22.780  18.882   7.350
10009POPC   NC370895  19.877   2.735   5.550
10009POPC   PO470896  19.845   2.788   5.850
10009POPC   GL170897  19.819   2.721   6.150
10009POPC   GL270898  19.825   2.601   6.150
10009POPC   C1A70899  19.802   2.740   6.450
10009POPC   D2A70900  19.879   2.815   6.750
10009POPC   C3A70901  19.856   2.749   7.050
10009POPC   C4A70902  19.863   2.766   7.350
10009POPC   C1B70903  19.828   2.490   6.450
10009POPC   C2B70904  19.838   2.505   6.750
10009POPC   C3B70905  19.885   2.552   7.050
10009POPC   C4B70906  19.794   2.510   7.350
10010POPC   NC370907  21.398  22.167   5.550
10010POPC   PO470908  21.406  22.165   5.850
10010POPC   GL170909  21.403  22.115   6.150
10010POPC   GL270910  21.466  22.138   6.150
10010POPC   C1A70911  21.361  22.198   6.450
10010POPC   D2A70912  21.398  22.159   6.750
10010POPC   C3A70913  21.416  22.127   7.050
10010POPC   C4A70914  21.435  22.197   7.350
10010POPC   C1B70915  21.640  22.080   6.450
10010POPC   C2B70916  21.622  22.064   6.750
10010POPC   C3B70917  21.596  22.056   7.050
10010POPC   C4B70918  21.629  22.061   7.350
10011POPC   NC370919  17.464   6.632   5.550
10011POPC   PO470920  17.469   6.618   5.850
10011POPC   GL170921  17.467   6.690   6.150
10011POPC   GL270922  17.575   6.706   6.150
10011POPC   C1A70923  17.497   6.689   6.450
10011POPC   D2A70924  17.537   6.628   6.750
10011POPC   C3A70925  17.495   6.693   7.050
10011POPC   C4A70926  17.554   6.635   7.350
10011POPC   C1B70927  17.617   6.877   6.450
10011POPC   C2B70928  17.662   6.831   6.750
10011POPC   C3B70929  17.664   6.895   7.050
10011POPC   C4B70930  17.609   6.844   7.350
10012POPC   NC370931  23.678  43.885   5.550
10012POPC   PO470932  23.664  43.867   5.850
10012POPC   GL170933  23.748  43.850   6.150
10012POPC   GL270934  23.660  43.934   6.150
10012POPC   C1A70935  23.681  43.921   6.450
10012POPC   D2A70936  23.740  43.842   6.750
10012POPC   C3A70937  23.676  43.907   7.050
10012POPC   C4A70938  23.722  43.853   7.350
10012POPC   C1B70939  23.468  44.007   6.450
10012POPC   C2B70940  23.476  43.986   6.750
10012POPC   C3B70941  23.538  43.997   7.050
10012POPC   C4B70942  23.481  44.022   7.350
10013POPC   NC370943  32.992  36.110   5.550
10013POPC   PO470944  33.053  36.090   5.850
10013POPC   GL170945  33.039  36.131   6.150
10013POPC   GL270946  32.922  36.277   6.150
10013POPC   C1A70947  33.001  36.153   6.450
10013POPC   D2A70948  33.070  36.177   6.750
10013POPC   C3A70949  33.041  36.147   7.050
10013POPC   C4A70950  33.053  36.115   7.350
10013POPC   C1B70951  32.933  36.325   6.450
10013POPC   C2B70952  32.871  36.378   6.750
10013POPC   C3B70953  32.841  36.342   7.050
10013POPC   C4B70954  32.921  36.332   7.350
10014POPC   NC370955  42.354  21.368   5.550
10014POPC   PO470956  42.363  21.429   5.850
10014POPC   GL170957  42.305  21.414   6.150
10014POPC   GL270958  42.256  21.323   6.150
10014POPC   C1A70959  42.292  21.417   6.450
10014POPC   D2A70960  42.366  21.382   6.750
10014POPC   C3A70961  42.348  21.338   7.050
10014POPC   C4A70962  42.348  21.366   7.350
10014POPC   C1B70963  42.192  21.236   6.450
10014POPC   C2B70964  42.130  21.233   6.750
10014POPC   C3B70965  42.192  21.214   7.050
10014POPC   C4B70966  42.129  21.186   7.350
10015POPC   NC370967   0.402  11.270   5.550
10015POPC   PO470968   0.438  11.257   5.850
10015POPC   GL170969   0.485  11.330   6.150
10015POPC   GL270970   0.291  11.266   6.150
10015POPC   C1A70971   0.432  11.277   6.450
10015POPC   D2A70972   0.478  11.266   6.750
10015POPC   C3A70973   0.411  11.341   7.050
10015POPC   C4A70974   0.428  11.275   7.350
10015POPC   C1B70975   0.189  11.279   6.450
10015POPC   C2B70976   0.173  11.259   6.750
10015POPC   C3B70977   0.184  11.295   7.050
10015POPC   C4B70978   0.218  11.308   7.350
10016POPC   NC370979   4.328  22.211   5.550
10016POPC   PO470980   4.354  22.203   5.850
10016POPC   GL170981   4.291  22.210   6.150
10016POPC   GL270982   4.482  22.243   6.150
10016POPC   C1A70983   4.289  22.114   6.450
10016POPC   D2A70984   4.318  22.158   6.750
10016POPC   C3A70985   4.311  22.144   7.050
10016POPC   C4A70986   4.340  22.203   7.350
10016POPC   C1B70987   4.572  22.269   6.450
10016POPC   C2B70988   4.559  22.268   6.750
10016POPC   C3B70989   4.593  22.301   7.050
10016POPC   C4B70990   4.572  22.280   7.350
10017POPC   NC370991   4.293  26.834   5.550
10017POPC   PO470992   4.284  26.861   5.850
10017POPC   GL170993   4.367  26.818   6.150
10017POPC   GL270994   4.414  26.725   6.150
10017POPC   C1A70995   4.358  26.844   6.450
10017POPC   D2A70996   4.330  26.795   6.750
10017POPC   C3A70997   4.345  26.774   7.050
10017POPC   C4A70998   4.277  26.848   7.350
10017POPC   C1B70999   4.376  26.566   6.450
10017POPC   C2B71000   4.459  26.553   6.750
10017POPC   C3B71001   4.385  26.631   7.050
10017POPC   C4B71002   4.387  26.617   7.350
10018POPC   NC371003  21.356  35.398   5.550
10018POPC   PO471004  21.417  35.387   5.850
10018POPC   GL171005  21.347  35.390   6.150
10018POPC   GL271006  21.333  35.262   6.150
10018POPC   C1A71007  21.387  35.370   6.450
10018POPC   D2A71008  21.404  35.377   6.750
10018POPC   C3A71009  21.344  35.353   7.050
10018POPC   C4A71010  21.417  35.400   7.350
10018POPC   C1B71011  21.252  35.163   6.450
10018POPC   C2B71012  21.245  35.160   6.750
10018POPC   C3B71013  21.256  35.144   7.050
10018POPC   C4B71014  21.181  35.169   7.350
10019POPC   NC371015  36.937  16.711   5.550
10019POPC   PO471016  36.908  16.707   5.850
10019POPC   GL171017  36.919  16.700   6.150
10019POPC   GL271018  36.838  16.856   6.150
10019POPC   C1A71019  36.923  16.720   6.450
10019POPC   D2A71020  36.891  16.746   6.750
10019POPC   C3A71021  36.886  16.724   7.050
10019POPC   C4A71022  36.868  16.690   7.350
10019POPC   C1B71023  36.843  16.970   6.450
10019POPC   C2B71024  36.908  16.989   6.750
10019POPC   C3B71025  36.888  16.929   7.050
10019POPC   C4B71026  36.835  16.958   7.350
10020POPC   NC371027  41.519   8.182   5.550
10020POPC   PO471028  41.524   8.197   5.850
10020POPC   GL171029  41.608   8.188   6.150
10020POPC   GL271030  41.492   8.045   6.150
10020POPC   C1A71031  41.551   8.219   6.450
10020POPC   D2A71032  41.597   8.160   6.750
10020POPC   C3A71033  41.561   8.192   7.050
10020POPC   C4A71034  41.598   8.205   7.350
10020POPC   C1B71035  41.455   7.976   6.450
10020POPC   C2B71036  41.434   7.951   6.750
10020POPC   C3B71037  41.452   7.970   7.050
10020POPC   C4B71038  41.440   7.948   7.350
10021POPC   NC371039   8.209  11.336   5.550
10021POPC   PO471040   8.157  11.272   5.850
10021POPC   GL171041   8.218  11.295   6.150
10021POPC   GL271042   8.041  11.267   6.150
10021POPC   C1A71043   8.187  11.286   6.450
10021POPC   D2A71044   8.214  11.332   6.750
10021POPC   C3A71045   8.185  11.269   7.050
10021POPC   C4A71046   8.229  11.330   7.350
10021POPC   C1B71047   7.917  11.239   6.450
10021POPC   C2B71048   7.939  11.227   6.750
10021POPC   C3B71049   7.938  11.258   7.050
10021POPC   C4B71050   7.937  11.266   7.350
10022POPC   NC371051  20.625   6.638   5.550
10022POPC   PO471052  20.625   6.657   5.850
10022POPC   GL171053  20.606   6.619   6.150
10022POPC   GL271054  20.674   6.492   6.150
10022POPC   C1A71055  20.656   6.633   6.450
10022POPC   D2A71056  20.592   6.597   6.750
10022POPC   C3A71057  20.659   6.658   7.050
10022POPC   C4A71058  20.628   6.619   7.350
10022POPC   C1B71059  20.612   6.426   6.450
10022POPC   C2B71060  20.671   6.408   6.750
10022POPC   C3B71061  20.687   6.424   7.050
10022POPC   C4B71062  20.665   6.433   7.350
10023POPC   NC371063  27.572  14.367   5.550
10023POPC   PO471064  27.621  14.383   5.850
10023POPC   GL171065  27.624  14.362   6.150
10023POPC   GL271066  27.574  14.525   6.150
10023POPC   C1A71067  27.586  14.405   6.450
10023POPC   D2A71068  27.627  14.367   6.750
10023POPC   C3A71069  27.595  14.432   7.050
10023POPC   C4A71070  27.615  14.447   7.350
10023POPC   C1B71071  27.496  14.602   6.450
10023POPC   C2B71072  27.477  14.662   6.750
10023POPC   C3B71073  27.534  14.609   7.050
10023POPC   C4B71074  27.522  14.651   7.350
10024POPC   NC371075  11.324  21.401   5.550
10024POPC   PO471076  11.272  21.349   5.850
10024POPC   GL171077  11.343  21.423   6.150
10024POPC   GL271078  11.231  21.302   6.150
10024POPC   C1A71079  11.254  21.348   6.450
10024POPC   D2A71080  11.308  21.418   6.750
10024POPC   C3A71081  11.259  21.406   7.050
10024POPC   C4A71082  11.268  21.376   7.350
10024POPC   C1B71083  11.047  21.218   6.450
10024POPC   C2B71084  11.103  21.276   6.750
10024POPC   C3B71085  11.127  21.282   7.050
10024POPC   C4B71086  11.123  21.260   7.350
10025POPC   NC371087  31.496  25.278   5.550
10025POPC   PO471088  31.515  25.237   5.850
10025POPC   GL171089  31.509  25.243   6.150
10025POPC   GL271090  31.341  25.321   6.150
10025POPC   C1A71091  31.481  25.251   6.450
10025POPC   D2A71092  31.518  25.258   6.750
10025POPC   C3A71093  31.485  25.285   7.050
10025POPC   C4A71094  31.457  25.304   7.350
10025POPC   C1B71095  31.330  25.420   6.450
10025POPC   C2B71096  31.280  25.437   6.750
10025POPC   C3B71097  31.268  25.409   7.050
10025POPC   C4B71098  31.258  25.386   7.350
10026POPC   NC371099  32.975  33.812   5.550
10026POPC   PO471100  33.030  33.794   5.850
10026POPC   GL171101  33.042  33.836   6.150
10026POPC   GL271102  32.988  33.697   6.150
10026POPC   C1A71103  33.051  33.819   6.450
10026POPC   D2A71104  33.052  33.761   6.750
10026POPC   C3A71105  33.018  33.847   7.050
10026POPC   C4A71106  33.042  33.827   7.350
10026POPC   C1B71107  32.891  33.642   6.450
10026POPC   C2B71108  32.927  33.629   6.750
10026POPC   C3B71109  32.913  33.575   7.050
10026POPC   C4B71110  32.846  33.617   7.350
10027POPC   NC371111  16.772  22.929   5.550
10027POPC   PO471112  16.745  22.901   5.850
10027POPC   GL171113  16.689  22.937   6.150
10027POPC   GL271114  16.574  22.917   6.150
10027POPC   C1A71115  16.733  22.902   6.450
10027POPC   D2A71116  16.772  22.973   6.750
10027POPC   C3A71117  16.740  22.953   7.050
10027POPC   C4A71118  16.780  22.950   7.350
10027POPC   C1B71119  16.475  22.912   6.450
10027POPC   C2B71120  16.439  22.913   6.750
10027POPC   C3B71121  16.505  22.871   7.050
10027POPC   C4B71122  16.469  22.876   7.350
10028POPC   NC371123  44.699   6.597   5.550
10028POPC   PO471124  44.678   6.665   5.850
10028POPC   GL171125  44.696   6.674   6.150
10028POPC   GL271126  44.769   6.691   6.150
10028POPC   C1A71127  44.668   6.660   6.450
10028POPC   D2A71128  44.680   6.595   6.750
10028POPC   C3A71129  44.622   6.689   7.050
10028POPC   C4A71130  44.618   6.619   7.350
10028POPC   C1B71131  44.890   6.802   6.450
10028POPC   C2B71132  44.846   6.762   6.750
10028POPC   C3B71133  44.869   6.824   7.050
10028POPC   C4B71134  44.844   6.750   7.350
10029POPC   NC371135  36.885  36.165   5.550
10029POPC   PO471136  36.876  36.112   5.850
10029POPC   GL171137  36.951  36.126   6.150
10029POPC   GL271138  37.047  36.152   6.150
10029POPC   C1A71139  36.864  36.158   6.450
10029POPC   D2A71140  36.948  36.154   6.750
10029POPC   C3A71141  36.895  36.151   7.050
10029POPC   C4A71142  36.899  36.111   7.350
10029POPC   C1B71143  37.130  36.048   6.450
10029POPC   C2B71144  37.199  36.118   6.750
10029POPC   C3B71145  37.155  36.047   7.050
10029POPC   C4B71146  37.176  36.033   7.350
10030POPC   NC371147   0.390  43.147   5.550
10030POPC   PO471148   0.392  43.145   5.850
10030POPC   GL171149   0.417  43.082   6.150
10030POPC   GL271150   0.435  42.961   6.150
10030POPC   C1A71151   0.461  43.080   6.450
10030POPC   D2A71152   0.464  43.138   6.750
10030POPC   C3A71153   0.486  43.103   7.050
10030POPC   C4A71154   0.405  43.099   7.350
10030POPC   C1B71155   0.435  42.852   6.450
10030POPC   C2B71156   0.450  42.843   6.750
10030POPC   C3B71157   0.428  42.876   7.050
10030POPC   C4B71158   0.464  42.899   7.350
10031POPC   NC371159  32.216  19.078   5.550
10031POPC   PO471160  32.282  19.104   5.850
10031POPC   GL171161  32.236  19.041   6.150
10031POPC   GL271162  32.286  19.229   6.150
10031POPC   C1A71163  32.288  19.051   6.450
10031POPC   D2A71164  32.206  19.097   6.750
10031POPC   C3A71165  32.235  19.023   7.050
10031POPC   C4A71166  32.254  19.072   7.350
10031POPC   C1B71167  32.265  19.324   6.450
10031POPC   C2B71168  32.234  19.288   6.750
10031POPC   C3B71169  32.279  19.304   7.050
10031POPC   C4B71170  32.264  19.345   7.350
10032POPC   NC371171  32.980  20.627   5.550
10032POPC   PO471172  32.983  20.645   5.850
10032POPC   GL171173  33.039  20.638   6.150
10032POPC   GL271174  33.159  20.563   6.150
10032POPC   C1A71175  33.030  20.626   6.450
10032POPC   D2A71176  33.028  20.564   6.750
10032POPC   C3A71177  33.067  20.580   7.050
10032POPC   C4A71178  33.002  20.623   7.350
10032POPC   C1B71179  33.191  20.495   6.450
10032POPC   C2B71180  33.222  20.466   6.750
10032POPC   C3B71181  33.253  20.480   7.050
10032POPC   C4B71182  33.210  20.452   7.350
10033POPC   NC371183  39.207  36.895   5.550
10033POPC   PO471184  39.233  36.862   5.850
10033POPC   GL171185  39.205  36.917   6.150
10033POPC   GL271186  39.355  36.906   6.150
10033POPC   C1A71187  39.206  36.924   6.450
10033POPC   D2A71188  39.188  36.910   6.750
10033POPC   C3A71189  39.280  36.904   7.050
10033POPC   C4A71190  39.191  36.859   7.350
10033POPC   C1B71191  39.454  36.777   6.450
10033POPC   C2B71192  39.487  36.842   6.750
10033POPC   C3B71193  39.495  36.806   7.050
10033POPC   C4B71194  39.465  36.818   7.350
10034POPC   NC371195   4.288  29.186   5.550
10034POPC   PO471196   4.284  29.164   5.850
10034POPC   GL171197   4.331  29.136   6.150
10034POPC   GL271198   4.252  29.053   6.150
10034POPC   C1A71199   4.349  29.183   6.450
10034POPC   D2A71200   4.290  29.175   6.750
10034POPC   C3A71201   4.357  29.111   7.050
10034POPC   C4A71202   4.342  29.165   7.350
10034POPC   C1B71203   4.127  29.093   6.450
10034POPC   C2B71204   4.082  28.999   6.750
10034POPC   C3B71205   4.056  29.014   7.050
10034POPC   C4B71206   4.088  29.021   7.350
10035POPC   NC371207  19.079  32.217   5.550
10035POPC   PO471208  19.107  32.256   5.850
10035POPC   GL171209  19.039  32.277   6.150
10035POPC   GL271210  19.107  32.141   6.150
10035POPC   C1A71211  19.015  32.280   6.450
10035POPC   D2A71212  19.100  32.202   6.750
10035POPC   C3A71213  19.069  32.239   7.050
10035POPC   C4A71214  19.106  32.287   7.350
10035POPC   C1B71215  19.173  32.026   6.450
10035POPC   C2B71216  19.123  32.001   6.750
10035POPC   C3B71217  19.118  31.967   7.050
10035POPC   C4B71218  19.153  31.988   7.350
10036POPC   NC371219  41.577  19.851   5.550
10036POPC   PO471220  41.572  19.884   5.850
10036POPC   GL171221  41.559  19.872   6.150
10036POPC   GL271222  41.544  19.972   6.150
10036POPC   C1A71223  41.521  19.842   6.450
10036POPC   D2A71224  41.522  19.859   6.750
10036POPC   C3A71225  41.513  19.786   7.050
10036POPC   C4A71226  41.537  19.786   7.350
10036POPC   C1B71227  41.439  20.066   6.450
10036POPC   C2B71228  41.426  20.064   6.750
10036POPC   C3B71229  41.415  20.020   7.050
10036POPC   C4B71230  41.412  20.092   7.350
10037POPC   NC371231  36.944   8.243   5.550
10037POPC   PO471232  36.892   8.161   5.850
10037POPC   GL171233  36.866   8.181   6.150
10037POPC   GL271234  36.909   8.079   6.150
10037POPC   C1A71235  36.943   8.187   6.450
10037POPC   D2A71236  36.877   8.167   6.750
10037POPC   C3A71237  36.917   8.218   7.050
10037POPC   C4A71238  36.887   8.197   7.350
10037POPC   C1B71239  36.980   7.937   6.450
10037POPC   C2B71240  36.930   7.949   6.750
10037POPC   C3B71241  36.929   7.971   7.050
10037POPC   C4B71242  36.993   7.946   7.350
10038POPC   NC371243  38.483  39.243   5.550
10038POPC   PO471244  38.450  39.223   5.850
10038POPC   GL171245  38.457  39.272   6.150
10038POPC   GL271246  38.410  39.361   6.150
10038POPC   C1A71247  38.420  39.267   6.450
10038POPC   D2A71248  38.445  39.273   6.750
10038POPC   C3A71249  38.461  39.256   7.050
10038POPC   C4A71250  38.470  39.275   7.350
10038POPC   C1B71251  38.403  39.521   6.450
10038POPC   C2B71252  38.406  39.479   6.750
10038POPC   C3B71253  38.370  39.464   7.050
10038POPC   C4B71254  38.382  39.439   7.350
10039POPC   NC371255  12.086   5.072   5.550
10039POPC   PO471256  12.096   5.143   5.850
10039POPC   GL171257  12.063   5.127   6.150
10039POPC   GL271258  12.002   5.132   6.150
10039POPC   C1A71259  12.058   5.129   6.450
10039POPC   D2A71260  12.112   5.046   6.750
10039POPC   C3A71261  12.083   5.081   7.050
10039POPC   C4A71262  12.058   5.114   7.350
10039POPC   C1B71263  11.868   5.191   6.450
10039POPC   C2B71264  11.835   5.235   6.750
10039POPC   C3B71265  11.869   5.262   7.050
10039POPC   C4B71266  11.837   5.267   7.350
10040POPC   NC371267  26.808  33.775   5.550
10040POPC   PO471268  26.834  33.806   5.850
10040POPC   GL171269  26.783  33.777   6.150
10040POPC   GL271270  26.752  33.870   6.150
10040POPC   C1A71271  26.862  33.774   6.450
10040POPC   D2A71272  26.850  33.813   6.750
10040POPC   C3A71273  26.861  33.752   7.050
10040POPC   C4A71274  26.798  33.769   7.350
10040POPC   C1B71275  26.755  34.077   6.450
10040POPC   C2B71276  26.685  34.020   6.750
10040POPC   C3B71277  26.717  34.048   7.050
10040POPC   C4B71278  26.755  34.039   7.350
10041POPC   NC371279  29.968  36.873   5.550
10041POPC   PO471280  29.910  36.857   5.850
10041POPC   GL171281  29.964  36.928   6.150
10041POPC   GL271282  29.832  36.754   6.150
10041POPC   C1A71283  29.910  36.898   6.450
10041POPC   D2A71284  29.884  36.911   6.750
10041POPC   C3A71285  29.931  36.932   7.050
10041POPC   C4A71286  29.904  36.883   7.350
10041POPC   C1B71287  29.773  36.652   6.450
10041POPC   C2B71288  29.835  36.721   6.750
10041POPC   C3B71289  29.797  36.674   7.050
10041POPC   C4B71290  29.823  36.670   7.350
10042POPC   NC371291  41.541  42.335   5.550
10042POPC   PO471292  41.572  42.348   5.850
10042POPC   GL171293  41.550  42.351   6.150
10042POPC   GL271294  41.538  42.454   6.150
10042POPC   C1A71295  41.540  42.380   6.450
10042POPC   D2A71296  41.531  42.314   6.750
10042POPC   C3A71297  41.578  42.292   7.050
10042POPC   C4A71298  41.541  42.340   7.350
10042POPC   C1B71299  41.485  42.540   6.450
10042POPC   C2B71300  41.547  42.626   6.750
10042POPC   C3B71301  41.555  42.592   7.050
10042POPC   C4B71302  41.562  42.615   7.350
10043POPC   NC371303   1.208  43.101   5.550
10043POPC   PO471304   1.211  43.140   5.850
10043POPC   GL171305   1.221  43.063   6.150
10043POPC   GL271306   1.342  43.060   6.150
10043POPC   C1A71307   1.206  43.068   6.450
10043POPC   D2A71308   1.226  43.154   6.750
10043POPC   C3A71309   1.257  43.112   7.050
10043POPC   C4A71310   1.256  43.063   7.350
10043POPC   C1B71311   1.489  43.069   6.450
10043POPC   C2B71312   1.459  43.037   6.750
10043POPC   C3B71313   1.421  43.014   7.050
10043POPC   C4B71314   1.462  43.088   7.350
10044POPC   NC371315   9.771  20.576   5.550
10044POPC   PO471316   9.792  20.620   5.850
10044POPC   GL171317   9.730  20.566   6.150
10044POPC   GL271318   9.684  20.716   6.150
10044POPC   C1A71319   9.795  20.563   6.450
10044POPC   D2A71320   9.716  20.619   6.750
10044POPC   C3A71321   9.784  20.614   7.050
10044POPC   C4A71322   9.759  20.615   7.350
10044POPC   C1B71323   9.658  20.859   6.450
10044POPC   C2B71324   9.655  20.891   6.750
10044POPC   C3B71325   9.620  20.884   7.050
10044POPC   C4B71326   9.627  20.813   7.350
10045POPC   NC371327  22.909  14.448   5.550
10045POPC   PO471328  22.948  14.413   5.850
10045POPC   GL171329  22.900  14.390   6.150
10045POPC   GL271330  22.936  14.557   6.150
10045POPC   C1A71331  22.910  14.396   6.450
10045POPC   D2A71332  22.930  14.397   6.750
10045POPC   C3A71333  22.983  14.367   7.050
10045POPC   C4A71334  22.920  14.413   7.350
10045POPC   C1B71335  22.882  14.619   6.450
10045POPC   C2B71336  22.918  14.687   6.750
10045POPC   C3B71337  22.884  14.606   7.050
10045POPC   C4B71338  22.863  14.638   7.350
10046POPC   NC371339  41.561  15.183   5.550
10046POPC   PO471340  41.598  15.169   5.850
10046POPC   GL171341  41.509  15.212   6.150
10046POPC   GL271342  41.476  15.119   6.150
10046POPC   C1A71343  41.547  15.161   6.450
10046POPC   D2A71344  41.543  15.207   6.750
10046POPC   C3A71345  41.575  15.140   7.050
10046POPC   C4A71346  41.584  15.134   7.350
10046POPC   C1B71347  41.322  15.175   6.450
10046POPC   C2B71348  41.310  15.090   6.750
10046POPC   C3B71349  41.264  15.119   7.050
10046POPC   C4B71350  41.361  15.088   7.350
10047POPC   NC371351   4.286  21.377   5.550
10047POPC   PO471352   4.325  21.436   5.850
10047POPC   GL171353   4.367  21.384   6.150
10047POPC   GL271354   4.435  21.505   6.150
10047POPC   C1A71355   4.295  21.406   6.450
10047POPC   D2A71356   4.278  21.397   6.750
10047POPC   C3A71357   4.313  21.428   7.050
10047POPC   C4A71358   4.318  21.391   7.350
10047POPC   C1B71359   4.477  21.539   6.450
10047POPC   C2B71360   4.490  21.503   6.750
10047POPC   C3B71361   4.539  21.577   7.050
10047POPC   C4B71362   4.533  21.503   7.350
10048POPC   NC371363   5.116  29.122   5.550
10048POPC   PO471364   5.060  29.136   5.850
10048POPC   GL171365   5.128  29.184   6.150
10048POPC   GL271366   5.019  29.217   6.150
10048POPC   C1A71367   5.099  29.116   6.450
10048POPC   D2A71368   5.084  29.175   6.750
10048POPC   C3A71369   5.139  29.179   7.050
10048POPC   C4A71370   5.102  29.147   7.350
10048POPC   C1B71371   4.935  29.389   6.450
10048POPC   C2B71372   4.945  29.299   6.750
10048POPC   C3B71373   4.943  29.336   7.050
10048POPC   C4B71374   4.899  29.333   7.350
10049POPC   NC371375  43.881   2.036   5.550
10049POPC   PO471376  43.928   1.947   5.850
10049POPC   GL171377  43.910   1.947   6.150
10049POPC   GL271378  43.871   2.125   6.150
10049POPC   C1A71379  43.920   1.986   6.450
10049POPC   D2A71380  43.864   1.972   6.750
10049POPC   C3A71381  43.891   2.026   7.050
10049POPC   C4A71382  43.860   1.960   7.350
10049POPC   C1B71383  43.819   2.222   6.450
10049POPC   C2B71384  43.774   2.218   6.750
10049POPC   C3B71385  43.811   2.265   7.050
10049POPC   C4B71386  43.828   2.182   7.350
10050POPC   NC371387   3.555  10.504   5.550
10050POPC   PO471388   3.562  10.476   5.850
10050POPC   GL171389   3.499  10.542   6.150
10050POPC   GL271390   3.712  10.521   6.150
10050POPC   C1A71391   3.494  10.550   6.450
10050POPC   D2A71392   3.551  10.502   6.750
10050POPC   C3A71393   3.565  10.514   7.050
10050POPC   C4A71394   3.509  10.475   7.350
10050POPC   C1B71395   3.828  10.472   6.450
10050POPC   C2B71396   3.814  10.529   6.750
10050POPC   C3B71397   3.774  10.478   7.050
10050POPC   C4B71398   3.790  10.461   7.350
10051POPC   NC371399   1.220  12.092   5.550
10051POPC   PO471400   1.258  12.034   5.850
10051POPC   GL171401   1.233  12.118   6.150
10051POPC   GL271402   1.314  12.179   6.150
10051POPC   C1A71403   1.222  12.053   6.450
10051POPC   D2A71404   1.263  12.056   6.750
10051POPC   C3A71405   1.249  12.091   7.050
10051POPC   C4A71406   1.211  12.126   7.350
10051POPC   C1B71407   1.412  12.226   6.450
10051POPC   C2B71408   1.416  12.258   6.750
10051POPC   C3B71409   1.447  12.242   7.050
10051POPC   C4B71410   1.424  12.264   7.350
10052POPC   NC371411  24.464  33.803   5.550
10052POPC   PO471412  24.493  33.820   5.850
10052POPC   GL171413  24.483  33.767   6.150
10052POPC   GL271414  24.413  33.895   6.150
10052POPC   C1A71415  24.473  33.805   6.450
10052POPC   D2A71416  24.521  33.811   6.750
10052POPC   C3A71417  24.519  33.790   7.050
10052POPC   C4A71418  24.515  33.839   7.350
10052POPC   C1B71419  24.332  34.039   6.450
10052POPC   C2B71420  24.329  34.007   6.750
10052POPC   C3B71421  24.390  34.018   7.050
10052POPC   C4B71422  24.386  34.060   7.350
10053POPC   NC371423  32.995  25.258   5.550
10053POPC   PO471424  32.975  25.275   5.850
10053POPC   GL171425  33.059  25.303   6.150
10053POPC   GL271426  33.166  25.167   6.150
10053POPC   C1A71427  33.035  25.275   6.450
10053POPC   D2A71428  32.995  25.243   6.750
10053POPC   C3A71429  33.048  25.250   7.050
10053POPC   C4A71430  33.030  25.302   7.350
10053POPC   C1B71431  33.240  25.117   6.450
10053POPC   C2B71432  33.238  25.115   6.750
10053POPC   C3B71433  33.166  25.075   7.050
10053POPC   C4B71434  33.184  25.071   7.350
10054POPC   NC371435  10.539  12.124   5.550
10054POPC   PO471436  10.489  12.045   5.850
10054POPC   GL171437  10.532  12.027   6.150
10054POPC   GL271438  10.501  12.237   6.150
10054POPC   C1A71439  10.478  12.034   6.450
10054POPC   D2A71440  10.520  12.101   6.750
10054POPC   C3A71441  10.532  12.038   7.050
10054POPC   C4A71442  10.502  12.112   7.350
10054POPC   C1B71443  10.418  12.301   6.450
10054POPC   C2B71444  10.473  12.277   6.750
10054POPC   C3B71445  10.435  12.303   7.050
10054POPC   C4B71446  10.399  12.343   7.350
10055POPC   NC371447  36.108  39.990   5.550
10055POPC   PO471448  36.078  39.987   5.850
10055POPC   GL171449  36.136  40.045   6.150
10055POPC   GL271450  36.220  40.065   6.150
10055POPC   C1A71451  36.147  40.035   6.450
10055POPC   D2A71452  36.126  39.976   6.750
10055POPC   C3A71453  36.095  40.041   7.050
10055POPC   C4A71454  36.113  40.033   7.350
10055POPC   C1B71455  36.386  40.091   6.450
10055POPC   C2B71456  36.378  40.048   6.750
10055POPC   C3B71457  36.397  40.117   7.050
10055POPC   C4B71458  36.358  40.051   7.350
10056POPC   NC371459  17.477   8.977   5.550
10056POPC   PO471460  17.471   9.010   5.850
10056POPC   GL171461  17.492   8.929   6.150
10056POPC   GL271462  17.589   8.938   6.150
10056POPC   C1A71463  17.488   8.932   6.450
10056POPC   D2A71464  17.460   8.964   6.750
10056POPC   C3A71465  17.484   8.994   7.050
10056POPC   C4A71466  17.534   8.985   7.350
10056POPC   C1B71467  17.713   8.909   6.450
10056POPC   C2B71468  17.712   8.889   6.750
10056POPC   C3B71469  17.733   8.935   7.050
10056POPC   C4B71470  17.775   8.933   7.350
10057POPC   NC371471  15.905  14.371   5.550
10057POPC   PO471472  15.978  14.357   5.850
10057POPC   GL171473  15.990  14.403   6.150
10057POPC   GL271474  15.813  14.490   6.150
10057POPC   C1A71475  15.972  14.429   6.450
10057POPC   D2A71476  15.995  14.420   6.750
10057POPC   C3A71477  15.932  14.439   7.050
10057POPC   C4A71478  15.932  14.423   7.350
10057POPC   C1B71479  15.730  14.521   6.450
10057POPC   C2B71480  15.731  14.515   6.750
10057POPC   C3B71481  15.695  14.458   7.050
10057POPC   C4B71482  15.732  14.461   7.350
10058POPC   NC371483  10.539   5.107   5.550
10058POPC   PO471484  10.573   5.133   5.850
10058POPC   GL171485  10.547   5.137   6.150
10058POPC   GL271486  10.582   5.250   6.150
10058POPC   C1A71487  10.516   5.125   6.450
10058POPC   D2A71488  10.508   5.097   6.750
10058POPC   C3A71489  10.478   5.051   7.050
10058POPC   C4A71490  10.524   5.112   7.350
10058POPC   C1B71491  10.502   5.378   6.450
10058POPC   C2B71492  10.500   5.368   6.750
10058POPC   C3B71493  10.550   5.375   7.050
10058POPC   C4B71494  10.496   5.362   7.350
10059POPC   NC371495  35.356  43.870   5.550
10059POPC   PO471496  35.333  43.882   5.850
10059POPC   GL171497  35.352  43.900   6.150
10059POPC   GL271498  35.306  44.055   6.150
10059POPC   C1A71499  35.336  43.912   6.450
10059POPC   D2A71500  35.346  43.882   6.750
10059POPC   C3A71501  35.311  43.892   7.050
10059POPC   C4A71502  35.369  43.912   7.350
10059POPC   C1B71503  35.304  44.179   6.450
10059POPC   C2B71504  35.271  44.159   6.750
10059POPC   C3B71505  35.331  44.154   7.050
10059POPC   C4B71506  35.313  44.106   7.350
10060POPC   NC371507  15.141  14.404   5.550
10060POPC   PO471508  15.148  14.408   5.850
10060POPC   GL171509  15.152  14.374   6.150
10060POPC   GL271510  15.095  14.264   6.150
10060POPC   C1A71511  15.171  14.426   6.450
10060POPC   D2A71512  15.170  14.394   6.750
10060POPC   C3A71513  15.209  14.388   7.050
10060POPC   C4A71514  15.183  14.438   7.350
10060POPC   C1B71515  14.999  14.201   6.450
10060POPC   C2B71516  15.078  14.168   6.750
10060POPC   C3B71517  15.086  14.195   7.050
10060POPC   C4B71518  15.032  14.207   7.350
10061POPC   NC371519  29.956  15.916   5.550
10061POPC   PO471520  29.913  15.995   5.850
10061POPC   GL171521  29.891  15.977   6.150
10061POPC   GL271522  29.835  15.958   6.150
10061POPC   C1A71523  29.953  15.959   6.450
10061POPC   D2A71524  29.934  15.923   6.750
10061POPC   C3A71525  29.889  15.925   7.050
10061POPC   C4A71526  29.946  15.975   7.350
10061POPC   C1B71527  29.657  16.006   6.450
10061POPC   C2B71528  29.673  16.045   6.750
10061POPC   C3B71529  29.653  16.052   7.050
10061POPC   C4B71530  29.709  16.023   7.350
10062POPC   NC371531  38.442   2.727   5.550
10062POPC   PO471532  38.492   2.803   5.850
10062POPC   GL171533  38.417   2.757   6.150
10062POPC   GL271534  38.514   2.860   6.150
10062POPC   C1A71535  38.491   2.773   6.450
10062POPC   D2A71536  38.429   2.767   6.750
10062POPC   C3A71537  38.456   2.744   7.050
10062POPC   C4A71538  38.453   2.787   7.350
10062POPC   C1B71539  38.522   3.013   6.450
10062POPC   C2B71540  38.478   2.979   6.750
10062POPC   C3B71541  38.490   3.026   7.050
10062POPC   C4B71542  38.488   2.959   7.350
10063POPC   NC371543  32.282  16.714   5.550
10063POPC   PO471544  32.233  16.692   5.850
10063POPC   GL171545  32.268  16.687   6.150
10063POPC   GL271546  32.160  16.699   6.150
10063POPC   C1A71547  32.246  16.738   6.450
10063POPC   D2A71548  32.200  16.746   6.750
10063POPC   C3A71549  32.213  16.737   7.050
10063POPC   C4A71550  32.259  16.767   7.350
10063POPC   C1B71551  31.984  16.786   6.450
10063POPC   C2B71552  31.984  16.695   6.750
10063POPC   C3B71553  31.980  16.773   7.050
10063POPC   C4B71554  31.964  16.715   7.350
10064POPC   NC371555  43.114   4.342   5.550
10064POPC   PO471556  43.112   4.271   5.850
10064POPC   GL171557  43.078   4.355   6.150
10064POPC   GL271558  43.032   4.347   6.150
10064POPC   C1A71559  43.126   4.347   6.450
10064POPC   D2A71560  43.064   4.356   6.750
10064POPC   C3A71561  43.124   4.269   7.050
10064POPC   C4A71562  43.071   4.342   7.350
10064POPC   C1B71563  42.860   4.315   6.450
10064POPC   C2B71564  42.864   4.367   6.750
10064POPC   C3B71565  42.868   4.387   7.050
10064POPC   C4B71566  42.828   4.351   7.350
10065POPC   NC371567  33.038  15.165   5.550
10065POPC   PO471568  33.060  15.162   5.850
10065POPC   GL171569  33.004  15.227   6.150
10065POPC   GL271570  32.911  15.260   6.150
10065POPC   C1A71571  33.042  15.159   6.450
10065POPC   D2A71572  32.989  15.152   6.750
10065POPC   C3A71573  33.050  15.198   7.050
10065POPC   C4A71574  33.050  15.153   7.350
10065POPC   C1B71575  32.880  15.405   6.450
10065POPC   C2B71576  32.925  15.340   6.750
10065POPC   C3B71577  32.878  15.354   7.050
10065POPC   C4B71578  32.843  15.396   7.350
10066POPC   NC371579  34.587  37.686   5.550
10066POPC   PO471580  34.556  37.706   5.850
10066POPC   GL171581  34.556  37.718   6.150
10066POPC   GL271582  34.461  37.700   6.150
10066POPC   C1A71583  34.593  37.684   6.450
10066POPC   D2A71584  34.572  37.646   6.750
10066POPC   C3A71585  34.623  37.638   7.050
10066POPC   C4A71586  34.591  37.659   7.350
10066POPC   C1B71587  34.339  37.730   6.450
10066POPC   C2B71588  34.282  37.708   6.750
10066POPC   C3B71589  34.311  37.753   7.050
10066POPC   C4B71590  34.372  37.687   7.350
10067POPC   NC371591  41.518   8.941   5.550
10067POPC   PO471592  41.587   9.007   5.850
10067POPC   GL171593  41.517   9.007   6.150
10067POPC   GL271594  41.548   8.832   6.150
10067POPC   C1A71595  41.602   8.993   6.450
10067POPC   D2A71596  41.538   8.990   6.750
10067POPC   C3A71597  41.534   8.950   7.050
10067POPC   C4A71598  41.567   8.977   7.350
10067POPC   C1B71599  41.574   8.682   6.450
10067POPC   C2B71600  41.668   8.712   6.750
10067POPC   C3B71601  41.641   8.742   7.050
10067POPC   C4B71602  41.625   8.729   7.350
10068POPC   NC371603   9.021  41.525   5.550
10068POPC   PO471604   9.009  41.599   5.850
10068POPC   GL171605   8.970  41.524   6.150
10068POPC   GL271606   8.899  41.423   6.150
10068POPC   C1A71607   8.980  41.567   6.450
10068POPC   D2A71608   8.984  41.556   6.750
10068POPC   C3A71609   8.947  41.593   7.050
10068POPC   C4A71610   8.927  41.552   7.350
10068POPC   C1B71611   8.779  41.350   6.450
10068POPC   C2B71612   8.810  41.312   6.750
10068POPC   C3B71613   8.853  41.364   7.050
10068POPC   C4B71614   8.808  41.335   7.350
10069POPC   NC371615  22.917  38.503   5.550
10069POPC   PO471616  22.938  38.436   5.850
10069POPC   GL171617  22.948  38.460   6.150
10069POPC   GL271618  22.855  38.405   6.150
10069POPC   C1A71619  22.931  38.406   6.450
10069POPC   D2A71620  22.949  38.502   6.750
10069POPC   C3A71621  22.896  38.427   7.050
10069POPC   C4A71622  22.937  38.477   7.350
10069POPC   C1B71623  22.661  38.411   6.450
10069POPC   C2B71624  22.715  38.374   6.750
10069POPC   C3B71625  22.705  38.354   7.050
10069POPC   C4B71626  22.732  38.405   7.350
10070POPC   NC371627  35.346   9.016   5.550
10070POPC   PO471628  35.314   8.996   5.850
10070POPC   GL171629  35.359   9.012   6.150
10070POPC   GL271630  35.297   9.079   6.150
10070POPC   C1A71631  35.322   8.944   6.450
10070POPC   D2A71632  35.388   8.994   6.750
10070POPC   C3A71633  35.366   8.950   7.050
10070POPC   C4A71634  35.380   8.988   7.350
10070POPC   C1B71635  35.222   9.202   6.450
10070POPC   C2B71636  35.238   9.204   6.750
10070POPC   C3B71637  35.288   9.221   7.050
10070POPC   C4B71638  35.216   9.254   7.350
10071POPC   NC371639   5.909  17.484   5.550
10071POPC   PO471640   5.876  17.471   5.850
10071POPC   GL171641   5.832  17.543   6.150
10071POPC   GL271642   5.748  17.508   6.150
10071POPC   C1A71643   5.893  17.485   6.450
10071POPC   D2A71644   5.914  17.515   6.750
10071POPC   C3A71645   5.847  17.528   7.050
10071POPC   C4A71646   5.821  17.498   7.350
10071POPC   C1B71647   5.674  17.411   6.450
10071POPC   C2B71648   5.661  17.456   6.750
10071POPC   C3B71649   5.599  17.448   7.050
10071POPC   C4B71650   5.656  17.395   7.350
10072POPC   NC371651  25.230   1.942   5.550
10072POPC   PO471652  25.256   2.038   5.850
10072POPC   GL171653  25.262   2.034   6.150
10072POPC   GL271654  25.153   1.906   6.150
10072POPC   C1A71655  25.246   2.030   6.450
10072POPC   D2A71656  25.237   1.947   6.750
10072POPC   C3A71657  25.295   2.001   7.050
10072POPC   C4A71658  25.261   2.014   7.350
10072POPC   C1B71659  25.051   1.883   6.450
10072POPC   C2B71660  25.025   1.885   6.750
10072POPC   C3B71661  25.001   1.851   7.050
10072POPC   C4B71662  25.066   1.847   7.350
10073POPC   NC371663  33.063   8.994   5.550
10073POPC   PO471664  33.010   8.940   5.850
10073POPC   GL171665  33.040   8.973   6.150
10073POPC   GL271666  33.183   8.947   6.150
10073POPC   C1A71667  33.038   9.013   6.450
10073POPC   D2A71668  32.989   8.959   6.750
10073POPC   C3A71669  33.021   8.973   7.050
10073POPC   C4A71670  33.029   8.937   7.350
10073POPC   C1B71671  33.302   9.014   6.450
10073POPC   C2B71672  33.300   8.995   6.750
10073POPC   C3B71673  33.268   8.949   7.050
10073POPC   C4B71674  33.314   8.990   7.350
10074POPC   NC371675   3.568  28.409   5.550
10074POPC   PO471676   3.506  28.388   5.850
10074POPC   GL171677   3.539  28.360   6.150
10074POPC   GL271678   3.432  28.338   6.150
10074POPC   C1A71679   3.573  28.353   6.450
10074POPC   D2A71680   3.537  28.364   6.750
10074POPC   C3A71681   3.541  28.361   7.050
10074POPC   C4A71682   3.533  28.342   7.350
10074POPC   C1B71683   3.294  28.360   6.450
10074POPC   C2B71684   3.341  28.385   6.750
10074POPC   C3B71685   3.252  28.338   7.050
10074POPC   C4B71686   3.284  28.380   7.350
10075POPC   NC371687  39.243  37.685   5.550
10075POPC   PO471688  39.249  37.701   5.850
10075POPC   GL171689  39.190  37.664   6.150
10075POPC   GL271690  39.188  37.796   6.150
10075POPC   C1A71691  39.216  37.717   6.450
10075POPC   D2A71692  39.250  37.718   6.750
10075POPC   C3A71693  39.236  37.692   7.050
10075POPC   C4A71694  39.277  37.688   7.350
10075POPC   C1B71695  39.059  37.930   6.450
10075POPC   C2B71696  39.128  37.935   6.750
10075POPC   C3B71697  39.103  37.900   7.050
10075POPC   C4B71698  39.152  37.923   7.350
10076POPC   NC371699  39.242  10.563   5.550
10076POPC   PO471700  39.230  10.503   5.850
10076POPC   GL171701  39.208  10.479   6.150
10076POPC   GL271702  39.258  10.604   6.150
10076POPC   C1A71703  39.262  10.493   6.450
10076POPC   D2A71704  39.237  10.550   6.750
10076POPC   C3A71705  39.209  10.507   7.050
10076POPC   C4A71706  39.268  10.563   7.350
10076POPC   C1B71707  39.289  10.780   6.450
10076POPC   C2B71708  39.239  10.798   6.750
10076POPC   C3B71709  39.282  10.747   7.050
10076POPC   C4B71710  39.269  10.802   7.350
10077POPC   NC371711   9.759  15.912   5.550
10077POPC   PO471712   9.741  15.948   5.850
10077POPC   GL171713   9.709  15.984   6.150
10077POPC   GL271714   9.702  16.048   6.150
10077POPC   C1A71715   9.775  15.988   6.450
10077POPC   D2A71716   9.758  15.924   6.750
10077POPC   C3A71717   9.755  15.988   7.050
10077POPC   C4A71718   9.702  15.982   7.350
10077POPC   C1B71719   9.634  16.233   6.450
10077POPC   C2B71720   9.638  16.237   6.750
10077POPC   C3B71721   9.712  16.155   7.050
10077POPC   C4B71722   9.677  16.240   7.350
10078POPC   NC371723  40.741  12.852   5.550
10078POPC   PO471724  40.815  12.885   5.850
10078POPC   GL171725  40.797  12.900   6.150
10078POPC   GL271726  40.833  12.697   6.150
10078POPC   C1A71727  40.740  12.813   6.450
10078POPC   D2A71728  40.750  12.806   6.750
10078POPC   C3A71729  40.798  12.886   7.050
10078POPC   C4A71730  40.825  12.818   7.350
10078POPC   C1B71731  40.927  12.601   6.450
10078POPC   C2B71732  40.927  12.668   6.750
10078POPC   C3B71733  40.960  12.609   7.050
10078POPC   C4B71734  40.915  12.673   7.350
10079POPC   NC371735  26.083  28.398   5.550
10079POPC   PO471736  25.997  28.339   5.850
10079POPC   GL171737  26.011  28.403   6.150
10079POPC   GL271738  26.061  28.514   6.150
10079POPC   C1A71739  26.047  28.408   6.450
10079POPC   D2A71740  26.081  28.347   6.750
10079POPC   C3A71741  26.014  28.374   7.050
10079POPC   C4A71742  26.005  28.328   7.350
10079POPC   C1B71743  26.138  28.617   6.450
10079POPC   C2B71744  26.195  28.542   6.750
10079POPC   C3B71745  26.156  28.625   7.050
10079POPC   C4B71746  26.129  28.626   7.350
10080POPC   NC371747  32.216   8.934   5.550
10080POPC   PO471748  32.242   8.949   5.850
10080POPC   GL171749  32.271   8.994   6.150
10080POPC   GL271750  32.224   9.060   6.150
10080POPC   C1A71751  32.212   8.946   6.450
10080POPC   D2A71752  32.231   8.923   6.750
10080POPC   C3A71753  32.223   8.986   7.050
10080POPC   C4A71754  32.248   8.935   7.350
10080POPC   C1B71755  32.156   9.228   6.450
10080POPC   C2B71756  32.167   9.235   6.750
10080POPC   C3B71757  32.154   9.164   7.050
10080POPC   C4B71758  32.125   9.232   7.350
10081POPC   NC371759  44.626  20.628   5.550
10081POPC   PO471760  44.645  20.614   5.850
10081POPC   GL171761  44.623  20.572   6.150
10081POPC   GL271762  44.746  20.726   6.150
10081POPC   C1A71763  44.641  20.642   6.450
10081POPC   D2A71764  44.633  20.659   6.750
10081POPC   C3A71765  44.656  20.649   7.050
10081POPC   C4A71766  44.665  20.605   7.350
10081POPC   C1B71767  44.707  20.807   6.450
10081POPC   C2B71768  44.791  20.805   6.750
10081POPC   C3B71769  44.711  20.849   7.050
10081POPC   C4B71770  44.782  20.826   7.350
10082POPC   NC371771  43.840  43.883   5.550
10082POPC   PO471772  43.859  43.874   5.850
10082POPC   GL171773  43.854  43.837   6.150
10082POPC   GL271774  43.779  43.812   6.150
10082POPC   C1A71775  43.928  43.858   6.450
10082POPC   D2A71776  43.888  43.849   6.750
10082POPC   C3A71777  43.857  43.877   7.050
10082POPC   C4A71778  43.838  43.885   7.350
10082POPC   C1B71779  43.738  43.743   6.450
10082POPC   C2B71780  43.711  43.712   6.750
10082POPC   C3B71781  43.740  43.644   7.050
10082POPC   C4B71782  43.691  43.655   7.350
10083POPC   NC371783  37.679  37.705   5.550
10083POPC   PO471784  37.686  37.705   5.850
10083POPC   GL171785  37.692  37.682   6.150
10083POPC   GL271786  37.784  37.646   6.150
10083POPC   C1A71787  37.654  37.716   6.450
10083POPC   D2A71788  37.650  37.658   6.750
10083POPC   C3A71789  37.692  37.676   7.050
10083POPC   C4A71790  37.708  37.653   7.350
10083POPC   C1B71791  37.905  37.648   6.450
10083POPC   C2B71792  37.965  37.591   6.750
10083POPC   C3B71793  37.943  37.589   7.050
10083POPC   C4B71794  37.917  37.603   7.350
10084POPC   NC371795  33.817  36.131   5.550
10084POPC   PO471796  33.766  36.123   5.850
10084POPC   GL171797  33.831  36.122   6.150
10084POPC   GL271798  33.861  36.197   6.150
10084POPC   C1A71799  33.798  36.104   6.450
10084POPC   D2A71800  33.848  36.146   6.750
10084POPC   C3A71801  33.832  36.111   7.050
10084POPC   C4A71802  33.798  36.134   7.350
10084POPC   C1B71803  33.888  36.365   6.450
10084POPC   C2B71804  33.924  36.316   6.750
10084POPC   C3B71805  33.910  36.370   7.050
10084POPC   C4B71806  33.919  36.346   7.350
10085POPC   NC371807  22.902  40.769   5.550
10085POPC   PO471808  22.954  40.809   5.850
10085POPC   GL171809  22.925  40.773   6.150
10085POPC   GL271810  22.927  40.846   6.150
10085POPC   C1A71811  22.897  40.746   6.450
10085POPC   D2A71812  22.967  40.796   6.750
10085POPC   C3A71813  22.927  40.802   7.050
10085POPC   C4A71814  22.940  40.800   7.350
10085POPC   C1B71815  22.808  41.041   6.450
10085POPC   C2B71816  22.829  41.007   6.750
10085POPC   C3B71817  22.832  41.048   7.050
10085POPC   C4B71818  22.855  41.040   7.350
10086POPC   NC371819  34.539  13.587   5.550
10086POPC   PO471820  34.567  13.639   5.850
10086POPC   GL171821  34.624  13.657   6.150
10086POPC   GL271822  34.713  13.581   6.150
10086POPC   C1A71823  34.589  13.676   6.450
10086POPC   D2A71824  34.601  13.663   6.750
10086POPC   C3A71825  34.537  13.668   7.050
10086POPC   C4A71826  34.600  13.610   7.350
10086POPC   C1B71827  34.776  13.589   6.450
10086POPC   C2B71828  34.814  13.533   6.750
10086POPC   C3B71829  34.859  13.540   7.050
10086POPC   C4B71830  34.767  13.581   7.350
10087POPC   NC371831  31.443  17.507   5.550
10087POPC   PO471832  31.468  17.542   5.850
10087POPC   GL171833  31.462  17.550   6.150
10087POPC   GL271834  31.313  17.515   6.150
10087POPC   C1A71835  31.424  17.555   6.450
10087POPC   D2A71836  31.513  17.498   6.750
10087POPC   C3A71837  31.447  17.488   7.050
10087POPC   C4A71838  31.475  17.526   7.350
10087POPC   C1B71839  31.174  17.548   6.450
10087POPC   C2B71840  31.231  17.467   6.750
10087POPC   C3B71841  31.199  17.545   7.050
10087POPC   C4B71842  31.261  17.545   7.350
10088POPC   NC371843   5.142  22.147   5.550
10088POPC   PO471844   5.046  22.141   5.850
10088POPC   GL171845   5.091  22.194   6.150
10088POPC   GL271846   5.187  22.010   6.150
10088POPC   C1A71847   5.097  22.138   6.450
10088POPC   D2A71848   5.133  22.189   6.750
10088POPC   C3A71849   5.064  22.142   7.050
10088POPC   C4A71850   5.128  22.125   7.350
10088POPC   C1B71851   5.249  21.963   6.450
10088POPC   C2B71852   5.238  21.973   6.750
10088POPC   C3B71853   5.203  21.979   7.050
10088POPC   C4B71854   5.171  21.916   7.350
10089POPC   NC371855  22.892  15.970   5.550
10089POPC   PO471856  22.972  15.914   5.850
10089POPC   GL171857  22.920  15.999   6.150
10089POPC   GL271858  23.092  15.962   6.150
10089POPC   C1A71859  22.923  16.005   6.450
10089POPC   D2A71860  22.980  15.936   6.750
10089POPC   C3A71861  22.933  15.986   7.050
10089POPC   C4A71862  22.951  15.949   7.350
10089POPC   C1B71863  23.199  15.863   6.450
10089POPC   C2B71864  23.190  15.885   6.750
10089POPC   C3B71865  23.128  15.912   7.050
10089POPC   C4B71866  23.218  15.843   7.350
10090POPC   NC371867   9.021  22.158   5.550
10090POPC   PO471868   9.008  22.158   5.850
10090POPC   GL171869   8.974  22.192   6.150
10090POPC   GL271870   8.956  22.040   6.150
10090POPC   C1A71871   9.017  22.118   6.450
10090POPC   D2A71872   8.958  22.155   6.750
10090POPC   C3A71873   8.987  22.123   7.050
10090POPC   C4A71874   8.966  22.210   7.350
10090POPC   C1B71875   8.906  21.902   6.450
10090POPC   C2B71876   8.864  21.891   6.750
10090POPC   C3B71877   8.928  21.965   7.050
10090POPC   C4B71878   8.916  21.920   7.350
10091POPC   NC371879  33.756  24.475   5.550
10091POPC   PO471880  33.827  24.527   5.850
10091POPC   GL171881  33.806  24.539   6.150
10091POPC   GL271882  33.687  24.430   6.150
10091POPC   C1A71883  33.775  24.442   6.450
10091POPC   D2A71884  33.788  24.478   6.750
10091POPC   C3A71885  33.785  24.469   7.050
10091POPC   C4A71886  33.818  24.499   7.350
10091POPC   C1B71887  33.532  24.424   6.450
10091POPC   C2B71888  33.569  24.349   6.750
10091POPC   C3B71889  33.557  24.412   7.050
10091POPC   C4B71890  33.521  24.395   7.350
10092POPC   NC371891  42.318  22.136   5.550
10092POPC   PO471892  42.355  22.179   5.850
10092POPC   GL171893  42.291  22.193   6.150
10092POPC   GL271894  42.282  22.024   6.150
10092POPC   C1A71895  42.304  22.112   6.450
10092POPC   D2A71896  42.354  22.124   6.750
10092POPC   C3A71897  42.349  22.141   7.050
10092POPC   C4A71898  42.320  22.165   7.350
10092POPC   C1B71899  42.287  21.968   6.450
10092POPC   C2B71900  42.270  21.874   6.750
10092POPC   C3B71901  42.321  21.965   7.050
10092POPC   C4B71902  42.290  21.891   7.350
10093POPC   NC371903  26.039  15.953   5.550
10093POPC   PO471904  26.054  15.972   5.850
10093POPC   GL171905  26.072  15.994   6.150
10093POPC   GL271906  25.958  16.039   6.150
10093POPC   C1A71907  26.014  15.919   6.450
10093POPC   D2A71908  26.032  16.001   6.750
10093POPC   C3A71909  26.006  15.911   7.050
10093POPC   C4A71910  25.992  15.981   7.350
10093POPC   C1B71911  25.881  16.122   6.450
10093POPC   C2B71912  25.904  16.143   6.750
10093POPC   C3B71913  25.850  16.113   7.050
10093POPC   C4B71914  25.904  16.176   7.350
10094POPC   NC371915  36.119  30.734   5.550
10094POPC   PO471916  36.081  30.687   5.850
10094POPC   GL171917  36.176  30.665   6.150
10094POPC   GL271918  36.136  30.606   6.150
10094POPC   C1A71919  36.158  30.742   6.450
10094POPC   D2A71920  36.119  30.696   6.750
10094POPC   C3A71921  36.141  30.663   7.050
10094POPC   C4A71922  36.169  30.724   7.350
10094POPC   C1B71923  36.059  30.494   6.450
10094POPC   C2B71924  36.149  30.411   6.750
10094POPC   C3B71925  36.098  30.488   7.050
10094POPC   C4B71926  36.059  30.398   7.350
10095POPC   NC371927  41.580  29.139   5.550
10095POPC   PO471928  41.523  29.143   5.850
10095POPC   GL171929  41.524  29.099   6.150
10095POPC   GL271930  41.628  29.021   6.150
10095POPC   C1A71931  41.512  29.150   6.450
10095POPC   D2A71932  41.589  29.127   6.750
10095POPC   C3A71933  41.524  29.108   7.050
10095POPC   C4A71934  41.516  29.158   7.350
10095POPC   C1B71935  41.764  28.991   6.450
10095POPC   C2B71936  41.737  28.988   6.750
10095POPC   C3B71937  41.767  28.920   7.050
10095POPC   C4B71938  41.730  29.012   7.350
10096POPC   NC371939   2.799  27.624   5.550
10096POPC   PO471940   2.801  27.628   5.850
10096POPC   GL171941   2.798  27.642   6.150
10096POPC   GL271942   2.740  27.739   6.150
10096POPC   C1A71943   2.803  27.546   6.450
10096POPC   D2A71944   2.792  27.581   6.750
10096POPC   C3A71945   2.796  27.607   7.050
10096POPC   C4A71946   2.809  27.588   7.350
10096POPC   C1B71947   2.678  27.808   6.450
10096POPC   C2B71948   2.677  27.789   6.750
10096POPC   C3B71949   2.614  27.839   7.050
10096POPC   C4B71950   2.651  27.814   7.350
10097POPC   NC371951  25.291  35.350   5.550
10097POPC   PO471952  25.219  35.397   5.850
10097POPC   GL171953  25.261  35.362   6.150
10097POPC   GL271954  25.228  35.448   6.150
10097POPC   C1A71955  25.217  35.361   6.450
10097POPC   D2A71956  25.284  35.321   6.750
10097POPC   C3A71957  25.281  35.393   7.050
10097POPC   C4A71958  25.291  35.397   7.350
10097POPC   C1B71959  25.241  35.606   6.450
10097POPC   C2B71960  25.284  35.600   6.750
10097POPC   C3B71961  25.300  35.554   7.050
10097POPC   C4B71962  25.272  35.576   7.350
10098POPC   NC371963   4.305  32.287   5.550
10098POPC   PO471964   4.363  32.210   5.850
10098POPC   GL171965   4.352  32.217   6.150
10098POPC   GL271966   4.477  32.304   6.150
10098POPC   C1A71967   4.364  32.226   6.450
10098POPC   D2A71968   4.289  32.276   6.750
10098POPC   C3A71969   4.314  32.295   7.050
10098POPC   C4A71970   4.323  32.232   7.350
10098POPC   C1B71971   4.558  32.345   6.450
10098POPC   C2B71972   4.575  32.334   6.750
10098POPC   C3B71973   4.572  32.321   7.050
10098POPC   C4B71974   4.500  32.327   7.350
10099POPC   NC371975   2.757   5.085   5.550
10099POPC   PO471976   2.811   5.058   5.850
10099POPC   GL171977   2.744   5.127   6.150
10099POPC   GL271978   2.672   5.139   6.150
10099POPC   C1A71979   2.810   5.112   6.450
10099POPC   D2A71980   2.777   5.102   6.750
10099POPC   C3A71981   2.739   5.090   7.050
10099POPC   C4A71982   2.763   5.068   7.350
10099POPC   C1B71983   2.559   5.208   6.450
10099POPC   C2B71984   2.531   5.196   6.750
10099POPC   C3B71985   2.585   5.183   7.050
10099POPC   C4B71986   2.487   5.154   7.350
10100POPC   NC371987   5.858   8.214   5.550
10100POPC   PO471988   5.824   8.154   5.850
10100POPC   GL171989   5.894   8.233   6.150
10100POPC   GL271990   5.928   8.122   6.150
10100POPC   C1A71991   5.903   8.242   6.450
10100POPC   D2A71992   5.873   8.157   6.750
10100POPC   C3A71993   5.882   8.167   7.050
10100POPC   C4A71994   5.839   8.227   7.350
10100POPC   C1B71995   6.117   8.037   6.450
10100POPC   C2B71996   6.081   8.097   6.750
10100POPC   C3B71997   6.087   8.112   7.050
10100POPC   C4B71998   6.057   8.049   7.350
10101POPC   NC371999   1.204   5.849   5.550
10101POPC   PO472000   1.174   5.894   5.850
10101POPC   GL172001   1.169   5.826   6.150
10101POPC   GL272002   1.105   5.768   6.150
10101POPC   C1A72003   1.254   5.875   6.450
10101POPC   D2A72004   1.187   5.836   6.750
10101POPC   C3A72005   1.233   5.905   7.050
10101POPC   C4A72006   1.208   5.871   7.350
10101POPC   C1B72007   0.989   5.780   6.450
10101POPC   C2B72008   0.993   5.757   6.750
10101POPC   C3B72009   0.973   5.792   7.050
10101POPC   C4B72010   0.948   5.805   7.350
10102POPC   NC372011  12.066  10.536   5.550
10102POPC   PO472012  12.056  10.543   5.850
10102POPC   GL172013  12.112  10.499   6.150
10102POPC   GL272014  11.904  10.517   6.150
10102POPC   C1A72015  12.111  10.505   6.450
10102POPC   D2A72016  12.071  10.477   6.750
10102POPC   C3A72017  12.057  10.555   7.050
10102POPC   C4A72018  12.118  10.507   7.350
10102POPC   C1B72019  11.867  10.465   6.450
10102POPC   C2B72020  11.831  10.561   6.750
10102POPC   C3B72021  11.797  10.538   7.050
10102POPC   C4B72022  11.796  10.506   7.350
10103POPC   NC372023   1.257   0.396   5.550
10103POPC   PO472024   1.222   0.435   5.850
10103POPC   GL172025   1.179   0.465   6.150
10103POPC   GL272026   1.156   0.339   6.150
10103POPC   C1A72027   1.226   0.446   6.450
10103POPC   D2A72028   1.198   0.398   6.750
10103POPC   C3A72029   1.258   0.434   7.050
10103POPC   C4A72030   1.194   0.415   7.350
10103POPC   C1B72031   1.200   0.143   6.450
10103POPC   C2B72032   1.166   0.230   6.750
10103POPC   C3B72033   1.152   0.188   7.050
10103POPC   C4B72034   1.201   0.166   7.350
10104POPC   NC372035  20.566  12.080   5.550
10104POPC   PO472036  20.576  12.088   5.850
10104POPC   GL172037  20.655  12.123   6.150
10104POPC   GL272038  20.599  11.913   6.150
10104POPC   C1A72039  20.618  12.123   6.450
10104POPC   D2A72040  20.651  12.044   6.750
10104POPC   C3A72041  20.597  12.088   7.050
10104POPC   C4A72042  20.658  12.046   7.350
10104POPC   C1B72043  20.597  11.786   6.450
10104POPC   C2B72044  20.571  11.873   6.750
10104POPC   C3B72045  20.606  11.837   7.050
10104POPC   C4B72046  20.537  11.848   7.350
10105POPC   NC372047  17.552  13.630   5.550
10105POPC   PO472048  17.517  13.656   5.850
10105POPC   GL172049  17.512  13.675   6.150
10105POPC   GL272050  17.468  13.774   6.150
10105POPC   C1A72051  17.461  13.657   6.450
10105POPC   D2A72052  17.530  13.593   6.750
10105POPC   C3A72053  17.508  13.636   7.050
10105POPC   C4A72054  17.553  13.665   7.350
10105POPC   C1B72055  17.363  13.873   6.450
10105POPC   C2B72056  17.368  13.827   6.750
10105POPC   C3B72057  17.370  13.785   7.050
10105POPC   C4B72058  17.373  13.845   7.350
10106POPC   NC372059   8.194  36.861   5.550
10106POPC   PO472060   8.246  36.902   5.850
10106POPC   GL172061   8.237  36.906   6.150
10106POPC   GL272062   8.156  36.772   6.150
10106POPC   C1A72063   8.181  36.870   6.450
10106POPC   D2A72064   8.175  36.936   6.750
10106POPC   C3A72065   8.238  36.892   7.050
10106POPC   C4A72066   8.206  36.945   7.350
10106POPC   C1B72067   8.021  36.686   6.450
10106POPC   C2B72068   8.087  36.644   6.750
10106POPC   C3B72069   8.041  36.682   7.050
10106POPC   C4B72070   8.091  36.709   7.350
10107POPC   NC372071  27.569   8.182   5.550
10107POPC   PO472072  27.618   8.231   5.850
10107POPC   GL172073  27.631   8.194   6.150
10107POPC   GL272074  27.478   8.222   6.150
10107POPC   C1A72075  27.615   8.160   6.450
10107POPC   D2A72076  27.638   8.152   6.750
10107POPC   C3A72077  27.562   8.234   7.050
10107POPC   C4A72078  27.559   8.192   7.350
10107POPC   C1B72079  27.345   8.344   6.450
10107POPC   C2B72080  27.417   8.371   6.750
10107POPC   C3B72081  27.345   8.299   7.050
10107POPC   C4B72082  27.421   8.386   7.350
10108POPC   NC372083  33.770  17.467   5.550
10108POPC   PO472084  33.802  17.540   5.850
10108POPC   GL172085  33.819  17.481   6.150
10108POPC   GL272086  33.649  17.586   6.150
10108POPC   C1A72087  33.766  17.531   6.450
10108POPC   D2A72088  33.784  17.530   6.750
10108POPC   C3A72089  33.815  17.498   7.050
10108POPC   C4A72090  33.807  17.499   7.350
10108POPC   C1B72091  33.533  17.585   6.450
10108POPC   C2B72092  33.564  17.622   6.750
10108POPC   C3B72093  33.610  17.653   7.050
10108POPC   C4B72094  33.526  17.618   7.350
10109POPC   NC372095  23.699  29.947   5.550
10109POPC   PO472096  23.731  29.920   5.850
10109POPC   GL172097  23.702  29.924   6.150
10109POPC   GL272098  23.730  30.036   6.150
10109POPC   C1A72099  23.720  29.920   6.450
10109POPC   D2A72100  23.692  29.877   6.750
10109POPC   C3A72101  23.684  29.938   7.050
10109POPC   C4A72102  23.732  29.930   7.350
10109POPC   C1B72103  23.724  30.134   6.450
10109POPC   C2B72104  23.658  30.121   6.750
10109POPC   C3B72105  23.687  30.195   7.050
10109POPC   C4B72106  23.707  30.189   7.350
10110POPC   NC372107   8.164  12.899   5.550
10110POPC   PO472108   8.174  12.868   5.850
10110POPC   GL172109   8.231  12.873   6.150
10110POPC   GL272110   8.323  12.882   6.150
10110POPC   C1A72111   8.152  12.843   6.450
10110POPC   D2A72112   8.204  12.807   6.750
10110POPC   C3A72113   8.155  12.858   7.050
10110POPC   C4A72114   8.167  12.823   7.350
10110POPC   C1B72115   8.438  12.920   6.450
10110POPC   C2B72116   8.477  12.840   6.750
10110POPC   C3B72117   8.474  12.855   7.050
10110POPC   C4B72118   8.397  12.855   7.350
10111POPC   NC372119  24.497  35.315   5.550
10111POPC   PO472120  24.464  35.393   5.850
10111POPC   GL172121  24.508  35.324   6.150
10111POPC   GL272122  24.531  35.487   6.150
10111POPC   C1A72123  24.449  35.339   6.450
10111POPC   D2A72124  24.451  35.360   6.750
10111POPC   C3A72125  24.538  35.320   7.050
10111POPC   C4A72126  24.512  35.372   7.350
10111POPC   C1B72127  24.555  35.625   6.450
10111POPC   C2B72128  24.562  35.572   6.750
10111POPC   C3B72129  24.491  35.558   7.050
10111POPC   C4B72130  24.537  35.562   7.350
10112POPC   NC372131  38.472  27.552   5.550
10112POPC   PO472132  38.491  27.557   5.850
10112POPC   GL172133  38.498  27.642   6.150
10112POPC   GL272134  38.574  27.470   6.150
10112POPC   C1A72135  38.457  27.641   6.450
10112POPC   D2A72136  38.481  27.627   6.750
10112POPC   C3A72137  38.466  27.561   7.050
10112POPC   C4A72138  38.410  27.572   7.350
10112POPC   C1B72139  38.643  27.427   6.450
10112POPC   C2B72140  38.563  27.367   6.750
10112POPC   C3B72141  38.577  27.404   7.050
10112POPC   C4B72142  38.618  27.347   7.350
10113POPC   NC372143  35.386  36.132   5.550
10113POPC   PO472144  35.353  36.099   5.850
10113POPC   GL172145  35.392  36.111   6.150
10113POPC   GL272146  35.348  36.032   6.150
10113POPC   C1A72147  35.366  36.167   6.450
10113POPC   D2A72148  35.367  36.120   6.750
10113POPC   C3A72149  35.318  36.175   7.050
10113POPC   C4A72150  35.348  36.156   7.350
10113POPC   C1B72151  35.254  35.938   6.450
10113POPC   C2B72152  35.305  35.844   6.750
10113POPC   C3B72153  35.245  35.861   7.050
10113POPC   C4B72154  35.253  35.913   7.350
10114POPC   NC372155   8.168  15.206   5.550
10114POPC   PO472156   8.192  15.167   5.850
10114POPC   GL172157   8.223  15.212   6.150
10114POPC   GL272158   8.309  15.309   6.150
10114POPC   C1A72159   8.183  15.214   6.450
10114POPC   D2A72160   8.203  15.149   6.750
10114POPC   C3A72161   8.205  15.181   7.050
10114POPC   C4A72162   8.200  15.161   7.350
10114POPC   C1B72163   8.330  15.359   6.450
10114POPC   C2B72164   8.343  15.330   6.750
10114POPC   C3B72165   8.384  15.394   7.050
10114POPC   C4B72166   8.379  15.320   7.350
10115POPC   NC372167  16.773  24.458   5.550
10115POPC   PO472168  16.690  24.485   5.850
10115POPC   GL172169  16.683  24.503   6.150
10115POPC   GL272170  16.738  24.595   6.150
10115POPC   C1A72171  16.767  24.478   6.450
10115POPC   D2A72172  16.700  24.460   6.750
10115POPC   C3A72173  16.746  24.511   7.050
10115POPC   C4A72174  16.732  24.483   7.350
10115POPC   C1B72175  16.736  24.716   6.450
10115POPC   C2B72176  16.779  24.764   6.750
10115POPC   C3B72177  16.772  24.768   7.050
10115POPC   C4B72178  16.697  24.690   7.350
10116POPC   NC372179  40.770  29.186   5.550
10116POPC   PO472180  40.736  29.158   5.850
10116POPC   GL172181  40.774  29.162   6.150
10116POPC   GL272182  40.731  29.272   6.150
10116POPC   C1A72183  40.818  29.095   6.450
10116POPC   D2A72184  40.774  29.174   6.750
10116POPC   C3A72185  40.758  29.152   7.050
10116POPC   C4A72186  40.810  29.147   7.350
10116POPC   C1B72187  40.711  29.363   6.450
10116POPC   C2B72188  40.670  29.384   6.750
10116POPC   C3B72189  40.647  29.381   7.050
10116POPC   C4B72190  40.636  29.389   7.350
10117POPC   NC372191  22.982  28.328   5.550
10117POPC   PO472192  22.986  28.363   5.850
10117POPC   GL172193  22.909  28.328   6.150
10117POPC   GL272194  22.772  28.296   6.150
10117POPC   C1A72195  22.974  28.368   6.450
10117POPC   D2A72196  22.962  28.356   6.750
10117POPC   C3A72197  22.946  28.412   7.050
10117POPC   C4A72198  22.914  28.362   7.350
10117POPC   C1B72199  22.687  28.352   6.450
10117POPC   C2B72200  22.683  28.325   6.750
10117POPC   C3B72201  22.647  28.327   7.050
10117POPC   C4B72202  22.687  28.364   7.350
10118POPC   NC372203  25.244  13.674   5.550
10118POPC   PO472204  25.315  13.632   5.850
10118POPC   GL172205  25.302  13.600   6.150
10118POPC   GL272206  25.293  13.725   6.150
10118POPC   C1A72207  25.226  13.614   6.450
10118POPC   D2A72208  25.284  13.648   6.750
10118POPC   C3A72209  25.216  13.652   7.050
10118POPC   C4A72210  25.232  13.608   7.350
10118POPC   C1B72211  25.334  13.899   6.450
10118POPC   C2B72212  25.340  13.886   6.750
10118POPC   C3B72213  25.349  13.874   7.050
10118POPC   C4B72214  25.326  13.833   7.350
10119POPC   NC372215  41.541  21.347   5.550
10119POPC   PO472216  41.606  21.356   5.850
10119POPC   GL172217  41.588  21.416   6.150
10119POPC   GL272218  41.421  21.380   6.150
10119POPC   C1A72219  41.540  21.426   6.450
10119POPC   D2A72220  41.595  21.366   6.750
10119POPC   C3A72221  41.526  21.413   7.050
10119POPC   C4A72222  41.525  21.403   7.350
10119POPC   C1B72223  41.351  21.355   6.450
10119POPC   C2B72224  41.267  21.322   6.750
10119POPC   C3B72225  41.353  21.346   7.050
10119POPC   C4B72226  41.329  21.326   7.350
10120POPC   NC372227  37.642   4.279   5.550
10120POPC   PO472228  37.685   4.303   5.850
10120POPC   GL172229  37.655   4.296   6.150
10120POPC   GL272230  37.800   4.384   6.150
10120POPC   C1A72231  37.700   4.326   6.450
10120POPC   D2A72232  37.675   4.350   6.750
10120POPC   C3A72233  37.663   4.303   7.050
10120POPC   C4A72234  37.638   4.282   7.350
10120POPC   C1B72235  37.884   4.474   6.450
10120POPC   C2B72236  37.795   4.520   6.750
10120POPC   C3B72237  37.856   4.462   7.050
10120POPC   C4B72238  37.796   4.559   7.350
10121POPC   NC372239  14.389   1.207   5.550
10121POPC   PO472240  14.416   1.216   5.850
10121POPC   GL172241  14.449   1.244   6.150
10121POPC   GL272242  14.465   1.054   6.150
10121POPC   C1A72243  14.450   1.181   6.450
10121POPC   D2A72244  14.373   1.187   6.750
10121POPC   C3A72245  14.389   1.262   7.050
10121POPC   C4A72246  14.427   1.176   7.350
10121POPC   C1B72247  14.435   1.007   6.450
10121POPC   C2B72248  14.482   0.979   6.750
10121POPC   C3B72249  14.480   0.941   7.050
10121POPC   C4B72250  14.419   0.968   7.350
10122POPC   NC372251  26.770  22.927   5.550
10122POPC   PO472252  26.810  22.931   5.850
10122POPC   GL172253  26.811  22.975   6.150
10122POPC   GL272254  26.867  23.056   6.150
10122POPC   C1A72255  26.776  22.967   6.450
10122POPC   D2A72256  26.793  22.942   6.750
10122POPC   C3A72257  26.852  22.933   7.050
10122POPC   C4A72258  26.790  22.896   7.350
10122POPC   C1B72259  26.884  23.193   6.450
10122POPC   C2B72260  26.877  23.161   6.750
10122POPC   C3B72261  26.897  23.233   7.050
10122POPC   C4B72262  26.811  23.216   7.350
10123POPC   NC372263   1.194  38.504   5.550
10123POPC   PO472264   1.251  38.485   5.850
10123POPC   GL172265   1.173  38.421   6.150
10123POPC   GL272266   1.223  38.299   6.150
10123POPC   C1A72267   1.196  38.481   6.450
10123POPC   D2A72268   1.238  38.478   6.750
10123POPC   C3A72269   1.211  38.412   7.050
10123POPC   C4A72270   1.199  38.429   7.350
10123POPC   C1B72271   1.266  38.247   6.450
10123POPC   C2B72272   1.262  38.249   6.750
10123POPC   C3B72273   1.249  38.196   7.050
10123POPC   C4B72274   1.240  38.184   7.350
10124POPC   NC372275  10.546  40.822   5.550
10124POPC   PO472276  10.567  40.830   5.850
10124POPC   GL172277  10.492  40.776   6.150
10124POPC   GL272278  10.580  40.719   6.150
10124POPC   C1A72279  10.518  40.795   6.450
10124POPC   D2A72280  10.491  40.756   6.750
10124POPC   C3A72281  10.522  40.766   7.050
10124POPC   C4A72282  10.563  40.816   7.350
10124POPC   C1B72283  10.655  40.616   6.450
10124POPC   C2B72284  10.634  40.609   6.750
10124POPC   C3B72285  10.611  40.546   7.050
10124POPC   C4B72286  10.675  40.595   7.350
10125POPC   NC372287  34.535  27.629   5.550
10125POPC   PO472288  34.550  27.557   5.850
10125POPC   GL172289  34.534  27.563   6.150
10125POPC   GL272290  34.551  27.430   6.150
10125POPC   C1A72291  34.589  27.556   6.450
10125POPC   D2A72292  34.553  27.554   6.750
10125POPC   C3A72293  34.560  27.598   7.050
10125POPC   C4A72294  34.619  27.563   7.350
10125POPC   C1B72295  34.607  27.370   6.450
10125POPC   C2B72296  34.586  27.359   6.750
10125POPC   C3B72297  34.565  27.367   7.050
10125POPC   C4B72298  34.548  27.383   7.350
10126POPC   NC372299   1.951   9.741   5.550
10126POPC   PO472300   2.038   9.708   5.850
10126POPC   GL172301   1.991   9.777   6.150
10126POPC   GL272302   1.848   9.725   6.150
10126POPC   C1A72303   1.971   9.748   6.450
10126POPC   D2A72304   1.968   9.796   6.750
10126POPC   C3A72305   2.034   9.758   7.050
10126POPC   C4A72306   1.950   9.703   7.350
10126POPC   C1B72307   1.777   9.725   6.450
10126POPC   C2B72308   1.772   9.678   6.750
10126POPC   C3B72309   1.787   9.728   7.050
10126POPC   C4B72310   1.730   9.713   7.350
10127POPC   NC372311  12.086  28.401   5.550
10127POPC   PO472312  12.110  28.332   5.850
10127POPC   GL172313  12.093  28.327   6.150
10127POPC   GL272314  12.188  28.456   6.150
10127POPC   C1A72315  12.048  28.341   6.450
10127POPC   D2A72316  12.045  28.348   6.750
10127POPC   C3A72317  12.116  28.320   7.050
10127POPC   C4A72318  12.076  28.351   7.350
10127POPC   C1B72319  12.275  28.478   6.450
10127POPC   C2B72320  12.277  28.462   6.750
10127POPC   C3B72321  12.328  28.467   7.050
10127POPC   C4B72322  12.340  28.450   7.350
10128POPC   NC372323  34.568  11.336   5.550
10128POPC   PO472324  34.620  11.323   5.850
10128POPC   GL172325  34.538  11.275   6.150
10128POPC   GL272326  34.522  11.368   6.150
10128POPC   C1A72327  34.527  11.271   6.450
10128POPC   D2A72328  34.606  11.272   6.750
10128POPC   C3A72329  34.561  11.338   7.050
10128POPC   C4A72330  34.618  11.289   7.350
10128POPC   C1B72331  34.428  11.513   6.450
10128POPC   C2B72332  34.461  11.490   6.750
10128POPC   C3B72333  34.444  11.504   7.050
10128POPC   C4B72334  34.446  11.544   7.350
10129POPC   NC372335  34.597  16.726   5.550
10129POPC   PO472336  34.607  16.751   5.850
10129POPC   GL172337  34.527  16.724   6.150
10129POPC   GL272338  34.404  16.744   6.150
10129POPC   C1A72339  34.594  16.716   6.450
10129POPC   D2A72340  34.568  16.719   6.750
10129POPC   C3A72341  34.540  16.706   7.050
10129POPC   C4A72342  34.576  16.692   7.350
10129POPC   C1B72343  34.364  16.732   6.450
10129POPC   C2B72344  34.277  16.727   6.750
10129POPC   C3B72345  34.290  16.749   7.050
10129POPC   C4B72346  34.317  16.717   7.350
10130POPC   NC372347  43.080  44.682   5.550
10130POPC   PO472348  43.152  44.643   5.850
10130POPC   GL172349  43.096  44.669   6.150
10130POPC   GL272350  43.028  44.654   6.150
10130POPC   C1A72351  43.072  44.691   6.450
10130POPC   D2A72352  43.081  44.667   6.750
10130POPC   C3A72353  43.160  44.628   7.050
10130POPC   C4A72354  43.076  44.686   7.350
10130POPC   C1B72355  42.885  44.668   6.450
10130POPC   C2B72356  42.890  44.717   6.750
10130POPC   C3B72357  42.824  44.703   7.050
10130POPC   C4B72358  42.843  44.684   7.350
10131POPC   NC372359  15.912  13.672   5.550
10131POPC   PO472360  15.910  13.598   5.850
10131POPC   GL172361  15.962  13.660   6.150
10131POPC   GL272362  15.848  13.546   6.150
10131POPC   C1A72363  15.945  13.606   6.450
10131POPC   D2A72364  15.919  13.642   6.750
10131POPC   C3A72365  15.960  13.631   7.050
10131POPC   C4A72366  15.972  13.650   7.350
10131POPC   C1B72367  15.738  13.482   6.450
10131POPC   C2B72368  15.752  13.514   6.750
10131POPC   C3B72369  15.718  13.484   7.050
10131POPC   C4B72370  15.773  13.479   7.350
10132POPC   NC372371  35.384  23.763   5.550
10132POPC   PO472372  35.349  23.669   5.850
10132POPC   GL172373  35.354  23.664   6.150
10132POPC   GL272374  35.368  23.886   6.150
10132POPC   C1A72375  35.372  23.722   6.450
10132POPC   D2A72376  35.337  23.738   6.750
10132POPC   C3A72377  35.393  23.688   7.050
10132POPC   C4A72378  35.342  23.744   7.350
10132POPC   C1B72379  35.387  23.919   6.450
10132POPC   C2B72380  35.414  23.986   6.750
10132POPC   C3B72381  35.394  23.974   7.050
10132POPC   C4B72382  35.426  23.924   7.350
10133POPC   NC372383  12.111  36.871   5.550
10133POPC   PO472384  12.061  36.948   5.850
10133POPC   GL172385  12.116  36.881   6.150
10133POPC   GL272386  12.150  36.979   6.150
10133POPC   C1A72387  12.038  36.866   6.450
10133POPC   D2A72388  12.056  36.901   6.750
10133POPC   C3A72389  12.052  36.889   7.050
10133POPC   C4A72390  12.064  36.896   7.350
10133POPC   C1B72391  12.276  37.063   6.450
10133POPC   C2B72392  12.246  37.039   6.750
10133POPC   C3B72393  12.322  37.034   7.050
10133POPC   C4B72394  12.263  37.069   7.350
10134POPC   NC372395  20.605   9.731   5.550
10134POPC   PO472396  20.609   9.795   5.850
10134POPC   GL172397  20.572   9.725   6.150
10134POPC   GL272398  20.491   9.721   6.150
10134POPC   C1A72399  20.569   9.724   6.450
10134POPC   D2A72400  20.596   9.723   6.750
10134POPC   C3A72401  20.650   9.733   7.050
10134POPC   C4A72402  20.656   9.729   7.350
10134POPC   C1B72403  20.444   9.614   6.450
10134POPC   C2B72404  20.396   9.664   6.750
10134POPC   C3B72405  20.347   9.628   7.050
10134POPC   C4B72406  20.389   9.640   7.350
10135POPC   NC372407  34.533  14.415   5.550
10135POPC   PO472408  34.613  14.400   5.850
10135POPC   GL172409  34.584  14.419   6.150
10135POPC   GL272410  34.732  14.339   6.150
10135POPC   C1A72411  34.574  14.380   6.450
10135POPC   D2A72412  34.599  14.402   6.750
10135POPC   C3A72413  34.597  14.401   7.050
10135POPC   C4A72414  34.600  14.402   7.350
10135POPC   C1B72415  34.832  14.281   6.450
10135POPC   C2B72416  34.796  14.325   6.750
10135POPC   C3B72417  34.767  14.319   7.050
10135POPC   C4B72418  34.824  14.362   7.350
10136POPC   NC372419  36.127  28.397   5.550
10136POPC   PO472420  36.099  28.402   5.850
10136POPC   GL172421  36.101  28.400   6.150
10136POPC   GL272422  36.144  28.459   6.150
10136POPC   C1A72423  36.161  28.354   6.450
10136POPC   D2A72424  36.177  28.361   6.750
10136POPC   C3A72425  36.079  28.339   7.050
10136POPC   C4A72426  36.176  28.339   7.350
10136POPC   C1B72427  36.110  28.658   6.450
10136POPC   C2B72428  36.093  28.625   6.750
10136POPC   C3B72429  36.127  28.604   7.050
10136POPC   C4B72430  36.074  28.625   7.350
10137POPC   NC372431  11.341  18.253   5.550
10137POPC   PO472432  11.265  18.295   5.850
10137POPC   GL172433  11.256  18.298   6.150
10137POPC   GL272434  11.217  18.320   6.150
10137POPC   C1A72435  11.281  18.272   6.450
10137POPC   D2A72436  11.268  18.250   6.750
10137POPC   C3A72437  11.317  18.290   7.050
10137POPC   C4A72438  11.269  18.329   7.350
10137POPC   C1B72439  11.087  18.381   6.450
10137POPC   C2B72440  11.070  18.339   6.750
10137POPC   C3B72441  11.064  18.375   7.050
10137POPC   C4B72442  11.053  18.334   7.350
10138POPC   NC372443  13.675  22.156   5.550
10138POPC   PO472444  13.589  22.146   5.850
10138POPC   GL172445  13.635  22.168   6.150
10138POPC   GL272446  13.597  22.016   6.150
10138POPC   C1A72447  13.651  22.134   6.450
10138POPC   D2A72448  13.658  22.201   6.750
10138POPC   C3A72449  13.668  22.203   7.050
10138POPC   C4A72450  13.649  22.167   7.350
10138POPC   C1B72451  13.559  21.981   6.450
10138POPC   C2B72452  13.554  21.912   6.750
10138POPC   C3B72453  13.539  21.885   7.050
10138POPC   C4B72454  13.549  21.945   7.350
10139POPC   NC372455  32.281  40.029   5.550
10139POPC   PO472456  32.267  40.004   5.850
10139POPC   GL172457  32.286  40.055   6.150
10139POPC   GL272458  32.260  39.883   6.150
10139POPC   C1A72459  32.224  39.957   6.450
10139POPC   D2A72460  32.257  40.025   6.750
10139POPC   C3A72461  32.278  39.985   7.050
10139POPC   C4A72462  32.200  39.963   7.350
10139POPC   C1B72463  32.374  39.775   6.450
10139POPC   C2B72464  32.347  39.768   6.750
10139POPC   C3B72465  32.412  39.785   7.050
10139POPC   C4B72466  32.417  39.809   7.350
10140POPC   NC372467  22.983  15.217   5.550
10140POPC   PO472468  22.972  15.135   5.850
10140POPC   GL172469  22.935  15.138   6.150
10140POPC   GL272470  22.790  15.221   6.150
10140POPC   C1A72471  22.956  15.192   6.450
10140POPC   D2A72472  22.916  15.193   6.750
10140POPC   C3A72473  22.966  15.141   7.050
10140POPC   C4A72474  22.891  15.186   7.350
10140POPC   C1B72475  22.671  15.235   6.450
10140POPC   C2B72476  22.698  15.162   6.750
10140POPC   C3B72477  22.671  15.172   7.050
10140POPC   C4B72478  22.673  15.209   7.350
10141POPC   NC372479  29.191   9.782   5.550
10141POPC   PO472480  29.141   9.708   5.850
10141POPC   GL172481  29.135   9.754   6.150
10141POPC   GL272482  29.163   9.840   6.150
10141POPC   C1A72483  29.104   9.767   6.450
10141POPC   D2A72484  29.193   9.712   6.750
10141POPC   C3A72485  29.163   9.778   7.050
10141POPC   C4A72486  29.135   9.787   7.350
10141POPC   C1B72487  29.308   9.950   6.450
10141POPC   C2B72488  29.237  10.004   6.750
10141POPC   C3B72489  29.263   9.989   7.050
10141POPC   C4B72490  29.254   9.978   7.350
10142POPC   NC372491  11.321   5.861   5.550
10142POPC   PO472492  11.344   5.892   5.850
10142POPC   GL172493  11.313   5.854   6.150
10142POPC   GL272494  11.349   5.966   6.150
10142POPC   C1A72495  11.278   5.877   6.450
10142POPC   D2A72496  11.319   5.880   6.750
10142POPC   C3A72497  11.329   5.916   7.050
10142POPC   C4A72498  11.280   5.851   7.350
10142POPC   C1B72499  11.339   6.146   6.450
10142POPC   C2B72500  11.353   6.119   6.750
10142POPC   C3B72501  11.397   6.133   7.050
10142POPC   C4B72502  11.387   6.094   7.350
10143POPC   NC372503   5.859  10.503   5.550
10143POPC   PO472504   5.868  10.573   5.850
10143POPC   GL172505   5.889  10.481   6.150
10143POPC   GL272506   5.875  10.690   6.150
10143POPC   C1A72507   5.901  10.521   6.450
10143POPC   D2A72508   5.874  10.569   6.750
10143POPC   C3A72509   5.904  10.537   7.050
10143POPC   C4A72510   5.834  10.515   7.350
10143POPC   C1B72511   5.850  10.794   6.450
10143POPC   C2B72512   5.839  10.806   6.750
10143POPC   C3B72513   5.869  10.798   7.050
10143POPC   C4B72514   5.893  10.738   7.350
10144POPC   NC372515  19.031  10.532   5.550
10144POPC   PO472516  19.038  10.510   5.850
10144POPC   GL172517  19.041  10.526   6.150
10144POPC   GL272518  19.061  10.409   6.150
10144POPC   C1A72519  19.013  10.484   6.450
10144POPC   D2A72520  19.084  10.572   6.750
10144POPC   C3A72521  19.084  10.544   7.050
10144POPC   C4A72522  19.099  10.476   7.350
10144POPC   C1B72523  19.057  10.235   6.450
10144POPC   C2B72524  18.966  10.295   6.750
10144POPC   C3B72525  18.965  10.303   7.050
10144POPC   C4B72526  19.062  10.262   7.350
10145POPC   NC372527  28.381   7.410   5.550
10145POPC   PO472528  28.407   7.397   5.850
10145POPC   GL172529  28.361   7.435   6.150
10145POPC   GL272530  28.262   7.312   6.150
10145POPC   C1A72531  28.390   7.381   6.450
10145POPC   D2A72532  28.322   7.433   6.750
10145POPC   C3A72533  28.372   7.431   7.050
10145POPC   C4A72534  28.381   7.404   7.350
10145POPC   C1B72535  28.189   7.319   6.450
10145POPC   C2B72536  28.145   7.279   6.750
10145POPC   C3B72537  28.197   7.233   7.050
10145POPC   C4B72538  28.162   7.252   7.350
10146POPC   NC372539  33.047  43.112   5.550
10146POPC   PO472540  33.045  43.143   5.850
10146POPC   GL172541  33.005  43.154   6.150
10146POPC   GL272542  32.937  43.007   6.150
10146POPC   C1A72543  32.999  43.120   6.450
10146POPC   D2A72544  33.049  43.125   6.750
10146POPC   C3A72545  33.027  43.131   7.050
10146POPC   C4A72546  32.985  43.132   7.350
10146POPC   C1B72547  32.893  42.903   6.450
10146POPC   C2B72548  32.931  42.932   6.750
10146POPC   C3B72549  32.875  42.887   7.050
10146POPC   C4B72550  32.956  42.896   7.350
10147POPC   NC372551  18.270   0.434   5.550
10147POPC   PO472552  18.239   0.474   5.850
10147POPC   GL172553  18.239   0.476   6.150
10147POPC   GL272554  18.195   0.457   6.150
10147POPC   C1A72555  18.303   0.481   6.450
10147POPC   D2A72556  18.313   0.471   6.750
10147POPC   C3A72557  18.261   0.472   7.050
10147POPC   C4A72558  18.251   0.405   7.350
10147POPC   C1B72559  18.018   0.462   6.450
10147POPC   C2B72560  18.058   0.429   6.750
10147POPC   C3B72561  18.021   0.493   7.050
10147POPC   C4B72562  17.989   0.527   7.350
10148POPC   NC372563  35.384  40.774   5.550
10148POPC   PO472564  35.345  40.772   5.850
10148POPC   GL172565  35.305  40.805   6.150
10148POPC   GL272566  35.485  40.835   6.150
10148POPC   C1A72567  35.316  40.783   6.450
10148POPC   D2A72568  35.368  40.826   6.750
10148POPC   C3A72569  35.385  40.770   7.050
10148POPC   C4A72570  35.397  40.759   7.350
10148POPC   C1B72571  35.553  40.841   6.450
10148POPC   C2B72572  35.640  40.803   6.750
10148POPC   C3B72573  35.593  40.801   7.050
10148POPC   C4B72574  35.607  40.766   7.350
10149POPC   NC372575  30.717  24.473   5.550
10149POPC   PO472576  30.729  24.490   5.850
10149POPC   GL172577  30.649  24.442   6.150
10149POPC   GL272578  30.811  24.417   6.150
10149POPC   C1A72579  30.667  24.479   6.450
10149POPC   D2A72580  30.718  24.493   6.750
10149POPC   C3A72581  30.742  24.523   7.050
10149POPC   C4A72582  30.704  24.482   7.350
10149POPC   C1B72583  30.782  24.262   6.450
10149POPC   C2B72584  30.823  24.280   6.750
10149POPC   C3B72585  30.839  24.318   7.050
10149POPC   C4B72586  30.837  24.307   7.350
10150POPC   NC372587  33.036  34.579   5.550
10150POPC   PO472588  33.005  34.598   5.850
10150POPC   GL172589  32.988  34.571   6.150
10150POPC   GL272590  33.022  34.722   6.150
10150POPC   C1A72591  32.978  34.593   6.450
10150POPC   D2A72592  33.031  34.616   6.750
10150POPC   C3A72593  33.047  34.578   7.050
10150POPC   C4A72594  32.982  34.610   7.350
10150POPC   C1B72595  33.095  34.866   6.450
10150POPC   C2B72596  33.106  34.783   6.750
10150POPC   C3B72597  33.069  34.820   7.050
10150POPC   C4B72598  33.027  34.787   7.350
10151POPC   NC372599   2.039  19.827   5.550
10151POPC   PO472600   1.951  19.876   5.850
10151POPC   GL172601   2.029  19.817   6.150
10151POPC   GL272602   1.925  19.803   6.150
10151POPC   C1A72603   1.957  19.799   6.450
10151POPC   D2A72604   1.962  19.874   6.750
10151POPC   C3A72605   2.015  19.814   7.050
10151POPC   C4A72606   2.036  19.835   7.350
10151POPC   C1B72607   1.764  19.721   6.450
10151POPC   C2B72608   1.753  19.642   6.750
10151POPC   C3B72609   1.773  19.635   7.050
10151POPC   C4B72610   1.775  19.694   7.350
10152POPC   NC372611  37.655  39.265   5.550
10152POPC   PO472612  37.667  39.254   5.850
10152POPC   GL172613  37.631  39.202   6.150
10152POPC   GL272614  37.763  39.384   6.150
10152POPC   C1A72615  37.631  39.194   6.450
10152POPC   D2A72616  37.658  39.265   6.750
10152POPC   C3A72617  37.650  39.205   7.050
10152POPC   C4A72618  37.726  39.229   7.350
10152POPC   C1B72619  37.787  39.433   6.450
10152POPC   C2B72620  37.781  39.422   6.750
10152POPC   C3B72621  37.769  39.451   7.050
10152POPC   C4B72622  37.742  39.469   7.350
10153POPC   NC372623  10.507  15.207   5.550
10153POPC   PO472624  10.567  15.205   5.850
10153POPC   GL172625  10.512  15.158   6.150
10153POPC   GL272626  10.604  15.186   6.150
10153POPC   C1A72627  10.561  15.225   6.450
10153POPC   D2A72628  10.483  15.214   6.750
10153POPC   C3A72629  10.556  15.179   7.050
10153POPC   C4A72630  10.538  15.154   7.350
10153POPC   C1B72631  10.813  15.098   6.450
10153POPC   C2B72632  10.810  15.099   6.750
10153POPC   C3B72633  10.746  15.138   7.050
10153POPC   C4B72634  10.798  15.131   7.350
10154POPC   NC372635  31.474  21.353   5.550
10154POPC   PO472636  31.443  21.350   5.850
10154POPC   GL172637  31.493  21.413   6.150
10154POPC   GL272638  31.614  21.411   6.150
10154POPC   C1A72639  31.507  21.343   6.450
10154POPC   D2A72640  31.451  21.388   6.750
10154POPC   C3A72641  31.504  21.406   7.050
10154POPC   C4A72642  31.475  21.396   7.350
10154POPC   C1B72643  31.768  21.307   6.450
10154POPC   C2B72644  31.728  21.381   6.750
10154POPC   C3B72645  31.675  21.298   7.050
10154POPC   C4B72646  31.715  21.306   7.350
10155POPC   NC372647  14.440   2.751   5.550
10155POPC   PO472648  14.411   2.764   5.850
10155POPC   GL172649  14.379   2.776   6.150
10155POPC   GL272650  14.336   2.833   6.150
10155POPC   C1A72651  14.422   2.731   6.450
10155POPC   D2A72652  14.395   2.793   6.750
10155POPC   C3A72653  14.398   2.801   7.050
10155POPC   C4A72654  14.384   2.745   7.350
10155POPC   C1B72655  14.289   2.922   6.450
10155POPC   C2B72656  14.292   2.999   6.750
10155POPC   C3B72657  14.279   2.982   7.050
10155POPC   C4B72658  14.208   2.970   7.350
10156POPC   NC372659  32.979  27.547   5.550
10156POPC   PO472660  33.006  27.623   5.850
10156POPC   GL172661  32.991  27.554   6.150
10156POPC   GL272662  32.957  27.533   6.150
10156POPC   C1A72663  33.022  27.548   6.450
10156POPC   D2A72664  33.006  27.549   6.750
10156POPC   C3A72665  33.015  27.583   7.050
10156POPC   C4A72666  33.028  27.576   7.350
10156POPC   C1B72667  32.858  27.455   6.450
10156POPC   C2B72668  32.849  27.439   6.750
10156POPC   C3B72669  32.816  27.394   7.050
10156POPC   C4B72670  32.816  27.401   7.350
10157POPC   NC372671  36.883  25.234   5.550
10157POPC   PO472672  36.925  25.301   5.850
10157POPC   GL172673  36.899  25.302   6.150
10157POPC   GL272674  36.785  25.246   6.150
10157POPC   C1A72675  36.870  25.294   6.450
10157POPC   D2A72676  36.895  25.289   6.750
10157POPC   C3A72677  36.920  25.260   7.050
10157POPC   C4A72678  36.913  25.275   7.350
10157POPC   C1B72679  36.645  25.167   6.450
10157POPC   C2B72680  36.714  25.161   6.750
10157POPC   C3B72681  36.654  25.194   7.050
10157POPC   C4B72682  36.714  25.175   7.350
10158POPC   NC372683  19.807  23.746   5.550
10158POPC   PO472684  19.877  23.727   5.850
10158POPC   GL172685  19.861  23.762   6.150
10158POPC   GL272686  19.781  23.574   6.150
10158POPC   C1A72687  19.875  23.676   6.450
10158POPC   D2A72688  19.875  23.723   6.750
10158POPC   C3A72689  19.833  23.667   7.050
10158POPC   C4A72690  19.793  23.719   7.350
10158POPC   C1B72691  19.769  23.536   6.450
10158POPC   C2B72692  19.728  23.438   6.750
10158POPC   C3B72693  19.775  23.505   7.050
10158POPC   C4B72694  19.775  23.505   7.350
10159POPC   NC372695  10.488  39.187   5.550
10159POPC   PO472696  10.498  39.238   5.850
10159POPC   GL172697  10.558  39.201   6.150
10159POPC   GL272698  10.650  39.174   6.150
10159POPC   C1A72699  10.551  39.232   6.450
10159POPC   D2A72700  10.572  39.229   6.750
10159POPC   C3A72701  10.558  39.204   7.050
10159POPC   C4A72702  10.506  39.242   7.350
10159POPC   C1B72703  10.682  39.073   6.450
10159POPC   C2B72704  10.717  39.090   6.750
10159POPC   C3B72705  10.738  39.023   7.050
10159POPC   C4B72706  10.718  39.093   7.350
10160POPC   NC372707  21.402  29.940   5.550
10160POPC   PO472708  21.413  29.942   5.850
10160POPC   GL172709  21.400  29.955   6.150
10160POPC   GL272710  21.469  29.808   6.150
10160POPC   C1A72711  21.340  29.893   6.450
10160POPC   D2A72712  21.373  29.927   6.750
10160POPC   C3A72713  21.392  29.951   7.050
10160POPC   C4A72714  21.383  29.872   7.350
10160POPC   C1B72715  21.630  29.770   6.450
10160POPC   C2B72716  21.615  29.757   6.750
10160POPC   C3B72717  21.620  29.826   7.050
10160POPC   C4B72718  21.630  29.750   7.350
10161POPC   NC372719  19.030  34.597   5.550
10161POPC   PO472720  19.016  34.562   5.850
10161POPC   GL172721  19.101  34.528   6.150
10161POPC   GL272722  19.166  34.656   6.150
10161POPC   C1A72723  19.065  34.539   6.450
10161POPC   D2A72724  19.018  34.598   6.750
10161POPC   C3A72725  19.040  34.557   7.050
10161POPC   C4A72726  19.072  34.563   7.350
10161POPC   C1B72727  19.287  34.646   6.450
10161POPC   C2B72728  19.346  34.616   6.750
10161POPC   C3B72729  19.327  34.651   7.050
10161POPC   C4B72730  19.259  34.623   7.350
10162POPC   NC372731  22.200  23.748   5.550
10162POPC   PO472732  22.116  23.709   5.850
10162POPC   GL172733  22.208  23.685   6.150
10162POPC   GL272734  22.189  23.860   6.150
10162POPC   C1A72735  22.120  23.684   6.450
10162POPC   D2A72736  22.165  23.762   6.750
10162POPC   C3A72737  22.168  23.718   7.050
10162POPC   C4A72738  22.202  23.702   7.350
10162POPC   C1B72739  22.212  23.981   6.450
10162POPC   C2B72740  22.242  23.900   6.750
10162POPC   C3B72741  22.300  23.949   7.050
10162POPC   C4B72742  22.238  23.995   7.350
10163POPC   NC372743  17.458  11.285   5.550
10163POPC   PO472744  17.498  11.296   5.850
10163POPC   GL172745  17.546  11.340   6.150
10163POPC   GL272746  17.663  11.319   6.150
10163POPC   C1A72747  17.556  11.270   6.450
10163POPC   D2A72748  17.547  11.267   6.750
10163POPC   C3A72749  17.504  11.261   7.050
10163POPC   C4A72750  17.547  11.323   7.350
10163POPC   C1B72751  17.721  11.360   6.450
10163POPC   C2B72752  17.732  11.409   6.750
10163POPC   C3B72753  17.709  11.380   7.050
10163POPC   C4B72754  17.734  11.376   7.350
10164POPC   NC372755  11.285  36.151   5.550
10164POPC   PO472756  11.322  36.150   5.850
10164POPC   GL172757  11.257  36.118   6.150
10164POPC   GL272758  11.380  35.976   6.150
10164POPC   C1A72759  11.270  36.149   6.450
10164POPC   D2A72760  11.304  36.130   6.750
10164POPC   C3A72761  11.253  36.116   7.050
10164POPC   C4A72762  11.261  36.095   7.350
10164POPC   C1B72763  11.423  35.900   6.450
10164POPC   C2B72764  11.344  35.878   6.750
10164POPC   C3B72765  11.349  35.859   7.050
10164POPC   C4B72766  11.370  35.937   7.350
10165POPC   NC372767  26.037  29.896   5.550
10165POPC   PO472768  26.071  29.896   5.850
10165POPC   GL172769  26.056  29.900   6.150
10165POPC   GL272770  25.969  29.968   6.150
10165POPC   C1A72771  26.069  29.886   6.450
10165POPC   D2A72772  26.091  29.874   6.750
10165POPC   C3A72773  26.011  29.916   7.050
10165POPC   C4A72774  26.038  29.913   7.350
10165POPC   C1B72775  25.903  30.088   6.450
10165POPC   C2B72776  25.915  30.059   6.750
10165POPC   C3B72777  25.894  30.076   7.050
10165POPC   C4B72778  25.853  30.129   7.350
10166POPC   NC372779  18.233  10.551   5.550
10166POPC   PO472780  18.314  10.482   5.850
10166POPC   GL172781  18.275  10.482   6.150
10166POPC   GL272782  18.308  10.354   6.150
10166POPC   C1A72783  18.327  10.526   6.450
10166POPC   D2A72784  18.260  10.479   6.750
10166POPC   C3A72785  18.330  10.481   7.050
10166POPC   C4A72786  18.281  10.499   7.350
10166POPC   C1B72787  18.267  10.280   6.450
10166POPC   C2B72788  18.285  10.260   6.750
10166POPC   C3B72789  18.286  10.275   7.050
10166POPC   C4B72790  18.322  10.263   7.350
10167POPC   NC372791  17.520   3.588   5.550
10167POPC   PO472792  17.553   3.530   5.850
10167POPC   GL172793  17.545   3.571   6.150
10167POPC   GL272794  17.566   3.706   6.150
10167POPC   C1A72795  17.488   3.522   6.450
10167POPC   D2A72796  17.520   3.504   6.750
10167POPC   C3A72797  17.509   3.503   7.050
10167POPC   C4A72798  17.472   3.581   7.350
10167POPC   C1B72799  17.551   3.775   6.450
10167POPC   C2B72800  17.604   3.808   6.750
10167POPC   C3B72801  17.568   3.768   7.050
10167POPC   C4B72802  17.621   3.811   7.350
10168POPC   NC372803  41.542   9.763   5.550
10168POPC   PO472804  41.538   9.748   5.850
10168POPC   GL172805  41.591   9.725   6.150
10168POPC   GL272806  41.516   9.630   6.150
10168POPC   C1A72807  41.578   9.797   6.450
10168POPC   D2A72808  41.567   9.763   6.750
10168POPC   C3A72809  41.543   9.751   7.050
10168POPC   C4A72810  41.545   9.761   7.350
10168POPC   C1B72811  41.386   9.568   6.450
10168POPC   C2B72812  41.453   9.493   6.750
10168POPC   C3B72813  41.441   9.569   7.050
10168POPC   C4B72814  41.439   9.508   7.350
10169POPC   NC372815  36.892  33.811   5.550
10169POPC   PO472816  36.889  33.837   5.850
10169POPC   GL172817  36.903  33.838   6.150
10169POPC   GL272818  36.890  33.924   6.150
10169POPC   C1A72819  36.953  33.843   6.450
10169POPC   D2A72820  36.860  33.784   6.750
10169POPC   C3A72821  36.906  33.827   7.050
10169POPC   C4A72822  36.895  33.802   7.350
10169POPC   C1B72823  36.823  34.056   6.450
10169POPC   C2B72824  36.790  34.013   6.750
10169POPC   C3B72825  36.758  34.028   7.050
10169POPC   C4B72826  36.777  33.993   7.350
10170POPC   NC372827   0.445  29.902   5.550
10170POPC   PO472828   0.409  29.945   5.850
10170POPC   GL172829   0.465  29.913   6.150
10170POPC   GL272830   0.313  29.926   6.150
10170POPC   C1A72831   0.458  29.963   6.450
10170POPC   D2A72832   0.423  29.884   6.750
10170POPC   C3A72833   0.447  29.898   7.050
10170POPC   C4A72834   0.407  29.893   7.350
10170POPC   C1B72835   0.221  30.031   6.450
10170POPC   C2B72836   0.215  29.991   6.750
10170POPC   C3B72837   0.199  29.960   7.050
10170POPC   C4B72838   0.187  29.991   7.350
10171POPC   NC372839   9.712  39.263   5.550
10171POPC   PO472840   9.738  39.219   5.850
10171POPC   GL172841   9.780  39.261   6.150
10171POPC   GL272842   9.645  39.152   6.150
10171POPC   C1A72843   9.789  39.226   6.450
10171POPC   D2A72844   9.714  39.204   6.750
10171POPC   C3A72845   9.755  39.245   7.050
10171POPC   C4A72846   9.732  39.230   7.350
10171POPC   C1B72847   9.587  39.026   6.450
10171POPC   C2B72848   9.571  39.070   6.750
10171POPC   C3B72849   9.643  39.001   7.050
10171POPC   C4B72850   9.645  38.995   7.350
10172POPC   NC372851  34.535  33.012   5.550
10172POPC   PO472852  34.589  33.014   5.850
10172POPC   GL172853  34.577  33.002   6.150
10172POPC   GL272854  34.527  32.906   6.150
10172POPC   C1A72855  34.527  32.985   6.450
10172POPC   D2A72856  34.586  32.975   6.750
10172POPC   C3A72857  34.591  33.039   7.050
10172POPC   C4A72858  34.615  32.999   7.350
10172POPC   C1B72859  34.510  32.837   6.450
10172POPC   C2B72860  34.501  32.784   6.750
10172POPC   C3B72861  34.442  32.776   7.050
10172POPC   C4B72862  34.472  32.830   7.350
10173POPC   NC372863  33.820  31.472   5.550
10173POPC   PO472864  33.849  31.450   5.850
10173POPC   GL172865  33.827  31.517   6.150
10173POPC   GL272866  33.761  31.386   6.150
10173POPC   C1A72867  33.842  31.474   6.450
10173POPC   D2A72868  33.797  31.479   6.750
10173POPC   C3A72869  33.813  31.479   7.050
10173POPC   C4A72870  33.758  31.472   7.350
10173POPC   C1B72871  33.781  31.201   6.450
10173POPC   C2B72872  33.768  31.236   6.750
10173POPC   C3B72873  33.813  31.270   7.050
10173POPC   C4B72874  33.837  31.175   7.350
10174POPC   NC372875  32.246   6.692   5.550
10174POPC   PO472876  32.294   6.663   5.850
10174POPC   GL172877  32.209   6.692   6.150
10174POPC   GL272878  32.310   6.803   6.150
10174POPC   C1A72879  32.220   6.595   6.450
10174POPC   D2A72880  32.250   6.616   6.750
10174POPC   C3A72881  32.288   6.663   7.050
10174POPC   C4A72882  32.265   6.631   7.350
10174POPC   C1B72883  32.389   6.873   6.450
10174POPC   C2B72884  32.336   6.844   6.750
10174POPC   C3B72885  32.388   6.889   7.050
10174POPC   C4B72886  32.351   6.853   7.350
10175POPC   NC372887  20.586   5.106   5.550
10175POPC   PO472888  20.569   5.064   5.850
10175POPC   GL172889  20.632   5.048   6.150
10175POPC   GL272890  20.715   5.095   6.150
10175POPC   C1A72891  20.603   5.066   6.450
10175POPC   D2A72892  20.593   5.125   6.750
10175POPC   C3A72893  20.647   5.128   7.050
10175POPC   C4A72894  20.630   5.136   7.350
10175POPC   C1B72895  20.831   5.034   6.450
10175POPC   C2B72896  20.832   5.026   6.750
10175POPC   C3B72897  20.818   5.043   7.050
10175POPC   C4B72898  20.855   5.079   7.350
10176POPC   NC372899  21.415  40.773   5.550
10176POPC   PO472900  21.401  40.773   5.850
10176POPC   GL172901  21.405  40.773   6.150
10176POPC   GL272902  21.355  40.631   6.150
10176POPC   C1A72903  21.355  40.812   6.450
10176POPC   D2A72904  21.423  40.822   6.750
10176POPC   C3A72905  21.348  40.761   7.050
10176POPC   C4A72906  21.417  40.816   7.350
10176POPC   C1B72907  21.350  40.512   6.450
10176POPC   C2B72908  21.340  40.517   6.750
10176POPC   C3B72909  21.430  40.570   7.050
10176POPC   C4B72910  21.358  40.523   7.350
10177POPC   NC372911   5.878   7.462   5.550
10177POPC   PO472912   5.865   7.419   5.850
10177POPC   GL172913   5.822   7.462   6.150
10177POPC   GL272914   5.830   7.543   6.150
10177POPC   C1A72915   5.854   7.396   6.450
10177POPC   D2A72916   5.894   7.402   6.750
10177POPC   C3A72917   5.848   7.449   7.050
10177POPC   C4A72918   5.840   7.443   7.350
10177POPC   C1B72919   5.696   7.657   6.450
10177POPC   C2B72920   5.684   7.666   6.750
10177POPC   C3B72921   5.716   7.655   7.050
10177POPC   C4B72922   5.756   7.587   7.350
10178POPC   NC372923  13.586  19.018   5.550
10178POPC   PO472924  13.645  19.025   5.850
10178POPC   GL172925  13.629  19.051   6.150
10178POPC   GL272926  13.745  19.055   6.150
10178POPC   C1A72927  13.579  19.088   6.450
10178POPC   D2A72928  13.624  19.074   6.750
10178POPC   C3A72929  13.676  19.069   7.050
10178POPC   C4A72930  13.650  19.103   7.350
10178POPC   C1B72931  13.828  19.113   6.450
10178POPC   C2B72932  13.873  19.044   6.750
10178POPC   C3B72933  13.887  19.102   7.050
10178POPC   C4B72934  13.834  19.113   7.350
10179POPC   NC372935  14.370  26.087   5.550
10179POPC   PO472936  14.363  26.032   5.850
10179POPC   GL172937  14.436  26.080   6.150
10179POPC   GL272938  14.485  26.105   6.150
10179POPC   C1A72939  14.412  26.005   6.450
10179POPC   D2A72940  14.360  26.069   6.750
10179POPC   C3A72941  14.384  26.073   7.050
10179POPC   C4A72942  14.374  26.054   7.350
10179POPC   C1B72943  14.542  26.259   6.450
10179POPC   C2B72944  14.537  26.227   6.750
10179POPC   C3B72945  14.590  26.251   7.050
10179POPC   C4B72946  14.545  26.271   7.350
10180POPC   NC372947  13.669  27.594   5.550
10180POPC   PO472948  13.616  27.605   5.850
10180POPC   GL172949  13.657  27.573   6.150
10180POPC   GL272950  13.608  27.497   6.150
10180POPC   C1A72951  13.631  27.546   6.450
10180POPC   D2A72952  13.615  27.642   6.750
10180POPC   C3A72953  13.624  27.613   7.050
10180POPC   C4A72954  13.641  27.554   7.350
10180POPC   C1B72955  13.668  27.327   6.450
10180POPC   C2B72956  13.648  27.369   6.750
10180POPC   C3B72957  13.639  27.304   7.050
10180POPC   C4B72958  13.589  27.348   7.350
10181POPC   NC372959  34.624  15.201   5.550
10181POPC   PO472960  34.557  15.163   5.850
10181POPC   GL172961  34.538  15.130   6.150
10181POPC   GL272962  34.525  15.275   6.150
10181POPC   C1A72963  34.579  15.176   6.450
10181POPC   D2A72964  34.604  15.197   6.750
10181POPC   C3A72965  34.623  15.176   7.050
10181POPC   C4A72966  34.530  15.139   7.350
10181POPC   C1B72967  34.412  15.405   6.450
10181POPC   C2B72968  34.425  15.419   6.750
10181POPC   C3B72969  34.378  15.357   7.050
10181POPC   C4B72970  34.452  15.413   7.350
10182POPC   NC372971   4.316  33.756   5.550
10182POPC   PO472972   4.304  33.757   5.850
10182POPC   GL172973   4.349  33.751   6.150
10182POPC   GL272974   4.192  33.733   6.150
10182POPC   C1A72975   4.304  33.758   6.450
10182POPC   D2A72976   4.314  33.789   6.750
10182POPC   C3A72977   4.279  33.808   7.050
10182POPC   C4A72978   4.284  33.758   7.350
10182POPC   C1B72979   4.144  33.654   6.450
10182POPC   C2B72980   4.143  33.704   6.750
10182POPC   C3B72981   4.124  33.648   7.050
10182POPC   C4B72982   4.143  33.697   7.350
10183POPC   NC372983  16.758   0.389   5.550
10183POPC   PO472984  16.723   0.423   5.850
10183POPC   GL172985  16.766   0.401   6.150
10183POPC   GL272986  16.769   0.276   6.150
10183POPC   C1A72987  16.732   0.450   6.450
10183POPC   D2A72988  16.774   0.396   6.750
10183POPC   C3A72989  16.738   0.448   7.050
10183POPC   C4A72990  16.752   0.388   7.350
10183POPC   C1B72991  16.798   0.202   6.450
10183POPC   C2B72992  16.779   0.146   6.750
10183POPC   C3B72993  16.771   0.154   7.050
10183POPC   C4B72994  16.802   0.167   7.350
10184POPC   NC372995  26.836   8.228   5.550
10184POPC   PO472996  26.774   8.212   5.850
10184POPC   GL172997  26.812   8.221   6.150
10184POPC   GL272998  26.913   8.033   6.150
10184POPC   C1A72999  26.789   8.223   6.450
10184POPC   D2A73000  26.838   8.241   6.750
10184POPC   C3A73001  26.789   8.149   7.050
10184POPC   C4A73002  26.861   8.223   7.350
10184POPC   C1B73003  26.929   7.981   6.450
10184POPC   C2B73004  26.961   8.010   6.750
10184POPC   C3B73005  26.930   7.925   7.050
10184POPC   C4B73006  26.900   7.959   7.350
10185POPC   NC373007  12.892  12.884   5.550
10185POPC   PO473008  12.811  12.838   5.850
10185POPC   GL173009  12.856  12.807   6.150
10185POPC   GL273010  12.731  12.889   6.150
10185POPC   C1A73011  12.845  12.870   6.450
10185POPC   D2A73012  12.832  12.831   6.750
10185POPC   C3A73013  12.894  12.815   7.050
10185POPC   C4A73014  12.875  12.862   7.350
10185POPC   C1B73015  12.631  13.048   6.450
10185POPC   C2B73016  12.685  13.033   6.750
10185POPC   C3B73017  12.660  13.053   7.050
10185POPC   C4B73018  12.656  13.039   7.350
10186POPC   NC373019  30.734  11.274   5.550
10186POPC   PO473020  30.673  11.337   5.850
10186POPC   GL173021  30.657  11.275   6.150
10186POPC   GL273022  30.540  11.262   6.150
10186POPC   C1A73023  30.742  11.269   6.450
10186POPC   D2A73024  30.647  11.251   6.750
10186POPC   C3A73025  30.733  11.283   7.050
10186POPC   C4A73026  30.676  11.318   7.350
10186POPC   C1B73027  30.462  11.220   6.450
10186POPC   C2B73028  30.427  11.211   6.750
10186POPC   C3B73029  30.415  11.263   7.050
10186POPC   C4B73030  30.434  11.237   7.350
10187POPC   NC373031  34.536  39.230   5.550
10187POPC   PO473032  34.591  39.224   5.850
10187POPC   GL173033  34.580  39.268   6.150
10187POPC   GL273034  34.501  39.276   6.150
10187POPC   C1A73035  34.568  39.234   6.450
10187POPC   D2A73036  34.573  39.251   6.750
10187POPC   C3A73037  34.586  39.205   7.050
10187POPC   C4A73038  34.582  39.223   7.350
10187POPC   C1B73039  34.352  39.366   6.450
10187POPC   C2B73040  34.396  39.432   6.750
10187POPC   C3B73041  34.404  39.414   7.050
10187POPC   C4B73042  34.407  39.408   7.350
10188POPC   NC373043  38.438  12.820   5.550
10188POPC   PO473044  38.443  12.823   5.850
10188POPC   GL173045  38.430  12.835   6.150
10188POPC   GL273046  38.574  12.789   6.150
10188POPC   C1A73047  38.496  12.828   6.450
10188POPC   D2A73048  38.504  12.882   6.750
10188POPC   C3A73049  38.423  12.853   7.050
10188POPC   C4A73050  38.421  12.863   7.350
10188POPC   C1B73051  38.625  12.636   6.450
10188POPC   C2B73052  38.638  12.676   6.750
10188POPC   C3B73053  38.594  12.664   7.050
10188POPC   C4B73054  38.545  12.651   7.350
10189POPC   NC373055  29.193   7.445   5.550
10189POPC   PO473056  29.126   7.470   5.850
10189POPC   GL173057  29.135   7.464   6.150
10189POPC   GL273058  29.017   7.311   6.150
10189POPC   C1A73059  29.175   7.380   6.450
10189POPC   D2A73060  29.137   7.430   6.750
10189POPC   C3A73061  29.144   7.392   7.050
10189POPC   C4A73062  29.151   7.440   7.350
10189POPC   C1B73063  28.951   7.231   6.450
10189POPC   C2B73064  28.978   7.281   6.750
10189POPC   C3B73065  28.917   7.245   7.050
10189POPC   C4B73066  28.928   7.303   7.350
10190POPC   NC373067  33.848  15.139   5.550
10190POPC   PO473068  33.828  15.191   5.850
10190POPC   GL173069  33.759  15.146   6.150
10190POPC   GL273070  33.697  15.107   6.150
10190POPC   C1A73071  33.835  15.136   6.450
10190POPC   D2A73072  33.844  15.148   6.750
10190POPC   C3A73073  33.804  15.216   7.050
10190POPC   C4A73074  33.837  15.187   7.350
10190POPC   C1B73075  33.534  15.108   6.450
10190POPC   C2B73076  33.550  15.090   6.750
10190POPC   C3B73077  33.589  15.017   7.050
10190POPC   C4B73078  33.627  15.077   7.350
10191POPC   NC373079  32.982  22.941   5.550
10191POPC   PO473080  32.981  22.961   5.850
10191POPC   GL173081  33.027  22.963   6.150
10191POPC   GL273082  33.110  22.853   6.150
10191POPC   C1A73083  33.035  22.906   6.450
10191POPC   D2A73084  33.007  22.894   6.750
10191POPC   C3A73085  33.072  22.985   7.050
10191POPC   C4A73086  33.034  22.893   7.350
10191POPC   C1B73087  33.201  22.875   6.450
10191POPC   C2B73088  33.292  22.797   6.750
10191POPC   C3B73089  33.248  22.866   7.050
10191POPC   C4B73090  33.269  22.849   7.350
10192POPC   NC373091  43.895  27.621   5.550
10192POPC   PO473092  43.934  27.601   5.850
10192POPC   GL173093  43.893  27.557   6.150
10192POPC   GL273094  44.003  27.692   6.150
10192POPC   C1A73095  43.848  27.557   6.450
10192POPC   D2A73096  43.933  27.600   6.750
10192POPC   C3A73097  43.921  27.626   7.050
10192POPC   C4A73098  43.852  27.643   7.350
10192POPC   C1B73099  44.099  27.765   6.450
10192POPC   C2B73100  44.133  27.724   6.750
10192POPC   C3B73101  44.113  27.703   7.050
10192POPC   C4B73102  44.058  27.698   7.350
10193POPC   NC373103  43.136   9.702   5.550
10193POPC   PO473104  43.125   9.727   5.850
10193POPC   GL173105  43.144   9.764   6.150
10193POPC   GL273106  43.006   9.816   6.150
10193POPC   C1A73107  43.065   9.709   6.450
10193POPC   D2A73108  43.110   9.731   6.750
10193POPC   C3A73109  43.132   9.782   7.050
10193POPC   C4A73110  43.142   9.754   7.350
10193POPC   C1B73111  42.940   9.931   6.450
10193POPC   C2B73112  42.965   9.949   6.750
10193POPC   C3B73113  42.951   9.985   7.050
10193POPC   C4B73114  42.925   9.911   7.350
10194POPC   NC373115  24.483  15.948   5.550
10194POPC   PO473116  24.499  15.906   5.850
10194POPC   GL173117  24.506  15.968   6.150
10194POPC   GL273118  24.404  16.015   6.150
10194POPC   C1A73119  24.466  15.912   6.450
10194POPC   D2A73120  24.488  15.913   6.750
10194POPC   C3A73121  24.481  15.945   7.050
10194POPC   C4A73122  24.477  15.967   7.350
10194POPC   C1B73123  24.250  16.076   6.450
10194POPC   C2B73124  24.332  16.093   6.750
10194POPC   C3B73125  24.275  16.060   7.050
10194POPC   C4B73126  24.232  16.052   7.350
10195POPC   NC373127  25.277  33.798   5.550
10195POPC   PO473128  25.261  33.799   5.850
10195POPC   GL173129  25.258  33.835   6.150
10195POPC   GL273130  25.356  33.722   6.150
10195POPC   C1A73131  25.271  33.771   6.450
10195POPC   D2A73132  25.247  33.782   6.750
10195POPC   C3A73133  25.249  33.773   7.050
10195POPC   C4A73134  25.218  33.788   7.350
10195POPC   C1B73135  25.454  33.643   6.450
10195POPC   C2B73136  25.457  33.636   6.750
10195POPC   C3B73137  25.524  33.652   7.050
10195POPC   C4B73138  25.467  33.692   7.350
10196POPC   NC373139  32.278   2.726   5.550
10196POPC   PO473140  32.240   2.732   5.850
10196POPC   GL173141  32.252   2.716   6.150
10196POPC   GL273142  32.110   2.708   6.150
10196POPC   C1A73143  32.270   2.784   6.450
10196POPC   D2A73144  32.221   2.727   6.750
10196POPC   C3A73145  32.253   2.781   7.050
10196POPC   C4A73146  32.231   2.813   7.350
10196POPC   C1B73147  32.045   2.582   6.450
10196POPC   C2B73148  32.048   2.580   6.750
10196POPC   C3B73149  32.065   2.658   7.050
10196POPC   C4B73150  32.021   2.637   7.350
10197POPC   NC373151   2.781  22.901   5.550
10197POPC   PO473152   2.748  22.976   5.850
10197POPC   GL173153   2.752  22.921   6.150
10197POPC   GL273154   2.847  22.847   6.150
10197POPC   C1A73155   2.731  22.944   6.450
10197POPC   D2A73156   2.724  22.918   6.750
10197POPC   C3A73157   2.751  22.953   7.050
10197POPC   C4A73158   2.810  22.981   7.350
10197POPC   C1B73159   2.973  22.709   6.450
10197POPC   C2B73160   2.931  22.789   6.750
10197POPC   C3B73161   2.969  22.702   7.050
10197POPC   C4B73162   2.913  22.737   7.350
10198POPC   NC373163   7.436  44.682   5.550
10198POPC   PO473164   7.374  44.629   5.850
10198POPC   GL173165   7.422  44.661   6.150
10198POPC   GL273166   7.272  44.658   6.150
10198POPC   C1A73167   7.419  44.681   6.450
10198POPC   D2A73168   7.452  44.693   6.750
10198POPC   C3A73169   7.377  44.702   7.050
10198POPC   C4A73170   7.386  44.658   7.350
10198POPC   C1B73171   7.230  44.594   6.450
10198POPC   C2B73172   7.136  44.558   6.750
10198POPC   C3B73173   7.179  44.552   7.050
10198POPC   C4B73174   7.201  44.631   7.350
10199POPC   NC373175  39.204  12.100   5.550
10199POPC   PO473176  39.203  12.057   5.850
10199POPC   GL173177  39.236  12.080   6.150
10199POPC   GL273178  39.305  11.994   6.150
10199POPC   C1A73179  39.233  12.117   6.450
10199POPC   D2A73180  39.278  12.100   6.750
10199POPC   C3A73181  39.221  12.064   7.050
10199POPC   C4A73182  39.232  12.109   7.350
10199POPC   C1B73183  39.466  11.957   6.450
10199POPC   C2B73184  39.454  12.021   6.750
10199POPC   C3B73185  39.433  11.982   7.050
10199POPC   C4B73186  39.498  12.025   7.350
10200POPC   NC373187  21.396  40.019   5.550
10200POPC   PO473188  21.338  40.034   5.850
10200POPC   GL173189  21.375  39.994   6.150
10200POPC   GL273190  21.315  39.848   6.150
10200POPC   C1A73191  21.384  40.007   6.450
10200POPC   D2A73192  21.415  40.046   6.750
10200POPC   C3A73193  21.414  39.959   7.050
10200POPC   C4A73194  21.414  40.019   7.350
10200POPC   C1B73195  21.305  39.744   6.450
10200POPC   C2B73196  21.332  39.740   6.750
10200POPC   C3B73197  21.338  39.822   7.050
10200POPC   C4B73198  21.250  39.770   7.350
10201POPC   NC373199  37.663  22.182   5.550
10201POPC   PO473200  37.655  22.155   5.850
10201POPC   GL173201  37.722  22.135   6.150
10201POPC   GL273202  37.706  22.272   6.150
10201POPC   C1A73203  37.646  22.145   6.450
10201POPC   D2A73204  37.693  22.143   6.750
10201POPC   C3A73205  37.661  22.142   7.050
10201POPC   C4A73206  37.691  22.151   7.350
10201POPC   C1B73207  37.744  22.371   6.450
10201POPC   C2B73208  37.792  22.393   6.750
10201POPC   C3B73209  37.810  22.408   7.050
10201POPC   C4B73210  37.737  22.358   7.350
10202POPC   NC373211  36.145   1.964   5.550
10202POPC   PO473212  36.153   1.946   5.850
10202POPC   GL173213  36.138   1.980   6.150
10202POPC   GL273214  36.224   1.926   6.150
10202POPC   C1A73215  36.082   1.976   6.450
10202POPC   D2A73216  36.176   2.012   6.750
10202POPC   C3A73217  36.125   2.005   7.050
10202POPC   C4A73218  36.178   2.018   7.350
10202POPC   C1B73219  36.306   1.756   6.450
10202POPC   C2B73220  36.222   1.818   6.750
10202POPC   C3B73221  36.314   1.825   7.050
10202POPC   C4B73222  36.227   1.818   7.350
10203POPC   NC373223  33.795   7.452   5.550
10203POPC   PO473224  33.754   7.443   5.850
10203POPC   GL173225  33.824   7.457   6.150
10203POPC   GL273226  33.861   7.577   6.150
10203POPC   C1A73227  33.754   7.414   6.450
10203POPC   D2A73228  33.753   7.425   6.750
10203POPC   C3A73229  33.831   7.464   7.050
10203POPC   C4A73230  33.786   7.465   7.350
10203POPC   C1B73231  33.858   7.708   6.450
10203POPC   C2B73232  33.828   7.703   6.750
10203POPC   C3B73233  33.891   7.658   7.050
10203POPC   C4B73234  33.860   7.646   7.350
10204POPC   NC373235  43.907  32.258   5.550
10204POPC   PO473236  43.920  32.215   5.850
10204POPC   GL173237  43.915  32.228   6.150
10204POPC   GL273238  43.722  32.274   6.150
10204POPC   C1A73239  43.846  32.199   6.450
10204POPC   D2A73240  43.869  32.207   6.750
10204POPC   C3A73241  43.841  32.210   7.050
10204POPC   C4A73242  43.865  32.250   7.350
10204POPC   C1B73243  43.687  32.279   6.450
10204POPC   C2B73244  43.678  32.260   6.750
10204POPC   C3B73245  43.629  32.318   7.050
10204POPC   C4B73246  43.601  32.245   7.350
10205POPC   NC373247  36.924  34.598   5.550
10205POPC   PO473248  36.902  34.527   5.850
10205POPC   GL173249  36.908  34.574   6.150
10205POPC   GL273250  36.933  34.444   6.150
10205POPC   C1A73251  36.879  34.605   6.450
10205POPC   D2A73252  36.949  34.582   6.750
10205POPC   C3A73253  36.917  34.574   7.050
10205POPC   C4A73254  36.889  34.577   7.350
10205POPC   C1B73255  36.934  34.345   6.450
10205POPC   C2B73256  36.929  34.316   6.750
10205POPC   C3B73257  36.919  34.308   7.050
10205POPC   C4B73258  36.902  34.349   7.350
10206POPC   NC373259  13.675  19.810   5.550
10206POPC   PO473260  13.667  19.876   5.850
10206POPC   GL173261  13.639  19.870   6.150
10206POPC   GL273262  13.501  19.932   6.150
10206POPC   C1A73263  13.673  19.862   6.450
10206POPC   D2A73264  13.631  19.813   6.750
10206POPC   C3A73265  13.608  19.876   7.050
10206POPC   C4A73266  13.607  19.836   7.350
10206POPC   C1B73267  13.400  19.994   6.450
10206POPC   C2B73268  13.450  19.991   6.750
10206POPC   C3B73269  13.404  19.983   7.050
10206POPC   C4B73270  13.460  19.995   7.350
10207POPC   NC373271  29.886  41.522   5.550
10207POPC   PO473272  29.946  41.605   5.850
10207POPC   GL173273  29.889  41.541   6.150
10207POPC   GL273274  29.749  41.489   6.150
10207POPC   C1A73275  29.909  41.523   6.450
10207POPC   D2A73276  29.953  41.555   6.750
10207POPC   C3A73277  29.905  41.576   7.050
10207POPC   C4A73278  29.875  41.559   7.350
10207POPC   C1B73279  29.683  41.469   6.450
10207POPC   C2B73280  29.671  41.521   6.750
10207POPC   C3B73281  29.672  41.524   7.050
10207POPC   C4B73282  29.687  41.488   7.350
10208POPC   NC373283  39.189  30.731   5.550
10208POPC   PO473284  39.197  30.737   5.850
10208POPC   GL173285  39.222  30.696   6.150
10208POPC   GL273286  39.163  30.772   6.150
10208POPC   C1A73287  39.280  30.675   6.450
10208POPC   D2A73288  39.276  30.739   6.750
10208POPC   C3A73289  39.184  30.679   7.050
10208POPC   C4A73290  39.221  30.675   7.350
10208POPC   C1B73291  39.019  30.762   6.450
10208POPC   C2B73292  38.992  30.816   6.750
10208POPC   C3B73293  39.036  30.758   7.050
10208POPC   C4B73294  38.986  30.751   7.350
10209POPC   NC373295  44.664  40.778   5.550
10209POPC   PO473296  44.712  40.812   5.850
10209POPC   GL173297  44.613  40.756   6.150
10209POPC   GL273298  44.643  40.719   6.150
10209POPC   C1A73299  44.672  40.765   6.450
10209POPC   D2A73300  44.646  40.816   6.750
10209POPC   C3A73301  44.626  40.797   7.050
10209POPC   C4A73302  44.677  40.741   7.350
10209POPC   C1B73303  44.583  40.605   6.450
10209POPC   C2B73304  44.499  40.555   6.750
10209POPC   C3B73305  44.502  40.591   7.050
10209POPC   C4B73306  44.533  40.560   7.350
10210POPC   NC373307  31.464  29.907   5.550
10210POPC   PO473308  31.473  29.884   5.850
10210POPC   GL173309  31.494  29.906   6.150
10210POPC   GL273310  31.431  29.997   6.150
10210POPC   C1A73311  31.423  29.886   6.450
10210POPC   D2A73312  31.522  29.908   6.750
10210POPC   C3A73313  31.449  29.882   7.050
10210POPC   C4A73314  31.486  29.947   7.350
10210POPC   C1B73315  31.448  30.217   6.450
10210POPC   C2B73316  31.476  30.129   6.750
10210POPC   C3B73317  31.426  30.122   7.050
10210POPC   C4B73318  31.477  30.168   7.350
10211POPC   NC373319  31.514   1.230   5.550
10211POPC   PO473320  31.437   1.204   5.850
10211POPC   GL173321  31.455   1.172   6.150
10211POPC   GL273322  31.416   1.072   6.150
10211POPC   C1A73323  31.444   1.216   6.450
10211POPC   D2A73324  31.475   1.187   6.750
10211POPC   C3A73325  31.427   1.188   7.050
10211POPC   C4A73326  31.475   1.256   7.350
10211POPC   C1B73327  31.319   1.031   6.450
10211POPC   C2B73328  31.372   1.033   6.750
10211POPC   C3B73329  31.338   0.993   7.050
10211POPC   C4B73330  31.353   0.999   7.350
10212POPC   NC373331  29.180  18.321   5.550
10212POPC   PO473332  29.105  18.248   5.850
10212POPC   GL173333  29.160  18.320   6.150
10212POPC   GL273334  29.230  18.299   6.150
10212POPC   C1A73335  29.163  18.264   6.450
10212POPC   D2A73336  29.195  18.296   6.750
10212POPC   C3A73337  29.162  18.320   7.050
10212POPC   C4A73338  29.150  18.281   7.350
10212POPC   C1B73339  29.391  18.343   6.450
10212POPC   C2B73340  29.353  18.299   6.750
10212POPC   C3B73341  29.365  18.326   7.050
10212POPC   C4B73342  29.372  18.303   7.350
10213POPC   NC373343  24.461  19.084   5.550
10213POPC   PO473344  24.494  19.044   5.850
10213POPC   GL173345  24.462  19.085   6.150
10213POPC   GL273346  24.616  19.134   6.150
10213POPC   C1A73347  24.491  19.074   6.450
10213POPC   D2A73348  24.507  19.095   6.750
10213POPC   C3A73349  24.521  19.083   7.050
10213POPC   C4A73350  24.523  19.060   7.350
10213POPC   C1B73351  24.685  19.213   6.450
10213POPC   C2B73352  24.705  19.141   6.750
10213POPC   C3B73353  24.676  19.186   7.050
10213POPC   C4B73354  24.668  19.220   7.350
10214POPC   NC373355  33.045   4.331   5.550
10214POPC   PO473356  33.028   4.335   5.850
10214POPC   GL173357  33.058   4.273   6.150
10214POPC   GL273358  33.075   4.379   6.150
10214POPC   C1A73359  33.003   4.312   6.450
10214POPC   D2A73360  32.974   4.363   6.750
10214POPC   C3A73361  32.993   4.318   7.050
10214POPC   C4A73362  33.044   4.337   7.350
10214POPC   C1B73363  33.240   4.419   6.450
10214POPC   C2B73364  33.242   4.486   6.750
10214POPC   C3B73365  33.206   4.452   7.050
10214POPC   C4B73366  33.182   4.443   7.350
10215POPC   NC373367   9.785  18.279   5.550
10215POPC   PO473368   9.728  18.275   5.850
10215POPC   GL173369   9.764  18.326   6.150
10215POPC   GL273370   9.756  18.120   6.150
10215POPC   C1A73371   9.720  18.311   6.450
10215POPC   D2A73372   9.739  18.260   6.750
10215POPC   C3A73373   9.712  18.329   7.050
10215POPC   C4A73374   9.721  18.260   7.350
10215POPC   C1B73375   9.667  17.988   6.450
10215POPC   C2B73376   9.661  18.032   6.750
10215POPC   C3B73377   9.733  18.001   7.050
10215POPC   C4B73378   9.702  18.070   7.350
10216POPC   NC373379  30.743  35.343   5.550
10216POPC   PO473380  30.663  35.317   5.850
10216POPC   GL173381  30.710  35.320   6.150
10216POPC   GL273382  30.583  35.264   6.150
10216POPC   C1A73383  30.723  35.340   6.450
10216POPC   D2A73384  30.699  35.373   6.750
10216POPC   C3A73385  30.712  35.378   7.050
10216POPC   C4A73386  30.668  35.340   7.350
10216POPC   C1B73387  30.585  35.137   6.450
10216POPC   C2B73388  30.536  35.178   6.750
10216POPC   C3B73389  30.514  35.137   7.050
10216POPC   C4B73390  30.561  35.150   7.350
10217POPC   NC373391  25.289   4.359   5.550
10217POPC   PO473392  25.305   4.344   5.850
10217POPC   GL173393  25.286   4.271   6.150
10217POPC   GL273394  25.282   4.183   6.150
10217POPC   C1A73395  25.294   4.333   6.450
10217POPC   D2A73396  25.245   4.331   6.750
10217POPC   C3A73397  25.271   4.319   7.050
10217POPC   C4A73398  25.305   4.276   7.350
10217POPC   C1B73399  25.375   4.113   6.450
10217POPC   C2B73400  25.325   4.095   6.750
10217POPC   C3B73401  25.337   4.075   7.050
10217POPC   C4B73402  25.311   4.123   7.350
10218POPC   NC373403   7.443  15.906   5.550
10218POPC   PO473404   7.466  15.936   5.850
10218POPC   GL173405   7.374  15.948   6.150
10218POPC   GL273406   7.470  16.114   6.150
10218POPC   C1A73407   7.430  15.967   6.450
10218POPC   D2A73408   7.411  15.952   6.750
10218POPC   C3A73409   7.463  15.992   7.050
10218POPC   C4A73410   7.394  15.966   7.350
10218POPC   C1B73411   7.537  16.224   6.450
10218POPC   C2B73412   7.555  16.156   6.750
10218POPC   C3B73413   7.518  16.192   7.050
10218POPC   C4B73414   7.493  16.159   7.350
10219POPC   NC373415  35.337  15.967   5.550
10219POPC   PO473416  35.304  16.005   5.850
10219POPC   GL173417  35.369  15.924   6.150
10219POPC   GL273418  35.238  15.854   6.150
10219POPC   C1A73419  35.343  15.935   6.450
10219POPC   D2A73420  35.364  15.966   6.750
10219POPC   C3A73421  35.385  15.999   7.050
10219POPC   C4A73422  35.345  15.980   7.350
10219POPC   C1B73423  35.170  15.833   6.450
10219POPC   C2B73424  35.154  15.878   6.750
10219POPC   C3B73425  35.136  15.832   7.050
10219POPC   C4B73426  35.102  15.810   7.350
10220POPC   NC373427  16.748  32.274   5.550
10220POPC   PO473428  16.719  32.294   5.850
10220POPC   GL173429  16.714  32.285   6.150
10220POPC   GL273430  16.566  32.198   6.150
10220POPC   C1A73431  16.777  32.245   6.450
10220POPC   D2A73432  16.764  32.241   6.750
10220POPC   C3A73433  16.699  32.237   7.050
10220POPC   C4A73434  16.698  32.247   7.350
10220POPC   C1B73435  16.469  32.188   6.450
10220POPC   C2B73436  16.545  32.109   6.750
10220POPC   C3B73437  16.489  32.197   7.050
10220POPC   C4B73438  16.526  32.205   7.350
10221POPC   NC373439  10.563  31.502   5.550
10221POPC   PO473440  10.515  31.452   5.850
10221POPC   GL173441  10.544  31.459   6.150
10221POPC   GL273442  10.537  31.589   6.150
10221POPC   C1A73443  10.489  31.458   6.450
10221POPC   D2A73444  10.526  31.459   6.750
10221POPC   C3A73445  10.484  31.430   7.050
10221POPC   C4A73446  10.515  31.446   7.350
10221POPC   C1B73447  10.554  31.689   6.450
10221POPC   C2B73448  10.533  31.739   6.750
10221POPC   C3B73449  10.561  31.755   7.050
10221POPC   C4B73450  10.470  31.705   7.350
10222POPC   NC373451   2.771  20.630   5.550
10222POPC   PO473452   2.754  20.625   5.850
10222POPC   GL173453   2.742  20.659   6.150
10222POPC   GL273454   2.862  20.542   6.150
10222POPC   C1A73455   2.794  20.628   6.450
10222POPC   D2A73456   2.716  20.617   6.750
10222POPC   C3A73457   2.781  20.585   7.050
10222POPC   C4A73458   2.799  20.633   7.350
10222POPC   C1B73459   2.929  20.420   6.450
10222POPC   C2B73460   2.878  20.392   6.750
10222POPC   C3B73461   2.956  20.397   7.050
10222POPC   C4B73462   2.973  20.423   7.350
10223POPC   NC373463   5.072   8.966   5.550
10223POPC   PO473464   5.109   8.945   5.850
10223POPC   GL173465   5.135   8.935   6.150
10223POPC   GL273466   4.989   8.979   6.150
10223POPC   C1A73467   5.089   8.997   6.450
10223POPC   D2A73468   5.134   9.019   6.750
10223POPC   C3A73469   5.082   8.938   7.050
10223POPC   C4A73470   5.093   9.022   7.350
10223POPC   C1B73471   4.851   8.911   6.450
10223POPC   C2B73472   4.807   8.917   6.750
10223POPC   C3B73473   4.814   8.963   7.050
10223POPC   C4B73474   4.849   8.934   7.350
10224POPC   NC373475  12.099  22.141   5.550
10224POPC   PO473476  12.047  22.206   5.850
10224POPC   GL173477  12.072  22.203   6.150
10224POPC   GL273478  11.977  22.102   6.150
10224POPC   C1A73479  12.083  22.116   6.450
10224POPC   D2A73480  12.043  22.118   6.750
10224POPC   C3A73481  12.119  22.204   7.050
10224POPC   C4A73482  12.036  22.200   7.350
10224POPC   C1B73483  11.820  22.039   6.450
10224POPC   C2B73484  11.857  22.012   6.750
10224POPC   C3B73485  11.886  22.044   7.050
10224POPC   C4B73486  11.811  22.098   7.350
10225POPC   NC373487   1.249  22.136   5.550
10225POPC   PO473488   1.219  22.131   5.850
10225POPC   GL173489   1.245  22.210   6.150
10225POPC   GL273490   1.208  22.270   6.150
10225POPC   C1A73491   1.213  22.155   6.450
10225POPC   D2A73492   1.223  22.115   6.750
10225POPC   C3A73493   1.207  22.185   7.050
10225POPC   C4A73494   1.255  22.208   7.350
10225POPC   C1B73495   1.307  22.391   6.450
10225POPC   C2B73496   1.300  22.354   6.750
10225POPC   C3B73497   1.281  22.372   7.050
10225POPC   C4B73498   1.243  22.392   7.350
10226POPC   NC373499  18.300  12.870   5.550
10226POPC   PO473500  18.251  12.882   5.850
10226POPC   GL173501  18.286  12.821   6.150
10226POPC   GL273502  18.209  12.943   6.150
10226POPC   C1A73503  18.311  12.878   6.450
10226POPC   D2A73504  18.270  12.851   6.750
10226POPC   C3A73505  18.284  12.892   7.050
10226POPC   C4A73506  18.286  12.864   7.350
10226POPC   C1B73507  18.083  12.913   6.450
10226POPC   C2B73508  18.087  12.974   6.750
10226POPC   C3B73509  18.012  12.965   7.050
10226POPC   C4B73510  18.092  12.964   7.350
10227POPC   NC373511  40.812   3.575   5.550
10227POPC   PO473512  40.788   3.502   5.850
10227POPC   GL173513  40.772   3.496   6.150
10227POPC   GL273514  40.898   3.500   6.150
10227POPC   C1A73515  40.735   3.513   6.450
10227POPC   D2A73516  40.832   3.499   6.750
10227POPC   C3A73517  40.797   3.532   7.050
10227POPC   C4A73518  40.818   3.521   7.350
10227POPC   C1B73519  40.982   3.450   6.450
10227POPC   C2B73520  40.969   3.406   6.750
10227POPC   C3B73521  41.039   3.421   7.050
10227POPC   C4B73522  40.982   3.411   7.350
10228POPC   NC373523  34.589  38.452   5.550
10228POPC   PO473524  34.572  38.452   5.850
10228POPC   GL173525  34.551  38.477   6.150
10228POPC   GL273526  34.688  38.446   6.150
10228POPC   C1A73527  34.568  38.470   6.450
10228POPC   D2A73528  34.608  38.408   6.750
10228POPC   C3A73529  34.591  38.466   7.050
10228POPC   C4A73530  34.609  38.470   7.350
10228POPC   C1B73531  34.865  38.462   6.450
10228POPC   C2B73532  34.848  38.407   6.750
10228POPC   C3B73533  34.835  38.470   7.050
10228POPC   C4B73534  34.842  38.393   7.350
10229POPC   NC373535  27.632  25.250   5.550
10229POPC   PO473536  27.560  25.297   5.850
10229POPC   GL173537  27.560  25.222   6.150
10229POPC   GL273538  27.708  25.320   6.150
10229POPC   C1A73539  27.630  25.226   6.450
10229POPC   D2A73540  27.557  25.245   6.750
10229POPC   C3A73541  27.620  25.219   7.050
10229POPC   C4A73542  27.559  25.315   7.350
10229POPC   C1B73543  27.871  25.279   6.450
10229POPC   C2B73544  27.856  25.336   6.750
10229POPC   C3B73545  27.788  25.363   7.050
10229POPC   C4B73546  27.814  25.296   7.350
10230POPC   NC373547  13.581   9.719   5.550
10230POPC   PO473548  13.582   9.711   5.850
10230POPC   GL173549  13.591   9.745   6.150
10230POPC   GL273550  13.641   9.646   6.150
10230POPC   C1A73551  13.631   9.713   6.450
10230POPC   D2A73552  13.628   9.782   6.750
10230POPC   C3A73553  13.641   9.757   7.050
10230POPC   C4A73554  13.588   9.733   7.350
10230POPC   C1B73555  13.769   9.547   6.450
10230POPC   C2B73556  13.732   9.487   6.750
10230POPC   C3B73557  13.781   9.538   7.050
10230POPC   C4B73558  13.717   9.499   7.350
10231POPC   NC373559   9.725  40.000   5.550
10231POPC   PO473560   9.757  40.031   5.850
10231POPC   GL173561   9.742  40.009   6.150
10231POPC   GL273562   9.709  40.114   6.150
10231POPC   C1A73563   9.797  40.003   6.450
10231POPC   D2A73564   9.748  40.041   6.750
10231POPC   C3A73565   9.785  40.002   7.050
10231POPC   C4A73566   9.745  40.016   7.350
10231POPC   C1B73567   9.584  40.217   6.450
10231POPC   C2B73568   9.642  40.197   6.750
10231POPC   C3B73569   9.563  40.179   7.050
10231POPC   C4B73570   9.637  40.171   7.350
10232POPC   NC373571  20.571  19.812   5.550
10232POPC   PO473572  20.571  19.787   5.850
10232POPC   GL173573  20.616  19.786   6.150
10232POPC   GL273574  20.570  19.723   6.150
10232POPC   C1A73575  20.584  19.812   6.450
10232POPC   D2A73576  20.624  19.858   6.750
10232POPC   C3A73577  20.641  19.818   7.050
10232POPC   C4A73578  20.589  19.879   7.350
10232POPC   C1B73579  20.598  19.582   6.450
10232POPC   C2B73580  20.556  19.580   6.750
10232POPC   C3B73581  20.547  19.554   7.050
10232POPC   C4B73582  20.567  19.605   7.350
10233POPC   NC373583  10.551  14.371   5.550
10233POPC   PO473584  10.557  14.372   5.850
10233POPC   GL173585  10.503  14.386   6.150
10233POPC   GL273586  10.554  14.542   6.150
10233POPC   C1A73587  10.476  14.437   6.450
10233POPC   D2A73588  10.561  14.449   6.750
10233POPC   C3A73589  10.544  14.361   7.050
10233POPC   C4A73590  10.528  14.404   7.350
10233POPC   C1B73591  10.602  14.600   6.450
10233POPC   C2B73592  10.577  14.650   6.750
10233POPC   C3B73593  10.570  14.677   7.050
10233POPC   C4B73594  10.553  14.649   7.350
10234POPC   NC373595  25.264   5.064   5.550
10234POPC   PO473596  25.283   5.072   5.850
10234POPC   GL173597  25.221   5.058   6.150
10234POPC   GL273598  25.273   5.218   6.150
10234POPC   C1A73599  25.226   5.103   6.450
10234POPC   D2A73600  25.221   5.097   6.750
10234POPC   C3A73601  25.307   5.118   7.050
10234POPC   C4A73602  25.298   5.135   7.350
10234POPC   C1B73603  25.228   5.359   6.450
10234POPC   C2B73604  25.228   5.301   6.750
10234POPC   C3B73605  25.191   5.366   7.050
10234POPC   C4B73606  25.222   5.335   7.350
10235POPC   NC373607  39.267  29.174   5.550
10235POPC   PO473608  39.249  29.179   5.850
10235POPC   GL173609  39.194  29.176   6.150
10235POPC   GL273610  39.148  29.209   6.150
10235POPC   C1A73611  39.258  29.137   6.450
10235POPC   D2A73612  39.264  29.105   6.750
10235POPC   C3A73613  39.248  29.190   7.050
10235POPC   C4A73614  39.272  29.118   7.350
10235POPC   C1B73615  39.071  29.360   6.450
10235POPC   C2B73616  39.051  29.371   6.750
10235POPC   C3B73617  39.056  29.309   7.050
10235POPC   C4B73618  39.136  29.372   7.350
10236POPC   NC373619  34.607   3.492   5.550
10236POPC   PO473620  34.553   3.549   5.850
10236POPC   GL173621  34.593   3.505   6.150
10236POPC   GL273622  34.616   3.620   6.150
10236POPC   C1A73623  34.580   3.505   6.450
10236POPC   D2A73624  34.617   3.546   6.750
10236POPC   C3A73625  34.622   3.527   7.050
10236POPC   C4A73626  34.563   3.541   7.350
10236POPC   C1B73627  34.739   3.720   6.450
10236POPC   C2B73628  34.748   3.771   6.750
10236POPC   C3B73629  34.766   3.686   7.050
10236POPC   C4B73630  34.694   3.780   7.350
10237POPC   NC373631  26.070  22.160   5.550
10237POPC   PO473632  26.084  22.195   5.850
10237POPC   GL173633  26.091  22.173   6.150
10237POPC   GL273634  25.921  22.137   6.150
10237POPC   C1A73635  26.044  22.145   6.450
10237POPC   D2A73636  26.020  22.147   6.750
10237POPC   C3A73637  26.071  22.211   7.050
10237POPC   C4A73638  26.059  22.158   7.350
10237POPC   C1B73639  25.850  22.022   6.450
10237POPC   C2B73640  25.774  22.032   6.750
10237POPC   C3B73641  25.778  22.087   7.050
10237POPC   C4B73642  25.811  22.055   7.350
10238POPC   NC373643   1.962  16.003   5.550
10238POPC   PO473644   1.996  16.005   5.850
10238POPC   GL173645   2.029  15.950   6.150
10238POPC   GL273646   1.897  15.991   6.150
10238POPC   C1A73647   2.022  15.940   6.450
10238POPC   D2A73648   2.033  15.921   6.750
10238POPC   C3A73649   1.983  16.001   7.050
10238POPC   C4A73650   1.954  15.971   7.350
10238POPC   C1B73651   1.690  15.909   6.450
10238POPC   C2B73652   1.738  15.964   6.750
10238POPC   C3B73653   1.694  15.983   7.050
10238POPC   C4B73654   1.745  15.951   7.350
10239POPC   NC373655  29.141  42.296   5.550
10239POPC   PO473656  29.143  42.295   5.850
10239POPC   GL173657  29.136  42.344   6.150
10239POPC   GL273658  29.072  42.270   6.150
10239POPC   C1A73659  29.137  42.300   6.450
10239POPC   D2A73660  29.111  42.370   6.750
10239POPC   C3A73661  29.192  42.321   7.050
10239POPC   C4A73662  29.143  42.376   7.350
10239POPC   C1B73663  28.986  42.159   6.450
10239POPC   C2B73664  28.940  42.124   6.750
10239POPC   C3B73665  28.979  42.148   7.050
10239POPC   C4B73666  29.000  42.134   7.350
10240POPC   NC373667   4.349  44.682   5.550
10240POPC   PO473668   4.367  44.684   5.850
10240POPC   GL173669   4.356  44.691   6.150
10240POPC   GL273670   4.431  44.726   6.150
10240POPC   C1A73671   4.326  44.688   6.450
10240POPC   D2A73672   4.364  44.613   6.750
10240POPC   C3A73673   4.359  44.710   7.050
10240POPC   C4A73674   4.311  44.691   7.350
10240POPC   C1B73675   4.457  44.857   6.450
10240POPC   C2B73676   4.454  44.843   6.750
10240POPC   C3B73677   4.460  44.868   7.050
10240POPC   C4B73678   4.476  44.855   7.350
10241POPC   NC373679  28.345   5.092   5.550
10241POPC   PO473680  28.366   5.129   5.850
10241POPC   GL173681  28.331   5.096   6.150
10241POPC   GL273682  28.328   4.996   6.150
10241POPC   C1A73683  28.398   5.082   6.450
10241POPC   D2A73684  28.343   5.105   6.750
10241POPC   C3A73685  28.327   5.132   7.050
10241POPC   C4A73686  28.400   5.133   7.350
10241POPC   C1B73687  28.327   4.833   6.450
10241POPC   C2B73688  28.343   4.896   6.750
10241POPC   C3B73689  28.339   4.894   7.050
10241POPC   C4B73690  28.282   4.898   7.350
10242POPC   NC373691   2.719  24.481   5.550
10242POPC   PO473692   2.771  24.523   5.850
10242POPC   GL173693   2.753  24.519   6.150
10242POPC   GL273694   2.886  24.513   6.150
10242POPC   C1A73695   2.717  24.459   6.450
10242POPC   D2A73696   2.733  24.502   6.750
10242POPC   C3A73697   2.719  24.494   7.050
10242POPC   C4A73698   2.772  24.445   7.350
10242POPC   C1B73699   2.997  24.428   6.450
10242POPC   C2B73700   3.005  24.483   6.750
10242POPC   C3B73701   2.987  24.466   7.050
10242POPC   C4B73702   3.036  24.470   7.350
10243POPC   NC373703   8.223  32.265   5.550
10243POPC   PO473704   8.226  32.280   5.850
10243POPC   GL173705   8.228  32.254   6.150
10243POPC   GL273706   8.240  32.352   6.150
10243POPC   C1A73707   8.188  32.280   6.450
10243POPC   D2A73708   8.196  32.290   6.750
10243POPC   C3A73709   8.237  32.293   7.050
10243POPC   C4A73710   8.224  32.250   7.350
10243POPC   C1B73711   8.278  32.495   6.450
10243POPC   C2B73712   8.265  32.466   6.750
10243POPC   C3B73713   8.272  32.489   7.050
10243POPC   C4B73714   8.255  32.533   7.350
10244POPC   NC373715  30.654   1.171   5.550
10244POPC   PO473716  30.707   1.175   5.850
10244POPC   GL173717  30.693   1.263   6.150
10244POPC   GL273718  30.722   1.367   6.150
10244POPC   C1A73719  30.668   1.254   6.450
10244POPC   D2A73720  30.666   1.227   6.750
10244POPC   C3A73721  30.672   1.237   7.050
10244POPC   C4A73722  30.681   1.213   7.350
10244POPC   C1B73723  30.779   1.486   6.450
10244POPC   C2B73724  30.783   1.476   6.750
10244POPC   C3B73725  30.841   1.393   7.050
10244POPC   C4B73726  30.842   1.457   7.350
10245POPC   NC373727   8.229  21.351   5.550
10245POPC   PO473728   8.198  21.418   5.850
10245POPC   GL173729   8.170  21.368   6.150
10245POPC   GL273730   8.257  21.346   6.150
10245POPC   C1A73731   8.166  21.401   6.450
10245POPC   D2A73732   8.197  21.390   6.750
10245POPC   C3A73733   8.162  21.420   7.050
10245POPC   C4A73734   8.211  21.400   7.350
10245POPC   C1B73735   8.411  21.234   6.450
10245POPC   C2B73736   8.440  21.250   6.750
10245POPC   C3B73737   8.418  21.227   7.050
10245POPC   C4B73738   8.393  21.240   7.350
10246POPC   NC373739  39.981  19.827   5.550
10246POPC   PO473740  40.003  19.833   5.850
10246POPC   GL173741  39.995  19.842   6.150
10246POPC   GL273742  40.010  20.005   6.150
10246POPC   C1A73743  39.978  19.786   6.450
10246POPC   D2A73744  40.018  19.797   6.750
10246POPC   C3A73745  39.979  19.800   7.050
10246POPC   C4A73746  39.958  19.795   7.350
10246POPC   C1B73747  40.002  20.046   6.450
10246POPC   C2B73748  40.010  20.051   6.750
10246POPC   C3B73749  40.069  20.035   7.050
10246POPC   C4B73750  39.993  20.052   7.350
10247POPC   NC373751   7.424   1.228   5.550
10247POPC   PO473752   7.430   1.167   5.850
10247POPC   GL173753   7.432   1.182   6.150
10247POPC   GL273754   7.353   1.135   6.150
10247POPC   C1A73755   7.425   1.181   6.450
10247POPC   D2A73756   7.465   1.203   6.750
10247POPC   C3A73757   7.377   1.208   7.050
10247POPC   C4A73758   7.461   1.259   7.350
10247POPC   C1B73759   7.279   0.967   6.450
10247POPC   C2B73760   7.313   0.987   6.750
10247POPC   C3B73761   7.267   1.007   7.050
10247POPC   C4B73762   7.305   0.991   7.350
10248POPC   NC373763  31.482   7.379   5.550
10248POPC   PO473764  31.476   7.375   5.850
10248POPC   GL173765  31.477   7.444   6.150
10248POPC   GL273766  31.390   7.370   6.150
10248POPC   C1A73767  31.493   7.394   6.450
10248POPC   D2A73768  31.434   7.391   6.750
10248POPC   C3A73769  31.456   7.410   7.050
10248POPC   C4A73770  31.440   7.437   7.350
10248POPC   C1B73771  31.222   7.308   6.450
10248POPC   C2B73772  31.282   7.280   6.750
10248POPC   C3B73773  31.307   7.256   7.050
10248POPC   C4B73774  31.273   7.289   7.350
10249POPC   NC373775  30.701   3.494   5.550
10249POPC   PO473776  30.679   3.496   5.850
10249POPC   GL173777  30.670   3.505   6.150
10249POPC   GL273778  30.545   3.481   6.150
10249POPC   C1A73779  30.658   3.524   6.450
10249POPC   D2A73780  30.705   3.560   6.750
10249POPC   C3A73781  30.730   3.518   7.050
10249POPC   C4A73782  30.694   3.555   7.350
10249POPC   C1B73783  30.454   3.364   6.450
10249POPC   C2B73784  30.470   3.389   6.750
10249POPC   C3B73785  30.473   3.363   7.050
10249POPC   C4B73786  30.497   3.436   7.350
10250POPC   NC373787  12.117  32.297   5.550
10250POPC   PO473788  12.093  32.291   5.850
10250POPC   GL173789  12.070  32.212   6.150
10250POPC   GL273790  12.065  32.326   6.150
10250POPC   C1A73791  12.076  32.297   6.450
10250POPC   D2A73792  12.064  32.199   6.750
10250POPC   C3A73793  12.059  32.217   7.050
10250POPC   C4A73794  12.074  32.265   7.350
10250POPC   C1B73795  12.035  32.479   6.450
10250POPC   C2B73796  12.060  32.452   6.750
10250POPC   C3B73797  12.086  32.474   7.050
10250POPC   C4B73798  12.048  32.524   7.350
10251POPC   NC373799  11.349  19.039   5.550
10251POPC   PO473800  11.297  19.029   5.850
10251POPC   GL173801  11.278  19.085   6.150
10251POPC   GL273802  11.353  19.109   6.150
10251POPC   C1A73803  11.332  19.057   6.450
10251POPC   D2A73804  11.283  19.079   6.750
10251POPC   C3A73805  11.349  19.046   7.050
10251POPC   C4A73806  11.329  19.081   7.350
10251POPC   C1B73807  11.499  19.234   6.450
10251POPC   C2B73808  11.435  19.207   6.750
10251POPC   C3B73809  11.500  19.301   7.050
10251POPC   C4B73810  11.466  19.296   7.350
10252POPC   NC373811  35.317  30.650   5.550
10252POPC   PO473812  35.393  30.679   5.850
10252POPC   GL173813  35.304  30.680   6.150
10252POPC   GL273814  35.420  30.640   6.150
10252POPC   C1A73815  35.389  30.658   6.450
10252POPC   D2A73816  35.305  30.661   6.750
10252POPC   C3A73817  35.388  30.662   7.050
10252POPC   C4A73818  35.375  30.721   7.350
10252POPC   C1B73819  35.568  30.497   6.450
10252POPC   C2B73820  35.550  30.489   6.750
10252POPC   C3B73821  35.566  30.466   7.050
10252POPC   C4B73822  35.553  30.466   7.350
10253POPC   NC373823  33.833  23.669   5.550
10253POPC   PO473824  33.758  23.748   5.850
10253POPC   GL173825  33.846  23.729   6.150
10253POPC   GL273826  33.943  23.725   6.150
10253POPC   C1A73827  33.767  23.734   6.450
10253POPC   D2A73828  33.788  23.730   6.750
10253POPC   C3A73829  33.802  23.737   7.050
10253POPC   C4A73830  33.781  23.686   7.350
10253POPC   C1B73831  34.008  23.845   6.450
10253POPC   C2B73832  33.995  23.756   6.750
10253POPC   C3B73833  34.067  23.767   7.050
10253POPC   C4B73834  34.026  23.771   7.350
10254POPC   NC373835  32.992   5.830   5.550
10254POPC   PO473836  33.060   5.881   5.850
10254POPC   GL173837  33.066   5.907   6.150
10254POPC   GL273838  32.982   5.991   6.150
10254POPC   C1A73839  33.071   5.861   6.450
10254POPC   D2A73840  32.996   5.823   6.750
10254POPC   C3A73841  33.016   5.819   7.050
10254POPC   C4A73842  33.034   5.852   7.350
10254POPC   C1B73843  32.912   6.041   6.450
10254POPC   C2B73844  32.917   6.120   6.750
10254POPC   C3B73845  32.912   6.089   7.050
10254POPC   C4B73846  32.945   6.054   7.350
10255POPC   NC373847  23.687  18.255   5.550
10255POPC   PO473848  23.735  18.307   5.850
10255POPC   GL173849  23.673  18.313   6.150
10255POPC   GL273850  23.634  18.184   6.150
10255POPC   C1A73851  23.748  18.245   6.450
10255POPC   D2A73852  23.670  18.255   6.750
10255POPC   C3A73853  23.667  18.248   7.050
10255POPC   C4A73854  23.726  18.270   7.350
10255POPC   C1B73855  23.469  18.151   6.450
10255POPC   C2B73856  23.538  18.165   6.750
10255POPC   C3B73857  23.487  18.155   7.050
10255POPC   C4B73858  23.493  18.118   7.350
10256POPC   NC373859  38.482  34.548   5.550
10256POPC   PO473860  38.442  34.526   5.850
10256POPC   GL173861  38.444  34.579   6.150
10256POPC   GL273862  38.404  34.731   6.150
10256POPC   C1A73863  38.468  34.555   6.450
10256POPC   D2A73864  38.476  34.569   6.750
10256POPC   C3A73865  38.466  34.549   7.050
10256POPC   C4A73866  38.423  34.553   7.350
10256POPC   C1B73867  38.325  34.828   6.450
10256POPC   C2B73868  38.321  34.793   6.750
10256POPC   C3B73869  38.394  34.820   7.050
10256POPC   C4B73870  38.308  34.792   7.350
10257POPC   NC373871  26.801  14.360   5.550
10257POPC   PO473872  26.842  14.417   5.850
10257POPC   GL173873  26.802  14.433   6.150
10257POPC   GL273874  26.862  14.338   6.150
10257POPC   C1A73875  26.827  14.422   6.450
10257POPC   D2A73876  26.786  14.408   6.750
10257POPC   C3A73877  26.774  14.406   7.050
10257POPC   C4A73878  26.807  14.442   7.350
10257POPC   C1B73879  26.951  14.225   6.450
10257POPC   C2B73880  26.903  14.189   6.750
10257POPC   C3B73881  26.903  14.150   7.050
10257POPC   C4B73882  26.968  14.227   7.350
10258POPC   NC373883  26.822   4.299   5.550
10258POPC   PO473884  26.863   4.335   5.850
10258POPC   GL173885  26.848   4.278   6.150
10258POPC   GL273886  26.680   4.283   6.150
10258POPC   C1A73887  26.841   4.356   6.450
10258POPC   D2A73888  26.809   4.335   6.750
10258POPC   C3A73889  26.777   4.306   7.050
10258POPC   C4A73890  26.835   4.293   7.350
10258POPC   C1B73891  26.592   4.213   6.450
10258POPC   C2B73892  26.599   4.184   6.750
10258POPC   C3B73893  26.537   4.234   7.050
10258POPC   C4B73894  26.543   4.221   7.350
10259POPC   NC373895  21.415  19.860   5.550
10259POPC   PO473896  21.379  19.880   5.850
10259POPC   GL173897  21.348  19.795   6.150
10259POPC   GL273898  21.442  19.963   6.150
10259POPC   C1A73899  21.373  19.818   6.450
10259POPC   D2A73900  21.378  19.876   6.750
10259POPC   C3A73901  21.423  19.880   7.050
10259POPC   C4A73902  21.363  19.861   7.350
10259POPC   C1B73903  21.411  20.082   6.450
10259POPC   C2B73904  21.456  20.087   6.750
10259POPC   C3B73905  21.419  20.102   7.050
10259POPC   C4B73906  21.449  20.080   7.350
10260POPC   NC373907  39.280  15.222   5.550
10260POPC   PO473908  39.188  15.176   5.850
10260POPC   GL173909  39.262  15.204   6.150
10260POPC   GL273910  39.250  15.329   6.150
10260POPC   C1A73911  39.200  15.207   6.450
10260POPC   D2A73912  39.207  15.158   6.750
10260POPC   C3A73913  39.255  15.151   7.050
10260POPC   C4A73914  39.274  15.192   7.350
10260POPC   C1B73915  39.224  15.422   6.450
10260POPC   C2B73916  39.263  15.421   6.750
10260POPC   C3B73917  39.306  15.410   7.050
10260POPC   C4B73918  39.214  15.384   7.350
10261POPC   NC373919  13.590  25.250   5.550
10261POPC   PO473920  13.640  25.294   5.850
10261POPC   GL173921  13.579  25.298   6.150
10261POPC   GL273922  13.736  25.209   6.150
10261POPC   C1A73923  13.641  25.291   6.450
10261POPC   D2A73924  13.620  25.230   6.750
10261POPC   C3A73925  13.650  25.287   7.050
10261POPC   C4A73926  13.591  25.243   7.350
10261POPC   C1B73927  13.795  25.114   6.450
10261POPC   C2B73928  13.796  25.131   6.750
10261POPC   C3B73929  13.820  25.155   7.050
10261POPC   C4B73930  13.879  25.109   7.350
10262POPC   NC373931  25.291  26.783   5.550
10262POPC   PO473932  25.284  26.866   5.850
10262POPC   GL173933  25.248  26.795   6.150
10262POPC   GL273934  25.251  26.931   6.150
10262POPC   C1A73935  25.276  26.824   6.450
10262POPC   D2A73936  25.220  26.835   6.750
10262POPC   C3A73937  25.279  26.848   7.050
10262POPC   C4A73938  25.286  26.777   7.350
10262POPC   C1B73939  25.177  27.070   6.450
10262POPC   C2B73940  25.187  27.041   6.750
10262POPC   C3B73941  25.219  27.033   7.050
10262POPC   C4B73942  25.235  27.066   7.350
10263POPC   NC373943  32.244  42.287   5.550
10263POPC   PO473944  32.278  42.330   5.850
10263POPC   GL173945  32.270  42.327   6.150
10263POPC   GL273946  32.303  42.507   6.150
10263POPC   C1A73947  32.292  42.358   6.450
10263POPC   D2A73948  32.240  42.289   6.750
10263POPC   C3A73949  32.232  42.306   7.050
10263POPC   C4A73950  32.286  42.359   7.350
10263POPC   C1B73951  32.277  42.546   6.450
10263POPC   C2B73952  32.236  42.603   6.750
10263POPC   C3B73953  32.285  42.557   7.050
10263POPC   C4B73954  32.261  42.624   7.350
10264POPC   NC373955  33.819  33.786   5.550
10264POPC   PO473956  33.821  33.822   5.850
10264POPC   GL173957  33.797  33.808   6.150
10264POPC   GL273958  33.850  33.710   6.150
10264POPC   C1A73959  33.818  33.848   6.450
10264POPC   D2A73960  33.815  33.838   6.750
10264POPC   C3A73961  33.822  33.834   7.050
10264POPC   C4A73962  33.828  33.797   7.350
10264POPC   C1B73963  33.914  33.554   6.450
10264POPC   C2B73964  33.924  33.526   6.750
10264POPC   C3B73965  33.915  33.516   7.050
10264POPC   C4B73966  33.857  33.612   7.350
10265POPC   NC373967  40.041  23.697   5.550
10265POPC   PO473968  40.018  23.676   5.850
10265POPC   GL173969  39.991  23.710   6.150
10265POPC   GL273970  40.034  23.871   6.150
10265POPC   C1A73971  39.983  23.698   6.450
10265POPC   D2A73972  40.009  23.688   6.750
10265POPC   C3A73973  39.992  23.670   7.050
10265POPC   C4A73974  40.006  23.667   7.350
10265POPC   C1B73975  40.045  23.991   6.450
10265POPC   C2B73976  40.045  23.921   6.750
10265POPC   C3B73977  40.025  23.919   7.050
10265POPC   C4B73978  40.070  23.972   7.350
10266POPC   NC373979  22.987  13.634   5.550
10266POPC   PO473980  22.973  13.644   5.850
10266POPC   GL173981  22.960  13.652   6.150
10266POPC   GL273982  22.995  13.546   6.150
10266POPC   C1A73983  22.955  13.618   6.450
10266POPC   D2A73984  22.949  13.642   6.750
10266POPC   C3A73985  22.899  13.619   7.050
10266POPC   C4A73986  22.907  13.651   7.350
10266POPC   C1B73987  23.144  13.472   6.450
10266POPC   C2B73988  23.103  13.476   6.750
10266POPC   C3B73989  23.119  13.437   7.050
10266POPC   C4B73990  23.080  13.431   7.350
10267POPC   NC373991  36.882  15.957   5.550
10267POPC   PO473992  36.875  15.973   5.850
10267POPC   GL173993  36.949  15.941   6.150
10267POPC   GL273994  36.862  16.068   6.150
10267POPC   C1A73995  36.946  15.989   6.450
10267POPC   D2A73996  36.894  15.995   6.750
10267POPC   C3A73997  36.863  15.932   7.050
10267POPC   C4A73998  36.859  15.973   7.350
10267POPC   C1B73999  36.807  16.156   6.450
10267POPC   C2B74000  36.809  16.175   6.750
10267POPC   C3B74001  36.772  16.215   7.050
10267POPC   C4B74002  36.776  16.151   7.350
10268POPC   NC374003  13.604  39.214   5.550
10268POPC   PO474004  13.667  39.231   5.850
10268POPC   GL174005  13.649  39.271   6.150
10268POPC   GL274006  13.602  39.112   6.150
10268POPC   C1A74007  13.645  39.191   6.450
10268POPC   D2A74008  13.630  39.230   6.750
10268POPC   C3A74009  13.645  39.203   7.050
10268POPC   C4A74010  13.656  39.203   7.350
10268POPC   C1B74011  13.483  39.027   6.450
10268POPC   C2B74012  13.524  39.038   6.750
10268POPC   C3B74013  13.462  38.979   7.050
10268POPC   C4B74014  13.503  39.055   7.350
10269POPC   NC374015  15.213   2.763   5.550
10269POPC   PO474016  15.154   2.748   5.850
10269POPC   GL174017  15.204   2.801   6.150
10269POPC   GL274018  15.182   2.911   6.150
10269POPC   C1A74019  15.227   2.798   6.450
10269POPC   D2A74020  15.170   2.797   6.750
10269POPC   C3A74021  15.204   2.739   7.050
10269POPC   C4A74022  15.190   2.718   7.350
10269POPC   C1B74023  15.143   3.061   6.450
10269POPC   C2B74024  15.192   3.046   6.750
10269POPC   C3B74025  15.157   3.042   7.050
10269POPC   C4B74026  15.150   2.986   7.350
10270POPC   NC374027  12.841  23.715   5.550
10270POPC   PO474028  12.812  23.694   5.850
10270POPC   GL174029  12.872  23.705   6.150
10270POPC   GL274030  12.889  23.802   6.150
10270POPC   C1A74031  12.901  23.669   6.450
10270POPC   D2A74032  12.815  23.699   6.750
10270POPC   C3A74033  12.864  23.735   7.050
10270POPC   C4A74034  12.862  23.671   7.350
10270POPC   C1B74035  12.908  23.983   6.450
10270POPC   C2B74036  12.883  23.984   6.750
10270POPC   C3B74037  12.878  23.923   7.050
10270POPC   C4B74038  12.888  23.940   7.350
10271POPC   NC374039   0.458  14.381   5.550
10271POPC   PO474040   0.415  14.444   5.850
10271POPC   GL174041   0.411  14.355   6.150
10271POPC   GL274042   0.276  14.319   6.150
10271POPC   C1A74043   0.432  14.424   6.450
10271POPC   D2A74044   0.395  14.433   6.750
10271POPC   C3A74045   0.433  14.447   7.050
10271POPC   C4A74046   0.482  14.452   7.350
10271POPC   C1B74047   0.204  14.348   6.450
10271POPC   C2B74048   0.223  14.343   6.750
10271POPC   C3B74049   0.185  14.321   7.050
10271POPC   C4B74050   0.224  14.373   7.350
10272POPC   NC374051  15.940  27.614   5.550
10272POPC   PO474052  15.933  27.613   5.850
10272POPC   GL174053  15.949  27.604   6.150
10272POPC   GL274054  16.063  27.449   6.150
10272POPC   C1A74055  15.972  27.634   6.450
10272POPC   D2A74056  15.934  27.569   6.750
10272POPC   C3A74057  15.928  27.642   7.050
10272POPC   C4A74058  15.945  27.632   7.350
10272POPC   C1B74059  16.070  27.439   6.450
10272POPC   C2B74060  16.063  27.369   6.750
10272POPC   C3B74061  16.106  27.386   7.050
10272POPC   C4B74062  16.127  27.363   7.350
10273POPC   NC374063  38.467   3.564   5.550
10273POPC   PO474064  38.414   3.532   5.850
10273POPC   GL174065  38.463   3.537   6.150
10273POPC   GL274066  38.577   3.488   6.150
10273POPC   C1A74067  38.478   3.590   6.450
10273POPC   D2A74068  38.409   3.513   6.750
10273POPC   C3A74069  38.500   3.531   7.050
10273POPC   C4A74070  38.422   3.497   7.350
10273POPC   C1B74071  38.608   3.351   6.450
10273POPC   C2B74072  38.626   3.415   6.750
10273POPC   C3B74073  38.672   3.330   7.050
10273POPC   C4B74074  38.605   3.379   7.350
10274POPC   NC374075  40.759  24.520   5.550
10274POPC   PO474076  40.762  24.538   5.850
10274POPC   GL174077  40.795  24.470   6.150
10274POPC   GL274078  40.800  24.611   6.150
10274POPC   C1A74079  40.775  24.539   6.450
10274POPC   D2A74080  40.752  24.476   6.750
10274POPC   C3A74081  40.738  24.446   7.050
10274POPC   C4A74082  40.792  24.485   7.350
10274POPC   C1B74083  40.850  24.733   6.450
10274POPC   C2B74084  40.816  24.684   6.750
10274POPC   C3B74085  40.905  24.725   7.050
10274POPC   C4B74086  40.841  24.716   7.350
10275POPC   NC374087  40.029  20.561   5.550
10275POPC   PO474088  40.056  20.618   5.850
10275POPC   GL174089  40.006  20.658   6.150
10275POPC   GL274090  40.050  20.656   6.150
10275POPC   C1A74091  39.960  20.654   6.450
10275POPC   D2A74092  39.990  20.568   6.750
10275POPC   C3A74093  39.981  20.644   7.050
10275POPC   C4A74094  40.010  20.590   7.350
10275POPC   C1B74095  40.167  20.829   6.450
10275POPC   C2B74096  40.138  20.791   6.750
10275POPC   C3B74097  40.206  20.783   7.050
10275POPC   C4B74098  40.184  20.756   7.350
10276POPC   NC374099  36.892   4.310   5.550
10276POPC   PO474100  36.941   4.318   5.850
10276POPC   GL174101  36.899   4.308   6.150
10276POPC   GL274102  36.757   4.300   6.150
10276POPC   C1A74103  36.891   4.327   6.450
10276POPC   D2A74104  36.884   4.275   6.750
10276POPC   C3A74105  36.952   4.337   7.050
10276POPC   C4A74106  36.947   4.292   7.350
10276POPC   C1B74107  36.674   4.173   6.450
10276POPC   C2B74108  36.702   4.168   6.750
10276POPC   C3B74109  36.638   4.172   7.050
10276POPC   C4B74110  36.698   4.189   7.350
10277POPC   NC374111  36.147   9.701   5.550
10277POPC   PO474112  36.146   9.699   5.850
10277POPC   GL174113  36.135   9.725   6.150
10277POPC   GL274114  36.083   9.655   6.150
10277POPC   C1A74115  36.122   9.700   6.450
10277POPC   D2A74116  36.093   9.727   6.750
10277POPC   C3A74117  36.090   9.772   7.050
10277POPC   C4A74118  36.163   9.756   7.350
10277POPC   C1B74119  36.141   9.503   6.450
10277POPC   C2B74120  36.115   9.523   6.750
10277POPC   C3B74121  36.158   9.470   7.050
10277POPC   C4B74122  36.090   9.520   7.350
10278POPC   NC374123  14.359  38.431   5.550
10278POPC   PO474124  14.414  38.469   5.850
10278POPC   GL174125  14.405  38.432   6.150
10278POPC   GL274126  14.295  38.311   6.150
10278POPC   C1A74127  14.354  38.489   6.450
10278POPC   D2A74128  14.401  38.438   6.750
10278POPC   C3A74129  14.414  38.414   7.050
10278POPC   C4A74130  14.419  38.419   7.350
10278POPC   C1B74131  14.271  38.276   6.450
10278POPC   C2B74132  14.215  38.216   6.750
10278POPC   C3B74133  14.201  38.273   7.050
10278POPC   C4B74134  14.216  38.229   7.350
10279POPC   NC374135   5.864  36.135   5.550
10279POPC   PO474136   5.891  36.160   5.850
10279POPC   GL174137   5.917  36.086   6.150
10279POPC   GL274138   5.889  36.272   6.150
10279POPC   C1A74139   5.885  36.125   6.450
10279POPC   D2A74140   5.860  36.098   6.750
10279POPC   C3A74141   5.889  36.100   7.050
10279POPC   C4A74142   5.914  36.080   7.350
10279POPC   C1B74143   6.015  36.398   6.450
10279POPC   C2B74144   5.995  36.404   6.750
10279POPC   C3B74145   5.920  36.401   7.050
10279POPC   C4B74146   5.983  36.367   7.350
10280POPC   NC374147  19.098  41.549   5.550
10280POPC   PO474148  19.039  41.586   5.850
10280POPC   GL174149  19.082  41.523   6.150
10280POPC   GL274150  18.936  41.495   6.150
10280POPC   C1A74151  19.025  41.523   6.450
10280POPC   D2A74152  19.084  41.543   6.750
10280POPC   C3A74153  19.010  41.526   7.050
10280POPC   C4A74154  19.027  41.522   7.350
10280POPC   C1B74155  18.761  41.482   6.450
10280POPC   C2B74156  18.828  41.528   6.750
10280POPC   C3B74157  18.841  41.531   7.050
10280POPC   C4B74158  18.791  41.538   7.350
10281POPC   NC374159  42.287  10.534   5.550
10281POPC   PO474160  42.370  10.530   5.850
10281POPC   GL174161  42.340  10.539   6.150
10281POPC   GL274162  42.337  10.661   6.150
10281POPC   C1A74163  42.331  10.498   6.450
10281POPC   D2A74164  42.384  10.544   6.750
10281POPC   C3A74165  42.323  10.481   7.050
10281POPC   C4A74166  42.354  10.518   7.350
10281POPC   C1B74167  42.330  10.757   6.450
10281POPC   C2B74168  42.313  10.752   6.750
10281POPC   C3B74169  42.265  10.803   7.050
10281POPC   C4B74170  42.257  10.779   7.350
10282POPC   NC374171   2.764  33.012   5.550
10282POPC   PO474172   2.728  33.071   5.850
10282POPC   GL174173   2.781  33.021   6.150
10282POPC   GL274174   2.830  33.134   6.150
10282POPC   C1A74175   2.721  33.042   6.450
10282POPC   D2A74176   2.750  32.989   6.750
10282POPC   C3A74177   2.795  33.033   7.050
10282POPC   C4A74178   2.742  33.018   7.350
10282POPC   C1B74179   2.991  33.193   6.450
10282POPC   C2B74180   2.926  33.198   6.750
10282POPC   C3B74181   2.955  33.180   7.050
10282POPC   C4B74182   3.011  33.149   7.350
10283POPC   NC374183  35.372  32.273   5.550
10283POPC   PO474184  35.382  32.207   5.850
10283POPC   GL174185  35.342  32.228   6.150
10283POPC   GL274186  35.259  32.250   6.150
10283POPC   C1A74187  35.307  32.208   6.450
10283POPC   D2A74188  35.370  32.249   6.750
10283POPC   C3A74189  35.371  32.203   7.050
10283POPC   C4A74190  35.345  32.264   7.350
10283POPC   C1B74191  35.116  32.198   6.450
10283POPC   C2B74192  35.088  32.147   6.750
10283POPC   C3B74193  35.135  32.194   7.050
10283POPC   C4B74194  35.063  32.235   7.350
10284POPC   NC374195   2.733  41.562   5.550
10284POPC   PO474196   2.736  41.581   5.850
10284POPC   GL174197   2.756  41.588   6.150
10284POPC   GL274198   2.859  41.480   6.150
10284POPC   C1A74199   2.748  41.591   6.450
10284POPC   D2A74200   2.745  41.575   6.750
10284POPC   C3A74201   2.729  41.574   7.050
10284POPC   C4A74202   2.780  41.579   7.350
10284POPC   C1B74203   2.897  41.364   6.450
10284POPC   C2B74204   2.871  41.346   6.750
10284POPC   C3B74205   2.917  41.301   7.050
10284POPC   C4B74206   2.903  41.307   7.350
10285POPC   NC374207  40.797  19.073   5.550
10285POPC   PO474208  40.815  19.064   5.850
10285POPC   GL174209  40.781  19.044   6.150
10285POPC   GL274210  40.684  19.068   6.150
10285POPC   C1A74211  40.790  19.108   6.450
10285POPC   D2A74212  40.753  19.105   6.750
10285POPC   C3A74213  40.745  19.099   7.050
10285POPC   C4A74214  40.815  19.026   7.350
10285POPC   C1B74215  40.501  19.143   6.450
10285POPC   C2B74216  40.534  19.165   6.750
10285POPC   C3B74217  40.526  19.076   7.050
10285POPC   C4B74218  40.509  19.100   7.350
10286W        W74219  35.372  43.977   4.318
10287W        W74220  29.634  33.387  14.400
10288W        W74221  27.452  21.558   2.364
10289W        W74222   6.716  13.168   3.729
10290W        W74223   1.886  40.022  14.933
10291W        W74224  12.182  38.473  10.451
10292W        W74225  28.657  29.073   1.213
10293W        W74226  16.092  42.371   3.320
10294W        W74227  28.440  26.631   4.744
10295W        W74228  34.969  14.657  13.001
10296W        W74229  32.497   0.775  10.938
10297W        W74230   2.841  18.586   3.820
10298W        W74231  23.531  31.939   4.787
10299W        W74232  13.838  18.052   3.729
10300W        W74233   5.203  27.552  10.638
10301W        W74234   1.796  31.920  13.982
10302W        W74235   5.403   3.252   1.934
10303W        W74236  15.151  19.221  13.971
10304W        W74237   5.747  31.069   3.773
10305W        W74238   6.910  39.939   0.318
10306W        W74239  36.542   0.932   2.710
10307W        W74240  13.118  44.391  10.567
10308W        W74241  26.579  11.208  14.300
10309W        W74242  40.978  39.017   2.384
10310W        W74243  44.914  43.487  12.339
10311W        W74244  30.006   8.201   4.733
10312W        W74245  28.042  42.791   5.141
10313W        W74246  19.220  42.383  12.410
10314W        W74247   7.275  34.082   0.320
10315W        W74248  43.501  17.758   1.772
10316W        W74249  11.357  16.754   4.706
10317W        W74250  41.978  41.887  12.081
10318W        W74251  31.477  37.957  14.018
10319W        W74252  25.123  33.069  10.943
10320W        W74253  16.578  41.308  12.425
10321W        W74254  13.668  31.123  14.840
10322W        W74255  30.950  44.961   1.253
10323W        W74256   5.331  16.616   9.671
10324W        W74257  31.418   6.289   1.839
10325W        W74258  17.205  44.449  10.953
10326W        W74259   7.750  13.340   4.738
10327W        W74260   0.442  38.506  14.292
10328W        W74261   9.394   5.691  14.840
10329W        W74262   7.399  17.756  11.104
10330W        W74263  39.058  17.287  12.415
10331W        W74264  15.790   5.714  11.610
10332W        W74265  17.782  10.647   0.275
10333W        W74266  28.639  35.024  12.532
10334W        W74267  33.917  35.945  11.590
10335W        W74268  12.265  39.904   4.802
10336W        W74269   6.288   5.315   2.859
10337W        W74270  32.572  14.152   2.737
10338W        W74271  38.518  41.917  13.870
10339W        W74272  10.384  10.299  11.569
10340W        W74273  15.277   6.893  11.083
10341W        W74274   5.437  38.345  12.861
10342W        W74275  30.420  15.261   4.329
10343W        W74276  28.438   6.315   3.292
10344W        W74277  43.459  32.630  10.971
10345W        W74278  31.055  26.178  13.039
10346W        W74279  17.193   0.881   3.771
10347W        W74280   0.820   8.663   2.371
10348W        W74281  26.964  16.261   1.702
10349W        W74282  31.520  42.981  10.410
10350W        W74283  20.176  40.303  14.421
10351W        W74284  16.669   3.915   2.264
10352W        W74285  35.494  11.145   2.728
10353W        W74286  26.576  36.074  10.482
10354W        W74287  34.893  31.081   2.197
10355W        W74288   6.747  42.433  13.335
10356W        W74289  40.838  44.303  11.589
10357W        W74290  42.858  32.512   3.297
10358W        W74291  35.542  34.428  13.404
10359W        W74292  19.126  11.373  14.010
10360W        W74293  36.031  10.823   0.479
10361W        W74294  21.568  10.138  14.950
10362W        W74295  35.513  28.494   2.810
10363W        W74296  36.024  41.316  11.516
10364W        W74297   7.785  40.419  14.401
10365W        W74298   1.341  21.089  12.459
10366W        W74299   9.654  13.238   4.238
10367W        W74300  20.669  23.627   3.665
10368W        W74301  32.954   0.925   0.767
10369W        W74302  30.597   4.414  12.831
10370W        W74303   0.382  15.779   3.656
10371W        W74304  10.675  27.964  10.432
10372W        W74305  17.183   3.366  11.040
10373W        W74306  14.093  43.487   5.119
10374W        W74307  20.672  17.307   1.858
10375W        W74308  36.847  38.488  12.966
10376W        W74309  14.779  37.498   0.797
10377W        W74310  35.571  23.004  13.522
10378W        W74311  19.693   4.759   1.217
10379W        W74312  38.949  14.186  11.610
10380W        W74313   0.780   8.869  12.882
10381W        W74314  40.369  28.566   4.165
10382W        W74315   9.212  38.980  14.500
10383W        W74316  40.039  17.230   3.716
10384W        W74317  32.469  23.629   4.608
10385W        W74318  27.496   8.771  12.546
10386W        W74319  30.152  28.679   3.210
10387W        W74320  27.677  17.636   0.404
10388W        W74321  31.081  10.636  12.845
10389W        W74322   2.776   2.805  10.407
10390W        W74323   2.747  23.021   3.306
10391W        W74324  10.189  44.995  13.841
10392W        W74325   8.750  18.097  14.328
10393W        W74326  27.067  18.124   2.729
10394W        W74327   1.837  16.569  13.792
10395W        W74328  20.647  25.471  13.484
10396W        W74329   0.836  37.920   0.335
10397W        W74330   3.772   7.382  10.605
10398W        W74331   0.305  33.533  10.901
10399W        W74332  25.054  20.764   1.348
10400W        W74333  18.169   7.693   3.170
10401W        W74334  13.615   1.965  13.462
10402W        W74335  30.440  25.648   0.819
10403W        W74336  42.483  10.856  13.860
10404W        W74337  29.591  19.093   0.424
10405W        W74338  41.531  15.300  12.095
10406W        W74339   4.877  20.210  14.418
10407W        W74340  22.039  43.922   0.302
10408W        W74341  22.059  21.214   5.100
10409W        W74342  32.964  20.584  11.128
10410W        W74343  22.025  36.918  14.345
10411W        W74344  19.763  34.600  12.467
10412W        W74345  43.491  35.928  11.978
10413W        W74346  41.389   8.798   4.119
10414W        W74347  34.487  13.686  14.414
10415W        W74348  30.577  17.779   3.736
10416W        W74349  17.242   8.735   2.304
10417W        W74350  40.889  25.678  14.860
10418W        W74351  18.685  35.866   2.874
10419W        W74352  39.377  39.899   1.760
10420W        W74353  38.346  37.422   4.623
10421W        W74354  42.446  21.532   0.270
10422W        W74355  24.225  31.501   3.683
10423W        W74356   0.807  12.151  11.925
10424W        W74357  23.182  41.306  14.470
10425W        W74358  24.724   9.692   3.678
10426W        W74359   8.685  17.108   0.320
10427W        W74360  44.910   4.350  14.935
10428W        W74361   0.283  28.614   2.376
10429W        W74362  31.544   5.203   0.459
10430W        W74363  38.024   8.668  11.063
10431W        W74364  27.960  38.519  14.924
10432W        W74365   6.851  23.149   2.708
10433W        W74366  42.436  26.027   0.363
10434W        W74367  32.514  44.496  13.025
10435W        W74368  41.006   5.885   2.845
10436W        W74369   0.978  11.634   5.172
10437W        W74370  44.993  32.132   2.725
10438W        W74371   9.156  34.468  14.971
10439W        W74372  21.695  34.941  10.024
10440W        W74373   6.428  13.652  11.062
10441W        W74374   0.753   6.876  10.965
10442W        W74375  27.058  30.126   3.345
10443W        W74376   3.309   7.369  12.427
10444W        W74377   4.931  39.909   4.327
10445W        W74378  13.753  22.565   1.414
10446W        W74379   1.973  41.996  11.555
10447W        W74380  29.935  15.645  10.125
10448W        W74381  40.850  23.552   4.746
10449W        W74382  31.510   5.707   3.690
10450W        W74383  42.958  25.648   2.197
10451W        W74384  27.067  10.138   4.602
10452W        W74385  11.170  31.904  12.013
10453W        W74386   8.803  40.024  10.620
10454W        W74387  16.141  11.786   0.378
10455W        W74388  36.445  40.370   2.306
10456W        W74389  33.921   7.322  12.553
10457W        W74390  10.688  32.533   0.454
10458W        W74391  41.007   2.445  14.889
10459W        W74392   1.856  15.720   0.882
10460W        W74393  13.797  18.236   0.954
10461W        W74394  19.775  28.577  14.336
10462W        W74395   7.222  37.377  12.852
10463W        W74396  24.993  36.571  11.524
10464W        W74397  26.677   0.309   0.772
10465W        W74398  17.232  19.727   2.399
10466W        W74399  20.594  20.041   1.790
10467W        W74400   2.341   9.822   0.285
10468W        W74401  14.742  35.596   0.892
10469W        W74402  20.031  21.605  14.979
10470W        W74403  39.885  41.410   0.912
10471W        W74404  38.449  28.145   0.871
10472W        W74405  33.521  12.753  12.343
10473W        W74406  41.818  44.901   3.349
10474W        W74407   7.854   1.332   4.813
10475W        W74408   5.803   6.851   5.671
10476W        W74409   5.849  22.640   0.252
10477W        W74410  36.551   3.360   2.410
10478W        W74411   8.746   8.239   2.754
10479W        W74412  35.533  12.767   3.820
10480W        W74413  12.294  29.094  14.874
10481W        W74414  10.380  23.549   5.292
10482W        W74415  43.455  14.129   4.196
10483W        W74416  18.623  38.425  13.855
10484W        W74417  30.569  36.873  12.014
10485W        W74418   0.265  14.330   0.889
10486W        W74419  16.791  39.384   5.093
10487W        W74420  14.790  25.160  11.452
10488W        W74421  33.559  18.627   4.250
10489W        W74422  30.597  26.685   1.758
10490W        W74423  19.134  23.527  13.060
10491W        W74424  43.291  14.833   2.864
10492W        W74425   5.396  37.036  13.411
10493W        W74426  11.177  22.631  10.946
10494W        W74427  28.606  30.520  13.346
10495W        W74428  43.841   2.774  14.442
10496W        W74429   8.179   8.718   2.416
10497W        W74430  14.759   7.369   1.765
10498W        W74431  41.023  14.676   1.399
10499W        W74432  34.473  43.432   2.184
10500W        W74433  26.685   5.860  11.991
10501W        W74434   6.206  15.700   1.839
10502W        W74435   4.352   6.350  11.576
10503W        W74436  13.760  28.522  10.425
10504W        W74437  26.193  34.025   3.737
10505W        W74438  29.639   3.377   4.127
10506W        W74439  22.690  44.436   0.337
10507W        W74440  16.189  24.204   3.383
10508W        W74441   3.326   8.294  13.842
10509W        W74442  44.951  18.695  11.110
10510W        W74443  40.366  20.132   1.358
10511W        W74444  39.436  38.387  10.898
10512W        W74445  12.619  10.152  12.967
10513W        W74446  20.523   5.299   3.828
10514W        W74447   7.315  10.272   3.225
10515W        W74448  29.613  38.057   0.802
10516W        W74449  29.625  44.436  11.607
10517W        W74450  24.658  20.135  13.034
10518W        W74451   0.271   3.442  10.439
10519W        W74452  19.183  36.505  14.888
10520W        W74453   9.255  43.456  12.349
10521W        W74454  10.383  19.722  11.396
10522W        W74455  24.655  29.026   1.403
10523W        W74456   8.233  44.804  14.996
10524W        W74457   0.836  22.733  12.930
10525W        W74458  13.692   7.866   3.182
10526W        W74459  15.127  33.544   3.157
10527W        W74460  12.331  13.163   1.733
10528W        W74461  24.586  43.900   9.506
10529W        W74462   0.983  21.738  13.816
10530W        W74463   6.809   0.333   2.251
10531W        W74464  41.837   9.192   4.320
10532W        W74465  34.427  30.134  14.933
10533W        W74466  18.163  18.198   4.727
10534W        W74467  35.032  27.003  14.880
10535W        W74468  22.042  43.440   1.879
10536W        W74469   0.981  42.028   0.801
10537W        W74470  12.677  26.114   3.237
10538W        W74471  33.972  15.593   4.322
10539W        W74472  43.506  34.092  12.357
10540W        W74473   3.932  36.953   1.859
10541W        W74474  16.185  33.982   0.824
10542W        W74475  41.933  13.278  13.539
10543W        W74476  21.600  11.746  14.982
10544W        W74477  35.522  33.980  14.875
10545W        W74478  36.475   0.290   3.630
10546W        W74479  31.050  38.045   1.391
10547W        W74480  26.149  22.526  10.629
10548W        W74481  21.747  27.018   0.481
10549W        W74482  39.422  11.679   3.704
10550W        W74483  35.981  22.105  13.897
10551W        W74484  15.716   3.282   5.177
10552W        W74485  36.984   7.871   0.855
10553W        W74486   1.789  16.155   2.404
10554W        W74487  40.494  27.025  11.924
10555W        W74488  22.154  35.861  10.640
10556W        W74489   6.792  27.005   3.363
10557W        W74490   3.415  26.648  14.332
10558W        W74491   3.218  28.031   1.330
10559W        W74492  18.060  21.704  14.857
10560W        W74493  38.505  34.931   0.749
10561W        W74494  25.098  44.496  13.492
10562W        W74495  44.379  29.470   3.691
10563W        W74496  14.588  19.566   4.615
10564W        W74497  41.491   1.745   0.243
10565W        W74498  39.834  44.448   3.202
10566W        W74499  30.120  11.189  14.434
10567W        W74500   5.867   8.271  12.501
10568W        W74501  42.406  42.294   3.833
10569W        W74502  28.131  31.446  10.471
10570W        W74503   5.812  14.205   1.797
10571W        W74504  39.342  19.187   3.709
10572W        W74505  39.896   8.735   2.685
10573W        W74506  41.895  15.157  10.538
10574W        W74507   0.932  43.785   2.230
10575W        W74508  43.881  15.661  11.880
10576W        W74509   2.320  10.861  11.477
10577W        W74510  19.685  32.095  11.473
10578W        W74511   4.326  15.724  14.391
10579W        W74512  28.184  11.665  13.919
10580W        W74513   4.346  40.842   4.785
10581W        W74514  30.085  41.480   3.226
10582W        W74515  17.570  25.101  12.894
10583W        W74516  17.301   7.362  11.459
10584W        W74517   4.738  26.470  10.145
10585W        W74518   5.298  18.606   4.354
10586W        W74519   4.382  33.128   1.337
10587W        W74520   8.793   0.914   1.314
10588W        W74521  43.951  28.167   2.748
10589W        W74522  10.740  10.188  13.009
10590W        W74523   0.286  28.971  10.536
10591W        W74524  18.602  20.646  10.516
10592W        W74525  12.332   0.893   2.405
10593W        W74526  13.795  25.678   2.411
10594W        W74527  19.267  42.989   3.387
10595W        W74528  16.109  41.536   2.895
10596W        W74529   6.207   5.705  10.971
10597W        W74530  40.505   7.190   3.377
10598W        W74531  30.563  39.421  14.869
10599W        W74532  37.390  17.749   4.352
10600W        W74533  44.771  24.991   2.344
10601W        W74534  12.342   8.230   3.656
10602W        W74535   9.214  15.735   3.802
10603W        W74536  20.140  22.612   3.238
10604W        W74537   2.818  22.666  14.485
10605W        W74538  43.342  39.554  12.573
10606W        W74539  14.158   6.730  14.781
10607W        W74540   4.360  12.146  14.835
10608W        W74541  15.093  17.161   4.164
10609W        W74542  35.084  37.030  11.016
10610W        W74543  13.144  12.698  12.867
10611W        W74544  25.969  20.155   3.630
10612W        W74545   4.912   6.359   0.946
10613W        W74546   4.374   1.808   4.769
10614W        W74547  33.968  44.884   3.637
10615W        W74548   6.855  27.036  11.896
10616W        W74549  21.531  11.812  12.059
10617W        W74550  17.067  34.949  14.937
10618W        W74551  44.343   1.940   9.957
10619W        W74552  24.702  24.640  12.834
10620W        W74553   4.914   2.856  13.807
10621W        W74554  10.871  14.240  12.560
10622W        W74555  10.872  15.666  11.389
10623W        W74556   9.373   1.264  10.922
10624W        W74557   7.406  27.956   0.467
10625W        W74558  36.979  33.529   1.715
10626W        W74559   3.953  12.247  11.988
10627W        W74560  35.539  20.558   1.292
10628W        W74561  21.694  21.196   4.164
10629W        W74562  16.781  32.937   1.360
10630W        W74563   3.895  10.826  14.335
10631W        W74564  30.602  43.305  12.454
10632W        W74565  38.513  35.015   4.228
10633W        W74566  30.509  40.816  11.894
10634W        W74567   9.336   3.916  13.366
10635W        W74568  10.281   7.821   1.332
10636W        W74569  18.282  17.677   2.326
10637W        W74570   1.337  32.980  13.844
10638W        W74571   4.241  22.731   4.300
10639W        W74572   9.174  10.214  14.941
10640W        W74573  34.998   6.923   2.810
10641W        W74574   9.711  24.123   1.892
10642W        W74575  37.504   5.862  10.144
10643W        W74576  31.039   5.308  13.325
10644W        W74577  41.823  29.081   4.756
10645W        W74578  31.122  26.167  11.578
10646W        W74579   9.707   6.851   2.764
10647W        W74580  10.254   3.404   3.364
10648W        W74581  23.236  27.626  12.980
10649W        W74582   2.429   2.253   1.719
10650W        W74583  20.735   1.264  13.390
10651W        W74584  22.239  22.174  13.042
10652W        W74585  19.690  32.490   3.273
10653W        W74586   5.375   0.374   2.857
10654W        W74587   9.671   3.454   3.172
10655W        W74588  30.448  20.180   4.226
10656W        W74589  42.933  41.008  14.327
10657W        W74590  34.402  32.563  12.533
10658W        W74591   7.242  30.553   0.355
10659W        W74592   9.876  19.118   4.208
10660W        W74593   8.198  24.061  11.409
10661W        W74594  31.486  23.684   0.441
10662W        W74595   7.697   9.199  12.984
10663W        W74596  20.556  34.523  12.888
10664W        W74597  41.968  17.744   2.664
10665W        W74598  38.897  25.591  11.119
10666W        W74599   3.299  20.616   2.829
10667W        W74600   2.940  19.123   2.336
10668W        W74601  28.548  13.313   4.136
10669W        W74602  11.374  32.989   0.781
10670W        W74603  18.671   5.376  14.371
10671W        W74604   8.784  37.929  11.528
10672W        W74605  43.393  36.527  10.916
10673W        W74606  43.980  14.303  14.888
10674W        W74607  32.094  12.773  14.010
10675W        W74608  11.691  28.638  12.389
10676W        W74609   1.434  22.230  11.894
10677W        W74610   2.890  13.712  11.866
10678W        W74611  38.931  23.999   1.889
10679W        W74612  23.179  33.423  11.557
10680W        W74613  28.094  18.585   1.237
10681W        W74614  10.279   3.227   4.758
10682W        W74615  17.228  24.549  12.832
10683W        W74616   9.797  34.117   0.397
10684W        W74617  37.996   0.743  13.947
10685W        W74618  25.046  41.421   1.837
10686W        W74619  26.533  15.269   2.218
10687W        W74620   9.714   8.283   0.439
10688W        W74621  39.826  19.624   1.230
10689W        W74622  11.276  11.781   0.250
10690W        W74623  11.730  27.649  13.851
10691W        W74624  40.024  29.489   1.246
10692W        W74625  16.784  26.110  12.928
10693W        W74626   6.804  11.140  13.801
10694W        W74627  11.640  42.843   2.309
10695W        W74628  39.480  16.175   4.298
10696W        W74629  34.967  34.468   0.738
10697W        W74630  17.738  10.171  10.576
10698W        W74631  44.319  31.931   1.295
10699W        W74632  14.799   4.335   5.302
10700W        W74633  33.521  42.445   4.184
10701W        W74634   1.450  12.710   3.303
10702W        W74635  26.546  32.030  11.601
10703W        W74636  21.518  18.144  11.414
10704W        W74637  34.944  24.532  12.420
10705W        W74638  30.160  12.832   0.835
10706W        W74639   9.836  25.626  10.061
10707W        W74640  18.154  40.036  13.879
10708W        W74641  43.012  43.293   3.146
10709W        W74642  12.797   3.753   0.419
10710W        W74643  19.040   7.728   4.623
10711W        W74644  10.359  18.253  10.022
10712W        W74645   9.857  15.171   0.961
10713W        W74646  14.807  13.169   4.713
10714W        W74647  38.516  35.970  11.578
10715W        W74648  24.167  33.049  11.104
10716W        W74649  20.106  14.664  14.860
10717W        W74650  16.623  27.079   4.807
10718W        W74651  44.483   7.315  10.459
10719W        W74652   7.716  40.428  11.976
10720W        W74653  23.730  32.095  11.446
10721W        W74654  44.834  16.813  12.412
10722W        W74655  43.298  21.626  12.994
10723W        W74656   1.847  13.623   3.831
10724W        W74657  28.575  17.590   4.128
10725W        W74658  39.815  31.470   1.802
10726W        W74659  27.118  25.643  13.363
10727W        W74660  42.511   7.209   0.366
10728W        W74661  16.743  15.644  12.345
10729W        W74662  15.753  25.548   0.834
10730W        W74663  26.997  33.527   4.647
10731W        W74664  35.373   1.461  13.958
10732W        W74665  33.462  29.932  14.001
10733W        W74666  30.510  16.273  10.614
10734W        W74667  18.569  35.946  13.889
10735W        W74668   9.750  38.940  14.371
10736W        W74669  16.592  33.603  10.467
10737W        W74670  44.310  31.049   4.781
10738W        W74671  18.082  26.514  14.398
10739W        W74672   0.851  42.526  10.997
10740W        W74673   0.882   4.741   0.920
10741W        W74674  37.348  29.620  11.864
10742W        W74675  24.088  36.974  11.458
10743W        W74676  36.535  22.610  11.428
10744W        W74677  14.100  16.317  14.466
10745W        W74678   4.743  19.763   1.334
10746W        W74679   4.837  17.180   0.401
10747W        W74680  37.435   4.840   3.650
10748W        W74681  25.129  35.516  14.392
10749W        W74682  36.096  38.405   2.783
10750W        W74683  29.610   6.423  11.529
10751W        W74684  14.123   7.351  14.329
10752W        W74685  42.797  20.240   3.704
10753W        W74686  12.707  12.701  11.568
10754W        W74687  21.245  34.418  10.560
10755W        W74688  38.506  22.614  14.386
10756W        W74689  37.853  12.779   4.752
10757W        W74690  43.965  27.628   0.470
10758W        W74691  39.544   1.842  14.804
10759W        W74692   4.790   5.688   2.867
10760W        W74693   9.677  33.516  10.458
10761W        W74694  40.361   5.777  14.943
10762W        W74695  31.554  25.010   3.354
10763W        W74696   3.294  11.334   5.141
10764W        W74697  21.213  28.498   4.168
10765W        W74698   1.456  17.711   2.760
10766W        W74699  21.257  25.178  11.023
10767W        W74700  15.324  35.562  12.079
10768W        W74701   3.393   7.886   0.428
10769W        W74702  28.128  39.416  12.490
10770W        W74703   8.243  41.376  11.944
10771W        W74704   6.350  23.071   0.449
10772W        W74705   0.256  23.649  11.095
10773W        W74706  27.481  23.523   1.443
10774W        W74707  12.760  12.270  14.281
10775W        W74708  25.170  37.858   3.351
10776W        W74709  11.690  41.857   3.271
10777W        W74710  27.133  17.606  11.602
10778W        W74711  43.344  31.962  14.851
10779W        W74712  27.506  40.377   4.323
10780W        W74713   3.329  18.774   1.315
10781W        W74714   9.664  39.441   2.372
10782W        W74715  34.016  27.505  11.922
10783W        W74716   2.844  36.488   3.262
10784W        W74717  28.646  31.038  14.795
10785W        W74718  37.926  15.693   2.291
10786W        W74719  44.334  26.500   4.350
10787W        W74720  40.958   1.816  11.886
10788W        W74721  10.655   7.360  13.913
10789W        W74722  37.458  36.366   4.693
10790W        W74723  24.140   8.229  10.622
10791W        W74724  20.236   7.295  13.829
10792W        W74725  11.198   3.756   2.888
10793W        W74726   5.902  44.303   2.740
10794W        W74727  40.973   4.437   2.333
10795W        W74728  19.627  24.165  12.906
10796W        W74729  34.044  28.975   3.192
10797W        W74730  25.469  38.524   0.885
10798W        W74731  43.984  22.216  12.979
10799W        W74732  10.711  27.125   0.265
10800W        W74733  21.185  35.452  10.570
10801W        W74734  44.435  37.909  12.440
10802W        W74735  11.772  19.580  14.477
10803W        W74736  22.731  28.087   3.252
10804W        W74737  14.697  37.523   2.245
10805W        W74738  35.363  22.189   3.656
10806W        W74739  14.779  33.439   2.370
10807W        W74740  13.702   5.215   2.251
10808W        W74741   8.216   0.322   3.756
10809W        W74742  33.419  29.140  11.441
10810W        W74743  41.807  24.120  13.973
10811W        W74744  36.046   2.269  10.629
10812W        W74745   1.447   5.818   3.638
10813W        W74746  29.518   7.832   1.352
10814W        W74747  11.281  27.961   1.714
10815W        W74748  17.765   5.787  11.455
10816W        W74749  35.993  32.114  12.509
10817W        W74750  25.986   2.396   2.306
10818W        W74751  21.212  24.031   3.871
10819W        W74752   5.849   4.936   5.257
10820W        W74753   6.802  12.177  13.944
10821W        W74754  23.624  27.054   1.267
10822W        W74755  13.273  13.337  13.953
10823W        W74756  14.320   3.446   2.850
10824W        W74757   1.887  26.607   3.167
10825W        W74758  10.320  43.993  13.059
10826W        W74759  15.293  31.955   1.919
10827W        W74760  40.441   5.434  14.297
10828W        W74761  42.283  27.007  12.083
10829W        W74762   2.954  40.333   4.696
10830W        W74763  33.491  27.000   0.453
10831W        W74764  28.940  17.271   3.669
10832W        W74765  41.302  32.033  12.434
10833W        W74766  33.518  33.480  11.539
10834W        W74767  17.254   1.342   0.755
10835W        W74768  39.426  38.498   3.750
10836W        W74769   5.874  35.017   4.604
10837W        W74770  34.945  19.626   2.190
10838W        W74771  18.788  44.951   1.430
10839W        W74772  18.144  23.999   4.245
10840W        W74773  40.911  24.547  12.418
10841W        W74774  36.006  28.064  10.620
10842W        W74775  14.815  22.738   0.929
10843W        W74776  12.330  24.109   2.882
10844W        W74777  43.422  30.989  13.009
10845W        W74778  11.164  11.215   4.208
10846W        W74779  11.365   7.303  13.354
10847W        W74780   0.795  40.503  14.903
10848W        W74781  18.639  29.581   2.360
10849W        W74782   9.339  34.939   1.930
10850W        W74783  23.517   1.732  13.518
10851W        W74784  36.964  20.061   3.188
10852W        W74785  37.557   8.700   4.265
10853W        W74786  12.754   4.293   2.359
10854W        W74787  25.097  21.652  11.108
10855W        W74788  32.447  20.206   3.689
10856W        W74789  28.488  18.606   0.411
10857W        W74790  13.126   4.900   1.310
10858W        W74791   2.850   6.269   2.762
10859W        W74792  23.023  11.373   2.768
10860W        W74793  25.651  11.826  14.275
10861W        W74794  30.547  34.937  12.471
10862W        W74795  14.153  32.572   2.281
10863W        W74796  26.567  44.996   3.306
10864W        W74797   9.783  18.667   1.750
10865W        W74798   3.240  23.619  13.353
10866W        W74799  37.057   5.284   4.157
10867W        W74800  18.098   9.395  11.592
10868W        W74801   9.879   3.272  12.004
10869W        W74802  16.112  39.883   0.870
10870W        W74803  16.156  43.403  12.397
10871W        W74804  14.248  13.219   3.653
10872W        W74805  25.704  35.579   3.767
10873W        W74806  40.359  21.544  12.944
10874W        W74807   3.859  14.588   1.303
10875W        W74808  29.467  23.559  13.020
10876W        W74809  24.505  25.537   4.234
10877W        W74810   1.269  11.301   0.866
10878W        W74811  30.125  34.987  12.081
10879W        W74812  32.595   0.927  13.025
10880W        W74813   7.403  39.506  13.022
10881W        W74814  16.664   5.692  10.549
10882W        W74815  39.818  40.902  12.493
10883W        W74816  22.198  14.292   3.296
10884W        W74817   2.957  44.898   3.630
10885W        W74818   9.275   0.370  10.578
10886W        W74819  16.146   1.841   2.238
10887W        W74820  34.570  32.587   3.383
10888W        W74821  38.551  26.094   3.841
10889W        W74822  33.398  12.778   1.295
10890W        W74823  24.061  44.803   5.666
10891W        W74824  31.130  29.049   3.217
10892W        W74825   9.280  44.834   1.405
10893W        W74826  15.774   9.844   0.467
10894W        W74827  13.823  27.605  11.058
10895W        W74828  28.500  12.344   3.281
10896W        W74829   3.247  27.507   0.906
10897W        W74830  22.586   0.917  13.493
10898W        W74831   8.731  12.290  11.001
10899W        W74832  24.131  22.577   0.727
10900W        W74833   9.672  38.532   1.403
10901W        W74834   5.216  27.984  14.816
10902W        W74835   3.284   8.815   4.765
10903W        W74836   8.360  20.051   3.376
10904W        W74837  11.722  38.424  11.565
10905W        W74838  17.293  14.706  13.346
10906W        W74839  39.459  38.903   1.763
10907W        W74840  25.169  25.972  14.937
10908W        W74841  39.916  43.394   0.933
10909W        W74842  22.188  20.767  12.964
10910W        W74843  10.379   8.880  13.392
10911W        W74844   5.314  14.337   3.216
10912W        W74845  25.623   7.751   3.282
10913W        W74846   6.907  24.654   4.217
10914W        W74847  32.571  36.850  12.025
10915W        W74848  25.595  27.496   2.254
10916W        W74849  17.599  38.437   1.755
10917W        W74850   9.847  41.791  12.579
10918W        W74851  30.491  16.694   3.304
10919W        W74852   4.256   8.284   3.866
10920W        W74853  13.704  22.209   0.322
10921W        W74854  12.822  19.178  14.773
10922W        W74855  12.646  20.222  14.330
10923W        W74856  37.353  26.137   1.899
10924W        W74857   4.785  12.150  10.571
10925W        W74858  23.234  36.856   3.776
10926W        W74859   3.908  26.007   4.301
10927W        W74860  11.631  12.856   4.816
10928W        W74861  18.622  10.635   2.824
10929W        W74862  44.306  15.820   3.646
10930W        W74863  36.550  27.682   3.802
10931W        W74864  21.187  36.951  12.074
10932W        W74865  23.088  39.054  12.381
10933W        W74866  15.164  42.887  12.028
10934W        W74867  38.372  15.632  14.790
10935W        W74868  19.574  13.638   4.818
10936W        W74869  20.252   7.331   3.214
10937W        W74870  39.382  10.713  12.061
10938W        W74871  33.414  14.117  13.476
10939W        W74872  10.701  18.582  12.841
10940W        W74873   3.449  16.606   9.975
10941W        W74874   7.391  12.723   1.357
10942W        W74875   8.393  19.205  10.438
10943W        W74876  18.647  15.613   4.783
10944W        W74877  18.567  18.066  13.962
10945W        W74878  37.366  30.982  12.366
10946W        W74879  15.579  15.625   0.249
10947W        W74880   0.875  31.517  11.502
10948W        W74881  22.092   5.716  12.829
10949W        W74882  21.117  16.686   2.372
10950W        W74883   1.387  20.205  11.954
10951W        W74884  39.819  40.888  13.944
10952W        W74885  12.635  43.466  13.917
10953W        W74886  44.990  28.441  12.418
10954W        W74887  34.900  32.018  14.773
10955W        W74888   6.787  15.732  14.383
10956W        W74889  38.850  31.419  13.952
10957W        W74890  36.347  29.553   4.804
10958W        W74891  34.528  17.276  14.958
10959W        W74892   1.418  16.199  10.928
10960W        W74893  14.188  33.622   1.895
10961W        W74894  18.688   3.320   2.280
10962W        W74895   2.808  34.534  10.404
10963W        W74896   1.835  23.629   3.293
10964W        W74897  41.370  16.148  11.411
10965W        W74898  40.958  34.478   2.705
10966W        W74899  35.922  36.860  11.023
10967W        W74900  21.026   2.456  11.520
10968W        W74901  11.138  16.209   0.370
10969W        W74902  19.172  14.766   0.307
10970W        W74903   3.910  28.653   0.958
10971W        W74904   0.275  17.115  10.608
10972W        W74905  43.774   7.290   0.267
10973W        W74906   7.213  21.144   1.230
10974W        W74907   7.352  17.092   2.867
10975W        W74908   4.351  28.038  13.423
10976W        W74909  37.411  19.086   2.222
10977W        W74910  27.076   7.859   1.778
10978W        W74911  40.975   7.904   1.743
10979W        W74912   2.780  37.478  11.987
10980W        W74913  23.038  22.063  11.087
10981W        W74914  37.550  21.700   0.916
10982W        W74915   4.401  17.647   3.811
10983W        W74916  31.429   0.780  14.826
10984W        W74917  25.025  29.598   2.381
10985W        W74918  16.727  26.166  10.542
10986W        W74919  24.112  23.714  14.022
10987W        W74920  26.469  20.169  10.615
10988W        W74921  24.169  25.047  11.603
10989W        W74922  26.078  17.677  11.601
10990W        W74923  37.053  34.933   4.250
10991W        W74924  43.279  10.774   3.179
10992W        W74925  38.878  36.528   4.769
10993W        W74926  15.259  14.620   0.360
10994W        W74927   0.759  19.539   1.818
10995W        W74928   1.936  15.674  10.628
10996W        W74929   7.380  28.549  10.933
10997W        W74930  25.034  42.821   4.310
10998W        W74931  10.777  20.570  10.605
10999W        W74932  21.104  29.137   4.821
11000W        W74933   8.293  27.666   4.242
11001W        W74934  36.063  38.330   4.123
11002W        W74935  17.253  22.577  13.328
11003W        W74936  22.148   7.342  11.474
11004W        W74937   6.833   5.212  12.419
11005W        W74938  31.581  42.949  14.378
11006W        W74939  18.097  18.646  13.493
11007W        W74940  35.914  40.976   3.216
11008W        W74941   4.304  32.630  14.283
11009W        W74942  26.987  38.855   0.889
11010W        W74943  41.528  40.934   2.780
11011W        W74944  25.708  31.085   0.783
11012W        W74945  34.497  28.493  14.984
11013W        W74946  17.570  17.756  13.500
11014W        W74947  10.773  11.229  14.849
11015W        W74948  10.254  33.994   0.297
11016W        W74949  38.940  36.947   0.738
11017W        W74950  41.418  43.967   0.347
11018W        W74951  11.800  23.161   1.884
11019W        W74952  32.419  30.538   3.377
11020W        W74953  27.617  43.345   3.188
11021W        W74954  40.518  25.129  12.901
11022W        W74955  13.618  11.744  13.034
11023W        W74956  24.531  11.817  12.860
11024W        W74957  37.836  37.991  10.505
11025W        W74958  22.591  39.517  11.929
11026W        W74959  44.792  44.916  10.890
11027W        W74960  27.555   3.371  12.497
11028W        W74961  24.592  42.521   0.419
11029W        W74962  41.965  32.554   1.430
11030W        W74963  19.752  20.242   2.334
11031W        W74964  19.728   3.460   5.090
11032W        W74965  28.558  41.300  12.988
11033W        W74966  28.617   1.969  14.321
11034W        W74967   9.883  41.410   2.178
11035W        W74968  23.157  32.057   4.672
11036W        W74969  15.322  26.569   1.346
11037W        W74970  32.410  16.813  12.870
11038W        W74971  22.203  27.524  14.949
11039W        W74972  42.382   7.283   3.359
11040W        W74973   5.399  14.750   0.379
11041W        W74974   5.703  11.142  10.893
11042W        W74975  27.064  38.042  12.028
11043W        W74976  17.070  31.457  10.415
11044W        W74977  41.433  43.389   2.722
11045W        W74978  41.806  16.800   0.455
11046W        W74979   0.261  44.450   0.901
11047W        W74980  44.942  37.436  14.942
11048W        W74981  38.849  15.767   5.264
11049W        W74982   7.678  37.491   0.732
11050W        W74983   7.217  23.526   9.464
11051W        W74984  19.116   2.305  13.870
11052W        W74985  44.323  10.845  13.889
11053W        W74986  40.355  14.693   2.276
11054W        W74987  12.800  20.745  10.555
11055W        W74988   0.849  18.788   1.900
11056W        W74989   9.182  11.815  14.405
11057W        W74990  10.276  42.307   0.913
11058W        W74991  32.138  31.632   2.672
11059W        W74992  14.695  34.569   2.690
11060W        W74993   1.778   3.402   3.747
11061W        W74994  16.158  28.030  11.114
11062W        W74995  36.010  25.218   0.464
11063W        W74996   7.788  15.272  10.514
11064W        W74997   1.369  30.930  14.864
11065W        W74998  37.524  20.133   3.822
11066W        W74999  22.623  40.801  12.434
11067W        W75000  21.179  16.246   1.848
11068W        W75001  44.934   3.724   0.825
11069W        W75002  39.813  15.761  10.601
11070W        W75003  33.027  14.704   4.686
11071W        W75004   7.839  11.761  14.450
11072W        W75005  31.613  37.841   0.299
11073W        W75006  16.789  23.109  11.524
11074W        W75007  33.504  39.334  10.891
11075W        W75008  40.337   1.849   3.187
11076W        W75009  42.010  38.415   1.871
11077W        W75010  17.701  20.670  10.979
11078W        W75011   7.323   6.423  11.608
11079W        W75012  17.304  21.735  11.871
11080W        W75013   4.937  28.595  12.938
11081W        W75014  11.346  30.629  11.436
11082W        W75015  30.425  23.728   0.260
11083W        W75016  11.192  17.132   2.845
11084W        W75017  37.527  39.822  13.873
11085W        W75018  17.245  40.007  12.400
11086W        W75019  15.218  38.920   4.234
11087W        W75020  17.277  30.423   3.807
11088W        W75021  30.971  18.288   0.857
11089W        W75022  11.349  44.494   1.928
11090W        W75023  26.952  25.609   3.844
11091W        W75024   3.281  38.965  11.445
11092W        W75025  43.332  14.277   0.316
11093W        W75026  34.472  44.487   2.817
11094W        W75027   3.881  20.115   1.326
11095W        W75028   7.172   5.439  12.519
11096W        W75029  20.536   9.743   1.338
11097W        W75030   9.889  10.290   4.784
11098W        W75031   4.778   7.410  10.519
11099W        W75032  42.999  32.991  12.879
11100W        W75033  17.778  21.651  14.022
11101W        W75034  27.555  43.365  12.078
11102W        W75035   4.890  12.256   3.736
11103W        W75036  24.202  37.441   9.935
11104W        W75037  20.683  41.954   4.172
11105W        W75038  25.522  14.739  13.340
11106W        W75039  36.980  39.367   3.743
11107W        W75040  20.630  20.159   4.821
11108W        W75041  34.501   4.431   2.755
11109W        W75042  21.174  23.985   4.251
11110W        W75043  31.922  19.583   2.788
11111W        W75044   2.258   0.382  10.914
11112W        W75045  13.301  14.134   0.304
11113W        W75046  14.098   7.337  12.002
11114W        W75047   9.708  18.157   0.294
11115W        W75048  37.841  26.151  14.907
11116W        W75049  34.410  17.570  10.480
11117W        W75050  13.124  38.985   5.319
11118W        W75051   0.911   0.261   2.858
11119W        W75052  19.108  10.779   0.251
11120W        W75053   7.894  11.840   3.866
11121W        W75054   0.929  33.540   0.800
11122W        W75055  31.572  37.900  14.994
11123W        W75056   2.796   9.303  14.799
11124W        W75057  29.098  35.509   2.868
11125W        W75058  40.969  35.091   4.605
11126W        W75059   4.944  38.949   1.383
11127W        W75060  38.352  44.288   4.700
11128W        W75061  33.536   8.841   2.374
11129W        W75062  23.083  17.695   3.790
11130W        W75063   9.212   5.310   1.700
11131W        W75064  30.653  25.097   0.270
11132W        W75065  25.004  26.185   4.206
11133W        W75066  26.020   8.895  11.083
11134W        W75067  36.443   7.233  12.828
11135W        W75068  29.438  41.428   1.226
11136W        W75069  15.599  16.205  13.347
11137W        W75070  28.515  26.041   0.874
11138W        W75071  25.621  11.827   2.758
11139W        W75072  16.710  35.395  13.365
11140W        W75073  33.466  39.046  14.367
11141W        W75074  25.027  29.018   0.965
11142W        W75075   7.211  26.624  13.332
11143W        W75076  37.501  26.048  12.946
11144W        W75077  29.625   3.929   0.449
11145W        W75078   2.269  30.463  14.947
11146W        W75079  21.732  42.392   3.843
11147W        W75080  41.439  41.919   3.324
11148W        W75081  28.112   7.178  14.834
11149W        W75082  29.113  26.502  13.460
11150W        W75083  27.087  29.499  13.856
11151W        W75084  36.511  13.309   3.715
11152W        W75085   1.791  44.998   2.759
11153W        W75086   5.387  10.664  12.363
11154W        W75087  19.103  10.365  14.380
11155W        W75088  19.075   1.799   2.291
11156W        W75089  32.979  34.873   1.403
11157W        W75090   3.753  22.603   9.964
11158W        W75091  34.589  31.055   0.398
11159W        W75092   6.848  24.692   0.766
11160W        W75093  13.229  23.218  11.032
11161W        W75094  32.637  34.993  10.566
11162W        W75095  16.797  11.308   2.843
11163W        W75096  31.962  40.994  14.905
11164W        W75097  10.333  38.028  13.495
11165W        W75098  32.578  40.831   4.754
11166W        W75099  44.988  29.633   4.635
11167W        W75100   1.455   3.878  11.471
11168W        W75101  34.592  14.178   0.401
11169W        W75102  13.827   9.776  12.074
11170W        W75103  17.227  17.578  11.040
11171W        W75104  35.058  27.509   4.299
11172W        W75105   4.316  16.169   3.253
11173W        W75106  23.637  35.049  11.448
11174W        W75107  33.609  12.736  11.029
11175W        W75108   6.388  24.991  13.984
11176W        W75109  30.954   5.281   2.399
11177W        W75110  41.313  38.069  11.475
11178W        W75111  43.325  21.236   5.310
11179W        W75112   6.837  31.105  14.349
11180W        W75113  21.137   7.760  14.819
11181W        W75114  10.672  40.539  10.592
11182W        W75115   8.240  39.342   1.295
11183W        W75116  25.540   6.800  13.398
11184W        W75117  28.495  24.581  13.022
11185W        W75118   4.307  12.269  10.428
11186W        W75119  44.332  12.690  10.622
11187W        W75120   8.737  34.092  13.357
11188W        W75121   4.432  22.526   3.307
11189W        W75122  14.101  39.475  12.904
11190W        W75123  13.185  37.890  12.941
11191W        W75124  14.105  30.069   4.680
11192W        W75125   3.348  18.269   3.672
11193W        W75126  24.107   5.792  14.886
11194W        W75127  32.432  35.425   3.367
11195W        W75128  17.185  27.569   1.316
11196W        W75129  26.604   9.657   5.296
11197W        W75130  10.204  41.933  11.093
11198W        W75131  14.712  27.486  14.774
11199W        W75132  33.461  43.440   0.731
11200W        W75133  37.411   1.291   4.735
11201W        W75134  19.113   9.209   2.194
11202W        W75135  23.500  37.429   2.847
11203W        W75136   4.367  29.995   0.378
11204W        W75137   4.422   1.960  12.010
11205W        W75138  27.085  27.549  13.041
11206W        W75139  13.346  28.474   3.806
11207W        W75140   8.166   2.362  12.574
11208W        W75141  41.413  30.551   3.291
11209W        W75142   9.706  19.606  11.385
11210W        W75143  39.454  14.188  14.464
11211W        W75144  25.556  28.590  14.984
11212W        W75145  20.740  41.514  10.966
11213W        W75146  39.390  41.827  13.001
11214W        W75147   7.792  19.140  11.972
11215W        W75148  21.184   5.691  13.313
11216W        W75149  39.865  15.770  12.567
11217W        W75150  36.579   9.246  12.443
11218W        W75151  24.156  42.924  14.436
11219W        W75152  28.566  14.815  11.079
11220W        W75153   0.846  41.340  10.958
11221W        W75154  41.931  41.394   3.191
11222W        W75155  14.652  38.513  12.009
11223W        W75156  43.358  34.430  11.986
11224W        W75157  25.711   6.869   3.765
11225W        W75158  11.664   7.203  10.433
11226W        W75159  28.482  40.822  13.448
11227W        W75160  29.975  42.788  11.022
11228W        W75161  25.978  43.770   1.868
11229W        W75162  12.308  40.543  10.090
11230W        W75163  26.669  17.189   0.390
11231W        W75164  21.183  37.956  11.451
11232W        W75165   9.268  21.133  14.344
11233W        W75166  32.485  25.690   0.348
11234W        W75167  15.183   6.725  10.496
11235W        W75168  24.497  29.638   2.687
11236W        W75169   6.922  21.657  13.378
11237W        W75170   9.780  16.664   2.312
11238W        W75171  37.851  27.943  10.435
11239W        W75172  34.947  30.456   0.269
11240W        W75173  32.509  38.935   4.319
11241W        W75174   4.776  40.972   1.337
11242W        W75175  35.425  14.801   0.842
11243W        W75176  30.574  26.570   0.828
11244W        W75177  44.308  24.053  13.828
11245W        W75178  14.179  27.485  13.830
11246W        W75179   7.276  24.512   1.713
11247W        W75180  34.414   1.914  12.548
11248W        W75181  34.525  36.383   2.248
11249W        W75182  10.311  27.581  13.451
11250W        W75183  32.987  11.227   3.261
11251W        W75184  13.278   4.411   2.344
11252W        W75185   6.299  44.438  12.460
11253W        W75186  10.285  31.445   1.315
11254W        W75187  31.958  16.755  13.796
11255W        W75188  25.710  13.192   0.919
11256W        W75189  32.559  12.116  11.094
11257W        W75190   4.302  31.151   1.264
11258W        W75191  41.336  44.377   0.823
11259W        W75192  19.744  23.522   0.755
11260W        W75193  38.529  36.846   1.826
11261W        W75194  34.086  21.145   3.798
11262W        W75195  24.535   9.749   0.833
11263W        W75196   2.738   9.252  13.508
11264W        W75197  20.244   2.859  11.598
11265W        W75198  17.213  42.942   0.278
11266W        W75199  23.716   3.384  10.543
11267W        W75200  30.559   7.668  12.852
11268W        W75201  20.268  27.614   3.631
11269W        W75202   9.208  41.818   3.360
11270W        W75203  43.490  18.274   4.791
11271W        W75204  25.668  26.594   3.810
11272W        W75205  12.325  20.714   2.840
11273W        W75206  44.853  23.146  13.463
11274W        W75207  31.493  36.095  13.498
11275W        W75208  10.249   7.828  14.362
11276W        W75209   4.824  13.777  14.996
11277W        W75210  37.533  24.111  10.893
11278W        W75211   2.383  37.938  13.518
11279W        W75212  27.048  27.042   3.318
11280W        W75213   1.811  43.495   0.305
11281W        W75214  43.968   9.193   3.679
11282W        W75215  43.301  41.788  14.350
11283W        W75216  11.309  18.147  14.960
11284W        W75217  27.995  16.270   3.807
11285W        W75218  37.490   5.800  11.540
11286W        W75219  33.922  44.789  10.635
11287W        W75220  35.030  16.731  11.072
11288W        W75221  37.430   6.187   4.205
11289W        W75222   4.274  17.137   2.329
11290W        W75223  43.877  39.987  13.546
11291W        W75224   2.455  41.371  11.911
11292W        W75225   7.902   8.719  13.813
11293W        W75226  18.562  19.088   9.461
11294W        W75227   6.334  10.189   4.345
11295W        W75228  23.111  44.796  13.410
11296W        W75229  22.995  32.121   1.275
11297W        W75230  10.225  28.052   4.670
11298W        W75231  15.270  16.672  13.989
11299W        W75232  32.614   1.398   1.924
11300W        W75233  43.779   8.866   0.404
11301W        W75234  15.744  37.348  14.510
11302W        W75235  32.025  14.623   3.701
11303W        W75236  24.672   6.886  11.920
11304W        W75237  26.652   8.392  14.399
11305W        W75238   7.854  28.067   3.750
11306W        W75239   5.714   6.249  13.919
11307W        W75240  35.948  42.330  13.924
11308W        W75241  24.547  22.720   0.363
11309W        W75242  28.120  13.151   0.438
11310W        W75243   7.784  13.232  12.093
11311W        W75244  21.540  38.486  12.829
11312W        W75245  32.953   3.247   4.640
11313W        W75246  10.874  38.850  14.461
11314W        W75247   1.475  44.347  10.590
11315W        W75248  17.675   8.163  13.879
11316W        W75249   8.309   7.299   1.836
11317W        W75250   0.490  19.055   0.256
11318W        W75251  23.546  15.176  12.896
11319W        W75252  40.336  22.162   0.848
11320W        W75253  25.043   9.263   0.814
11321W        W75254   5.799  20.164  13.337
11322W        W75255  25.156   3.834   2.402
11323W        W75256   7.835  39.048  12.459
11324W        W75257  29.575  21.101   1.241
11325W        W75258  25.130   3.748  13.348
11326W        W75259  31.427  22.537  11.569
11327W        W75260  13.145  40.402  13.455
11328W        W75261   0.407  21.088   0.379
11329W        W75262  24.515  16.259   3.370
11330W        W75263  30.037  43.280  11.611
11331W        W75264  35.045  18.707   2.843
11332W        W75265  37.939   8.811  11.425
11333W        W75266  43.897   5.262  12.975
11334W        W75267  40.902   3.861  10.986
11335W        W75268  17.556  26.109  14.408
11336W        W75269  37.966  38.443   0.439
11337W        W75270  29.122  24.205  11.424
11338W        W75271  31.004  24.109  13.059
11339W        W75272  35.911   1.428   2.773
11340W        W75273  10.850  11.344   1.898
11341W        W75274   6.294  37.529   5.145
11342W        W75275   1.779  13.138  14.905
11343W        W75276  32.974  30.608   4.173
11344W        W75277   5.319  39.988   2.243
11345W        W75278  10.809  11.746  11.104
11346W        W75279   5.865  33.518   4.319
11347W        W75280  11.172  32.954  10.984
11348W        W75281   2.934  44.991   2.733
11349W        W75282   1.785   4.426  13.830
11350W        W75283  17.243  43.395   2.346
11351W        W75284  34.512   7.682  10.440
11352W        W75285  34.477  22.650  10.509
11353W        W75286   8.301  29.534  14.306
11354W        W75287  29.940  33.592   3.693
11355W        W75288  26.687  39.389   3.203
11356W        W75289  26.990   3.747  13.997
11357W        W75290   8.190  24.526   3.785
11358W        W75291  41.329  34.017  13.930
11359W        W75292  37.087   5.796  10.606
11360W        W75293  34.603   0.961  10.990
11361W        W75294   0.410  23.595  13.352
11362W        W75295  22.620  41.950   0.471
11363W        W75296  34.059   2.898   3.665
11364W        W75297   3.871   3.717   4.200
11365W        W75298  23.730  40.834  12.403
11366W        W75299  32.972  17.243   4.345
11367W        W75300   4.203   2.284  13.439
11368W        W75301  10.347  32.903   2.733
11369W        W75302  24.690   3.926  13.340
11370W        W75303  29.520   2.471   0.754
11371W        W75304  36.461  41.492  14.831
11372W        W75305  10.821  27.667  14.498
11373W        W75306  11.203  31.996   0.917
11374W        W75307   9.200  22.674  12.509
11375W        W75308  21.084  39.547   2.691
11376W        W75309  24.125  24.513   0.861
11377W        W75310  20.082  10.295  13.010
11378W        W75311  31.435  31.627  14.987
11379W        W75312  38.938  16.586   0.301
11380W        W75313  24.075  35.446   0.934
11381W        W75314   8.817  25.974   1.703
11382W        W75315   5.806  24.556  11.112
11383W        W75316   4.718   0.974   4.793
11384W        W75317  33.625  43.357  12.447
11385W        W75318  31.917  14.711  12.538
11386W        W75319   0.460   3.933  13.531
11387W        W75320   6.788  39.440   3.280
11388W        W75321  15.291  15.248  13.382
11389W        W75322  43.396  42.929   2.873
11390W        W75323  17.735   7.798  14.379
11391W        W75324  11.353   5.203  12.065
11392W        W75325  36.078  35.081  11.071
11393W        W75326   1.282  39.902   0.827
11394W        W75327  41.000  22.609   4.335
11395W        W75328   2.388  22.188   1.892
11396W        W75329  17.153  36.045   5.319
11397W        W75330   8.866  35.480   0.799
11398W        W75331  25.556  40.816  11.886
11399W        W75332  25.699   3.714  13.499
11400W        W75333  41.928  24.663  10.981
11401W        W75334  42.321   2.471  12.000
11402W        W75335   9.348   7.187   1.285
11403W        W75336  36.934  26.600  12.984
11404W        W75337  18.177   5.747   2.758
11405W        W75338  35.464  15.641   0.481
11406W        W75339   7.193  10.292   3.706
11407W        W75340  16.169   1.401   3.837
11408W        W75341  10.739  35.108  11.086
11409W        W75342  22.689  26.105   1.847
11410W        W75343   4.445   3.355   1.436
11411W        W75344   4.794  19.119  12.916
11412W        W75345  28.509  17.115   2.846
11413W        W75346  29.568  10.742  11.884
11414W        W75347  39.456  13.687   2.783
11415W        W75348  25.585  13.783   2.260
11416W        W75349  33.071   9.220  12.427
11417W        W75350   7.770  23.049  12.450
11418W        W75351  17.655  37.872   4.227
11419W        W75352  26.587  17.288   2.671
11420W        W75353   9.872  16.767  11.601
11421W        W75354  25.055   7.194  12.347
11422W        W75355  20.577  34.071  10.524
11423W        W75356  30.568  19.549   1.811
11424W        W75357  31.119  43.981   0.279
11425W        W75358   8.718  28.679  12.932
11426W        W75359  28.985  40.494  13.448
11427W        W75360  39.025  18.056   0.350
11428W        W75361  24.629   5.772   1.714
11429W        W75362  38.848  22.694  11.536
11430W        W75363  23.127   2.959  12.057
11431W        W75364   6.331  22.527  13.435
11432W        W75365  40.378  20.721  11.863
11433W        W75366  29.502  27.656  11.989
11434W        W75367  23.734  22.068  13.812
11435W        W75368  23.616  25.118  11.532
11436W        W75369  17.673  12.311  12.394
11437W        W75370  30.077  37.047   3.229
11438W        W75371  14.309   8.875   0.746
11439W        W75372  43.298  19.686   2.224
11440W        W75373  23.085   0.312   2.884
11441W        W75374  22.014  38.349  10.638
11442W        W75375  43.943  39.541   4.774
11443W        W75376  16.205  27.447  10.622
11444W        W75377  16.647  24.093  13.477
11445W        W75378  43.971  27.489   4.169
11446W        W75379  22.580  30.423   4.810
11447W        W75380   0.836  35.852  13.482
11448W        W75381  19.616  24.580  12.975
11449W        W75382   9.187   9.674   4.290
11450W        W75383  38.941   8.716  11.595
11451W        W75384  14.097  31.981   2.222
11452W        W75385  15.154  36.413  11.582
11453W        W75386   2.879  36.555  12.037
11454W        W75387  38.518  27.461  11.037
11455W        W75388  27.456  25.216   3.146
11456W        W75389  30.091  37.952  11.027
11457W        W75390  28.571  38.889  12.932
11458W        W75391   1.935  33.473   2.798
11459W        W75392  22.706  35.097   2.835
11460W        W75393  42.838  42.851   4.624
11461W        W75394  15.606  18.227  12.014
11462W        W75395  35.046  14.259  14.806
11463W        W75396  13.194  15.267   0.830
11464W        W75397  26.028  22.187   0.384
11465W        W75398  37.920  40.850   2.801
11466W        W75399  23.512  30.629  12.004
11467W        W75400   1.864  11.358   4.284
11468W        W75401  23.648  16.261  12.900
11469W        W75402  34.422   6.198  11.902
11470W        W75403  18.212  42.014   0.814
11471W        W75404  33.549  13.663  12.061
11472W        W75405  36.043  35.067   3.760
11473W        W75406  25.065  28.558   2.838
11474W        W75407  23.531   6.184  11.530
11475W        W75408  39.489   7.251  10.971
11476W        W75409   1.427  41.810  14.032
11477W        W75410  43.963  44.891  14.342
11478W        W75411  35.482  30.120  10.639
11479W        W75412  25.508  30.113  11.101
11480W        W75413   6.240  18.545   2.701
11481W        W75414  34.912   9.392  10.606
11482W        W75415  34.611   4.350  11.599
11483W        W75416  24.713  43.830  11.908
11484W        W75417   7.369  20.670  12.055
11485W        W75418  41.385  30.913  10.484
11486W        W75419  34.375  18.664  13.007
11487W        W75420   6.747  33.045   4.631
11488W        W75421  15.130  37.983  13.868
11489W        W75422  29.561   5.414  11.436
11490W        W75423  23.693  32.065   0.908
11491W        W75424  36.013  32.975  13.354
11492W        W75425  38.369   5.691   0.299
11493W        W75426  42.806  25.673  13.470
11494W        W75427   9.213   9.840  13.950
11495W        W75428  31.481   6.373   2.310
11496W        W75429   4.937  10.765  14.275
11497W        W75430  28.638  29.444   1.211
11498W        W75431  27.645  13.187  10.607
11499W        W75432   6.703  33.576   3.708
11500W        W75433   7.220   9.795   3.763
11501W        W75434  11.821  39.911   3.685
11502W        W75435  36.389  38.829  12.067
11503W        W75436  29.592  10.159  13.945
11504W        W75437  40.335   6.868  11.963
11505W        W75438   3.416  25.155  11.531
11506W        W75439  18.546  30.908  14.961
11507W        W75440  15.786  41.398  10.555
11508W        W75441   7.300  15.750  10.596
11509W        W75442   5.379  17.107  10.922
11510W        W75443  20.625  42.444   4.695
11511W        W75444  21.677  32.476  13.406
11512W        W75445  36.573  14.163  11.910
11513W        W75446  23.096   4.208   4.612
11514W        W75447  25.060  27.011   4.204
11515W        W75448  26.543  14.780   4.827
11516W        W75449  31.559   0.349   4.786
11517W        W75450  14.758  13.724  12.828
11518W        W75451  11.318  32.507   0.807
11519W        W75452   1.889  36.081  10.639
11520W        W75453  23.025  33.941   4.667
11521W        W75454   8.856   4.236   5.595
11522W        W75455  20.739  15.760   0.943
11523W        W75456  16.117  23.227   4.803
11524W        W75457   0.423  19.274  13.041
11525W        W75458  31.535  32.584  14.365
11526W        W75459  27.456   4.315   3.631
11527W        W75460   0.336  22.247  13.504
11528W        W75461   0.443  40.473   3.758
11529W        W75462   5.893   8.320   1.361
11530W        W75463  16.725   9.724  14.904
11531W        W75464  23.550  29.992  14.895
11532W        W75465  32.546   5.244   1.337
11533W        W75466  37.062  34.952   2.825
11534W        W75467  40.485  19.230   2.863
11535W        W75468  25.198  33.874  13.946
11536W        W75469  32.580   0.945   0.884
11537W        W75470   3.886  20.564   4.126
11538W        W75471   5.258  19.701  14.995
11539W        W75472  44.505  37.036   0.817
11540W        W75473  13.703   2.406  12.554
11541W        W75474  43.512  22.731   1.843
11542W        W75475  25.091  38.328  12.931
11543W        W75476  16.641   8.314  12.960
11544W        W75477  32.045  19.243   2.691
11545W        W75478  31.404   9.309  11.412
11546W        W75479  11.806  31.973   3.714
11547W        W75480  13.825   5.404   0.916
11548W        W75481  35.558   8.817  11.095
11549W        W75482  24.031  16.308   2.299
11550W        W75483  34.974   5.248  14.858
11551W        W75484  42.425  40.001   0.271
11552W        W75485  19.204  20.558  11.052
11553W        W75486  40.861  24.611   1.786
11554W        W75487  36.560  24.028   1.420
11555W        W75488   8.700   8.786  12.407
11556W        W75489   2.334  29.943  13.899
11557W        W75490  25.607  38.044  10.499
11558W        W75491   3.228   0.815  13.437
11559W        W75492  44.788   6.347   9.982
11560W        W75493  31.557  18.596   3.320
11561W        W75494  41.815  21.585  11.961
11562W        W75495  11.369  34.484   4.200
11563W        W75496  16.689  34.514   0.471
11564W        W75497  13.770   7.781   2.886
11565W        W75498  27.173   1.242   4.210
11566W        W75499  34.505  44.463   0.893
11567W        W75500  44.395   3.800   4.686
11568W        W75501  29.578  27.173   4.719
11569W        W75502   0.748   1.941  13.358
11570W        W75503   0.463  27.076  13.992
11571W        W75504   1.261  35.599   1.903
11572W        W75505  31.483   8.776  14.960
11573W        W75506  43.277  28.548  13.437
11574W        W75507  29.957  35.542   2.677
11575W        W75508  26.506  24.683   0.433
11576W        W75509  42.817  21.626   2.342
11577W        W75510  11.774  44.396  12.343
11578W        W75511  34.889  25.574  14.401
11579W        W75512  18.250   7.742   9.482
11580W        W75513  42.362  18.291  14.480
11581W        W75514  10.253  37.378   1.343
11582W        W75515  29.623  20.616  14.837
11583W        W75516  18.676  21.043  12.063
11584W        W75517  23.070  36.874  11.009
11585W        W75518  25.572  29.036   1.287
11586W        W75519  20.028   7.307   2.881
11587W        W75520   2.786  35.975  11.582
11588W        W75521   9.765  35.873   1.333
11589W        W75522  44.491  15.128   1.313
11590W        W75523  20.105   2.751   3.643
11591W        W75524   2.795   0.322   0.871
11592W        W75525   9.312  30.474   1.345
11593W        W75526   0.771  38.558  10.923
11594W        W75527   7.360  21.693   2.702
11595W        W75528  14.223  29.665  11.938
11596W        W75529  21.232  21.560  13.349
11597W        W75530  12.813  43.011  10.465
11598W        W75531  10.694   2.925  13.421
11599W        W75532  18.254   9.332   2.326
11600W        W75533  18.629   6.912  10.975
11601W        W75534  23.048   2.362   4.781
11602W        W75535   6.807  39.052  13.808
11603W        W75536   6.339  44.852  10.496
11604W        W75537  44.384  43.853   1.921
11605W        W75538  19.133   1.282  11.417
11606W        W75539  43.362   7.253   3.334
11607W        W75540   5.249  13.180  13.327
11608W        W75541  17.126  37.932   0.943
11609W        W75542  11.294  20.056  14.821
11610W        W75543  19.225   6.229  14.407
11611W        W75544   7.171  40.917   4.688
11612W        W75545  11.220  23.134  10.623
11613W        W75546   2.388  13.610   0.442
11614W        W75547  37.846   1.296  12.979
11615W        W75548  10.749  40.009  14.025
11616W        W75549  44.858  39.966  10.589
11617W        W75550  13.654  34.437   3.225
11618W        W75551   0.376  17.111   3.214
11619W        W75552  35.096  44.366  12.069
11620W        W75553  44.261  21.231  13.519
11621W        W75554  36.560  11.868   0.365
11622W        W75555  39.992  21.166   4.726
11623W        W75556   6.916   9.701   1.400
11624W        W75557   3.843  34.605  11.383
11625W        W75558   5.240  15.587  10.988
11626W        W75559  22.669   8.838   2.334
11627W        W75560  43.007  21.259   4.728
11628W        W75561  14.165   0.953   3.195
11629W        W75562  18.584  41.451  11.069
11630W        W75563  10.232  44.361  12.463
11631W        W75564   0.277  16.715  10.958
11632W        W75565  41.423  44.284  12.350
11633W        W75566   1.318  21.198   3.184
11634W        W75567  36.470  10.180  11.981
11635W        W75568  35.483  40.511  14.802
11636W        W75569  13.655   7.188  14.032
11637W        W75570   1.256  27.072  11.565
11638W        W75571  23.707  29.613  14.845
11639W        W75572  27.660  31.494  14.858
11640W        W75573  36.485  39.500   0.465
11641W        W75574   2.228   4.296   2.872
11642W        W75575  11.144  40.984   4.146
11643W        W75576  32.907  32.082  14.435
11644W        W75577  37.542  27.681   4.748
11645W        W75578  36.374  14.220   1.244
11646W        W75579  27.992  43.764  13.352
11647W        W75580   6.386  15.685   1.226
11648W        W75581  35.428  28.571  12.877
11649W        W75582  33.068   3.308  13.460
11650W        W75583  10.837  21.086  12.426
11651W        W75584   6.808   2.413   3.191
11652W        W75585  40.919  20.192  12.917
11653W        W75586  43.872  35.088   2.872
11654W        W75587  29.151  31.569   4.231
11655W        W75588  10.287  36.960  13.059
11656W        W75589  18.602   3.740  14.829
11657W        W75590   1.852  34.110  13.924
11658W        W75591   4.354  19.559  12.910
11659W        W75592  20.178  17.173  13.527
11660W        W75593  30.440   3.728   0.890
11661W        W75594  42.810  33.418   3.853
11662W        W75595  21.566   1.788  11.440
11663W        W75596  41.474  19.759   3.822
11664W        W75597  12.621   4.312  12.920
11665W        W75598   5.886   5.242  14.506
11666W        W75599   8.773  16.602  12.868
11667W        W75600  14.618  36.487  11.959
11668W        W75601  13.710   4.314  11.044
11669W        W75602  40.377   5.268   0.767
11670W        W75603  35.445  25.167   3.371
11671W        W75604  30.494  25.965   4.347
11672W        W75605  21.117  16.085  12.340
11673W        W75606  10.338  25.030  10.588
11674W        W75607  19.251   0.410   0.359
11675W        W75608   2.871  24.619  11.938
11676W        W75609  10.872  23.074   2.214
11677W        W75610  35.363  39.829  14.800
11678W        W75611  15.735   1.478  13.861
11679W        W75612  14.183  20.168  12.558
11680W        W75613   1.862  17.568  11.395
11681W        W75614  25.128  19.656   4.149
11682W        W75615  21.718  15.173  12.922
11683W        W75616  41.345  31.992  11.610
11684W        W75617  42.859  18.231   1.344
11685W        W75618   8.331  34.492   3.842
11686W        W75619  41.019  19.696  13.511
11687W        W75620  29.661  39.351  13.386
11688W        W75621  19.117  40.419  13.898
11689W        W75622  12.267  14.775  12.528
11690W        W75623  19.757  37.379  10.562
11691W        W75624   3.431   3.432   4.262
11692W        W75625  33.456  31.593   3.193
11693W        W75626  30.504   7.338  11.476
11694W        W75627  18.216  37.023  13.403
11695W        W75628   4.788  29.555  13.851
11696W        W75629  16.643  42.921   1.231
11697W        W75630  37.065  13.607   1.913
11698W        W75631  19.645  19.161   1.720
11699W        W75632   3.915  29.497  13.845
11700W        W75633  21.219   8.173   0.301
11701W        W75634   4.854   4.339   1.442
11702W        W75635   2.924  31.042  11.872
11703W        W75636  31.643  28.471   3.197
11704W        W75637  14.681  40.467  14.301
11705W        W75638  44.497   5.759   3.217
11706W        W75639  43.895   3.821   2.354
11707W        W75640   7.853  25.095  13.879
11708W        W75641  19.213  12.180   3.329
11709W        W75642   4.326   2.325   4.629
11710W        W75643   0.319  20.102   3.363
11711W        W75644  31.465  15.610  12.387
11712W        W75645  42.879  16.796  11.108
11713W        W75646  18.758  43.823  11.097
11714W        W75647  44.340  19.670  11.021
11715W        W75648   3.216  16.135   1.713
11716W        W75649  32.085   7.243  10.146
11717W        W75650  21.263  41.325   1.417
11718W        W75651   8.400  18.718   4.132
11719W        W75652  20.695  19.625   4.170
11720W        W75653  21.633  25.531  10.474
11721W        W75654  14.776  30.002   2.866
11722W        W75655  22.548  25.159  12.578
11723W        W75656  40.840  20.692  13.388
11724W        W75657   7.839  28.466  13.379
11725W        W75658  36.382  17.253   0.278
11726W        W75659   2.303  19.586   1.397
11727W        W75660  25.965  39.064   4.685
11728W        W75661  40.823   5.397  12.364
11729W        W75662  27.993   8.245  10.915
11730W        W75663  15.622  11.815   1.843
11731W        W75664   3.783  11.373   0.846
11732W        W75665  43.920  23.622  10.409
11733W        W75666   7.690   2.255   0.749
11734W        W75667   5.395   5.250   0.343
11735W        W75668  19.052   1.763  13.373
11736W        W75669  40.504  12.764  13.512
11737W        W75670   9.860  28.637  11.523
11738W        W75671  16.273  36.842  14.828
11739W        W75672  33.625   6.919  10.066
11740W        W75673  24.165  27.676  10.985
11741W        W75674   6.358  31.569   0.942
11742W        W75675  35.537  43.458  14.917
11743W        W75676  44.963   7.771   4.625
11744W        W75677  28.532  32.035   1.738
11745W        W75678  10.358  29.077  12.421
11746W        W75679  24.546  32.559  14.361
11747W        W75680  32.915  13.723  13.344
11748W        W75681  34.980  39.393   4.150
11749W        W75682  35.397  10.634   1.751
11750W        W75683  12.854   6.737   4.125
11751W        W75684  18.185  10.728   3.188
11752W        W75685   7.726  13.846  11.400
11753W        W75686  22.742  31.121   1.269
11754W        W75687  19.707  38.022   1.790
11755W        W75688  31.935  25.217   9.927
11756W        W75689  35.386  29.157  12.861
11757W        W75690  21.235  13.260  13.354
11758W        W75691  40.836   2.446   3.241
11759W        W75692  29.974  38.052  10.609
11760W        W75693  38.330  32.948  10.516
11761W        W75694  31.103  15.701  11.060
11762W        W75695   2.405   8.789   3.152
11763W        W75696  16.616  14.301   1.867
11764W        W75697  32.518  37.535  14.775
11765W        W75698  27.546  19.583  10.605
11766W        W75699  33.906  33.612   9.932
11767W        W75700  35.889  26.497   4.797
11768W        W75701  20.208  14.118   5.283
11769W        W75702  31.440  37.015   2.267
11770W        W75703  12.738  33.551  11.438
11771W        W75704  19.583   9.817  13.885
11772W        W75705  19.773  16.724   5.169
11773W        W75706  36.963   3.807  12.398
11774W        W75707  17.266  42.372   0.350
11775W        W75708  30.437  35.358  14.296
11776W        W75709  42.448   0.382   1.356
11777W        W75710  15.156  14.809  12.536
11778W        W75711  27.048  30.948  13.019
11779W        W75712  21.218  44.469  13.909
11780W        W75713  12.705   3.351   0.838
11781W        W75714   6.324  42.404  10.443
11782W        W75715  18.691  33.491  13.917
11783W        W75716  29.467  12.765  14.922
11784W        W75717  35.476  19.280  12.983
11785W        W75718   1.946  24.546  10.528
11786W        W75719   7.679  17.679   0.842
11787W        W75720  17.150  37.932   3.654
11788W        W75721  14.288   2.796  10.416
11789W        W75722  24.587  39.401   3.299
11790W        W75723  29.532  17.227  14.492
11791W        W75724  23.677   0.797   1.832
11792W        W75725   8.835  17.767   1.847
11793W        W75726   7.719   5.404  14.860
11794W        W75727  20.729   0.462   4.636
11795W        W75728  16.128  13.119   3.633
11796W        W75729  28.626  20.556  13.975
11797W        W75730  32.928  37.556  11.551
11798W        W75731  43.980  24.515   4.165
11799W        W75732  17.085  35.359   1.287
11800W        W75733  33.393  30.444  10.919
11801W        W75734  32.597   8.278   3.147
11802W        W75735  31.935  37.873   3.849
11803W        W75736   6.760  40.927   4.618
11804W        W75737  28.044  35.866   5.147
11805W        W75738  29.123   4.279   2.307
11806W        W75739  14.263  22.233   4.203
11807W        W75740   2.363  21.680   3.713
11808W        W75741   2.962   6.833   2.893
11809W        W75742  29.670  24.066  14.495
11810W        W75743  17.245  18.126  12.061
11811W        W75744  44.818  15.179  12.859
11812W        W75745   0.847   2.733   3.291
11813W        W75746  23.706  20.577   4.308
11814W        W75747  25.547  17.207   4.830
11815W        W75748  24.578  11.164   0.326
11816W        W75749  14.611  42.487   2.324
11817W        W75750  12.202  40.992  13.338
11818W        W75751  44.371  25.686   3.188
11819W        W75752  22.741  18.051   4.273
11820W        W75753  28.047  34.989  12.035
11821W        W75754  25.118   6.302   2.858
11822W        W75755  34.082  29.485  12.486
11823W        W75756  13.705  17.790   0.926
11824W        W75757   1.276  15.260   4.206
11825W        W75758  31.415  18.272   2.383
11826W        W75759  11.812  27.120  11.994
11827W        W75760  33.406  21.750   3.819
11828W        W75761  31.002   3.252  12.548
11829W        W75762  11.150  38.047  14.296
11830W        W75763  24.015  40.044   3.633
11831W        W75764   4.212  28.525  10.895
11832W        W75765   9.807  25.474   3.636
11833W        W75766  44.985  32.562   1.265
11834W        W75767  39.420   8.844   2.199
11835W        W75768   6.850   6.808  11.979
11836W        W75769   8.234   1.246   3.369
11837W        W75770   1.946  19.639   3.818
11838W        W75771  32.423  41.496  14.450
11839W        W75772  14.712   4.816  11.856
11840W        W75773  38.489   7.215   4.287
11841W        W75774   5.363   6.334   1.389
11842W        W75775  23.002  10.788   0.299
11843W        W75776  17.577  26.636   3.231
11844W        W75777   5.396  20.272   1.260
11845W        W75778  18.230  16.738   2.844
11846W        W75779  33.607  16.749   3.294
11847W        W75780  33.043  29.084  12.404
11848W        W75781  40.946  21.032   4.746
11849W        W75782  28.088  40.999  11.047
11850W        W75783   9.155  22.731  13.451
11851W        W75784  29.057   2.740  13.032
11852W        W75785   7.265  20.245   0.874
11853W        W75786  31.095  40.354  10.470
11854W        W75787  14.593  44.435   4.328
11855W        W75788  20.712  19.720  11.538
11856W        W75789  10.853  43.425  13.827
11857W        W75790   0.813  42.872   3.196
11858W        W75791  20.536  25.112  10.416
11859W        W75792  40.311  44.918  10.642
11860W        W75793  11.166   1.945  14.407
11861W        W75794  35.549  18.067  11.961
11862W        W75795  40.515   0.800  10.948
11863W        W75796  33.984  27.948   2.781
11864W        W75797  44.364   9.326   1.249
11865W        W75798  27.607  22.592   3.849
11866W        W75799  16.113  44.849  13.519
11867W        W75800  28.070  26.472   3.869
11868W        W75801  24.121  11.146   1.776
11869W        W75802  11.828  23.496  10.064
11870W        W75803  37.083  24.701   1.912
11871W        W75804  16.729  17.168  14.896
11872W        W75805   7.757  43.968   0.353
11873W        W75806   0.345  22.660  12.039
11874W        W75807   3.275   4.446   2.379
11875W        W75808   5.694  44.290  10.479
11876W        W75809  38.990   7.279  10.457
11877W        W75810  37.389  22.189   1.816
11878W        W75811   3.278  34.075   4.158
11879W        W75812  40.033  40.956  10.514
11880W        W75813   4.799  25.606  14.423
11881W        W75814   2.813  32.456   1.394
11882W        W75815  18.259  36.955  12.833
11883W        W75816  38.876  11.677   0.372
11884W        W75817  25.631   6.727  12.963
11885W        W75818  39.404  41.924   4.824
11886W        W75819   9.808  26.472   3.828
11887W        W75820  11.821  22.725   3.836
11888W        W75821  30.150  33.894   4.635
11889W        W75822  27.569  35.412  13.336
11890W        W75823   1.420  15.680  10.600
11891W        W75824  23.649  21.709   4.166
11892W        W75825   2.963   3.780  14.304
11893W        W75826  27.514  10.726   3.263
11894W        W75827   7.815   3.766  12.346
11895W        W75828  23.041  14.772   4.764
11896W        W75829  31.097  30.559  14.363
11897W        W75830  15.710  22.098   4.757
11898W        W75831  16.777   2.339   3.348
11899W        W75832  39.314  43.504   0.859
11900W        W75833   7.222   3.381  12.449
11901W        W75834  34.395   3.711  12.340
11902W        W75835  10.829  20.069   1.286
11903W        W75836  35.095  11.217  13.832
11904W        W75837  17.585  42.836   4.191
11905W        W75838  33.485   3.265   0.960
11906W        W75839  11.712  43.957  10.629
11907W        W75840  26.614  33.539  13.816
11908W        W75841  14.319   6.232  14.377
11909W        W75842  17.678  36.048   4.349
11910W        W75843  33.564   7.823  10.931
11911W        W75844  18.122   2.413  10.642
11912W        W75845  26.477   5.788   1.863
11913W        W75846  19.541  32.476  11.965
11914W        W75847  23.053  14.161   3.757
11915W        W75848  36.977  10.825   2.329
11916W        W75849   1.315  27.542   1.715
11917W        W75850  24.099  11.236  10.593
11918W        W75851  30.548   0.905  10.576
11919W        W75852  44.403  40.321  13.498
11920W        W75853  20.715  17.067   3.778
11921W        W75854  26.146  15.728  12.569
11922W        W75855   7.330  37.888   3.303
11923W        W75856  26.991   2.794   0.872
11924W        W75857  12.809  34.539   3.272
11925W        W75858  16.155   7.730   3.695
11926W        W75859  13.152  26.545  14.858
11927W        W75860   5.690  37.964  14.462
11928W        W75861  25.983  12.634   0.380
11929W        W75862  16.190  35.953  13.836
11930W        W75863  36.069  18.679   3.355
11931W        W75864  23.241  34.120  13.981
11932W        W75865  42.326  21.723   3.631
11933W        W75866  41.390   3.341   1.891
11934W        W75867  39.041   0.958   1.932
11935W        W75868   3.238  15.228   4.247
11936W        W75869  37.075  29.018  13.467
11937W        W75870  22.537  17.189  12.524
11938W        W75871  43.016  28.579  13.989
11939W        W75872  31.134   3.856  11.059
11940W        W75873  24.126  29.598   1.370
11941W        W75874   9.238  35.487  14.372
11942W        W75875   4.834   0.839  14.849
11943W        W75876   7.849  41.369   3.779
11944W        W75877   1.249  17.748  11.127
11945W        W75878  42.486  23.725  12.979
11946W        W75879  27.519  44.785  14.341
11947W        W75880  12.660   3.856  11.096
11948W        W75881  11.273  19.742  14.423
11949W        W75882  43.949   7.290   3.644
11950W        W75883  29.427  24.559  11.424
11951W        W75884  30.021   7.759   2.219
11952W        W75885  28.063   2.280  12.392
11953W        W75886   9.879  38.974  13.406
11954W        W75887   2.324  43.508  12.056
11955W        W75888   3.739   9.756   4.140
11956W        W75889  42.343  35.437   5.137
11957W        W75890  17.298   4.935  10.978
11958W        W75891  26.133  35.587  12.959
11959W        W75892  32.973  23.046  11.565
11960W        W75893  22.581  16.713  11.574
11961W        W75894  31.614  32.997  11.491
11962W        W75895  30.530  13.686  14.411
11963W        W75896  29.169   8.160  12.879
11964W        W75897   1.965  20.724   1.838
11965W        W75898   1.970  33.030   0.869
11966W        W75899   0.783  11.344  12.059
11967W        W75900  19.204   0.966   1.298
11968W        W75901  17.791  19.274  14.402
11969W        W75902   1.457  39.886   1.815
11970W        W75903  29.993   8.878  14.498
11971W        W75904  42.313  23.574  11.537
11972W        W75905  29.948   5.409  10.522
11973W        W75906  15.622  10.749   2.740
11974W        W75907  38.901  16.142   4.144
11975W        W75908  24.034  34.377  13.350
11976W        W75909  44.923  41.338   4.627
11977W        W75910  33.934  44.967   3.177
11978W        W75911  35.049   0.267   0.282
11979W        W75912   1.793  15.584  11.499
11980W        W75913  27.194  16.154  11.126
11981W        W75914  13.292  10.743  10.582
11982W        W75915   7.413  30.658   3.175
11983W        W75916  19.708  22.598   2.340
11984W        W75917  29.630   6.215  13.936
11985W        W75918  29.923  14.099  10.538
11986W        W75919  36.969  40.527  14.430
11987W        W75920  12.751  27.153  14.367
11988W        W75921  25.094  13.804  10.622
11989W        W75922  19.103  25.087   5.307
11990W        W75923  36.373   8.667   3.856
11991W        W75924  19.558  24.097   3.272
11992W        W75925  44.421  15.815  12.974
11993W        W75926  15.658  33.124  13.893
11994W        W75927  14.109  35.533   0.738
11995W        W75928   4.235  11.699   1.922
11996W        W75929  32.048  33.522   3.185
11997W        W75930  10.147  40.345  14.769
11998W        W75931  32.463  16.594   0.464
11999W        W75932  19.176  27.108  14.870
12000W        W75933   4.273  38.040   2.288
12001W        W75934  38.009  27.452  10.413
12002W        W75935  35.019   8.838   1.852
12003W        W75936   1.761  40.449  11.065
12004W        W75937  20.706  39.446  11.940
12005W        W75938  27.034  22.675  12.920
12006W        W75939   8.177   7.291  10.489
12007W        W75940  31.066  43.776   4.739
12008W        W75941  12.796  37.389  10.484
12009W        W75942  37.071   1.912   3.357
12010W        W75943  25.610  22.566  11.873
12011W        W75944  17.634  14.327  13.371
12012W        W75945  31.105   9.664   2.671
12013W        W75946  12.175   5.787   0.389
12014W        W75947  17.578  12.834  14.813
12015W        W75948  35.435  31.553   2.276
12016W        W75949  41.458   0.433  10.928
12017W        W75950  25.659  14.834   4.344
12018W        W75951   5.356  42.982  12.867
12019W        W75952  35.929  15.300   0.762
12020W        W75953  42.485  41.974  11.941
12021W        W75954   9.697  36.361   0.269
12022W        W75955  38.926  14.642  14.509
12023W        W75956  21.193  12.281  11.379
12024W        W75957  30.626  27.550   1.321
12025W        W75958  26.191   2.781   2.678
12026W        W75959   9.297   9.369  13.414
12027W        W75960   2.443  20.598   0.909
12028W        W75961  23.523  29.661   2.419
12029W        W75962  13.245  18.120  13.012
12030W        W75963   8.803  16.801  13.863
12031W        W75964  32.021  42.443   1.816
12032W        W75965  38.571  27.660   2.262
12033W        W75966  11.648  10.632   0.963
12034W        W75967  34.044  31.403  13.851
12035W        W75968  25.991  10.280   1.763
12036W        W75969   9.152   2.936   0.374
12037W        W75970   2.380  19.776  14.369
12038W        W75971  41.931  27.180  14.331
12039W        W75972  27.962  38.068   3.630
12040W        W75973  34.394  36.850  13.544
12041W        W75974  33.544  43.353   2.724
12042W        W75975  19.086  39.511   2.348
12043W        W75976   7.272  17.749  14.307
12044W        W75977  24.226   4.724   2.403
12045W        W75978  29.024  17.779  13.862
12046W        W75979  41.425   0.824  14.793
12047W        W75980  10.159   6.814  14.506
12048W        W75981   0.366   0.262  13.328
12049W        W75982  32.461  18.547   0.909
12050W        W75983  33.608  11.697   1.834
12051W        W75984  19.547   7.896   2.704
12052W        W75985  21.213  16.665   2.722
12053W        W75986  32.425  21.242   1.821
12054W        W75987  43.914  37.466  13.307
12055W        W75988  24.530   7.336  13.008
12056W        W75989  15.128  13.172   3.797
12057W        W75990  30.494  27.142   0.314
12058W        W75991  34.450   5.864  13.451
12059W        W75992  32.565  30.550   5.185
12060W        W75993  15.311  20.270  14.456
12061W        W75994  16.584  21.032   3.746
12062W        W75995   0.383   5.301   4.692
12063W        W75996   9.196  24.070   0.389
12064W        W75997  16.569  38.866   2.289
12065W        W75998   9.652  30.548   0.948
12066W        W75999   0.915   6.185   3.833
12067W        W76000  10.789  14.679   2.793
12068W        W76001  35.052   3.764  11.542
12069W        W76002  22.581  36.007  14.801
12070W        W76003  44.390   2.819  12.558
12071W        W76004   6.823   1.281  12.937
12072W        W76005   9.371   2.463  10.558
12073W        W76006  31.028  41.332  12.462
12074W        W76007  34.420  33.122   3.192
12075W        W76008  33.017  34.892  10.936
12076W        W76009  35.439   8.393  11.472
12077W        W76010  14.117  28.062   4.208
12078W        W76011  10.661  35.505   0.954
12079W        W76012  35.013  43.891   0.760
12080W        W76013  13.748   3.406   1.298
12081W        W76014   4.895  28.175   4.145
12082W        W76015   5.879  24.015  11.416
12083W        W76016  13.703   7.853  11.934
12084W        W76017  10.788  44.931   2.818
12085W        W76018  26.649  38.935   0.819
12086W        W76019  28.112   4.928  10.620
12087W        W76020  19.769   1.469  12.438
12088W        W76021  19.131  27.019  13.320
12089W        W76022  23.200  35.492  12.552
12090W        W76023   4.368  32.126  10.961
12091W        W76024  36.537  29.662   1.228
12092W        W76025  35.507  11.209   4.255
12093W        W76026  12.797  31.497   1.928
12094W        W76027   6.332  31.536   4.213
12095W        W76028  44.936  30.974   1.362
12096W        W76029  18.678  38.853  13.047
12097W        W76030   5.816  24.482   0.892
12098W        W76031  35.010   1.343  10.494
12099W        W76032  12.157  17.082   3.710
12100W        W76033   9.245  38.029   2.712
12101W        W76034  14.759   0.940  13.949
12102W        W76035  40.976  39.350  14.894
12103W        W76036  32.539  14.165   5.082
12104W        W76037  43.285  22.740   0.415
12105W        W76038  32.020  38.920  11.068
12106W        W76039  38.543   7.416   1.441
12107W        W76040  43.021  33.429   3.280
12108W        W76041  28.120  43.490   2.338
12109W        W76042  33.455   7.288  13.892
12110W        W76043  38.380  25.993  12.496
12111W        W76044   0.470   0.856   3.155
12112W        W76045   4.419  33.117   2.754
12113W        W76046  33.019  43.805  13.346
12114W        W76047  41.009  27.982  11.937
12115W        W76048   4.899  31.406   1.713
12116W        W76049  29.061   6.221  11.601
12117W        W76050  12.262   6.410   3.637
12118W        W76051  29.664   0.454   3.675
12119W        W76052  16.208   9.377  13.822
12120W        W76053  11.267   1.258   0.751
12121W        W76054  42.926  16.612   0.287
12122W        W76055  42.996  25.706   3.793
12123W        W76056  22.578  26.199  14.786
12124W        W76057   1.795  25.179  12.088
12125W        W76058   0.440  42.840  12.026
12126W        W76059  33.104  41.994   4.733
12127W        W76060   2.255  15.216   4.804
12128W        W76061   3.225  23.042   0.286
12129W        W76062   8.310  40.968   0.451
12130W        W76063   1.797  20.605  12.555
12131W        W76064  29.938  44.353  10.525
12132W        W76065   7.795  36.035  11.942
12133W        W76066  37.422  22.128  11.880
12134W        W76067  22.524  22.185   1.840
12135W        W76068  28.998  37.381   4.285
12136W        W76069  29.149  42.347   3.219
12137W        W76070  27.518  11.833   2.847
12138W        W76071  17.616  16.180  11.041
12139W        W76072  21.574  34.491   3.835
12140W        W76073  25.633  38.878   1.896
12141W        W76074  42.515  27.125   4.818
12142W        W76075  11.664  27.531  13.033
12143W        W76076   6.282  38.991   3.817
12144W        W76077  41.532  17.128   5.148
12145W        W76078  37.571  44.859  11.880
12146W        W76079  39.338  43.770  12.365
12147W        W76080  40.009   8.231   2.304
12148W        W76081  13.729   9.868  10.475
12149W        W76082  33.449  41.444  12.838
12150W        W76083   8.248  15.323   2.313
12151W        W76084  35.364  19.269  11.971
12152W        W76085   0.392  21.109   4.280
12153W        W76086   5.352  37.462   3.244
12154W        W76087  34.558  18.789   2.758
12155W        W76088   8.798   7.838   4.734
12156W        W76089  39.530  43.296   0.257
12157W        W76090  16.785  14.142  10.645
12158W        W76091  18.568  44.771   4.152
12159W        W76092  33.572  13.201   0.343
12160W        W76093  28.930  12.741   0.802
12161W        W76094  16.803  18.717  14.869
12162W        W76095  27.506  42.456   4.676
12163W        W76096  28.991  44.361   4.235
12164W        W76097  12.253  19.207   3.784
12165W        W76098   1.331  32.140   1.334
12166W        W76099  16.259  25.593  12.032
12167W        W76100   5.767  28.448   0.802
12168W        W76101  32.904  36.566   4.833
12169W        W76102  39.041  34.108   1.260
12170W        W76103  30.035  29.633  13.064
12171W        W76104  18.651  34.968  12.021
12172W        W76105  19.552  29.057   9.555
12173W        W76106  22.115  30.106  14.993
12174W        W76107  25.159  33.001   2.833
12175W        W76108  29.010  27.039  13.363
12176W        W76109  25.005  42.918   3.329
12177W        W76110  16.248  25.187  13.052
12178W        W76111   6.747   2.925  14.361
12179W        W76112  10.167  32.464   3.274
12180W        W76113  26.482  44.982  14.774
12181W        W76114  28.513  20.127  10.589
12182W        W76115  17.128  38.987  11.537
12183W        W76116  11.292  14.120  13.540
12184W        W76117   3.851  44.976  12.040
12185W        W76118  20.164   6.839  12.460
12186W        W76119   8.320  43.888  14.486
12187W        W76120  13.806  23.555   1.232
12188W        W76121  32.993  26.675   3.852
12189W        W76122  30.520   4.217  13.362
12190W        W76123  36.841  15.674  11.002
12191W        W76124   2.399  41.902   2.743
12192W        W76125  22.013  43.917   2.413
12193W        W76126  25.205   0.314  14.798
12194W        W76127  31.969   7.704  12.340
12195W        W76128  17.699   2.754   0.909
12196W        W76129  35.109  28.931  11.410
12197W        W76130  14.649  38.444  14.816
12198W        W76131   6.746  41.828  14.985
12199W        W76132  16.250  44.836   0.758
12200W        W76133  33.042  10.382   4.202
12201W        W76134  20.247  36.373   1.812
12202W        W76135   0.373  10.706   2.346
12203W        W76136  15.778   6.746  10.530
12204W        W76137  28.681   2.269   4.168
12205W        W76138  24.207  25.701   4.717
12206W        W76139   7.350   9.150   0.927
12207W        W76140  37.478  42.948  12.891
12208W        W76141  36.507  26.614   3.756
12209W        W76142  13.827   1.336  13.039
12210W        W76143  12.838  33.485   1.818
12211W        W76144  34.111  19.634   3.863
12212W        W76145  32.047   8.349   0.274
12213W        W76146  42.481  44.755  14.804
12214W        W76147  22.597  41.431   2.839
12215W        W76148  21.223  19.617  12.091
12216W        W76149  36.923  13.790   1.403
12217W        W76150  22.998  34.552   4.698
12218W        W76151  10.250  18.594   4.742
12219W        W76152  44.321  11.330   1.368
12220W        W76153  41.371  11.373  12.952
12221W        W76154  15.229  19.633   4.245
12222W        W76155  32.500  27.547  12.370
12223W        W76156  26.688  43.820   0.864
12224W        W76157   5.901  43.415   0.261
12225W        W76158   2.889   2.255  14.924
12226W        W76159  34.045  36.402  14.342
12227W        W76160   3.727  31.089   4.825
12228W        W76161  36.505  39.496   2.218
12229W        W76162   7.858  15.629  10.141
12230W        W76163   5.810  31.625  13.991
12231W        W76164  33.019  34.991  11.953
12232W        W76165  11.641   8.825   4.792
12233W        W76166  13.609  18.609  12.347
12234W        W76167  11.805  22.098  11.098
12235W        W76168  30.654  16.078   3.777
12236W        W76169  36.060   4.303   1.861
12237W        W76170  37.951  21.702   3.836
12238W        W76171  32.553  36.486   4.163
12239W        W76172  35.012  27.490  11.099
12240W        W76173   7.173  21.089   9.947
12241W        W76174  24.025  31.483   4.132
12242W        W76175  33.965  41.863   1.703
12243W        W76176  31.006  27.581  14.505
12244W        W76177  16.134  13.108   1.731
12245W        W76178  13.622  37.964  14.933
12246W        W76179  27.628  24.021  13.490
12247W        W76180  35.872  43.308   4.826
12248W        W76181  24.109   1.934   5.247
12249W        W76182  26.609   1.795  11.884
12250W        W76183  38.894  41.454   4.198
12251W        W76184  23.574  25.518  14.307
12252W        W76185  25.214  28.585   0.322
12253W        W76186   8.334   8.752   4.337
12254W        W76187   1.247  32.895  14.953
12255W        W76188  30.945  36.842  11.974
12256W        W76189  37.509   2.941   0.461
12257W        W76190   1.750  38.943  14.869
12258W        W76191  36.494   4.414   3.693
12259W        W76192  24.212  22.528   1.792
12260W        W76193  18.667  42.975   3.352
12261W        W76194  36.524   7.398  14.880
12262W        W76195   7.201  24.486  14.481
12263W        W76196  36.028  37.933   0.760
12264W        W76197  11.861  13.229  12.440
12265W        W76198  35.453  12.813  11.606
12266W        W76199  40.527  31.564   4.720
12267W        W76200  40.047  19.698   2.889
12268W        W76201  14.264  38.942   4.660
12269W        W76202  25.988  10.790   2.680
12270W        W76203  12.339  22.516   4.196
12271W        W76204  20.097  15.645  12.399
12272W        W76205  21.751   1.473   2.673
12273W        W76206  14.794   7.665   3.200
12274W        W76207  36.358  26.056  11.498
12275W        W76208  22.600  20.629   0.862
12276W        W76209  30.963  13.256  10.445
12277W        W76210  11.815  43.882  12.869
12278W        W76211  23.119   5.751   0.397
12279W        W76212  23.531  29.576  10.553
12280W        W76213   7.292  16.257   0.789
12281W        W76214   2.374  43.333  12.443
12282W        W76215  29.995  25.640   0.346
12283W        W76216  12.141  35.997  14.822
12284W        W76217  12.137  38.853  13.544
12285W        W76218  30.069  19.621   0.265
12286W        W76219  32.110  36.574   1.413
12287W        W76220  24.100  35.587  12.548
12288W        W76221   0.980   8.811   3.336
12289W        W76222  20.645  34.464  14.873
12290W        W76223  23.506  22.132  14.386
12291W        W76224  18.582  22.577  10.511
12292W        W76225  30.480  42.859   2.253
12293W        W76226  16.769  29.175   3.361
12294W        W76227  15.160  14.174  12.025
12295W        W76228  16.264  41.001  10.435
12296W        W76229  25.210  19.045   0.949
12297W        W76230  23.500  16.274  11.491
12298W        W76231   1.362   0.858  12.885
12299W        W76232   5.736   6.902  14.794
12300W        W76233  30.453   1.811   1.728
12301W        W76234  11.369   3.282   1.345
12302W        W76235  42.819  17.236   2.857
12303W        W76236  31.104  24.603   3.751
12304W        W76237  15.798   8.211  11.057
12305W        W76238   5.402  21.630   2.264
12306W        W76239   7.377   4.738   1.866
12307W        W76240  25.039  23.701   2.666
12308W        W76241   7.171  34.045   0.965
12309W        W76242   2.820  32.022  10.437
12310W        W76243  39.008  33.483  14.341
12311W        W76244  22.643  17.680  12.902
12312W        W76245  16.193  36.085   0.383
12313W        W76246  23.026  39.531   1.809
12314W        W76247   6.844  18.190  10.611
12315W        W76248  34.554  24.686  10.620
12316W        W76249   2.297  44.976   3.375
12317W        W76250  40.496   3.815   1.240
12318W        W76251  39.986  35.506  12.998
12319W        W76252  30.490  39.967  14.778
12320W        W76253  15.328   2.804   1.706
12321W        W76254  17.255  26.514   2.240
12322W        W76255  29.667  37.342  10.586
12323W        W76256  11.816  18.721   3.184
12324W        W76257  39.921  35.909   3.199
12325W        W76258   7.306  17.671   3.784
12326W        W76259  21.223  21.229   0.319
12327W        W76260  14.180  35.916   3.841
12328W        W76261   5.857  32.568   3.736
12329W        W76262  35.100   6.378  14.828
12330W        W76263  41.786  33.611  14.905
12331W        W76264  35.040   7.898  14.889
12332W        W76265  36.073  43.347  11.903
12333W        W76266  10.284  22.529   3.268
12334W        W76267  40.426   3.876   3.277
12335W        W76268  19.548  41.813   4.838
12336W        W76269   7.899   0.345   4.250
12337W        W76270  12.781  31.506  10.496
12338W        W76271  33.999  18.545  13.460
12339W        W76272  21.528   3.821   4.690
12340W        W76273   9.385   2.873   4.291
12341W        W76274  33.088  15.620   2.826
12342W        W76275  26.631  29.538  11.048
12343W        W76276  17.282   2.338  14.950
12344W        W76277  28.012   3.818   4.702
12345W        W76278  25.034  21.615   4.271
12346W        W76279  22.092  35.029  14.962
12347W        W76280  25.059  15.128   4.341
12348W        W76281  30.563  40.027  12.396
12349W        W76282  43.407  15.654   1.839
12350W        W76283  38.854  24.601   4.352
12351W        W76284   9.679  13.153   4.826
12352W        W76285   1.853  12.204   1.352
12353W        W76286  16.079  29.014  12.426
12354W        W76287  44.329  22.081   4.133
12355W        W76288  35.042  34.012   0.788
12356W        W76289   8.313   9.278  12.835
12357W        W76290  40.849  41.934   4.159
12358W        W76291  14.721   9.278   3.220
12359W        W76292  39.980  44.421   1.885
12360W        W76293  33.056  30.629  10.977
12361W        W76294  27.626   1.272   5.753
12362W        W76295  27.949   9.679  11.550
12363W        W76296  29.074  37.340   2.298
12364W        W76297  34.033  37.575   2.864
12365W        W76298  42.511  33.947  11.098
12366W        W76299  26.609  22.092   4.646
12367W        W76300  37.930  32.010  10.061
12368W        W76301   0.976  21.739   3.706
12369W        W76302  43.303  28.518  14.884
12370W        W76303   3.221  18.741  13.487
12371W        W76304   9.813   5.865   2.192
12372W        W76305  39.315  34.399   4.792
12373W        W76306  38.486   8.898   4.598
12374W        W76307  27.635  29.577   2.822
12375W        W76308  27.009  26.624  14.897
12376W        W76309   0.911  23.618  14.928
12377W        W76310  40.044   1.952  10.446
12378W        W76311  39.978  17.258   1.790
12379W        W76312  16.109  16.283  14.445
12380W        W76313  41.448  39.835   3.649
12381W        W76314   1.411  35.075  12.442
12382W        W76315  40.912  28.478   1.347
12383W        W76316  21.742  10.351   3.259
12384W        W76317  31.977  12.122  11.966
12385W        W76318   8.207  26.123   2.793
12386W        W76319  19.104  30.417   3.222
12387W        W76320  43.315  26.534  10.130
12388W        W76321   2.325  31.625  13.514
12389W        W76322  12.676  12.770   0.820
12390W        W76323   6.236  39.451   0.894
12391W        W76324  10.819  36.487  11.064
12392W        W76325  14.792  26.651   3.671
12393W        W76326  43.359  32.501  12.420
12394W        W76327  36.588  30.933   3.814
12395W        W76328  38.494   8.840   2.705
12396W        W76329  29.957   3.846   4.622
12397W        W76330  40.534  37.962  14.502
12398W        W76331  10.865  15.258  13.358
12399W        W76332  43.373   1.935  10.967
12400W        W76333   7.379   2.386  12.941
12401W        W76334  25.580  19.576   4.637
12402W        W76335  41.510  33.026   3.835
12403W        W76336   4.243   7.391  14.847
12404W        W76337   0.262  13.153  14.921
12405W        W76338  41.523  12.708   0.951
12406W        W76339   0.369  29.638   0.846
12407W        W76340  29.032  24.614  12.072
12408W        W76341  43.979  11.286   4.688
12409W        W76342  14.787  28.001  10.136
12410W        W76343  20.540   8.197  10.927
12411W        W76344   2.753  36.876   0.480
12412W        W76345  28.074  44.863  13.835
12413W        W76346  32.433   5.921  10.433
12414W        W76347  11.708  21.648  10.424
12415W        W76348  35.421  39.321   2.692
12416W        W76349   2.378  43.787   4.164
12417W        W76350  36.483  18.790  12.983
12418W        W76351   9.358  33.533  14.935
12419W        W76352  30.030  38.855   3.839
12420W        W76353  20.052   3.442   4.342
12421W        W76354  40.855   0.289   2.699
12422W        W76355  12.173   5.319   4.201
12423W        W76356  13.308   4.405   4.308
12424W        W76357   2.936  37.011  13.404
12425W        W76358  32.957   4.279  12.472
12426W        W76359   4.812  27.464  12.859
12427W        W76360   5.916  14.699  11.377
12428W        W76361  40.332  30.436  13.339
12429W        W76362  37.450   7.181   1.276
12430W        W76363  16.806  28.449   4.118
12431W        W76364  44.917   1.383   3.243
12432W        W76365  22.058  11.257   1.715
12433W        W76366  14.139   6.733  12.462
12434W        W76367  43.348  41.808   2.664
12435W        W76368  28.496  42.373   4.798
12436W        W76369  23.541  17.181   2.316
12437W        W76370   8.364  30.621  14.763
12438W        W76371  17.597  37.424  10.504
12439W        W76372  41.925  38.382  14.867
12440W        W76373   2.389  29.011  10.535
12441W        W76374   3.230  33.379  11.549
12442W        W76375  29.964  18.635   3.231
12443W        W76376  19.119  28.547  14.835
12444W        W76377  31.614  12.118  14.963
12445W        W76378  31.638  25.133  11.013
12446W        W76379  15.612   1.859   0.265
12447W        W76380  42.819   6.350   2.820
12448W        W76381  38.570   4.431  12.423
12449W        W76382  41.036   4.343   0.747
12450W        W76383  42.000  28.457   0.863
12451W        W76384   0.440  15.684  14.879
12452W        W76385  19.755  29.520  14.468
12453W        W76386   1.969   6.282  14.397
12454W        W76387  29.544  42.967   5.180
12455W        W76388  13.658   9.190   2.892
12456W        W76389   2.796   3.282  14.418
12457W        W76390   3.270  18.068   0.921
12458W        W76391  42.937   2.336  13.962
12459W        W76392   8.661  32.548   1.220
12460W        W76393   4.399  18.175  11.905
12461W        W76394  17.163   9.829  12.547
12462W        W76395  19.283  16.616  13.061
12463W        W76396  44.922  30.444   4.181
12464W        W76397  23.034  26.161  11.605
12465W        W76398  25.048   9.853   4.232
12466W        W76399  24.498  37.522  11.117
12467W        W76400   0.301  25.002   2.800
12468W        W76401  22.081  41.520   2.886
12469W        W76402  20.769   5.231   2.815
12470W        W76403   0.791  34.576   1.364
12471W        W76404   4.256   0.803   1.340
12472W        W76405  28.164   7.862  13.843
12473W        W76406  35.448   5.800   4.196
12474W        W76407  39.978  34.452   3.751
12475W        W76408  37.477  13.770   0.857
12476W        W76409   3.255   4.305  14.775
12477W        W76410  42.402  32.977   0.751
12478W        W76411  11.235  18.052  13.392
12479W        W76412  12.156  24.125   2.352
12480W        W76413  12.161   4.313   3.376
12481W        W76414   2.328  39.898   1.216
12482W        W76415  26.637   2.866  12.388
12483W        W76416  38.521  15.252  10.993
12484W        W76417  29.097  16.284  13.023
12485W        W76418  17.718  17.628  12.977
12486W        W76419  11.712  25.133  10.139
12487W        W76420  42.941  35.926   3.729
12488W        W76421  31.926   8.769  12.882
12489W        W76422  36.987  29.522  13.024
12490W        W76423  29.647   1.249  12.450
12491W        W76424  41.830  42.006   1.211
12492W        W76425  34.077  33.012  10.536
12493W        W76426  15.286  16.189  12.564
12494W        W76427  20.218   2.316   2.403
12495W        W76428   4.416  29.668   3.859
12496W        W76429  21.061  40.480  13.906
12497W        W76430  12.733  18.552   2.308
12498W        W76431  31.049  37.518  12.512
12499W        W76432  16.212  24.092  14.002
12500W        W76433  40.507  19.610  12.488
12501W        W76434  38.023  37.487   0.795
12502W        W76435  18.681  14.305   0.967
12503W        W76436  43.296   4.270  11.008
12504W        W76437  39.978  29.449  14.376
12505W        W76438  40.918   6.420   2.331
12506W        W76439  13.657  23.531   0.930
12507W        W76440  35.405  13.235   2.324
12508W        W76441  21.171  11.278  12.363
12509W        W76442  12.771  34.925  14.416
12510W        W76443  28.508  12.322  11.098
12511W        W76444  16.199  43.899   1.316
12512W        W76445  28.493  13.789   0.898
12513W        W76446  14.813   3.867   3.716
12514W        W76447  36.847   5.273   0.326
12515W        W76448  27.095  30.952  12.037
12516W        W76449   2.296   2.743   0.829
12517W        W76450  18.066   6.789   3.824
12518W        W76451  21.162   7.299   4.757
12519W        W76452  10.792  31.563  10.520
12520W        W76453   8.736   9.665   1.897
12521W        W76454   8.851  14.793   4.826
12522W        W76455  24.185   5.255  13.421
12523W        W76456   8.897  33.028   3.666
12524W        W76457   3.238   4.759  12.873
12525W        W76458  29.999   3.271   1.785
12526W        W76459  31.073   1.882   4.713
12527W        W76460  11.196   9.280  14.493
12528W        W76461  37.357  39.848  13.344
12529W        W76462  31.940  38.399   2.852
12530W        W76463  20.531   1.408   1.401
12531W        W76464   4.312  26.584  14.513
12532W        W76465   8.346  24.710   2.329
12533W        W76466  40.341   4.303  11.032
12534W        W76467  41.401  37.539  12.951
12535W        W76468  41.371  15.237  14.315
12536W        W76469   4.375   8.225  13.316
12537W        W76470  19.263  26.980   1.895
12538W        W76471  39.946   7.766  11.080
12539W        W76472  23.692  14.658  14.369
12540W        W76473   2.733  25.558  11.570
12541W        W76474  41.373  40.853   0.780
12542W        W76475  21.610  37.977   3.323
12543W        W76476  42.883  28.547  11.942
12544W        W76477   5.274  29.025   2.390
12545W        W76478  26.114   6.685   1.243
12546W        W76479  12.200  43.954  10.572
12547W        W76480  43.442   6.778  11.458
12548W        W76481   8.200  17.594  14.315
12549W        W76482  21.116  22.613   4.811
12550W        W76483  30.032  20.064  14.350
12551W        W76484   2.826  18.191  11.994
12552W        W76485  18.623  27.555   1.273
12553W        W76486  23.621  37.936  10.537
12554W        W76487   0.347  23.030   4.286
12555W        W76488   6.204  37.925   0.312
12556W        W76489  18.266  43.349   4.204
12557W        W76490   3.837  41.417  14.935
12558W        W76491  44.007  11.262  14.784
12559W        W76492  11.815  30.572   2.723
12560W        W76493   5.868  16.805   2.792
12561W        W76494  34.049  44.328   0.750
12562W        W76495  29.466  25.468   2.814
12563W        W76496  11.263  23.017   0.885
12564W        W76497   8.820  12.176  12.045
12565W        W76498   5.831  11.860   2.193
12566W        W76499  14.631  14.832   2.884
12567W        W76500  20.769  40.526   2.187
12568W        W76501  11.171  18.736   0.885
12569W        W76502  17.706  44.870  11.479
12570W        W76503  43.922   5.431  10.479
12571W        W76504  10.738   7.843  14.473
12572W        W76505  17.153  22.552   2.876
12573W        W76506   5.840  42.368  12.914
12574W        W76507  15.678  18.201   1.911
12575W        W76508  25.643  40.831   3.242
12576W        W76509   7.236  16.716   1.700
12577W        W76510  22.217  30.488  12.070
12578W        W76511  30.524   9.682   0.924
12579W        W76512   0.934  40.379  13.377
12580W        W76513  33.101   1.977   4.779
12581W        W76514  16.180  21.019  11.599
12582W        W76515  32.414  10.634  10.421
12583W        W76516  26.014  41.790  10.575
12584W        W76517  44.855  21.234   9.975
12585W        W76518  36.022  33.429   1.919
12586W        W76519  24.673  28.128  12.363
12587W        W76520  42.355   3.403  11.892
12588W        W76521  12.750  40.483  12.868
12589W        W76522   0.889  41.509   2.385
12590W        W76523   8.311  29.937  13.306
12591W        W76524   2.448  23.682   3.789
12592W        W76525  42.363  24.119  10.415
12593W        W76526  25.046  38.922   3.293
12594W        W76527  24.489  14.272   0.445
12595W        W76528   8.678  25.541   0.817
12596W        W76529  23.733   4.873   0.361
12597W        W76530  28.999  24.118   1.821
12598W        W76531   6.311  40.411   3.770
12599W        W76532  37.412  43.952   2.298
12600W        W76533  13.323  19.570   0.793
12601W        W76534  26.151  42.803  12.482
12602W        W76535  37.391  43.007   0.431
12603W        W76536  26.555   0.488   5.133
12604W        W76537  41.821  40.805  13.905
12605W        W76538  29.940  39.466   0.344
12606W        W76539  16.154  44.835   0.377
12607W        W76540  33.496  32.971  14.998
12608W        W76541  14.810  21.226   4.330
12609W        W76542  41.930  24.708  11.582
12610W        W76543  26.598  34.039   4.671
12611W        W76544   5.781  19.094   2.758
12612W        W76545  39.431  18.554   3.178
12613W        W76546  36.958   4.215  13.391
12614W        W76547  26.955  34.866   2.236
12615W        W76548  19.261  20.241   2.364
12616W        W76549  43.346  10.249  13.848
12617W        W76550  35.416   3.870  11.889
12618W        W76551  40.509  29.075   0.275
12619W        W76552  19.082  13.198   4.258
12620W        W76553  21.609   8.329   0.829
12621W        W76554  38.915  26.010   0.732
12622W        W76555  43.771  32.481  10.957
12623W        W76556  23.126  37.540  11.593
12624W        W76557  21.745   1.844  14.791
12625W        W76558  31.625  37.994   4.821
12626W        W76559  25.699  10.350   4.817
12627W        W76560  13.805  36.946  13.410
12628W        W76561  22.041  38.918  10.632
12629W        W76562  11.855  20.179   1.753
12630W        W76563  28.490  32.483   1.706
12631W        W76564   1.749  38.514   1.403
12632W        W76565  36.385   6.287  11.913
12633W        W76566  32.423  42.850  14.478
12634W        W76567   9.712  10.801   4.731
12635W        W76568  41.844  29.522   0.457
12636W        W76569  19.152  15.092  12.534
12637W        W76570  28.544  27.014   1.381
12638W        W76571  20.542  38.521  11.034
12639W        W76572   9.871  32.391  14.482
12640W        W76573   3.914  30.546   3.227
12641W        W76574  17.193  10.709   0.367
12642W        W76575  39.533  21.575  13.523
12643W        W76576  34.073   0.906   0.909
12644W        W76577  33.983  21.036  14.336
12645W        W76578  26.641  31.547   3.260
12646W        W76579   7.768  22.139  14.513
12647W        W76580  24.014   0.808  12.549
12648W        W76581  17.106  18.645  10.127
12649W        W76582   7.363  14.650  14.469
12650W        W76583  16.177  32.487   1.452
12651W        W76584  31.918   0.820   5.200
12652W        W76585  13.662  21.756  14.399
12653W        W76586  29.031  13.233  13.953
12654W        W76587  41.411   8.273  13.349
12655W        W76588  16.303  27.029  13.926
12656W        W76589  11.247   8.165   3.774
12657W        W76590   3.442  15.201   3.349
12658W        W76591  21.538  36.851   0.832
12659W        W76592  40.411  23.649  11.432
12660W        W76593  15.270  29.135   2.411
12661W        W76594  26.492  23.031   3.311
12662W        W76595  27.495  11.704  11.371
12663W        W76596  33.881  37.365   1.754
12664W        W76597  14.327  36.897  11.994
12665W        W76598  24.076  24.487  13.381
12666W        W76599   5.376  27.176  14.387
12667W        W76600  26.104  38.865  14.916
12668W        W76601  35.573   2.833  12.075
12669W        W76602   6.906   5.724   4.280
12670W        W76603  11.647  15.691  12.955
12671W        W76604  12.793  10.335  12.356
12672W        W76605  36.841  14.702  12.352
12673W        W76606  14.236  34.049  12.005
12674W        W76607  43.306  26.602   1.741
12675W        W76608  26.529  40.806   4.821
12676W        W76609  40.893  24.635  10.566
12677W        W76610   9.184   4.759  12.921
12678W        W76611   8.300  26.058   5.166
12679W        W76612  17.282  27.517  12.525
12680W        W76613  12.620  16.283   3.774
12681W        W76614  10.267  15.209   2.665
12682W        W76615  36.857   9.283  14.860
12683W        W76616   4.737   7.714  13.034
12684W        W76617   2.948  39.953   3.333
12685W        W76618  10.761  43.012   3.652
12686W        W76619  38.423  18.236  12.365
12687W        W76620   9.706  21.595  12.897
12688W        W76621  28.050   7.768  11.031
12689W        W76622   0.365  37.426  10.431
12690W        W76623  38.394  25.089   0.852
12691W        W76624  36.411  28.161  14.834
12692W        W76625  25.561  33.552  14.288
12693W        W76626   0.488   6.419   3.348
12694W        W76627  28.590  29.013   3.278
12695W        W76628  37.420  39.030  13.514
12696W        W76629  35.394  40.869  13.040
12697W        W76630  24.496  25.137  12.350
12698W        W76631  12.281  15.284  12.525
12699W        W76632  18.196  37.030   4.279
12700W        W76633   1.475  22.695  13.340
12701W        W76634  30.513  44.961   1.449
12702W        W76635   8.319  22.103   4.229
12703W        W76636  43.465   2.752  13.815
12704W        W76637  13.735  36.071  12.471
12705W        W76638  33.522   6.775  13.494
12706W        W76639  39.823   5.246   3.380
12707W        W76640  14.738  15.726  11.576
12708W        W76641  12.614  18.546  13.939
12709W        W76642  25.569  40.016  12.062
12710W        W76643  10.722   1.393  14.905
12711W        W76644  18.065  10.675  12.939
12712W        W76645  35.541  41.786  10.988
12713W        W76646  42.475  38.890   4.324
12714W        W76647  34.589  20.100   3.814
12715W        W76648  33.477   5.904   4.727
12716W        W76649  23.207  19.078   0.425
12717W        W76650  20.107  22.244  12.864
12718W        W76651   7.817   1.764  13.509
12719W        W76652  24.127   8.330   4.717
12720W        W76653  34.482  27.024   2.305
12721W        W76654  42.361  15.248  11.930
12722W        W76655  28.501   7.373   4.615
12723W        W76656  28.614  31.048   0.286
12724W        W76657  15.599   7.805   0.333
12725W        W76658   0.948   8.861  11.491
12726W        W76659   2.337  10.840  11.022
12727W        W76660  33.971  11.297   2.195
12728W        W76661  29.470  15.307  12.415
12729W        W76662   2.438  21.573  11.974
12730W        W76663  11.857   5.272   1.888
12731W        W76664  25.562   3.840  11.879
12732W        W76665  15.646  29.023  13.942
12733W        W76666  39.420  24.618  14.833
12734W        W76667  41.309  44.774   1.900
12735W        W76668  19.702  21.041  14.851
12736W        W76669  43.489  26.971  11.559
12737W        W76670  16.591  38.933  13.487
12738W        W76671   2.773   7.212  13.911
12739W        W76672  37.945  15.097  14.359
12740W        W76673  22.639  11.363  11.113
12741W        W76674  12.207  15.586   3.794
12742W        W76675  34.105  20.697   2.752
12743W        W76676  16.201  14.745  11.961
12744W        W76677  39.009  26.525  11.075
12745W        W76678  24.703  29.131   0.397
12746W        W76679  29.950  38.838   3.276
12747W        W76680  34.556  28.681  13.808
12748W        W76681   9.669  27.961   2.321
12749W        W76682  43.947  25.110  14.012
12750W        W76683  25.578  40.510  11.907
12751W        W76684  44.846  34.914  11.416
12752W        W76685   4.353   7.284   4.677
12753W        W76686  19.573  17.127  11.955
12754W        W76687  43.950  16.286  12.088
12755W        W76688  12.306  26.656   1.382
12756W        W76689  44.794  43.398  11.460
12757W        W76690  25.101  38.868   0.815
12758W        W76691  41.504  31.646  13.985
12759W        W76692  35.950  24.681  14.850
12760W        W76693  33.544  34.593   4.218
12761W        W76694  38.420  38.325  11.397
12762W        W76695   7.756  20.726   0.272
12763W        W76696   2.860   5.759   1.225
12764W        W76697  41.485  32.430   4.740
12765W        W76698   9.362  28.099   0.909
12766W        W76699  21.150  13.713   2.863
12767W        W76700  43.873  34.525  14.367
12768W        W76701  15.240   7.791   3.272
12769W        W76702  40.516  11.723  11.464
12770W        W76703  42.493  35.000  11.890
12771W        W76704  42.447   8.787   3.697
12772W        W76705  12.358  43.840  13.538
12773W        W76706  31.052  41.294  14.426
12774W        W76707  44.789  27.687   2.807
12775W        W76708  25.534   1.789   4.799
12776W        W76709  17.121  31.638   1.324
12777W        W76710  22.619  34.418   1.816
12778W        W76711   1.401  24.982  13.347
12779W        W76712  31.995  35.422   1.235
12780W        W76713  12.709  36.879   0.265
12781W        W76714  24.019  41.794  11.560
12782W        W76715  44.879   6.830  12.538
12783W        W76716  15.681   3.897   3.703
12784W        W76717  19.771  41.325  11.501
12785W        W76718  43.963   7.742   2.360
12786W        W76719  23.010   3.778   3.220
12787W        W76720   9.259   5.858   1.340
12788W        W76721  19.733   1.256   0.902
12789W        W76722  32.014  25.611  12.347
12790W        W76723  39.548  22.082  14.956
12791W        W76724  39.529  16.767   1.366
12792W        W76725  20.629   3.445  14.384
12793W        W76726   7.709  31.414  14.896
12794W        W76727  10.180   4.926   3.266
12795W        W76728  36.870  11.253   4.149
12796W        W76729  16.287  33.972   4.631
12797W        W76730  43.835  17.623   2.894
12798W        W76731  28.592   1.344   4.713
12799W        W76732  11.298  38.948  14.953
12800W        W76733  22.079  33.938  11.075
12801W        W76734  39.458   1.848  14.330
12802W        W76735  19.174  26.990   4.344
12803W        W76736  24.158  17.237  11.903
12804W        W76737  26.702  18.205  14.293
12805W        W76738  29.165  12.322  13.330
12806W        W76739  39.521   3.929  14.402
12807W        W76740   9.832  44.964   0.459
12808W        W76741  32.974  16.296   0.747
12809W        W76742   2.728  24.546  10.448
12810W        W76743   0.315  18.079   1.394
12811W        W76744  28.982   7.349   0.879
12812W        W76745  15.807  12.668   3.755
12813W        W76746  38.879  24.601  14.801
12814W        W76747  11.643  17.600  14.472
12815W        W76748  23.128  37.847  11.005
12816W        W76749   6.786  28.170  11.938
12817W        W76750  25.473  30.459   3.328
12818W        W76751  19.149  44.766  11.424
12819W        W76752  10.265   3.848   0.927
12820W        W76753  44.354  13.154   2.323
12821W        W76754  20.207   0.397  11.524
12822W        W76755  43.998  22.644   3.665
12823W        W76756  43.395  39.559   1.869
12824W        W76757  44.372  24.649   3.695
12825W        W76758  16.697   3.768   1.407
12826W        W76759  11.662  31.429   2.405
12827W        W76760   2.302   5.778   4.682
12828W        W76761  30.001   7.207   0.810
12829W        W76762   4.861  42.317   2.195
12830W        W76763   1.427  26.663   1.795
12831W        W76764  23.528  37.348   0.425
12832W        W76765  39.061  32.608   1.381
12833W        W76766   5.427  23.732   1.261
12834W        W76767  17.699  33.912   4.632
12835W        W76768   0.888  22.702   0.966
12836W        W76769  29.956  20.647   2.290
12837W        W76770  21.024  39.494  11.932
12838W        W76771  27.504  30.469   2.409
12839W        W76772   9.874  23.085   9.470
12840W        W76773  34.948  15.607  13.372
12841W        W76774   1.432  43.955  14.295
12842W        W76775  33.059   0.761  14.977
12843W        W76776   3.782  32.915   4.161
12844W        W76777  38.028  31.526   4.162
12845W        W76778  34.411  31.140   2.335
12846W        W76779   0.396  33.061   0.468
12847W        W76780  36.511  39.507   4.173
12848W        W76781  29.041  16.598  14.290
12849W        W76782  31.557  10.358  11.950
12850W        W76783  23.626   4.716  13.822
12851W        W76784   4.233   2.384   1.253
12852W        W76785  43.012  29.962  13.046
12853W        W76786  36.534  37.928  13.053
12854W        W76787   6.692  15.083   5.216
12855W        W76788  27.586   3.932  10.912
12856W        W76789  10.348  32.918  13.806
12857W        W76790  16.586   0.490   4.341
12858W        W76791  31.025   4.385  13.025
12859W        W76792  43.373  40.538  12.485
12860W        W76793  33.622  29.069   3.369
12861W        W76794   5.815  17.174  11.501
12862W        W76795  29.006   9.272  10.987
12863W        W76796  26.126  44.365  14.339
12864W        W76797  27.470   5.199  11.094
12865W        W76798   2.907  29.544   2.382
12866W        W76799  43.930  29.146  13.838
12867W        W76800  33.516  10.280   0.781
12868W        W76801  40.339  39.398   4.275
12869W        W76802  25.068   0.274   5.091
12870W        W76803  15.290  22.742   3.634
12871W        W76804  29.449  20.199   0.464
12872W        W76805  41.330  38.860   1.869
12873W        W76806  30.650  42.286  11.609
12874W        W76807  19.178  32.905  14.809
12875W        W76808  44.942   0.905  13.030
12876W        W76809  34.604  43.298  12.357
12877W        W76810  19.230  36.462  10.639
12878W        W76811  26.089   8.663  13.957
12879W        W76812  42.427   9.876   4.324
12880W        W76813   9.232  12.352   0.282
12881W        W76814  27.955  16.679   2.195
12882W        W76815  37.396  38.505  13.309
12883W        W76816  29.621  41.476   9.974
12884W        W76817  33.516  18.185   0.850
12885W        W76818  32.415   4.840   1.390
12886W        W76819  23.510   5.765  13.309
12887W        W76820  13.296  28.631   4.154
12888W        W76821   7.217  41.005  14.281
12889W        W76822  12.239  24.992   3.327
12890W        W76823   4.843   7.869  12.067
12891W        W76824  17.192   9.752  13.939
12892W        W76825  29.636  13.688  11.876
12893W        W76826   8.187   9.156  13.831
12894W        W76827  12.803  13.664   2.862
12895W        W76828  23.732  23.595  14.980
12896W        W76829  35.380  42.804  11.078
12897W        W76830  39.942   5.815  14.790
12898W        W76831   9.291   3.713  11.937
12899W        W76832  16.230  32.125  13.491
12900W        W76833  42.860  17.737  14.289
12901W        W76834  17.784  35.461  13.021
12902W        W76835  26.953  41.877   2.704
12903W        W76836  10.284   5.276   0.268
12904W        W76837  26.030   3.832  14.945
12905W        W76838  23.015  41.326   1.357
12906W        W76839  25.609  17.668  13.836
12907W        W76840  27.108  13.259   0.400
12908W        W76841  11.316  25.015  11.113
12909W        W76842  10.738   8.713   0.741
12910W        W76843  41.436  26.513  13.492
12911W        W76844  13.331  14.249  14.027
12912W        W76845  26.989  43.329  13.437
12913W        W76846  44.266  16.084  14.905
12914W        W76847  38.894  15.136  14.811
12915W        W76848  26.510  37.842  12.877
12916W        W76849  42.922  26.674   3.331
12917W        W76850  34.432  39.487  13.454
12918W        W76851   5.399   0.349  12.404
12919W        W76852  34.866   5.390   2.682
12920W        W76853   9.274  16.295   2.352
12921W        W76854  10.674   3.732   4.152
12922W        W76855   7.304   7.735   1.694
12923W        W76856  12.165  25.070  13.362
12924W        W76857  14.719  44.304   0.314
12925W        W76858  19.670  12.327   1.893
12926W        W76859  39.441  40.846  13.394
12927W        W76860  37.553   9.216  13.468
12928W        W76861  25.029  23.049   0.284
12929W        W76862  18.647  19.132   3.685
12930W        W76863  10.315  15.242  10.974
12931W        W76864  42.932  18.731  13.520
12932W        W76865  32.983  44.390  12.555
12933W        W76866  16.211  22.599   2.265
12934W        W76867  26.966  13.843   1.232
12935W        W76868  39.821  32.891  11.992
12936W        W76869  39.558   8.338  13.541
12937W        W76870  14.635   6.743   4.120
12938W        W76871   7.686   2.922   0.870
12939W        W76872  14.219  28.637   1.926
12940W        W76873   2.277  24.582  11.101
12941W        W76874  17.282  38.944   4.778
12942W        W76875   3.427  37.556   0.949
12943W        W76876  41.867  36.069  12.355
12944W        W76877  20.167  24.697  11.449
12945W        W76878  10.775  32.418  10.969
12946W        W76879  13.279  16.646   2.219
12947W        W76880  19.107  30.475   0.896
12948W        W76881  33.940  22.120   2.344
12949W        W76882   0.415  31.101   4.658
12950W        W76883  10.714  29.086  11.462
12951W        W76884   7.217  44.432   2.402
12952W        W76885  31.922   7.911  11.582
12953W        W76886  22.692  35.426  13.316
12954W        W76887  29.665  27.133   3.288
12955W        W76888  16.759  15.191   3.758
12956W        W76889  11.806  40.051   3.254
12957W        W76890  11.766  32.522   4.817
12958W        W76891  41.488  10.358  13.833
12959W        W76892  21.544   4.833   3.334
12960W        W76893  37.454  34.376  14.319
12961W        W76894  34.465   5.746  13.974
12962W        W76895  23.602  36.441   4.237
12963W        W76896  43.278   1.945  14.328
12964W        W76897  23.094  18.204   3.737
12965W        W76898   7.728   3.903  14.387
12966W        W76899  34.965  15.723  10.429
12967W        W76900  13.213   0.779   0.742
12968W        W76901   2.793  16.810  14.952
12969W        W76902   1.870  21.626   1.232
12970W        W76903  13.173  41.892   2.784
12971W        W76904   1.255  18.154  13.795
12972W        W76905  28.147  29.424   4.324
12973W        W76906  28.183  41.899  12.095
12974W        W76907  20.100  26.586   1.388
12975W        W76908  28.571   2.734  13.814
12976W        W76909  18.776  17.789   4.222
12977W        W76910  11.130   0.253   3.688
12978W        W76911  20.184  10.756   3.724
12979W        W76912  41.943   5.314   3.381
12980W        W76913  40.020   8.717  10.949
12981W        W76914  14.118   6.345  11.979
12982W        W76915   7.808  16.165  14.275
12983W        W76916  36.457  30.560   4.830
12984W        W76917  43.424  27.176   3.792
12985W        W76918  25.518  10.332   3.344
12986W        W76919  36.080   4.392  12.345
12987W        W76920  17.770  25.574  11.979
12988W        W76921  18.772  29.120  12.480
12989W        W76922  25.002  40.329   3.176
12990W        W76923  11.237  31.028  11.997
12991W        W76924  27.001  44.881   0.755
12992W        W76925   0.485  42.787   3.290
12993W        W76926  21.149  19.664   3.675
12994W        W76927  23.579   1.739   2.246
12995W        W76928   8.387  20.750   0.310
12996W        W76929  39.007  39.372   2.784
12997W        W76930  26.108  33.565  12.951
12998W        W76931  12.234   8.403  10.472
12999W        W76932  10.190  43.449  12.555
13000W        W76933  36.478  26.963  12.439
13001W        W76934   6.887  13.247  11.026
13002W        W76935   2.790  28.526  14.841
13003W        W76936   3.842  41.484   3.230
13004W        W76937  18.080  38.840  14.816
13005W        W76938  11.860  14.653   4.237
13006W        W76939  10.288   2.382  11.869
13007W        W76940  29.512  41.982  12.378
13008W        W76941   0.422  24.100  10.895
13009W        W76942   4.739  43.907  10.593
13010W        W76943  12.186  41.467  12.964
13011W        W76944  14.247  30.461   3.679
13012W        W76945  27.147  11.299  10.097
13013W        W76946  40.487   2.439  14.376
13014W        W76947  32.911  44.866   2.241
13015W        W76948  35.488  43.805   0.402
13016W        W76949  13.702  41.794  13.835
13017W        W76950  32.436  36.495   2.208
13018W        W76951  20.264  27.541  11.538
13019W        W76952  20.043  34.392  12.845
13020W        W76953  32.928  29.062   3.333
13021W        W76954   6.818  17.801  10.627
13022W        W76955   3.246  42.945   4.194
13023W        W76956  36.423  24.501   0.941
13024W        W76957  23.185  32.623  13.043
13025W        W76958  29.929  30.600   2.196
13026W        W76959  13.158   4.739  14.916
13027W        W76960  32.507   6.261   4.635
13028W        W76961  11.338   8.180   1.391
13029W        W76962  41.302  25.699  14.775
13030W        W76963   3.255  25.088  13.516
13031W        W76964  23.635  26.462   2.841
13032W        W76965  42.000   3.390  14.789
13033W        W76966  34.539  34.573   3.353
13034W        W76967  36.353   4.228  13.390
13035W        W76968  41.037   7.412  10.958
13036W        W76969   7.675  32.620  12.858
13037W        W76970  36.458  36.384   4.754
13038W        W76971  38.429  16.715   3.757
13039W        W76972  21.584  37.960   1.404
13040W        W76973  25.017   4.898   4.292
13041W        W76974  44.462  34.059  12.359
13042W        W76975  28.164  15.237  10.539
13043W        W76976  37.555  44.998  14.401
13044W        W76977  42.426  25.584  12.376
13045W        W76978  27.666  27.994  10.603
13046W        W76979  40.479   8.693  12.983
13047W        W76980  44.468  35.549  12.080
13048W        W76981  20.213  27.474  14.871
13049W        W76982  27.662  43.004  13.323
13050W        W76983  43.410  22.663  12.902
13051W        W76984  30.437  24.496  12.389
13052W        W76985  39.483  19.756   1.702
13053W        W76986  17.602   3.906  13.995
13054W        W76987  42.503  44.932   0.791
13055W        W76988  18.574  44.402  11.856
13056W        W76989  10.216  14.658   1.451
13057W        W76990  41.791  15.216  12.505
13058W        W76991  23.156  35.875  12.061
13059W        W76992  18.592  24.211  10.526
13060W        W76993  21.250   3.317   4.764
13061W        W76994  16.747  12.681   1.867
13062W        W76995  16.703   7.878   2.402
13063W        W76996  43.819   6.819   3.313
13064W        W76997  38.535  29.108   4.190
13065W        W76998  12.264  20.644   3.378
13066W        W76999   0.781  19.533  11.970
13067W        W77000  25.710   7.236  11.591
13068W        W77001   5.328  30.023  13.317
13069W        W77002   3.271  34.540   2.745
13070W        W77003  26.472   3.882   3.648
13071W        W77004  15.246  12.750   3.718
13072W        W77005  12.213  34.095  14.988
13073W        W77006   0.746  40.858  13.454
13074W        W77007  35.393  27.946   0.882
13075W        W77008  22.075   0.947  11.601
13076W        W77009  41.465  24.541   3.831
13077W        W77010   6.813  33.060   3.378
13078W        W77011  20.107  39.942   2.400
13079W        W77012  44.969   5.383   1.357
13080W        W77013  24.534  17.154   3.820
13081W        W77014   6.858   7.667  13.487
13082W        W77015  40.021   8.310   3.275
13083W        W77016   9.360   7.256   4.174
13084W        W77017  13.137  18.068   1.770
13085W        W77018  37.998  34.976  11.039
13086W        W77019  20.586  12.184   3.795
13087W        W77020  11.685  21.055  14.406
13088W        W77021   3.274   3.789  10.535
13089W        W77022  20.728  41.857   1.799
13090W        W77023  28.037  26.535   1.428
13091W        W77024  44.438  17.199  10.476
13092W        W77025   8.847  38.387   3.753
13093W        W77026   5.895  38.028   2.895
13094W        W77027  30.546  36.034  10.485
13095W        W77028  43.303  39.358  11.082
13096W        W77029   1.790  38.994  10.431
13097W        W77030  43.414  22.118  12.921
13098W        W77031  39.498  12.119   4.715
13099W        W77032  37.079  42.486   3.775
13100W        W77033   9.765  37.976  14.427
13101W        W77034  43.910  35.965   2.284
13102W        W77035   2.907  36.079  12.908
13103W        W77036  43.311  44.485   4.756
13104W        W77037  36.996  31.114  11.082
13105W        W77038   6.255  44.768   2.866
13106W        W77039  19.718   1.743  13.441
13107W        W77040  34.521  25.480   3.296
13108W        W77041  42.419  42.852  11.106
13109W        W77042  38.415   1.744  13.882
13110W        W77043   9.748  23.628  11.489
13111W        W77044  20.043  34.933   1.339
13112W        W77045  15.689  10.660  11.423
13113W        W77046  36.961  34.895  12.828
13114W        W77047  38.995  22.997   0.352
13115W        W77048  28.557  12.285   4.260
13116W        W77049  44.316  25.614   1.294
13117W        W77050  34.586   7.375   3.179
13118W        W77051  33.943  19.068  13.412
13119W        W77052  42.024  13.226   0.422
13120W        W77053  37.372  14.733  13.403
13121W        W77054  21.055  35.542  14.792
13122W        W77055  19.713  21.528   0.847
13123W        W77056  25.512  30.119   0.839
13124W        W77057  33.105   6.268  13.430
13125W        W77058  43.875   4.872   0.735
13126W        W77059  24.115  33.984  12.823
13127W        W77060  31.581   1.467  11.586
13128W        W77061  13.144  15.639  10.586
13129W        W77062  24.037  23.087   3.251
13130W        W77063  38.471  38.826   3.243
13131W        W77064   5.917  31.537   2.710
13132W        W77065  18.107   4.236   4.724
13133W        W77066  23.693   6.417   3.180
13134W        W77067  22.613   5.921  11.529
13135W        W77068  31.062  12.640   4.347
13136W        W77069  28.674   3.753   1.762
13137W        W77070  11.254   8.385  11.007
13138W        W77071  26.074  38.471  14.496
13139W        W77072  32.949   9.301   4.662
13140W        W77073  31.899  32.553  10.926
13141W        W77074   7.673  30.133   2.260
13142W        W77075   2.439  28.996  11.866
13143W        W77076  38.327  33.964  11.518
13144W        W77077  10.653  43.921  13.932
13145W        W77078   9.850  26.112  14.806
13146W        W77079  42.800   1.277  13.382
13147W        W77080  31.593  39.354  11.530
13148W        W77081  37.905  40.451  10.420
13149W        W77082  16.255  35.540   1.874
13150W        W77083  30.024   3.739   0.761
13151W        W77084  25.968  32.115   2.884
13152W        W77085  30.426  32.576  12.372
13153W        W77086  20.196  17.669  11.067
13154W        W77087  31.100  42.012   1.407
13155W        W77088  20.566  27.994   0.917
13156W        W77089  26.023  27.614  13.992
13157W        W77090  10.379   6.292   1.913
13158W        W77091   4.855  30.480   0.463
13159W        W77092  22.217  38.845  11.488
13160W        W77093  25.134  43.942   0.424
13161W        W77094  11.181  18.241   3.158
13162W        W77095  15.297  26.107   1.256
13163W        W77096  35.493  15.664  13.859
13164W        W77097  19.737  42.498   2.853
13165W        W77098  21.559  28.582  13.895
13166W        W77099  13.149   6.189   3.185
13167W        W77100  29.636  31.612   1.704
13168W        W77101   7.356  36.964  14.292
13169W        W77102  18.599   5.791  13.916
13170W        W77103  19.764   2.243   5.140
13171W        W77104  29.087  42.980   4.351
13172W        W77105  20.642   5.385   0.905
13173W        W77106  33.434  29.626  14.965
13174W        W77107  17.230  14.300   4.776
13175W        W77108  19.045  16.672   1.212
13176W        W77109   8.754  22.117  13.987
13177W        W77110   5.795   3.231   1.766
13178W        W77111  27.691  40.055   4.342
13179W        W77112  32.556  16.690  10.951
13180W        W77113   6.297  35.937   4.687
13181W        W77114  14.281  23.033  11.035
13182W        W77115  24.980  36.482   3.348
13183W        W77116  43.907  34.507   3.170
13184W        W77117  22.691  43.806  11.598
13185W        W77118   9.217  36.909   0.773
13186W        W77119  33.379   9.344   1.362
13187W        W77120   1.835  42.889   1.290
13188W        W77121  25.658  35.428  11.422
13189W        W77122   7.867  33.548   3.779
13190W        W77123   4.790  41.473  13.394
13191W        W77124  22.237  10.841   4.181
13192W        W77125   4.937  30.909  13.973
13193W        W77126  35.454  35.909  12.500
13194W        W77127  25.661  18.567   4.230
13195W        W77128  27.972  32.963   1.326
13196W        W77129  31.937  43.276  14.889
13197W        W77130  16.773  11.846   4.613
13198W        W77131  31.900  34.498  13.452
13199W        W77132  26.090  30.421  12.343
13200W        W77133   3.433  27.975   4.795
13201W        W77134  31.541  32.607   2.881
13202W        W77135  11.787  12.639  11.447
13203W        W77136  33.388  18.064   2.663
13204W        W77137  36.034   1.967   0.309
13205W        W77138  18.597   0.753  10.523
13206W        W77139  14.767  17.195  14.997
13207W        W77140  41.328   1.339  14.478
13208W        W77141  19.241   4.892   1.259
13209W        W77142   2.446  33.484   2.413
13210W        W77143   3.783   7.260   4.761
13211W        W77144  29.463  43.418   0.927
13212W        W77145  18.773  30.522   0.938
13213W        W77146  33.593  28.965  14.782
13214W        W77147  15.745  20.034  12.515
13215W        W77148  20.173   9.690   2.813
13216W        W77149   6.381  15.678   0.756
13217W        W77150   2.774  17.600  13.875
13218W        W77151  20.642  18.692  11.394
13219W        W77152  18.771   2.454  14.338
13220W        W77153  43.872  39.043   2.684
13221W        W77154  27.994  42.850   0.373
13222W        W77155  44.974  10.828   2.273
13223W        W77156   4.727   1.281   2.805
13224W        W77157  22.228  26.036   0.736
13225W        W77158  35.521  15.318  11.527
13226W        W77159   3.403   1.317  14.974
13227W        W77160   7.845   3.850  11.106
13228W        W77161  28.152  12.286   2.876
13229W        W77162  15.312  19.107  12.579
13230W        W77163  36.588   4.813   1.313
13231W        W77164  21.589  17.285   4.199
13232W        W77165  30.959  12.170  11.096
13233W        W77166  28.132  14.213   4.770
13234W        W77167  15.248   6.368  12.550
13235W        W77168  12.152  38.571  11.464
13236W        W77169  41.371  36.415  11.927
13237W        W77170  31.626  30.413  10.625
13238W        W77171  33.452  23.128  12.538
13239W        W77172  15.583  28.580  12.372
13240W        W77173  19.688  34.381  14.504
13241W        W77174  32.003  12.730  14.815
13242W        W77175  35.940  43.451   1.770
13243W        W77176  16.104  31.647  10.463
13244W        W77177  27.035   3.727   2.383
13245W        W77178  20.262  41.295   3.652
13246W        W77179   5.739  18.272   0.431
13247W        W77180  40.349  13.300  10.601
13248W        W77181  12.135   5.933  11.991
13249W        W77182  29.442  40.396  10.996
13250W        W77183   8.252  27.508  12.519
13251W        W77184  18.241  26.097   9.937
13252W        W77185  44.479  27.667   3.157
13253W        W77186  10.782  32.110  13.510
13254W        W77187  40.973   6.865   4.600
13255W        W77188  30.020  37.339   1.773
13256W        W77189  28.140  17.200  14.366
13257W        W77190   8.287  22.723  10.914
13258W        W77191  42.349  16.733  10.617
13259W        W77192   3.428  31.581  13.883
13260W        W77193  32.061  25.021  12.944
13261W        W77194  37.077  33.548   4.651
13262W        W77195  33.894  15.123  11.875
13263W        W77196  30.591  32.964  13.317
13264W        W77197  42.995  14.179  10.089
13265W        W77198  26.176   0.427  10.456
13266W        W77199  36.396  33.525   1.396
13267W        W77200  37.980  21.048  13.054
13268W        W77201  24.598  38.956   0.432
13269W        W77202  34.983  32.106   0.307
13270W        W77203  12.299  20.129   0.867
13271W        W77204  25.679  25.157  11.406
13272W        W77205  38.397  25.646  12.090
13273W        W77206  42.914  37.996  14.910
13274W        W77207  43.838  34.429  12.474
13275W        W77208  11.721  32.904  13.365
13276W        W77209  21.017   4.367   1.320
13277W        W77210   7.790  44.366  13.422
13278W        W77211  14.135  36.457  11.061
13279W        W77212   6.339  23.671   9.926
13280W        W77213  20.609  28.505  14.489
13281W        W77214  44.449  27.025  14.006
13282W        W77215   1.387  15.153  10.159
13283W        W77216  42.337  37.860  14.515
13284W        W77217  19.039  27.552   1.295
13285W        W77218   5.871  38.841  14.296
13286W        W77219  42.805  31.014   5.316
13287W        W77220  15.804  22.170  10.096
13288W        W77221   4.268  16.793   2.241
13289W        W77222  31.974  35.428   4.344
13290W        W77223  28.170  20.567  11.871
13291W        W77224  19.159  27.677  14.995
13292W        W77225  42.806   4.240   0.832
13293W        W77226  39.812  44.458  14.457
13294W        W77227  35.884  27.612  11.419
13295W        W77228  20.528  29.645  14.894
13296W        W77229  25.539  19.156  14.759
13297W        W77230  30.027  40.038  11.930
13298W        W77231  15.811  35.883   2.325
13299W        W77232  33.446  31.134   2.370
13300W        W77233   8.389   3.354  14.946
13301W        W77234  25.662  18.067  13.007
13302W        W77235  41.875  23.153   4.300
13303W        W77236  13.767  37.968   3.368
13304W        W77237   5.290  28.075  13.534
13305W        W77238  29.540  36.975   3.694
13306W        W77239  44.353  42.415  12.473
13307W        W77240   5.707  34.456  12.366
13308W        W77241   3.411  27.446   3.296
13309W        W77242  23.589   1.759   3.288
13310W        W77243   0.770  38.897  11.124
13311W        W77244  44.420  18.565  12.425
13312W        W77245  28.961  19.219   1.762
13313W        W77246  15.818  11.127  11.598
13314W        W77247  24.600  14.644   0.954
13315W        W77248   0.955  14.589  12.083
13316W        W77249  34.966  18.212  12.548
13317W        W77250  20.639  27.987  14.945
13318W        W77251   9.350  35.923   2.893
13319W        W77252  15.604  42.801   2.888
13320W        W77253  33.065  35.372  11.947
13321W        W77254  16.308  41.504   3.708
13322W        W77255  16.286  36.385   4.178
13323W        W77256  44.795  30.550  13.428
13324W        W77257   6.804  16.163   4.298
13325W        W77258  41.020  41.292  12.514
13326W        W77259  29.167  11.196   3.657
13327W        W77260   4.328  10.369   0.852
13328W        W77261  17.073  24.527   2.693
13329W        W77262  18.061  18.600   5.647
13330W        W77263  28.134  27.957  14.478
13331W        W77264  33.901  38.960   9.946
13332W        W77265  15.748  43.431   3.654
13333W        W77266  23.068  43.487  11.378
13334W        W77267  10.641  36.907   4.815
13335W        W77268  40.901  39.442   3.837
13336W        W77269   8.324  33.470   1.730
13337W        W77270  41.527   1.765   4.779
13338W        W77271  28.637   2.382  14.881
13339W        W77272  11.237   1.807   0.826
13340W        W77273  31.551   5.749  13.810
13341W        W77274  35.043  31.152   0.258
13342W        W77275   4.928  18.689  11.048
13343W        W77276  26.203   0.773  12.363
13344W        W77277  31.486   2.379  12.026
13345W        W77278   6.344  16.739   0.275
13346W        W77279  36.978  42.959   0.954
13347W        W77280  28.078  22.620   1.342
13348W        W77281   5.333  40.035  10.509
13349W        W77282   6.852  23.642   9.671
13350W        W77283  35.877  14.185  14.782
13351W        W77284   0.323   9.862  12.940
13352W        W77285  11.334  34.491  11.113
13353W        W77286  18.174  11.304  14.307
13354W        W77287   0.396   6.758  13.810
13355W        W77288  40.836   9.191   4.241
13356W        W77289  36.064   1.238  14.386
13357W        W77290   6.687   6.261  12.380
13358W        W77291   4.725  13.631  12.446
13359W        W77292  38.423  22.566  13.507
13360W        W77293  39.414   5.197   3.652
13361W        W77294   4.827  33.380   1.409
13362W        W77295  42.299   7.210  14.367
13363W        W77296  24.072   7.346  12.395
13364W        W77297  26.628  37.541   3.356
13365W        W77298  35.439  11.307   1.321
13366W        W77299  15.318  35.570  13.902
13367W        W77300   2.398   1.904   5.217
13368W        W77301  44.986  18.115   0.474
13369W        W77302   4.866  24.619  13.446
13370W        W77303  29.000  14.186   1.285
13371W        W77304  27.669  11.130  12.499
13372W        W77305  15.768  37.511  10.617
13373W        W77306  44.275  30.142  13.469
13374W        W77307  15.703   8.215   2.748
13375W        W77308  21.704  18.291  14.480
13376W        W77309  18.574  43.370   3.195
13377W        W77310   3.259  20.576   4.269
13378W        W77311  35.438   7.898   0.346
13379W        W77312  23.554  17.605   4.807
13380W        W77313  33.453   7.252   4.634
13381W        W77314  11.145  36.877  14.451
13382W        W77315  32.036   4.313  10.510
13383W        W77316   3.441  13.125   0.886
13384W        W77317   1.860  28.108  10.895
13385W        W77318  28.075   3.361   4.825
13386W        W77319   5.793  27.537   0.333
13387W        W77320  22.011  17.088   1.444
13388W        W77321  20.181  24.172  12.921
13389W        W77322  36.555  21.200  13.525
13390W        W77323   0.822  33.027   0.300
13391W        W77324  44.847   7.730   2.845
13392W        W77325  36.917  23.580   3.324
13393W        W77326  36.412   2.426  11.934
13394W        W77327   8.189  39.384  11.082
13395W        W77328   2.363  38.999   5.115
13396W        W77329  44.949  12.759  14.791
13397W        W77330  41.921  21.252  11.950
13398W        W77331  31.567  30.634  13.351
13399W        W77332  16.193   2.389   3.649
13400W        W77333  31.485  22.180   1.400
13401W        W77334  37.008  28.507  13.365
13402W        W77335   5.340   6.398   3.330
13403W        W77336   6.416  26.083   0.295
13404W        W77337  38.542   1.383   0.259
13405W        W77338  10.738  15.645   2.687
13406W        W77339  10.222  11.672   5.104
13407W        W77340  29.432  44.753  13.317
13408W        W77341  40.989  24.194  14.867
13409W        W77342  34.439  11.167  13.316
13410W        W77343  25.137  31.547   4.662
13411W        W77344  25.604  27.184  10.982
13412W        W77345  29.118  31.042   2.850
13413W        W77346  13.689  35.969  11.991
13414W        W77347  40.471   8.386   1.912
13415W        W77348  21.084  21.134   2.759
13416W        W77349   8.742  42.010   4.608
13417W        W77350  15.314  24.119   1.886
13418W        W77351  25.096  31.623   3.791
13419W        W77352   5.218  25.624  12.556
13420W        W77353  19.065  27.083   1.226
13421W        W77354  16.263  23.088  12.951
13422W        W77355   7.370  32.136   4.352
13423W        W77356   1.786   3.760   3.678
13424W        W77357   3.429  21.044  12.482
13425W        W77358  23.102  12.672   1.719
13426W        W77359  43.980  16.705   4.146
13427W        W77360  31.570  14.665   2.208
13428W        W77361  17.614  16.225   0.380
13429W        W77362  20.564  36.379  14.925
13430W        W77363  25.528   3.455  10.972
13431W        W77364  43.381  30.429  12.945
13432W        W77365  22.666  22.028  11.421
13433W        W77366  40.901  26.133  12.470
13434W        W77367   4.449  37.954  11.486
13435W        W77368  37.959  24.690   3.816
13436W        W77369  31.427  30.075  14.828
13437W        W77370   6.771  27.484  14.432
13438W        W77371   0.267  38.529  14.810
13439W        W77372  36.885  19.603  13.427
13440W        W77373  17.131   3.749   0.273
13441W        W77374  18.055  44.763   4.814
13442W        W77375  20.631  35.028   4.246
13443W        W77376  42.901  32.102  13.915
13444W        W77377  24.536  27.516  11.103
13445W        W77378  29.606   0.435  10.511
13446W        W77379  11.686  38.998  13.495
13447W        W77380  30.652  30.951  12.007
13448W        W77381  11.728  28.106  14.980
13449W        W77382  42.032  11.656   2.373
13450W        W77383   2.770  42.964  14.879
13451W        W77384   4.401  21.190   4.197
13452W        W77385   4.335   0.321   2.332
13453W        W77386  15.684  15.215   1.797
13454W        W77387   0.889  38.976   2.677
13455W        W77388  17.157  19.547  11.068
13456W        W77389  40.414  26.683   3.664
13457W        W77390  14.735  12.721  10.544
13458W        W77391  36.348   1.936  12.923
13459W        W77392  26.587  42.841  12.869
13460W        W77393  13.311  36.926  12.521
13461W        W77394  13.718   4.337  13.002
13462W        W77395  21.552  24.044  13.052
13463W        W77396  38.938  18.060  12.556
13464W        W77397  31.910  16.314  12.523
13465W        W77398  30.976  25.965   0.265
13466W        W77399  34.984   6.274   1.705
13467W        W77400  11.154  40.388   3.146
13468W        W77401  41.000  40.035   4.226
13469W        W77402  24.130  19.187  11.993
13470W        W77403  24.715   0.312   4.139
13471W        W77404  30.147  31.907   2.200
13472W        W77405  36.912   3.934   2.326
13473W        W77406  26.967  42.469  11.886
13474W        W77407  32.541  28.661   3.666
13475W        W77408   6.208  26.552   3.233
13476W        W77409  33.121  23.225  13.356
13477W        W77410  21.701  23.622  10.503
13478W        W77411  12.633  19.740   3.307
13479W        W77412   0.396  18.694  13.916
13480W        W77413  30.419  35.466  10.942
13481W        W77414  19.763  36.527   0.309
13482W        W77415  29.932   7.844  11.035
13483W        W77416  16.684   2.416  12.853
13484W        W77417   0.316  42.014  14.286
13485W        W77418  22.235  15.222  11.414
13486W        W77419  21.587  11.741  13.899
13487W        W77420  25.580  37.455  11.579
13488W        W77421   7.248  14.646  13.541
13489W        W77422  16.126  14.717   2.723
13490W        W77423  33.949   2.766   4.281
13491W        W77424   8.360   2.396  11.125
13492W        W77425   4.782  23.543   5.309
13493W        W77426  43.431  26.698   3.764
13494W        W77427  44.906  15.114  13.897
13495W        W77428  20.693  44.777   3.717
13496W        W77429  44.430  29.662  13.016
13497W        W77430  41.512  14.762  10.536
13498W        W77431  18.181  34.509  12.011
13499W        W77432  24.504   9.323   5.744
13500W        W77433  37.069  26.643  14.450
13501W        W77434  10.791  12.163   4.340
13502W        W77435  11.828  41.296   3.728
13503W        W77436  23.639   2.787  12.949
13504W        W77437   5.812   2.331  11.392
13505W        W77438  43.844  34.008  14.816
13506W        W77439   1.446  41.967   0.865
13507W        W77440   6.682  35.472  14.008
13508W        W77441  19.534  39.865  10.448
13509W        W77442  29.008   3.297  13.970
13510W        W77443   4.718  42.486   1.420
13511W        W77444  28.045  37.442   3.291
13512W        W77445   6.300  16.308  13.352
13513W        W77446  18.570   8.205  11.112
13514W        W77447  26.046   9.328  12.520
13515W        W77448  26.683   3.862  10.440
13516W        W77449  17.660  16.613  10.436
13517W        W77450  39.018  18.154   1.733
13518W        W77451   0.426  32.571   1.866
13519W        W77452  41.503   6.837  14.912
13520W        W77453  29.130  37.412   1.333
13521W        W77454  39.492  32.626   3.669
13522W        W77455  19.247   9.869  12.381
13523W        W77456  38.962  29.625  10.416
13524W        W77457  36.382  10.752  14.997
13525W        W77458  28.032  16.201  13.041
13526W        W77459   5.844  34.100  11.487
13527W        W77460   9.232   6.213   2.396
13528W        W77461  40.015  23.577  11.398
13529W        W77462  30.427  42.314   1.801
13530W        W77463  18.740  10.803  11.025
13531W        W77464  34.970  40.958   2.735
13532W        W77465  22.718  21.060   0.750
13533W        W77466  26.188  33.420   1.747
13534W        W77467   2.939  16.102  13.386
13535W        W77468  19.734  31.494   4.831
13536W        W77469  22.673  44.493   3.850
13537W        W77470  16.606  41.925  13.503
13538W        W77471  27.060  10.166  11.433
13539W        W77472  37.072   8.867   2.300
13540W        W77473   3.885   9.760   3.219
13541W        W77474  18.178  19.621  12.845
13542W        W77475  40.426  30.114  13.514
13543W        W77476   4.818  10.754  12.856
13544W        W77477  27.477  31.921   2.274
13545W        W77478  27.602  38.887  10.459
13546W        W77479  35.109  22.706  12.856
13547W        W77480  19.283  44.324   0.361
13548W        W77481  24.514  21.145   3.788
13549W        W77482   2.896  25.604   3.754
13550W        W77483  22.603  19.226  11.528
13551W        W77484  29.459  35.933  11.394
13552W        W77485   3.351  40.306  13.492
13553W        W77486   3.927  33.552  12.983
13554W        W77487  43.509  26.099   3.646
13555W        W77488  37.544  34.000   3.338
13556W        W77489  39.014  33.547  11.968
13557W        W77490  17.779  26.622   1.864
13558W        W77491  27.964  27.086  10.030
13559W        W77492  36.498  10.830   3.687
13560W        W77493  33.411  31.428  10.078
13561W        W77494   6.746  28.574  12.572
13562W        W77495  33.433  43.874  13.932
13563W        W77496  35.865  26.062  13.459
13564W        W77497  30.650  11.784   0.302
13565W        W77498  42.483   8.186   3.675
13566W        W77499  15.113  17.136  13.895
13567W        W77500  29.094  20.130   1.229
13568W        W77501  37.538  25.607   0.894
13569W        W77502  27.184  39.989  14.435
13570W        W77503  27.612  15.174  14.419
13571W        W77504  42.307  43.923   4.605
13572W        W77505  21.223  28.013  12.851
13573W        W77506  34.601  10.374  11.423
13574W        W77507   8.236  36.535  12.408
13575W        W77508  29.959  27.476  13.316
13576W        W77509  39.438   5.248  13.800
13577W        W77510  12.208  11.764   2.227
13578W        W77511  39.910  24.204   3.244
13579W        W77512   8.212  23.691   2.320
13580W        W77513  25.197  34.429  11.596
13581W        W77514  40.875   9.838   3.733
13582W        W77515  31.153  24.586   3.229
13583W        W77516  20.580  35.464   1.790
13584W        W77517  14.809  15.133   0.843
13585W        W77518  34.502  21.645  13.972
13586W        W77519  40.827   5.919   2.398
13587W        W77520  14.158   3.324   4.216
13588W        W77521  24.008  35.887   1.364
13589W        W77522  30.624  33.606   1.225
13590W        W77523  29.129  17.600   0.732
13591W        W77524   8.899  22.706   0.747
13592W        W77525  10.697   2.783   1.808
13593W        W77526  27.998  40.819   0.881
13594W        W77527   2.285  35.036  14.300
13595W        W77528  15.210  17.743   9.655
13596W        W77529  24.649  40.358  12.446
13597W        W77530  28.045  22.660   4.178
13598W        W77531   8.387  21.676  11.485
13599W        W77532  43.939  15.114   3.196
13600W        W77533  32.481  27.007   1.309
13601W        W77534  31.138   5.900   1.266
13602W        W77535  21.547  20.544  13.463
13603W        W77536  14.696  11.660   1.299
13604W        W77537  36.040  31.507   0.917
13605W        W77538  23.516  16.161   1.851
13606W        W77539  27.675  12.178  14.992
13607W        W77540  31.923   9.377  13.820
13608W        W77541  22.119  13.338  10.919
13609W        W77542   2.304   3.723   2.351
13610W        W77543  23.009  29.126   0.440
13611W        W77544  21.257  22.687  13.830
13612W        W77545  43.447  30.648   1.248
13613W        W77546  26.972  37.448   3.226
13614W        W77547  37.457  40.847   0.263
13615W        W77548  29.525  39.884   2.318
13616W        W77549  17.766  42.419  13.392
13617W        W77550  43.874  24.150   1.838
13618W        W77551  42.305  25.582  11.038
13619W        W77552  12.314  37.346   2.685
13620W        W77553   3.727   3.812  10.478
13621W        W77554  26.593  32.435  10.514
13622W        W77555   9.837  23.042  12.537
13623W        W77556   2.462  27.114   2.700
13624W        W77557  11.217  40.541   2.271
13625W        W77558  36.592   2.321   0.322
13626W        W77559  44.266  25.138  13.371
13627W        W77560  12.241  23.108  14.795
13628W        W77561  31.087  36.890   3.358
13629W        W77562  27.560  32.569  13.816
13630W        W77563  42.300  14.177  14.493
13631W        W77564  15.198  23.095  14.865
13632W        W77565  13.277  32.930   2.185
13633W        W77566   2.874  19.718   3.177
13634W        W77567  33.071  13.615   1.410
13635W        W77568   3.877   1.977   0.244
13636W        W77569  26.039  20.532   2.253
13637W        W77570  31.911  32.398  14.441
13638W        W77571  28.115  38.497   3.188
13639W        W77572   9.287  43.862  14.342
13640W        W77573  28.091  10.332  12.350
13641W        W77574  24.154  29.444   2.717
13642W        W77575  10.328  29.584   2.836
13643W        W77576  10.224  41.498   3.365
13644W        W77577   6.907  22.553   0.748
13645W        W77578  30.028  23.068  13.063
13646W        W77579   7.256  44.357   1.435
13647W        W77580  35.362  19.760  11.522
13648W        W77581  35.016  22.703   1.764
13649W        W77582  18.685  35.456   1.372
13650W        W77583  34.978  36.379  14.762
13651W        W77584  16.712  37.470  14.816
13652W        W77585   9.876  42.289  12.921
13653W        W77586  10.280  38.925   1.763
13654W        W77587   4.431  34.417   2.279
13655W        W77588   2.872   5.728  10.571
13656W        W77589  19.610   9.655   4.208
13657W        W77590  12.350  24.553  13.841
13658W        W77591   0.855  16.273  12.043
13659W        W77592   2.319  35.519   4.165
13660W        W77593  22.584   9.720   4.258
13661W        W77594  35.436  16.236  14.000
13662W        W77595  44.273  38.458  14.787
13663W        W77596  12.684  39.493  13.962
13664W        W77597  13.626   6.237  13.449
13665W        W77598   4.327   3.309   5.626
13666W        W77599   2.830  30.974   3.646
13667W        W77600  22.578  37.540   5.137
13668W        W77601  16.318  21.185   4.659
13669W        W77602   5.772   6.277   0.264
13670W        W77603  33.473   4.758   4.754
13671W        W77604  28.111  12.359   0.957
13672W        W77605  38.482   9.349   4.120
13673W        W77606  36.036  38.370   3.776
13674W        W77607  11.152  40.435  11.859
13675W        W77608  16.125  37.890   2.289
13676W        W77609  14.164   1.809   1.292
13677W        W77610  23.670   0.439   3.649
13678W        W77611  26.632  39.964   0.465
13679W        W77612   7.807  17.747  10.457
13680W        W77613   5.818  18.200   1.846
13681W        W77614  12.217  12.719  14.926
13682W        W77615  15.726   1.875   5.112
13683W        W77616  42.291  20.135   1.443
13684W        W77617  18.698   5.841   3.717
13685W        W77618   3.304  33.539  12.836
13686W        W77619  25.058  22.096   3.298
13687W        W77620  35.094   1.792   3.794
13688W        W77621   0.255  16.160  13.992
13689W        W77622  34.914  37.549  14.026
13690W        W77623  29.991  12.173   1.236
13691W        W77624  17.117   5.884   2.338
13692W        W77625  25.683  44.782   1.425
13693W        W77626  33.983  38.930  13.806
13694W        W77627  13.173  15.217   4.705
13695W        W77628  33.532   0.309   3.300
13696W        W77629  29.602  16.146  11.478
13697W        W77630  37.456  12.676  14.319
13698W        W77631  22.703  36.547   0.908
13699W        W77632  16.211   4.922   4.245
13700W        W77633  24.716  41.409  14.897
13701W        W77634  32.431  44.355  13.313
13702W        W77635  31.531  16.233   4.748
13703W        W77636  12.830  10.830  10.890
13704W        W77637  28.089   6.387   2.387
13705W        W77638  28.014  23.573   1.809
13706W        W77639  16.712  28.965   2.825
13707W        W77640   7.893  19.653   1.245
13708W        W77641  15.719  11.351  11.885
13709W        W77642  30.644  28.973  12.951
13710W        W77643  28.999  39.904  11.563
13711W        W77644  25.535  41.958   2.364
13712W        W77645  16.189  28.584  14.453
13713W        W77646  38.957   1.846  14.344
13714W        W77647  13.699   6.197   2.286
13715W        W77648   1.973  25.527  11.983
13716W        W77649  43.890   0.789  12.378
13717W        W77650  37.902  39.341  12.451
13718W        W77651  17.250   3.319   2.362
13719W        W77652   4.289  37.990   1.440
13720W        W77653  19.194  24.048  12.339
13721W        W77654  27.170   6.741   0.800
13722W        W77655   8.305  10.810   1.842
13723W        W77656  23.533  23.175  12.457
13724W        W77657  39.551  18.127   2.346
13725W        W77658   1.739  12.342  11.413
13726W        W77659  30.591   3.345   0.767
13727W        W77660  27.686  28.024  13.430
13728W        W77661  21.166  19.717   2.701
13729W        W77662  27.123  42.521   3.249
13730W        W77663   0.900  35.391  10.928
13731W        W77664  23.589   4.282   2.784
13732W        W77665   6.329   0.761  14.839
13733W        W77666  44.927  26.508   2.874
13734W        W77667  43.810   1.928   4.145
13735W        W77668  20.136  28.014   2.274
13736W        W77669  22.030  21.144   1.816
13737W        W77670   9.758   7.288  12.841
13738W        W77671  32.613   0.456   1.852
13739W        W77672  36.993  12.289  11.049
13740W        W77673  17.188  41.356   2.901
13741W        W77674  44.378   4.283  13.404
13742W        W77675  32.100   9.328   1.323
13743W        W77676   3.400  36.416  12.368
13744W        W77677  34.509  13.717  10.583
13745W        W77678  30.110   0.280  11.431
13746W        W77679   3.308  25.019  12.430
13747W        W77680   2.345  14.791  13.540
13748W        W77681   7.358  41.824  13.421
13749W        W77682  10.765  19.754  10.493
13750W        W77683   1.289  21.201   1.379
13751W        W77684  16.723  29.012  12.046
13752W        W77685  42.356   3.739   2.677
13753W        W77686  22.724  17.187   4.233
13754W        W77687  42.781  43.335   2.855
13755W        W77688  14.667   7.864   0.787
13756W        W77689   5.698   8.837  14.009
13757W        W77690  30.560   2.341  14.512
13758W        W77691  13.212  40.035   1.712
13759W        W77692  19.561  38.417  12.524
13760W        W77693  42.851  10.379   2.338
13761W        W77694   8.761   9.378  11.417
13762W        W77695  36.350   3.830   2.409
13763W        W77696  24.172   0.487  12.882
13764W        W77697  10.257  26.684   3.850
13765W        W77698  35.474  33.442   4.795
13766W        W77699  34.040  42.780   3.787
13767W        W77700  21.605  40.854   0.772
13768W        W77701  24.623  23.524   0.881
13769W        W77702  19.567   7.267  12.038
13770W        W77703  44.886   0.330  10.562
13771W        W77704  31.097   0.280   2.260
13772W        W77705  33.120   9.730  14.933
13773W        W77706   1.267  25.550  11.863
13774W        W77707  30.475   6.224  14.452
13775W        W77708  43.905  32.427   2.790
13776W        W77709  36.556   1.776   4.825
13777W        W77710  27.988   6.331   4.612
13778W        W77711  36.556  36.937  14.461
13779W        W77712  41.960  13.305   3.688
13780W        W77713  28.931  32.070  13.412
13781W        W77714  31.431   3.347   1.742
13782W        W77715  25.676  23.697  13.468
13783W        W77716   1.862  22.549  14.386
13784W        W77717  37.837   3.908  13.852
13785W        W77718  28.142  12.624   4.632
13786W        W77719  11.197  26.192  13.025
13787W        W77720   0.848  27.616  12.826
13788W        W77721   4.446  24.687  13.912
13789W        W77722  38.830  25.117  11.007
13790W        W77723  22.695   3.250   5.260
13791W        W77724  39.503  20.050  10.445
13792W        W77725  10.807   0.875  12.460
13793W        W77726  24.687  41.373  11.108
13794W        W77727  12.715  16.205  13.394
13795W        W77728   1.254   4.294  13.388
13796W        W77729   1.900  12.794   1.922
13797W        W77730  30.933  40.865   2.387
13798W        W77731  13.620  10.368   1.907
13799W        W77732   7.729  29.921  12.362
13800W        W77733   2.958  37.051   2.827
13801W        W77734   5.419  27.576  14.411
13802W        W77735  38.935   4.710   5.282
13803W        W77736  37.956  15.261   0.310
13804W        W77737  15.272   1.732  11.445
13805W        W77738   8.172  38.004  12.885
13806W        W77739   8.664  44.815   0.757
13807W        W77740   1.803  17.741  13.497
13808W        W77741  40.876  11.274  14.807
13809W        W77742  31.571  14.300   3.654
13810W        W77743  38.397   6.394  14.925
13811W        W77744  11.785  41.524  11.435
13812W        W77745  23.537  41.986   3.637
13813W        W77746  11.330  19.209  10.451
13814W        W77747  10.679   5.360  12.509
13815W        W77748  42.801  34.415  13.800
13816W        W77749   8.727  18.770  12.399
13817W        W77750  20.077  13.663   0.859
13818W        W77751   0.425  31.992   3.700
13819W        W77752   4.307  19.198  12.884
13820W        W77753  28.600  17.128   3.162
13821W        W77754  38.956  37.984  11.031
13822W        W77755  22.518  15.630  11.446
13823W        W77756  34.597  42.306   4.680
13824W        W77757  34.421  43.462  12.023
13825W        W77758  15.626   4.215   2.890
13826W        W77759  18.785  12.716  12.059
13827W        W77760  19.585   4.357  12.342
13828W        W77761  26.186  37.563   1.301
13829W        W77762   0.494  35.380  12.424
13830W        W77763   7.754  11.851   0.835
13831W        W77764  10.223  29.615   4.714
13832W        W77765  36.972  43.351  11.573
13833W        W77766  28.994  31.122  12.429
13834W        W77767  42.354  12.128  11.534
13835W        W77768  18.142  19.609  10.520
13836W        W77769  33.118  28.588  13.543
13837W        W77770  44.468   1.419  12.362
13838W        W77771  29.575  11.283  13.985
13839W        W77772   4.762   7.221  13.888
13840W        W77773   3.284  30.006   2.679
13841W        W77774  20.613  21.672   1.820
13842W        W77775  27.584  23.184   1.883
13843W        W77776  24.031  36.473  14.864
13844W        W77777  31.071  42.965   0.405
13845W        W77778  19.634  35.071  14.339
13846W        W77779  30.111   3.301   3.257
13847W        W77780  35.514  37.349  12.373
13848W        W77781  40.028  29.143   4.634
13849W        W77782  12.183  18.262   1.345
13850W        W77783  14.203  32.516  13.315
13851W        W77784  14.217  38.045   2.787
13852W        W77785  24.155  25.507   1.451
13853W        W77786  20.141  20.255  12.084
13854W        W77787  18.220  12.332  12.966
13855W        W77788  27.179  18.218  11.513
13856W        W77789  11.714  21.743   2.259
13857W        W77790  41.961  21.633   1.761
13858W        W77791  44.471  33.519   1.291
13859W        W77792   4.717  43.382   3.652
13860W        W77793  23.125  10.156   2.236
13861W        W77794   8.891  30.110  10.567
13862W        W77795  32.559  14.730   0.953
13863W        W77796   3.768   7.251  13.450
13864W        W77797  31.596  23.031  13.444
13865W        W77798  15.748  38.897  14.848
13866W        W77799  25.091  43.920   3.785
13867W        W77800  21.670  34.036   2.312
13868W        W77801   8.754  28.107   1.370
13869W        W77802  30.116   1.905  13.924
13870W        W77803  22.746  10.194   2.675
13871W        W77804  33.897  38.425   2.225
13872W        W77805  35.877  32.420   2.900
13873W        W77806   0.450  25.090   1.451
13874W        W77807   0.951  10.323   3.366
13875W        W77808  35.395  12.141   3.303
13876W        W77809  10.720  13.234  10.412
13877W        W77810  18.787  41.043   2.761
13878W        W77811  26.510  11.327   3.280
13879W        W77812  18.746  35.560   3.723
13880W        W77813  31.462  29.954   2.848
13881W        W77814  16.630  33.431  13.954
13882W        W77815  14.128  28.038  12.353
13883W        W77816  41.791   1.413  13.947
13884W        W77817  35.416  37.968  11.018
13885W        W77818   6.414  11.259  12.456
13886W        W77819  27.615  16.197  14.983
13887W        W77820  14.629  42.977   4.606
13888W        W77821  21.158  41.920   4.238
13889W        W77822   9.338  12.635   0.739
13890W        W77823  40.012  41.916   2.187
13891W        W77824  39.961  11.272  11.950
13892W        W77825   4.327   9.335   0.379
13893W        W77826  14.798  37.863   3.638
13894W        W77827   6.405  41.867   3.168
13895W        W77828  32.074  24.597  14.441
13896W        W77829  34.464  27.164   4.191
13897W        W77830  24.220  40.321  13.930
13898W        W77831  20.536   5.883  11.119
13899W        W77832  28.971  10.336   2.323
13900W        W77833  11.727  10.315   0.444
13901W        W77834   3.915  21.046  13.979
13902W        W77835  22.532  29.136   3.214
13903W        W77836  44.366   0.356  10.588
13904W        W77837   4.768  42.850  14.818
13905W        W77838  23.004  30.073   2.201
13906W        W77839  13.121   2.339   3.307
13907W        W77840  36.576  40.026   0.317
13908W        W77841  22.637  13.744  14.973
13909W        W77842  42.866  41.924   5.221
13910W        W77843  14.175  19.620  14.515
13911W        W77844  21.717  13.330  10.099
13912W        W77845   6.351  12.761   5.110
13913W        W77846   7.210  20.166   1.235
13914W        W77847  23.621  18.726  14.910
13915W        W77848  17.556   8.325  11.581
13916W        W77849  17.280  24.157   0.787
13917W        W77850  41.927  25.108  11.445
13918W        W77851   2.321  12.752   1.306
13919W        W77852   9.704  31.635  11.423
13920W        W77853  43.936  28.598  11.050
13921W        W77854  15.669   1.246   4.710
13922W        W77855   9.361   4.727  12.382
13923W        W77856  14.329   4.408  13.958
13924W        W77857  34.020  29.956   4.213
13925W        W77858  13.779  40.399   3.247
13926W        W77859  16.716   1.351   1.220
13927W        W77860  24.043   8.851  14.309
13928W        W77861  12.838  14.330  10.897
13929W        W77862  42.486  43.386   4.790
13930W        W77863  15.211  38.396   1.880
13931W        W77864  37.452  34.869   4.689
13932W        W77865  16.676  38.512  12.881
13933W        W77866  30.023   0.412  10.427
13934W        W77867  34.882  34.601  13.878
13935W        W77868   7.872  17.644  14.983
13936W        W77869  15.187  15.210  12.506
13937W        W77870  42.851  29.448  11.883
13938W        W77871  41.979  43.977   3.841
13939W        W77872   0.955  11.738  13.824
13940W        W77873  32.109  43.416  14.446
13941W        W77874  26.494  34.523  10.552
13942W        W77875  13.843  18.178  11.906
13943W        W77876  35.383   4.781  14.903
13944W        W77877  35.543  26.162  10.926
13945W        W77878   6.908  37.075   1.747
13946W        W77879   9.731   4.290   3.335
13947W        W77880  32.027   2.358   1.795
13948W        W77881  15.583  28.966  13.519
13949W        W77882  12.326   7.384  14.306
13950W        W77883  12.843  21.676   4.704
13951W        W77884  37.928  37.496   2.269
13952W        W77885  24.604  30.469  12.979
13953W        W77886   8.874   8.798   0.365
13954W        W77887  43.767   4.445  12.566
13955W        W77888  12.808  35.411   2.304
13956W        W77889  42.886   1.885   0.918
13957W        W77890  17.182  29.943  11.422
13958W        W77891   4.877  30.610  14.993
13959W        W77892  27.562  22.656   0.803
13960W        W77893   8.671  43.280  12.539
13961W        W77894  37.390  29.649  11.453
13962W        W77895   3.279  15.799   3.367
13963W        W77896  40.844  31.919   1.433
13964W        W77897  33.897   4.793  13.325
13965W        W77898  25.565   8.399  14.447
13966W        W77899  21.157  42.903   2.722
13967W        W77900  32.018  16.113  10.533
13968W        W77901  34.425  44.914  13.416
13969W        W77902  35.874   9.199   0.293
13970W        W77903   2.249  28.016  11.940
13971W        W77904  29.462  12.755  11.533
13972W        W77905  27.107  36.959   0.335
13973W        W77906  21.203  32.127  10.536
13974W        W77907  29.538  20.701  13.049
13975W        W77908  35.874   0.753   2.398
13976W        W77909   1.393  14.711  11.540
13977W        W77910  13.181  26.019  13.366
13978W        W77911   1.972  35.876   0.743
13979W        W77912  35.513   0.797   0.740
13980W        W77913   4.904  12.322   1.879
13981W        W77914  41.904  36.889  13.515
13982W        W77915  35.542   5.328   0.299
13983W        W77916  23.097  22.235   1.900
13984W        W77917  14.225  22.709   1.210
13985W        W77918  30.051  44.762  14.975
13986W        W77919  12.805  40.351   2.808
13987W        W77920  37.559   8.858  13.976
13988W        W77921  28.516  37.442   0.851
13989W        W77922  19.598   2.843  11.595
13990W        W77923  31.495  17.778  14.869
13991W        W77924  33.996  11.363   1.840
13992W        W77925  25.675  28.119   2.384
13993W        W77926  33.982  42.790  13.880
13994W        W77927   5.823  34.598  12.051
13995W        W77928  15.236   9.225   5.209
13996W        W77929  31.974  26.569   0.366
13997W        W77930  11.676  40.489   5.264
13998W        W77931  13.745  10.800  13.513
13999W        W77932  27.474  10.823   2.806
14000W        W77933  25.650  29.549  13.388
14001W        W77934  18.233   4.410  13.850
14002W        W77935  42.910  22.145  11.514
14003W        W77936   3.226   7.185  14.935
14004W        W77937   4.441  37.438   4.207
14005W        W77938  26.159  11.649  13.426
14006W        W77939  13.105  10.357  11.049
14007W        W77940  21.126  30.572   0.471
14008W        W77941   3.771  42.468  13.008
14009W        W77942  26.524  11.297  13.872
14010W        W77943  20.033   5.317   4.729
14011W        W77944   2.900  22.552  14.987
14012W        W77945  26.997  22.586   2.876
14013W        W77946  19.280  41.020   9.454
14014W        W77947  25.686  30.550   4.287
14015W        W77948  24.543  18.772   1.313
14016W        W77949  44.950  35.061  10.985
14017W        W77950   3.751  37.502  13.010
14018W        W77951   3.238  12.264   3.208
14019W        W77952  30.478  34.591  14.473
14020W        W77953  26.179  21.029   0.921
14021W        W77954  38.056  11.826   0.328
14022W        W77955  16.106  10.670   3.742
14023W        W77956  43.913  37.402   2.866
14024W        W77957   0.762  23.501   2.877
14025W        W77958   1.313   9.342  13.064
14026W        W77959  39.851  27.588   0.386
14027W        W77960  42.317  36.562  14.979
14028W        W77961  18.783  40.519   3.753
14029W        W77962  28.004  14.199  14.855
14030W        W77963  36.557  44.960  10.543
14031W        W77964   6.301   7.274   3.673
14032W        W77965  39.858  14.715   3.690
14033W        W77966  29.061  43.966   2.685
14034W        W77967  38.033  22.675   9.951
14035W        W77968  12.202  28.653   4.298
14036W        W77969  29.500  31.012   3.631
14037W        W77970  29.530  44.493   4.735
14038W        W77971   1.877  14.740  12.493
14039W        W77972  21.664  17.081  10.542
14040W        W77973  40.491  31.414   0.824
14041W        W77974  14.257   7.339  11.397
14042W        W77975  19.752  37.907  13.413
14043W        W77976  22.647  44.940   1.913
14044W        W77977  22.687   4.381   0.929
14045W        W77978  19.102   4.853  10.963
14046W        W77979  32.006   4.722   0.746
14047W        W77980  41.801  36.389  14.855
14048W        W77981   0.409  26.644   0.774
14049W        W77982   9.342  15.591  12.430
14050W        W77983  16.076  29.527   4.243
14051W        W77984  34.935  11.152   4.351
14052W        W77985   7.824   8.337   0.773
14053W        W77986  36.977  16.088   3.715
14054W        W77987  35.035  13.145  13.971
14055W        W77988  44.394   1.273  11.457
14056W        W77989   7.909   2.360  13.372
14057W        W77990  36.434   8.767   1.262
14058W        W77991  23.150  42.460  13.393
14059W        W77992   7.728  39.014  13.548
14060W        W77993   1.267  15.184   0.872
14061W        W77994   5.876  14.631   1.777
14062W        W77995  40.815  16.126   0.788
14063W        W77996  43.798   5.889   0.763
14064W        W77997  38.344  10.665   1.926
14065W        W77998   6.705  18.256  12.910
14066W        W77999  28.117  19.613  12.942
14067W        W78000  35.891  40.017  14.495
14068W        W78001  34.444  20.639  14.495
14069W        W78002  14.135  19.706   0.375
14070W        W78003   4.781  43.301   0.751
14071W        W78004  27.193   8.217  13.516
14072W        W78005  18.566  14.798   3.186
14073W        W78006  27.984  26.471  13.868
14074W        W78007  18.696  13.152   4.719
14075W        W78008  29.474  19.085   4.707
14076W        W78009   2.266  22.179   3.830
14077W        W78010  31.551   4.883   2.416
14078W        W78011  40.516  42.815   5.096
14079W        W78012   8.862  15.291  10.523
14080W        W78013  29.654   2.897  13.998
14081W        W78014  39.343  30.554   1.278
14082W        W78015  42.284  34.059   1.263
14083W        W78016  18.118  42.782  14.500
14084W        W78017  28.160  41.437  13.995
14085W        W78018  39.973  15.737  13.421
14086W        W78019   1.398  39.501  12.900
14087W        W78020  42.024  30.583  11.520
14088W        W78021   6.220  36.564   2.782
14089W        W78022  35.049  15.099  13.809
14090W        W78023  11.171  40.815  14.469
14091W        W78024  19.699   2.887   2.773
14092W        W78025   2.791   9.801   1.347
14093W        W78026  28.613  12.245   1.314
14094W        W78027  29.104  10.866  11.541
14095W        W78028  22.063  35.066   1.905
14096W        W78029  44.000  30.007  11.911
14097W        W78030  12.618   2.748   0.727
14098W        W78031   6.411  43.414   1.306
14099W        W78032  38.917   0.967   0.327
14100W        W78033   3.442  10.794   2.398
14101W        W78034  30.598  30.097   2.329
14102W        W78035   3.769  21.511   3.177
14103W        W78036  21.202  27.676   5.801
14104W        W78037   9.335  13.737   1.349
14105W        W78038   2.896  21.074   1.451
14106W        W78039   3.750   0.767  13.424
14107W        W78040  43.789  29.639   3.766
14108W        W78041  30.043  17.258   1.871
14109W        W78042  20.628  24.013  14.863
14110W        W78043   3.319  34.947  10.517
14111W        W78044   4.748  23.183  11.004
14112W        W78045  38.967  22.646   5.199
14113W        W78046  18.696  37.907  12.940
14114W        W78047  41.430  23.527  13.819
14115W        W78048  19.210   1.351  12.025
14116W        W78049   7.730  24.626   2.799
14117W        W78050  41.807   2.460  14.835
14118W        W78051  34.956  26.674   4.303
14119W        W78052  32.127  29.936  14.970
14120W        W78053  37.922   6.701  13.546
14121W        W78054  39.547  30.911  10.513
14122W        W78055  22.547   6.352  11.445
14123W        W78056  38.851  36.901   0.371
14124W        W78057  32.900  41.958  11.883
14125W        W78058  16.153  26.584   4.639
14126W        W78059  28.098  36.065   2.775
14127W        W78060  41.423  18.619   5.195
14128W        W78061  37.903   1.353   4.683
14129W        W78062  39.323  14.284   2.737
14130W        W78063  12.179  37.965  11.931
14131W        W78064  27.046  39.942   4.648
14132W        W78065   3.279  33.545   4.707
14133W        W78066  35.472  10.162  13.396
14134W        W78067  27.164  34.064  12.527
14135W        W78068  38.366  41.948  12.824
14136W        W78069  31.125  17.257  10.012
14137W        W78070  10.714  23.712  13.393
14138W        W78071  44.935  16.702   0.808
14139W        W78072   5.419  17.118   5.258
14140W        W78073  31.495  30.968  12.088
14141W        W78074  22.029  41.819   4.832
14142W        W78075  40.036   9.235  13.845
14143W        W78076  14.330  40.381   3.656
14144W        W78077  41.330  40.980  13.028
14145W        W78078  18.053  39.314   0.812
14146W        W78079  11.304  26.682  12.374
14147W        W78080   3.247  29.162  10.473
14148W        W78081  16.662   6.270   2.337
14149W        W78082   0.761  14.124  11.039
14150W        W78083  21.655  42.514  13.793
14151W        W78084  14.217  34.588  11.490
14152W        W78085  44.407  32.914   4.350
14153W        W78086  18.183  19.673  13.450
14154W        W78087  22.062  31.947   3.360
14155W        W78088  11.641  24.688  10.520
14156W        W78089  16.286  28.952  10.991
14157W        W78090  37.480   3.948   2.791
14158W        W78091  17.669  20.181  11.954
14159W        W78092   5.872  28.468   1.764
14160W        W78093  42.884  23.217  10.481
14161W        W78094  15.239  32.508  12.500
14162W        W78095  31.914  28.535   0.369
14163W        W78096  38.873  16.700   1.347
14164W        W78097  13.657  23.234  11.915
14165W        W78098   2.386  37.567  14.911
14166W        W78099  23.121  27.455  14.474
14167W        W78100   3.275  29.654  11.906
14168W        W78101  28.169  32.453  13.486
14169W        W78102   1.319  29.158  12.976
14170W        W78103  28.556  35.417  14.916
14171W        W78104  22.694  35.427  11.881
14172W        W78105  22.071  34.614  13.851
14173W        W78106   5.327   7.765  10.457
14174W        W78107  36.492  32.035  11.036
14175W        W78108  32.122  26.613  12.902
14176W        W78109   5.899  20.269  14.381
14177W        W78110   5.326  24.226   2.400
14178W        W78111   6.243  28.186  14.472
14179W        W78112  27.597  23.092  11.509
14180W        W78113  37.052  21.572   2.693
14181W        W78114  36.873   5.859  14.467
14182W        W78115  21.637  21.080   1.912
14183W        W78116  15.094   2.866  14.780
14184W        W78117  23.069  21.742   2.900
14185W        W78118   6.208   6.223  11.371
14186W        W78119  20.128  13.216   4.311
14187W        W78120  24.686  12.843  13.825
14188W        W78121   8.782   2.319   3.318
14189W        W78122  13.716  36.378  11.401
14190W        W78123  19.068  29.486   3.355
14191W        W78124   7.252   8.834   2.378
14192W        W78125  21.081  21.568   4.277
14193W        W78126  33.912   4.741  12.939
14194W        W78127  44.930  36.012  14.022
14195W        W78128  21.197  40.446   3.171
14196W        W78129  21.155  40.897   0.727
14197W        W78130  35.527  31.020   4.172
14198W        W78131  41.413  36.493   4.712
14199W        W78132  29.967  44.769   1.338
14200W        W78133   6.910   3.931   2.400
14201W        W78134  40.471   7.743  12.090
14202W        W78135  41.863   3.883   2.703
14203W        W78136  34.379   5.276   0.893
14204W        W78137  17.743  35.417   0.376
14205W        W78138  17.276  24.178  14.809
14206W        W78139  22.190   9.214  14.395
14207W        W78140  42.902  16.256   4.328
14208W        W78141  26.974   4.777   4.790
14209W        W78142  22.147  25.526  11.548
14210W        W78143  37.376  15.145  14.828
14211W        W78144  30.630   9.735   2.679
14212W        W78145   0.909  13.770   1.304
14213W        W78146  32.498  15.620   3.156
14214W        W78147  23.032  26.109   1.744
14215W        W78148  23.051   0.413   4.183
14216W        W78149   6.803  18.772   2.672
14217W        W78150  18.712  21.148   3.795
14218W        W78151  27.003  37.838  14.941
14219W        W78152  44.913  10.729   1.218
14220W        W78153  44.358  36.935  12.889
14221W        W78154  21.134  33.478  11.870
14222W        W78155  34.419  15.744   1.829
14223W        W78156   3.849  38.065   2.321
14224W        W78157  16.105  14.210   4.186
14225W        W78158   6.767  31.024   2.753
14226W        W78159  17.733   7.847   2.700
14227W        W78160  37.386  36.895  12.000
14228W        W78161  38.878  15.166   0.831
14229W        W78162  10.281  18.631   1.807
14230W        W78163  41.906   1.900   4.731
14231W        W78164  11.643  23.033   2.326
14232W        W78165  14.774  38.989  14.291
14233W        W78166  19.775  13.107  10.897
14234W        W78167   4.236  22.615   1.316
14235W        W78168  43.510  36.956   2.260
14236W        W78169  19.243  40.484   3.275
14237W        W78170  23.043  30.434  14.373
14238W        W78171  23.731  43.321  12.955
14239W        W78172  32.128  28.644   3.723
14240W        W78173   5.752  10.242  10.451
14241W        W78174   5.411  41.027   4.670
14242W        W78175  28.943  22.093   2.734
14243W        W78176  17.655  30.032   2.331
14244W        W78177  40.396   8.367  13.971
14245W        W78178  22.064  36.855   2.310
14246W        W78179  12.660  44.906  11.857
14247W        W78180  36.464  31.944   4.768
14248W        W78181  38.470  16.239  13.873
14249W        W78182  42.362  27.602  13.982
14250W        W78183  36.846   9.852  11.078
14251W        W78184  44.418  38.979   0.736
14252W        W78185   1.783   8.273   2.301
14253W        W78186  33.388  11.226   4.696
14254W        W78187   6.809   7.741  14.344
14255W        W78188  44.896  39.329  12.411
14256W        W78189  32.478  42.479  13.450
14257W        W78190  37.398  39.405  12.018
14258W        W78191  37.413  23.230  11.102
14259W        W78192  32.632   5.218   0.744
14260W        W78193  34.953  38.023  12.047
14261W        W78194  36.374  41.020   4.786
14262W        W78195   5.911   9.709  13.519
14263W        W78196   8.392  12.619   1.808
14264W        W78197   9.379  33.027  10.446
14265W        W78198   6.888   4.242   0.368
14266W        W78199  11.149   6.363  11.440
14267W        W78200  15.139  11.131  13.939
14268W        W78201  36.506  44.956  14.932
14269W        W78202  28.523  10.820  11.118
14270W        W78203  10.679  32.583  11.434
14271W        W78204  42.352  16.791  14.368
14272W        W78205  27.671  34.593  10.513
14273W        W78206   4.423   7.199  11.391
14274W        W78207  15.194  16.147   3.233
14275W        W78208  29.163  30.421  14.367
14276W        W78209  17.650  15.287   2.292
14277W        W78210  27.026  31.604  11.122
14278W        W78211  42.985  11.803  13.995
14279W        W78212  21.122  33.614   2.707
14280W        W78213  36.939  23.127  11.510
14281W        W78214  21.719   6.361  14.937
14282W        W78215  15.135  20.654   0.316
14283W        W78216  38.910  29.078  13.331
14284W        W78217   3.773   6.818   2.219
14285W        W78218  43.302  39.533   2.755
14286W        W78219  38.963  34.409  14.305
14287W        W78220  30.131  29.530  13.865
14288W        W78221  44.269  41.010  13.395
14289W        W78222  44.326  42.373  11.031
14290W        W78223  25.605  40.941   1.352
14291W        W78224  19.202  19.249   1.306
14292W        W78225  17.754  27.156  11.928
14293W        W78226   2.761  30.548  12.553
14294W        W78227  36.020  33.510  14.008
14295W        W78228  44.927  17.153   0.439
14296W        W78229   4.913   1.887   4.172
14297W        W78230  42.451  31.484   3.374
14298W        W78231  38.456  32.997  14.009
14299W        W78232  19.745  29.613   4.709
14300W        W78233  41.414   2.396  11.862
14301W        W78234  32.002  33.118  11.106
14302W        W78235  14.186  30.604  13.948
14303W        W78236  34.017   3.458  13.791
14304W        W78237  30.099  21.067   0.453
14305W        W78238  13.124  36.067   3.371
14306W        W78239  16.229  36.410  13.547
14307W        W78240  18.145  17.713  14.856
14308W        W78241   3.864  37.421  13.796
14309W        W78242  35.975   5.362  11.982
14310W        W78243   8.215  37.581  11.397
14311W        W78244  15.585  13.641   4.175
14312W        W78245  33.604  32.549   0.815
14313W        W78246  20.545  29.093  14.999
14314W        W78247  24.209  12.680  13.366
14315W        W78248   3.244  12.637   2.262
14316W        W78249   6.198  28.083   5.132
14317W        W78250  16.094  21.195   0.358
14318W        W78251   2.270   7.205   1.390
14319W        W78252  30.541  14.625   4.829
14320W        W78253  24.665   4.256  13.829
14321W        W78254   8.700   6.319   5.185
14322W        W78255  44.831  10.293  11.869
14323W        W78256  13.321   5.710  10.412
14324W        W78257  25.617  41.383  14.760
14325W        W78258  32.391  36.029  15.000
14326W        W78259   5.794  11.811  14.821
14327W        W78260  43.917  29.113  13.048
14328W        W78261   8.330  23.009   0.356
14329W        W78262  37.052   8.683  11.871
14330W        W78263  36.400  13.787  11.544
14331W        W78264  15.292  43.376  14.461
14332W        W78265  31.101  40.912   1.295
14333W        W78266  18.711   3.219  13.490
14334W        W78267  25.151  39.487   4.206
14335W        W78268  28.635   0.946   0.351
14336W        W78269  40.053  21.706  13.424
14337W        W78270  18.068  44.336  13.960
14338W        W78271  14.330  23.217  14.292
14339W        W78272  20.067  25.708   0.889
14340W        W78273  35.425  20.738   3.332
14341W        W78274  40.813  16.214   4.657
14342W        W78275  38.843  38.829  13.519
14343W        W78276   8.394  30.565   4.189
14344W        W78277   8.858  37.534   2.685
14345W        W78278  20.235  17.601   4.186
14346W        W78279  14.797   8.345   3.356
14347W        W78280   3.826   5.848   0.354
14348W        W78281  25.992   5.427  12.057
14349W        W78282  25.607   9.316  12.512
14350W        W78283  31.076  27.119  12.499
14351W        W78284  30.547   4.897  13.858
14352W        W78285  25.635  21.745   3.375
14353W        W78286   9.734  10.701   2.830
14354W        W78287   0.887  29.458  11.612
14355W        W78288  11.301  36.088   4.699
14356W        W78289  44.990  39.974  14.429
14357W        W78290  43.492   2.268   0.897
14358W        W78291  10.761  18.111  13.351
14359W        W78292   2.787  43.501  10.914
14360W        W78293  34.919  35.889  13.806
14361W        W78294  33.912   3.461  13.062
14362W        W78295  40.477  42.023  11.401
14363W        W78296  29.080   1.281   4.644
14364W        W78297  36.552  10.854  11.062
14365W        W78298  37.443  10.191  13.493
14366W        W78299   1.911  41.307  11.598
14367W        W78300  37.833   7.829   2.295
14368W        W78301   1.915  20.266   4.162
14369W        W78302  41.342  29.919   2.183
14370W        W78303  36.868  28.582   2.860
14371W        W78304  36.548  40.019  12.066
14372W        W78305  15.602  36.463  12.852
14373W        W78306  40.401  28.523   3.227
14374W        W78307  36.010  30.429   1.776
14375W        W78308  37.409   0.344  11.554
14376W        W78309  32.417  44.287  11.867
14377W        W78310  27.961  29.507  14.276
14378W        W78311  25.963  27.013   0.303
14379W        W78312   3.363  29.631  13.439
14380W        W78313  10.819  30.083  14.854
14381W        W78314  14.817  33.130  12.458
14382W        W78315   5.306  39.411  11.046
14383W        W78316   2.757  44.274  12.940
14384W        W78317  38.485  33.466  10.482
14385W        W78318   6.330   6.712  10.022
14386W        W78319  35.907   1.938   3.821
14387W        W78320  18.094  34.037   0.741
14388W        W78321  31.064  17.787   2.733
14389W        W78322   2.406  11.722   0.885
14390W        W78323  30.427   0.420   1.852
14391W        W78324   9.385  10.206  10.898
14392W        W78325  25.614  27.059  14.397
14393W        W78326   9.890  43.348   3.291
14394W        W78327  20.146   4.363   4.751
14395W        W78328  38.562  13.278   2.857
14396W        W78329  29.107  28.949   4.261
14397W        W78330  26.602  26.460  14.308
14398W        W78331  29.945  39.043  13.525
14399W        W78332  25.673  19.179  10.547
14400W        W78333  20.202  28.477  13.510
14401W        W78334  23.729   9.786   5.692
14402W        W78335  35.995   7.319   1.350
14403W        W78336  40.360  14.216   4.323
14404W        W78337  43.477  37.873  11.907
14405W        W78338  18.108   2.923   2.399
14406W        W78339  41.395  40.501   3.176
14407W        W78340  42.852   6.230   0.471
14408W        W78341  28.473  37.387   1.228
14409W        W78342  38.421   2.749  12.555
14410W        W78343   1.812  35.063  12.984
14411W        W78344   7.293  11.689   0.389
14412W        W78345  35.024  13.112  12.989
14413W        W78346  42.353   5.360   3.758
14414W        W78347  11.746  28.073  14.003
14415W        W78348   2.461  33.470   4.332
14416W        W78349  38.888   1.870  14.019
14417W        W78350  16.726  20.090   5.305
14418W        W78351   0.971  32.085   2.409
14419W        W78352  34.602  28.677   4.159
14420W        W78353  14.150  43.812  10.580
14421W        W78354  13.151  30.988   4.637
14422W        W78355   6.901  25.160  12.538
14423W        W78356   9.353  23.636  14.333
14424W        W78357   7.375   6.878   5.758
14425W        W78358  12.196  35.001  11.957
14426W        W78359  29.596  10.853   1.725
14427W        W78360  44.780  32.415  13.957
14428W        W78361   3.920  20.695   3.210
14429W        W78362  28.071  23.092   1.835
14430W        W78363  18.578  21.205   0.263
14431W        W78364  39.011   9.777   0.832
14432W        W78365  31.040  17.571   1.239
14433W        W78366  38.046   9.690   4.298
14434W        W78367  37.397  35.594   1.287
14435W        W78368  42.866   1.328  11.407
14436W        W78369  40.546  38.510  13.061
14437W        W78370  31.116   3.231   2.260
14438W        W78371  26.989  33.381  11.478
14439W        W78372  40.975  38.526  10.127
14440W        W78373  44.761  15.782  11.488
14441W        W78374  43.998  39.998  12.995
14442W        W78375   8.162   6.390  12.858
14443W        W78376   9.784  33.035  12.499
14444W        W78377  10.302   9.682   0.359
14445W        W78378  43.959  30.968   1.736
14446W        W78379   2.334  22.048   0.815
14447W        W78380  22.132  10.185   9.925
14448W        W78381   6.217  36.921  11.026
14449W        W78382  23.169  24.720   1.379
14450W        W78383   1.357  27.052  14.829
14451W        W78384  27.957   5.316   0.837
14452W        W78385   0.792  21.524  14.805
14453W        W78386  37.966  33.395  10.966
14454W        W78387  40.817  37.890   4.767
14455W        W78388  30.049  32.016  10.523
14456W        W78389  17.598  21.552   2.338
14457W        W78390  42.969   0.896  11.050
14458W        W78391  10.319  13.814  12.945
14459W        W78392  44.861  32.391   3.800
14460W        W78393  16.285  27.997   1.702
14461W        W78394   7.253  11.636  10.476
14462W        W78395  14.183  10.866   2.261
14463W        W78396   0.979  41.915   2.281
14464W        W78397  19.560  12.648   3.208
14465W        W78398  40.314  33.521  14.994
14466W        W78399  13.146  32.398  10.529
14467W        W78400  20.595  12.222   2.413
14468W        W78401  26.091  13.685   4.617
14469W        W78402  27.622  38.006  10.900
14470W        W78403  29.456   8.347   0.346
14471W        W78404  41.970  27.623   3.277
14472W        W78405  39.418  24.524  13.035
14473W        W78406  25.196  43.482   2.380
14474W        W78407  41.926  21.584  11.054
14475W        W78408  10.656  31.124   4.304
14476W        W78409  21.098  29.933   3.307
14477W        W78410   4.430  17.176  12.004
14478W        W78411  21.038  10.368  11.990
14479W        W78412  12.316  42.869   2.768
14480W        W78413   7.399  39.364   1.346
14481W        W78414  15.217  34.980  11.975
14482W        W78415  25.003  36.410  12.948
14483W        W78416  21.731  44.385   0.864
14484W        W78417  23.069  11.142  11.471
14485W        W78418   8.895  38.940  13.063
14486W        W78419  23.194  18.249   1.306
14487W        W78420  29.501  40.519  12.030
14488W        W78421   6.711  21.126   2.203
14489W        W78422  33.032  38.570  10.591
14490W        W78423  31.442   3.803  13.034
14491W        W78424  25.968  15.150   2.294
14492W        W78425  19.228  28.501  10.983
14493W        W78426  23.030  30.040   0.731
14494W        W78427  28.057  38.871   0.308
14495W        W78428   1.285  12.694  14.811
14496W        W78429  21.026  17.277  14.992
14497W        W78430  42.000  18.621  13.435
14498W        W78431  11.697  19.703   1.914
14499W        W78432  39.507  27.049  14.296
14500W        W78433  26.968  39.523  12.947
14501W        W78434   4.796   8.849  11.888
14502W        W78435  25.040  10.670   2.323
14503W        W78436  40.894  11.330  12.875
14504W        W78437  40.980  39.946  11.107
14505W        W78438  22.695  44.828   2.696
14506W        W78439  24.585  29.047  14.351
14507W        W78440   5.788  23.669  12.093
14508W        W78441  43.495  22.501  11.602
14509W        W78442  36.974  23.203  11.009
14510W        W78443  25.198  40.439   1.853
14511W        W78444  26.111   0.930  10.618
14512W        W78445  42.301  22.083  13.858
14513W        W78446  38.006  17.307   4.792
14514W        W78447   0.493   6.802  14.424
14515W        W78448  40.851  20.651   4.302
14516W        W78449  21.686  42.949  13.454
14517W        W78450  42.504  19.209  13.390
14518W        W78451  33.485  44.448  12.828
14519W        W78452  37.061  23.241   4.727
14520W        W78453  26.140  24.655   3.643
14521W        W78454  18.098   5.873   4.739
14522W        W78455  43.860  15.806   3.335
14523W        W78456  17.776   9.364   0.949
14524W        W78457  11.811   8.849   0.434
14525W        W78458  23.015  44.432   2.214
14526W        W78459  25.048  19.136  13.470
14527W        W78460  40.030  20.163  11.578
14528W        W78461  35.024  19.169   2.399
14529W        W78462  14.670   2.964  11.534
14530W        W78463  36.962  23.220  11.915
14531W        W78464  36.407  37.069   1.747
14532W        W78465  37.007  35.444  14.419
14533W        W78466   3.887  13.660  11.385
14534W        W78467  23.114  25.967  12.024
14535W        W78468  11.718  44.449   5.321
14536W        W78469  38.007  17.750   3.729
14537W        W78470  11.292  15.795  13.868
14538W        W78471  15.242  10.309  13.002
14539W        W78472  21.657  38.349  13.355
14540W        W78473  29.064  44.989  12.369
14541W        W78474  13.649   8.328   2.662
14542W        W78475  22.650  43.969  14.514
14543W        W78476   1.928  44.990   2.363
14544W        W78477  34.111  44.422   3.318
14545W        W78478   3.837  32.596  13.925
14546W        W78479  29.960  31.609   3.799
14547W        W78480   3.300  33.056  14.943
14548W        W78481  34.957  39.381  11.504
14549W        W78482  15.115  21.595   2.682
14550W        W78483   2.370  28.646  12.043
14551W        W78484  36.447   4.440  12.012
14552W        W78485  40.414   2.355  12.979
14553W        W78486  16.622  43.283   0.758
14554W        W78487  11.778  39.968  14.982
14555W        W78488   3.377   5.198   2.363
14556W        W78489   5.885  33.443  12.430
14557W        W78490  14.625  16.604  10.635
14558W        W78491  34.989  27.628  11.381
14559W        W78492  11.179  37.417   0.965
14560W        W78493   1.295  25.986   4.704
14561W        W78494  38.897  18.709  10.416
14562W        W78495  28.621  18.090   0.955
14563W        W78496  32.977  44.944   0.345
14564W        W78497  19.121   1.763   1.285
14565W        W78498  35.904   1.891  13.352
14566W        W78499   9.748   6.805  13.307
14567W        W78500  22.506  20.132   0.743
14568W        W78501  42.785  24.703   3.853
14569W        W78502  42.497  13.251  13.808
14570W        W78503   8.202   7.279  12.427
14571W        W78504  28.450  18.065   4.285
14572W        W78505  27.462   0.485   0.345
14573W        W78506   2.868   7.176   0.275
14574W        W78507  11.316  20.764   2.814
14575W        W78508   1.789  35.478  14.925
14576W        W78509  28.050  28.994   4.351
14577W        W78510  27.951  17.783  14.282
14578W        W78511  10.647  32.607  14.428
14579W        W78512   3.255  11.636   1.728
14580W        W78513  39.872  27.059  12.376
14581W        W78514  14.618  34.980   1.811
14582W        W78515  19.599  34.585   4.718
14583W        W78516  42.524   4.385   0.894
14584W        W78517  10.632   1.859   3.704
14585W        W78518  30.609  29.093   0.791
14586W        W78519  40.312  23.167   2.330
14587W        W78520  12.727   8.720   1.915
14588W        W78521  32.933   0.482  14.482
14589W        W78522  31.527  14.764   0.818
14590W        W78523  18.563  38.049   2.236
14591W        W78524   6.194  41.373   2.701
14592W        W78525  31.502  19.180  14.470
14593W        W78526  40.465  44.965  14.795
14594W        W78527  28.495  43.882  13.945
14595W        W78528   5.828  38.074  13.531
14596W        W78529  37.421   3.828   2.253
14597W        W78530  32.398  41.971  10.527
14598W        W78531   1.806  10.273  12.946
14599W        W78532  33.117   4.351  11.010
14600W        W78533  42.932  35.582  10.559
14601W        W78534  35.561   1.783   4.220
14602W        W78535  26.027  40.541  10.916
14603W        W78536   0.957  23.628  11.975
14604W        W78537  13.692  29.967  13.524
14605W        W78538  29.933  29.985   0.344
14606W        W78539  24.044  42.505   9.975
14607W        W78540   1.400  11.720   0.942
14608W        W78541  24.505   0.380  10.504
14609W        W78542  35.092  19.690  14.970
14610W        W78543  42.019  26.119   4.713
14611W        W78544  36.927  18.757   3.193
14612W        W78545  13.146   7.403   4.240
14613W        W78546  32.939  26.541   2.703
14614W        W78547  33.498  23.986  12.363
14615W        W78548   9.736  28.079   1.234
14616W        W78549   3.869  31.043   2.800
14617W        W78550  36.849   4.358   3.670
14618W        W78551  28.062  21.027   3.821
14619W        W78552  28.680  44.882   3.345
14620W        W78553   8.323   1.773  13.468
14621W        W78554  30.517  37.467  10.976
14622W        W78555  43.997  26.630   2.341
14623W        W78556   4.281  27.505  12.850
14624W        W78557  26.652  27.059  14.452
14625W        W78558  12.307  27.171  12.350
14626W        W78559  41.468   3.341  10.419
14627W        W78560  25.003  44.326   2.206
14628W        W78561  16.072  30.058  12.922
14629W        W78562   6.885   9.293  14.977
14630W        W78563  25.538  26.028  11.978
14631W        W78564   8.775  12.618   0.901
14632W        W78565  37.414  12.265   4.281
14633W        W78566   3.448   4.298  12.023
14634W        W78567   4.731  25.039   2.250
14635W        W78568  25.653  35.589  13.811
14636W        W78569  22.213  34.576   1.364
14637W        W78570  38.489  42.921  14.030
14638W        W78571  35.931   1.355   0.332
14639W        W78572  41.456  27.486  11.413
14640W        W78573  15.646  16.732   2.758
14641W        W78574  10.372  33.966   2.901
14642W        W78575  40.901  24.617  14.802
14643W        W78576  15.308  41.505  11.069
14644W        W78577  44.350  34.053   2.813
14645W        W78578  16.809   8.239   0.404
14646W        W78579  36.448  31.955   1.289
14647W        W78580  43.467  10.642  11.084
14648W        W78581  20.755  30.598  10.411
14649W        W78582  23.723   8.674   4.734
14650W        W78583  28.961  22.545  12.934
14651W        W78584   1.886  25.609   0.817
14652W        W78585  33.593  11.771  10.492
14653W        W78586  36.985  14.791  13.361
14654W        W78587  41.008  23.535  12.393
14655W        W78588   9.740  35.464   1.429
14656W        W78589  31.454  28.995  14.292
14657W        W78590  16.615  14.271  13.002
14658W        W78591  41.422  22.715  11.069
14659W        W78592  37.530   9.799  11.052
14660W        W78593   5.302  28.117   3.262
14661W        W78594  23.593  44.778   1.743
14662W        W78595  28.139  14.112  12.364
14663W        W78596  29.652  34.991  13.895
14664W        W78597  32.010  28.602  12.976
14665W        W78598  26.594   0.457   1.345
14666W        W78599  43.276  40.022   3.283
14667W        W78600  21.592  29.026  10.960
14668W        W78601  13.633  34.925  14.965
14669W        W78602   4.439  15.289  14.819
14670W        W78603  23.171   8.884   2.757
14671W        W78604  10.768  11.144   0.279
14672W        W78605   4.334  18.072  12.990
14673W        W78606  15.298  26.678   1.786
14674W        W78607  42.024  41.313   3.842
14675W        W78608  15.630   2.335  11.104
14676W        W78609   9.384  41.324   4.707
14677W        W78610   2.921   6.339  13.940
14678W        W78611  16.573  15.218   0.428
14679W        W78612  28.621   3.433   0.353
14680W        W78613  14.191   6.314   0.794
14681W        W78614  43.803  18.592  13.037
14682W        W78615  37.922  15.111  13.307
14683W        W78616  35.991  25.517  14.511
14684W        W78617  13.640  20.175  14.341
14685W        W78618  39.324  16.126  10.984
14686W        W78619  26.699  30.942   2.257
14687W        W78620   3.261  41.398  11.418
14688W        W78621  40.501  30.506  10.933
14689W        W78622  29.979   3.955   4.223
14690W        W78623   4.871  24.705   0.938
14691W        W78624  17.078  10.823   2.196
14692W        W78625  40.858   2.243  12.419
14693W        W78626  13.243  19.230   1.298
14694W        W78627  16.668  24.981   4.176
14695W        W78628   6.811  19.241   0.322
14696W        W78629  18.106   2.281   2.368
14697W        W78630  37.870  44.767   2.824
14698W        W78631  32.900  22.225   2.291
14699W        W78632   6.188   4.865   1.211
14700W        W78633  19.667  21.250   5.263
14701W        W78634  21.226   5.780  12.407
14702W        W78635  25.492   4.863   0.875
14703W        W78636  24.690  42.967  14.408
14704W        W78637  44.777  32.474   4.135
14705W        W78638  31.624  44.376  12.941
14706W        W78639  33.883   6.337   3.719
14707W        W78640   0.961  17.125   3.868
14708W        W78641   9.233  43.811  12.447
14709W        W78642  44.811  38.391   3.665
14710W        W78643  43.980   2.330   2.197
14711W        W78644  30.451  43.350  14.794
14712W        W78645  36.937   2.353  14.950
14713W        W78646  38.075  35.074   4.656
14714W        W78647  39.983  40.350  10.471
14715W        W78648  22.231  42.417   4.217
14716W        W78649  39.840  25.537   3.672
14717W        W78650  17.091  15.679  13.335
14718W        W78651  24.137  14.812  13.978
14719W        W78652   0.977  43.379   3.366
14720W        W78653   2.830  23.098  14.289
14721W        W78654  25.636  19.709  10.151
14722W        W78655  38.538   2.946   2.844
14723W        W78656   4.444   1.376   3.760
14724W        W78657  42.864  42.307  14.017
14725W        W78658   4.432  41.533   2.755
14726W        W78659  18.164  35.982  12.004
14727W        W78660  36.581  27.064   1.821
14728W        W78661  20.147   8.212   4.653
14729W        W78662  19.053  21.071  12.961
14730W        W78663  30.657  10.234   2.370
14731W        W78664  41.304  37.848   0.358
14732W        W78665  26.572  21.055   3.187
14733W        W78666  22.566   8.829  12.026
14734W        W78667  36.534  15.234  13.353
14735W        W78668  20.118   1.372   0.890
14736W        W78669   5.922  22.999  12.406
14737W        W78670  21.239  18.670   2.367
14738W        W78671   3.715   7.807  13.910
14739W        W78672  10.276  16.763  10.537
14740W        W78673  27.947  16.804   2.865
14741W        W78674  12.277  25.513  11.061
14742W        W78675  33.993  17.771   1.270
14743W        W78676  11.852  24.036   0.388
14744W        W78677   4.841  28.147  12.960
14745W        W78678  12.204  32.450  13.792
14746W        W78679  30.002  17.271   1.317
14747W        W78680  13.170  41.911   0.949
14748W        W78681  19.155  43.312   4.628
14749W        W78682  37.443  41.486   9.921
14750W        W78683  14.275  21.049   0.314
14751W        W78684  16.140  14.111   0.282
14752W        W78685  36.534  29.035   0.380
14753W        W78686  34.605   8.348   1.382
14754W        W78687  31.033  41.969  14.838
14755W        W78688  18.147   0.943   3.730
14756W        W78689  26.606  39.970   0.738
14757W        W78690  29.523  35.941   3.343
14758W        W78691  14.753   3.283   3.816
14759W        W78692   9.815  14.654  13.886
14760W        W78693  30.487  10.222  13.965
14761W        W78694   1.866   9.155   0.873
14762W        W78695  13.716  33.507   2.412
14763W        W78696  18.215   6.383  12.091
14764W        W78697  32.418  35.495  14.013
14765W        W78698  11.780   6.728  11.913
14766W        W78699   2.258  35.037   1.424
14767W        W78700  21.019  26.650   2.686
14768W        W78701  44.959  17.790  13.507
14769W        W78702  29.083  25.573   3.660
14770W        W78703  16.218  26.207  14.909
14771W        W78704  25.987  15.103  11.459
14772W        W78705  38.530  38.989   2.239
14773W        W78706  39.324  22.092   4.810
14774W        W78707  43.897  18.768   2.362
14775W        W78708  15.674  37.377  12.858
14776W        W78709   2.867  14.659   2.310
14777W        W78710   1.334  21.543  10.567
14778W        W78711  13.766   3.933  14.292
14779W        W78712   6.795  40.496   4.176
14780W        W78713   8.306  16.280   0.368
14781W        W78714  37.494   8.897   1.933
14782W        W78715   8.259  41.013   1.273
14783W        W78716  15.206  44.472   2.380
14784W        W78717  16.618   6.826  14.357
14785W        W78718  38.873  35.891  14.841
14786W        W78719  38.349   9.700  10.616
14787W        W78720  43.441  39.548   0.421
14788W        W78721  37.949  25.135   4.757
14789W        W78722   7.865  22.745  10.427
14790W        W78723  11.860  35.875   2.229
14791W        W78724  31.623  20.212   2.875
14792W        W78725   1.315  32.922   4.255
14793W        W78726  10.345  32.984  10.046
14794W        W78727  44.894  41.429   0.785
14795W        W78728   9.394  38.032   4.715
14796W        W78729  37.087  12.122  13.978
14797W        W78730  11.676  31.979  14.427
14798W        W78731   5.786  31.477   3.653
14799W        W78732  25.662  10.829   4.221
14800W        W78733  18.587  29.449   1.389
14801W        W78734   7.882  21.081  14.506
14802W        W78735  33.992   0.837  12.518
14803W        W78736  18.144  24.211  10.593
14804W        W78737  32.044  42.914   4.133
14805W        W78738  29.118  15.673  14.421
14806W        W78739  38.022   2.436  14.411
14807W        W78740  16.637  16.119   4.238
14808W        W78741  26.549   0.764  13.966
14809W        W78742   5.729  10.717   1.228
14810W        W78743  13.227  24.571  13.937
14811W        W78744  23.149   1.972   0.294
14812W        W78745  18.218  37.350  13.893
14813W        W78746   7.206  38.031   1.230
14814W        W78747  13.122  41.914  13.919
14815W        W78748  21.588  27.604   5.779
14816W        W78749   0.262  29.437  12.931
14817W        W78750  14.654  23.221  11.574
14818W        W78751   8.238  11.718  13.335
14819W        W78752   6.877  36.559   4.716
14820W        W78753  17.576  30.083   1.787
14821W        W78754   2.307  26.489  14.441
14822W        W78755  43.432   8.182  10.424
14823W        W78756  43.300   8.171   2.268
14824W        W78757  33.500  13.303   4.328
14825W        W78758  35.912  12.729  10.612
14826W        W78759  23.735   2.392  12.038
14827W        W78760  15.667   7.359   2.354
14828W        W78761   3.301  36.973  14.480
14829W        W78762   7.782  43.896   1.354
14830W        W78763   7.900  24.588  12.894
14831W        W78764   7.712   9.762   0.336
14832W        W78765  36.508  20.237   1.328
14833W        W78766  14.702  33.566   0.758
14834W        W78767  23.629   9.327  13.371
14835W        W78768  25.523   4.706   1.696
14836W        W78769  14.741  18.208   4.310
14837W        W78770  27.140  26.067   1.348
14838W        W78771   0.387   3.455   2.721
14839W        W78772  43.349  22.678   0.767
14840W        W78773  26.171  28.487   3.189
14841W        W78774   0.319  17.302   1.726
14842W        W78775  13.182  23.052   0.869
14843W        W78776  14.668  28.530  13.832
14844W        W78777  22.083   1.398  12.380
14845W        W78778  25.496  39.480   3.800
14846W        W78779   9.345  27.128   2.356
14847W        W78780  29.424   6.297   3.199
14848W        W78781  41.487  41.791   2.713
14849W        W78782  32.533  21.527   4.249
14850W        W78783  43.777  40.504   2.677
14851W        W78784  18.050  11.329  10.536
14852W        W78785  11.663  25.573   3.376
14853W        W78786  41.529  31.552  12.537
14854W        W78787   8.385   2.383  13.506
14855W        W78788  31.950  30.528  10.513
14856W        W78789  12.817  37.575  13.483
14857W        W78790  26.702  35.056  13.922
14858W        W78791  22.548  37.457  13.986
14859W        W78792  42.844   7.710   3.245
14860W        W78793  20.768  31.976  14.449
14861W        W78794  19.665  42.022  14.491
14862W        W78795  43.003   1.303  14.798
14863W        W78796   7.411  26.504   4.163
14864W        W78797  42.896  44.835   2.786
14865W        W78798  26.599  23.660  13.959
14866W        W78799  30.047  32.926   2.264
14867W        W78800   4.889  30.473   3.373
14868W        W78801  12.311  14.817   4.224
14869W        W78802   5.376  17.184   1.213
14870W        W78803  25.052  40.882   2.845
14871W        W78804   6.750  28.987  13.905
14872W        W78805  16.310   7.212   3.352
14873W        W78806  12.221  43.443  12.559
14874W        W78807   2.465  15.624  12.391
14875W        W78808  43.322   9.807   0.280
14876W        W78809  19.274   1.882  12.383
14877W        W78810  42.841  37.029   1.393
14878W        W78811  13.282  33.531  14.288
14879W        W78812  18.075  24.657   0.443
14880W        W78813  10.242  44.888  13.053
14881W        W78814  13.189  14.662  11.969
14882W        W78815  20.074  18.088   3.196
14883W        W78816  29.062  34.608  11.928
14884W        W78817  34.496  28.140  14.896
14885W        W78818  31.921  18.164   4.190
14886W        W78819  39.891  14.320  11.468
14887W        W78820  28.481   8.353   4.159
14888W        W78821  20.180  29.136   3.318
14889W        W78822  30.536   1.451  12.508
14890W        W78823  31.972   8.712  13.830
14891W        W78824  14.822  23.033   2.867
14892W        W78825  22.703  40.507  13.497
14893W        W78826  19.252  30.958   1.804
14894W        W78827  12.637  13.627   3.273
14895W        W78828   5.350  26.478   0.360
14896W        W78829  10.157  40.916   1.297
14897W        W78830  14.110   5.329   0.886
14898W        W78831   4.380  38.550   0.412
14899W        W78832  23.524  19.603   0.938
14900W        W78833  16.622  41.383  13.381
14901W        W78834   2.836   1.297   1.398
14902W        W78835  20.577   5.387   1.787
14903W        W78836   5.414  21.721   4.270
14904W        W78837  32.589  43.836  11.594
14905W        W78838  42.949   9.186  11.483
14906W        W78839  20.709  24.553  10.471
14907W        W78840   4.247  27.187   3.355
14908W        W78841  23.106  23.185   0.952
14909W        W78842  16.775  18.171  13.987
14910W        W78843  19.682   5.234  12.348
14911W        W78844  25.551  30.126   4.231
14912W        W78845  10.277  28.664   4.834
14913W        W78846  24.209   9.758  10.633
14914W        W78847  15.593  34.582  14.879
14915W        W78848  42.374  34.931   2.402
14916W        W78849  25.169  26.692   3.653
14917W        W78850   5.808  19.681  10.428
14918W        W78851  32.983  28.020  14.376
14919W        W78852   1.304  10.786  13.978
14920W        W78853   2.737   0.893   0.414
14921W        W78854   4.229  29.083   0.924
14922W        W78855  26.502  30.614  13.916
14923W        W78856   6.308   8.685   3.340
14924W        W78857   8.718  12.841   1.395
14925W        W78858  13.791  40.046  11.467
14926W        W78859  17.697  38.857  13.456
14927W        W78860  35.001   2.749   1.335
14928W        W78861  19.119   2.368   1.218
14929W        W78862  10.326   6.372   4.125
14930W        W78863  31.935  24.672   2.208
14931W        W78864  25.206  31.528   0.875
14932W        W78865  37.993  42.414   4.811
14933W        W78866  43.881  31.141  12.844
14934W        W78867  28.590  40.526   2.285
14935W        W78868   8.350   3.394  11.043
14936W        W78869  19.069  32.457   2.303
14937W        W78870  16.714  25.175  14.767
14938W        W78871   0.376  12.771  14.313
14939W        W78872   3.901   0.279  13.988
14940W        W78873   7.838  42.421  10.995
14941W        W78874   3.373   2.277  14.437
14942W        W78875  17.792   5.305  10.021
14943W        W78876  14.757  18.582  13.473
14944W        W78877  15.669  37.060  11.070
14945W        W78878  10.160  19.706   2.770
14946W        W78879  23.618  40.936   0.838
14947W        W78880  33.997  25.056   0.352
14948W        W78881  13.309  36.445  12.886
14949W        W78882  29.012   6.769  11.453
14950W        W78883  24.192  39.454   0.367
14951W        W78884  25.668  34.909   2.761
14952W        W78885   7.770  40.373   4.297
14953W        W78886  32.910   2.811  10.998
14954W        W78887  26.060   5.334   1.320
14955W        W78888  11.691  22.062   4.802
14956W        W78889   0.248  16.230   4.764
14957W        W78890  21.591   0.293  12.959
14958W        W78891  32.045  42.383  14.450
14959W        W78892   1.862  12.717   2.339
14960W        W78893  34.413  23.024   1.896
14961W        W78894   2.355  42.297   3.336
14962W        W78895   9.296  21.552  11.598
14963W        W78896  30.630   0.757  11.874
14964W        W78897  14.291  10.864  13.403
14965W        W78898  24.075  17.236  11.123
14966W        W78899  27.496  14.270  11.549
14967W        W78900  36.395  29.636   2.722
14968W        W78901  35.426   6.689   3.700
14969W        W78902  18.689  32.993   2.867
14970W        W78903  24.120   3.931   4.822
14971W        W78904   3.246  40.921  10.583
14972W        W78905   5.259  26.965   3.303
14973W        W78906  39.532  37.979   3.218
14974W        W78907   8.871  12.677   3.248
14975W        W78908  11.851  15.702  11.104
14976W        W78909  27.179  29.134  12.832
14977W        W78910  13.829  20.747   0.948
14978W        W78911  33.025   2.767   3.234
14979W        W78912  40.336   4.230  13.404
14980W        W78913  35.915  26.994  12.425
14981W        W78914  19.219   0.795   4.241
14982W        W78915  12.247   2.237  12.390
14983W        W78916   4.707  17.246  11.091
14984W        W78917  20.762   9.284   4.819
14985W        W78918  12.137  10.846  13.942
14986W        W78919  28.435  27.604  13.958
14987W        W78920  19.227   6.360  14.962
14988W        W78921  22.520   2.437   4.161
14989W        W78922  44.824   7.796   1.301
14990W        W78923  39.001  28.943   5.312
14991W        W78924  15.694   4.804   0.923
14992W        W78925  16.778   3.307   5.087
14993W        W78926  10.747  42.006  13.318
14994W        W78927  36.045  32.038   4.806
14995W        W78928  29.061  42.805  11.603
14996W        W78929  21.561  39.936   0.784
14997W        W78930   8.361  17.620   2.837
14998W        W78931  20.205  12.792   4.333
14999W        W78932   3.457  23.160  12.350
15000W        W78933  14.119  42.322  10.531
15001W        W78934  39.965  12.619   2.693
15002W        W78935  24.129  19.055  14.294
15003W        W78936  38.361  24.036  14.312
15004W        W78937  32.404  16.107   3.383
15005W        W78938  44.942   3.254   2.770
15006W        W78939   3.849   6.735  10.641
15007W        W78940  44.762   3.948   2.804
15008W        W78941  29.047   3.714   3.816
15009W        W78942   1.448  15.132  13.002
15010W        W78943  23.503  38.341  11.579
15011W        W78944  21.051  29.569   2.359
15012W        W78945   8.295  32.404  13.406
15013W        W78946  11.841  27.677  10.911
15014W        W78947  42.370  33.900  11.498
15015W        W78948  42.799  34.413  10.901
15016W        W78949  23.623  40.379  12.023
15017W        W78950  21.203  31.147   3.205
15018W        W78951   3.356  27.657  11.114
15019W        W78952  27.042  10.324  11.049
15020W        W78953  36.593  41.442   4.824
15021W        W78954  30.067  12.250  11.978
15022W        W78955  25.690  38.405  10.502
15023W        W78956  16.294  25.046  11.469
15024W        W78957   0.489   0.813  14.983
15025W        W78958  32.000  31.502  14.015
15026W        W78959  44.951  25.467   4.787
15027W        W78960  44.966   4.336   0.294
15028W        W78961  33.591  15.812  10.904
15029W        W78962  42.972  38.333  13.837
15030W        W78963  22.659   7.196  10.420
15031W        W78964  36.443   0.946  13.906
15032W        W78965  43.954  12.679   0.297
15033W        W78966   4.843  32.900   2.338
15034W        W78967  21.134  19.679  10.069
15035W        W78968  42.955  37.041  12.077
15036W        W78969  29.481  28.074  14.404
15037W        W78970  38.453  11.844  12.579
15038W        W78971  23.075  19.706  14.799
15039W        W78972  15.261  10.208   1.268
15040W        W78973  40.363  40.492  13.392
15041W        W78974   7.788  10.191  13.825
15042W        W78975  22.017  25.167   3.638
15043W        W78976  40.015   7.691   1.365
15044W        W78977   3.859  30.621   3.774
15045W        W78978  10.176   0.882   2.247
15046W        W78979   9.191  20.068   4.281
15047W        W78980  32.027   7.395   1.315
15048W        W78981  11.216  32.109  11.408
15049W        W78982  14.171  10.852   1.273
15050W        W78983  24.691  24.503   4.247
15051W        W78984  29.079   2.354   0.949
15052W        W78985   2.871  32.459  12.037
15053W        W78986  43.317  31.101   2.736
15054W        W78987   5.316  37.475   4.669
15055W        W78988  42.344  18.558   0.375
15056W        W78989  31.951  16.799  10.452
15057W        W78990  26.156  40.420   2.179
15058W        W78991  41.005   7.734  13.901
15059W        W78992  36.024  36.881   3.802
15060W        W78993  17.083  11.782   1.256
15061W        W78994  44.776  43.901  11.024
15062W        W78995  39.553  24.085  13.907
15063W        W78996  28.022  29.117   0.462
15064W        W78997   6.676  10.243  10.535
15065W        W78998  27.511  28.630  10.986
15066W        W78999  11.778  43.451  10.445
15067W        W79000   6.905  20.102   3.702
15068W        W79001  22.635  27.043  12.973
15069W        W79002  11.173  21.642   3.348
15070W        W79003  30.156  40.918   1.723
15071W        W79004  20.699  13.602  11.038
15072W        W79005  16.800  24.168  11.939
15073W        W79006  32.532  43.361   0.962
15074W        W79007  14.722  15.814   2.729
15075W        W79008  44.502  16.133  13.357
15076W        W79009  15.648  39.959   3.720
15077W        W79010  41.946  41.426   5.295
15078W        W79011  44.447  17.667  11.964
15079W        W79012   0.324  32.575  12.903
15080W        W79013  19.735  33.470   3.775
15081W        W79014   3.384   1.921  10.906
15082W        W79015  24.544  44.834   3.146
15083W        W79016  11.339  10.310  12.577
15084W        W79017   7.886  12.136  12.870
15085W        W79018   7.729  39.845  14.818
15086W        W79019  33.051  22.166  13.845
15087W        W79020  11.805   5.801   0.878
15088W        W79021  12.214  23.151  13.023
15089W        W79022  33.487   7.380   5.284
15090W        W79023  27.622  16.259  11.012
15091W        W79024  11.171  28.681   0.387
15092W        W79025  37.989  32.951  14.899
15093W        W79026  24.007  25.598   4.329
15094W        W79027  16.249  37.521   4.246
15095W        W79028  18.076  34.613   1.778
15096W        W79029  20.579   4.209  11.929
15097W        W79030   0.405   6.403   1.310
15098W        W79031   0.352   2.775   3.223
15099W        W79032   8.685  18.091  11.518
15100W        W79033  17.778  17.066  12.432
15101W        W79034  32.441   8.288   2.293
15102W        W79035  10.650  21.173  13.030
15103W        W79036  44.847  21.203   2.776
15104W        W79037  37.452  30.947   3.387
15105W        W79038  15.266  31.481   1.386
15106W        W79039  20.636  32.609  11.118
15107W        W79040  10.185   0.352  12.448
15108W        W79041  32.625   7.675  14.440
15109W        W79042   3.426  35.413  11.598
15110W        W79043   6.207  15.249   3.780
15111W        W79044  32.141  19.754  14.804
15112W        W79045   3.323  39.503   3.672
15113W        W79046  37.430  36.410   0.458
15114W        W79047   3.796  38.411   0.418
15115W        W79048  15.788  43.787  14.984
15116W        W79049  29.028   4.448  14.963
15117W        W79050  28.173   9.880   2.360
15118W        W79051  30.991  17.190  12.352
15119W        W79052   7.860  15.707   0.481
15120W        W79053   9.322  30.586  10.589
15121W        W79054  37.048  12.628   1.451
15122W        W79055   0.934  32.636   2.184
15123W        W79056  33.086  37.408   4.778
15124W        W79057  12.232  28.125  13.375
15125W        W79058  42.010   1.873   0.464
15126W        W79059  16.609   7.740   0.730
15127W        W79060  36.520   8.740   5.195
15128W        W79061  21.055  19.162   1.241
15129W        W79062  33.044  20.529  12.904
15130W        W79063  28.627  44.919  11.537
15131W        W79064  32.066  42.459   9.973
15132W        W79065  10.830  25.011   0.864
15133W        W79066   7.673  40.953   3.640
15134W        W79067  34.048  37.511   4.648
15135W        W79068  34.408  22.574  12.566
15136W        W79069  16.273  38.917  13.996
15137W        W79070  41.533  23.188  13.398
15138W        W79071  22.135   9.755  11.896
15139W        W79072  24.607  38.953  10.567
15140W        W79073  37.896  33.405   1.749
15141W        W79074  10.201  35.481  14.387
15142W        W79075  38.037  22.206  11.412
15143W        W79076  41.342  13.647   2.291
15144W        W79077  12.215   7.692   2.230
15145W        W79078  17.286  28.959  13.324
15146W        W79079  13.162  10.720   3.225
15147W        W79080  28.042  18.208  11.093
15148W        W79081   0.486  12.815   3.705
15149W        W79082   8.735  36.898  14.417
15150W        W79083  18.545   3.439  14.456
15151W        W79084   2.236  18.631   5.165
15152W        W79085  17.302  37.556  10.057
15153W        W79086   8.222   5.708   4.192
15154W        W79087   6.270   8.364   1.271
15155W        W79088  34.393  15.183  14.791
15156W        W79089   6.891   8.697  14.435
15157W        W79090  34.020  37.833   2.671
15158W        W79091  39.974   2.387  12.048
15159W        W79092  13.277  42.461   3.647
15160W        W79093   1.433  32.625  14.952
15161W        W79094  36.428  14.297   3.725
15162W        W79095  42.845  35.546   0.854
15163W        W79096  43.344   7.675  11.385
15164W        W79097  14.250  31.916  10.021
15165W        W79098  25.052  33.900  14.874
15166W        W79099   5.384  29.477   2.857
15167W        W79100   5.222   5.762  12.486
15168W        W79101   7.228  31.427  12.901
15169W        W79102  33.966   3.421  10.429
15170W        W79103  21.735  14.740   2.817
15171W        W79104  33.990  18.755   0.760
15172W        W79105   9.728  29.489   0.433
15173W        W79106  40.515  34.413   3.346
15174W        W79107   9.841  20.256  11.500
15175W        W79108  42.833  26.499  12.374
15176W        W79109   9.354  23.615  14.789
15177W        W79110  19.732  35.570   4.823
15178W        W79111  18.061  40.875   3.318
15179W        W79112  10.866  32.070  12.498
15180W        W79113   8.726  41.422   0.258
15181W        W79114   1.851   2.931  11.394
15182W        W79115  30.084  41.487  14.286
15183W        W79116  10.264  36.432  12.495
15184W        W79117  24.213  44.927  14.469
15185W        W79118  17.291   3.818  11.480
15186W        W79119  21.583   0.859  11.953
15187W        W79120   7.857  26.027   0.401
15188W        W79121  13.207  25.472  14.439
15189W        W79122   5.921  33.022  13.994
15190W        W79123   6.911  36.991  11.908
15191W        W79124  22.505  30.460  11.988
15192W        W79125   6.782  42.823   1.219
15193W        W79126   9.229   8.698  13.347
15194W        W79127  19.255  41.453   4.613
15195W        W79128  39.448  16.112   3.167
15196W        W79129  34.952  39.469   0.360
15197W        W79130  44.870  19.661   5.133
15198W        W79131  15.665   8.812   0.889
15199W        W79132  29.444  16.091  10.492
15200W        W79133  24.003  41.942   4.641
15201W        W79134  35.865   6.291   5.117
15202W        W79135  41.420  26.199   4.210
15203W        W79136  29.479  24.712   2.822
15204W        W79137  14.328  25.664   2.754
15205W        W79138  37.390  26.117   2.730
15206W        W79139  37.576   8.752   0.968
15207W        W79140  18.550  17.228  13.396
15208W        W79141  11.225  26.170   0.446
15209W        W79142  42.328  37.880  11.579
15210W        W79143   4.312  16.635  10.108
15211W        W79144  40.519  34.369   2.753
15212W        W79145   7.734  41.337  12.836
15213W        W79146  29.956  12.319   0.346
15214W        W79147  41.994  19.749  10.972
15215W        W79148  16.306  43.436   4.280
15216W        W79149  36.959   8.747  11.104
15217W        W79150  17.219  34.981   1.415
15218W        W79151  39.821   1.409   4.306
15219W        W79152  41.850  11.323   4.202
15220W        W79153  36.492  30.613  13.061
15221W        W79154   0.449  25.966   3.640
15222W        W79155  15.670  12.290  12.967
15223W        W79156  33.420  38.884  10.614
15224W        W79157  33.485  22.545  11.413
15225W        W79158   8.681  24.708  12.484
15226W        W79159  33.548  40.491  14.770
15227W        W79160   2.427   3.833   3.166
15228W        W79161   0.835  38.933  14.957
15229W        W79162  39.056   8.714   4.333
15230W        W79163  13.279  10.355  11.966
15231W        W79164  34.563   6.422   2.889
15232W        W79165   3.236  15.281  13.857
15233W        W79166   9.270  25.042   9.943
15234W        W79167  18.750  12.838  13.969
15235W        W79168  21.752  12.780  12.478
15236W        W79169  11.805  37.469   1.373
15237W        W79170  41.010  10.377   4.696
15238W        W79171  34.934  43.958   2.802
15239W        W79172  30.068  26.487   4.639
15240W        W79173  24.709  19.088   3.238
15241W        W79174  26.205  11.714   0.959
15242W        W79175  44.987   8.305   4.309
15243W        W79176   6.697  31.401  11.098
15244W        W79177  15.103  42.318   4.128
15245W        W79178  31.627  43.908   0.449
15246W        W79179  25.079  30.502  14.482
15247W        W79180   0.253  39.976   1.211
15248W        W79181  33.968   2.303   0.279
15249W        W79182  19.715  37.938   9.625
15250W        W79183  25.064   0.907  13.354
15251W        W79184  31.506  27.976   0.429
15252W        W79185  37.991  27.465  10.915
15253W        W79186  25.705   4.301  11.933
15254W        W79187  43.465  11.309  14.479
15255W        W79188   0.779  36.899   0.823
15256W        W79189  12.651  36.015   4.287
15257W        W79190  25.069  26.613   2.745
15258W        W79191  37.364   2.947  12.858
15259W        W79192   6.310  10.750   3.818
15260W        W79193  17.632  15.583   0.847
15261W        W79194  42.355  19.556   3.734
15262W        W79195   6.287  15.808   5.195
15263W        W79196  11.635  17.735  13.987
15264W        W79197  29.079  21.250   3.769
15265W        W79198  11.166  26.101   0.798
15266W        W79199  11.635   1.780  14.359
15267W        W79200   8.775  20.029  10.466
15268W        W79201  25.496   3.881  11.583
15269W        W79202  24.075   3.256  10.921
15270W        W79203   6.382  35.593  10.950
15271W        W79204   7.215   9.225  10.561
15272W        W79205   6.816  19.143   1.402
15273W        W79206  23.692   7.727   1.336
15274W        W79207  13.131  12.330   0.753
15275W        W79208   9.324  29.029  14.930
15276W        W79209   6.420  18.771  12.880
15277W        W79210  32.906  39.543  11.888
15278W        W79211  36.051  28.945   3.825
15279W        W79212  38.364  36.074   1.238
15280W        W79213  33.945  27.635  12.413
15281W        W79214  42.322  35.580  10.902
15282W        W79215  21.621   1.776   5.289
15283W        W79216  17.133  38.343  14.390
15284W        W79217  22.109   5.210   2.203
15285W        W79218   2.887   2.896  12.568
15286W        W79219  26.079   2.277   4.817
15287W        W79220  13.328  29.468  14.481
15288W        W79221  40.363  34.913  10.459
15289W        W79222   4.339  43.927   1.329
15290W        W79223  11.280   8.856   0.871
15291W        W79224  16.691  22.598   2.701
15292W        W79225  36.854  15.136  10.512
15293W        W79226  26.549  29.454  10.471
15294W        W79227  11.778  19.704   3.653
15295W        W79228  42.471  35.863  14.888
15296W        W79229  39.329  23.568  14.319
15297W        W79230  43.001   9.723  14.282
15298W        W79231  16.653  38.465  12.484
15299W        W79232  27.019   6.769   1.257
15300W        W79233  33.547  22.181   4.620
15301W        W79234  42.481  36.001   5.652
15302W        W79235   0.376  14.137   2.693
15303W        W79236  29.429   0.452   3.297
15304W        W79237  19.747   4.446   0.747
15305W        W79238  18.728  30.083  12.346
15306W        W79239  19.592   5.890  13.872
15307W        W79240   5.237   5.784   2.363
15308W        W79241  44.815  24.552  14.314
15309W        W79242  25.982   4.266  13.446
15310W        W79243   0.355  42.303   2.205
15311W        W79244  26.627  10.655   2.736
15312W        W79245   4.394   3.287  14.459
15313W        W79246  44.873  37.086  12.913
15314W        W79247  25.134  44.347  11.446
15315W        W79248   0.879   2.389  10.900
15316W        W79249  17.737   3.790  10.471
15317W        W79250  25.138  14.695   0.354
15318W        W79251   0.341  14.157   1.438
15319W        W79252  40.003   0.469   3.670
15320W        W79253  37.522  26.610  12.880
15321W        W79254  16.758  23.123   3.724
15322W        W79255   3.751  13.282   4.261
15323W        W79256   3.351  24.090  11.956
15324W        W79257  42.281   4.357   4.230
15325W        W79258  22.550  31.609   2.818
15326W        W79259  30.622   9.759  12.823
15327W        W79260  33.466  37.038  11.046
15328W        W79261  15.598  26.621  14.381
15329W        W79262  20.077  39.835  12.970
15330W        W79263   4.367  11.321  12.432
15331W        W79264   4.331  15.709  14.984
15332W        W79265  37.891  21.017   0.841
15333W        W79266   2.875  36.856  12.392
15334W        W79267  25.525  26.502   1.748
15335W        W79268  24.002   7.208  10.058
15336W        W79269  37.399  43.835   1.777
15337W        W79270   2.307   5.280  10.547
15338W        W79271  37.510  20.129   4.287
15339W        W79272  28.656  19.589  14.308
15340W        W79273  43.921  17.624  11.070
15341W        W79274  43.975   2.353   2.764
15342W        W79275  41.477  32.420  11.068
15343W        W79276   6.307  14.654  13.385
15344W        W79277  38.383   2.379   3.808
15345W        W79278   1.921  34.939  10.458
15346W        W79279  33.490  32.078   3.286
15347W        W79280  33.896  28.588  14.957
15348W        W79281   7.802   9.778   0.868
15349W        W79282   8.253  42.525   1.383
15350W        W79283  39.809  18.290   2.404
15351W        W79284  16.092   6.713   3.174
15352W        W79285  27.102  28.940  12.082
15353W        W79286  42.012  36.051   0.413
15354W        W79287  18.624  22.008  10.541
15355W        W79288   5.357  18.188  13.026
15356W        W79289  31.413  14.327  13.373
15357W        W79290  11.127  27.112   2.363
15358W        W79291  20.693  25.555   0.269
15359W        W79292   8.709  22.636  14.360
15360W        W79293  23.610  24.153  13.972
15361W        W79294   8.236  22.586   3.647
15362W        W79295  38.414  22.043   3.710
15363W        W79296  14.279  20.032  13.975
15364W        W79297  32.959  12.839   3.663
15365W        W79298  22.161  27.020  14.386
15366W        W79299  21.536  34.528   4.155
15367W        W79300  37.574  36.858  10.459
15368W        W79301  44.993  29.131  13.987
15369W        W79302  38.328   2.813   1.245
15370W        W79303  18.293  30.121   3.736
15371W        W79304   0.412  20.759   1.240
15372W        W79305   6.840  20.565  11.430
15373W        W79306  19.124   9.720  14.930
15374W        W79307  21.161  44.498  11.084
15375W        W79308  35.537  16.582  11.025
15376W        W79309   9.161  24.720  13.365
15377W        W79310  34.586   7.884   0.803
15378W        W79311  21.134  10.724  14.806
15379W        W79312  38.989   1.877   4.223
15380W        W79313  12.848  20.570  13.432
15381W        W79314   5.913  38.540   4.739
15382W        W79315  21.636  26.560   0.873
15383W        W79316  43.397  21.141  12.491
15384W        W79317  42.812  31.996   0.733
15385W        W79318   2.852  23.583  11.898
15386W        W79319   8.291   5.779   0.382
15387W        W79320  31.018   9.857  12.497
15388W        W79321  23.070  13.711   2.804
15389W        W79322  34.924  11.267   0.858
15390W        W79323  25.483  32.403  13.811
15391W        W79324  37.350  41.852   1.935
15392W        W79325  25.976  37.023   1.785
15393W        W79326  21.192  31.576  11.075
15394W        W79327  30.951  39.857  13.001
15395W        W79328  26.968  12.231  12.863
15396W        W79329  32.446  40.009  11.998
15397W        W79330  17.693  16.241  14.359
15398W        W79331  43.875  26.497   1.905
15399W        W79332  40.359  37.421   4.197
15400W        W79333  33.512  21.547   2.320
15401W        W79334  20.156  18.640   0.884
15402W        W79335   9.223  13.236   3.766
15403W        W79336  18.687   6.197  11.476
15404W        W79337   2.881   9.687  11.878
15405W        W79338  11.631  12.363  14.830
15406W        W79339  20.706  18.659  12.031
15407W        W79340  32.044  32.559  10.499
15408W        W79341   3.924  43.449   3.370
15409W        W79342  25.063  12.840  10.433
15410W        W79343  14.283  11.711   3.855
15411W        W79344  26.620   0.402  12.885
15412W        W79345   1.445  25.598   0.390
15413W        W79346  35.378  11.173  10.614
15414W        W79347  33.481  10.225  11.877
15415W        W79348   8.404  36.465   2.795
15416W        W79349  13.247   1.804   2.230
15417W        W79350  33.889   4.766   4.166
15418W        W79351  13.239  24.093  14.888
15419W        W79352  43.368  23.536   2.902
15420W        W79353  19.546  25.094   2.205
15421W        W79354   6.307  21.736  10.918
15422W        W79355  13.206  24.175   4.279
15423W        W79356  31.959   5.303   2.696
15424W        W79357  26.005  38.493  14.011
15425W        W79358  36.998  16.084  14.839
15426W        W79359  14.230   2.249  12.341
15427W        W79360  17.086  17.160  14.878
15428W        W79361   2.811  37.902   2.662
15429W        W79362  14.146  29.047  10.548
15430W        W79363  35.580  10.290  12.994
15431W        W79364  32.108   6.801   3.374
15432W        W79365   9.810  29.561   1.322
15433W        W79366   1.857  23.106   0.366
15434W        W79367   4.263  22.151   2.286
15435W        W79368  16.200  20.141  11.541
15436W        W79369   4.853  26.967   1.756
15437W        W79370   2.735  20.697   2.190
15438W        W79371  30.961  16.192   4.130
15439W        W79372  32.993  36.850  13.452
15440W        W79373  21.647  27.585  14.318
15441W        W79374  18.746  15.626  10.592
15442W        W79375  10.828   0.972  12.939
15443W        W79376  16.604  29.661  12.984
15444W        W79377   8.167   5.260   0.373
15445W        W79378  34.479  18.077   2.207
15446W        W79379  39.020  11.227   4.803
15447W        W79380  27.942  27.037   3.708
15448W        W79381  30.940  35.473   0.363
15449W        W79382  44.790  18.094  14.292
15450W        W79383   4.257  38.484  11.534
15451W        W79384  41.439  18.583  14.329
15452W        W79385  25.679  37.950   1.791
15453W        W79386  25.173  33.457  13.002
15454W        W79387  16.158  27.005  14.447
15455W        W79388  39.876  38.952   2.831
15456W        W79389  32.123  10.330   3.264
15457W        W79390   9.883  10.633   3.289
15458W        W79391  15.725  14.805  14.999
15459W        W79392  19.169  32.997   0.788
15460W        W79393  13.344  11.748   5.235
15461W        W79394  12.655  37.339   5.136
15462W        W79395  26.040   4.307   2.682
15463W        W79396   7.298  34.962   1.221
15464W        W79397  20.667  31.112   2.675
15465W        W79398  20.160  19.686   0.282
15466W        W79399  16.579  37.372   4.628
15467W        W79400  28.939  42.902  14.838
15468W        W79401  13.264  44.922  12.401
15469W        W79402   2.738  23.194   2.866
15470W        W79403  35.536   7.189  14.955
15471W        W79404  31.959  22.633   0.832
15472W        W79405   5.699  38.389  14.971
15473W        W79406  22.548   9.807   5.272
15474W        W79407  23.667  40.352   1.819
15475W        W79408  14.205  16.717  13.847
15476W        W79409  27.606  38.017  11.527
15477W        W79410  24.135   5.853   2.361
15478W        W79411  44.438  40.015   1.918
15479W        W79412  35.025  25.071  12.464
15480W        W79413  19.235  13.317   2.870
15481W        W79414  32.501  37.938   2.819
15482W        W79415  20.703  12.142  14.967
15483W        W79416  23.142  10.753   2.406
15484W        W79417  18.286  34.979  12.398
15485W        W79418  26.688  32.420  11.116
15486W        W79419  40.330   4.833   2.894
15487W        W79420  35.929  27.475  10.507
15488W        W79421  27.006   5.928  12.387
15489W        W79422  24.987  35.567  14.810
15490W        W79423  41.025  29.432  12.437
15491W        W79424   0.276  28.442  10.487
15492W        W79425  31.062   2.419   2.196
15493W        W79426  30.020  14.716  10.584
15494W        W79427   4.306  24.625   0.325
15495W        W79428   2.454   0.249   1.829
15496W        W79429  43.509   3.799   1.235
15497W        W79430  29.952   3.884   0.283
15498W        W79431  12.823  15.161  13.949
15499W        W79432   1.383   4.878   0.478
15500W        W79433  31.151  19.169  11.592
15501W        W79434   1.789  44.431   4.200
15502W        W79435  11.297  31.445   1.329
15503W        W79436  16.241  29.508  10.631
15504W        W79437  22.519  28.649  13.852
15505W        W79438  18.572  30.129  10.909
15506W        W79439  30.604  40.334  14.823
15507W        W79440   7.223  38.026   0.844
15508W        W79441  10.349  40.311   0.909
15509W        W79442  37.888  11.349   4.143
15510W        W79443  12.772  11.636  11.076
15511W        W79444   2.787  37.985  11.061
15512W        W79445   2.853  35.882   4.780
15513W        W79446  35.967   9.760  13.479
15514W        W79447  26.040   0.933  14.809
15515W        W79448  14.202  28.967  11.887
15516W        W79449  41.879   4.779  11.088
15517W        W79450   1.769  16.681   4.345
15518W        W79451  28.681  16.647  14.432
15519W        W79452  25.979  26.702  11.896
15520W        W79453  14.192  18.551  13.870
15521W        W79454  21.220  24.635   0.935
15522W        W79455  29.433  11.272   4.257
15523W        W79456  38.446  40.383  14.344
15524W        W79457   8.755  42.422   4.113
15525W        W79458  16.317  31.094  10.420
15526W        W79459  24.047   4.344   2.232
15527W        W79460  36.377  18.102  10.984
15528W        W79461  10.715   9.236  14.847
15529W        W79462  18.684  44.484  13.819
15530W        W79463  25.546  31.609   3.290
15531W        W79464  33.018  18.727   1.701
15532W        W79465  37.491  38.461   4.258
15533W        W79466   2.464  33.020  14.459
15534W        W79467   1.908  29.029  11.895
15535W        W79468  27.567  35.011   3.347
15536W        W79469  30.080  38.860   0.819
15537W        W79470  43.321  35.070  14.489
15538W        W79471  26.989  40.802   1.385
15539W        W79472  24.117  25.131   3.636
15540W        W79473  10.157   0.768   9.952
15541W        W79474  17.124  20.707  13.482
15542W        W79475  43.419  20.541  14.982
15543W        W79476  15.731  44.865  10.568
15544W        W79477  39.000  37.068   4.624
15545W        W79478  40.010  28.529   2.719
15546W        W79479  24.646   5.414   0.864
15547W        W79480   6.725  16.228  12.545
15548W        W79481   0.339  16.241   2.186
15549W        W79482  25.680  34.988   3.752
15550W        W79483  34.486  24.671  14.348
15551W        W79484  39.930  42.974   1.786
15552W        W79485  19.748  28.679   5.199
15553W        W79486   4.802  31.000  13.508
15554W        W79487  19.126  12.714  12.525
15555W        W79488   4.377  40.044  12.093
15556W        W79489   3.327  27.020  13.005
15557W        W79490   2.957   3.324   1.893
15558W        W79491  34.937   5.413   3.163
15559W        W79492  40.407  38.565   0.833
15560W        W79493  18.583  17.700  13.809
15561W        W79494   4.332  40.916  11.015
15562W        W79495  12.190  10.876  14.891
15563W        W79496  38.867  29.661  12.924
15564W        W79497   3.295  20.629   4.813
15565W        W79498  33.960  20.668  14.964
15566W        W79499  10.843  12.743   0.799
15567W        W79500  32.082  18.174  14.819
15568W        W79501  36.533   0.472   0.370
15569W        W79502  43.781   6.901   0.791
15570W        W79503  35.435  34.595  11.402
15571W        W79504  21.099  43.006   4.192
15572W        W79505   5.216  22.161   1.302
15573W        W79506  31.945  13.205   0.806
15574W        W79507   8.690   2.948   4.158
15575W        W79508  33.512  17.787  13.040
15576W        W79509  21.620  19.267  10.932
15577W        W79510  29.438  10.161   2.866
15578W        W79511  20.672  37.855  14.862
15579W        W79512  15.235  39.905  12.340
15580W        W79513  15.264  39.335   4.122
15581W        W79514  15.720  22.196   4.218
15582W        W79515  28.056   8.832   0.914
15583W        W79516  12.800  25.555  12.068
15584W        W79517  27.080  29.446  14.810
15585W        W79518   5.197  30.120   2.395
15586W        W79519   7.324  35.102  13.417
15587W        W79520  41.431  23.069   1.429
15588W        W79521  18.671  28.480  12.840
15589W        W79522   0.270  37.463   1.758
15590W        W79523  13.700   2.420   0.775
15591W        W79524  32.969  38.344   4.218
15592W        W79525  23.009  20.621   3.798
15593W        W79526  19.268   3.455   0.360
15594W        W79527  10.754   5.795  11.019
15595W        W79528   9.665  30.043  13.476
15596W        W79529  27.649  39.541   0.958
15597W        W79530  24.059   2.446  14.853
15598W        W79531  33.390  15.164   1.385
15599W        W79532  13.214  20.047   1.216
15600W        W79533  35.419  19.634   4.812
15601W        W79534  31.065  18.680  11.986
15602W        W79535   6.891   8.799  13.797
15603W        W79536  32.976  35.517  11.538
15604W        W79537  29.113  39.979   1.426
15605W        W79538  33.616   7.813  14.373
15606W        W79539   8.162  29.435  13.040
15607W        W79540  22.007  25.201  12.012
15608W        W79541  20.682  13.699  12.884
15609W        W79542  38.349  42.465  12.030
15610W        W79543   2.263  23.628   5.208
15611W        W79544  24.667  40.886   0.813
15612W        W79545  22.103   0.405  11.518
15613W        W79546  36.522   1.287  14.300
15614W        W79547  28.160   6.255   5.229
15615W        W79548   1.950  35.450  11.493
15616W        W79549  42.901  36.031   2.664
15617W        W79550  39.462  31.463   4.142
15618W        W79551  42.901   1.854  14.378
15619W        W79552   6.830  20.094   1.911
15620W        W79553  40.327  15.175  12.974
15621W        W79554  16.659  22.523   0.829
15622W        W79555   0.886  12.773   0.247
15623W        W79556  36.077  38.009  13.379
15624W        W79557  22.044  30.108  12.947
15625W        W79558  13.238  37.477   4.681
15626W        W79559  34.481  28.126   0.429
15627W        W79560  40.807  35.523  13.392
15628W        W79561  22.038  39.021   0.845
15629W        W79562  29.931  38.528   0.368
15630W        W79563  19.084   6.278   3.679
15631W        W79564  41.927  11.858  12.561
15632W        W79565  12.332  30.984   1.361
15633W        W79566  33.423  29.946   3.291
15634W        W79567   4.828  41.388  14.449
15635W        W79568   0.987   8.246  12.981
15636W        W79569  36.366  26.037  13.370
15637W        W79570   8.215   8.258  10.473
15638W        W79571  27.180  26.646   0.399
15639W        W79572   6.846  23.043  12.038
15640W        W79573  30.542  23.136   3.845
15641W        W79574  36.020  30.987  12.094
15642W        W79575  29.130  38.900  14.317
15643W        W79576  38.948  35.995   1.827
15644W        W79577  29.060  15.579   3.179
15645W        W79578  14.668  30.533   4.716
15646W        W79579  34.371   5.880   1.732
15647W        W79580  22.164  19.643   2.709
15648W        W79581  11.139  41.430  13.469
15649W        W79582   7.246  29.611   0.747
15650W        W79583  31.495   6.298  11.983
15651W        W79584  42.002   8.714  13.852
15652W        W79585   9.388   2.931  14.850
15653W        W79586  34.870  23.548  13.455
15654W        W79587  42.904  11.356  10.506
15655W        W79588   5.739  31.973   1.703
15656W        W79589  23.519  11.699   1.281
15657W        W79590   5.770  43.483  11.534
15658W        W79591  17.196  32.500  13.791
15659W        W79592  27.465  26.143   1.383
15660W        W79593  15.600  17.084  13.798
15661W        W79594  24.019  24.042  13.354
15662W        W79595  34.916   0.807  12.411
15663W        W79596  21.112  32.543   0.356
15664W        W79597  29.099  17.672   1.316
15665W        W79598  20.210  32.111   3.784
15666W        W79599  29.974  27.567  11.468
15667W        W79600  10.223  39.956  10.602
15668W        W79601  18.734   9.271   0.246
15669W        W79602  36.903  16.081  12.562
15670W        W79603  42.312  38.959  14.829
15671W        W79604  39.357  43.350  11.439
15672W        W79605  34.988  15.806   4.681
15673W        W79606  15.810  22.198   0.855
15674W        W79607  10.714  13.698  10.463
15675W        W79608  16.621  42.364   3.863
15676W        W79609  28.965  30.626   1.782
15677W        W79610  25.538   4.742  11.976
15678W        W79611  37.482  23.516   4.798
15679W        W79612  32.961   7.172   3.278
15680W        W79613   3.244  31.150  10.591
15681W        W79614  25.968  21.134  12.545
15682W        W79615  34.076  12.118   3.784
15683W        W79616  22.151   1.912   0.330
15684W        W79617  30.583  37.835   1.412
15685W        W79618  10.849  27.613  11.568
15686W        W79619  43.373   0.844   4.304
15687W        W79620  42.865  44.320  13.356
15688W        W79621  28.438  37.864   4.697
15689W        W79622  21.051  28.073  11.510
15690W        W79623  11.203  31.900  13.810
15691W        W79624   2.297  11.742  13.955
15692W        W79625  25.660   8.270  13.013
15693W        W79626  18.570  43.329   3.775
15694W        W79627   4.334  41.037  13.063
15695W        W79628  40.527  14.802  14.992
15696W        W79629  10.253  36.971   2.329
15697W        W79630  20.243  38.012  13.945
15698W        W79631   2.338  27.078   1.353
15699W        W79632  38.563  29.149   1.800
15700W        W79633  10.141  22.724  13.957
15701W        W79634   5.774  12.118   2.341
15702W        W79635   0.314  42.326  13.968
15703W        W79636  43.397  19.680   0.256
15704W        W79637  20.711  32.055   3.745
15705W        W79638  15.580  18.640   4.318
15706W        W79639  11.363  43.843  12.533
15707W        W79640  31.573  34.062  10.987
15708W        W79641  37.389  34.523   1.353
15709W        W79642   5.301  17.306   1.865
15710W        W79643   0.365  17.721   3.677
15711W        W79644  42.843  39.023   4.834
15712W        W79645  31.017   0.263   3.180
15713W        W79646  17.293  13.282  11.544
15714W        W79647  22.220  28.134   4.263
15715W        W79648  33.575  19.174   1.265
15716W        W79649   3.729  21.051   2.705
15717W        W79650  12.343  20.177   2.205
15718W        W79651  36.585  37.516   2.367
15719W        W79652  16.259  39.889   2.345
15720W        W79653  33.040  23.599  12.828
15721W        W79654  30.579  33.109  11.570
15722W        W79655  41.456  10.831  14.984
15723W        W79656  17.076  28.022  14.952
15724W        W79657  30.968   9.361   0.791
15725W        W79658  35.475  32.527   3.834
15726W        W79659  17.602  26.975   4.288
15727W        W79660  31.563  36.069  12.396
15728W        W79661  36.040  35.056   4.744
15729W        W79662  15.157   7.174   4.802
15730W        W79663   8.300  21.638   4.761
15731W        W79664   5.421  27.023   0.816
15732W        W79665  38.509  20.666   1.451
15733W        W79666   7.384  27.643   4.770
15734W        W79667  39.964   2.750  10.957
15735W        W79668   8.762  26.150   0.467
15736W        W79669  34.938   5.691  14.868
15737W        W79670  30.159   9.214  11.127
15738W        W79671  15.093  30.056   3.748
15739W        W79672  24.613   9.667  12.879
15740W        W79673  18.284  14.803  11.584
15741W        W79674  26.641  32.590   1.779
15742W        W79675  33.616  25.970  12.936
15743W        W79676  42.293  41.884   4.607
15744W        W79677   0.409   1.420   1.731
15745W        W79678  14.782   7.201   0.258
15746W        W79679  38.919  24.012  11.917
15747W        W79680   7.833  20.233   0.742
15748W        W79681   4.368  23.148  10.625
15749W        W79682  25.089  35.440  13.801
15750W        W79683   3.263  22.174   4.717
15751W        W79684  43.996  33.978   4.242
15752W        W79685  39.862  31.413  12.082
15753W        W79686  44.985  30.015  14.424
15754W        W79687  11.829   7.780   5.252
15755W        W79688  23.163   7.245  12.853
15756W        W79689  17.105  34.025   1.431
15757W        W79690  21.647   8.804  12.906
15758W        W79691  19.220   4.941   4.625
15759W        W79692  22.662  43.798   2.885
15760W        W79693  29.463  44.838   1.274
15761W        W79694  38.401   4.440   2.237
15762W        W79695  14.305  38.898   0.943
15763W        W79696  17.094  32.467  11.553
15764W        W79697  36.490  16.708  10.517
15765W        W79698  34.565  22.242  13.431
15766W        W79699  27.094  15.166  13.802
15767W        W79700  32.524  21.550   1.757
15768W        W79701  15.087  33.493   0.278
15769W        W79702  12.251  16.154   2.745
15770W        W79703   6.881   5.345   4.352
15771W        W79704  12.245  11.257  14.956
15772W        W79705   1.259  18.079   1.901
15773W        W79706   9.720  36.463   1.855
15774W        W79707   1.270  15.640   4.642
15775W        W79708  33.552   6.833   1.285
15776W        W79709  10.231  34.106   1.921
15777W        W79710  18.094  17.098   1.694
15778W        W79711  29.450  27.136  13.868
15779W        W79712  29.473  10.862  11.050
15780W        W79713  38.962  32.496   1.770
15781W        W79714   1.807  30.560  12.466
15782W        W79715  31.507  26.169   1.930
15783W        W79716  19.212   0.960  12.475
15784W        W79717  42.850  14.097   1.250
15785W        W79718  43.854  13.742   4.809
15786W        W79719  16.714  38.525   1.352
15787W        W79720  39.369  32.027   0.481
15788W        W79721  32.036  18.598  13.345
15789W        W79722  37.443  17.688   3.340
15790W        W79723  33.902  25.661   2.231
15791W        W79724   7.280  20.182  13.539
15792W        W79725  35.993  32.928   4.745
15793W        W79726  19.233  32.418  12.385
15794W        W79727  43.340   1.853  10.028
15795W        W79728   6.367   4.879   0.813
15796W        W79729  17.099  31.124   0.310
15797W        W79730  16.298  32.979   4.801
15798W        W79731  44.285  25.125  14.014
15799W        W79732  17.284  16.241   5.212
15800W        W79733  38.863   0.376   4.678
15801W        W79734  15.668  13.170  14.358
15802W        W79735  24.109  27.579   0.448
15803W        W79736   5.335  34.494  10.911
15804W        W79737  21.629  13.783   0.760
15805W        W79738  23.499  15.813   2.289
15806W        W79739  35.972  20.654   3.287
15807W        W79740   8.774  10.690  11.000
15808W        W79741  21.118  23.709  10.129
15809W        W79742  23.093  41.957  14.891
15810W        W79743  42.822  42.943  13.945
15811W        W79744  33.582  13.284  10.909
15812W        W79745  44.893  15.209   3.760
15813W        W79746   8.392  29.634   0.376
15814W        W79747  36.954  25.574  12.989
15815W        W79748   5.366  36.455   0.790
15816W        W79749  20.702  14.136  13.042
15817W        W79750  13.724   1.739  14.782
15818W        W79751  21.748  11.772  10.481
15819W        W79752  39.945   6.791   3.699
15820W        W79753  19.255  21.525   4.164
15821W        W79754  39.888   6.228   2.728
15822W        W79755  26.698  21.100  14.336
15823W        W79756   2.231  36.539   2.900
15824W        W79757  17.306  43.335  12.844
15825W        W79758  14.667  30.535   1.721
15826W        W79759   7.726  12.714   2.325
15827W        W79760   4.425  17.236   2.787
15828W        W79761  35.066  28.154   1.809
15829W        W79762  27.088  21.638   3.712
15830W        W79763  24.051   9.241   2.797
15831W        W79764  27.634  24.205   2.191
15832W        W79765   8.783  13.221  14.847
15833W        W79766  38.336  22.055  14.981
15834W        W79767   7.188   8.284   2.265
15835W        W79768  42.281   8.193   4.328
15836W        W79769  31.139  35.539   2.743
15837W        W79770  21.040  14.817  11.961
15838W        W79771  35.012  43.450   2.201
15839W        W79772  23.200  40.302   3.824
15840W        W79773  11.227  34.969   3.739
15841W        W79774  14.770  33.902  10.420
15842W        W79775  20.089   8.196  13.813
15843W        W79776  42.283  10.260  14.957
15844W        W79777  30.126   2.286   0.255
15845W        W79778  39.402  21.075   3.169
15846W        W79779  15.194  22.022   2.738
15847W        W79780  21.538  30.465  14.301
15848W        W79781  14.757  24.643   1.284
15849W        W79782  29.031  21.632  12.444
15850W        W79783  30.634   4.227  11.516
15851W        W79784  28.545  15.672   0.372
15852W        W79785  30.970   7.900   1.907
15853W        W79786  44.959  26.529  10.510
15854W        W79787  28.042  33.898   1.734
15855W        W79788  41.979  25.162   0.346
15856W        W79789   3.284  39.544  12.059
15857W        W79790  32.415  15.775  13.002
15858W        W79791  29.637  32.472  13.863
15859W        W79792  18.158  36.439   3.327
15860W        W79793   9.247  43.823   0.313
15861W        W79794  38.442  28.529  11.034
15862W        W79795  23.138  15.123  12.963
15863W        W79796   4.444   2.732   5.092
15864W        W79797  41.338  10.224   4.222
15865W        W79798  11.167  11.166  12.362
15866W        W79799  37.397  37.852   3.357
15867W        W79800  15.769  13.613  11.561
15868W        W79801  13.820  40.979  13.425
15869W        W79802  29.961  18.232   3.708
15870W        W79803  23.666  26.038  12.017
15871W        W79804  10.321  28.005  13.338
15872W        W79805  41.860  30.563  12.924
15873W        W79806  44.491   1.976  14.445
15874W        W79807  42.791  10.675   0.458
15875W        W79808  28.171  38.551  13.439
15876W        W79809  14.106  26.581  12.828
15877W        W79810  35.548   5.368  14.326
15878W        W79811  26.506  23.697  14.792
15879W        W79812   0.248   3.452  13.472
15880W        W79813   3.259  20.226   1.774
15881W        W79814   0.958  26.696   2.847
15882W        W79815  32.450  37.912   4.256
15883W        W79816  25.613   9.673  12.531
15884W        W79817  38.449  10.213  14.023
15885W        W79818  28.667   8.333   4.646
15886W        W79819  41.512  25.601  13.379
15887W        W79820  15.109  37.396   4.315
15888W        W79821   7.862   0.326   0.886
15889W        W79822  33.514  36.542   1.414
15890W        W79823  30.508  30.079  11.908
15891W        W79824  21.755   1.277  13.413
15892W        W79825  13.785  37.981  10.990
15893W        W79826  13.199  43.900  12.851
15894W        W79827  38.560   9.300  10.980
15895W        W79828   4.333  32.135  10.493
15896W        W79829  23.997  10.823   0.860
15897W        W79830  35.932  35.387   2.841
15898W        W79831   5.692  17.762  12.988
15899W        W79832  25.633   5.904  14.368
15900W        W79833  42.891   5.929  14.858
15901W        W79834  12.687  41.399   4.759
15902W        W79835  44.772   3.418   2.346
15903W        W79836  40.925  37.501   1.878
15904W        W79837  37.073  16.630   2.359
15905W        W79838  35.546  34.966  14.332
15906W        W79839  20.165  14.752  14.471
15907W        W79840   8.299  15.208  14.804
15908W        W79841  23.666  11.823  10.916
15909W        W79842  33.402  43.447   1.733
15910W        W79843   8.806   5.300  10.435
15911W        W79844  39.377   6.183  13.935
15912W        W79845   5.869   6.907   1.884
15913W        W79846  32.629  19.755  11.555
15914W        W79847   3.357   1.382  13.435
15915W        W79848  40.548  24.555  14.393
15916W        W79849  16.250  36.871   1.423
15917W        W79850   6.780  34.479  14.336
15918W        W79851  15.259  42.409   0.800
15919W        W79852  40.412  11.743   4.149
15920W        W79853  34.546  23.683  12.440
15921W        W79854  34.544  10.675  14.951
15922W        W79855  23.240  36.974  13.406
15923W        W79856  13.755   5.777   0.321
15924W        W79857  19.189  11.165   1.402
15925W        W79858  41.302  35.090  13.485
15926W        W79859  38.425  18.764  13.895
15927W        W79860   7.791  14.273  13.987
15928W        W79861  44.450  44.861   1.266
15929W        W79862  30.576  23.631  12.447
15930W        W79863  20.656  18.699   5.146
15931W        W79864   6.199  34.392  13.516
15932W        W79865   7.802  14.330  10.472
15933W        W79866  26.457  30.642   3.815
15934W        W79867  40.866   3.913  14.993
15935W        W79868  28.484  30.031   3.658
15936W        W79869  21.045   7.720  11.035
15937W        W79870  22.181   3.388  11.080
15938W        W79871  42.291  17.155   4.332
15939W        W79872  35.945  16.266   0.934
15940W        W79873  37.503  19.143  14.800
15941W        W79874  42.849  37.914   3.683
15942W        W79875   8.281  40.854  12.551
15943W        W79876  12.836  14.333   4.636
15944W        W79877  23.191  42.304  14.982
15945W        W79878   8.377  22.225  11.115
15946W        W79879  22.538  28.506   3.838
15947W        W79880  21.209   9.271   0.277
15948W        W79881  15.619   3.289  11.545
15949W        W79882   4.940  42.863  12.416
15950W        W79883   9.765  12.754   2.876
15951W        W79884   9.776  13.666   1.729
15952W        W79885  34.974   3.949  14.773
15953W        W79886   5.912  11.282   4.643
15954W        W79887  42.847  11.207   2.384
15955W        W79888  27.619   3.247  11.028
15956W        W79889  31.596  16.646   2.388
15957W        W79890  33.029  30.414   0.285
15958W        W79891  36.403  36.071   2.863
15959W        W79892  27.072   4.722  12.421
15960W        W79893   4.248   9.735   1.719
15961W        W79894   9.381   6.921   2.288
15962W        W79895  27.105  14.298   3.717
15963W        W79896  41.921  18.121  13.948
15964W        W79897   6.428  28.442  14.299
15965W        W79898  17.233  37.983  10.563
15966W        W79899  31.017  12.733   3.651
15967W        W79900  25.081  32.072   0.771
15968W        W79901  42.294  39.427  13.451
15969W        W79902  31.983  43.386   3.161
15970W        W79903   7.227  44.857   0.859
15971W        W79904   5.736  39.842   1.882
15972W        W79905  43.470  34.976   0.895
15973W        W79906   9.757  14.126   0.473
15974W        W79907   3.807  37.860   4.643
15975W        W79908  19.576  22.508   1.449
15976W        W79909  21.245   3.364  14.476
15977W        W79910  40.016  15.737  11.565
15978W        W79911  39.414  28.489  14.024
15979W        W79912  15.154  17.076  11.975
15980W        W79913   0.258   4.877   1.419
15981W        W79914   9.817  23.097   2.370
15982W        W79915  20.561   9.813  12.956
15983W        W79916  41.963  22.243   2.225
15984W        W79917  39.989  24.009   3.841
15985W        W79918  37.883  39.360   2.389
15986W        W79919  36.016  10.302  14.849
15987W        W79920   9.775   0.335   4.241
15988W        W79921  17.129  42.814  10.988
15989W        W79922  16.133   2.865   1.408
15990W        W79923  38.342   6.342  14.286
15991W        W79924  39.825  16.257  13.926
15992W        W79925  10.361  10.303   4.755
15993W        W79926  11.255  38.836  10.512
15994W        W79927   1.956  25.112  13.322
15995W        W79928  40.994  14.776  13.884
15996W        W79929  24.158   5.393   1.264
15997W        W79930  11.622  41.854   3.822
15998W        W79931  12.307  36.380   3.230
15999W        W79932  19.250   2.418   2.734
16000W        W79933   4.262  39.830   3.347
16001W        W79934  14.176  38.962  11.106
16002W        W79935  41.975  22.191   0.841
16003W        W79936  39.830   4.334   2.313
16004W        W79937  24.052   1.320   2.763
16005W        W79938  17.112  17.082  11.459
16006W        W79939  10.366  34.580  12.540
16007W        W79940  29.557   4.367  12.021
16008W        W79941  19.064  35.585   2.314
16009W        W79942  43.894  19.275   1.440
16010W        W79943  41.306  33.439   1.365
16011W        W79944  25.623  11.826   1.807
16012W        W79945   1.732   2.258  12.495
16013W        W79946  23.143  26.577  12.941
16014W        W79947  43.929  31.648  11.578
16015W        W79948  10.750   8.307   2.726
16016W        W79949  41.871  26.124  10.437
16017W        W79950  18.780  21.525  12.554
16018W        W79951  12.656   4.792   5.158
16019W        W79952   6.764   2.348   2.335
16020W        W79953  20.084  36.384   1.221
16021W        W79954  39.942   4.337   4.208
16022W        W79955   5.866  37.340  12.349
16023W        W79956  22.549   9.393  10.468
16024W        W79957  10.168  16.239  12.073
16025W        W79958  39.025  10.792  14.453
16026W        W79959  29.972  13.790  13.405
16027W        W79960  34.589  10.670   1.334
16028W        W79961  38.341  40.426   3.793
16029W        W79962  27.944  24.559   4.718
16030W        W79963  44.842  35.372  12.451
16031W        W79964  39.025  14.607   0.825
16032W        W79965  17.617  12.187   2.901
16033W        W79966   4.940  29.115  11.506
16034W        W79967  12.175  21.549  12.417
16035W        W79968  18.255  11.317   0.774
16036W        W79969  18.612  41.399  12.459
16037W        W79970   1.466   3.406  13.457
16038W        W79971  25.626  40.395   2.790
16039W        W79972  23.707   4.274   1.315
16040W        W79973   1.356  40.802   4.753
16041W        W79974   0.437   3.887  14.843
16042W        W79975  38.076  10.309  13.532
16043W        W79976  37.354   1.890  13.948
16044W        W79977  26.465  38.920  11.571
16045W        W79978  40.479  29.432   1.230
16046W        W79979  36.040  41.936   1.336
16047W        W79980  36.003  41.916  13.044
16048W        W79981  13.197  11.711   0.743
16049W        W79982  11.857  28.095  10.409
16050W        W79983  15.135  17.610   0.461
16051W        W79984  11.127  39.373  13.448
16052W        W79985  38.941   0.420  11.572
16053W        W79986  35.008  14.768   4.817
16054W        W79987  38.898   7.241   1.787
16055W        W79988  44.003  23.011   0.956
16056W        W79989   8.761  10.779   3.750
16057W        W79990   2.454   1.778   1.378
16058W        W79991  35.586  14.706   1.445
16059W        W79992   7.760  44.344   3.208
16060W        W79993  43.506  15.155  13.059
16061W        W79994   8.283   1.357  12.527
16062W        W79995  20.763  38.012  11.951
16063W        W79996   9.855  34.473  12.938
16064W        W79997  29.131  43.377  10.131
16065W        W79998   7.784  35.599   2.212
16066W        W79999  37.014  41.948   1.290
16067W        W80000   5.309  42.976   3.257
16068W        W80001  29.041   4.284   3.670
16069W        W80002  36.852  12.273   4.195
16070W        W80003  23.170  42.970  13.032
16071W        W80004  43.973  43.273  10.498
16072W        W80005  22.125  42.977  12.473
16073W        W80006  27.642  35.967  11.432
16074W        W80007  10.672  31.946   3.372
16075W        W80008  34.584  30.017  13.963
16076W        W80009  37.989  24.502   0.302
16077W        W80010  39.350  24.650   2.665
16078W        W80011  42.520  41.353   2.675
16079W        W80012  22.710   9.879  14.885
16080W        W80013   4.409  12.220   4.629
16081W        W80014   8.769   8.360  11.904
16082W        W80015  42.777  30.938   2.702
16083W        W80016  26.098   5.871   3.690
16084W        W80017  17.748   5.749   5.210
16085W        W80018  42.298  33.122  11.082
16086W        W80019  27.522  26.025  12.479
16087W        W80020  11.177  36.878  12.019
16088W        W80021  13.217  43.341   4.309
16089W        W80022  33.950  10.869  14.820
16090W        W80023  22.208   0.450  11.047
16091W        W80024  43.447  11.312   3.278
16092W        W80025   2.426   4.318  14.442
16093W        W80026  44.786  31.145  13.348
16094W        W80027  21.676   3.446   2.710
16095W        W80028  24.056  43.855   1.363
16096W        W80029  32.518   2.727   4.240
16097W        W80030   8.273  20.717  13.808
16098W        W80031   6.717  39.543  12.868
16099W        W80032  19.162  44.994   4.325
16100W        W80033  23.113   4.439   1.813
16101W        W80034  13.735  33.521   1.323
16102W        W80035  22.649   8.273   0.884
16103W        W80036  40.443  10.749   4.241
16104W        W80037  42.989  20.530   3.244
16105W        W80038  39.004  17.606   4.740
16106W        W80039   1.758  35.077  11.044
16107W        W80040  11.759  15.717   2.340
16108W        W80041  21.530  27.110   0.851
16109W        W80042  24.220  44.868   3.386
16110W        W80043  43.789  18.614   1.786
16111W        W80044   3.794  42.525  11.469
16112W        W80045  14.225  40.801  12.918
16113W        W80046   4.728   9.301  12.537
16114W        W80047   8.848  37.013  11.545
16115W        W80048   4.337  26.700  10.071
16116W        W80049  40.958  26.544   2.219
16117W        W80050  24.509   9.812   2.730
16118W        W80051  32.128  44.461   1.437
16119W        W80052  21.086  14.702  13.037
16120W        W80053  38.035  37.984   3.804
16121W        W80054  13.729   1.251   3.818
16122W        W80055   4.377  22.066   1.780
16123W        W80056  31.054  26.525  10.016
16124W        W80057   4.822  20.696   2.763
16125W        W80058  12.692  34.543  11.483
16126W        W80059  21.631  41.489  10.468
16127W        W80060  17.304  38.554  10.005
16128W        W80061  26.990  30.437   2.788
16129W        W80062  31.437  26.157   2.776
16130W        W80063  23.699   9.191  13.980
16131W        W80064  24.150  30.060   1.721
16132W        W80065  26.095  24.531   4.309
16133W        W80066  26.621  24.511   4.273
16134W        W80067  30.543   0.438   0.881
16135W        W80068  17.777  29.585   4.775
16136W        W80069  11.353  25.550  11.079
16137W        W80070  19.534  11.371   4.698
16138W        W80071  27.166  16.085   2.802
16139W        W80072   4.713   1.818   3.299
16140W        W80073  18.644  36.884  12.883
16141W        W80074  32.894  39.890   3.231
16142W        W80075   2.241   2.834  10.552
16143W        W80076  34.034  40.026   2.211
16144W        W80077  41.508  25.091   0.374
16145W        W80078   8.215   5.240   3.223
16146W        W80079  31.436  44.860   1.794
16147W        W80080  20.533   9.873   2.193
16148W        W80081  18.738  41.955   3.318
16149W        W80082  29.449  22.500   5.191
16150W        W80083   9.852   3.945   1.219
16151W        W80084  30.629   0.380  13.447
16152W        W80085  15.640  24.116  10.514
16153W        W80086   1.943  16.087   0.810
16154W        W80087  29.513  21.084   4.756
16155W        W80088  19.719   2.281   3.296
16156W        W80089   8.805   8.203  13.492
16157W        W80090  23.646   6.764  12.536
16158W        W80091  40.884   9.889   1.364
16159W        W80092  32.515  33.009  11.119
16160W        W80093  36.517  37.494  12.467
16161W        W80094  42.813  41.884   2.793
16162W        W80095  37.954   4.861  13.522
16163W        W80096  30.915  15.580  12.860
16164W        W80097   2.738  10.282  14.424
16165W        W80098   2.877  44.798  14.440
16166W        W80099  24.085   7.845   3.695
16167W        W80100  14.761   9.729   0.360
16168W        W80101  41.031  25.477   1.880
16169W        W80102  34.497   5.737   3.695
16170W        W80103  15.298   6.218   3.728
16171W        W80104  12.617  27.528  10.553
16172W        W80105   4.323  25.145   3.843
16173W        W80106   2.373  35.507  14.836
16174W        W80107  21.596  14.637  11.509
16175W        W80108   6.793  23.712   3.692
16176W        W80109   4.212  18.089  13.958
16177W        W80110  41.901  30.476   5.316
16178W        W80111  29.022  38.059  13.863
16179W        W80112   0.318  20.123  12.495
16180W        W80113  26.655  26.040   2.281
16181W        W80114  29.094  25.167   2.791
16182W        W80115  23.132   1.282   3.261
16183W        W80116  35.489  24.981  13.806
16184W        W80117  33.035   0.858   3.370
16185W        W80118  17.626  28.454   0.342
16186W        W80119  15.797  17.561   3.786
16187W        W80120   6.851  30.135   4.327
16188W        W80121  43.000   7.680  14.851
16189W        W80122  25.052  25.604   3.287
16190W        W80123  24.537   9.728  10.908
16191W        W80124  41.384  30.424  13.514
16192W        W80125   0.421  39.392   2.221
16193W        W80126  10.871  17.747   2.796
16194W        W80127   9.826  14.683   4.266
16195W        W80128  33.439  31.633   4.686
16196W        W80129  35.434  12.229  13.466
16197W        W80130   5.348  29.087  10.424
16198W        W80131  17.699  19.040   0.404
16199W        W80132  44.262  28.675  11.866
16200W        W80133  11.357   4.782   3.663
16201W        W80134   9.655  10.230  11.920
16202W        W80135  18.778  11.282  14.293
16203W        W80136  33.622  35.358   2.348
16204W        W80137  12.703  44.373   4.721
16205W        W80138  25.552  39.968   4.671
16206W        W80139  11.185  38.485   1.215
16207W        W80140   5.802   6.418  14.390
16208W        W80141  42.437   0.448  14.895
16209W        W80142  41.465  18.210  11.448
16210W        W80143  18.126  24.214   4.642
16211W        W80144  21.185  29.924  10.985
16212W        W80145   9.730   5.857   4.190
16213W        W80146  32.481  10.159   0.728
16214W        W80147  35.883  13.726  12.565
16215W        W80148   4.799  21.128   9.973
16216W        W80149  31.616  44.482  11.054
16217W        W80150  17.231   5.760   9.925
16218W        W80151  37.854  41.861   3.156
16219W        W80152  28.492  41.375   4.723
16220W        W80153   0.471  37.884  12.969
16221W        W80154  32.944  26.146   4.654
16222W        W80155   3.399  19.275  13.466
16223W        W80156  29.929  20.171   1.232
16224W        W80157   7.406   9.885   1.749
16225W        W80158  12.286  29.125   3.220
16226W        W80159  28.961  41.898   1.817
16227W        W80160  23.071  19.651  14.494
16228W        W80161  29.548  15.766  13.972
16229W        W80162  11.245   6.680  12.936
16230W        W80163  11.744  38.455   0.768
16231W        W80164  21.229   6.428   4.159
16232W        W80165  24.685   7.772   4.785
16233W        W80166  26.047  24.011   0.804
16234W        W80167  19.612  17.289   2.819
16235W        W80168  28.971   3.215   2.305
16236W        W80169  16.280  28.506   4.220
16237W        W80170  43.354   1.275  11.915
16238W        W80171  36.522   8.848  10.538
16239W        W80172   7.305  28.551  12.942
16240W        W80173  15.703   7.181  13.938
16241W        W80174  27.554  28.132   4.642
16242W        W80175   9.718  15.734  13.437
16243W        W80176   1.955  41.360  12.434
16244W        W80177  11.657  16.627   0.289
16245W        W80178   8.201  27.518   3.744
16246W        W80179  43.956   1.747  11.603
16247W        W80180  26.035  13.695   2.265
16248W        W80181  40.368  28.141  14.463
16249W        W80182  29.668  15.276  13.984
16250W        W80183  17.266  42.330   3.752
16251W        W80184   5.690   5.201   1.800
16252W        W80185  13.770  39.444   4.320
16253W        W80186  26.134  42.286  14.918
16254W        W80187  10.805  24.562   4.162
16255W        W80188   7.320  15.249   2.834
16256W        W80189  15.240  19.156  13.060
16257W        W80190  28.168   0.485   2.697
16258W        W80191   0.832  29.590   1.846
16259W        W80192  27.595  23.159   3.681
16260W        W80193  33.511  21.203   3.351
16261W        W80194   2.776  38.936  14.972
16262W        W80195  11.329   5.705   1.293
16263W        W80196  24.585  14.677  11.101
16264W        W80197  40.873  27.513  14.289
16265W        W80198  21.736  13.698   2.678
16266W        W80199  27.161  12.294   3.667
16267W        W80200  14.272  39.351   5.168
16268W        W80201   0.866   2.335  12.023
16269W        W80202  14.163  21.516  13.403
16270W        W80203   1.436  25.665   4.336
16271W        W80204   8.715  31.437  13.856
16272W        W80205  39.985   9.677  10.436
16273W        W80206   0.439  42.333   1.747
16274W        W80207   3.311  36.943  11.076
16275W        W80208  16.182  25.098  13.480
16276W        W80209  12.342   9.821  14.767
16277W        W80210   0.880  35.878  12.053
16278W        W80211  19.678   0.762   5.187
16279W        W80212  14.316  27.539  11.434
16280W        W80213   0.485  34.442   4.321
16281W        W80214   5.344  21.159   3.662
16282W        W80215  15.610  35.389   1.758
16283W        W80216  33.952  26.541  11.487
16284W        W80217  24.634  28.591  11.466
16285W        W80218   3.304  41.812   2.852
16286W        W80219  44.383  12.739  11.083
16287W        W80220  22.995   5.285  10.545
16288W        W80221  14.732   0.945  13.396
16289W        W80222  44.765  15.169   4.781
16290W        W80223  31.010  34.442   4.301
16291W        W80224   2.233  21.035  14.414
16292W        W80225  37.941   9.353  13.488
16293W        W80226   9.841  33.408  13.936
16294W        W80227  15.630  33.585  13.022
16295W        W80228  37.021   7.805  12.008
16296W        W80229  12.217  44.378  13.806
16297W        W80230  30.119  40.451   4.203
16298W        W80231  29.658  12.644  13.526
16299W        W80232   1.281  34.402  11.428
16300W        W80233  33.535  20.626  13.036
16301W        W80234  12.116  33.497   4.234
16302W        W80235   9.177  44.261   2.786
16303W        W80236  36.944  13.778   3.218
16304W        W80237   6.392   9.197   2.388
16305W        W80238  29.558  11.628  13.489
16306W        W80239  11.642  11.697   0.812
16307W        W80240  17.072  41.999   0.804
16308W        W80241  11.327   0.264   0.318
16309W        W80242  22.578  13.238   3.860
16310W        W80243  17.595  37.531  14.374
16311W        W80244  42.929  41.004   2.878
16312W        W80245  15.149  11.213  11.544
16313W        W80246  24.635  15.596   2.772
16314W        W80247   6.304   4.935  12.078
16315W        W80248   6.335   0.924  11.860
16316W        W80249  14.673  39.062  11.927
16317W        W80250   7.257  30.437  12.019
16318W        W80251  42.511  39.941  14.801
16319W        W80252  33.567   7.186  10.421
16320W        W80253   0.954  11.628  12.923
16321W        W80254  20.156  32.933  11.096
16322W        W80255  35.595   4.302   2.790
16323W        W80256  24.720  16.800  13.514
16324W        W80257   3.333  13.327   1.248
16325W        W80258   9.214   5.269  13.899
16326W        W80259  12.647  17.066  13.921
16327W        W80260  30.921  30.025  14.317
16328W        W80261  44.433   4.331   3.205
16329W        W80262  18.220  13.641   2.185
16330W        W80263   2.843  15.732  11.417
16331W        W80264  20.196  31.635  13.418
16332W        W80265  11.756  24.184   4.248
16333W        W80266  39.828  43.987   2.823
16334W        W80267  40.500  43.969   0.447
16335W        W80268   0.818   6.426  13.544
16336W        W80269   2.776  35.515   4.646
16337W        W80270   1.941   7.693   4.133
16338W        W80271  12.828   7.700  10.005
16339W        W80272  34.499  16.178   2.388
16340W        W80273  18.621   1.771  12.897
16341W        W80274  10.187  28.155   1.822
16342W        W80275  19.578  29.128  10.597
16343W        W80276  25.184   8.775  14.497
16344W        W80277   3.925  17.613  15.000
16345W        W80278   4.276  10.856   0.381
16346W        W80279  13.735  26.514  13.462
16347W        W80280  12.829  20.256  11.917
16348W        W80281   7.767  21.121   0.929
16349W        W80282  37.569  13.334  13.921
16350W        W80283  31.537  35.524   4.177
16351W        W80284  17.235   5.374   4.173
16352W        W80285  23.161   3.351  10.554
16353W        W80286  18.205  40.395   2.783
16354W        W80287   0.754  24.098  13.331
16355W        W80288  31.934  19.116  12.067
16356W        W80289  21.064   3.354   0.247
16357W        W80290   1.318  22.217  14.304
16358W        W80291   2.289  11.624   2.309
16359W        W80292  44.270  22.198   1.756
16360W        W80293  34.021  12.636   3.679
16361W        W80294  13.249  30.150  12.944
16362W        W80295  38.511  21.141   2.836
16363W        W80296  16.767  18.656   3.172
16364W        W80297  10.186  24.051  13.437
16365W        W80298   2.945   8.673  13.814
16366W        W80299  11.155  38.996  11.469
16367W        W80300  32.025   4.382   1.252
16368W        W80301  10.278  22.222   0.952
16369W        W80302  44.310   6.855   0.430
16370W        W80303  23.521  33.552   2.669
16371W        W80304   8.355  12.855  13.027
16372W        W80305  14.823   8.769   1.787
16373W        W80306   0.754  44.915  10.944
16374W        W80307  42.960  35.555   5.791
16375W        W80308  18.785  34.081   3.333
16376W        W80309  27.038  34.926  12.096
16377W        W80310  41.984  28.499   4.272
16378W        W80311   2.803   3.332   0.311
16379W        W80312  41.362   7.890   1.856
16380W        W80313  29.664  40.385  12.538
16381W        W80314  22.555  41.480  13.862
16382W        W80315  30.035  26.174  11.591
16383W        W80316   3.752  17.105  10.081
16384W        W80317  22.648  36.470  12.475
16385W        W80318  37.022   3.332   0.258
16386W        W80319  38.037  44.999   2.345
16387W        W80320  22.037  19.604  13.822
16388W        W80321   0.917  15.591   0.867
16389W        W80322  43.389  26.664  10.599
16390W        W80323  37.993   3.309   0.825
16391W        W80324  39.825  44.995   4.817
16392W        W80325  11.154  17.673  10.990
16393W        W80326  32.960  34.880   1.875
16394W        W80327  10.276  11.192   4.222
16395W        W80328   6.306  12.772   1.382
16396W        W80329  18.184  43.368   2.226
16397W        W80330   6.760  36.926   3.745
16398W        W80331  41.823  33.909  12.500
16399W        W80332  17.270   1.842   2.814
16400W        W80333  41.826  26.997   4.134
16401W        W80334   5.838   5.368  14.880
16402W        W80335  21.157   5.300  12.036
16403W        W80336  11.222  25.519   4.137
16404W        W80337  16.748   3.831   4.733
16405W        W80338  34.613  26.487   4.695
16406W        W80339  20.130  29.532   5.704
16407W        W80340  37.568  32.399   3.155
16408W        W80341  37.405  20.666   3.651
16409W        W80342  14.760  14.753  12.977
16410W        W80343  21.626  26.055  13.009
16411W        W80344  39.844  19.711  13.836
16412W        W80345  28.034  16.730   1.298
16413W        W80346   5.391   6.764   3.670
16414W        W80347   0.824  34.495   4.623
16415W        W80348  24.159  32.915   3.321
16416W        W80349   8.662  18.720   4.341
16417W        W80350  11.771  31.123  13.873
16418W        W80351  35.394   6.225  14.349
16419W        W80352   4.320  35.544  11.947
16420W        W80353  26.017  11.250  11.477
16421W        W80354   7.244  36.386   1.400
16422W        W80355  37.381  12.254  10.563
16423W        W80356  23.539  12.337   2.757
16424W        W80357  15.580  16.175  11.084
16425W        W80358  42.322  44.845  13.063
16426W        W80359  19.224  38.061   9.467
16427W        W80360  41.006  18.282   4.198
16428W        W80361  36.447  10.826   3.225
16429W        W80362  13.827   9.368  10.158
16430W        W80363  24.081   3.461   0.754
16431W        W80364  43.437  42.791  11.509
16432W        W80365  13.170  27.161  14.759
16433W        W80366   9.230  28.671   2.291
16434W        W80367  18.256  19.722   0.481
16435W        W80368  41.798  26.161   0.381
16436W        W80369   4.214  44.918   3.730
16437W        W80370  29.927  25.988   2.729
16438W        W80371  19.116  44.282  11.566
16439W        W80372  40.327  38.049  11.472
16440W        W80373   9.843  40.351   3.358
16441W        W80374   1.893  31.994  13.358
16442W        W80375  10.662  43.433  12.948
16443W        W80376  32.631  39.828  11.013
16444W        W80377   5.902   1.943   3.200
16445W        W80378  34.867  22.728   4.627
16446W        W80379  41.293  31.086  14.881
16447W        W80380  34.865  17.103  12.983
16448W        W80381  21.675  42.411   0.962
16449W        W80382  13.202  12.644  10.929
16450W        W80383  44.277  19.228  12.026
16451W        W80384  20.210   7.234   1.789
16452W        W80385   7.767   8.889  13.466
16453W        W80386  22.615  42.845   4.262
16454W        W80387  14.280  12.162  13.033
16455W        W80388  36.055  15.772   3.643
16456W        W80389   5.317  16.212  10.950
16457W        W80390   1.959   8.673   4.831
16458W        W80391  16.806  27.015  14.319
16459W        W80392  14.297  44.452   5.215
16460W        W80393   1.815  34.555  14.954
16461W        W80394   5.273  21.254  11.946
16462W        W80395  27.616  40.335   2.789
16463W        W80396  27.997   3.254   3.709
16464W        W80397  30.588   2.775  10.926
16465W        W80398   1.767  40.383   4.136
16466W        W80399  36.461   5.824  13.541
16467W        W80400  20.537  10.240  13.838
16468W        W80401  29.171  33.875  11.020
16469W        W80402  26.541  18.628  11.555
16470W        W80403  35.439  42.907   0.441
16471W        W80404   5.831  41.349  11.414
16472W        W80405   2.356  44.430  13.548
16473W        W80406  18.119  42.860  13.061
16474W        W80407  17.099   8.742   4.344
16475W        W80408  10.250  33.999  14.813
16476W        W80409   6.772  12.622  14.305
16477W        W80410  20.730  43.801   2.286
16478W        W80411  16.655  42.777  13.849
16479W        W80412  25.611   9.677   2.823
16480W        W80413  40.002  30.522  13.537
16481W        W80414  42.470   5.377   0.368
16482W        W80415  24.713  20.040   0.260
16483W        W80416   1.292  27.670  11.398
16484W        W80417  43.460   6.363  14.309
16485W        W80418   4.704   3.717  14.284
16486W        W80419   8.763  20.149   3.708
16487W        W80420  44.935  20.065  14.027
16488W        W80421   1.423  12.308   3.248
16489W        W80422  35.911  15.099  13.056
16490W        W80423  22.615  25.178   0.297
16491W        W80424  33.494  40.050  11.964
16492W        W80425  37.359   8.814   3.328
16493W        W80426  22.097  29.436  11.074
16494W        W80427  25.562  42.330  14.444
16495W        W80428  14.817  29.531   1.258
16496W        W80429   3.777  30.581  14.770
16497W        W80430  13.131  34.440  14.392
16498W        W80431  44.475  25.476   0.267
16499W        W80432   6.777  23.073  12.886
16500W        W80433  39.519  22.018  13.325
16501W        W80434  43.006  30.608  11.424
16502W        W80435  29.559  21.623  13.487
16503W        W80436  21.255  27.542  12.035
16504W        W80437   7.850  14.656  12.935
16505W        W80438   5.385  16.789   4.817
16506W        W80439  19.179  25.197  11.081
16507W        W80440   8.203  16.612  11.501
16508W        W80441  42.806  35.446  11.913
16509W        W80442  22.118  26.008   5.105
16510W        W80443  17.613   6.748  11.595
16511W        W80444  14.670  40.372  13.853
16512W        W80445  30.444   9.186  14.283
16513W        W80446   3.772  10.286  14.278
16514W        W80447  23.076   0.290  10.974
16515W        W80448  40.422  32.560   3.178
16516W        W80449  44.274  22.191  12.561
16517W        W80450  28.028  15.687  13.368
16518W        W80451   3.398   2.348  12.875
16519W        W80452  13.167  14.161  12.934
16520W        W80453  31.944  10.751   4.690
16521W        W80454  29.635  34.558   4.723
16522W        W80455  21.530  24.692  10.511
16523W        W80456   2.872  10.289  13.965
16524W        W80457  13.798  22.155   1.749
16525W        W80458  28.173  17.113  13.898
16526W        W80459  44.495  28.610  11.594
16527W        W80460  26.061  38.456  11.503
16528W        W80461  15.260  18.193   4.286
16529W        W80462  41.299  26.144  13.323
16530W        W80463  30.592  18.059  10.584
16531W        W80464   4.338  34.974  14.318
16532W        W80465  25.116  14.185   3.815
16533W        W80466  36.529   1.826   4.262
16534W        W80467  31.477   5.897   1.853
16535W        W80468  23.022  38.900   0.810
16536W        W80469  18.111  19.720   5.114
16537W        W80470  12.726  14.218  11.462
16538W        W80471  26.994  18.737   3.764
16539W        W80472   5.857  22.613   2.217
16540W        W80473  11.128  34.544   3.279
16541W        W80474  17.765  13.785  11.540
16542W        W80475  43.810  19.096   1.721
16543W        W80476  33.087  35.552   0.955
16544W        W80477  43.366  28.652   4.119
16545W        W80478  10.750  26.028   0.802
16546W        W80479  42.911  23.049  14.313
16547W        W80480  36.386   3.856  11.903
16548W        W80481  29.505  39.884  13.791
16549W        W80482  22.139  26.042   0.385
16550W        W80483  20.091  12.260  10.951
16551W        W80484  40.497  12.162  11.608
16552W        W80485  41.498  21.048   1.333
16553W        W80486  19.758  31.418   2.250
16554W        W80487  42.314  16.806   4.630
16555W        W80488  22.040   0.866   1.340
16556W        W80489  33.502  36.018   5.286
16557W        W80490  29.014  38.930   2.886
16558W        W80491  13.630  42.818   4.657
16559W        W80492  37.076  28.075  10.404
16560W        W80493   2.941  32.622  10.975
16561W        W80494  32.419  35.960  14.450
16562W        W80495  38.368  31.567   0.371
16563W        W80496  43.298  35.102  10.591
16564W        W80497  37.438  25.086   2.389
16565W        W80498  32.027  13.346   4.791
16566W        W80499  13.623  39.895  14.765
16567W        W80500  31.409  36.378   1.717
16568W        W80501  15.098  30.114   0.856
16569W        W80502  43.502  40.415   3.752
16570W        W80503  21.145  35.434   0.343
16571W        W80504  11.328  23.135   4.834
16572W        W80505  29.003  28.971  14.880
16573W        W80506  12.338  44.502   4.599
16574W        W80507  36.539  33.945  14.934
16575W        W80508   3.955   0.789  10.962
16576W        W80509  24.206  42.783  10.470
16577W        W80510  32.499  20.574  12.905
16578W        W80511  22.727  27.967  13.523
16579W        W80512  17.171  16.290  14.341
16580W        W80513  24.568  42.361   4.305
16581W        W80514  22.061  44.461   3.711
16582W        W80515  17.795  21.053   1.372
16583W        W80516   0.443  32.081  12.527
16584W        W80517  31.009   7.263   3.311
16585W        W80518  17.555  11.270  14.473
16586W        W80519  37.986  33.073  13.541
16587W        W80520  38.991   1.399   4.189
16588W        W80521  39.396   5.907   4.290
16589W        W80522  32.040  12.852  11.513
16590W        W80523  32.403   0.333   0.895
16591W        W80524  42.908   7.772   2.677
16592W        W80525  35.397   9.312  13.322
16593W        W80526  40.017   9.303  12.854
16594W        W80527  17.260  38.852  13.456
16595W        W80528  11.164  22.150  12.062
16596W        W80529  35.371  31.135  10.625
16597W        W80530  41.982  19.694  10.473
16598W        W80531  13.210  21.594   0.940
16599W        W80532  40.956  19.244  11.049
16600W        W80533  42.329  29.516   1.793
16601W        W80534  42.999  27.083  11.983
16602W        W80535  22.144  10.809   3.244
16603W        W80536  33.459   6.676   0.387
16604W        W80537   6.308  18.250   4.653
16605W        W80538  39.964  42.881  13.004
16606W        W80539  12.739  39.812  12.474
16607W        W80540  19.075   6.265  11.414
16608W        W80541   0.833  16.792   1.323
16609W        W80542  12.716  34.419   4.771
16610W        W80543  14.643  33.480  10.917
16611W        W80544  22.618  32.548  13.343
16612W        W80545   6.766  37.076   4.810
16613W        W80546   0.464  30.028  14.373
16614W        W80547  31.922  28.012  13.352
16615W        W80548  35.012  27.106   3.185
16616W        W80549  32.545  11.244  12.869
16617W        W80550  34.050  42.385   2.286
16618W        W80551  31.945  22.616  12.969
16619W        W80552  12.324  31.140  12.021
16620W        W80553   7.811  11.823  13.828
16621W        W80554  23.570  16.769   0.377
16622W        W80555   5.372  15.221   0.426
16623W        W80556  18.744  28.443   1.426
16624W        W80557  17.760  33.597   4.296
16625W        W80558  22.151  27.600   1.783
16626W        W80559   8.330  44.850  10.552
16627W        W80560  32.542  23.200  13.001
16628W        W80561   4.284  31.502  11.503
16629W        W80562  14.223   7.867  12.350
16630W        W80563  40.869  33.012  12.577
16631W        W80564   2.802  41.980   1.362
16632W        W80565  30.579  19.668  10.548
16633W        W80566   9.238  39.897  10.642
16634W        W80567  18.278  32.508   4.184
16635W        W80568  24.087  37.920  11.970
16636W        W80569  32.519  17.740  13.353
16637W        W80570  14.655  13.332  11.529
16638W        W80571  36.950  29.659  10.508
16639W        W80572   6.285  40.314   3.321
16640W        W80573  23.126  38.058   1.363
16641W        W80574   6.752   5.818  10.093
16642W        W80575  28.544  33.593   4.749
16643W        W80576  10.160  25.112  14.789
16644W        W80577  37.013   0.381   0.735
16645W        W80578  32.417  32.966  13.851
16646W        W80579   5.372  38.840   3.847
16647W        W80580  37.555  32.958  14.402
16648W        W80581  14.615   9.187  12.371
16649W        W80582  24.488  34.039  14.974
16650W        W80583  13.274  16.609   3.272
16651W        W80584  26.588  15.726   3.207
16652W        W80585  35.568  35.028   3.323
16653W        W80586   5.826  17.624   2.258
16654W        W80587  25.206  17.612  13.874
16655W        W80588   5.377  12.838  11.459
16656W        W80589  18.101  15.151   3.705
16657W        W80590   9.883  25.992  10.411
16658W        W80591  24.560  16.114   1.428
16659W        W80592  39.456  13.735  10.465
16660W        W80593   4.290  29.522  11.432
16661W        W80594  16.192  34.586  10.917
16662W        W80595  18.068  16.767   2.307
16663W        W80596  10.658  27.458   0.286
16664W        W80597  44.005  25.607  14.341
16665W        W80598  23.071  42.873  13.434
16666W        W80599  19.072  37.567   0.915
16667W        W80600   0.980   1.241  12.055
16668W        W80601  20.037  17.178  14.887
16669W        W80602  44.891   0.827  14.313
16670W        W80603   1.382  42.818   2.216
16671W        W80604  40.030  20.240  10.980
16672W        W80605  44.419  38.394   2.750
16673W        W80606  44.352   1.308  11.067
16674W        W80607  29.986  16.280  13.341
16675W        W80608  41.949  28.623  10.460
16676W        W80609  36.405  18.065  12.446
16677W        W80610   4.723   2.867  12.556
16678W        W80611  10.198  34.582  14.003
16679W        W80612  31.897  27.196   1.295
16680W        W80613  33.083  19.145  13.946
16681W        W80614  41.014  24.033   2.241
16682W        W80615  10.753   2.384   0.903
16683W        W80616  18.253  11.372   1.397
16684W        W80617  27.129  31.569  12.026
16685W        W80618  43.962  26.135   2.366
16686W        W80619  30.981  22.162  13.903
16687W        W80620  18.555  22.198  13.450
16688W        W80621   8.383  43.977   3.185
16689W        W80622  10.324   5.860  10.548
16690W        W80623  18.618  44.381   0.374
16691W        W80624  41.523  13.629   0.816
16692W        W80625  42.012   5.200   1.833
16693W        W80626  18.766  43.806   2.383
16694W        W80627  34.454  11.139  12.929
16695W        W80628  25.668  32.537  12.366
16696W        W80629  19.563   4.737  13.311
16697W        W80630  21.693  20.156   3.670
16698W        W80631  16.084  24.528   4.239
16699W        W80632  27.084  12.237   4.178
16700W        W80633   9.336  38.935  11.992
16701W        W80634  39.812  12.268   4.253
16702W        W80635  17.566   6.722  14.511
16703W        W80636  44.436  13.778  12.993
16704W        W80637  30.953  29.594   0.894
16705W        W80638  14.593   3.283  11.459
16706W        W80639  32.081  23.696  13.403
16707W        W80640   2.834  38.995   3.646
16708W        W80641  27.600  26.659  11.060
16709W        W80642  24.146  23.640   1.844
16710W        W80643  15.649  19.087  10.433
16711W        W80644  43.352  30.141   0.743
16712W        W80645  24.982  33.421  13.310
16713W        W80646  39.487   1.851  12.015
16714W        W80647  19.761   3.734  13.398
16715W        W80648  29.099  33.519  12.473
16716W        W80649   1.439  14.627   2.239
16717W        W80650   9.291  24.722  11.859
16718W        W80651  13.308   8.220   3.229
16719W        W80652   9.289  23.700   5.118
16720W        W80653  17.767   6.898   3.860
16721W        W80654   0.436  10.184  11.110
16722W        W80655  25.086  14.750  11.053
16723W        W80656  38.368  42.012  14.382
16724W        W80657  13.250  26.551   1.443
16725W        W80658  41.919  24.683  14.515
16726W        W80659   2.725  19.618  12.364
16727W        W80660  30.491  29.480   5.181
16728W        W80661  42.392  10.163  11.092
16729W        W80662   6.730  22.133   3.855
16730W        W80663  38.470   8.723  13.866
16731W        W80664  42.969  40.854   4.258
16732W        W80665   9.318  22.081  11.447
16733W        W80666  41.536  14.720   0.799
16734W        W80667   0.282  41.338  13.374
16735W        W80668  30.625   4.207  14.936
16736W        W80669  36.386  15.799  10.503
16737W        W80670  28.956  37.057   0.308
16738W        W80671   1.354  34.889   1.833
16739W        W80672  18.128  16.264   0.842
16740W        W80673  17.229  36.452   4.251
16741W        W80674  28.497  12.321  14.382
16742W        W80675  25.023   8.332  13.519
16743W        W80676   5.373   1.318   1.774
16744W        W80677  26.601  16.620   2.669
16745W        W80678   3.335  33.476  14.374
16746W        W80679  14.821   5.373  11.066
16747W        W80680  21.019  39.381  13.490
16748W        W80681   5.817  20.254   1.238
16749W        W80682  13.691  31.071  12.073
16750W        W80683  23.228  30.144  12.842
16751W        W80684  36.895  21.261   3.363
16752W        W80685   7.233  40.051  13.521
16753W        W80686  17.719  19.656  12.908
16754W        W80687   6.339  38.397   0.381
16755W        W80688  11.332  40.969   4.698
16756W        W80689  36.950  28.037  13.968
16757W        W80690  29.082  20.617  13.908
16758W        W80691   4.704  13.149  14.008
16759W        W80692  35.497  38.438   0.873
16760W        W80693  19.683  35.530  14.312
16761W        W80694  40.438  28.985  12.481
16762W        W80695   6.330  36.526   2.278
16763W        W80696  28.949  26.476   0.349
16764W        W80697  43.397  33.996  13.922
16765W        W80698   7.891  28.016  12.087
16766W        W80699   9.180  27.580   4.777
16767W        W80700  18.088  26.566   3.366
16768W        W80701  20.239  20.566  10.506
16769W        W80702  30.491  19.635   4.234
16770W        W80703  12.653   4.937  14.790
16771W        W80704   1.750  38.999   1.822
16772W        W80705  39.385  15.737   1.246
16773W        W80706  30.509  40.032   1.741
16774W        W80707   2.394  19.651   3.858
16775W        W80708   7.336   1.361   1.405
16776W        W80709  32.972  28.154   2.874
16777W        W80710  28.127  11.771  14.914
16778W        W80711  29.973  11.339  11.555
16779W        W80712  23.058  26.551   2.824
16780W        W80713  28.991   6.801   2.368
16781W        W80714  29.587  29.457  14.017
16782W        W80715  30.459  43.359  14.366
16783W        W80716   3.821  12.632  13.906
16784W        W80717  37.434  10.633   3.258
16785W        W80718  27.122  32.995  11.485
16786W        W80719  24.982  42.007  14.856
16787W        W80720  41.530  14.603   2.277
16788W        W80721  12.669  33.997   3.250
16789W        W80722  10.275  30.644   5.157
16790W        W80723  19.573  18.140   2.286
16791W        W80724  17.633  35.447  14.026
16792W        W80725  32.905  39.439  10.563
16793W        W80726   3.931  28.023  13.040
16794W        W80727  32.098   7.804   2.865
16795W        W80728  19.194  20.697   4.176
16796W        W80729  24.681  11.856  14.290
16797W        W80730  10.243   2.953  12.447
16798W        W80731   0.881  19.741   3.694
16799W        W80732   6.183  28.436  11.598
16800W        W80733  25.546  12.180  14.370
16801W        W80734  28.144  24.978   3.799
16802W        W80735  10.784  44.480  10.976
16803W        W80736   4.316  28.506  13.337
16804W        W80737   3.751  27.100   0.801
16805W        W80738  44.794  11.362   0.400
16806W        W80739  20.620  20.146   0.893
16807W        W80740  20.132  33.574  11.086
16808W        W80741  43.385  16.201  11.592
16809W        W80742  32.489  17.155  10.892
16810W        W80743  40.549  31.410  11.376
16811W        W80744  10.323  43.021   4.181
16812W        W80745  23.070  36.948   2.740
16813W        W80746  25.630   9.211   3.378
16814W        W80747  25.114   5.781   1.405
16815W        W80748  33.919  34.425  14.987
16816W        W80749  37.861   4.289  13.051
16817W        W80750  36.887  32.443   2.340
16818W        W80751  19.684  25.993  14.430
16819W        W80752   9.266  27.191   0.893
16820W        W80753  40.355   4.320  14.832
16821W        W80754  32.042  32.039   5.261
16822W        W80755  25.178   9.841  11.897
16823W        W80756  33.589  39.811   0.863
16824W        W80757   4.894  16.645   3.763
16825W        W80758   5.923  39.518   1.761
16826W        W80759  10.724  18.242   4.230
16827W        W80760  10.266   7.816   4.715
16828W        W80761  25.050  32.131   1.718
16829W        W80762  34.566  38.389   4.227
16830W        W80763  11.782  23.726   0.285
16831W        W80764  39.985  25.186   3.353
16832W        W80765   9.228  24.491   4.311
16833W        W80766  14.629  27.586  12.568
16834W        W80767  14.687  41.394   2.348
16835W        W80768  21.106   9.273  13.940
16836W        W80769  34.440  37.561   2.679
16837W        W80770  18.209  34.041  13.448
16838W        W80771  11.713  36.946  12.906
16839W        W80772  40.892  26.186   4.804
16840W        W80773   4.396  37.548  14.501
16841W        W80774  22.626  29.529   9.955
16842W        W80775  27.114   3.893   0.309
16843W        W80776   5.257   7.386   0.466
16844W        W80777   0.773   0.264  14.358
16845W        W80778   8.661  17.738   0.945
16846W        W80779  37.378   5.814  10.450
16847W        W80780  18.149  44.331   2.359
16848W        W80781  37.016  13.295  14.377
16849W        W80782  42.487  38.416   4.827
16850W        W80783  40.916  44.359   0.334
16851W        W80784   5.199   0.342  13.795
16852W        W80785  25.020  27.645  14.805
16853W        W80786  25.636   5.261   0.427
16854W        W80787  17.289   5.704  10.889
16855W        W80788   8.390  27.120  11.579
16856W        W80789  27.557  32.410   1.281
16857W        W80790  21.067   2.261   1.816
16858W        W80791  35.543  15.237  13.939
16859W        W80792  38.965  17.746   0.937
16860W        W80793  16.797   8.328  11.862
16861W        W80794   7.274  44.295   0.290
16862W        W80795   7.292  24.494  13.062
16863W        W80796  28.577  22.577  13.979
16864W        W80797  16.107   9.741   0.790
16865W        W80798  29.655   1.369   4.763
16866W        W80799  39.409  12.812   2.680
16867W        W80800  25.550  23.718   4.599
16868W        W80801  19.741  35.913  13.428
16869W        W80802   1.309  21.035   4.676
16870W        W80803  21.634   1.428   3.279
16871W        W80804  10.179   5.395  10.960
16872W        W80805   9.773  18.702  13.524
16873W        W80806  17.171  31.542  10.900
16874W        W80807   8.180   8.901   5.253
16875W        W80808   4.779  34.481  13.506
16876W        W80809   7.279  30.610  11.015
16877W        W80810  15.701   0.860  14.767
16878W        W80811  24.001   0.842   1.913
16879W        W80812  42.858  40.517   1.716
16880W        W80813   7.721  38.509   2.301
16881W        W80814   3.845  22.712  11.909
16882W        W80815  17.172  24.034   2.304
16883W        W80816  42.519  22.019  14.830
16884W        W80817  34.449  32.052  11.005
16885W        W80818  11.630  34.939   1.220
16886W        W80819  30.651  35.551  14.796
16887W        W80820  23.731   2.234  11.008
16888W        W80821  22.700  28.162  11.594
16889W        W80822  33.052  13.339   2.390
16890W        W80823   5.283  33.018   0.337
16891W        W80824  43.997   6.299  13.941
16892W        W80825  15.687   2.796  10.544
16893W        W80826  10.353  34.545  10.138
16894W        W80827  29.619  27.980  13.937
16895W        W80828  17.287  29.438  12.083
16896W        W80829  44.389  22.016   1.219
16897W        W80830  13.331  26.497  14.437
16898W        W80831  10.763  31.598   1.283
16899W        W80832  20.658  17.243  14.313
16900W        W80833  30.452   0.835  13.426
16901W        W80834  16.154   1.350   2.825
16902W        W80835   1.742  43.801  10.910
16903W        W80836   9.271   9.225   1.280
16904W        W80837  44.987  42.935   0.940
16905W        W80838  22.562  36.862   1.917
16906W        W80839  37.355  22.675   4.780
16907W        W80840  10.686  19.221  13.867
16908W        W80841  22.512  26.117  11.108
16909W        W80842  37.383   2.746   2.275
16910W        W80843  39.425  13.107   0.851
16911W        W80844  26.532  12.153   0.931
16912W        W80845   0.976  15.189   4.767
16913W        W80846  44.832  43.302   4.230
16914W        W80847  17.260  21.623   1.403
16915W        W80848  30.152  22.206   1.261
16916W        W80849  13.773   4.379   2.416
16917W        W80850  28.597   2.843   0.806
16918W        W80851  11.250   2.295   3.679
16919W        W80852   4.330  41.400  10.908
16920W        W80853  36.031  39.921   2.209
16921W        W80854  44.292  33.456   0.744
16922W        W80855  22.687  31.011  13.044
16923W        W80856  39.007  32.621   3.159
16924W        W80857  29.971  15.308   1.250
16925W        W80858  14.764   7.312   3.795
16926W        W80859  31.492  34.981   0.944
16927W        W80860  31.556  34.979   4.206
16928W        W80861  33.087  33.886   0.275
16929W        W80862  43.336  29.092   0.378
16930W        W80863  17.100  15.161  13.016
16931W        W80864  21.732  17.188  13.339
16932W        W80865  26.005  12.630  12.943
16933W        W80866  35.554  43.940   4.769
16934W        W80867  41.889  11.812  11.485
16935W        W80868  43.397   4.870  13.486
16936W        W80869   0.371  35.952   4.659
16937W        W80870   4.321   5.914  14.483
16938W        W80871  11.665  30.623   9.983
16939W        W80872   5.776  31.618   2.247
16940W        W80873  14.119  41.981  13.510
16941W        W80874  43.899   3.824   1.814
16942W        W80875  24.682  14.211   4.680
16943W        W80876   8.844  31.030   4.768
16944W        W80877  19.641  39.426   0.855
16945W        W80878  32.609  16.606  11.503
16946W        W80879   9.161  29.095  11.011
16947W        W80880  27.513   6.270  10.416
16948W        W80881  44.818  13.148  14.812
16949W        W80882   1.308  22.026  14.853
16950W        W80883  13.726  27.092  12.576
16951W        W80884  16.115  44.977  14.799
16952W        W80885  42.518  11.691   0.736
16953W        W80886  22.590  10.376   5.148
16954W        W80887  28.468   8.258   1.369
16955W        W80888  21.129  27.553   3.241
16956W        W80889  18.609  13.287  13.401
16957W        W80890  23.644  44.965   4.269
16958W        W80891  34.079  29.658  13.942
16959W        W80892  43.808   5.282  13.987
16960W        W80893  43.435  35.986  10.549
16961W        W80894  29.598  30.095  13.495
16962W        W80895  10.738  25.056   1.232
16963W        W80896  11.857  37.063   3.189
16964W        W80897  22.231  13.137  14.290
16965W        W80898  44.406   8.211  12.457
16966W        W80899  17.760  27.103   3.247
16967W        W80900  35.066  36.092   2.363
16968W        W80901  25.147  18.658   4.327
16969W        W80902  26.123  40.521  12.526
16970W        W80903   0.414   4.330   3.370
16971W        W80904   6.207  10.140   1.856
16972W        W80905  30.605  16.793  10.999
16973W        W80906   6.239   5.375  12.955
16974W        W80907  34.542  42.295   2.736
16975W        W80908  44.813  33.956  14.839
16976W        W80909  25.632   1.446  11.128
16977W        W80910  31.595  17.258   1.824
16978W        W80911  12.712   4.394  14.983
16979W        W80912  32.565  19.260   4.637
16980W        W80913  10.289   9.360  13.809
16981W        W80914  34.049  43.467  14.779
16982W        W80915  17.183  20.274  10.607
16983W        W80916  27.571  18.640  10.460
16984W        W80917  42.325  17.789   3.186
16985W        W80918  33.011  30.478  13.870
16986W        W80919  38.524   4.842   2.858
16987W        W80920  13.182  44.855  13.521
16988W        W80921  13.334   9.803  14.026
16989W        W80922  21.218  15.656   3.219
16990W        W80923  11.635  36.969  14.883
16991W        W80924  29.650  35.935   3.662
16992W        W80925  17.077  25.024  10.113
16993W        W80926  17.070  26.173   3.866
16994W        W80927  20.768   7.286   3.821
16995W        W80928  43.889  10.852   1.709
16996W        W80929  44.848  29.505  12.895
16997W        W80930  18.280   4.401  12.546
16998W        W80931   0.493  35.468  11.888
16999W        W80932  13.181   2.945  12.386
17000W        W80933  28.664   1.452   4.167
17001W        W80934  30.496  17.204  13.943
17002W        W80935  21.655  20.687   1.797
17003W        W80936   4.870  18.125  10.525
17004W        W80937   1.340  17.660  12.868
17005W        W80938   4.335  41.503  12.382
17006W        W80939  12.197  14.606   4.784
17007W        W80940  41.882  32.620   2.252
17008W        W80941  38.916  37.533  13.966
17009W        W80942  27.661  12.244  13.932
17010W        W80943   3.416  36.877   2.816
17011W        W80944  43.918  19.602  13.929
17012W        W80945   8.770  35.470   3.208
17013W        W80946  14.760   3.378   2.695
17014W        W80947  25.151  14.135  14.439
17015W        W80948  35.912  29.039  12.905
17016W        W80949   0.906  19.236   4.812
17017W        W80950  29.076  40.474  10.920
17018W        W80951  38.515  31.004  10.607
17019W        W80952   5.262  15.221  14.419
17020W        W80953  39.064  44.759   0.768
17021W        W80954  28.029  36.040  14.452
17022W        W80955  34.369  23.221  14.887
17023W        W80956  27.050  17.248   3.223
17024W        W80957  22.100  15.655   0.942
17025W        W80958  42.797  17.230   4.173
17026W        W80959  15.240  34.017   2.686
17027W        W80960  43.279  33.939   4.280
17028W        W80961  24.231  31.905   2.179
17029W        W80962   5.929  40.408  11.533
17030W        W80963  20.181  15.671  10.018
17031W        W80964  12.287  23.697   2.730
17032W        W80965  32.083  15.186   0.788
17033W        W80966  35.002  42.328  12.870
17034W        W80967   0.961  41.353  13.938
17035W        W80968   7.295   7.273   1.367
17036W        W80969   4.391  37.939  12.915
17037W        W80970  30.650  37.831   2.291
17038W        W80971  32.100   3.405   0.875
17039W        W80972   0.343  42.874  14.487
17040W        W80973  15.305  26.034   4.277
17041W        W80974  23.131  12.791  13.940
17042W        W80975  44.885   3.787   4.706
17043W        W80976  32.912  23.549   1.919
17044W        W80977   8.795  12.734   4.268
17045W        W80978  36.866   8.337   3.672
17046W        W80979  10.664  19.735   2.272
17047W        W80980  37.436  34.043   0.323
17048W        W80981  13.655  40.908  11.973
17049W        W80982  17.707  12.226   4.720
17050W        W80983  27.457  22.685  14.502
17051W        W80984  39.341   3.393   3.692
17052W        W80985  25.519  28.454   2.258
17053W        W80986   0.396   3.866  14.465
17054W        W80987   7.415  43.801  13.890
17055W        W80988   4.276  32.470   3.810
17056W        W80989  25.629  33.616  11.525
17057W        W80990  32.483  22.615  14.461
17058W        W80991  40.330  22.518  11.607
17059W        W80992  12.138  20.260  11.580
17060W        W80993  23.195  15.632  13.327
17061W        W80994  39.527  33.034   0.920
17062W        W80995  21.683  34.030   3.750
17063W        W80996   3.454  25.538   1.903
17064W        W80997   1.423  44.961  12.923
17065W        W80998  43.463  31.044   3.253
17066W        W80999  34.015   7.207  10.543
17067W        W81000  13.351  44.403   0.827
17068W        W81001  38.467  11.711  13.832
17069W        W81002  31.016  35.105   5.091
17070W        W81003   0.935  43.440  11.973
17071W        W81004  13.192  40.037   3.668
17072W        W81005  32.464   2.463   0.852
17073W        W81006   4.860  39.940  12.389
17074W        W81007   3.307  32.400   0.294
17075W        W81008  15.165  34.102   3.778
17076W        W81009   6.343  12.654  13.982
17077W        W81010  24.154   1.750   1.850
17078W        W81011  29.564  12.241  10.486
17079W        W81012  13.249  29.566  11.997
17080W        W81013  44.467  34.864   5.298
17081W        W81014  26.186  36.364  11.447
17082W        W81015  34.880   0.492   4.339
17083W        W81016  21.687  22.224   4.273
17084W        W81017  33.920  15.821  10.426
17085W        W81018   5.382  10.671   2.804
17086W        W81019  14.176  23.523  11.021
17087W        W81020   5.886  28.934  12.557
17088W        W81021  28.040  40.508  12.347
17089W        W81022   6.778   5.814   1.933
17090W        W81023  14.619  25.177   3.153
17091W        W81024   2.315  16.244  11.431
17092W        W81025  42.298  43.296  13.342
17093W        W81026  41.502   7.213  14.789
17094W        W81027  13.811  36.430   3.867
17095W        W81028   1.913  13.287  11.869
17096W        W81029  12.275  40.014  15.000
17097W        W81030  29.471  29.080  14.923
17098W        W81031   5.784  43.445   4.681
17099W        W81032   9.265   6.335   1.819
17100W        W81033  30.613  44.899   3.726
17101W        W81034  37.044  30.593   3.810
17102W        W81035  36.875  12.755  11.064
17103W        W81036   6.730  27.597   4.234
17104W        W81037   1.792   5.849  12.002
17105W        W81038  19.279   3.947   4.752
17106W        W81039  14.276  28.568  13.535
17107W        W81040  16.121   3.843  13.856
17108W        W81041  12.301   2.762   2.701
17109W        W81042  35.941   8.244  12.006
17110W        W81043   4.827   4.880  14.005
17111W        W81044  30.043  38.544   0.749
17112W        W81045  11.765  42.795  12.930
17113W        W81046  14.227   9.672   4.174
17114W        W81047  34.439   1.874   1.792
17115W        W81048  32.557  36.866   3.318
17116W        W81049  10.690  12.281  11.590
17117W        W81050  37.345  29.036  13.836
17118W        W81051  23.084   8.285   0.277
17119W        W81052   8.234   0.380   4.347
17120W        W81053  13.176  29.083  10.552
17121W        W81054  21.083  42.426   2.294
17122W        W81055  10.747  22.100  11.918
17123W        W81056  16.583  41.839   5.146
17124W        W81057  24.202  27.616   2.279
17125W        W81058  26.630  44.415   3.187
17126W        W81059  25.028  10.823  12.476
17127W        W81060  31.960  10.180   5.215
17128W        W81061  16.271  32.133  10.926
17129W        W81062  24.716  11.158  12.048
17130W        W81063  36.491  25.704  12.363
17131W        W81064  16.696  11.654   1.915
17132W        W81065  44.324  36.065  11.559
17133W        W81066  34.931  37.338   1.735
17134W        W81067  25.085  36.428  13.475
17135W        W81068  20.205  18.294   5.241
17136W        W81069  21.597  16.801   4.786
17137W        W81070   0.276  18.687   2.300
17138W        W81071  11.294  44.864   2.891
17139W        W81072   9.256   1.858   4.655
17140W        W81073  18.102  42.396   0.868
17141W        W81074  42.466  21.047  12.070
17142W        W81075  39.975  24.996   2.763
17143W        W81076   2.862  41.897  11.022
17144W        W81077  10.704  24.177   3.381
17145W        W81078  30.535   6.347  14.966
17146W        W81079  12.190  33.409  14.460
17147W        W81080  14.796   6.358   2.375
17148W        W81081   4.874  30.485  10.583
17149W        W81082  24.988  15.704  13.860
17150W        W81083  34.026  25.627  10.441
17151W        W81084   6.192  23.539  13.481
17152W        W81085  33.924  27.681   1.315
17153W        W81086  16.652  29.028  11.397
17154W        W81087  19.628  25.616  10.537
17155W        W81088   0.794  44.842  10.453
17156W        W81089  31.979  44.291  13.965
17157W        W81090   7.306   5.249   5.322
17158W        W81091  44.429  18.571  11.605
17159W        W81092  37.848  41.422  12.076
17160W        W81093  25.550  14.670   3.158
17161W        W81094  28.612  15.584  12.353
17162W        W81095  40.954  11.665   4.645
17163W        W81096   1.298  12.221  14.943
17164W        W81097  19.705  25.546  10.925
17165W        W81098  15.140  28.451   1.328
17166W        W81099  30.934  11.851   1.427
17167W        W81100  31.107   4.408   1.399
17168W        W81101   5.220  15.132   0.752
17169W        W81102  29.934  11.834   4.607
17170W        W81103  25.109  43.426   4.631
17171W        W81104  28.107  23.561  14.408
17172W        W81105  19.211  37.867   0.871
17173W        W81106  10.778  28.112   2.244
17174W        W81107  35.063  26.996   0.816
17175W        W81108   8.209  24.169   2.382
17176W        W81109   9.182  38.913  10.404
17177W        W81110  38.957  10.803  10.947
17178W        W81111  41.008  42.991   1.254
17179W        W81112  25.549  31.960  13.413
17180W        W81113  15.261   5.824   0.812
17181W        W81114   7.278   0.896   0.946
17182W        W81115   9.771  35.101  14.334
17183W        W81116  27.046  12.733   5.263
17184W        W81117  21.649   7.821   0.778
17185W        W81118   4.448  17.556   4.651
17186W        W81119  19.592  12.820  12.390
17187W        W81120  29.039  14.766  11.113
17188W        W81121  43.819  29.466   4.330
17189W        W81122   5.415  39.531  14.876
17190W        W81123  26.688  23.519  10.510
17191W        W81124  10.321  30.943  13.468
17192W        W81125  16.790  41.370  14.365
17193W        W81126   7.851  40.401   5.161
17194W        W81127  42.393  13.723  14.399
17195W        W81128  19.098  15.669   0.904
17196W        W81129   8.347  18.607  13.943
17197W        W81130   5.283  38.490   2.403
17198W        W81131  12.823  13.803   1.713
17199W        W81132  41.964   7.698  11.520
17200W        W81133  10.160   9.743   1.275
17201W        W81134  21.035   6.184   1.700
17202W        W81135   3.402   9.303   0.372
17203W        W81136  36.007  35.089  13.349
17204W        W81137  24.549   9.196   4.154
17205W        W81138  15.784  24.048   2.865
17206W        W81139  39.418  34.057   1.343
17207W        W81140  31.506  14.151   1.289
17208W        W81141  32.522   1.269   2.728
17209W        W81142  18.684  10.712  14.337
17210W        W81143   4.918  25.529   1.419
17211W        W81144  24.032  33.912   0.411
17212W        W81145   7.844  32.622  13.514
17213W        W81146  21.570  31.133   4.639
17214W        W81147  24.980  15.181   3.723
17215W        W81148  33.931   5.223  12.580
17216W        W81149  13.754  35.930   0.789
17217W        W81150   6.851  22.630   1.312
17218W        W81151  16.595  39.941  14.796
17219W        W81152  40.525  41.307  11.476
17220W        W81153  18.169  17.242   0.304
17221W        W81154   4.353  33.017  10.544
17222W        W81155  34.952  44.360   0.939
17223W        W81156  39.048  33.604   3.715
17224W        W81157   8.245   7.301   2.220
17225W        W81158  22.151  12.663  14.359
17226W        W81159  21.233  14.665   5.282
17227W        W81160   2.794  29.437   1.319
17228W        W81161  14.813   5.427  12.499
17229W        W81162  20.630  42.967   2.763
17230W        W81163  22.680  42.507  13.868
17231W        W81164   3.900   2.285   4.699
17232W        W81165   2.281  14.242  14.347
17233W        W81166   7.808   4.365  12.382
17234W        W81167  12.827   6.376  10.890
17235W        W81168  24.593  11.169   2.777
17236W        W81169   0.427   5.324  14.325
17237W        W81170  22.685  43.785  10.913
17238W        W81171  31.510  29.946   0.407
17239W        W81172  44.411  16.616   0.922
17240W        W81173  10.261  17.247  12.932
17241W        W81174  36.351  27.664   1.718
17242W        W81175  21.709  41.836   2.184
17243W        W81176  12.804  41.463  11.527
17244W        W81177  21.625  41.392  14.907
17245W        W81178  17.172  31.601   2.817
17246W        W81179  23.172  26.582   4.679
17247W        W81180  33.951  11.176   1.304
17248W        W81181  42.525  15.723  11.450
17249W        W81182  37.569  19.650   3.687
17250W        W81183  14.796  36.440  11.374
17251W        W81184  41.032  36.885   3.800
17252W        W81185  23.203   6.403  12.948
17253W        W81186  20.274   6.325   2.882
17254W        W81187  29.591   6.889   0.344
17255W        W81188   5.755  33.443   0.890
17256W        W81189  39.939   8.206  12.477
17257W        W81190   2.886  13.116  11.911
17258W        W81191  16.214  28.525   3.161
17259W        W81192  12.262  14.298   1.275
17260W        W81193   8.822   3.443  12.914
17261W        W81194  23.595  25.603  11.072
17262W        W81195  36.530   4.207  11.613
17263W        W81196  13.624  29.548  11.396
17264W        W81197  32.942  20.643  12.434
17265W        W81198  33.465  27.081  14.464
17266W        W81199  11.133  27.528   1.393
17267W        W81200  19.682  24.098   4.698
17268W        W81201  26.024   3.915   2.352
17269W        W81202   1.809  15.582  13.425
17270W        W81203   8.258  14.318   3.855
17271W        W81204   1.972  33.495  11.443
17272W        W81205  37.443  13.759  13.812
17273W        W81206  23.202  13.642  13.510
17274W        W81207  27.579  38.380  12.096
17275W        W81208  24.540  25.654  11.977
17276W        W81209  21.025  17.748   3.376
17277W        W81210  23.542  42.970   0.942
17278W        W81211  20.760  33.626  11.959
17279W        W81212   0.791  40.491   0.340
17280W        W81213  43.510  34.559   5.574
17281W        W81214   8.284  29.121  10.994
17282W        W81215  42.813  21.091  14.471
17283W        W81216  30.120  22.007  11.070
17284W        W81217   7.217  40.971   1.864
17285W        W81218  29.521  16.094  12.468
17286W        W81219   7.208   1.273  11.929
17287W        W81220  38.446   1.333  10.602
17288W        W81221  14.703   2.252   2.889
17289W        W81222  19.592  20.167  12.946
17290W        W81223  11.786  28.172   5.210
17291W        W81224  29.489   8.716   1.429
17292W        W81225  42.450  11.677   2.869
17293W        W81226   0.751  43.948  12.550
17294W        W81227  38.325  44.301   1.700
17295W        W81228   2.919  20.764  13.009
17296W        W81229  13.151   7.279   0.818
17297W        W81230  23.517   0.873   2.193
17298W        W81231  11.226  43.386   2.755
17299W        W81232  15.807  32.550   2.765
17300W        W81233  28.539  29.142  10.910
17301W        W81234  40.996  39.401   0.920
17302W        W81235   5.399  26.487   0.849
17303W        W81236  34.508  12.116   1.933
17304W        W81237  23.089   0.969   1.747
17305W        W81238   8.281   8.166  14.281
17306W        W81239   8.204  39.037   3.177
17307W        W81240  38.515  10.367   4.248
17308W        W81241  41.824  25.978  13.837
17309W        W81242  33.393  14.777  13.039
17310W        W81243  22.741   8.365   3.769
17311W        W81244  29.660   9.221  12.000
17312W        W81245  33.034   5.922  14.939
17313W        W81246  35.366  42.300   0.796
17314W        W81247  41.885  17.293  12.978
17315W        W81248   0.378  44.859   4.793
17316W        W81249   1.970  19.070  12.050
17317W        W81250   8.780   8.164   4.231
17318W        W81251  27.135  10.345   2.665
17319W        W81252  23.032  25.596   3.294
17320W        W81253   3.299  40.843  12.073
17321W        W81254  11.167  23.715   3.650
17322W        W81255   4.274  18.547  14.025
17323W        W81256  16.077  10.674   4.231
17324W        W81257  38.013  19.697   1.404
17325W        W81258  15.249  21.234   4.133
17326W        W81259  26.039  40.970   1.293
17327W        W81260   2.870  36.403  14.780
17328W        W81261  22.737  43.404   0.875
17329W        W81262  11.176   3.327   2.244
17330W        W81263  10.315   4.217  11.469
17331W        W81264  22.181   7.842   0.407
17332W        W81265  12.610   8.174   5.102
17333W        W81266   4.793  35.527   4.827
17334W        W81267  13.165  10.313   4.343
17335W        W81268   2.438  19.137  14.962
17336W        W81269  32.963  42.332   4.129
17337W        W81270   5.775  17.603   1.877
17338W        W81271  33.614  14.161   0.405
17339W        W81272  34.892  19.563   3.689
17340W        W81273  33.400  28.055   4.162
17341W        W81274  34.064  25.104   3.345
17342W        W81275  39.020  39.045  10.111
17343W        W81276  36.527  18.622   2.368
17344W        W81277  38.844  28.145  13.895
17345W        W81278   5.825  36.989   0.913
17346W        W81279  39.356   7.408  14.899
17347W        W81280  34.612  43.316  13.868
17348W        W81281  19.130   1.906  10.996
17349W        W81282  32.127  24.094  11.376
17350W        W81283  30.443  23.038  12.526
17351W        W81284  20.073  24.188   2.805
17352W        W81285   6.732  38.948  11.499
17353W        W81286  24.042  14.234   3.760
17354W        W81287   2.274  15.753   4.279
17355W        W81288  35.967   6.798   4.131
17356W        W81289  39.039  44.990  11.597
17357W        W81290  33.130  24.585   3.304
17358W        W81291  27.552  36.474   1.397
17359W        W81292   7.215  22.192  11.523
17360W        W81293  31.598  26.094  10.604
17361W        W81294  33.990  35.891  13.461
17362W        W81295  40.534  32.964   1.430
17363W        W81296  29.536  16.153   0.963
17364W        W81297  37.923  16.614   1.761
17365W        W81298  37.087  35.876   4.599
17366W        W81299  24.585  42.336  13.032
17367W        W81300  10.843  35.036  12.901
17368W        W81301  17.216  24.027  13.456
17369W        W81302  39.542   5.269  13.488
17370W        W81303   6.821  21.110  10.908
17371W        W81304  14.646  37.888   9.650
17372W        W81305  30.514  15.144  12.848
17373W        W81306  13.706  44.960   2.767
17374W        W81307  36.941  12.718   0.386
17375W        W81308  12.119  39.971  10.605
17376W        W81309  27.605   9.677  10.483
17377W        W81310  40.878  19.703  12.340
17378W        W81311  32.549  41.792   2.748
17379W        W81312   0.285   6.751   1.272
17380W        W81313   9.226  34.888  13.483
17381W        W81314  24.995  30.414  10.510
17382W        W81315   7.176   0.463  11.060
17383W        W81316  33.898  32.066  10.064
17384W        W81317  18.581   8.683   0.866
17385W        W81318  43.837  37.456   2.291
17386W        W81319  25.138  28.584  12.431
17387W        W81320   6.355  39.908  14.472
17388W        W81321  13.189  30.584  11.062
17389W        W81322  38.874  32.564  14.411
17390W        W81323  26.698  19.056   4.117
17391W        W81324   0.350  17.576  13.923
17392W        W81325   3.772  11.733  10.941
17393W        W81326  26.066  13.718  14.311
17394W        W81327  13.278  24.104   1.766
17395W        W81328   0.839  33.610   4.700
17396W        W81329  29.454  24.521  12.902
17397W        W81330  22.204   9.694   2.777
17398W        W81331  10.805  26.523   0.816
17399W        W81332   1.793  28.936  10.479
17400W        W81333  17.290  13.624  14.888
17401W        W81334  27.027  28.592  12.849
17402W        W81335   6.396  40.965   4.597
17403W        W81336   3.852  13.184  13.540
17404W        W81337  19.222  32.080  14.012
17405W        W81338   5.902  31.421  14.512
17406W        W81339  13.233  33.090  10.485
17407W        W81340   0.842  38.465   1.862
17408W        W81341   3.883  27.646   4.686
17409W        W81342  16.158   4.778  13.414
17410W        W81343  12.635   8.660   2.822
17411W        W81344  34.489  42.362  10.555
17412W        W81345   8.892  35.996   0.902
17413W        W81346  14.206  11.748   4.683
17414W        W81347  18.724  40.906  13.045
17415W        W81348  37.465  42.970   0.960
17416W        W81349  36.444  31.493   4.326
17417W        W81350   1.281  13.155   0.831
17418W        W81351  12.282  11.356  13.943
17419W        W81352  23.671  13.317   4.611
17420W        W81353   1.844  22.066   1.804
17421W        W81354   2.911  38.438  11.597
17422W        W81355   0.841   3.369   3.753
17423W        W81356   9.767  14.794   0.963
17424W        W81357  26.523  20.644  12.854
17425W        W81358  22.630   8.761  11.016
17426W        W81359  23.093   0.259  14.474
17427W        W81360   6.746  18.727  13.492
17428W        W81361  26.674  38.991   0.381
17429W        W81362  21.040  31.977  12.890
17430W        W81363  27.001   2.818  13.403
17431W        W81364  33.600   4.266  14.309
17432W        W81365  33.511  35.921   0.259
17433W        W81366  18.741   2.357  11.448
17434W        W81367  37.073  31.602   0.813
17435W        W81368  24.027  40.465  11.028
17436W        W81369  33.095  38.869   2.769
17437W        W81370   7.727   1.937   1.807
17438W        W81371  42.824   0.973   4.799
17439W        W81372  22.076  25.966  11.498
17440W        W81373  34.992   0.946   2.178
17441W        W81374  22.560  24.595  14.993
17442W        W81375  28.494   1.868  13.408
17443W        W81376  32.938   1.767   2.271
17444W        W81377  16.650  19.649   4.739
17445W        W81378   6.677  32.464   4.325
17446W        W81379   0.414  26.484  13.816
17447W        W81380  42.022  39.460  13.509
17448W        W81381  21.061  11.298   4.354
17449W        W81382   0.410  22.076   0.810
17450W        W81383  12.841  18.590   0.882
17451W        W81384  18.664   1.883  11.084
17452W        W81385  25.974   2.283  11.955
17453W        W81386  22.744   2.806   1.801
17454W        W81387  40.527  12.272  13.970
17455W        W81388  41.904  28.944   1.776
17456W        W81389  18.624  20.042   3.701
17457W        W81390  42.282  23.192   3.860
17458W        W81391  24.039   7.787   3.278
17459W        W81392   5.776   3.927   0.276
17460W        W81393   7.732  21.243   2.192
17461W        W81394   7.377  37.005  14.005
17462W        W81395  18.117  19.755   4.720
17463W        W81396  25.542  13.739   4.345
17464W        W81397  29.116  23.219   0.817
17465W        W81398  40.936  36.461  12.867
17466W        W81399  11.295  34.958   0.763
17467W        W81400   5.320  42.527  14.404
17468W        W81401   3.859   0.876   4.745
17469W        W81402  13.811  10.839   1.278
17470W        W81403  32.395  35.888   3.292
17471W        W81404  28.671  17.684   1.398
17472W        W81405  26.567  37.413  13.414
17473W        W81406  12.232  32.455   2.263
17474W        W81407  18.228  39.379  11.590
17475W        W81408  30.048   2.444  13.040
17476W        W81409  24.146   5.889   4.220
17477W        W81410   3.411  37.545  13.405
17478W        W81411  38.482   9.833   2.363
17479W        W81412  41.863  32.618   2.811
17480W        W81413  39.994  12.760  10.899
17481W        W81414   6.353  41.448   1.726
17482W        W81415  24.651   4.935   3.830
17483W        W81416  28.182  27.495   0.746
17484W        W81417  41.516  17.271   4.737
17485W        W81418  22.078  38.937   2.196
17486W        W81419  30.107  11.189   4.834
17487W        W81420  25.643  27.453  10.467
17488W        W81421  43.849  13.135  11.570
17489W        W81422  30.026   4.247  14.364
17490W        W81423  18.701  19.694  13.878
17491W        W81424  14.130  41.384  11.579
17492W        W81425  24.635  36.449  14.284
17493W        W81426  34.119  15.100   0.304
17494W        W81427   2.835  13.815   4.210
17495W        W81428  12.195  23.085  11.611
17496W        W81429  21.740  44.471  13.941
17497W        W81430  22.682   5.195   2.239
17498W        W81431   1.472  40.977  11.921
17499W        W81432  28.082   4.806  14.793
17500W        W81433  42.416  10.272   1.716
17501W        W81434  44.369  26.586   5.116
17502W        W81435   9.224  26.091  13.523
17503W        W81436  39.410  35.566  14.473
17504W        W81437  34.582  36.879   3.344
17505W        W81438  42.884  14.825  12.081
17506W        W81439  43.768  32.911   3.718
17507W        W81440  21.728  37.977   3.763
17508W        W81441   8.200  28.090   3.668
17509W        W81442  44.300  33.938   3.761
17510W        W81443   1.903  12.823  11.129
17511W        W81444   2.376   6.381  12.566
17512W        W81445  25.663   2.241   1.391
17513W        W81446  28.182  41.843   0.766
17514W        W81447  11.859  33.916   2.404
17515W        W81448  11.780  44.852   2.681
17516W        W81449   5.889  35.999   0.401
17517W        W81450  31.102  20.210  11.467
17518W        W81451  42.415  28.129   2.727
17519W        W81452   3.286   1.918   2.285
17520W        W81453   8.235  38.036  11.913
17521W        W81454  13.279   6.395   0.370
17522W        W81455  33.003  29.424   3.285
17523W        W81456   8.889   6.768   3.664
17524W        W81457  35.901   0.795  13.426
17525W        W81458  10.855  12.222   2.802
17526W        W81459   2.913  34.063   4.829
17527W        W81460  42.350  31.602  14.836
17528W        W81461  28.996  34.968  11.029
17529W        W81462  21.098  19.181  10.975
17530W        W81463  10.854  42.904   2.680
17531W        W81464  22.134  42.419  11.542
17532W        W81465  34.547  29.986   4.161
17533W        W81466  43.795  43.378  14.862
17534W        W81467  12.266  41.842  11.126
17535W        W81468  27.560   7.803  12.554
17536W        W81469  33.465  38.369  13.439
17537W        W81470   5.691  29.484  13.831
17538W        W81471  21.160  14.825  13.523
17539W        W81472  40.982   2.802   2.310
17540W        W81473  37.470  20.625   4.126
17541W        W81474   0.405  16.230  13.500
17542W        W81475  25.150  41.863  11.027
17543W        W81476   4.892  13.349   2.218
17544W        W81477  36.048  36.449   0.939
17545W        W81478  42.288  17.074   3.352
17546W        W81479   8.298  34.063   2.827
17547W        W81480  37.053  17.150   3.327
17548W        W81481  26.013   2.842   2.332
17549W        W81482  24.107   2.286   3.672
17550W        W81483  26.100  15.267  12.527
17551W        W81484  42.911  39.371  11.387
17552W        W81485  17.093  40.823   0.813
17553W        W81486  15.304  40.504   4.147
17554W        W81487  35.438  30.420   2.242
17555W        W81488  15.620   2.454  14.929
17556W        W81489  18.632  43.393  14.874
17557W        W81490  23.137  30.103  10.518
17558W        W81491   2.296  12.717  13.469
17559W        W81492  31.524   3.377  14.507
17560W        W81493  35.904  30.508   4.619
17561W        W81494  27.190  27.630  11.939
17562W        W81495   3.422  31.070  13.925
17563W        W81496  27.125  41.023   4.322
17564W        W81497   9.749   8.397  11.440
17565W        W81498   2.351  29.604  10.524
17566W        W81499  14.098  36.028   1.289
17567W        W81500   9.779  38.985   1.274
17568W        W81501  21.099  29.666   1.732
17569W        W81502  14.668  18.195  11.879
17570W        W81503  27.071   4.421   1.336
17571W        W81504  22.509   0.901   2.377
17572W        W81505  22.033  32.038  14.393
17573W        W81506  13.724  25.094  11.004
17574W        W81507  22.724  15.822   3.692
17575W        W81508  33.095  14.233   1.321
17576W        W81509  12.754   5.210   4.752
17577W        W81510  21.592  24.032  14.901
17578W        W81511  23.989  23.645  14.419
17579W        W81512  19.625   0.813   3.246
17580W        W81513  29.014  28.100  10.582
17581W        W81514  26.989  41.507   1.218
17582W        W81515  34.460  34.955  14.790
17583W        W81516  41.888   9.178   3.266
17584W        W81517   7.703  43.272   0.963
17585W        W81518  29.439  31.432   2.341
17586W        W81519   2.260  25.544  11.108
17587W        W81520  42.362  41.827   1.865
17588W        W81521  17.724  19.617  10.534
17589W        W81522  27.561  11.657   4.646
17590W        W81523  22.735  16.791   2.204
17591W        W81524  16.643  32.982  12.429
17592W        W81525   2.810   4.314  13.328
17593W        W81526  30.536  32.616  12.909
17594W        W81527  25.061  38.419   2.790
17595W        W81528  44.957  34.008   4.267
17596W        W81529  25.660  25.038  14.839
17597W        W81530  30.997  15.789  13.821
17598W        W81531  30.019  37.917  12.880
17599W        W81532  10.785  26.970  12.048
17600W        W81533  19.769  44.266  14.875
17601W        W81534  22.629  20.597  11.875
17602W        W81535  21.601  13.257   1.389
17603W        W81536  29.059   1.869   3.861
17604W        W81537  17.653  41.404   0.868
17605W        W81538  43.360   7.290  13.962
17606W        W81539  22.211  23.229  13.969
17607W        W81540  16.762  31.028  11.495
17608W        W81541  35.513   9.791  11.912
17609W        W81542   8.782  22.201  14.913
17610W        W81543  10.263  15.200   0.318
17611W        W81544  36.490  40.397   0.900
17612W        W81545  39.327  29.119   3.819
17613W        W81546  42.322  21.135   3.747
17614W        W81547  24.023  29.982  11.411
17615W        W81548  32.599   8.764   2.220
17616W        W81549  15.145   2.447  14.790
17617W        W81550  34.500  42.831  14.817
17618W        W81551  10.324  18.217   4.166
17619W        W81552  16.640  34.107   0.396
17620W        W81553  31.130   7.417   2.875
17621W        W81554   6.843   4.850   0.954
17622W        W81555   7.722  21.047   2.879
17623W        W81556  33.967   8.872   3.384
17624W        W81557  38.016   7.781  14.863
17625W        W81558  16.731  32.031  13.867
17626W        W81559  16.695  32.024  11.403
17627W        W81560   9.794  10.305  11.499
17628W        W81561  20.752  35.505   3.718
17629W        W81562   8.168  12.123  14.860
17630W        W81563   8.797  43.320   1.845
17631W        W81564  13.322  21.147  10.942
17632W        W81565  37.347  27.146   4.298
17633W        W81566   3.752  13.192   3.345
17634W        W81567  24.985  23.645  10.899
17635W        W81568  33.979  16.190  11.474
17636W        W81569   6.426  21.114   2.410
17637W        W81570   7.377   5.220   2.676
17638W        W81571   0.486   9.245   0.328
17639W        W81572  39.832  32.138   0.835
17640W        W81573   7.695  31.554  13.825
17641W        W81574  37.572   5.410  14.860
17642W        W81575  41.987  18.147  11.035
17643W        W81576   8.233  41.456  12.890
17644W        W81577  36.937  10.156   2.900
17645W        W81578  35.445  19.105  14.402
17646W        W81579  27.138  33.597  11.083
17647W        W81580  17.610  18.058   0.481
17648W        W81581  33.477   5.871   2.671
17649W        W81582  30.094   6.900   4.768
17650W        W81583  40.528  39.013   0.756
17651W        W81584  33.622  26.963  11.520
17652W        W81585  26.046   6.891  10.942
17653W        W81586  43.003  33.947  14.810
17654W        W81587   2.327  25.057  11.515
17655W        W81588  33.914  21.529  12.013
17656W        W81589   1.321   5.254  12.917
17657W        W81590  34.866   2.268   0.276
17658W        W81591   8.348   9.368  14.358
17659W        W81592  25.582  24.105   0.292
17660W        W81593  15.585  34.918   3.695
17661W        W81594  22.183   3.832   0.848
17662W        W81595   2.731  22.587   2.381
17663W        W81596   4.944  31.441   0.288
17664W        W81597   9.649  16.168   0.767
17665W        W81598  15.240  36.409   0.949
17666W        W81599   0.974  44.940  13.351
17667W        W81600  27.163  26.024  13.451
17668W        W81601  38.515  26.474  11.609
17669W        W81602  20.676  30.069   4.182
17670W        W81603  28.477   9.855   3.240
17671W        W81604  33.579  33.485   1.446
17672W        W81605  38.365  15.638  14.426
17673W        W81606  34.412  25.009  10.957
17674W        W81607   0.479   2.962  12.998
17675W        W81608  10.294  12.828  11.512
17676W        W81609  40.509  23.541  10.082
17677W        W81610  34.957   1.851  14.865
17678W        W81611   0.786  20.237   2.893
17679W        W81612  20.659  35.367   4.299
17680W        W81613   0.813  34.050  12.924
17681W        W81614  34.542   8.359   4.282
17682W        W81615  14.225  38.477   0.328
17683W        W81616  20.078  16.781   2.777
17684W        W81617  43.476  23.056   2.385
17685W        W81618  41.946  25.188   4.677
17686W        W81619  17.173  20.708   3.382
17687W        W81620  10.225   0.438  10.430
17688W        W81621  16.696  10.820   1.275
17689W        W81622  26.462  33.442   1.822
17690W        W81623  42.468  13.614   2.266
17691W        W81624  20.743  27.613  12.071
17692W        W81625  27.979  10.701  10.449
17693W        W81626  25.671  38.425  13.403
17694W        W81627  23.597  36.042   3.813
17695W        W81628  26.977  37.509  13.042
17696W        W81629  28.997   2.781  14.499
17697W        W81630   7.802  10.754  10.917
17698W        W81631  38.887  43.404  11.560
17699W        W81632  43.299  27.055   4.736
17700W        W81633  28.516  13.783  13.429
17701W        W81634  11.838  44.775   0.418
17702W        W81635   6.801   3.866  13.336
17703W        W81636  34.482  26.005   3.686
17704W        W81637   8.227  33.924   0.423
17705W        W81638  21.024  10.697   4.295
17706W        W81639  24.142   8.324  11.037
17707W        W81640   5.330  19.714   1.887
17708W        W81641  39.013  39.875  10.514
17709W        W81642  40.383  18.784  10.910
17710W        W81643  17.766  44.986  12.480
17711W        W81644  29.500  20.229   1.310
17712W        W81645  11.285   0.938  10.936
17713W        W81646  30.444  32.601   4.216
17714W        W81647  34.927  40.948   1.426
17715W        W81648  14.170  15.788   0.415
17716W        W81649   2.332   5.216  13.505
17717W        W81650  40.915  39.050   1.802
17718W        W81651  27.549  11.335   0.361
17719W        W81652   7.904   7.864   3.685
17720W        W81653   8.666  27.574   4.627
17721W        W81654  41.375   5.415   2.374
17722W        W81655   4.437  25.535   4.801
17723W        W81656   4.879  17.578   2.850
17724W        W81657  13.698  25.687   4.215
17725W        W81658  12.706  13.280  10.606
17726W        W81659  27.529  31.097  12.509
17727W        W81660  37.836   7.787  14.421
17728W        W81661  37.915  12.743  14.760
17729W        W81662  38.428   1.734  10.535
17730W        W81663  36.492  13.142   2.860
17731W        W81664  19.233  31.461  12.878
17732W        W81665   0.301  26.194  11.476
17733W        W81666  11.747  19.181   0.427
17734W        W81667  30.081  40.409  10.569
17735W        W81668  41.528  17.753  10.924
17736W        W81669   6.276  26.685   2.333
17737W        W81670  17.700  10.755   2.278
17738W        W81671  35.515  35.441   2.213
17739W        W81672  20.539  29.651   3.260
17740W        W81673  36.429  18.546   1.818
17741W        W81674   0.467  23.530   4.266
17742W        W81675  27.161  30.656  13.888
17743W        W81676  11.327  29.091  10.475
17744W        W81677  42.026  24.572  10.475
17745W        W81678  12.183   9.796   2.225
17746W        W81679   0.961  20.570   0.378
17747W        W81680  10.873  29.173   3.732
17748W        W81681  27.618  13.725  11.529
17749W        W81682  37.013  11.199   0.950
17750W        W81683  10.286  17.652   4.157
17751W        W81684  30.607   3.744   1.738
17752W        W81685  37.837  19.138   1.404
17753W        W81686  25.122  21.137  12.892
17754W        W81687  31.058  10.704   4.187
17755W        W81688   7.827   1.782  12.953
17756W        W81689  32.130  43.904   3.861
17757W        W81690  24.620  23.721   1.820
17758W        W81691  29.992   1.324   2.345
17759W        W81692  36.528  34.001   0.748
17760W        W81693  20.541   5.844   4.301
17761W        W81694   6.384  37.910   3.804
17762W        W81695  10.703  26.580   0.415
17763W        W81696  20.622  19.225  14.380
17764W        W81697  10.770  15.659  10.544
17765W        W81698  24.487  13.235  13.381
17766W        W81699  37.500  15.095  13.394
17767W        W81700   2.336  15.274  12.484
17768W        W81701  14.664   3.336  12.471
17769W        W81702  23.694   7.899  10.946
17770W        W81703  39.004  33.961  14.985
17771W        W81704  28.057  23.092  13.428
17772W        W81705  37.897  36.042  10.991
17773W        W81706  35.047  12.356   2.300
17774W        W81707  28.465  13.149  10.422
17775W        W81708   0.426  36.011   3.669
17776W        W81709   9.378  33.889   1.847
17777W        W81710  35.000   6.721   0.890
17778W        W81711  31.545  35.461   4.704
17779W        W81712  44.849   1.896   4.630
17780W        W81713  24.195   8.689   1.226
17781W        W81714  42.890  24.624  13.391
17782W        W81715  24.723  42.968  11.110
17783W        W81716   8.861   4.742   4.355
17784W        W81717  34.958  11.224   0.426
17785W        W81718  21.520  10.343  13.545
17786W        W81719  26.165  21.238  12.980
17787W        W81720  27.170   1.976  10.499
17788W        W81721  25.661   1.395   0.966
17789W        W81722  38.562  22.024   2.784
17790W        W81723  33.505  35.976  14.418
17791W        W81724  12.709   5.203   3.837
17792W        W81725  44.478  44.789   0.359
17793W        W81726   6.761  17.297  10.474
17794W        W81727  24.617   3.247   2.883
17795W        W81728  19.094   9.154   3.815
17796W        W81729  44.489  28.530   0.830
17797W        W81730  34.030  14.804  14.504
17798W        W81731  28.958   3.440  12.846
17799W        W81732  15.794  18.748   2.844
17800W        W81733  22.008   1.922   1.854
17801W        W81734  13.712  24.022   2.323
17802W        W81735  22.995  43.789  12.894
17803W        W81736  20.121  40.038   2.798
17804W        W81737  34.546  14.764  13.834
17805W        W81738  38.374  26.472  14.995
17806W        W81739  17.100  26.080   1.820
17807W        W81740  16.728   8.291  14.402
17808W        W81741  38.964  43.354  13.056
17809W        W81742  39.987  38.826   4.667
17810W        W81743  27.961  15.130   2.200
17811W        W81744   3.814  25.568  12.500
17812W        W81745  29.499   5.859  11.430
17813W        W81746  13.672   3.715  13.390
17814W        W81747  17.771   0.316   4.713
17815W        W81748   7.374  12.299   0.798
17816W        W81749  21.060  12.641  10.476
17817W        W81750  29.547  25.695  12.510
17818W        W81751  20.615   2.300  11.411
17819W        W81752   4.847  21.685   3.736
17820W        W81753  41.930  11.669  14.023
17821W        W81754  39.500  25.166   2.178
17822W        W81755  25.499   6.337   2.211
17823W        W81756  28.008  29.572   1.803
17824W        W81757  41.383  29.458  12.868
17825W        W81758  13.768  33.064   3.858
17826W        W81759   3.414   7.837   3.163
17827W        W81760  42.989  27.975   4.787
17828W        W81761   9.161  15.127   0.262
17829W        W81762  41.893  31.919   0.940
17830W        W81763  27.996  30.058   3.264
17831W        W81764   3.392  39.432   1.342
17832W        W81765  30.128  17.123   0.776
17833W        W81766  34.587  35.994  14.473
17834W        W81767  31.034  34.457   0.739
17835W        W81768  23.019  43.846  14.308
17836W        W81769   5.385  19.113  11.898
17837W        W81770  37.852   7.852  12.440
17838W        W81771  14.160  35.975  13.437
17839W        W81772  21.145  14.276  11.611
17840W        W81773  30.064   6.210  13.430
17841W        W81774  28.541   7.412  13.352
17842W        W81775  33.129   2.724  13.501
17843W        W81776   4.939  25.698   3.696
17844W        W81777   4.844  20.681  10.494
17845W        W81778  23.693   7.840  11.421
17846W        W81779  28.086  14.791  13.971
17847W        W81780  37.453  14.259   3.257
17848W        W81781  22.739   8.656  14.310
17849W        W81782  11.204  31.089   0.869
17850W        W81783  11.647  34.949   2.738
17851W        W81784  12.821  28.963  11.458
17852W        W81785  31.042  27.556   4.800
17853W        W81786  43.011   7.766   1.922
17854W        W81787  14.176  27.662   2.682
17855W        W81788  10.813  11.298   1.318
17856W        W81789  30.432  38.899   2.897
17857W        W81790   5.776  22.658  11.024
17858W        W81791  40.937  23.223   4.627
17859W        W81792  24.613  42.408   0.800
17860W        W81793  34.950   0.266   0.904
17861W        W81794  26.629  17.699  13.339
17862W        W81795  40.489   1.943  14.929
17863W        W81796   7.224  33.512  14.298
17864W        W81797  33.386  24.201  11.962
17865W        W81798  26.116  29.660   0.793
17866W        W81799  18.695  11.767  11.038
17867W        W81800  36.082  40.379  13.914
17868W        W81801  37.569  32.977  12.448
17869W        W81802  28.527   4.423  10.953
17870W        W81803  37.833  19.663   3.297
17871W        W81804  27.486  18.084   2.251
17872W        W81805  13.174  22.729   3.379
17873W        W81806  30.986  23.112  13.047
17874W        W81807   1.392  15.259  10.415
17875W        W81808   0.972  20.643  10.449
17876W        W81809   0.288  24.227   1.750
17877W        W81810  15.235  37.566   0.392
17878W        W81811   2.832  42.946  13.315
17879W        W81812  37.564  25.494  12.507
17880W        W81813   5.710  34.612  10.422
17881W        W81814  34.582   2.875  13.955
17882W        W81815  32.564  18.107  12.493
17883W        W81816  40.503  23.191   1.357
17884W        W81817  23.209  22.737  11.955
17885W        W81818  16.647  17.585   2.795
17886W        W81819   8.796  22.736   3.686
17887W        W81820   7.899   4.701   0.441
17888W        W81821  42.423  21.022  11.420
17889W        W81822  10.206  15.778  11.892
17890W        W81823   5.856  16.244   3.231
17891W        W81824  34.981  19.064  13.910
17892W        W81825  10.219  43.356   4.775
17893W        W81826  13.811  43.886   0.303
17894W        W81827  24.609  43.302  13.854
17895W        W81828  25.215  37.036  11.927
17896W        W81829   9.301  17.219   4.609
17897W        W81830  28.501   1.431   9.991
17898W        W81831  36.082  17.562   3.645
17899W        W81832  41.524  14.791  11.940
17900W        W81833  27.624   3.856  12.972
17901W        W81834   9.173  35.079   0.246
17902W        W81835  12.767  31.538  14.446
17903W        W81836  35.011  30.474   4.600
17904W        W81837  31.054  12.121   3.319
17905W        W81838  25.685  35.901  12.956
17906W        W81839  10.228  25.093  13.972
17907W        W81840  24.014  13.152  11.103
17908W        W81841  30.484  37.883   3.165
17909W        W81842  32.115  38.537  11.868
17910W        W81843  32.133  39.034   2.245
17911W        W81844   9.332   6.724  12.990
17912W        W81845  23.683  30.988   4.258
17913W        W81846  38.546  13.659  11.970
17914W        W81847  20.626  16.300   9.538
17915W        W81848  30.631  14.174  10.503
17916W        W81849  10.330  29.572   1.723
17917W        W81850  37.406  11.354   1.284
17918W        W81851  13.660  41.000  13.053
17919W        W81852  41.012  11.658   3.639
17920W        W81853  17.099  22.614   5.299
17921W        W81854   5.773   8.313   1.815
17922W        W81855  42.952  43.012   3.247
17923W        W81856  33.046  42.981  10.579
17924W        W81857   2.310   7.268   3.806
17925W        W81858  31.988  33.052   4.139
17926W        W81859  17.063  18.582   5.194
17927W        W81860   4.310  26.119   5.585
17928W        W81861  43.493  20.532   1.413
17929W        W81862  32.420  42.359   3.314
17930W        W81863  15.224  18.098   5.263
17931W        W81864  10.263  32.078   3.859
17932W        W81865  37.925  19.096   4.281
17933W        W81866  39.539  29.986   3.698
17934W        W81867  39.324   2.397   4.668
17935W        W81868  12.240   3.904  13.897
17936W        W81869  28.121  14.670  14.371
17937W        W81870  41.499  18.666   3.235
17938W        W81871   7.835  25.489  11.489
17939W        W81872  11.128  28.471  10.613
17940W        W81873   5.719  35.568   1.220
17941W        W81874  27.530   5.736  12.501
17942W        W81875  25.118  16.172  13.940
17943W        W81876  37.517   1.877   1.267
17944W        W81877  29.537  19.163  12.887
17945W        W81878  33.080  19.671   2.228
17946W        W81879   9.244  20.539   4.335
17947W        W81880  19.091  38.402   2.285
17948W        W81881  10.663  19.669  14.956
17949W        W81882  12.271   1.949   4.355
17950W        W81883  11.212   6.769   0.353
17951W        W81884  40.462  43.375   1.293
17952W        W81885   2.279  25.543   2.387
17953W        W81886  25.651  30.586  11.562
17954W        W81887  11.146  32.568   3.170
17955W        W81888  20.274  22.224  11.539
17956W        W81889  12.255  36.588  14.970
17957W        W81890  34.483  15.594  11.071
17958W        W81891  19.146  42.783  11.872
17959W        W81892  25.974  32.495   0.282
17960W        W81893  27.956  32.485  11.966
17961W        W81894  18.719   2.425   4.127
17962W        W81895  41.508  11.761  14.913
17963W        W81896  20.649  21.246  13.802
17964W        W81897  12.281  14.103  11.511
17965W        W81898   4.741  39.320   0.410
17966W        W81899  41.482  42.407  11.523
17967W        W81900  24.153  18.050   4.815
17968W        W81901  38.412  41.970  14.874
17969W        W81902   7.806  36.545  11.937
17970W        W81903  41.037  37.462  12.906
17971W        W81904  40.310  11.300   1.234
17972W        W81905  16.704   2.796   4.700
17973W        W81906  26.593  19.588  13.465
17974W        W81907  40.514  11.771   1.354
17975W        W81908   2.464  32.523  13.415
17976W        W81909  27.141  38.402  12.461
17977W        W81910  38.392  25.055  11.907
17978W        W81911  39.406  20.196   4.156
17979W        W81912  32.569  14.701  11.864
17980W        W81913  39.013  26.977  14.503
17981W        W81914  17.140  39.935  11.449
17982W        W81915  22.659   0.413   1.296
17983W        W81916  29.017   8.254  13.986
17984W        W81917  38.407   4.731  12.452
17985W        W81918   1.825  14.719  10.412
17986W        W81919  38.443   3.215  14.932
17987W        W81920  23.496  25.670   0.334
17988W        W81921  27.998   8.346  12.854
17989W        W81922  24.186  13.104  13.472
17990W        W81923   7.696  44.930   0.818
17991W        W81924  17.305  38.445  13.474
17992W        W81925  34.488  11.817   1.802
17993W        W81926  36.854   7.352   3.834
17994W        W81927   1.746  22.028  12.969
17995W        W81928   7.230  41.805   3.285
17996W        W81929  34.041  10.312  13.532
17997W        W81930  33.002   2.894  12.860
17998W        W81931  33.552  23.558   4.261
17999W        W81932   8.371   0.433  13.024
18000W        W81933   9.267   6.405  12.935
18001W        W81934  44.456   7.302  14.937
18002W        W81935   8.831  32.931   0.742
18003W        W81936  36.479  15.578  12.356
18004W        W81937  44.302  36.387  10.006
18005W        W81938   0.917  25.144  13.425
18006W        W81939   6.304   1.389   1.915
18007W        W81940  30.624  33.485  11.078
18008W        W81941  24.027  39.460  13.055
18009W        W81942  30.081  20.115   0.348
18010W        W81943  21.120  15.325  13.503
18011W        W81944   1.797  15.692  11.939
18012W        W81945  41.944   3.934   1.309
18013W        W81946  22.717  33.578  11.450
18014W        W81947  39.471  23.490  12.849
18015W        W81948  13.154   2.437  12.878
18016W        W81949  13.617  25.173   2.366
18017W        W81950  27.455  41.406  13.436
18018W        W81951  22.250  44.762   0.255
18019W        W81952  29.551  26.471  11.954
18020W        W81953   1.962  18.701  10.483
18021W        W81954  35.570  29.430  13.504
18022W        W81955   2.457  44.343  11.481
18023W        W81956  17.774  37.506  14.008
18024W        W81957  14.178  33.956  11.543
18025W        W81958  37.337  27.012   1.730
18026W        W81959  42.487  32.914  14.031
18027W        W81960  37.340  41.827   4.802
18028W        W81961   1.910   8.327  14.953
18029W        W81962  38.548  22.160  12.875
18030W        W81963  36.979  27.488  12.495
18031W        W81964  15.302   3.432  13.482
18032W        W81965   3.899  20.149  14.843
18033W        W81966   7.209  15.086  11.456
18034W        W81967   3.927  20.099  11.108
18035W        W81968  36.849  33.584  14.781
18036W        W81969  39.489  27.145   2.813
18037W        W81970  35.550  27.611  12.568
18038W        W81971  43.361  21.690  11.913
18039W        W81972  36.841  35.067   3.289
18040W        W81973  30.037  20.094   3.767
18041W        W81974  31.454   6.187   1.235
18042W        W81975  36.399  30.602   3.740
18043W        W81976   3.762  30.549   5.090
18044W        W81977   5.772  10.164  14.318
18045W        W81978  14.778  18.705   0.895
18046W        W81979  41.385  23.582   0.850
18047W        W81980  34.516  18.646   1.348
18048W        W81981  39.963  20.233  10.622
18049W        W81982  41.845  25.078   4.242
18050W        W81983  44.916  38.069   1.928
18051W        W81984  21.079  25.122   4.653
18052W        W81985  38.383   5.820   2.844
18053W        W81986   5.391   3.813  12.905
18054W        W81987  20.550  11.755   0.315
18055W        W81988  32.083  37.971  11.559
18056W        W81989  34.510  10.251   4.123
18057W        W81990  23.007  25.072   4.232
18058W        W81991   0.329  26.599  10.537
18059W        W81992  11.138  12.710   3.665
18060W        W81993  22.628  13.621  10.021
18061W        W81994  20.593  39.548   1.839
18062W        W81995   2.242   2.850  13.865
18063W        W81996  44.854  24.609   1.275
18064W        W81997  30.566  30.476   0.472
18065W        W81998   5.344  11.320   1.895
18066W        W81999  19.689  24.547   2.844
18067W        W82000  16.764   6.398  11.395
18068W        W82001   6.859   4.808  14.949
18069W        W82002  22.708  22.654  13.920
18070W        W82003  33.613  41.530   0.956
18071W        W82004  17.679  25.201  12.346
18072W        W82005   4.214  35.946   0.924
18073W        W82006  17.219  23.690   5.175
18074W        W82007  11.623   0.787  12.009
18075W        W82008   4.755  36.489  12.407
18076W        W82009  15.138  44.886  13.977
18077W        W82010  13.800  33.041  14.888
18078W        W82011   0.247  37.549   5.303
18079W        W82012  20.750  35.989  12.514
18080W        W82013  21.094  11.291   3.856
18081W        W82014  23.522   2.398   3.235
18082W        W82015  13.825  14.653   3.383
18083W        W82016   9.176  35.501  13.917
18084W        W82017  44.398   3.333  10.553
18085W        W82018  38.517  27.035   3.664
18086W        W82019   0.747  41.347   2.888
18087W        W82020   4.305  15.191   4.329
18088W        W82021  14.783  11.165   4.615
18089W        W82022   7.394  21.224   1.830
18090W        W82023  40.953  23.193   4.336
18091W        W82024  26.471  18.787   4.133
18092W        W82025   1.903   8.160   2.839
18093W        W82026  20.222  21.092  13.395
18094W        W82027  14.775   8.668  14.907
18095W        W82028   3.461  29.155   2.844
18096W        W82029  42.419  41.494  12.865
18097W        W82030  17.242  14.787   0.330
18098W        W82031  27.069   6.372  14.457
18099W        W82032  36.371  32.956   3.735
18100W        W82033  17.072  17.174  12.971
18101W        W82034  28.615  24.202  14.350
18102W        W82035   8.688  31.047  14.011
18103W        W82036   3.438  30.606   3.692
18104W        W82037  21.624  44.809  11.406
18105W        W82038  39.834  19.680  14.963
18106W        W82039  39.912  13.135  11.016
18107W        W82040   1.477  16.739   3.249
18108W        W82041  10.353  17.670  12.926
18109W        W82042  26.662  36.853   1.838
18110W        W82043  29.583   2.751   2.297
18111W        W82044   6.253  23.092   5.101
18112W        W82045  13.175  25.178   0.966
18113W        W82046   3.874   6.743  13.475
18114W        W82047  18.750  20.054  11.542
18115W        W82048  33.398  21.561   0.248
18116W        W82049  17.732  18.150   1.277
18117W        W82050  10.690  36.871   0.293
18118W        W82051  13.113  36.902   4.182
18119W        W82052  42.885  17.560   0.319
18120W        W82053  26.083   0.974   0.342
18121W        W82054  38.040  27.635   3.151
18122W        W82055   7.307  40.484  11.610
18123W        W82056   1.271  28.678  10.530
18124W        W82057  36.581  30.498   1.706
18125W        W82058  41.977  20.681  14.276
18126W        W82059  23.613   2.343  14.939
18127W        W82060  20.638  42.978  12.391
18128W        W82061  34.093  24.199   1.882
18129W        W82062  21.088  44.417   4.715
18130W        W82063  39.844  34.430  14.425
18131W        W82064  32.592  21.085  14.326
18132W        W82065   8.186  27.146   3.748
18133W        W82066  11.621  10.274   4.663
18134W        W82067  44.897  42.816   1.326
18135W        W82068  27.576  41.862  13.391
18136W        W82069  41.314   5.829  11.572
18137W        W82070   5.406  35.020  11.480
18138W        W82071  42.821   6.196  12.515
18139W        W82072  28.180  22.015  13.061
18140W        W82073  43.384  27.684  11.122
18141W        W82074  24.599  16.174  12.532
18142W        W82075  13.174   9.688  12.339
18143W        W82076  42.336   5.699  11.540
18144W        W82077  26.615  18.231   3.664
18145W        W82078   3.877   1.348  14.506
18146W        W82079   7.705   6.280  11.110
18147W        W82080  25.110  25.113  12.424
18148W        W82081  12.815  41.534   2.773
18149W        W82082  35.064  25.157   2.386
18150W        W82083  42.410  24.215   3.793
18151W        W82084  27.465  21.619  13.844
18152W        W82085   3.717  18.214  10.990
18153W        W82086  44.378  37.946  11.014
18154W        W82087  11.770  20.542   1.841
18155W        W82088  43.500  17.758   3.682
18156W        W82089   0.883   9.263   4.335
18157W        W82090  43.807  27.175  10.409
18158W        W82091  17.206  40.527   3.684
18159W        W82092  43.319  18.675  12.341
18160W        W82093  20.055  15.603   4.157
18161W        W82094  35.059  21.625   2.282
18162W        W82095  36.885   4.938  12.951
18163W        W82096  15.817   0.858   2.664
18164W        W82097  24.130  13.169  10.416
18165W        W82098  21.569   6.713   2.259
18166W        W82099   1.774  39.364   4.716
18167W        W82100  35.591   4.378   3.305
18168W        W82101  29.933  27.630  11.002
18169W        W82102  17.688  15.785  14.820
18170W        W82103  28.158  28.483  10.542
18171W        W82104  31.897  37.539  11.555
18172W        W82105  11.225  22.025   3.339
18173W        W82106  27.986  25.503   3.307
18174W        W82107   7.372  21.244  12.383
18175W        W82108   7.230  30.000   2.417
18176W        W82109  28.087  13.317   4.305
18177W        W82110  37.375  36.960   3.307
18178W        W82111   4.411  12.252   3.808
18179W        W82112  38.957  37.875  12.088
18180W        W82113  20.150  23.161  13.053
18181W        W82114  40.957   4.705   2.257
18182W        W82115  34.999  33.609   3.829
18183W        W82116   2.881  22.510   2.876
18184W        W82117  17.199  25.967   0.760
18185W        W82118  14.178  28.013  13.851
18186W        W82119   1.412  41.869  14.900
18187W        W82120  43.989  39.370   1.921
18188W        W82121  17.199   1.773   9.951
18189W        W82122  23.128  39.383  12.060
18190W        W82123  39.048  33.895  13.824
18191W        W82124  14.600  22.190   0.479
18192W        W82125  22.145  10.778  14.005
18193W        W82126  22.166  14.158   1.428
18194W        W82127  12.135  15.784  12.046
18195W        W82128  15.588   5.732   3.357
18196W        W82129  25.571  21.066  11.081
18197W        W82130  42.347  11.632   0.419
18198W        W82131  34.456   1.741   3.300
18199W        W82132  37.042  21.603  10.468
18200W        W82133  30.033  22.535   2.853
18201W        W82134  25.045   5.416   2.833
18202W        W82135  20.738  18.619  10.051
18203W        W82136  21.107  44.335  12.949
18204W        W82137   4.373  19.743   1.346
18205W        W82138   4.880   2.765   0.418
18206W        W82139  35.570  16.688  11.594
18207W        W82140  38.394  19.247   0.310
18208W        W82141   1.916  22.669   0.796
18209W        W82142  15.099  21.743   4.285
18210W        W82143  17.278  32.033   5.149
18211W        W82144   1.924   5.713  14.872
18212W        W82145  41.030  37.973   2.419
18213W        W82146  16.316  19.743   1.706
18214W        W82147  38.928  22.098  10.500
18215W        W82148   8.809  17.664  13.369
18216W        W82149  30.618  32.942  11.946
18217W        W82150  11.689  24.559   0.418
18218W        W82151  39.477  32.904   1.774
18219W        W82152  39.498   3.880   1.416
18220W        W82153  32.997   6.848  11.953
18221W        W82154  26.595  23.562   1.434
18222W        W82155  14.236   9.206  11.476
18223W        W82156  19.721  12.240  14.854
18224W        W82157  36.032   6.225   3.256
18225W        W82158  24.006   2.767   1.746
18226W        W82159   5.881  27.141   1.794
18227W        W82160  43.906  44.988   3.837
18228W        W82161  39.479  12.179   1.421
18229W        W82162  17.199  21.130  11.020
18230W        W82163   6.255  20.206  12.340
18231W        W82164  26.633   3.291  12.443
18232W        W82165   7.719  13.666  13.309
18233W        W82166  16.099   2.875  14.328
18234W        W82167  16.296  29.040   5.131
18235W        W82168  16.617  17.261   3.208
18236W        W82169  24.688  18.754   2.669
18237W        W82170  18.132  10.376   0.859
18238W        W82171  30.613  20.143  11.441
18239W        W82172  38.558  28.084   2.873
18240W        W82173  12.218  31.042   3.303
18241W        W82174   7.396   2.964   4.728
18242W        W82175   7.266  27.471  13.818
18243W        W82176   7.706  31.049  14.507
18244W        W82177  32.078  26.116  11.060
18245W        W82178  16.586  37.945  13.832
18246W        W82179  38.460  38.971   1.417
18247W        W82180  13.341  31.954  14.297
18248W        W82181  28.124  33.602   1.850
18249W        W82182  10.799  22.227   3.379
18250W        W82183  26.665   0.890  12.996
18251W        W82184  10.317  44.998  10.611
18252W        W82185  16.207  29.469   1.911
18253W        W82186  26.201  12.751  13.918
18254W        W82187  13.651  26.662   3.366
18255W        W82188  14.240   9.722  11.417
18256W        W82189   9.733  25.988   3.644
18257W        W82190  31.420  27.044   3.349
18258W        W82191  12.837  17.172   0.960
18259W        W82192  20.240  32.107  13.992
18260W        W82193  12.780   4.764  10.610
18261W        W82194  23.649  24.975   3.286
18262W        W82195  24.573  40.549  11.117
18263W        W82196   3.286  17.118   4.339
18264W        W82197   7.334  27.956   0.876
18265W        W82198  11.837  15.274   2.795
18266W        W82199  16.107   0.378  13.464
18267W        W82200  11.625  21.170  12.577
18268W        W82201  10.768   3.382  14.397
18269W        W82202   0.889  15.657  10.024
18270W        W82203  16.730  22.502   4.818
18271W        W82204   9.295  22.632   4.312
18272W        W82205  37.034  10.765   2.733
18273W        W82206  27.689   9.743   3.266
18274W        W82207  36.520  19.087   3.277
18275W        W82208  21.032  20.746   0.370
18276W        W82209  12.830  18.701  13.459
18277W        W82210   3.376  34.901  14.871
18278W        W82211   2.310  22.641   4.200
18279W        W82212   8.764   5.212  11.421
18280W        W82213  10.377  21.594  13.892
18281W        W82214  43.383  21.172   0.937
18282W        W82215  15.719  15.148  14.504
18283W        W82216  19.610  14.288  10.621
18284W        W82217  41.413  10.384   3.321
18285W        W82218   2.776  30.578  14.972
18286W        W82219  14.197  11.210  12.512
18287W        W82220  11.836  12.801  10.410
18288W        W82221  44.332  35.405   0.748
18289W        W82222  27.691  30.119   3.828
18290W        W82223   5.718   7.775   2.800
18291W        W82224   4.815  27.493  11.025
18292W        W82225   1.342  38.981   0.328
18293W        W82226  14.754   4.349  14.791
18294W        W82227  25.481  30.598  12.342
18295W        W82228  25.518  18.226   9.981
18296W        W82229   0.393   3.230   0.895
18297W        W82230  43.331  35.855  14.429
18298W        W82231   9.808  29.940  14.476
18299W        W82232   2.425  22.741  11.568
18300W        W82233  17.167  40.964   1.796
18301W        W82234  20.596   5.808   3.667
18302W        W82235  13.281  33.505   2.252
18303W        W82236  29.007  41.857  14.817
18304W        W82237  23.520  38.926   0.337
18305W        W82238  36.591  39.906   4.191
18306W        W82239  27.692  34.441   3.379
18307W        W82240   3.771  17.608  11.083
18308W        W82241  44.919  40.440  13.028
18309W        W82242  17.710   0.909  11.867
18310W        W82243  12.121  42.891  13.339
18311W        W82244  38.497  36.870   0.745
18312W        W82245  22.075  43.907   2.680
18313W        W82246  19.143  32.964  13.045
18314W        W82247   6.316  32.952  12.017
18315W        W82248  13.832   2.812   0.949
18316W        W82249  14.658  19.607   5.143
18317W        W82250  24.500   1.275   0.863
18318W        W82251   1.473   3.890  12.037
18319W        W82252  21.069   9.684   3.671
18320W        W82253   6.328  41.391  12.044
18321W        W82254  16.615   5.819  14.282
18322W        W82255  33.014  21.053   0.763
18323W        W82256  32.573   0.338   2.860
18324W        W82257   6.420  31.128  11.494
18325W        W82258  44.942  12.637   1.746
18326W        W82259   2.446  24.495  12.547
18327W        W82260  19.762  24.673  13.919
18328W        W82261  33.483  12.752  14.788
18329W        W82262  10.798   3.447  14.831
18330W        W82263  23.548  36.468   2.748
18331W        W82264  18.736  32.528  14.887
18332W        W82265   1.866  20.030  13.040
18333W        W82266  10.771  36.849   3.281
18334W        W82267  20.144  25.047   0.836
18335W        W82268   5.719  28.103  13.800
18336W        W82269  19.607  20.740   0.755
18337W        W82270  15.694  18.768   0.371
18338W        W82271  40.014   5.783  11.543
18339W        W82272   1.328   0.973   2.810
18340W        W82273  30.141   6.838   3.834
18341W        W82274  12.182   3.257   2.853
18342W        W82275  18.650  41.949  11.384
18343W        W82276  43.954   8.822   4.297
18344W        W82277   6.385  22.565   0.291
18345W        W82278  27.538  41.456   4.348
18346W        W82279  40.035  22.193  11.507
18347W        W82280  25.543  32.474  14.852
18348W        W82281  22.607  12.226   1.754
18349W        W82282  31.020  41.326   1.420
18350W        W82283  21.085  34.507  13.507
18351W        W82284   9.377  32.574  10.931
18352W        W82285  35.555  26.690   1.821
18353W        W82286  44.377  29.066  13.880
18354W        W82287  21.587  43.854   1.819
18355W        W82288  29.942  35.366   0.352
18356W        W82289  30.970  23.168  12.451
18357W        W82290  31.936  25.619  14.372
18358W        W82291  10.242   5.918  11.944
18359W        W82292  24.037  11.180  11.523
18360W        W82293  15.274  15.270  10.901
18361W        W82294  26.639  24.230   0.422
18362W        W82295  43.358  18.551   3.326
18363W        W82296  13.220  35.521   0.248
18364W        W82297   4.290  20.598  12.497
18365W        W82298  16.673  12.739   3.637
18366W        W82299  41.457  41.969  14.407
18367W        W82300   2.926  37.578   2.385
18368W        W82301  27.533  34.568  12.994
18369W        W82302  27.150  44.323   3.678
18370W        W82303  38.506  30.499  13.937
18371W        W82304  27.101   3.718  14.949
18372W        W82305  21.516  10.320  13.997
18373W        W82306  17.067   5.369  13.041
18374W        W82307  38.489  11.373  10.994
18375W        W82308  24.625  29.145  12.547
18376W        W82309   0.749  38.850  10.009
18377W        W82310   9.158   3.735   4.835
18378W        W82311   7.721  22.693   0.365
18379W        W82312  10.747   3.766  10.920
18380W        W82313  31.986  12.121   2.772
18381W        W82314  27.048  39.364  10.629
18382W        W82315   1.455  25.631   4.664
18383W        W82316   6.343  21.122  14.802
18384W        W82317  13.818   5.724  13.805
18385W        W82318   8.869  16.128   3.646
18386W        W82319  32.557  19.174  14.833
18387W        W82320  16.073  20.593   1.416
18388W        W82321   8.900  13.686   4.732
18389W        W82322  25.556  10.231   1.760
18390W        W82323   5.291  38.366  11.931
18391W        W82324  26.549  38.351   3.329
18392W        W82325  17.593  20.033  14.995
18393W        W82326  20.683   2.322   3.242
18394W        W82327  31.992  18.697  12.086
18395W        W82328  18.074   1.403   2.366
18396W        W82329  43.948  25.533   2.292
18397W        W82330  17.734   8.405   4.796
18398W        W82331  35.536  29.014   4.707
18399W        W82332  44.882  43.301   2.332
18400W        W82333   6.704  41.920   0.910
18401W        W82334  14.215   9.224   0.281
18402W        W82335  22.033   7.173  13.846
18403W        W82336  41.003  27.632   2.710
18404W        W82337  20.093  17.190   1.277
18405W        W82338  33.389  42.867   2.686
18406W        W82339  27.652  12.213   4.226
18407W        W82340  24.124   3.732   2.196
18408W        W82341  43.931   6.891   2.881
18409W        W82342   1.918  33.041  12.832
18410W        W82343  35.523  36.373   0.439
18411W        W82344  24.530  34.015   3.858
18412W        W82345  16.735  20.645  11.466
18413W        W82346   5.893  43.925   2.817
18414W        W82347  12.726  25.040  14.376
18415W        W82348  10.348   9.643  12.899
18416W        W82349  12.688  26.625  13.800
18417W        W82350  28.935  12.801  14.463
18418W        W82351  30.940  10.267  11.431
18419W        W82352  40.053  36.932   9.491
18420W        W82353   8.729  33.397  11.518
18421W        W82354  17.798   4.377   0.950
18422W        W82355   9.238  22.203  12.511
18423W        W82356  19.187   2.965  14.297
18424W        W82357  34.046  29.434   4.599
18425W        W82358  29.443  25.515   2.223
18426W        W82359  16.174   9.311   0.349
18427W        W82360  39.428  27.964  13.022
18428W        W82361  37.480  38.372   0.388
18429W        W82362  30.997   5.238  10.465
18430W        W82363   4.254  28.609  14.936
18431W        W82364  21.551  29.018  12.386
18432W        W82365  15.173  26.194   3.841
18433W        W82366  26.120  37.482  13.381
18434W        W82367  26.537   3.291  11.382
18435W        W82368   1.291   9.721  12.923
18436W        W82369  19.044   3.304   1.371
18437W        W82370  32.571  32.128   1.812
18438W        W82371  33.050   4.871  14.382
18439W        W82372  41.380   9.382   2.201
18440W        W82373   3.746   9.670   4.819
18441W        W82374  25.498   6.740   3.321
18442W        W82375  20.221  41.904   1.835
18443W        W82376  43.372   0.392  10.517
18444W        W82377  27.494  15.581   2.398
18445W        W82378  31.570   5.854  12.885
18446W        W82379  20.525  29.154  12.405
18447W        W82380   6.914  17.713   2.744
18448W        W82381  37.962  39.970   0.244
18449W        W82382  33.478  10.840  10.914
18450W        W82383  24.513  29.149  13.529
18451W        W82384  32.132  42.415  13.030
18452W        W82385  27.671  21.718  13.388
18453W        W82386   5.293  31.944  12.840
18454W        W82387  21.522  18.073  13.054
18455W        W82388  30.079  42.987  10.590
18456W        W82389   2.898  13.260  12.946
18457W        W82390   0.425  26.633   1.855
18458W        W82391  22.120   9.364   5.230
18459W        W82392  15.199  40.475  14.950
18460W        W82393  43.452  41.379   4.801
18461W        W82394  28.082  44.288   4.223
18462W        W82395   9.275   1.958   3.164
18463W        W82396  44.420  25.492  12.914
18464W        W82397  24.572   0.974  10.630
18465W        W82398  37.496  43.451  11.468
18466W        W82399   3.946  14.697  14.464
18467W        W82400  36.431  43.298  13.829
18468W        W82401  41.814  41.339   9.964
18469W        W82402  41.944  40.851  14.357
18470W        W82403  37.026  31.625  14.429
18471W        W82404  19.104  35.601   4.761
18472W        W82405  34.411  33.908   0.316
18473W        W82406   0.278  41.033   1.702
18474W        W82407  35.092   2.907   3.723
18475W        W82408  36.508   9.884   0.785
18476W        W82409   9.883  24.140   4.666
18477W        W82410  38.034  29.529  14.830
18478W        W82411  18.738  17.136  14.787
18479W        W82412  23.492  29.643   1.401
18480W        W82413  30.987  29.641  10.468
18481W        W82414  37.904  21.610  11.519
18482W        W82415  20.118  40.471   3.674
18483W        W82416  16.083  27.131   1.427
18484W        W82417  38.451  37.558  14.353
18485W        W82418  15.150  16.726   3.822
18486W        W82419  42.931  14.798  12.946
18487W        W82420   2.296  15.104  13.849
18488W        W82421  24.657  13.265  11.990
18489W        W82422  26.640  32.425   2.213
18490W        W82423  17.732   0.872  13.905
18491W        W82424  40.036   9.845  11.866
18492W        W82425  40.363  36.447   1.433
18493W        W82426  35.942  32.539   1.888
18494W        W82427  32.581  15.607  11.083
18495W        W82428  44.303   5.808   3.790
18496W        W82429  38.401  41.340  12.471
18497W        W82430  37.053  18.610  14.797
18498W        W82431   9.761  34.475   3.665
18499W        W82432  33.398   8.739  13.537
18500W        W82433  31.095  44.783  14.813
18501W        W82434  32.080   9.321  12.024
18502W        W82435  28.093  23.567   2.894
18503W        W82436  26.953  22.621   0.740
18504W        W82437  18.212   2.302  14.334
18505W        W82438  28.602  43.436  12.972
18506W        W82439   0.419   9.809  13.342
18507W        W82440  32.406  43.780  14.954
18508W        W82441  37.933  34.607   4.602
18509W        W82442   8.396  24.617   0.952
18510W        W82443  24.577  43.862  13.450
18511W        W82444   5.233  26.111  11.606
18512W        W82445  14.165  43.910   1.859
18513W        W82446  17.298  26.977  13.902
18514W        W82447   4.302   6.801  11.066
18515W        W82448   5.821  23.216  12.823
18516W        W82449  22.039  31.455  10.553
18517W        W82450  37.957  23.062   1.746
18518W        W82451   5.399  23.028   3.383
18519W        W82452  41.949  21.249   0.389
18520W        W82453  40.977   4.806  14.806
18521W        W82454  31.530  37.830   1.768
18522W        W82455  28.556  20.065   4.178
18523W        W82456  29.141  43.813   0.422
18524W        W82457  37.490  21.243   2.718
18525W        W82458   9.763   9.862   2.214
18526W        W82459   4.409  24.654  12.991
18527W        W82460   1.861  29.095  11.445
18528W        W82461  24.657   0.965  11.869
18529W        W82462  38.978  30.600  10.139
18530W        W82463   4.887  30.986  12.997
18531W        W82464  33.396  39.336  10.573
18532W        W82465  36.918   0.284   1.824
18533W        W82466  20.733   3.781   1.766
18534W        W82467  26.633  40.457  11.460
18535W        W82468  24.122  34.051  12.449
18536W        W82469  13.710  13.214  11.894
18537W        W82470  38.897   3.742  11.892
18538W        W82471  41.831  30.517   4.133
18539W        W82472  16.640  27.017   4.328
18540W        W82473  20.127  11.322  12.382
18541W        W82474  18.746  11.167   3.798
18542W        W82475  28.129  15.662  11.035
18543W        W82476  10.141  13.754  12.454
18544W        W82477  18.173   8.362   1.877
18545W        W82478  18.051  23.512   1.362
18546W        W82479   9.728   2.459   0.792
18547W        W82480  21.552  23.202   3.203
18548W        W82481   7.911  43.331   0.283
18549W        W82482  29.128  11.277  10.553
18550W        W82483  24.641   9.789  11.435
18551W        W82484  11.299   4.890   3.328
18552W        W82485  42.907  10.207  13.973
18553W        W82486  21.019  32.431   1.721
18554W        W82487  12.802  32.915  12.013
18555W        W82488  28.138  31.992   1.911
18556W        W82489  10.700  13.118  11.094
18557W        W82490  30.976  19.224  10.458
18558W        W82491   8.705  13.345   4.713
18559W        W82492  44.825  24.530  13.425
18560W        W82493   9.717  38.890  11.404
18561W        W82494  14.158   2.736   2.224
18562W        W82495  43.394  38.441  14.505
18563W        W82496  13.326   0.311   0.807
18564W        W82497  14.141  34.403   4.349
18565W        W82498  29.637  15.098   4.329
18566W        W82499  37.340  32.031  11.456
18567W        W82500  11.822  43.915   4.712
18568W        W82501   5.285   2.427  13.009
18569W        W82502  34.427  24.180  14.830
18570W        W82503  37.548  26.160  14.936
18571W        W82504  26.951   1.781   1.732
18572W        W82505  35.400  42.899   3.246
18573W        W82506  44.846  35.856  12.834
18574W        W82507  33.406  10.758   2.336
18575W        W82508  32.008   1.835  11.114
18576W        W82509  15.156  24.594   3.167
18577W        W82510  13.163  20.684  14.386
18578W        W82511   0.847  22.633  13.881
18579W        W82512  23.142  26.056   3.840
18580W        W82513   9.797  21.155  12.974
18581W        W82514  16.141  36.463   2.819
18582W        W82515  29.557  25.516   0.410
18583W        W82516  40.903  15.807   2.719
18584W        W82517  33.058  15.643  13.945
18585W        W82518   2.914  11.158  11.392
18586W        W82519  40.306  42.915  10.455
18587W        W82520  11.253   4.839  12.006
18588W        W82521  34.881  41.353   4.742
18589W        W82522  33.031  35.373   2.803
18590W        W82523  34.044  15.778  14.914
18591W        W82524   6.322   6.688   4.266
18592W        W82525  31.444  23.097   4.128
18593W        W82526   6.280   4.306   3.840
18594W        W82527   3.456  31.904   0.819
18595W        W82528   4.450  27.135   4.180
18596W        W82529  42.824   6.386  14.413
18597W        W82530  29.009  39.520  12.425
18598W        W82531  30.923  36.039  12.080
18599W        W82532  35.470   4.400  12.043
18600W        W82533  23.572  26.578   0.882
18601W        W82534   8.891  18.151   4.726
18602W        W82535  28.960  27.987  14.987
18603W        W82536  22.529   5.286  11.997
18604W        W82537  20.170  22.060   1.415
18605W        W82538   6.827  29.131   0.848
18606W        W82539   4.920  22.524  13.424
18607W        W82540  10.308  17.648   1.738
18608W        W82541  15.085  14.298   4.159
18609W        W82542  33.562  20.158  11.455
18610W        W82543  35.470  33.004   0.734
18611W        W82544  25.581  24.012   4.271
18612W        W82545  21.653  36.071   3.766
18613W        W82546  10.876  27.957   3.348
18614W        W82547  40.350   5.766   3.362
18615W        W82548   3.392  34.011   0.917
18616W        W82549  17.172  33.430   4.332
18617W        W82550   9.827  32.916   0.931
18618W        W82551  27.662  39.963  13.985
18619W        W82552  37.427  34.427   0.482
18620W        W82553   3.252  28.543   3.843
18621W        W82554   6.313  42.994   2.807
18622W        W82555  37.832  25.541  12.366
18623W        W82556  23.231  19.136   2.903
18624W        W82557  19.129  10.733   1.307
18625W        W82558  25.016  20.621   4.698
18626W        W82559  18.161  14.706   4.605
18627W        W82560  34.583  40.952  12.383
18628W        W82561   4.304  40.016  10.504
18629W        W82562   6.423   3.884   2.295
18630W        W82563  33.911  27.479  13.896
18631W        W82564  21.076   1.264   0.838
18632W        W82565  40.341  22.672   0.785
18633W        W82566  31.467  27.962  12.419
18634W        W82567  15.806  44.983  12.958
18635W        W82568  16.171  37.840   3.789
18636W        W82569  14.753  16.167   3.301
18637W        W82570  22.121  43.271   3.173
18638W        W82571  39.854  23.085   3.304
18639W        W82572  26.629  35.483   2.216
18640W        W82573  12.144  12.225   2.787
18641W        W82574  25.523  44.959   2.708
18642W        W82575  30.046  31.969   5.321
18643W        W82576  13.799  16.697   3.270
18644W        W82577  19.666   5.207  11.587
18645W        W82578  13.624  31.555   2.265
18646W        W82579  36.923  25.595   3.189
18647W        W82580  39.464  10.879   4.186
18648W        W82581  31.481  34.872  12.536
18649W        W82582  17.119  11.837   5.251
18650W        W82583  31.526  22.598   2.194
18651W        W82584   9.679  15.113  14.324
18652W        W82585   4.382  40.051  12.904
18653W        W82586   3.288  12.820  13.040
18654W        W82587  42.794  27.645   1.777
18655W        W82588  32.543  29.091   3.663
18656W        W82589  33.501  37.469   1.785
18657W        W82590  18.255   3.838  11.464
18658W        W82591  29.037  38.053   0.270
18659W        W82592  30.123  11.269   0.290
18660W        W82593   1.402   0.955   1.887
18661W        W82594  29.976  27.532  10.594
18662W        W82595  35.367  41.458  10.406
18663W        W82596  37.906  40.912   1.883
18664W        W82597   0.269  38.991   2.691
18665W        W82598  32.932  34.076  12.520
18666W        W82599  18.220  44.406  11.114
18667W        W82600   0.483  38.897   3.823
18668W        W82601  39.998   1.456   1.291
18669W        W82602  25.025  27.603  12.049
18670W        W82603   2.432  10.345  13.826
18671W        W82604  19.232  25.481  10.561
18672W        W82605  22.672  39.351  12.533
18673W        W82606  17.139  12.193  13.895
18674W        W82607  34.576  14.266   0.907
18675W        W82608  42.898  42.884  11.418
18676W        W82609  12.761  17.143  12.358
18677W        W82610  31.481  19.202  10.431
18678W        W82611  44.436   6.332   3.344
18679W        W82612  44.973  26.106   3.219
18680W        W82613  24.190  27.627  11.492
18681W        W82614   3.372  19.674  10.978
18682W        W82615  14.673  24.018   2.872
18683W        W82616  32.552  22.133  12.875
18684W        W82617  31.044  39.993  13.800
18685W        W82618  38.528   5.884  12.935
18686W        W82619  14.142  11.758   0.945
18687W        W82620  38.842  26.594   3.230
18688W        W82621  22.045  13.753  12.893
18689W        W82622  37.021  40.882   2.865
18690W        W82623  29.614  22.520   4.134
18691W        W82624  18.773  14.216  13.942
18692W        W82625  34.568  16.218  11.576
18693W        W82626  16.624  10.372   0.837
18694W        W82627  27.123   8.797  13.993
18695W        W82628  13.233   1.808  13.486
18696W        W82629  24.167  24.213   5.316
18697W        W82630  37.083  21.627  14.022
18698W        W82631  32.970  30.533  13.541
18699W        W82632  30.058  23.051   3.216
18700W        W82633   6.904   6.845  12.934
18701W        W82634  44.782  40.052   4.820
18702W        W82635  15.214  35.508  14.428
18703W        W82636  13.694  29.021   2.225
18704W        W82637  16.297   1.378  11.881
18705W        W82638   3.747  28.663  12.012
18706W        W82639  28.130  44.396   1.882
18707W        W82640  37.905   4.404  13.330
18708W        W82641  29.580   4.881  12.972
18709W        W82642   5.434  19.046   4.209
18710W        W82643  28.177  41.833   2.871
18711W        W82644  14.206  32.937   0.759
18712W        W82645  10.657  41.489  10.985
18713W        W82646  36.469  29.430  13.014
18714W        W82647  42.437   6.713   0.951
18715W        W82648  41.922  13.844   4.222
18716W        W82649  22.668   8.806   0.912
18717W        W82650  20.065   0.885  11.468
18718W        W82651  16.680  37.458   1.244
18719W        W82652  35.056  26.009   2.738
18720W        W82653  13.117  10.352   2.753
18721W        W82654  42.979   6.416   2.303
18722W        W82655  27.475  19.704  13.443
18723W        W82656  10.206  31.472   0.481
18724W        W82657  33.604   9.317  11.506
18725W        W82658  28.562  26.952  13.822
18726W        W82659   2.407   5.821  12.343
18727W        W82660  20.555  23.123   0.765
18728W        W82661  17.104  41.377  13.539
18729W        W82662   5.730  11.334  12.368
18730W        W82663  24.985  25.158  10.120
18731W        W82664  22.521  40.345   4.119
18732W        W82665  25.711   2.355  14.984
18733W        W82666   5.707  11.194   4.239
18734W        W82667   7.347  15.813  12.490
18735W        W82668  34.504   2.779  14.457
18736W        W82669   8.713  40.051  11.466
18737W        W82670  44.442   3.787  11.451
18738W        W82671  13.710  30.044   0.852
18739W        W82672  23.526  41.315   2.871
18740W        W82673  44.322  21.679   4.683
18741W        W82674   6.207  30.153   0.348
18742W        W82675  35.878  13.715   4.242
18743W        W82676  29.429   2.343  12.059
18744W        W82677   9.355  18.570   4.739
18745W        W82678  42.437  40.428   3.207
18746W        W82679  34.608   4.289  14.369
18747W        W82680  18.714   3.943   3.332
18748W        W82681  19.046  28.931   3.710
18749W        W82682  34.036  34.472  10.540
18750W        W82683  25.042  28.434   4.669
18751W        W82684  11.289  23.151   1.889
18752W        W82685  22.198  40.405  11.963
18753W        W82686  43.904  34.023   2.340
18754W        W82687  27.674  32.034   1.757
18755W        W82688  25.496  43.342  12.848
18756W        W82689   3.312  44.976  12.065
18757W        W82690  40.433  38.021   2.392
18758W        W82691  23.662  23.087   0.766
18759W        W82692  28.560   9.718  13.982
18760W        W82693  40.465  22.747   3.248
18761W        W82694  35.927  30.614  11.606
18762W        W82695   6.395   8.716   0.756
18763W        W82696  27.548  14.724  13.015
18764W        W82697   8.303  41.416   4.138
18765W        W82698  30.149  24.047  12.415
18766W        W82699   4.436  14.660   1.270
18767W        W82700  15.613   4.711  14.309
18768W        W82701  31.016  20.746   1.772
18769W        W82702  26.655  20.586  13.389
18770W        W82703  22.016  32.976  14.825
18771W        W82704   7.702   7.838  12.467
18772W        W82705  32.959  33.980   1.916
18773W        W82706  34.417   3.855   3.322
18774W        W82707  11.756  16.147  14.845
18775W        W82708  24.633  26.186   2.885
18776W        W82709  38.004  12.617  11.872
18777W        W82710  39.395  26.472  12.529
18778W        W82711   2.854  23.637  14.307
18779W        W82712  18.662  42.939   4.626
18780W        W82713  23.216  39.961   4.723
18781W        W82714   6.775  33.948   1.435
18782W        W82715  14.696  22.582  10.405
18783W        W82716  25.533  33.488   3.340
18784W        W82717  19.766  43.971  14.793
18785W        W82718  34.490  27.661  11.509
18786W        W82719  24.204  43.870   0.831
18787W        W82720  26.167   7.675   2.749
18788W        W82721  41.436  29.171  14.446
18789W        W82722  12.809  32.122  11.871
18790W        W82723  34.012  27.522   4.220
18791W        W82724  11.233  17.257   0.329
18792W        W82725  32.458   8.371  13.850
18793W        W82726  17.250  10.751  13.858
18794W        W82727  39.008  14.254  12.826
18795W        W82728  13.736  31.567   3.636
18796W        W82729  35.967   0.982   1.870
18797W        W82730  28.463   0.370   0.273
18798W        W82731  42.292  27.683  11.606
18799W        W82732  38.443  34.519   4.189
18800W        W82733  10.191   7.214   4.259
18801W        W82734  29.055  35.903   1.819
18802W        W82735  34.115  34.604  11.878
18803W        W82736   8.234  32.125  13.430
18804W        W82737  20.701   1.479  12.513
18805W        W82738   6.311  29.424   3.220
18806W        W82739  31.053   6.221   1.333
18807W        W82740  36.461  36.842   0.405
18808W        W82741   5.338  13.778  11.939
18809W        W82742   0.851  24.127   0.403
18810W        W82743  12.795  15.585   4.128
18811W        W82744  29.940  38.411   2.265
18812W        W82745  17.155  27.148   0.422
18813W        W82746  23.617  13.157   1.230
18814W        W82747  29.048  34.556  14.873
18815W        W82748  39.023  37.366   5.178
18816W        W82749  42.288  14.729  12.076
18817W        W82750   0.492  20.052  13.516
18818W        W82751  41.450  35.357   2.326
18819W        W82752  23.641   4.841  10.623
18820W        W82753  37.338  16.615  11.880
18821W        W82754   7.352  26.677   5.696
18822W        W82755  43.287  20.096  14.869
18823W        W82756   7.256   1.935  10.549
18824W        W82757  17.234   4.739   2.686
18825W        W82758  17.134  15.734   2.898
18826W        W82759  33.055   7.372  14.802
18827W        W82760  39.403  10.823   0.301
18828W        W82761  34.910  33.531   2.698
18829W        W82762  23.161   3.243  11.418
18830W        W82763  41.895  42.352   2.221
18831W        W82764  24.103  23.114   1.266
18832W        W82765  12.310  31.511  11.885
18833W        W82766  12.281   2.312   4.350
18834W        W82767  29.554  27.183   3.775
18835W        W82768  39.422  14.109   0.315
18836W        W82769   9.742  31.011   2.749
18837W        W82770  37.866  33.452   0.287
18838W        W82771   8.761   3.247   0.387
18839W        W82772  42.848  34.495   1.403
18840W        W82773   5.793   7.409  11.985
18841W        W82774  13.264   5.845   2.758
18842W        W82775  43.326  20.142   0.394
18843W        W82776  10.184  22.111  12.432
18844W        W82777  27.979  32.486  10.989
18845W        W82778   0.797  21.040   3.154
18846W        W82779  21.634  33.981  10.931
18847W        W82780  34.560  30.494   3.699
18848W        W82781  24.505   7.379  12.558
18849W        W82782  29.569  38.901   1.394
18850W        W82783  29.949  20.103  12.450
18851W        W82784  11.293   8.839   3.244
18852W        W82785  20.692  18.237  12.047
18853W        W82786  18.642  32.050  14.885
18854W        W82787  22.106  22.190  10.592
18855W        W82788   6.319  19.084  12.473
18856W        W82789  13.686  39.330   3.724
18857W        W82790  44.846   5.407   2.382
18858W        W82791  29.968  40.863   3.718
18859W        W82792  40.428   6.206   1.344
18860W        W82793  21.598   9.252   2.214
18861W        W82794   8.872  25.574  14.331
18862W        W82795  17.702  31.629   3.673
18863W        W82796  31.946  27.553   4.766
18864W        W82797  35.455  18.587   3.732
18865W        W82798  24.632  17.291  10.543
18866W        W82799   8.179  14.654  10.989
18867W        W82800   2.752   6.290   1.421
18868W        W82801  14.763   6.867  13.966
18869W        W82802  32.396  39.556  13.489
18870W        W82803   2.952   4.258  14.301
18871W        W82804  28.988  15.626  14.937
18872W        W82805  24.056  24.979   3.295
18873W        W82806  18.710   1.827  14.419
18874W        W82807  40.045  34.032   2.322
18875W        W82808  24.007  19.598  13.874
18876W        W82809  36.581  30.561  10.028
18877W        W82810   5.862  33.390   2.319
18878W        W82811   6.840  41.789   3.303
18879W        W82812  20.669  14.210  12.557
18880W        W82813  22.141  39.369  12.037
18881W        W82814  35.511  19.059  11.444
18882W        W82815  26.659  15.290  10.910
18883W        W82816   8.732   7.881  11.397
18884W        W82817   5.360   4.368  13.007
18885W        W82818   3.935   6.308  10.539
18886W        W82819  21.665  44.946  11.906
18887W        W82820   2.799  21.574   0.279
18888W        W82821  12.777  29.655  12.014
18889W        W82822   9.851   5.926  12.900
18890W        W82823  30.602  15.297  13.438
18891W        W82824   4.900  17.257   3.324
18892W        W82825  21.581   4.868   4.176
18893W        W82826  17.214  21.076  13.529
18894W        W82827   8.755   0.774   5.254
18895W        W82828  34.610  40.982   3.239
18896W        W82829   0.268   5.352   1.307
18897W        W82830  33.062  22.220   2.863
18898W        W82831  15.298  31.013   1.841
18899W        W82832  34.882   7.762  11.585
18900W        W82833  26.668  23.657  12.573
18901W        W82834   8.284  32.551   4.704
18902W        W82835   7.314  10.637   0.948
18903W        W82836  21.723  17.211  12.889
18904W        W82837  36.498  26.553  12.913
18905W        W82838  11.237  33.519  14.872
18906W        W82839   0.482  20.245  13.955
18907W        W82840  12.690  11.735   0.434
18908W        W82841  39.492  20.100  13.382
18909W        W82842  13.340  34.466  11.111
18910W        W82843  32.945  35.413  14.494
18911W        W82844  27.039  25.041   0.730
18912W        W82845  27.941  21.018   0.860
18913W        W82846  20.075  34.495   1.450
18914W        W82847  16.610  30.460   2.774
18915W        W82848  33.879   4.294   3.765
18916W        W82849  17.650  14.167  13.830
18917W        W82850  38.991  29.606  10.931
18918W        W82851  11.799  44.441   1.863
18919W        W82852  32.520  41.850  11.114
18920W        W82853  41.935   9.267  13.871
18921W        W82854   8.840  22.564  10.516
18922W        W82855  27.191  41.979   3.727
18923W        W82856  10.352  29.142  10.160
18924W        W82857  29.117  21.542   0.937
18925W        W82858   0.298  13.717  10.567
18926W        W82859  21.228  25.614   4.689
18927W        W82860  21.087   7.246   1.763
18928W        W82861  39.030  13.768  11.444
18929W        W82862   4.797  38.012  12.921
18930W        W82863  20.566  10.705  12.015
18931W        W82864  18.076  29.065  11.386
18932W        W82865   1.899  10.381  13.998
18933W        W82866  41.028  22.038  11.095
18934W        W82867  37.048  14.294   4.264
18935W        W82868  39.460  23.070  12.065
18936W        W82869  44.904  20.746  11.054
18937W        W82870  31.012  32.599  12.539
18938W        W82871  42.416  15.137   3.220
18939W        W82872   2.449  29.987   3.767
18940W        W82873  43.484  15.797  13.341
18941W        W82874  14.225  10.642   0.808
18942W        W82875  43.382  29.512  14.759
18943W        W82876  15.140   4.910  11.077
18944W        W82877  19.168  21.221  13.857
18945W        W82878   9.723  32.087  12.829
18946W        W82879  10.636   6.283  11.475
18947W        W82880  11.364  13.329   3.168
18948W        W82881  14.786  24.704  10.531
18949W        W82882  11.668  13.226   2.822
18950W        W82883   9.832  24.201  13.862
18951W        W82884  15.608  31.488  11.069
18952W        W82885  11.629  34.569   2.404
18953W        W82886  36.013  15.618   3.165
18954W        W82887   4.441   9.220   2.343
18955W        W82888   4.705  29.023  10.069
18956W        W82889  40.547   9.351   4.718
18957W        W82890   1.795  32.002  12.486
18958W        W82891  41.467  24.029  12.880
18959W        W82892   2.470   6.356  13.362
18960W        W82893  24.059  25.039  10.011
18961W        W82894   8.800   3.872   2.371
18962W        W82895  11.160  28.953   1.830
18963W        W82896  30.569  15.749   0.291
18964W        W82897  19.621   8.674   0.293
18965W        W82898   0.760  22.550  13.526
18966W        W82899  11.146  26.051   3.680
18967W        W82900  38.881  24.508  11.411
18968W        W82901  42.413  44.388   1.265
18969W        W82902   3.900  41.498  14.383
18970W        W82903  10.850   0.937   1.741
18971W        W82904  28.960  21.608  12.015
18972W        W82905   5.278  36.412  14.321
18973W        W82906  12.774   9.152   0.911
18974W        W82907  32.465   8.661   2.792
18975W        W82908  26.195   7.744   0.388
18976W        W82909  12.352   9.293  14.322
18977W        W82910  26.653  34.422   3.861
18978W        W82911  32.980  32.588   1.421
18979W        W82912   3.840  38.559   3.192
18980W        W82913  13.645  28.955   3.705
18981W        W82914   9.342  43.877   0.952
18982W        W82915  19.111  31.431  12.579
18983W        W82916   9.872  18.236  13.394
18984W        W82917  44.493  34.506   1.843
18985W        W82918   2.365   9.779   2.662
18986W        W82919   2.257  21.541   0.370
18987W        W82920  16.295   2.848   0.735
18988W        W82921  44.414  23.175   4.672
18989W        W82922  18.116  13.237  14.290
18990W        W82923  34.610  22.079  14.410
18991W        W82924  28.677   3.824  10.513
18992W        W82925   7.312  22.515   4.197
18993W        W82926  30.437   1.910  10.963
18994W        W82927   8.366  43.469  11.990
18995W        W82928  23.511  40.033   4.355
18996W        W82929   3.833  13.797   2.320
18997W        W82930  38.333  38.435  10.414
18998W        W82931  14.225  31.971  11.995
18999W        W82932  25.089  34.052  13.038
19000W        W82933  41.472  15.312   1.742
19001W        W82934  14.664  23.548  12.394
19002W        W82935  14.094  27.005   2.377
19003W        W82936  10.806  43.011   2.359
19004W        W82937  14.096  21.538  11.393
19005W        W82938  24.192  39.555   1.401
19006W        W82939  10.333  11.330   1.726
19007W        W82940  42.402  15.119   4.279
19008W        W82941  38.844   5.361   4.230
19009W        W82942  37.376  29.046  10.505
19010W        W82943   5.818  33.069  10.609
19011W        W82944  25.030  38.398  11.421
19012W        W82945  24.621  38.967  13.927
19013W        W82946  21.562   1.295  11.514
19014W        W82947  11.303  16.587   3.835
19015W        W82948  38.560  32.923   3.375
19016W        W82949  27.181  19.046  12.504
19017W        W82950  23.545  36.059   0.346
19018W        W82951  28.451  37.455   0.418
19019W        W82952  37.995  43.470  10.936
19020W        W82953  10.663  43.819  10.954
19021W        W82954   3.390  29.017   4.203
19022W        W82955   1.317  21.186  13.531
19023W        W82956  32.108   2.864  12.448
19024W        W82957  41.039  36.458  14.473
19025W        W82958  28.441  21.141  11.125
19026W        W82959  17.102   5.773   0.919
19027W        W82960   7.275  32.142  11.058
19028W        W82961  33.115  12.734  14.971
19029W        W82962  22.119  38.862   4.652
19030W        W82963  20.645   7.681  10.902
19031W        W82964  29.148  20.037   2.881
19032W        W82965  11.859   5.884   4.721
19033W        W82966  23.579  24.690  13.451
19034W        W82967  36.947  22.144   1.915
19035W        W82968  19.190  31.117  13.500
19036W        W82969  38.045  25.026   3.169
19037W        W82970  19.626  38.034  12.911
19038W        W82971  20.664  35.916   1.306
19039W        W82972  24.640  40.515  13.857
19040W        W82973  16.671  40.500  11.046
19041W        W82974  24.121   6.778  12.920
19042W        W82975  20.182   8.729  13.828
19043W        W82976   3.259  35.392  12.951
19044W        W82977  26.163   1.960   2.275
19045W        W82978  19.744  26.183   5.715
19046W        W82979  32.111  23.168  11.930
19047W        W82980   7.393   3.815  13.391
19048W        W82981  33.103   1.238  10.898
19049W        W82982  36.992  41.390  13.061
19050W        W82983  43.948  25.475  12.458
19051W        W82984   6.236  38.537  12.425
19052W        W82985  28.933  19.164  13.953
19053W        W82986   5.770   6.365   1.750
19054W        W82987  31.624  17.704   0.449
19055W        W82988   3.782  30.436   4.776
19056W        W82989  19.149   4.447   3.387
19057W        W82990  31.543  42.508   4.764
19058W        W82991  25.100   2.837   3.729
19059W        W82992  26.983   4.733   0.779
19060W        W82993   8.246   9.183   1.299
19061W        W82994   0.322   4.238   4.765
19062W        W82995   4.290   5.248   3.830
19063W        W82996  40.845  30.545   2.750
19064W        W82997  36.548  36.058  11.594
19065W        W82998  40.451  41.407  13.532
19066W        W82999  31.500   4.388   3.739
19067W        W83000  20.706  27.523   2.211
19068W        W83001  17.096   2.375   0.381
19069W        W83002  38.867  30.963  10.071
19070W        W83003  42.438  35.929   4.116
19071W        W83004  37.472  37.368   5.109
19072W        W83005  13.752   4.776   0.372
19073W        W83006  21.169  43.410   4.317
19074W        W83007  24.673  28.139  13.957
19075W        W83008  28.674  35.481  12.518
19076W        W83009  20.109  35.494   4.694
19077W        W83010  24.025  35.948   3.271
19078W        W83011  21.678   7.825  14.903
19079W        W83012  35.402   5.896   0.879
19080W        W83013   1.386  17.643   3.846
19081W        W83014  27.958  28.111   0.776
19082W        W83015  32.626  22.117   1.894
19083W        W83016   6.311  38.530  13.900
19084W        W83017  31.924  25.134  12.023
19085W        W83018  43.900  37.460  14.514
19086W        W83019   1.756  37.038  12.989
19087W        W83020  43.421  16.220  13.057
19088W        W83021  14.670  25.502  13.469
19089W        W83022  18.580   2.920   1.229
19090W        W83023  14.129  25.578  13.347
19091W        W83024  23.552  18.719   2.255
19092W        W83025  18.665  30.004  12.863
19093W        W83026   1.425  37.336  13.043
19094W        W83027  21.757  27.096  13.049
19095W        W83028  40.976  25.179   3.709
19096W        W83029  31.042  17.173  10.559
19097W        W83030  24.014  24.166  12.391
19098W        W83031  14.270  16.799   3.324
19099W        W83032  19.250   9.863   0.791
19100W        W83033   9.683  29.988   1.754
19101W        W83034  38.480  18.687  14.280
19102W        W83035  42.911  11.817   2.872
19103W        W83036  31.609   7.345  10.916
19104W        W83037  35.564  13.599   1.749
19105W        W83038   9.746   1.739   3.700
19106W        W83039   7.841  43.412  14.490
19107W        W83040  21.167  43.337   1.398
19108W        W83041  44.756  24.184   2.730
19109W        W83042  35.105  31.483  14.781
19110W        W83043  42.358  41.857  11.457
19111W        W83044   0.950  41.819  13.459
19112W        W83045  25.124   5.312   1.310
19113W        W83046   2.733  24.631  10.918
19114W        W83047   6.761  37.439   0.464
19115W        W83048  22.249  11.206  12.876
19116W        W83049  42.480  18.281  10.558
19117W        W83050   9.833  40.401  11.586
19118W        W83051  37.505  42.846  14.992
19119W        W83052   1.945  10.167   1.881
19120W        W83053  38.413  32.427   1.863
19121W        W83054  37.362   7.810  14.350
19122W        W83055  18.584  27.184  13.802
19123W        W83056   7.339  10.175  11.104
19124W        W83057  40.305   6.311   3.773
19125W        W83058  32.998  41.426  13.417
19126W        W83059  26.642  43.803  12.987
19127W        W83060  43.273   7.868   4.159
19128W        W83061  16.597   7.316  10.593
19129W        W83062   6.197   4.839   1.750
19130W        W83063   7.390  42.356  11.046
19131W        W83064  42.334  31.620   4.285
19132W        W83065  31.438  22.181  12.067
19133W        W83066  20.092   7.816  12.999
19134W        W83067  27.665  42.294  14.783
19135W        W83068  41.921  25.070   0.876
19136W        W83069  31.128   9.666   2.384
19137W        W83070  37.378   2.915   0.870
19138W        W83071   0.449  15.311  10.638
19139W        W83072   0.350  31.941  13.333
19140W        W83073  13.105  18.205  10.619
19141W        W83074  44.276  23.598   2.337
19142W        W83075  21.756  43.372   0.761
19143W        W83076  21.579  42.317  12.024
19144W        W83077   1.755  22.234   2.764
19145W        W83078  13.255  44.850  12.871
19146W        W83079   9.813  43.497  10.599
19147W        W83080  41.865  42.411  10.512
19148W        W83081   0.761  43.308   4.215
19149W        W83082  32.022   4.708   2.402
19150W        W83083  17.640   6.297   3.167
19151W        W83084  32.099   8.791  12.019
19152W        W83085   6.210   4.422   2.183
19153W        W83086  41.513  36.433  10.477
19154W        W83087  32.987  40.442  11.564
19155W        W83088  28.435  40.306  11.419
19156W        W83089  10.711  18.267  11.885
19157W        W83090  41.517   8.303   3.861
19158W        W83091   8.681   9.312   3.716
19159W        W83092  14.617   0.967   2.332
19160W        W83093  28.527  22.054  14.930
19161W        W83094  14.125  32.967  14.382
19162W        W83095  22.697  41.492  12.391
19163W        W83096  21.084  14.158   2.810
19164W        W83097  41.471  36.893  14.408
19165W        W83098  20.733  13.825   3.695
19166W        W83099  22.117  13.247   0.800
19167W        W83100  27.049  24.099   2.767
19168W        W83101  30.602  41.317  12.486
19169W        W83102  41.417  35.074   1.744
19170W        W83103  35.979   8.784  11.042
19171W        W83104  34.111  27.666  14.942
19172W        W83105  10.799  43.768   3.219
19173W        W83106  23.589  30.507   1.320
19174W        W83107  41.804  25.507   3.739
19175W        W83108  17.111  33.085  10.919
19176W        W83109   8.192  17.598   4.761
19177W        W83110   9.806  27.180  12.424
19178W        W83111  24.143  26.957   2.727
19179W        W83112  43.398  10.818   4.202
19180W        W83113  24.667  41.534   4.355
19181W        W83114  43.908  14.706   0.350
19182W        W83115   2.461   8.361  12.579
19183W        W83116  44.852  30.953  13.904
19184W        W83117  14.762   3.329   5.238
19185W        W83118   3.323  14.648  12.506
19186W        W83119  17.255   8.714  14.894
19187W        W83120  36.453  31.441   2.191
19188W        W83121  28.002  40.918   4.764
19189W        W83122  24.072  16.217   4.234
19190W        W83123  20.710  11.302   0.413
19191W        W83124  31.975  39.955   0.339
19192W        W83125  40.971  20.271  14.492
19193W        W83126  18.675   9.765  12.938
19194W        W83127  28.053  23.174  12.833
19195W        W83128  33.105  13.248  14.328
19196W        W83129  41.325  16.306   3.321
19197W        W83130  37.000   1.824   2.683
19198W        W83131  24.156  39.367  11.951
19199W        W83132  24.650  11.684  13.978
19200W        W83133  33.989   2.911  11.436
19201W        W83134  30.071  12.165  11.061
19202W        W83135   9.158  39.897  14.933
19203W        W83136  16.793  29.485   1.240
19204W        W83137  29.582   0.344  11.018
19205W        W83138  37.892  18.062   4.181
19206W        W83139   0.893   0.452  13.008
19207W        W83140  35.387  44.883   3.848
19208W        W83141  25.082   8.832  12.853
19209W        W83142  33.940  42.019   2.310
19210W        W83143  36.862  19.041   3.670
19211W        W83144   8.222   0.930   0.314
19212W        W83145  36.498  10.745   4.269
19213W        W83146  41.475  13.213   1.403
19214W        W83147  16.175  15.119  14.005
19215W        W83148  42.427  29.932   1.722
19216W        W83149   6.850  41.973   4.790
19217W        W83150  43.298  44.461   2.287
19218W        W83151  15.637  31.573   1.374
19219W        W83152  36.451   7.371  12.379
19220W        W83153  17.130  12.852  13.334
19221W        W83154   7.904  25.551  13.990
19222W        W83155  10.819  23.013  12.039
19223W        W83156   2.315  44.496   3.288
19224W        W83157  41.508  22.604   0.433
19225W        W83158   1.473  19.584  14.893
19226W        W83159  23.204  38.411   3.737
19227W        W83160  14.778  11.856   2.679
19228W        W83161  12.787  24.169  11.567
19229W        W83162   1.290   4.870   0.826
19230W        W83163  42.804  43.852  10.958
19231W        W83164  22.249  40.525  12.937
19232W        W83165  34.437  15.613   4.736
19233W        W83166   6.214  14.310   1.739
19234W        W83167  36.572  18.297  14.846
19235W        W83168  39.333  39.448  10.924
19236W        W83169  16.253  39.994   3.867
19237W        W83170  13.189  34.951   1.296
19238W        W83171   2.829  22.227  14.959
19239W        W83172  12.673   1.458   3.751
19240W        W83173  40.329  30.007  10.564
19241W        W83174   2.862  41.799  11.458
19242W        W83175  25.095   8.778   2.284
19243W        W83176   5.321  29.593   3.184
19244W        W83177  27.492  25.145   1.358
19245W        W83178   0.987  33.465  13.892
19246W        W83179  44.378   6.922   0.777
19247W        W83180  33.580  31.958   4.253
19248W        W83181   0.269  43.308  13.486
19249W        W83182  35.416  39.990   1.303
19250W        W83183  26.522  32.462  14.822
19251W        W83184  26.127   9.840  13.940
19252W        W83185  21.184  32.926   4.160
19253W        W83186  25.606   5.197   0.798
19254W        W83187  43.013  25.561  10.565
19255W        W83188  25.634   9.885  14.763
19256W        W83189  16.597  23.221   1.807
19257W        W83190   2.284  26.663  10.477
19258W        W83191  26.622  12.156  11.991
19259W        W83192   0.870  19.161  13.866
19260W        W83193   6.895  29.644   0.917
19261W        W83194  22.700   0.872  14.817
19262W        W83195  40.826  35.947   2.796
19263W        W83196   0.493  36.413   1.870
19264W        W83197  11.337  16.151   4.704
19265W        W83198  37.930  18.673   3.309
19266W        W83199  24.025  20.099  11.543
19267W        W83200  41.966  15.616  11.545
19268W        W83201   7.716  37.431   1.918
19269W        W83202  34.034  12.236   4.741
19270W        W83203   5.831  19.679   4.333
19271W        W83204  19.278  29.639  13.340
19272W        W83205  39.009  39.487  11.026
19273W        W83206   8.345  33.956  10.941
19274W        W83207  26.192  38.561  11.001
19275W        W83208  39.547  29.458   2.902
19276W        W83209  43.907   6.855   1.385
19277W        W83210  24.717  25.513   1.383
19278W        W83211  14.235  23.647   0.945
19279W        W83212  36.514  23.586   1.369
19280W        W83213  29.174   6.344  12.938
19281W        W83214  22.654  31.460  12.064
19282W        W83215  28.103  36.444   1.215
19283W        W83216  33.111   8.198   2.294
19284W        W83217  26.093  30.653  13.372
19285W        W83218  25.560  42.302  10.469
19286W        W83219  29.459   8.813   3.191
19287W        W83220   9.862  22.240   0.964
19288W        W83221  28.113   7.230   4.730
19289W        W83222  14.112   4.363   0.402
19290W        W83223  19.750  26.081   3.723
19291W        W83224  30.068  11.234   2.899
19292W        W83225  37.058  37.387   3.173
19293W        W83226  18.110  17.672   1.290
19294W        W83227   7.686  17.155   1.223
19295W        W83228  37.473  10.363  14.405
19296W        W83229  18.285  28.545  13.308
19297W        W83230  28.971  40.838  12.438
19298W        W83231  36.024  13.659  13.539
19299W        W83232  18.158  30.120  13.346
19300W        W83233  28.514  28.965  11.576
19301W        W83234   9.162  40.045   2.416
19302W        W83235  25.640  36.533  14.856
19303W        W83236  40.436  40.800   4.743
19304W        W83237  16.220  11.783   1.266
19305W        W83238  35.568  13.182  14.401
19306W        W83239   0.847  37.573  10.003
19307W        W83240  14.611  14.147   2.799
19308W        W83241   5.777   6.830   0.780
19309W        W83242  40.993   6.895  14.937
19310W        W83243   8.852  15.586  12.502
19311W        W83244  16.248  27.088   3.226
19312W        W83245  26.130   8.670  14.462
19313W        W83246   9.235  36.087  14.883
19314W        W83247  33.497  18.181   4.280
19315W        W83248  32.137  39.493  11.566
19316W        W83249  14.289  41.429  10.981
19317W        W83250  32.492  22.119   0.966
19318W        W83251  26.061  14.173  14.773
19319W        W83252  33.959  36.491  11.553
19320W        W83253  40.446  32.601  14.892
19321W        W83254  37.864  40.813  12.071
19322W        W83255  26.978  25.472  11.444
19323W        W83256  37.420  11.170  14.768
19324W        W83257  44.453   1.780   0.407
19325W        W83258  19.596   9.876  13.506
19326W        W83259   8.257   4.860   5.113
19327W        W83260  42.373   0.466  10.914
19328W        W83261  35.474  37.023  13.047
19329W        W83262  42.456  25.026   0.885
19330W        W83263  30.973  44.926   4.197
19331W        W83264  32.459  12.746  13.063
19332W        W83265  39.052   3.347  12.888
19333W        W83266  10.332  24.015   0.455
19334W        W83267  39.036  24.131   0.764
19335W        W83268  25.109  22.169   4.657
19336W        W83269   1.879   9.782   3.848
19337W        W83270  31.632  24.575   3.359
19338W        W83271  22.613  31.403  10.990
19339W        W83272  41.473  28.135  13.812
19340W        W83273   3.794   6.356  11.919
19341W        W83274  14.123  15.714   2.402
19342W        W83275  23.559   3.354  10.946
19343W        W83276  28.621  31.516   1.266
19344W        W83277  18.595  14.817  13.531
19345W        W83278  16.805  39.823   0.727
19346W        W83279  29.586  22.250   1.900
19347W        W83280  36.043  26.471   0.848
19348W        W83281   3.301   4.704   4.668
19349W        W83282   6.742  20.131  10.475
19350W        W83283   2.777  20.035   2.750
19351W        W83284  35.472   5.845  14.296
19352W        W83285  32.401  19.085  14.515
19353W        W83286  20.655  15.677   2.785
19354W        W83287  36.363  28.680  12.559
19355W        W83288  19.166  11.230   0.457
19356W        W83289  27.080  36.408  11.935
19357W        W83290  15.099  16.213  10.415
19358W        W83291   5.921  14.777   0.407
19359W        W83292   0.943   5.248   0.270
19360W        W83293   7.777   0.955   2.709
19361W        W83294  17.251  21.219  14.403
19362W        W83295  17.671  26.607   0.775
19363W        W83296  17.284  27.614   9.943
19364W        W83297  31.540  11.852   1.349
19365W        W83298  12.754  29.150   1.744
19366W        W83299  27.067  32.558   3.669
19367W        W83300  30.505  21.682   1.210
19368W        W83301  22.183  27.542   4.173
19369W        W83302  40.875  23.991  12.884
19370W        W83303  41.847  10.746  10.966
19371W        W83304   7.403  34.385   4.642
19372W        W83305  17.271  25.664   1.908
19373W        W83306  23.506   3.293   1.886
19374W        W83307   3.764   2.788   0.477
19375W        W83308  15.675  20.105  14.022
19376W        W83309   9.798  20.584  11.385
19377W        W83310  10.268  36.467  14.772
19378W        W83311  22.158   3.853  11.590
19379W        W83312  41.943  33.905   2.356
19380W        W83313  24.077  32.986  11.968
19381W        W83314  28.447  21.662  13.328
19382W        W83315  36.511   7.860  14.864
19383W        W83316   6.782  27.681  13.799
19384W        W83317  31.033  32.062  14.422
19385W        W83318  38.073  21.709  11.896
19386W        W83319  31.561   4.354  12.075
19387W        W83320  13.259  43.348  13.429
19388W        W83321  14.630  14.680   4.172
19389W        W83322  37.057  24.663  14.854
19390W        W83323  43.460  28.996   4.231
19391W        W83324  31.075  43.512   2.825
19392W        W83325   8.380  42.383   4.218
19393W        W83326   1.472  18.285   0.908
19394W        W83327  12.143  28.484  12.522
19395W        W83328   7.812  21.249  12.543
19396W        W83329  21.575   9.740   3.366
19397W        W83330  23.502   7.696  14.515
19398W        W83331   8.854  28.564   0.830
19399W        W83332  26.976  14.705   0.846
19400W        W83333   0.257  22.550  14.889
19401W        W83334   3.867  40.873   1.768
19402W        W83335  31.546  15.667  11.999
19403W        W83336   4.920  25.219  10.517
19404W        W83337   9.327  11.800   9.986
19405W        W83338  33.037  12.666   4.241
19406W        W83339   0.414  31.545   2.695
19407W        W83340  20.739   7.683   1.441
19408W        W83341  42.934  15.254   3.815
19409W        W83342  40.947  11.770  14.837
19410W        W83343  17.233  14.202   3.186
19411W        W83344  14.681   5.214   4.134
19412W        W83345  24.146  16.580  11.473
19413W        W83346  26.147  17.681   4.630
19414W        W83347   2.902  13.329   2.866
19415W        W83348  31.560   3.303  12.442
19416W        W83349  36.378   9.870  12.390
19417W        W83350  38.428  24.994  13.489
19418W        W83351   0.270  41.463   2.882
19419W        W83352  39.918  30.505  10.432
19420W        W83353   7.284   2.303   4.228
19421W        W83354  13.736  17.160  13.832
19422W        W83355  35.026  15.314   4.277
19423W        W83356  32.936  21.149  10.518
19424W        W83357  42.014  28.103   1.822
19425W        W83358  31.616  33.424  10.592
19426W        W83359   3.756  31.591  13.847
19427W        W83360   5.882   5.721  10.505
19428W        W83361  44.803  14.280  10.603
19429W        W83362   6.744  13.632   0.357
19430W        W83363  15.314  41.329   3.634
19431W        W83364  12.328  34.931   1.798
19432W        W83365  29.043  41.508  12.981
19433W        W83366   2.731  41.483   1.934
19434W        W83367  27.656  19.157   0.767
19435W        W83368  32.463  11.672   4.242
19436W        W83369   1.478  22.179  11.079
19437W        W83370  31.038  16.156   4.830
19438W        W83371  19.735  24.034   2.718
19439W        W83372  31.950  31.955  10.544
19440W        W83373  33.409   8.400   1.338
19441W        W83374  41.961  38.027   2.280
19442W        W83375   4.374  39.559   3.650
19443W        W83376  32.020   5.199   3.826
19444W        W83377   8.666  43.309   0.757
19445W        W83378   0.907   4.260   2.254
19446W        W83379  17.790  19.141   4.780
19447W        W83380  27.518  39.364  13.927
19448W        W83381  25.583  37.532   0.383
19449W        W83382  11.307  12.742  11.478
19450W        W83383   2.240  10.659  12.081
19451W        W83384   7.860  33.035  14.488
19452W        W83385  14.650  19.754   2.900
19453W        W83386  14.620  12.811   5.110
19454W        W83387  26.514   2.266   0.787
19455W        W83388   9.680  23.618  11.949
19456W        W83389  20.565  35.924   3.174
19457W        W83390  44.936  33.888   2.847
19458W        W83391  15.589  28.476   3.374
19459W        W83392   4.262  36.479  14.010
19460W        W83393  17.185  20.620   1.701
19461W        W83394  43.425  12.755  11.040
19462W        W83395  19.209  21.569  10.539
19463W        W83396  18.704  15.767  13.851
19464W        W83397   7.372  13.759   0.804
19465W        W83398   3.456  20.574  11.596
19466W        W83399   4.351  40.448   1.357
19467W        W83400  39.861   4.848   2.684
19468W        W83401   5.362  33.076  11.057
19469W        W83402  25.019  15.798  11.521
19470W        W83403  24.973  41.795  11.976
19471W        W83404  29.961  15.133  10.404
19472W        W83405  30.123  35.401   3.272
19473W        W83406  38.378  21.085  14.842
19474W        W83407  42.368  40.398   2.202
19475W        W83408  22.105  37.364   4.713
19476W        W83409  15.328   5.817   2.193
19477W        W83410  33.933  15.317  12.479
19478W        W83411  17.743  38.878  11.864
19479W        W83412   2.724  29.142   1.830
19480W        W83413  20.542  28.678  10.518
19481W        W83414   4.832  16.314   5.137
19482W        W83415  25.108  11.202  14.512
19483W        W83416  20.568  44.389  10.413
19484W        W83417  36.439  21.074  10.145
19485W        W83418  38.526  44.444   3.851
19486W        W83419  20.696  21.064  11.474
19487W        W83420  12.326  17.648   0.924
19488W        W83421  18.742  22.652   4.248
19489W        W83422  22.623  22.136   4.140
19490W        W83423  34.516   9.687  11.548
19491W        W83424  14.307  37.958  12.553
19492W        W83425  30.140  26.957  11.061
19493W        W83426  33.038  30.446  11.944
19494W        W83427  31.450  42.927   0.436
19495W        W83428   8.293  19.219   0.403
19496W        W83429  21.564   4.704  14.830
19497W        W83430   5.335   7.291   2.325
19498W        W83431  44.948   5.757  12.035
19499W        W83432  43.367   7.196   4.758
19500W        W83433  31.040  18.714  14.505
19501W        W83434  44.301  31.044   3.711
19502W        W83435  17.165  19.603   2.875
19503W        W83436  12.348  35.405   3.368
19504W        W83437  27.582  25.641   2.879
19505W        W83438  13.761  10.363  12.920
19506W        W83439  37.528  36.010   4.278
19507W        W83440  10.138  11.301   2.292
19508W        W83441  39.881  19.755   3.300
19509W        W83442   5.900   6.316  10.572
19510W        W83443  33.437  32.999  11.128
19511W        W83444  40.371  35.522   2.283
19512W        W83445  39.494  41.434  11.528
19513W        W83446  12.118  12.812   1.412
19514W        W83447   8.814   6.189  14.939
19515W        W83448  25.698   1.888  13.022
19516W        W83449  35.537   4.304   4.197
19517W        W83450  32.420  27.125  12.066
19518W        W83451   1.859  35.878   2.686
19519W        W83452   7.720  35.925   4.766
19520W        W83453  23.523   3.441  14.391
19521W        W83454   6.727  33.015   0.452
19522W        W83455  17.239  33.595   0.914
19523W        W83456  20.126  39.516  12.451
19524W        W83457   9.656  38.360   2.691
19525W        W83458  26.493  20.150   2.848
19526W        W83459   3.306  11.132   4.737
19527W        W83460  15.318   4.408  14.454
19528W        W83461  43.995  34.085   0.388
19529W        W83462  17.168  37.494  13.916
19530W        W83463   7.358   6.281  10.539
19531W        W83464  31.962  12.844   4.125
19532W        W83465  38.839   0.390  14.989
19533W        W83466  42.913  10.362  14.853
19534W        W83467  25.602   1.843  11.528
19535W        W83468  12.690  17.774  14.293
19536W        W83469   3.819  27.486  11.395
19537W        W83470  15.190  43.311   3.350
19538W        W83471   4.727  28.472   4.323
19539W        W83472   7.230  15.669   3.204
19540W        W83473  16.135  19.592  11.094
19541W        W83474  25.587   0.403  14.980
19542W        W83475  34.004   3.221   2.312
19543W        W83476  15.613  24.562  12.011
19544W        W83477  42.942  30.475   2.216
19545W        W83478  21.668  36.844   4.724
19546W        W83479  33.927  23.159  12.057
19547W        W83480  33.966  38.430  11.023
19548W        W83481  21.235  11.262  10.596
19549W        W83482  24.175   5.746   1.435
19550W        W83483  20.168  19.572  13.033
19551W        W83484   6.861  38.831  11.932
19552W        W83485  38.934  11.713  11.097
19553W        W83486  37.988   1.457   2.867
19554W        W83487  40.932  43.440   2.219
19555W        W83488  28.143  39.498   1.338
19556W        W83489   5.735   3.240  11.121
19557W        W83490  20.041  32.609   0.474
19558W        W83491   2.281  14.796   1.436
19559W        W83492  10.832  12.331  13.041
19560W        W83493  15.153   0.986   2.715
19561W        W83494  19.592  31.987  12.983
19562W        W83495   9.823  29.461   4.731
19563W        W83496  39.539   7.752  11.917
19564W        W83497  28.452  40.833  13.842
19565W        W83498  19.685  22.200   1.854
19566W        W83499  13.829  33.457  10.461
19567W        W83500  29.442  21.226   5.150
19568W        W83501  25.080  13.187   4.268
19569W        W83502  33.430   0.459   1.872
19570W        W83503  23.628  20.060  12.381
19571W        W83504  10.697   2.457  12.857
19572W        W83505  43.499  34.087  14.472
19573W        W83506  11.335  13.658   3.290
19574W        W83507  33.112  32.052   1.774
19575W        W83508   8.279  31.963  11.099
19576W        W83509  35.597   7.234  13.528
19577W        W83510   6.419  18.610  10.066
19578W        W83511  43.808  26.961   1.354
19579W        W83512  16.238   3.458  12.833
19580W        W83513  32.407  44.446  14.476
19581W        W83514  42.003  25.660  12.845
19582W        W83515   5.317  19.154   1.794
19583W        W83516  11.765  14.676  12.352
19584W        W83517  26.114  11.806   3.215
19585W        W83518   9.776  37.884  13.901
19586W        W83519  24.982  31.542  10.493
19587W        W83520  35.095  28.035   0.829
19588W        W83521   0.350   3.264  14.785
19589W        W83522  15.286  34.896   1.295
19590W        W83523  12.729  12.238  10.966
19591W        W83524   8.379  39.878   2.401
19592W        W83525  38.522   8.685   3.267
19593W        W83526  21.694  43.831  12.513
19594W        W83527  25.085   6.905  14.373
19595W        W83528  40.003  36.865   0.800
19596W        W83529  17.564  25.211   0.919
19597W        W83530  10.271  15.674  11.123
19598W        W83531  36.361   3.450  14.835
19599W        W83532  38.502  17.283   2.825
19600W        W83533  18.063   8.866   2.866
19601W        W83534  16.212  30.029  12.052
19602W        W83535  16.629  30.060   4.233
19603W        W83536  26.513  16.569  14.393
19604W        W83537  26.058  17.750   2.742
19605W        W83538  23.702  34.407   3.649
19606W        W83539  23.191   8.292   0.773
19607W        W83540  14.103  11.240   2.737
19608W        W83541  42.434  23.048  11.008
19609W        W83542  14.124   6.191   2.688
19610W        W83543  30.924  30.078   0.445
19611W        W83544  14.190  32.425  12.513
19612W        W83545  38.946  40.858   2.857
19613W        W83546   0.988  10.139  11.463
19614W        W83547   1.748  17.194  12.876
19615W        W83548  15.189  36.940   4.247
19616W        W83549  35.079   1.392   2.877
19617W        W83550  44.980  33.493  14.001
19618W        W83551  39.936  14.203   2.862
19619W        W83552  43.798  32.568   4.191
19620W        W83553  23.636  26.995   1.878
19621W        W83554  34.112  37.877   0.375
19622W        W83555   5.840  15.821   0.288
19623W        W83556  28.085  24.581  12.919
19624W        W83557  12.154  33.518   2.883
19625W        W83558  38.393  20.624  11.950
19626W        W83559  13.216   2.450  12.357
19627W        W83560  43.364  35.431  10.550
19628W        W83561  10.746  43.819  13.535
19629W        W83562   7.881   3.407  11.105
19630W        W83563  10.653  22.036   0.388
19631W        W83564   9.261  29.936  13.937
19632W        W83565  23.585  32.459   3.235
19633W        W83566   4.918   5.779  10.534
19634W        W83567  22.554  40.305  14.465
19635W        W83568  18.190  12.641  12.424
19636W        W83569  21.118  22.683   2.801
19637W        W83570   9.347   2.460   3.185
19638W        W83571  35.529   0.893  11.554
19639W        W83572  39.324  22.558   4.322
19640W        W83573   7.811  34.539  13.952
19641W        W83574  33.097   0.877   0.427
19642W        W83575  34.989  26.489   4.777
19643W        W83576   4.371  33.514   2.225
19644W        W83577  16.567   4.258   2.744
19645W        W83578  18.756  20.604   3.332
19646W        W83579  19.710  11.291  12.519
19647W        W83580  22.237  16.727   3.382
19648W        W83581  41.327  16.715   4.262
19649W        W83582  13.309  26.557  12.842
19650W        W83583   0.970  28.059   1.925
19651W        W83584  24.640  26.176  13.402
19652W        W83585  29.023  20.724   4.286
19653W        W83586  20.754   1.966  14.304
19654W        W83587   9.674  13.267   0.252
19655W        W83588  11.363  30.633  13.850
19656W        W83589  40.314  34.889   2.297
19657W        W83590  28.994   2.392   3.336
19658W        W83591  39.842  12.764   3.656
19659W        W83592  18.595  17.744   0.435
19660W        W83593  24.489  23.632  13.318
19661W        W83594   1.791  25.549   3.220
19662W        W83595  10.340  28.649  10.113
19663W        W83596   8.201  44.392   0.311
19664W        W83597  28.098  26.539   2.797
19665W        W83598   2.440  18.071   2.400
19666W        W83599  42.307  38.040   3.843
19667W        W83600  19.121  15.577  14.896
19668W        W83601  33.512   9.874  13.307
19669W        W83602  37.366   4.908   4.811
19670W        W83603   3.424  25.701   4.832
19671W        W83604  44.351   0.770   1.823
19672W        W83605  18.683   0.413   0.819
19673W        W83606  38.433   7.198   2.812
19674W        W83607  39.903  12.839   1.323
19675W        W83608  33.437  32.906  13.507
19676W        W83609  17.285  44.808   3.256
19677W        W83610   9.714  22.186   4.646
19678W        W83611  27.192   8.779   3.207
19679W        W83612  13.754  32.505   2.369
19680W        W83613  29.607  39.033   0.745
19681W        W83614  29.115  10.785   0.338
19682W        W83615   9.277  26.109  11.374
19683W        W83616   0.948  27.677  14.383
19684W        W83617  25.471   8.893   4.628
19685W        W83618  30.144  27.042   4.654
19686W        W83619  28.987   2.941  13.431
19687W        W83620  31.452  42.339  10.996
19688W        W83621  13.314  26.038   0.461
19689W        W83622  13.808   6.271  12.409
19690W        W83623   7.306  12.727  13.431
19691W        W83624   7.179  39.503   0.309
19692W        W83625  16.318  26.680  12.537
19693W        W83626  36.968   3.727   4.144
19694W        W83627   9.878  15.268   4.154
19695W        W83628  38.042  43.404  12.999
19696W        W83629  40.915  18.642   1.423
19697W        W83630  39.839  23.139   1.377
19698W        W83631  44.798  31.483   0.896
19699W        W83632  15.234  28.185  12.348
19700W        W83633  21.652  27.561   3.691
19701W        W83634  30.565  42.499  11.043
19702W        W83635  33.969  20.142   4.606
19703W        W83636  18.143  32.118  13.462
19704W        W83637  28.567   1.265   5.760
19705W        W83638  27.468  37.923  13.063
19706W        W83639   1.355  33.383   4.140
19707W        W83640  33.076  40.453   3.727
19708W        W83641  32.504  14.829  10.429
19709W        W83642  35.854  34.481   0.821
19710W        W83643  40.445  11.340   2.890
19711W        W83644   8.899  10.139   4.699
19712W        W83645  33.532  37.853   0.772
19713W        W83646  42.297  25.052   2.806
19714W        W83647  18.711  36.937  10.950
19715W        W83648  11.771  26.970  13.380
19716W        W83649   5.387   8.848   2.731
19717W        W83650  18.631   0.885  14.411
19718W        W83651   0.399  18.187   0.296
19719W        W83652  15.600   9.350   2.806
19720W        W83653  25.183  22.202   9.932
19721W        W83654  28.052  32.068   2.379
19722W        W83655  33.099  42.781   4.713
19723W        W83656  16.210  42.458  10.635
19724W        W83657  37.420  29.592   3.790
19725W        W83658  40.960   9.158  13.916
19726W        W83659  12.159  35.947   3.165
19727W        W83660  13.748  28.637  13.512
19728W        W83661  24.586  25.546  14.480
19729W        W83662  44.898  27.686  14.934
19730W        W83663  42.494  38.467   3.386
19731W        W83664   8.322  40.342  11.030
19732W        W83665  22.593  35.380   2.199
19733W        W83666  31.102  27.053  11.047
19734W        W83667  41.501  29.965   2.675
19735W        W83668  30.135  15.746  12.573
19736W        W83669  20.037  41.023  12.564
19737W        W83670  11.336  10.724  14.761
19738W        W83671  13.662   6.758  11.095
19739W        W83672  29.505  28.527   3.729
19740W        W83673   1.360   2.840   3.258
19741W        W83674  35.580  41.504  13.949
19742W        W83675  12.779  24.223   3.752
19743W        W83676  21.613  18.052  11.035
19744W        W83677  35.888  19.058   4.828
19745W        W83678  29.436   1.467  14.341
19746W        W83679  14.646   4.302   2.407
19747W        W83680  31.533  44.811  11.106
19748W        W83681  41.808  22.121   2.802
19749W        W83682  10.652  31.038   0.332
19750W        W83683   1.927   6.918   4.729
19751W        W83684  11.695  23.607   4.302
19752W        W83685   3.423  28.042  12.887
19753W        W83686  26.116  34.392  13.543
19754W        W83687  42.869  30.499  14.295
19755W        W83688  17.260  13.211   0.411
19756W        W83689  19.576  10.362   3.759
19757W        W83690   1.884  37.387   3.356
19758W        W83691   7.311  40.329  10.463
19759W        W83692  11.623  24.604   1.275
19760W        W83693  27.654  12.151  10.630
19761W        W83694  21.595  30.530   2.870
19762W        W83695  25.153  17.105   1.322
19763W        W83696   7.806  44.892  14.836
19764W        W83697  15.211  44.888   0.258
19765W        W83698  30.966   5.823   0.812
19766W        W83699  43.834  34.878   4.306
19767W        W83700  43.992  42.376  14.891
19768W        W83701  21.138  17.142   1.881
19769W        W83702  41.496  12.360   4.709
19770W        W83703  28.161  32.016  11.940
19771W        W83704  18.055  17.559  11.889
19772W        W83705  42.376  26.521   1.881
19773W        W83706   0.396  12.147   2.678
19774W        W83707  19.277  37.359  10.476
19775W        W83708  28.010  40.404   5.317
19776W        W83709   3.786  10.743   2.761
19777W        W83710  17.116   0.936   4.723
19778W        W83711  33.429  12.740   2.267
19779W        W83712  29.925  41.964  11.389
19780W        W83713  27.083  35.575   2.772
19781W        W83714  26.491   3.215   2.885
19782W        W83715   5.324  16.584   5.717
19783W        W83716  28.473  30.583   4.599
19784W        W83717  19.102  11.672  13.434
19785W        W83718  44.502  29.605   2.797
19786W        W83719  41.327  34.090  10.518
19787W        W83720  35.995  17.203   3.775
19788W        W83721  42.790  13.793  14.461
19789W        W83722  25.218   7.739   0.790
19790W        W83723   1.458  41.521  14.813
19791W        W83724  18.146  32.078   0.411
19792W        W83725  11.802  22.737   4.609
19793W        W83726  30.130  35.985   4.304
19794W        W83727  44.913  12.126   3.644
19795W        W83728  35.940  23.112   1.225
19796W        W83729  34.403  37.998  11.065
19797W        W83730  21.573   2.341   2.802
19798W        W83731  32.528   8.745   4.284
19799W        W83732   5.760  39.989  11.457
19800W        W83733  29.452   0.437   1.717
19801W        W83734  29.957  32.577  14.370
19802W        W83735  27.069  37.927  14.410
19803W        W83736  31.933  26.121   2.382
19804W        W83737  15.796  26.162  10.482
19805W        W83738  20.725   2.946  11.919
19806W        W83739  20.029  15.261  12.444
19807W        W83740  29.460  17.799  11.414
19808W        W83741  39.837  28.607  11.463
19809W        W83742   2.771  19.200   1.839
19810W        W83743  44.346  38.381  10.494
19811W        W83744  35.599  12.116   3.723
19812W        W83745  34.894  25.629  14.885
19813W        W83746  19.626  26.659  10.918
19814W        W83747   9.663  42.332   4.761
19815W        W83748   9.323   7.331  14.384
19816W        W83749  22.696  30.638  14.431
19817W        W83750  43.487   7.707   3.671
19818W        W83751  31.071   5.287  11.507
19819W        W83752  31.904   1.820   1.771
19820W        W83753  30.960  44.302  14.471
19821W        W83754  10.764   0.473   1.890
19822W        W83755   9.697  19.560   0.740
19823W        W83756  29.919  12.709  13.886
19824W        W83757   2.817   0.871   4.154
19825W        W83758  26.095  15.746  12.882
19826W        W83759   5.210  33.578   4.805
19827W        W83760   0.373  23.202  12.409
19828W        W83761   2.368   5.724  12.043
19829W        W83762  34.980  44.313  12.892
19830W        W83763  15.282  23.600   2.768
19831W        W83764  23.692   2.899  13.967
19832W        W83765  20.694  30.135  13.834
19833W        W83766  38.937  44.302   0.750
19834W        W83767  31.435  19.558   2.703
19835W        W83768  32.998  21.234  10.014
19836W        W83769  26.023  16.811  14.787
19837W        W83770  24.636  17.676   3.694
19838W        W83771  15.673  22.121  13.932
19839W        W83772  39.544  25.664   3.335
19840W        W83773  15.697  26.146   1.770
19841W        W83774  21.222   8.891   1.735
19842W        W83775  22.642  39.876  13.932
19843W        W83776   7.732  35.897   2.202
19844W        W83777  20.201  34.605   3.190
19845W        W83778  34.525  32.948  13.850
19846W        W83779  38.537  36.051  12.900
19847W        W83780  14.255  37.972   0.905
19848W        W83781  27.518   5.380  14.311
19849W        W83782  39.412  26.981  12.056
19850W        W83783  34.081   0.416  13.810
19851W        W83784  44.364  28.098  14.767
19852W        W83785   7.250  25.542   4.226
19853W        W83786  19.137  43.823  14.300
19854W        W83787  14.818  14.672   4.779
19855W        W83788   7.297  24.032  10.996
19856W        W83789  39.450  37.908  11.447
19857W        W83790   8.660  30.102  12.048
19858W        W83791  41.433  34.493  14.821
19859W        W83792  17.741   0.774  10.454
19860W        W83793  20.050  35.981   1.780
19861W        W83794   3.355  34.597   4.266
19862W        W83795   1.909   2.930  13.453
19863W        W83796  18.598   7.746  14.477
19864W        W83797   7.285  25.149  13.060
19865W        W83798  35.892   6.323  14.894
19866W        W83799   0.304   4.318   1.925
19867W        W83800  31.010  19.164   2.301
19868W        W83801  37.579  36.088  11.030
19869W        W83802  20.648  37.468  12.854
19870W        W83803  25.473  34.406   0.966
19871W        W83804   3.894  23.693  14.349
19872W        W83805  23.566  15.149   0.342
19873W        W83806  18.202   3.785  13.405
19874W        W83807  32.082   8.283  14.320
19875W        W83808  32.036  26.569   4.690
19876W        W83809  36.587  16.614  12.025
19877W        W83810  34.864  41.852  14.296
19878W        W83811  37.915  43.804   0.484
19879W        W83812  23.592   4.942  13.370
19880W        W83813  29.101   7.864   2.822
19881W        W83814  35.015  13.667   3.317
19882W        W83815  22.143  38.349  12.004
19883W        W83816  43.958  16.728  12.539
19884W        W83817  39.380  12.742  13.804
19885W        W83818   7.235  14.744  13.975
19886W        W83819  28.017  29.167  14.470
19887W        W83820  18.151  35.981   1.273
19888W        W83821  14.237  27.685   1.932
19889W        W83822   3.804   1.884   2.798
19890W        W83823  27.627  44.989  12.959
19891W        W83824  34.462   9.821   0.333
19892W        W83825   0.415   8.824   0.804
19893W        W83826  26.144  42.354   9.442
19894W        W83827   6.402   5.827  13.878
19895W        W83828  38.074  37.075  14.321
19896W        W83829  25.171  16.628  12.487
19897W        W83830  14.146  20.144  10.419
19898W        W83831  42.431  35.030   3.169
19899W        W83832  20.139   9.182  13.893
19900W        W83833  12.653  28.514   1.705
19901W        W83834  19.564  16.697  14.874
19902W        W83835  34.022  36.587   0.334
19903W        W83836   8.394  33.041   4.221
19904W        W83837  20.221  29.095  11.450
19905W        W83838  36.966  13.691  13.516
19906W        W83839   6.285   1.417  14.508
19907W        W83840  42.027  23.021  12.421
19908W        W83841  28.477  10.260   2.345
19909W        W83842  32.535  12.337   2.188
19910W        W83843  44.470  34.605   0.461
19911W        W83844  12.613   8.798  13.876
19912W        W83845   3.850  25.176   2.256
19913W        W83846   6.755  23.562  10.058
19914W        W83847   4.907  22.230   1.753
19915W        W83848  36.550  12.763   2.329
19916W        W83849   2.298   0.877  14.442
19917W        W83850  26.144   6.244  13.886
19918W        W83851  39.526  14.751   2.338
19919W        W83852  16.704  30.601  11.858
19920W        W83853   6.827  22.061   0.960
19921W        W83854   3.355  31.929   3.682
19922W        W83855  22.174  16.208   0.365
19923W        W83856  13.105  38.505   3.148
19924W        W83857  21.229  27.011   3.676
19925W        W83858  40.801  10.652   1.389
19926W        W83859  14.788  38.457   3.829
19927W        W83860  44.896  19.201  12.379
19928W        W83861   2.928  17.693  12.531
19929W        W83862  17.211   6.314   0.389
19930W        W83863   0.384  20.632   0.397
19931W        W83864   1.314   6.687  13.962
19932W        W83865  36.559  31.954   4.145
19933W        W83866  31.945   2.735   4.179
19934W        W83867  27.004  35.091  12.432
19935W        W83868  25.505  13.184  12.077
19936W        W83869  13.294  25.157   5.213
19937W        W83870  29.035   6.359   3.738
19938W        W83871  34.022  18.633   3.321
19939W        W83872  36.897  14.335   3.771
19940W        W83873  29.574   4.861  11.954
19941W        W83874  37.566  31.126   4.209
19942W        W83875  37.941  23.657   1.836
19943W        W83876  13.105  13.753   3.364
19944W        W83877  41.443   3.399  14.010
19945W        W83878  19.086  44.425   0.746
19946W        W83879   3.254   1.241  12.093
19947W        W83880   3.246  20.151   2.247
19948W        W83881  38.404   2.283   4.124
19949W        W83882   2.846   1.800  14.815
19950W        W83883  37.503  31.092  10.407
19951W        W83884  38.028   9.334   0.915
19952W        W83885  27.152  18.222   0.820
19953W        W83886  28.639  23.585  11.051
19954W        W83887  23.114   0.275   2.253
19955W        W83888  43.467  35.081   1.419
19956W        W83889  11.621  29.425   3.272
19957W        W83890   0.828  17.673   4.728
19958W        W83891  35.580  44.764  10.560
19959W        W83892  36.024  36.034  14.945
19960W        W83893  36.917  20.200  11.022
19961W        W83894   6.915   1.761   3.223
19962W        W83895  12.152  10.211   0.807
19963W        W83896  12.754  18.602   1.712
19964W        W83897  20.065  13.323   0.389
19965W        W83898  35.473  29.450   4.131
19966W        W83899  35.595   1.759  14.847
19967W        W83900  13.280  19.770   5.103
19968W        W83901  27.101  25.111  10.907
19969W        W83902  23.162  29.546  12.922
19970W        W83903  16.238   3.327   4.170
19971W        W83904   8.291  41.933  14.307
19972W        W83905   8.753   9.273  11.892
19973W        W83906  37.032  11.714   0.353
19974W        W83907   8.870   8.173  14.978
19975W        W83908  39.965  24.021   2.363
19976W        W83909  35.574  32.624   3.303
19977W        W83910  41.946  22.519   0.754
19978W        W83911  25.996  29.611   3.690
19979W        W83912  22.041  39.031   1.837
19980W        W83913  30.577  29.560   4.693
19981W        W83914   0.392  37.083   0.801
19982W        W83915  26.677  28.930  12.904
19983W        W83916  41.923  19.148   2.900
19984W        W83917  16.150  20.058   2.900
19985W        W83918  26.464  43.985  12.517
19986W        W83919  12.115  20.590   2.292
19987W        W83920  35.543  31.070  11.057
19988W        W83921   2.749  22.628  10.528
19989W        W83922  12.205  11.219   4.246
19990W        W83923  23.551  36.917  11.453
19991W        W83924   2.740  34.510  13.039
19992W        W83925   5.415  27.099  13.342
19993W        W83926   7.691   9.191  14.928
19994W        W83927  19.223   3.433  14.835
19995W        W83928   1.340  27.061  10.581
19996W        W83929  14.721  22.656   2.405
19997W        W83930  33.001  29.546  13.892
19998W        W83931  39.974  44.948  13.326
19999W        W83932  13.128  13.292  14.482
20000W        W83933  35.533  23.672   3.386
20001W        W83934   0.751  16.315   3.298
20002W        W83935  34.375  24.009  11.482
20003W        W83936   3.348   1.462   3.370
20004W        W83937  19.767   2.238  14.799
20005W        W83938  38.025  34.414  10.946
20006W        W83939   9.394  24.195  12.376
20007W        W83940  26.696   9.230   9.943
20008W        W83941  15.199   4.923  12.529
20009W        W83942  10.281  15.758  14.327
20010W        W83943   9.340   2.859  10.572
20011W        W83944  42.410  10.314  12.073
20012W        W83945  28.648  28.073   3.730
20013W        W83946  42.521   8.343  14.898
20014W        W83947  10.712  42.473  12.068
20015W        W83948  18.224   9.691   3.708
20016W        W83949   4.212  27.592   0.824
20017W        W83950   0.355  21.658  11.556
20018W        W83951  38.333  10.148   2.784
20019W        W83952  31.039  29.958  13.338
20020W        W83953  22.161  30.619  10.996
20021W        W83954   1.940  13.233  13.944
20022W        W83955  20.759   7.187  11.925
20023W        W83956  13.268  20.143   4.330
20024W        W83957   1.732  40.860   2.704
20025W        W83958   7.381   6.837  13.924
20026W        W83959  40.504  41.909  11.883
20027W        W83960   5.403  24.548   1.850
20028W        W83961   3.726  42.952   2.784
20029W        W83962  36.888  27.085   3.352
20030W        W83963  32.056  23.996  13.362
20031W        W83964   2.750  10.162  11.484
20032W        W83965  28.963   7.898   1.909
20033W        W83966  22.211   8.851  10.460
20034W        W83967   9.885  35.589  13.883
20035W        W83968  11.345  21.086  11.921
20036W        W83969  35.022   8.238   0.429
20037W        W83970  41.457  25.162   4.308
20038W        W83971  16.294   0.319   4.763
20039W        W83972   7.380  19.082  12.490
20040W        W83973   4.380   4.753   0.955
20041W        W83974  14.637  15.218   2.411
20042W        W83975   3.787  44.972  13.920
20043W        W83976  30.619   7.845  14.816
20044W        W83977   1.816   7.757   0.363
20045W        W83978  29.625  29.657   3.777
20046W        W83979   4.366  39.003  12.094
20047W        W83980  35.868   6.331   1.702
20048W        W83981  10.367  36.572   3.223
20049W        W83982   6.802  31.974  13.387
20050W        W83983   6.808  44.405   4.838
20051W        W83984   8.266   6.247  10.118
20052W        W83985  40.510  10.269   1.289
20053W        W83986   4.337   4.334  14.927
20054W        W83987  19.700  24.086   1.383
20055W        W83988  17.796  18.675  13.816
20056W        W83989  12.756  40.012  13.513
20057W        W83990  10.747  34.386  12.976
20058W        W83991  12.128  13.836  11.473
20059W        W83992  22.601  32.052   0.414
20060W        W83993  18.204  15.691  14.970
20061W        W83994  35.021   2.358   1.440
20062W        W83995   0.303   4.727   3.685
20063W        W83996  36.936  41.301  13.866
20064W        W83997   7.265  16.185   3.674
20065W        W83998  37.883  29.557   2.714
20066W        W83999  19.702  23.091   3.173
20067W        W84000  41.500  30.013  11.024
20068W        W84001   8.726  36.850   2.884
20069W        W84002  33.121  14.134  14.836
20070W        W84003   9.663  35.059  12.853
20071W        W84004  39.981  40.478   2.251
20072W        W84005  35.099  43.876  12.046
20073W        W84006  25.219  28.014  11.437
20074W        W84007  28.013   6.859  12.545
20075W        W84008  40.809  18.113   1.248
20076W        W84009   9.884   2.863   0.250
20077W        W84010  28.091  23.584  10.537
20078W        W84011   4.256  14.240   1.882
20079W        W84012  14.166  37.469   1.254
20080W        W84013  23.569  11.687   0.395
20081W        W84014  12.262   4.892   3.340
20082W        W84015  22.119  38.846  13.888
20083W        W84016   5.839  26.137  11.511
20084W        W84017  22.206   5.857   1.701
20085W        W84018  35.011  24.561  11.931
20086W        W84019   5.796  15.813  14.470
20087W        W84020  23.731  37.006  11.988
20088W        W84021  16.224  28.640   2.186
20089W        W84022  30.991   3.430   0.299
20090W        W84023   6.231  31.494  13.029
20091W        W84024   1.887  13.693  14.809
20092W        W84025  43.490  23.137  13.972
20093W        W84026  34.429  44.814  11.952
20094W        W84027  36.560  18.174  14.361
20095W        W84028  11.220  41.954  11.435
20096W        W84029  24.489  44.797  10.461
20097W        W84030  38.047  29.548  14.444
20098W        W84031  42.347   3.328  10.600
20099W        W84032  44.755  14.719  12.490
20100W        W84033   1.349  35.601  14.972
20101W        W84034  21.110  24.125   2.758
20102W        W84035  37.337  16.608   1.825
20103W        W84036   7.795  34.570   2.352
20104W        W84037  40.033  44.931   1.368
20105W        W84038  31.442  28.029  10.605
20106W        W84039   6.329  30.547   3.340
20107W        W84040   7.731  27.997  10.909
20108W        W84041  18.152   3.242  14.436
20109W        W84042   6.304  31.424   4.673
20110W        W84043  27.487  12.704   0.898
20111W        W84044  42.525  24.154  11.088
20112W        W84045  27.524  10.722   2.194
20113W        W84046   5.783  14.722   3.300
20114W        W84047  41.378  19.271   0.951
20115W        W84048  11.783  37.359   1.852
20116W        W84049  32.589  34.421   0.408
20117W        W84050  16.777  33.112  12.845
20118W        W84051  20.612  22.148  11.463
20119W        W84052  40.355  40.373   5.133
20120W        W84053  16.242  28.657   0.781
20121W        W84054   7.316  15.229   4.812
20122W        W84055  12.755  18.253   1.387
20123W        W84056  28.614   3.891  12.928
20124W        W84057  23.219  12.670  11.971
20125W        W84058  33.526  16.316   5.300
20126W        W84059  40.935  12.791  10.473
20127W        W84060   9.798  24.716   2.835
20128W        W84061  40.911  41.295  11.532
20129W        W84062  43.498  37.502   2.396
20130W        W84063   4.281  25.015   2.179
20131W        W84064  34.989   7.347  13.854
20132W        W84065  42.845  17.102   1.429
20133W        W84066   0.438  20.544  13.830
20134W        W84067   0.816  35.897  13.982
20135W        W84068  42.017  35.590  14.832
20136W        W84069  11.257  12.217   4.284
20137W        W84070   9.830  31.451  12.450
20138W        W84071  36.078   1.907  14.481
20139W        W84072  29.158  28.680   2.232
20140W        W84073  21.088  18.653  14.912
20141W        W84074   2.801  41.513  13.465
20142W        W84075   1.290  26.587   0.771
20143W        W84076   0.856  26.105  12.343
20144W        W84077  40.836  42.870  14.877
20145W        W84078  10.214  32.129   3.257
20146W        W84079  18.207  20.080   0.797
20147W        W84080  38.524  17.105  13.521
20148W        W84081  32.466  33.956  10.962
20149W        W84082   2.931  28.551   2.704
20150W        W84083   4.450  18.084   4.178
20151W        W84084  25.065  13.649   0.463
20152W        W84085  34.520   6.738  13.798
20153W        W84086  17.733   1.266   0.784
20154W        W84087   4.935  27.013   2.232
20155W        W84088  32.071  41.536   4.174
20156W        W84089   6.266   0.473   3.310
20157W        W84090  37.350  24.693  10.404
20158W        W84091  19.130  17.284   1.310
20159W        W84092   2.323  13.333   1.392
20160W        W84093  35.524  32.909   0.480
20161W        W84094   3.384  35.539   2.747
20162W        W84095  32.517  15.660  13.526
20163W        W84096  33.038  41.315   0.962
20164W        W84097  38.437   3.418   3.748
20165W        W84098  37.446  44.359  14.858
20166W        W84099  22.571  19.713   5.269
20167W        W84100   4.851  33.016  10.011
20168W        W84101   4.209  34.028  10.932
20169W        W84102  34.079   9.856  14.842
20170W        W84103  30.622  25.217  12.505
20171W        W84104  15.651  24.981   4.822
20172W        W84105  37.390  17.096   1.348
20173W        W84106  18.199  11.648   3.670
20174W        W84107  28.583  26.132   4.660
20175W        W84108   2.363   5.858  13.440
20176W        W84109  14.200  26.164  14.992
20177W        W84110  25.009   9.883  13.422
20178W        W84111   3.792  30.603   0.331
20179W        W84112  43.391   7.374   1.441
20180W        W84113  44.994  37.950   0.865
20181W        W84114   2.257  24.513  14.507
20182W        W84115  18.728  28.491  12.543
20183W        W84116  33.626  22.655   1.224
20184W        W84117   7.377  24.029  13.047
20185W        W84118  13.109  31.081  10.910
20186W        W84119  13.671  12.342  12.863
20187W        W84120  38.425  31.997   5.138
20188W        W84121  32.551  41.839   3.783
20189W        W84122  31.642  40.852  11.951
20190W        W84123  44.350  21.693   1.305
20191W        W84124  42.370  30.961   0.326
20192W        W84125   9.643  43.382  10.994
20193W        W84126  39.991  11.233  13.822
20194W        W84127  39.982  11.190  10.541
20195W        W84128  30.481  40.477  13.971
20196W        W84129  39.417  13.301   3.674
20197W        W84130  33.952  31.478   0.361
20198W        W84131  14.124   2.862  11.075
20199W        W84132  44.461  41.894  11.015
20200W        W84133  38.368  25.977   1.750
20201W        W84134  23.724  43.956   3.232
20202W        W84135  40.989  18.742  11.855
20203W        W84136  10.303   8.791   0.408
20204W        W84137  27.060  38.356  10.496
20205W        W84138  34.513  42.404  14.003
20206W        W84139  33.085   8.276  10.892
20207W        W84140  22.162   8.766  11.522
20208W        W84141  29.638  26.565  10.918
20209W        W84142  30.492  27.022  14.791
20210W        W84143  43.357  18.250   0.258
20211W        W84144  32.022  35.907  11.026
20212W        W84145   5.380   7.340   4.719
20213W        W84146  11.868  21.104   5.121
20214W        W84147  36.386   5.912   4.247
20215W        W84148  11.858  28.441   4.155
20216W        W84149   9.227  11.675   3.855
20217W        W84150  44.477  17.676   1.212
20218W        W84151  19.554  21.236  13.919
20219W        W84152  16.265  21.587  12.943
20220W        W84153  40.464   6.425  13.484
20221W        W84154  13.272  24.506  10.608
20222W        W84155  16.721  35.010   1.799
20223W        W84156  34.936   9.801  14.397
20224W        W84157  44.989   4.230  12.399
20225W        W84158  27.976  38.494  13.862
20226W        W84159  43.869  16.724   1.273
20227W        W84160   4.749  44.334   0.765
20228W        W84161   3.813  43.802   3.239
20229W        W84162  20.726  21.583   2.262
20230W        W84163  14.749   1.267  12.856
20231W        W84164  13.334   0.931  14.439
20232W        W84165  34.048  38.974   1.371
20233W        W84166  37.023  31.590  14.868
20234W        W84167  32.990  44.302   4.743
20235W        W84168  42.476  20.600  14.945
20236W        W84169  40.538  14.094  10.421
20237W        W84170  43.368   7.276  11.097
20238W        W84171  34.928  41.963  10.491
20239W        W84172  19.237  14.144  12.847
20240W        W84173  20.535   3.819  14.963
20241W        W84174   0.490  34.063   0.914
20242W        W84175   3.848  40.362  11.493
20243W        W84176  35.473  17.106  11.013
20244W        W84177   8.209   8.874  14.023
20245W        W84178  29.998  38.890  14.972
20246W        W84179  11.230  15.607  11.971
20247W        W84180   8.882  12.138  11.496
20248W        W84181  37.480  33.957  10.568
20249W        W84182  31.144  27.180   1.341
20250W        W84183   8.777  25.079   0.746
20251W        W84184  32.897  34.379   4.168
20252W        W84185  17.646  43.986  11.937
20253W        W84186   3.899  14.206   1.821
20254W        W84187  33.511  24.183   0.298
20255W        W84188  23.208  35.906   1.784
20256W        W84189   7.220  37.991  13.056
20257W        W84190  34.919  17.200  14.767
20258W        W84191  43.779  40.918  13.855
20259W        W84192  26.539  22.598  13.978
20260W        W84193   0.385  24.145   3.213
20261W        W84194  41.939  25.153   1.243
20262W        W84195  38.403   3.328   3.249
20263W        W84196  23.608  44.808   9.989
20264W        W84197  30.645  14.594  14.507
20265W        W84198  15.094  27.585  11.449
20266W        W84199  21.113  14.296   4.304
20267W        W84200  23.228   5.241   3.746
20268W        W84201  41.308   9.242   1.294
20269W        W84202  44.317  44.847   2.881
20270W        W84203  22.077  41.488   1.799
20271W        W84204  12.678   7.184   4.138
20272W        W84205   1.392  15.721  12.389
20273W        W84206  17.306  39.551   1.900
20274W        W84207   9.244  14.602   0.254
20275W        W84208  41.036  36.557  10.902
20276W        W84209  20.241   4.887   4.701
20277W        W84210  13.677  37.870  13.374
20278W        W84211   8.358   1.812  10.544
20279W        W84212   4.270   9.853   1.445
20280W        W84213   2.763  38.887  14.018
20281W        W84214  16.102   8.655   0.785
20282W        W84215  32.574  19.225  10.450
20283W        W84216  15.112  30.621  14.416
20284W        W84217   7.702  21.728  14.014
20285W        W84218  25.691  17.196   2.666
20286W        W84219  13.233  26.575   0.775
20287W        W84220  32.619  19.088  13.311
20288W        W84221  37.455  22.535   4.316
20289W        W84222  19.086  32.029  13.528
20290W        W84223  27.145   3.248  14.887
20291W        W84224   4.766  25.471  10.533
20292W        W84225  13.831  38.523   4.673
20293W        W84226  27.595  33.504  13.317
20294W        W84227  24.072  10.380  12.985
20295W        W84228   7.358  14.139   1.216
20296W        W84229   5.749  44.304  12.363
20297W        W84230  38.961  21.212   2.829
20298W        W84231   0.831  44.418   1.775
20299W        W84232   8.693  13.135  13.852
20300W        W84233  12.252   6.386   5.165
20301W        W84234   7.861  42.378   0.910
20302W        W84235  31.432  24.065  10.996
20303W        W84236  22.529  27.618  10.430
20304W        W84237   3.904  19.058   1.261
20305W        W84238  26.016   3.452   2.359
20306W        W84239  43.395  41.432   0.885
20307W        W84240  28.674  33.529   2.188
20308W        W84241  42.908  23.163  12.434
20309W        W84242  34.112  21.112  10.466
20310W        W84243  12.361   8.857   4.273
20311W        W84244  25.212  41.443   3.375
20312W        W84245  38.031  44.349   2.882
20313W        W84246  32.934  39.524   1.795
20314W        W84247  21.021  36.008  10.412
20315W        W84248   6.856  37.853   2.242
20316W        W84249  38.335  33.938  11.908
20317W        W84250   2.750   6.317  12.435
20318W        W84251  43.940   5.418  13.324
20319W        W84252   6.412  33.567   3.236
20320W        W84253   0.937  35.363   1.222
20321W        W84254   9.231  23.499  12.061
20322W        W84255   1.419  29.070   3.799
20323W        W84256  14.151  11.234  13.842
20324W        W84257  18.729   1.797  12.490
20325W        W84258  22.652   6.362   2.746
20326W        W84259  28.616  41.380  10.475
20327W        W84260  39.477  13.649  13.542
20328W        W84261   0.318  31.974  10.958
20329W        W84262  10.296  11.734  14.499
20330W        W84263  22.241  28.985  10.636
20331W        W84264   3.883   1.320   1.281
20332W        W84265  17.163  24.639  11.541
20333W        W84266   5.246   5.694  12.008
20334W        W84267  34.941  14.784   1.798
20335W        W84268  25.111  26.079  10.433
20336W        W84269  29.075  29.463   0.447
20337W        W84270  22.205  22.072   2.413
20338W        W84271  18.737  29.944   4.820
20339W        W84272   9.236  34.505   3.349
20340W        W84273  32.991   5.705   2.413
20341W        W84274   7.279  17.166  11.040
20342W        W84275   8.223  21.160  14.299
20343W        W84276  37.966   2.757  12.972
20344W        W84277   4.720  29.533   0.965
20345W        W84278   0.381   7.292   0.255
20346W        W84279  36.424   1.845   1.253
20347W        W84280  21.731  35.429  13.327
20348W        W84281  38.901  38.434   4.295
20349W        W84282  37.005  23.045   4.230
20350W        W84283  11.628  40.361  13.333
20351W        W84284   8.713   9.326   5.206
20352W        W84285  15.132  41.017  11.396
20353W        W84286  17.083  30.467  11.124
20354W        W84287   0.904   4.778   0.278
20355W        W84288  22.683   8.387  11.857
20356W        W84289  19.726  37.907   5.299
20357W        W84290  30.939  42.922  14.973
20358W        W84291   0.861  40.040  11.021
20359W        W84292  28.055  15.793   2.249
20360W        W84293  14.685  32.895  14.312
20361W        W84294  27.582   7.848   0.791
20362W        W84295   7.724   8.868  10.479
20363W        W84296   7.775  20.047   0.355
20364W        W84297  21.666  41.496   0.828
20365W        W84298   9.808   7.226   3.634
20366W        W84299  33.017  11.749  11.538
20367W        W84300   0.968  14.261  10.136
20368W        W84301  32.948  43.363   4.140
20369W        W84302  30.470   8.379   2.689
20370W        W84303  30.422  29.440  12.073
20371W        W84304  11.644  19.578   4.156
20372W        W84305   1.809   5.797   3.383
20373W        W84306  34.024   6.717  11.921
20374W        W84307  15.679  20.555  13.518
20375W        W84308  15.657  32.589  13.501
20376W        W84309  40.478  10.304   5.096
20377W        W84310  16.770  11.143   0.790
20378W        W84311   0.345  21.514   4.827
20379W        W84312  28.083  20.045  10.622
20380W        W84313  21.518  32.009   1.727
20381W        W84314  29.153   8.823  10.522
20382W        W84315  24.224  17.262  14.299
20383W        W84316  16.639  24.131  11.058
20384W        W84317  37.915  44.897  14.497
20385W        W84318   8.298  26.599  10.404
20386W        W84319   7.367  11.289   3.232
20387W        W84320  16.616   1.412   0.464
20388W        W84321  22.719  32.568   0.263
20389W        W84322  37.511  23.660   2.840
20390W        W84323  29.950  21.711  12.566
20391W        W84324  32.102  41.295   4.716
20392W        W84325  17.098  20.669   0.342
20393W        W84326   3.779  31.506  10.430
20394W        W84327  30.425   6.754   2.819
20395W        W84328  37.873  27.142   1.258
20396W        W84329  27.992  22.513   1.808
20397W        W84330  29.511   6.750   3.332
20398W        W84331   2.733  28.939   3.785
20399W        W84332  14.818   0.745  10.624
20400W        W84333  21.061  42.840   0.397
20401W        W84334  36.957  23.694  14.768
20402W        W84335  14.655  38.546   0.275
20403W        W84336  19.590  24.565  11.410
20404W        W84337  30.478  34.398   4.244
20405W        W84338  22.153  28.509   0.402
20406W        W84339  33.004   7.279  11.382
20407W        W84340  19.167  36.068   3.755
20408W        W84341  19.778  12.709   1.835
20409W        W84342  10.824  34.600   5.126
20410W        W84343  31.150  34.867   3.769
20411W        W84344  22.041  13.212  12.048
20412W        W84345  10.771  14.610  10.964
20413W        W84346  21.694   6.318   2.887
20414W        W84347  23.524  16.760   2.209
20415W        W84348  15.699  32.963   2.216
20416W        W84349  28.051  24.578   4.203
20417W        W84350  24.655  38.841  10.977
20418W        W84351  43.817  13.199  10.902
20419W        W84352  28.545  10.282  11.028
20420W        W84353  10.720  34.007  10.523
20421W        W84354  23.668  24.033   0.849
20422W        W84355  24.025  34.455  11.922
20423W        W84356   4.910  14.255   1.306
20424W        W84357   0.920   0.981  10.609
20425W        W84358   8.723  21.140   0.413
20426W        W84359  34.398  22.585   0.806
20427W        W84360  36.874   1.347  14.779
20428W        W84361  40.953  27.031   1.404
20429W        W84362  33.030  13.165   0.777
20430W        W84363   1.775  28.027  13.531
20431W        W84364  15.111  31.019   0.305
20432W        W84365   2.349   7.402  13.033
20433W        W84366  14.683  38.391   2.697
20434W        W84367   2.294   4.273   4.761
20435W        W84368  24.169  32.936   4.194
20436W        W84369   0.365   9.225  12.058
20437W        W84370   2.844  20.642  14.854
20438W        W84371  18.152  38.965  10.980
20439W        W84372  11.660   8.865   3.206
20440W        W84373  38.438  41.927   2.693
20441W        W84374  37.522   7.357  14.850
20442W        W84375  36.480  13.625   2.821
20443W        W84376  36.050  34.455  10.448
20444W        W84377  31.522  40.386   3.696
20445W        W84378  44.798  22.997  14.810
20446W        W84379  10.287  17.794  14.368
20447W        W84380  19.164  25.048   4.723
20448W        W84381  26.175  29.127   0.766
20449W        W84382  44.452  24.187   4.673
20450W        W84383  29.013  31.409   1.727
20451W        W84384   9.869  33.446  11.520
20452W        W84385  43.005  43.858  13.492
20453W        W84386  29.048  40.861  13.992
20454W        W84387  38.457   6.288   4.794
20455W        W84388  27.013  29.126   3.863
20456W        W84389  17.141  40.010  13.928
20457W        W84390  11.195   4.937  10.470
20458W        W84391   0.920  28.033   2.766
20459W        W84392  38.849  28.936   1.363
20460W        W84393  20.690  20.527  12.988
20461W        W84394   2.291   3.384  11.495
20462W        W84395   0.886  11.293   0.337
20463W        W84396  30.647  10.249   4.695
20464W        W84397  24.110  34.610  14.282
20465W        W84398  12.642  36.897   4.264
20466W        W84399  15.665  41.933   2.854
20467W        W84400  43.955  24.165   0.305
20468W        W84401  44.990  19.703  12.823
20469W        W84402  36.530  35.992  13.949
20470W        W84403  43.882  31.095   3.277
20471W        W84404   9.313  21.714   0.293
20472W        W84405  23.068  35.913   3.195
20473W        W84406  30.527  29.050  10.947
20474W        W84407  41.027  15.741  13.057
20475W        W84408  30.004  20.736   3.838
20476W        W84409  29.985  23.207  14.023
20477W        W84410   4.308   4.923  13.879
20478W        W84411  23.727  39.814   2.730
20479W        W84412   7.894   9.263   1.883
20480W        W84413  24.711  17.607  13.808
20481W        W84414  35.040  23.564   1.252
20482W        W84415  10.840  23.722   0.959
20483W        W84416  31.978  20.604  13.009
20484W        W84417  39.350  25.038  12.392
20485W        W84418   3.872  16.080   5.571
20486W        W84419   0.822  22.694   2.233
20487W        W84420  32.011  43.847   2.683
20488W        W84421  30.573   0.479  14.838
20489W        W84422  41.839   5.347  13.380
20490W        W84423  36.409  12.297  14.982
20491W        W84424   5.387  18.635  11.863
20492W        W84425  35.507   2.944   2.898
20493W        W84426  38.842  35.010   0.868
20494W        W84427  21.159   6.186   2.873
20495W        W84428  29.440  33.003   1.264
20496W        W84429  12.354  16.114  12.406
20497W        W84430   0.971  44.874  14.885
20498W        W84431  15.225  12.641  12.505
20499W        W84432  37.436  22.633  11.567
20500W        W84433  23.522  38.363   3.636
20501W        W84434  31.526   8.695  13.056
20502W        W84435  37.980  12.196  12.948
20503W        W84436   7.813   7.902  12.985
20504W        W84437  31.461  12.353   4.687
20505W        W84438  26.469   2.937   3.703
20506W        W84439  25.529  19.225  12.419
20507W        W84440   9.798  21.556  12.443
20508W        W84441  39.497  19.694  14.380
20509W        W84442   0.311  36.348   0.753
20510W        W84443  16.242  14.774  12.562
20511W        W84444  26.571   5.437  10.600
20512W        W84445  18.708  19.747   2.858
20513W        W84446  31.511  31.904  11.061
20514W        W84447  10.817  22.135  11.505
20515W        W84448   1.475   7.206  11.126
20516W        W84449  28.445  25.986  14.444
20517W        W84450   4.829  29.018  12.918
20518W        W84451  25.212  15.097  14.932
20519W        W84452  29.513  35.397   3.328
20520W        W84453  15.690  14.210  12.965
20521W        W84454  34.425  14.304  13.925
20522W        W84455  32.036  29.125   1.322
20523W        W84456  43.441  29.010   1.238
20524W        W84457  34.975  42.861   2.321
20525W        W84458  38.017  37.453  12.358
20526W        W84459  42.389  19.194   1.349
20527W        W84460  29.581  19.745   1.315
20528W        W84461  40.503   9.844   4.283
20529W        W84462   6.256   4.214  10.612
20530W        W84463  42.944  12.633   1.836
20531W        W84464  21.195  42.492   0.385
20532W        W84465  42.495  11.179   0.358
20533W        W84466  34.880  28.675   2.750
20534W        W84467  20.097  36.510  12.865
20535W        W84468  40.421  44.259  11.530
20536W        W84469  13.290   5.865   0.399
20537W        W84470  36.540  31.568   1.866
20538W        W84471  37.471  39.906   3.190
20539W        W84472   6.321  23.239   0.743
20540W        W84473   4.207  44.767   1.345
20541W        W84474  11.225  21.529   0.320
20542W        W84475  15.274   0.395  11.578
20543W        W84476  25.686  17.198  11.596
20544W        W84477  16.785   5.202  14.866
20545W        W84478  30.026   6.742  13.488
20546W        W84479  22.670  40.833   0.372
20547W        W84480  40.539  17.597  12.850
20548W        W84481  15.308  36.486   3.742
20549W        W84482  33.053  31.974   4.239
20550W        W84483  39.052  12.755   2.402
20551W        W84484  18.624  18.093  12.053
20552W        W84485  12.141  33.449   0.866
20553W        W84486  37.487  44.270   1.793
20554W        W84487   4.379  44.756  11.591
20555W        W84488  15.649  20.595   3.278
20556W        W84489  37.973   1.819   3.817
20557W        W84490  35.078  21.171   4.670
20558W        W84491  15.275  39.549   2.271
20559W        W84492  27.015  36.347  13.407
20560W        W84493  19.181   7.909   4.297
20561W        W84494  33.615  16.675   1.331
20562W        W84495   6.202  19.231  14.990
20563W        W84496  24.724  39.344   3.740
20564W        W84497  18.235  34.403   0.899
20565W        W84498  27.164  12.777  10.976
20566W        W84499  36.077  11.153   1.282
20567W        W84500  20.135   5.197  10.408
20568W        W84501  12.208   7.719   3.705
20569W        W84502  20.269  27.154   3.816
20570W        W84503   6.391  36.904  11.942
20571W        W84504  25.052   4.865  11.072
20572W        W84505  13.668   9.669   2.754
20573W        W84506  43.350  10.165   4.727
20574W        W84507  32.533  42.959  13.417
20575W        W84508   2.914   8.839  14.412
20576W        W84509  13.209  37.970   3.823
20577W        W84510  27.680  17.108  11.564
20578W        W84511  19.087  16.104   1.795
20579W        W84512  31.917   6.341  14.876
20580W        W84513   8.677  33.901  14.928
20581W        W84514  28.661  39.970   2.340
20582W        W84515  13.217   5.217  10.524
20583W        W84516  12.739  11.306   0.917
20584W        W84517  40.334  41.816   2.393
20585W        W84518  20.124  19.584  13.994
20586W        W84519  42.825  25.481  12.878
20587W        W84520  38.858  10.315   1.694
20588W        W84521  37.394   4.805  13.984
20589W        W84522  32.590  30.042  11.032
20590W        W84523   5.231  16.133   2.302
20591W        W84524  42.915  30.473   3.304
20592W        W84525  23.203  15.821  12.542
20593W        W84526  25.669  42.462  12.067
20594W        W84527  31.087  16.242   1.289
20595W        W84528  19.698  21.542  10.549
20596W        W84529  39.979  18.678   2.725
20597W        W84530   7.317  39.042   2.802
20598W        W84531  24.056  24.105   1.854
20599W        W84532   6.753   7.365   0.462
20600W        W84533  25.033  29.993  14.378
20601W        W84534   3.249  12.227   4.342
20602W        W84535  24.575  40.305  11.459
20603W        W84536  12.161  27.646  10.420
20604W        W84537  33.395  12.730  14.350
20605W        W84538   5.418  34.944   2.362
20606W        W84539  13.807  43.423   1.276
20607W        W84540  19.093  37.949   3.342
20608W        W84541   3.935   7.791  10.605
20609W        W84542  31.081  39.878   4.282
20610W        W84543  16.777  28.957  14.310
20611W        W84544   7.745  29.131  11.442
20612W        W84545  25.004  24.616  14.502
20613W        W84546  31.103  12.243   4.148
20614W        W84547   1.247  12.766  14.430
20615W        W84548  36.587  11.840   4.303
20616W        W84549  23.144  42.423   2.212
20617W        W84550   6.808  44.865  11.911
20618W        W84551   0.811  40.546   1.903
20619W        W84552  19.041  21.068  10.116
20620W        W84553  13.152  15.290   4.170
20621W        W84554   4.896  40.984  11.874
20622W        W84555  12.679  42.448  11.075
20623W        W84556  30.927  22.728   1.741
20624W        W84557   0.356  37.009  13.341
20625W        W84558   4.879   2.342   1.914
20626W        W84559   5.826  17.307  13.889
20627W        W84560  29.994  27.086   1.810
20628W        W84561  43.353   6.312   4.824
20629W        W84562  20.685  18.078   1.333
20630W        W84563  34.085  29.975  12.873
20631W        W84564   0.394  19.761   0.243
20632W        W84565  27.130  19.047  10.574
20633W        W84566  17.125  31.564   4.322
20634W        W84567   7.357  44.763  12.968
20635W        W84568  18.557   3.345  12.575
20636W        W84569  15.774  37.924  13.336
20637W        W84570  15.186  18.249  13.870
20638W        W84571  22.617  21.532  11.549
20639W        W84572  41.933  10.149   0.894
20640W        W84573  25.665  17.777  12.377
20641W        W84574  33.023  12.743   0.339
20642W        W84575  30.430  17.183   4.642
20643W        W84576  19.771  35.376  13.001
20644W        W84577  11.162   3.461  10.505
20645W        W84578  22.230  42.013  10.483
20646W        W84579   1.389  37.023  10.452
20647W        W84580  20.200  34.520   1.743
20648W        W84581   2.860   0.366   2.796
20649W        W84582  39.356  32.072   0.956
20650W        W84583  37.549   3.435  13.911
20651W        W84584  15.233  21.526   3.822
20652W        W84585  16.705   2.844  10.526
20653W        W84586  28.076  16.795  11.561
20654W        W84587  15.135  20.596   2.235
20655W        W84588  27.664  41.005  14.401
20656W        W84589  17.582  32.122  14.487
20657W        W84590  28.177  42.984   1.873
20658W        W84591  13.212  20.121  11.506
20659W        W84592  31.081  41.511   3.319
20660W        W84593  44.892   5.399   3.741
20661W        W84594  37.427  29.001  11.381
20662W        W84595   8.884   5.841   3.720
20663W        W84596   5.857  14.629  12.926
20664W        W84597  21.098  12.856  14.862
20665W        W84598   0.883  24.709  11.998
20666W        W84599  36.385  13.347  14.463
20667W        W84600  24.105  22.014   4.222
20668W        W84601  26.122   0.278  14.877
20669W        W84602  41.416  27.447   4.623
20670W        W84603  17.728  39.900  12.485
20671W        W84604  23.083  27.628  13.915
20672W        W84605  27.490  43.855  12.829
20673W        W84606  30.968  13.703   3.226
20674W        W84607  17.602  40.909   4.151
20675W        W84608  32.908  15.773   1.388
20676W        W84609  41.413  39.514  12.575
20677W        W84610  40.799  12.718  12.481
20678W        W84611  29.167   7.322  10.518
20679W        W84612  28.634   7.185   1.909
20680W        W84613  21.075  11.852   3.823
20681W        W84614  12.680  29.145  14.962
20682W        W84615  32.601  40.492   2.832
20683W        W84616   2.464  43.021   1.379
20684W        W84617  44.002  28.436   3.839
20685W        W84618   5.275  22.702   1.275
20686W        W84619  35.599  33.950  10.429
20687W        W84620   4.888  35.424  14.513
20688W        W84621  15.186   2.277  14.507
20689W        W84622  36.875  33.919   1.391
20690W        W84623   0.379   8.290   3.711
20691W        W84624   4.421   8.893  14.006
20692W        W84625   0.480  31.106  14.873
20693W        W84626  42.791   8.808  10.931
20694W        W84627  41.499  39.383   2.759
20695W        W84628  22.117  10.700  12.921
20696W        W84629   3.451  33.902   4.662
20697W        W84630  25.634  43.997   2.217
20698W        W84631  27.953  38.375   0.420
20699W        W84632  11.700  35.536   0.886
20700W        W84633  28.048  29.102  13.903
20701W        W84634   6.234  12.337  10.607
20702W        W84635  32.947  10.703   2.209
20703W        W84636  12.782  23.094  14.479
20704W        W84637  42.820  33.426  10.446
20705W        W84638   4.272  35.543  14.841
20706W        W84639  15.608  27.075   0.771
20707W        W84640  34.915   2.765  11.456
20708W        W84641  20.761   4.939  11.518
20709W        W84642   3.399   1.264   2.260
20710W        W84643  42.307  44.999  14.324
20711W        W84644  27.114  40.962   0.912
20712W        W84645  13.673  24.047  11.403
20713W        W84646  12.621  25.620  14.998
20714W        W84647   4.894   5.884   4.727
20715W        W84648  24.693  34.033   0.900
20716W        W84649  35.054   1.857   4.260
20717W        W84650  42.974  16.157  13.347
20718W        W84651  28.970  29.461   3.286
20719W        W84652  31.101   7.852   0.929
20720W        W84653  37.060  15.796   0.763
20721W        W84654   1.483  39.976  11.884
20722W        W84655  41.531  44.893   3.764
20723W        W84656  22.235   3.863  12.086
20724W        W84657   8.360   2.314   5.138
20725W        W84658  28.009  38.363   4.703
20726W        W84659   2.792   8.174  14.768
20727W        W84660  38.933  18.604   4.745
20728W        W84661  32.452  23.043  13.937
20729W        W84662   8.679  15.227   3.765
20730W        W84663  21.252   6.921   1.331
20731W        W84664  36.935  26.093   2.703
20732W        W84665   8.735  26.676  10.496
20733W        W84666  25.050  43.502   1.394
20734W        W84667  28.648  31.573   0.258
20735W        W84668  25.621  34.996   1.237
20736W        W84669  23.533  21.621  11.598
20737W        W84670  30.046  35.955  12.429
20738W        W84671  36.500   7.386   0.927
20739W        W84672  35.001  38.503  14.321
20740W        W84673  13.158  40.505  14.442
20741W        W84674  26.160  31.429  11.118
20742W        W84675  44.792  31.077  14.389
20743W        W84676   6.855  38.904   1.720
20744W        W84677   0.748  11.216  12.339
20745W        W84678  29.058  33.495   4.722
20746W        W84679  35.367  23.519  14.302
20747W        W84680   9.228  41.890  11.438
20748W        W84681  35.537  25.219   1.725
20749W        W84682  39.024  28.614   3.690
20750W        W84683   9.644  28.079  12.079
20751W        W84684  31.950  14.686  14.327
20752W        W84685  37.006  35.467  12.403
20753W        W84686  32.080  35.066   3.858
20754W        W84687  11.743  18.555   1.813
20755W        W84688  18.253   2.367   4.222
20756W        W84689  31.551  27.174  10.618
20757W        W84690  44.334  39.524   3.274
20758W        W84691   2.884  21.023  10.929
20759W        W84692  32.970  36.588  13.526
20760W        W84693   8.360  31.123   3.226
20761W        W84694   8.244  25.162   2.731
20762W        W84695  34.033  20.547  12.447
20763W        W84696  11.798   9.324   4.162
20764W        W84697  35.548  37.473   0.836
20765W        W84698  36.572  43.330   0.377
20766W        W84699   5.750  24.680  12.870
20767W        W84700  31.571  31.144   2.694
20768W        W84701  15.713  39.498   4.666
20769W        W84702  10.699  41.952   1.877
20770W        W84703  22.061  26.122  13.946
20771W        W84704  32.120   9.858   2.858
20772W        W84705  12.845   8.304  11.044
20773W        W84706  17.290   6.348   9.627
20774W        W84707  26.179  43.868   3.710
20775W        W84708  16.200  20.273   2.181
20776W        W84709  38.377  35.362  14.974
20777W        W84710  32.084  10.696  12.913
20778W        W84711  23.636  20.657   0.857
20779W        W84712  39.337   2.900  14.368
20780W        W84713  34.872  15.230  11.563
20781W        W84714   4.729  26.563  11.935
20782W        W84715  18.691  29.505  10.131
20783W        W84716  34.912   0.323  14.277
20784W        W84717  15.092   1.386   3.213
20785W        W84718  34.948   9.267  14.822
20786W        W84719  33.958  40.411   4.329
20787W        W84720  17.589  39.924   1.448
20788W        W84721  23.144  16.645  13.991
20789W        W84722  15.089  20.161  11.099
20790W        W84723   0.933  31.901   4.694
20791W        W84724  29.450  43.465   3.762
20792W        W84725  28.966   1.756  11.978
20793W        W84726  19.122   3.333  14.320
20794W        W84727  33.619  37.082   3.835
20795W        W84728  31.578  32.138   2.890
20796W        W84729  27.958  21.630  11.099
20797W        W84730  31.966  19.653   1.364
20798W        W84731  29.629  18.555  13.816
20799W        W84732  44.398   1.396   1.755
20800W        W84733  21.655  16.155  11.454
20801W        W84734  42.423  31.154   0.950
20802W        W84735   7.248  34.401  13.320
20803W        W84736   3.922  39.425  13.429
20804W        W84737   2.731  12.256  12.365
20805W        W84738  39.314  42.814   1.752
20806W        W84739  14.336  18.094  11.887
20807W        W84740  31.571  27.535   0.933
20808W        W84741  27.686  29.585  14.842
20809W        W84742  15.132  17.100   2.205
20810W        W84743  17.265  10.164   2.336
20811W        W84744  21.076   3.431  12.831
20812W        W84745  34.583  21.231   1.333
20813W        W84746  12.808  19.680  12.489
20814W        W84747  21.148  18.755  11.970
20815W        W84748  29.583   3.453  12.014
20816W        W84749  37.412   4.896  12.913
20817W        W84750   4.898  29.160  14.448
20818W        W84751  44.907  22.679  11.957
20819W        W84752  20.107  21.204   0.748
20820W        W84753  44.964  25.693   1.343
20821W        W84754  25.698   1.240  12.078
20822W        W84755  21.050  40.849   1.448
20823W        W84756  34.369  39.026  13.820
20824W        W84757  29.654   1.286  11.071
20825W        W84758  20.067  35.952   1.400
20826W        W84759  43.491  25.511   4.796
20827W        W84760   5.361  39.381   1.821
20828W        W84761  26.539  28.933  14.908
20829W        W84762  42.493  19.697  14.358
20830W        W84763  40.815  42.345   0.412
20831W        W84764  44.985   6.816  13.011
20832W        W84765  24.123   5.917  13.925
20833W        W84766  26.026   5.701  12.354
20834W        W84767  36.892  11.164  11.996
20835W        W84768   6.730  32.897   0.949
20836W        W84769  18.110   8.389   0.272
20837W        W84770  13.232  26.970   3.200
20838W        W84771  16.573  10.283  11.393
20839W        W84772  15.700  43.318   3.185
20840W        W84773  16.231  11.200   2.188
20841W        W84774  22.625   2.801   4.186
20842W        W84775  44.837  43.775   0.372
20843W        W84776  26.460  42.290   1.864
20844W        W84777  20.176  33.967  12.914
20845W        W84778  29.074  25.493  11.924
20846W        W84779  44.267  43.855  12.096
20847W        W84780  24.563  11.865   3.159
20848W        W84781  26.980  27.975   1.298
20849W        W84782   9.387  17.300  12.922
20850W        W84783  15.151  19.710   2.221
20851W        W84784   3.310  41.989   4.338
20852W        W84785  29.475   5.282  10.899
20853W        W84786  34.594  38.523  14.282
20854W        W84787   4.921  10.687   2.204
20855W        W84788  39.040  27.195   4.672
20856W        W84789  31.520  25.195  12.960
20857W        W84790  38.046  31.995  14.378
20858W        W84791  40.020  10.757   0.402
20859W        W84792   1.732  22.089  11.439
20860W        W84793  26.995  21.536   4.262
20861W        W84794   1.854   0.318  14.909
20862W        W84795  17.178  40.390  11.074
20863W        W84796  16.810   0.478   1.806
20864W        W84797   5.714  23.692  13.423
20865W        W84798  16.762  37.466   2.815
20866W        W84799  17.592  17.134   2.686
20867W        W84800   5.725  37.086   3.345
20868W        W84801   8.169  16.259  11.063
20869W        W84802  15.757  31.580  11.969
20870W        W84803   4.784  32.894   5.300
20871W        W84804  22.041  35.889   4.159
20872W        W84805   1.831  12.211   4.718
20873W        W84806   0.380  22.222   1.797
20874W        W84807  25.467  27.622  14.340
20875W        W84808  25.057  13.183   4.798
20876W        W84809  17.689  31.976  13.828
20877W        W84810  42.805  32.534  10.466
20878W        W84811  40.313   1.838   3.850
20879W        W84812  30.973  18.592  11.440
20880W        W84813  30.957  37.351  13.322
20881W        W84814   1.402  43.850  11.427
20882W        W84815  44.995  18.572  12.495
20883W        W84816  31.521  25.090   3.668
20884W        W84817  10.867   7.788   4.263
20885W        W84818  31.555  16.172   4.190
20886W        W84819  39.064  34.445   2.418
20887W        W84820  28.568  28.630  13.791
20888W        W84821  36.500  10.256   4.305
20889W        W84822  17.605   7.752   4.257
20890W        W84823   8.314  16.637  12.357
20891W        W84824  36.932  42.501  14.382
20892W        W84825  26.072   2.283  11.425
20893W        W84826   1.410  26.132   2.234
20894W        W84827  30.138  13.757   0.314
20895W        W84828  27.513  36.437   4.289
20896W        W84829  11.652  41.964  14.895
20897W        W84830   8.181  29.579  13.439
20898W        W84831  41.921  35.487   0.854
20899W        W84832  15.787  17.236   0.880
20900W        W84833  18.756  20.674  12.934
20901W        W84834  28.555  32.509  14.909
20902W        W84835  10.172  32.094   0.868
20903W        W84836  34.405  36.510  13.378
20904W        W84837  20.210  33.524   2.775
20905W        W84838  34.491  35.441   2.310
20906W        W84839  32.599  13.159  12.907
20907W        W84840  20.728  35.090   4.789
20908W        W84841  26.071  43.398   3.688
20909W        W84842  38.948  31.067   2.200
20910W        W84843  33.887  43.383  13.497
20911W        W84844   9.844  37.356   1.908
20912W        W84845   7.886  27.955   4.664
20913W        W84846  18.289  44.988  11.013
20914W        W84847  42.298   5.894   2.851
20915W        W84848  41.022  22.503  12.963
20916W        W84849  12.729  28.086   3.327
20917W        W84850  37.013  15.747  13.893
20918W        W84851  17.286   2.246  13.855
20919W        W84852  18.679  30.537   0.430
20920W        W84853  33.886  24.606  13.463
20921W        W84854   6.357  22.213   1.386
20922W        W84855  38.060   5.741   1.787
20923W        W84856  25.081  20.160   0.912
20924W        W84857   3.384  43.413  10.615
20925W        W84858   3.456  19.209   3.649
20926W        W84859  27.011  40.893   1.728
20927W        W84860  44.392  25.665  14.798
20928W        W84861  28.556   4.836   1.891
20929W        W84862  18.656   7.731  13.336
20930W        W84863  15.624   4.269  11.057
20931W        W84864   6.206  34.401   4.166
20932W        W84865  36.412  25.508  11.397
20933W        W84866   2.250  37.936  11.863
20934W        W84867  30.104  27.491   3.192
20935W        W84868   3.301  11.149   1.777
20936W        W84869  28.135  16.643   4.753
20937W        W84870   8.392  41.531   4.780
20938W        W84871  11.741   0.405  14.005
20939W        W84872   4.210  21.616  13.817
20940W        W84873  43.775  27.991   4.604
20941W        W84874  15.243  15.211   4.259
20942W        W84875   8.185  41.329  14.986
20943W        W84876  17.277  36.044  13.407
20944W        W84877  19.720   3.865   3.322
20945W        W84878  15.789  30.517   3.729
20946W        W84879  22.612   3.283   4.697
20947W        W84880   6.275  11.324  13.853
20948W        W84881  34.450   9.161   0.416
20949W        W84882  33.566  23.204  12.054
20950W        W84883   8.346  28.147  14.883
20951W        W84884  44.991  41.805  11.045
20952W        W84885  25.174  33.954   3.682
20953W        W84886  17.157  37.405   1.311
20954W        W84887  41.306   4.939   3.239
20955W        W84888  17.201   6.843  11.384
20956W        W84889  44.808  27.946   4.260
20957W        W84890  44.987  28.626   2.217
20958W        W84891   8.287  20.068   2.795
20959W        W84892   4.897  38.969  12.067
20960W        W84893   3.784   8.275  11.562
20961W        W84894  26.964  22.706   2.189
20962W        W84895  41.976  12.821  14.844
20963W        W84896  15.777  31.415  13.986
20964W        W84897  16.604  15.329  10.467
20965W        W84898  38.020  28.976   1.793
20966W        W84899  12.120   7.770   1.708
20967W        W84900  17.269  42.824  13.062
20968W        W84901  35.989  43.983   4.300
20969W        W84902  23.606  42.289  11.958
20970W        W84903   9.833  21.057   1.383
20971W        W84904  39.954  29.564  13.918
20972W        W84905   1.738  17.743   0.299
20973W        W84906  42.007  30.027   0.349
20974W        W84907   0.896   3.295   1.257
20975W        W84908  29.635  40.011   0.769
20976W        W84909   7.749  26.689   3.209
20977W        W84910   5.343  18.111   4.644
20978W        W84911  13.116  19.262   1.824
20979W        W84912  31.971  14.227   4.298
20980W        W84913  26.691  18.711   2.794
20981W        W84914  33.999  32.061  10.972
20982W        W84915   4.745  31.922  10.132
20983W        W84916  20.186  44.854   2.756
20984W        W84917  39.877  43.453  11.001
20985W        W84918   2.946  32.447  14.942
20986W        W84919  25.136  20.120  10.960
20987W        W84920  11.800  23.516   1.264
20988W        W84921  27.655  26.178  10.480
20989W        W84922  15.627  14.624   3.211
20990W        W84923  37.469  12.763   4.244
20991W        W84924   4.882  37.999  12.481
20992W        W84925  18.114   8.390   2.902
20993W        W84926  10.284  29.567   2.218
20994W        W84927   5.241  14.801  12.890
20995W        W84928   0.778  33.875   4.232
20996W        W84929   3.771   0.282  12.088
20997W        W84930  19.716  18.638   4.296
20998W        W84931  34.412  26.008  12.395
20999W        W84932  13.820  39.556   0.453
21000W        W84933  36.936   5.363  12.925
21001W        W84934  27.647   2.295  10.104
21002W        W84935  12.833  41.477   3.159
21003W        W84936  20.715  14.293   3.177
21004W        W84937  43.398   5.279   3.161
21005W        W84938   9.776  37.085  14.797
21006W        W84939  30.986  20.612  10.941
21007W        W84940  40.402  31.615   3.342
21008W        W84941  23.685   9.862  12.825
21009W        W84942   0.901  17.677  13.413
21010W        W84943  39.049   3.394  13.931
21011W        W84944  13.746   4.866   3.659
21012W        W84945  44.880  30.639  10.418
21013W        W84946  23.565  22.187   4.756
21014W        W84947  10.301  14.752  11.449
21015W        W84948   9.729  37.423  12.502
21016W        W84949  15.096  37.951   3.665
21017W        W84950  27.007  20.246  11.483
21018W        W84951  15.588   0.805  13.320
21019W        W84952   5.782  25.701  14.905
21020W        W84953   5.842  33.099  11.591
21021W        W84954  20.220   9.317   0.872
21022W        W84955  28.503  23.527  12.000
21023W        W84956   5.794  12.291   1.351
21024W        W84957   9.779  42.921   3.683
21025W        W84958   1.889  33.001  11.598
21026W        W84959   0.260  36.908   4.334
21027W        W84960  25.602   1.863  11.883
21028W        W84961  37.472  34.910  12.841
21029W        W84962  36.506  38.398   3.372
21030W        W84963  15.582  24.707  13.967
21031W        W84964  24.134  31.015   0.837
21032W        W84965  24.655  11.229   2.354
21033W        W84966   6.868  24.117  12.428
21034W        W84967  36.989   3.874   0.478
21035W        W84968  38.501  23.143   1.322
21036W        W84969  11.259   5.427   2.831
21037W        W84970  44.863  22.552  13.880
21038W        W84971  32.032   5.416   1.836
21039W        W84972  17.664  36.090   3.681
21040W        W84973  18.098  19.048  12.371
21041W        W84974  33.423  23.240   3.816
21042W        W84975  44.989   0.955  11.396
21043W        W84976  18.134  44.995  14.029
21044W        W84977  16.742   0.853  12.867
21045W        W84978  11.139   0.265   3.250
21046W        W84979  40.042   7.316   2.317
21047W        W84980   7.292  38.880  10.913
21048W        W84981   9.283   8.192   1.296
21049W        W84982  41.833  27.039   1.311
21050W        W84983  11.265  43.833   3.661
21051W        W84984   5.830  30.135   3.245
21052W        W84985  38.483   6.679   3.172
21053W        W84986  31.916  14.096  10.928
21054W        W84987  12.708  22.503  13.999
21055W        W84988  23.154  33.114   4.758
21056W        W84989  24.148  13.270   1.423
21057W        W84990  40.007   5.250  13.915
21058W        W84991  35.052   2.837  14.890
21059W        W84992  26.660   3.716  12.965
21060W        W84993   6.880  33.925  11.120
21061W        W84994  17.647  11.697   1.829
21062W        W84995  30.561   2.744   1.376
21063W        W84996  36.056  35.408   4.292
21064W        W84997  36.586  36.584   2.187
21065W        W84998  26.567  29.631   3.805
21066W        W84999  21.039  26.006   0.250
21067W        W85000  13.342  28.954  13.898
21068W        W85001  15.702  44.830   2.186
21069W        W85002   3.361   5.333   4.338
21070W        W85003  23.615  43.496   2.723
21071W        W85004  44.501   0.481  13.364
21072W        W85005  18.723   5.434   0.308
21073W        W85006  21.615   9.219  13.007
21074W        W85007   8.739   6.329   1.897
21075W        W85008  42.804  30.561   0.957
21076W        W85009  44.781  41.439  11.104
21077W        W85010  10.286  24.691  14.014
21078W        W85011  43.975  28.102  12.829
21079W        W85012  26.525  14.198  11.389
21080W        W85013  10.836   1.754  11.040
21081W        W85014  24.661  20.066   3.324
21082W        W85015   7.896  22.521  10.953
21083W        W85016  23.553  37.480  13.953
21084W        W85017  37.454   6.201   2.857
21085W        W85018  41.472  33.071   4.305
21086W        W85019   3.313  20.069  14.019
21087W        W85020  31.053  37.067  12.906
21088W        W85021   3.287   4.840  13.323
21089W        W85022  36.487  40.494  12.079
21090W        W85023  13.293  21.032   4.644
21091W        W85024  28.521  14.749   2.275
21092W        W85025  40.847   9.726   2.703
21093W        W85026  44.426  44.430   5.168
21094W        W85027  44.340  38.549   3.154
21095W        W85028  35.013   4.221  12.890
21096W        W85029  21.675  40.433   3.789
21097W        W85030   7.769  23.203   4.837
21098W        W85031  42.345  19.579   4.599
21099W        W85032   4.340  19.269   2.258
21100W        W85033   4.436   8.349  12.507
21101W        W85034  41.925  16.594  11.503
21102W        W85035  34.866  22.585   4.262
21103W        W85036  43.964  12.226  12.361
21104W        W85037  27.167  20.534  13.849
21105W        W85038  18.076  16.282  13.883
21106W        W85039  24.199  29.653  13.878
21107W        W85040  41.424  36.409   1.333
21108W        W85041   5.729  36.092  11.593
21109W        W85042  15.688  32.986  12.077
21110W        W85043  32.893  35.994   3.800
21111W        W85044  18.152   6.209   3.824
21112W        W85045  14.287  24.490  11.990
21113W        W85046  39.822  10.768   3.290
21114W        W85047  39.065   2.238   2.307
21115W        W85048   2.919  43.895  12.536
21116W        W85049  10.771   6.821   3.312
21117W        W85050   6.209  32.949   0.910
21118W        W85051   7.757   6.393  11.904
21119W        W85052  20.590  36.893  10.494
21120W        W85053  21.719  16.679   4.297
21121W        W85054  34.531  41.846   4.283
21122W        W85055  30.581  36.431  10.476
21123W        W85056   8.678  19.660  13.385
21124W        W85057  28.038   5.432   0.398
21125W        W85058  37.443   8.869  14.279
21126W        W85059   7.364  43.797  14.386
21127W        W85060  38.337  21.208  12.341
21128W        W85061  16.667  44.436   0.380
21129W        W85062  16.282  27.987   2.894
21130W        W85063   0.459  19.587  14.788
21131W        W85064  14.219   5.201  13.465
21132W        W85065   8.350   6.864   0.876
21133W        W85066  28.643   9.281  11.089
21134W        W85067  41.985  27.032   0.775
21135W        W85068   2.942  10.378  10.631
21136W        W85069  40.494   4.821  13.823
21137W        W85070  15.631   7.357   1.429
21138W        W85071   1.918  15.142  13.959
21139W        W85072  10.785  10.807  14.485
21140W        W85073  44.345  19.687   1.349
21141W        W85074   7.359  38.885  14.978
21142W        W85075  17.671  11.655  13.926
21143W        W85076  38.852  39.981  11.512
21144W        W85077  20.037  20.765   3.210
21145W        W85078  41.884  19.064   2.251
21146W        W85079  14.708  10.241  14.920
21147W        W85080  43.954  21.152   0.460
21148W        W85081  43.849   7.686  13.887
21149W        W85082  11.243  36.381  11.589
21150W        W85083  11.197  42.381   3.372
21151W        W85084  28.016  42.509   4.240
21152W        W85085  24.484   5.249  14.915
21153W        W85086  27.000   8.826   2.232
21154W        W85087  37.837   2.434   1.273
21155W        W85088  18.070  17.629   5.182
21156W        W85089   3.865   7.287   2.286
21157W        W85090  22.596  23.095   1.305
21158W        W85091  21.742  17.594  12.968
21159W        W85092  20.696  11.249  14.459
21160W        W85093  32.070  20.553  13.530
21161W        W85094  29.076  33.128  12.018
21162W        W85095  30.965  30.597   1.778
21163W        W85096  24.597   3.232  14.889
21164W        W85097   4.937  33.130  10.890
21165W        W85098  10.705   2.431  10.443
21166W        W85099  41.995  16.306  14.927
21167W        W85100   2.450  19.673   5.164
21168W        W85101  25.476   4.301   4.245
21169W        W85102   3.923   4.315  14.340
21170W        W85103  35.510  33.099  13.530
21171W        W85104   4.423  33.985   2.898
21172W        W85105  10.876  34.105   4.603
21173W        W85106  19.776  39.887   0.419
21174W        W85107   3.775  22.539   1.728
21175W        W85108  24.994   5.193  10.570
21176W        W85109  17.144  36.468   2.710
21177W        W85110  39.421  34.565   2.212
21178W        W85111  39.371  14.274   3.837
21179W        W85112   5.797  33.605   3.380
21180W        W85113  15.592  17.183   5.286
21181W        W85114  18.643  38.839  11.394
21182W        W85115  19.545  14.690   1.867
21183W        W85116  13.799  44.356  10.919
21184W        W85117  30.004  37.032  14.319
21185W        W85118  32.136  13.206  11.552
21186W        W85119  44.269  19.193  13.432
21187W        W85120  14.167   4.818  10.093
21188W        W85121  37.562  31.506   0.950
21189W        W85122  28.168  27.534  13.916
21190W        W85123  17.605  23.527  11.465
21191W        W85124   9.646   6.777   2.220
21192W        W85125  13.829  40.504   3.656
21193W        W85126  28.530  14.684   3.207
21194W        W85127  11.704  40.869   1.316
21195W        W85128  22.196  39.826   4.259
21196W        W85129  20.202  23.147  10.543
21197W        W85130  18.753  26.045   0.906
21198W        W85131  31.453  44.367  14.940
21199W        W85132  38.966  29.006  12.835
21200W        W85133  28.096   6.919   1.833
21201W        W85134  39.864   5.335  14.361
21202W        W85135  18.119  29.053  10.466
21203W        W85136   5.776  33.461   1.362
21204W        W85137   6.682   0.406  14.456
21205W        W85138  41.014   5.237  11.373
21206W        W85139   9.174  18.786  12.846
21207W        W85140   5.732  20.259  12.574
21208W        W85141  17.121   4.218   4.207
21209W        W85142  42.901  34.594  12.370
21210W        W85143  38.055  23.985   0.258
21211W        W85144  43.441   2.370   4.754
21212W        W85145  16.779  14.708   1.255
21213W        W85146   9.676  42.977  12.875
21214W        W85147  44.294  44.889  11.916
21215W        W85148  35.474   5.753  11.106
21216W        W85149  13.737  30.109   2.875
21217W        W85150   5.241  13.769  13.542
21218W        W85151  43.459  24.143   1.260
21219W        W85152  26.144  31.930  14.464
21220W        W85153   5.378  19.628  12.887
21221W        W85154   1.821  28.641   2.186
21222W        W85155  13.218  25.015  14.758
21223W        W85156  17.756  11.310  13.831
21224W        W85157  29.640   3.949   3.803
21225W        W85158  25.509  22.052   0.417
21226W        W85159  25.672  34.086  14.784
21227W        W85160  31.962  25.654   3.665
21228W        W85161  24.995   6.743  11.574
21229W        W85162  29.941  33.925   1.398
21230W        W85163  14.695  16.127  14.413
21231W        W85164   4.783  26.174  13.916
21232W        W85165  38.559  15.646   3.653
21233W        W85166   4.723  39.824  10.598
21234W        W85167   1.239  33.577  13.443
21235W        W85168   8.199  36.503   4.342
21236W        W85169  24.216  17.757   3.258
21237W        W85170   9.668  19.237  13.878
21238W        W85171  22.703  28.598  10.607
21239W        W85172  18.189  34.548  10.642
21240W        W85173   3.795  11.280   5.577
21241W        W85174  37.488   0.872   2.676
21242W        W85175  10.756   6.690   2.192
21243W        W85176  15.287   8.377   0.807
21244W        W85177  24.022  17.575   1.339
21245W        W85178  25.160  35.047   1.366
21246W        W85179  42.830   8.355  12.861
21247W        W85180  41.298  43.005  13.998
21248W        W85181  17.306  20.192  13.316
21249W        W85182  35.868   1.811  11.383
21250W        W85183   7.847  19.100  11.564
21251W        W85184   2.445  21.169   0.384
21252W        W85185  36.014  12.296  11.022
21253W        W85186  13.107   9.332  11.382
21254W        W85187  15.702   9.669  12.481
21255W        W85188  14.167  40.910   4.292
21256W        W85189  16.082   1.863   0.392
21257W        W85190  13.268  44.294  13.325
21258W        W85191  40.903  34.872   2.381
21259W        W85192   8.271  14.097   3.275
21260W        W85193  24.129  40.304   0.936
21261W        W85194  29.651   2.931   3.206
21262W        W85195  26.142  24.028   2.787
21263W        W85196  22.722  12.167  11.547
21264W        W85197  29.577  38.463  10.913
21265W        W85198  36.363  41.534   5.122
21266W        W85199   6.265   3.710   2.798
21267W        W85200  20.612  32.968   0.798
21268W        W85201   5.766  41.892   4.350
21269W        W85202   3.368  26.512  13.994
21270W        W85203  27.593  22.108   0.382
21271W        W85204  30.979  36.388   2.778
21272W        W85205   6.391  38.935   4.118
21273W        W85206  44.975  39.821  14.860
21274W        W85207  17.602  32.536   0.382
21275W        W85208  43.377  29.607   2.264
21276W        W85209  26.619   5.397   4.161
21277W        W85210  38.568  16.567  12.543
21278W        W85211  10.728  24.112  12.534
21279W        W85212   3.893  17.169   0.759
21280W        W85213  41.890  28.148  11.477
21281W        W85214  14.787  44.950   1.339
21282W        W85215   9.806  17.587   0.448
21283W        W85216  30.551  23.212  10.629
21284W        W85217  28.139  12.843   4.172
21285W        W85218  22.161  29.469   1.252
21286W        W85219  43.940  35.406   1.758
21287W        W85220  15.268  37.960  12.052
21288W        W85221  27.549   0.782  14.015
21289W        W85222   1.913  26.063  13.419
21290W        W85223  20.237  39.401  11.052
21291W        W85224   7.808  44.904   2.782
21292W        W85225  15.137  26.953   0.336
21293W        W85226  17.169  41.015   2.256
21294W        W85227  10.380  35.398  14.990
21295W        W85228  15.226  37.503   5.180
21296W        W85229  39.343   1.863  12.460
21297W        W85230   6.733  41.786   3.742
21298W        W85231   9.712  37.076   2.281
21299W        W85232  14.809  35.449   3.745
21300W        W85233  37.870  20.753  13.360
21301W        W85234  20.080   6.860  13.017
21302W        W85235  17.234  13.140   3.210
21303W        W85236  12.831  44.796  13.901
21304W        W85237   8.173  23.599   5.164
21305W        W85238  11.846  33.515   0.414
21306W        W85239  26.012  41.482   0.312
21307W        W85240  26.083  25.203   5.241
21308W        W85241  14.105  40.454  12.390
21309W        W85242  13.195  10.369   3.356
21310W        W85243   9.329  12.171  11.415
21311W        W85244  23.117  22.731  13.890
21312W        W85245  13.759   6.295   4.313
21313W        W85246  34.084  11.825  14.999
21314W        W85247  34.550  30.163  10.540
21315W        W85248  41.400  39.066   3.851
21316W        W85249   4.789  39.064  11.542
21317W        W85250   4.370  42.847   1.745
21318W        W85251  24.681   6.422  14.997
21319W        W85252  43.886   0.833   2.302
21320W        W85253  18.051  29.637   0.800
21321W        W85254  37.376  26.098  13.323
21322W        W85255  35.109  17.169   5.150
21323W        W85256  39.985  28.943   3.730
21324W        W85257  42.844  13.663   4.308
21325W        W85258   7.848  15.713   2.700
21326W        W85259  10.294  30.136   0.363
21327W        W85260  15.690  23.588   2.688
21328W        W85261   9.806   5.202   1.393
21329W        W85262  26.072  21.120   4.286
21330W        W85263   4.876   9.814  12.445
21331W        W85264  30.467  44.007   2.681
21332W        W85265  40.480  34.490   4.237
21333W        W85266  31.485  12.668   1.919
21334W        W85267  31.481  29.070   2.248
21335W        W85268  42.335  44.268  11.885
21336W        W85269   5.433   1.470   3.776
21337W        W85270   5.243  22.530  11.580
21338W        W85271   8.763  11.144  10.468
21339W        W85272   1.937  26.994   3.654
21340W        W85273  27.451  37.579   0.260
21341W        W85274  14.185  21.250  12.491
21342W        W85275  15.654  35.974   4.700
21343W        W85276  27.038   2.761   1.697
21344W        W85277  26.995   0.333   2.763
21345W        W85278  44.774  36.577  11.947
21346W        W85279   1.304   2.274  10.896
21347W        W85280  23.991   0.414   1.730
21348W        W85281  27.944  17.758  13.995
21349W        W85282  34.118  27.008  10.552
21350W        W85283  19.642   7.241  14.875
21351W        W85284  36.918  18.781  12.471
21352W        W85285  36.873  44.788  12.912
21353W        W85286  42.833  20.597   4.299
21354W        W85287  20.597   7.214   2.781
21355W        W85288  22.175  15.632   2.783
21356W        W85289  40.504   8.731   0.745
21357W        W85290  39.916  32.437   4.706
21358W        W85291  19.110  20.634  14.912
21359W        W85292  12.235   9.333   4.146
21360W        W85293   3.416   4.792  14.502
21361W        W85294  12.708  36.440   1.904
21362W        W85295  12.717   3.334  14.311
21363W        W85296   2.963   8.885  11.553
21364W        W85297  40.500  18.186   3.156
21365W        W85298  41.308  36.591  13.397
21366W        W85299  27.197  18.163   4.693
21367W        W85300  16.761  37.442  11.077
21368W        W85301   9.770  15.814  12.909
21369W        W85302  16.794  33.020  13.859
21370W        W85303  39.894  20.142   1.785
21371W        W85304  34.584  40.479   4.344
21372W        W85305  29.549   7.186  11.542
21373W        W85306   1.942  14.631  13.023
21374W        W85307  11.738  38.516   3.148
21375W        W85308   7.770   6.894   5.149
21376W        W85309  26.552  12.148   3.693
21377W        W85310  10.369  23.208  11.607
21378W        W85311  27.517  16.619   2.699
21379W        W85312  38.869  34.943  10.588
21380W        W85313  12.351  18.571   3.289
21381W        W85314  19.040   6.295   2.883
21382W        W85315  40.489  24.987   5.160
21383W        W85316  18.253  22.080  12.444
21384W        W85317  36.575  35.058   0.412
21385W        W85318   0.317  39.897   1.760
21386W        W85319  16.192  18.079   2.311
21387W        W85320  42.911  21.686  14.511
21388W        W85321  20.558  36.502  11.915
21389W        W85322  34.382  14.630   1.317
21390W        W85323  35.465  31.087  14.784
21391W        W85324  20.167  11.312   4.115
21392W        W85325  18.281  41.955  10.501
21393W        W85326  15.733  18.192   5.201
21394W        W85327  18.759  44.499   4.719
21395W        W85328  28.116  22.200   0.390
21396W        W85329  34.374  22.647   3.276
21397W        W85330  13.838  19.142   3.866
21398W        W85331  43.497   0.834  12.529
21399W        W85332   2.956  28.119  11.531
21400W        W85333  26.970   3.846  11.920
21401W        W85334  23.992  35.493   3.699
21402W        W85335  14.129  32.128  13.496
21403W        W85336  27.533  22.592  12.539
21404W        W85337  23.722  11.314  11.601
21405W        W85338   2.895  17.164   2.892
21406W        W85339  38.475  15.610   0.475
21407W        W85340   4.718  10.148  11.922
21408W        W85341  28.974   6.245  11.019
21409W        W85342  13.320  21.519   0.328
21410W        W85343  42.018   6.349   1.782
21411W        W85344  43.436  10.276  13.064
21412W        W85345  33.082  36.865   2.197
21413W        W85346   7.268  14.168  13.796
21414W        W85347   7.315  30.528   1.775
21415W        W85348  15.581  25.134  14.991
21416W        W85349  18.641  21.720   3.681
21417W        W85350  25.707  13.671  12.404
21418W        W85351  15.134  30.102   2.720
21419W        W85352  42.779   9.658   0.268
21420W        W85353  10.776   2.768  11.063
21421W        W85354   2.419  10.291  12.496
21422W        W85355   5.335  35.049   0.390
21423W        W85356  40.392   2.838  11.502
21424W        W85357  11.331  43.855   2.813
21425W        W85358  32.471  31.074   4.174
21426W        W85359   6.867  20.234  11.463
21427W        W85360  32.133  38.566   0.816
21428W        W85361  18.083  18.113   2.327
21429W        W85362  34.906   4.944   0.428
21430W        W85363  42.946  11.697   2.178
21431W        W85364  27.467   8.721  10.597
21432W        W85365  22.114  32.068   3.691
21433W        W85366  38.569  39.549   1.848
21434W        W85367  44.400  31.036  13.397
21435W        W85368  27.518  25.175   1.833
21436W        W85369   6.901   9.241   0.903
21437W        W85370   4.321   3.795   9.478
21438W        W85371  19.209  26.154   2.844
21439W        W85372  13.174  22.539  13.309
21440W        W85373   4.703  18.184   4.238
21441W        W85374  26.043  33.031   2.308
21442W        W85375  10.815  39.006  11.030
21443W        W85376   5.717  38.429   3.236
21444W        W85377  33.961  40.498   0.349
21445W        W85378  25.134  32.959  13.064
21446W        W85379  24.614   2.769  14.759
21447W        W85380  32.119  20.550   1.915
21448W        W85381   0.933  31.641  13.925
21449W        W85382  29.430   7.824  14.410
21450W        W85383  12.733  22.742  14.919
21451W        W85384  12.638   5.344   2.836
21452W        W85385  21.249  18.740   0.316
21453W        W85386  36.891   8.260   0.895
21454W        W85387  22.651  37.078   4.115
21455W        W85388   6.398  44.869   4.642
21456W        W85389   2.234  12.141  12.878
21457W        W85390  40.879   3.456   2.276
21458W        W85391   9.321  22.647  14.026
21459W        W85392   5.860  35.900   3.640
21460W        W85393   8.192  43.337   2.760
21461W        W85394  21.048  30.549   9.959
21462W        W85395  35.102  18.668  11.540
21463W        W85396  23.602   5.211   2.846
21464W        W85397   4.230  43.795  10.410
21465W        W85398  36.986   2.928  11.584
21466W        W85399   0.919   2.431   4.704
21467W        W85400  33.567  37.464   4.220
21468W        W85401  33.994  38.992   0.735
21469W        W85402  11.166  38.359  13.990
21470W        W85403   9.352  44.275  13.010
21471W        W85404  26.187  36.440  12.981
21472W        W85405  41.488  17.151  13.355
21473W        W85406  35.962  25.970  11.867
21474W        W85407  28.679  38.326   0.424
21475W        W85408   2.896  26.655  14.874
21476W        W85409  16.595  39.478  13.419
21477W        W85410  17.186  19.100   3.297
21478W        W85411  28.040   2.802  13.935
21479W        W85412  10.772  37.021  11.388
21480W        W85413  22.664  17.585  11.508
21481W        W85414   7.772  28.618   1.821
21482W        W85415  44.374  10.354   0.462
21483W        W85416  24.187   6.806  13.865
21484W        W85417  19.605  21.710  10.949
21485W        W85418  34.414  44.805   2.393
21486W        W85419  17.182  17.692   0.815
21487W        W85420  41.992  17.576  11.018
21488W        W85421  27.023  11.677   4.185
21489W        W85422  25.963  32.425  12.075
21490W        W85423  39.000  44.864  10.035
21491W        W85424   9.160  22.651   1.424
21492W        W85425  12.773  11.638  13.358
21493W        W85426  34.598  20.598   3.732
21494W        W85427  16.073  15.618  12.908
21495W        W85428  12.615  33.925  13.879
21496W        W85429  19.208  17.799  14.330
21497W        W85430  34.574  27.064  11.542
21498W        W85431  26.953   4.237  12.393
21499W        W85432   9.170  17.184  11.004
21500W        W85433  16.225   6.229   2.736
21501W        W85434  26.544  13.678   2.375
21502W        W85435  20.030  32.067   2.416
21503W        W85436   4.257  26.515   3.814
21504W        W85437   1.932  20.071  14.847
21505W        W85438   9.852  28.060  11.594
21506W        W85439  22.602  23.169  13.492
21507W        W85440  42.946   3.273   2.218
21508W        W85441   4.800  24.588   2.388
21509W        W85442  32.598  38.501  14.446
21510W        W85443   0.282  40.309   0.924
21511W        W85444  29.608   7.176  10.904
21512W        W85445  32.454  20.568  12.361
21513W        W85446  38.392   1.939   2.695
21514W        W85447  10.723  25.157  10.995
21515W        W85448   1.869  27.978  13.895
21516W        W85449  14.305  10.807  13.932
21517W        W85450  18.281   5.849   3.746
21518W        W85451  21.023  38.365  14.372
21519W        W85452  28.460   4.730  11.060
21520W        W85453  23.058  12.222  11.001
21521W        W85454  22.065  34.411  13.326
21522W        W85455   0.807  27.524   1.794
21523W        W85456   5.804  30.571   0.338
21524W        W85457  42.454  12.156  13.983
21525W        W85458  14.757  28.507   1.438
21526W        W85459  40.347  38.556  14.480
21527W        W85460   7.836   8.723  14.281
21528W        W85461  26.124  38.896  13.468
21529W        W85462  16.263  38.367   1.834
21530W        W85463  14.292  29.058  10.947
21531W        W85464  15.296  40.849   0.329
21532W        W85465  39.007  18.614   5.124
21533W        W85466   5.264  31.421   2.396
21534W        W85467  19.196  42.304  12.025
21535W        W85468  32.615  36.853   4.659
21536W        W85469  21.248  13.809   3.783
21537W        W85470  44.360  20.259   3.688
21538W        W85471   0.984  31.981   0.728
21539W        W85472  38.472  29.440   1.316
21540W        W85473  28.551  28.947   0.749
21541W        W85474  37.576  37.959  13.833
21542W        W85475   7.173   3.908   1.755
21543W        W85476   1.363  24.557  11.448
21544W        W85477  13.244  20.601  14.951
21545W        W85478  23.204  42.869  13.915
21546W        W85479  36.947  37.345  13.308
21547W        W85480  15.269  15.742  13.829
21548W        W85481  36.857  36.367   2.750
21549W        W85482  39.906  12.668   1.702
21550W        W85483  18.546  10.168  12.949
21551W        W85484   8.160   9.154  11.519
21552W        W85485  44.857  25.491  14.463
21553W        W85486  42.467  12.196   2.725
21554W        W85487  26.588   2.351  13.472
21555W        W85488  21.624  29.086  11.609
21556W        W85489  35.951  16.764   2.255
21557W        W85490  27.509  37.046  10.622
21558W        W85491  39.824   9.764   1.402
21559W        W85492  11.809  17.125   2.891
21560W        W85493  19.770  25.177   1.344
21561W        W85494  22.739   7.846  13.849
21562W        W85495  42.382   5.229  14.819
21563W        W85496  35.070  39.983  12.003
21564W        W85497  15.194   5.823  14.429
21565W        W85498   9.684  36.023   2.855
21566W        W85499  43.817  25.510  12.995
21567W        W85500  13.216   8.853  13.322
21568W        W85501   7.256  19.259  10.494
21569W        W85502  37.884  44.261  12.839
21570W        W85503  25.012  28.156  14.945
21571W        W85504   1.454  37.396   1.342
21572W        W85505  10.705  19.626  11.532
21573W        W85506   8.181   9.723  10.566
21574W        W85507  32.066  26.611   1.883
21575W        W85508  37.560   2.410   4.163
21576W        W85509   1.749   2.343  13.822
21577W        W85510   9.719  33.082  13.792
21578W        W85511  44.264   2.352  10.491
21579W        W85512  28.595  24.722  12.418
21580W        W85513  30.040  11.796  11.876
21581W        W85514  40.451  42.776  14.956
21582W        W85515  19.210  22.142  10.582
21583W        W85516   0.818   0.322  11.990
21584W        W85517  15.127  18.637   0.899
21585W        W85518  32.582  17.800   0.308
21586W        W85519  37.078  32.893  14.506
21587W        W85520  36.017  34.971  13.806
21588W        W85521   2.455   4.441   2.235
21589W        W85522  11.154  42.872   4.328
21590W        W85523  19.584  41.984  14.010
21591W        W85524  42.344   1.931  11.475
21592W        W85525   6.299  40.929   3.869
21593W        W85526  29.066  31.442   0.923
21594W        W85527  30.569  12.262   2.383
21595W        W85528  41.446  13.212   3.236
21596W        W85529  11.769  10.350   3.712
21597W        W85530  16.147   6.280   1.364
21598W        W85531  27.952  43.794   1.215
21599W        W85532  19.650  35.527  13.867
21600W        W85533  44.418  24.645  11.026
21601W        W85534  22.540   0.318   2.394
21602W        W85535   8.661   4.213  14.292
21603W        W85536  24.097  28.438  10.466
21604W        W85537  25.686  33.031   1.839
21605W        W85538   0.362   9.773  14.900
21606W        W85539  42.409  37.365  13.353
21607W        W85540  23.016  28.543  14.992
21608W        W85541  18.243   1.292  13.528
21609W        W85542  12.785  22.681  10.924
21610W        W85543  41.025  14.615  10.410
21611W        W85544  27.585  27.690  10.895
21612W        W85545  21.077  39.431  11.587
21613W        W85546   1.469   6.689   4.159
21614W        W85547  26.593  27.520   3.358
21615W        W85548  19.171   2.928  11.433
21616W        W85549  30.931  29.553   2.732
21617W        W85550  22.109  40.409  11.451
21618W        W85551  43.931  29.123   4.746
21619W        W85552  18.761   4.241   1.277
21620W        W85553  15.246  32.946   2.800
21621W        W85554  31.942  27.591   4.332
21622W        W85555  29.002  40.953   1.769
21623W        W85556  27.953  26.504  13.005
21624W        W85557  32.927  37.363   2.861
21625W        W85558  21.069  41.356  10.950
21626W        W85559   8.357   0.418  11.600
21627W        W85560  13.727  29.018  14.332
21628W        W85561  13.132  28.472  11.914
21629W        W85562  23.199   4.872  12.045
21630W        W85563  25.549  29.558   3.794
21631W        W85564  29.593   0.800  14.017
21632W        W85565  24.067   0.253   2.901
21633W        W85566  40.407  28.550  13.958
21634W        W85567   0.473  35.037  12.450
21635W        W85568   2.422  10.214  10.101
21636W        W85569  19.607  44.376   3.272
21637W        W85570  29.446  27.596   4.165
21638W        W85571  43.859  27.127  14.862
21639W        W85572  26.484  25.671   1.755
21640W        W85573  12.348  18.293  10.903
21641W        W85574  44.411  38.348  13.048
21642W        W85575  24.669   4.345   2.182
21643W        W85576  15.116  27.528   1.407
21644W        W85577  30.091   1.750  12.573
21645W        W85578  23.573   8.177  14.974
21646W        W85579  19.630   2.954  13.434
21647W        W85580  40.521  27.011  12.522
21648W        W85581  16.081  25.190   3.868
21649W        W85582  39.470  22.574  13.802
21650W        W85583  23.657  14.713   2.368
21651W        W85584  23.151  32.458   2.198
21652W        W85585  11.165  20.529   0.295
21653W        W85586  34.429  19.595  13.046
21654W        W85587  40.877  29.042   4.756
21655W        W85588  12.804  26.189  11.922
21656W        W85589  13.318   0.278  12.526
21657W        W85590  24.572  26.041  14.357
21658W        W85591   9.168  20.190  10.539
21659W        W85592  31.066   6.901  14.392
21660W        W85593  28.673  35.897   4.166
21661W        W85594  36.008  15.673  12.976
21662W        W85595  26.023  16.785  10.560
21663W        W85596  19.653   5.929   2.340
21664W        W85597  42.800  31.562  11.523
21665W        W85598  11.266   6.265   2.703
21666W        W85599  40.948  28.030   2.383
21667W        W85600   3.800  28.127  13.992
21668W        W85601  13.752  28.142  13.807
21669W        W85602  44.848   4.278  11.980
21670W        W85603  41.370  24.183  11.398
21671W        W85604  27.142  29.969  10.940
21672W        W85605   0.888  41.021  13.908
21673W        W85606  26.162  16.239   1.312
21674W        W85607  29.590  34.066   1.931
21675W        W85608  32.597  42.360   4.664
21676W        W85609  36.921  14.156  11.960
21677W        W85610   2.298  22.196   1.259
21678W        W85611  26.098  18.252   3.690
21679W        W85612   5.277  40.966   4.142
21680W        W85613  24.564  40.932  13.940
21681W        W85614  18.553  29.639  11.451
21682W        W85615   4.795  15.238   2.311
21683W        W85616  23.241  19.060  13.825
21684W        W85617  36.573  23.140   3.730
21685W        W85618  36.876   8.677  12.860
21686W        W85619  15.612  10.638   1.429
21687W        W85620  22.734  40.330   1.890
21688W        W85621   6.873  16.638  14.467
21689W        W85622  31.003  33.937  10.614
21690W        W85623   3.818   9.233   0.761
21691W        W85624  14.174  14.333  13.316
21692W        W85625  19.131   9.163   2.817
21693W        W85626  12.343  19.094   0.328
21694W        W85627  39.503  35.108  12.391
21695W        W85628  36.900  41.814   2.822
21696W        W85629  40.468  36.493   2.870
21697W        W85630  33.381  18.089  10.579
21698W        W85631  25.684  36.856   0.897
21699W        W85632  26.557  44.346   1.430
21700W        W85633  14.128  16.106  14.009
21701W        W85634   4.866  14.677   1.793
21702W        W85635   4.389  40.935   2.779
21703W        W85636  19.679  15.201  10.048
21704W        W85637   7.834  24.219   0.893
21705W        W85638   3.716   8.262   4.337
21706W        W85639  17.109  29.516  12.424
21707W        W85640  37.079  38.402   0.909
21708W        W85641  25.600  41.394   2.790
21709W        W85642  26.638  38.348  14.883
21710W        W85643  27.161  27.678  10.572
21711W        W85644  24.523  24.605   3.354
21712W        W85645   4.376  35.588  12.458
21713W        W85646  44.478  10.681   4.704
21714W        W85647  26.545   7.852  13.441
21715W        W85648  30.587  36.503   3.362
21716W        W85649  24.496  26.652  12.071
21717W        W85650   4.251   1.449   3.283
21718W        W85651  37.948   5.926  10.893
21719W        W85652   0.946  39.040  13.535
21720W        W85653   3.820  24.000  14.328
21721W        W85654   4.228  30.094   3.682
21722W        W85655  43.320  20.239   4.620
21723W        W85656  25.006  30.139   2.851
21724W        W85657   6.291  18.729   1.841
21725W        W85658  37.507   4.860   5.146
21726W        W85659   9.241  43.785   4.644
21727W        W85660  23.590  10.635   3.695
21728W        W85661  18.249  38.463   3.865
21729W        W85662   2.407  27.515   1.256
21730W        W85663  19.716  14.662   3.225
21731W        W85664  26.049  34.091  10.968
21732W        W85665  34.990  14.174  13.307
21733W        W85666   7.407   8.692   3.352
21734W        W85667  17.607   2.414   4.158
21735W        W85668   4.791  44.762   2.680
21736W        W85669  15.715   5.405  12.920
21737W        W85670  24.580  12.787   5.100
21738W        W85671  10.849   8.662   0.298
21739W        W85672  12.191  39.872  11.899
21740W        W85673  16.229   4.890  10.608
21741W        W85674  33.495  15.278  14.344
21742W        W85675  39.869  32.080  12.351
21743W        W85676   7.894  28.481   0.365
21744W        W85677  16.253  38.881  13.062
21745W        W85678  32.966   2.464  11.568
21746W        W85679   6.905  11.228  10.414
21747W        W85680  43.326  12.195  14.467
21748W        W85681  13.753  25.558  14.773
21749W        W85682  34.576   3.759  14.029
21750W        W85683  26.563  29.020   3.766
21751W        W85684  44.855  37.387  13.849
21752W        W85685  14.714  10.231   2.771
21753W        W85686  21.050  35.874  11.541
21754W        W85687   4.736  17.779  13.509
21755W        W85688   7.373  27.485  12.063
21756W        W85689   9.232  20.691  12.433
21757W        W85690  10.379  44.378  12.859
21758W        W85691  17.263  40.973  10.948
21759W        W85692  33.041  25.985   3.846
21760W        W85693  30.626  35.077  13.840
21761W        W85694  23.144  35.048   4.168
21762W        W85695  14.294  28.084  11.912
21763W        W85696  28.998   3.763   3.294
21764W        W85697  35.491  34.050  11.027
21765W        W85698  16.811  30.996   3.831
21766W        W85699  44.970  17.738   0.846
21767W        W85700  21.646  20.752   2.807
21768W        W85701  34.066  29.163  10.485
21769W        W85702   7.848   0.956   0.822
21770W        W85703  40.952   6.921   1.268
21771W        W85704  31.060  27.191   4.177
21772W        W85705  19.568  41.973  10.988
21773W        W85706  28.081  42.014  14.373
21774W        W85707  24.985   6.768  12.871
21775W        W85708   4.400  32.539  14.801
21776W        W85709  12.757  14.201  12.478
21777W        W85710  42.404  21.579   4.751
21778W        W85711  23.149   8.357  11.887
21779W        W85712  27.607  36.493  12.864
21780W        W85713  42.019  22.655   1.773
21781W        W85714  19.218  26.532  14.859
21782W        W85715  15.138  38.457  13.449
21783W        W85716  29.076  24.219   4.121
21784W        W85717  10.280  24.215  11.073
21785W        W85718  16.585  27.477  13.943
21786W        W85719  18.162   9.681   0.959
21787W        W85720  31.898   2.909   1.412
21788W        W85721  42.006  33.503  11.599
21789W        W85722   4.758   6.890   0.867
21790W        W85723  22.056   2.865  11.533
21791W        W85724  41.501  27.538  12.867
21792W        W85725   0.762   0.383   2.274
21793W        W85726  43.832  35.382  13.523
21794W        W85727  37.574   7.807   0.807
21795W        W85728  25.176  27.182   0.359
21796W        W85729  44.452  27.050  14.856
21797W        W85730  10.244   9.674  10.932
21798W        W85731   2.413  42.467  10.905
21799W        W85732  36.971  36.043   0.320
21800W        W85733   8.239  30.615  13.893
21801W        W85734  34.538   4.776  10.938
21802W        W85735  17.674  11.179   0.771
21803W        W85736  24.549  16.606   0.879
21804W        W85737  30.590  15.187  11.442
21805W        W85738   3.412   5.895   4.818
21806W        W85739  30.611   5.343  10.534
21807W        W85740  35.469  35.452   0.313
21808W        W85741   0.299  10.315   1.231
21809W        W85742  30.504  38.008  11.866
21810W        W85743  40.541  38.919  14.919
21811W        W85744  26.098  34.599  14.431
21812W        W85745   8.735  19.185   0.291
21813W        W85746   0.956   7.401   9.950
21814W        W85747   3.751  17.788  13.412
21815W        W85748   3.874  18.099   2.237
21816W        W85749  29.075  31.627   4.694
21817W        W85750  25.507  38.035  14.422
21818W        W85751  34.867  20.261   2.707
21819W        W85752  31.492  23.701  14.949
21820W        W85753  10.357  14.700   4.349
21821W        W85754   8.381  28.960   3.811
21822W        W85755  40.364   9.784   2.885
21823W        W85756  10.259  10.212  12.413
21824W        W85757   4.350  31.944  13.933
21825W        W85758  42.896   6.849   2.262
21826W        W85759  42.973  15.743  14.784
21827W        W85760  18.106  32.565   0.474
21828W        W85761  20.085  43.808  11.008
21829W        W85762  44.407  39.346  12.360
21830W        W85763  35.459  10.756  13.387
21831W        W85764  12.633  35.031  10.547
21832W        W85765  28.180  42.871   3.820
21833W        W85766  12.177  44.344   3.286
21834W        W85767  15.212   1.917  14.476
21835W        W85768  19.204  26.001   1.371
21836W        W85769  28.522  29.931   4.732
21837W        W85770  17.304   6.190  11.051
21838W        W85771  18.116  39.400   3.204
21839W        W85772  32.103   9.745   1.795
21840W        W85773  36.474  34.568   2.860
21841W        W85774  30.537  10.632  11.442
21842W        W85775   4.271  29.130  13.474
21843W        W85776  43.781  13.223   4.771
21844W        W85777  24.069  34.483   1.743
21845W        W85778  14.149  26.169  12.439
21846W        W85779  22.009   0.348  13.328
21847W        W85780  10.681  28.575  11.572
21848W        W85781  23.125   9.833   5.122
21849W        W85782  21.512   7.721  12.350
21850W        W85783  28.618  15.157  13.971
21851W        W85784  42.992  39.847  14.488
21852W        W85785  27.011  41.867  14.459
21853W        W85786  22.129   1.323  14.991
21854W        W85787   2.945  30.476  14.321
21855W        W85788  27.053  16.183   3.356
21856W        W85789   2.451  12.219   3.860
21857W        W85790  34.478   6.754  12.945
21858W        W85791  22.149  33.433   0.419
21859W        W85792  35.489  34.415   1.907
21860W        W85793  30.536  11.155   4.133
21861W        W85794  22.669  42.850   2.759
21862W        W85795   2.311   6.376   3.725
21863W        W85796  11.746  26.961  10.956
21864W        W85797   2.899   6.676   1.411
21865W        W85798  39.813  12.269  14.934
21866W        W85799   8.375  20.111   0.798
21867W        W85800  32.518  32.580   0.471
21868W        W85801   7.265  27.060   4.813
21869W        W85802  28.155   1.937  10.997
21870W        W85803  44.898   9.290   1.772
21871W        W85804  24.191  13.774   1.848
21872W        W85805   7.213  33.132   4.602
21873W        W85806  18.544  24.503   3.855
21874W        W85807  14.156  26.703  14.943
21875W        W85808  11.853  15.318  12.434
21876W        W85809  37.422  28.119   0.863
21877W        W85810  24.154  36.575  12.486
21878W        W85811   7.215   3.291   4.261
21879W        W85812   9.286  21.731  12.399
21880W        W85813   3.275  12.774   0.935
21881W        W85814   0.816   0.475  13.911
21882W        W85815  18.767  43.457   4.280
21883W        W85816  36.935  28.038  12.510
21884W        W85817  27.179  13.626   2.335
21885W        W85818  36.046  22.144   3.716
21886W        W85819  23.010   2.429  11.943
21887W        W85820  41.941  14.759   3.244
21888W        W85821  17.123   6.859   1.866
21889W        W85822  37.572  17.210   0.835
21890W        W85823  12.342  18.231  11.934
21891W        W85824  29.032  28.638   2.682
21892W        W85825  23.597   1.482   0.259
21893W        W85826  11.707  19.538   0.777
21894W        W85827   7.681  16.659   4.187
21895W        W85828  44.826  26.958  11.124
21896W        W85829  15.780   9.369   3.263
21897W        W85830  11.746  25.474  11.111
21898W        W85831  29.528  30.009   3.192
21899W        W85832  13.218  33.892  11.100
21900W        W85833   7.851  27.154   5.778
21901W        W85834  11.661  18.163   0.891
21902W        W85835  44.412  28.159   1.752
21903W        W85836   8.396   5.917  14.788
21904W        W85837  23.584   7.890   3.255
21905W        W85838   8.366  40.927   4.353
21906W        W85839  33.474  34.989  12.995
21907W        W85840  13.677   1.895   3.674
21908W        W85841  30.049   8.264   0.340
21909W        W85842  21.220   0.872  14.796
21910W        W85843  29.632  44.938  14.467
21911W        W85844  18.650  23.700  14.349
21912W        W85845  42.858   3.808   0.867
21913W        W85846  39.863  31.597   2.347
21914W        W85847  39.547  36.925  14.969
21915W        W85848  30.927  14.743  12.035
21916W        W85849   6.249   0.301   2.322
21917W        W85850  39.858  11.841  14.470
21918W        W85851  41.866   2.374  11.860
21919W        W85852  33.093  19.776  13.469
21920W        W85853  17.191  33.446  12.841
21921W        W85854  28.942  38.406  14.876
21922W        W85855  10.821   5.209   3.781
21923W        W85856   2.864  20.735   4.211
21924W        W85857  36.071   3.864  11.926
21925W        W85858  28.121  33.895   3.327
21926W        W85859  39.924   6.292  14.990
21927W        W85860  12.248  11.184   2.181
21928W        W85861  36.919  28.592  13.818
21929W        W85862   8.256  22.528   4.651
21930W        W85863   0.937   4.783  11.081
21931W        W85864  27.615  28.057  12.849
21932W        W85865  40.948  25.077   1.852
21933W        W85866  42.332  16.657   1.292
21934W        W85867  29.992  26.010  12.903
21935W        W85868  33.503  31.614  13.415
21936W        W85869  22.193  19.597  14.359
21937W        W85870  21.650  13.149   2.882
21938W        W85871  16.810  18.677  12.835
21939W        W85872  37.887  27.191  11.405
21940W        W85873  20.119  15.272  10.496
21941W        W85874  24.561  23.128  13.517
21942W        W85875  19.734  12.635  14.296
21943W        W85876  22.745  25.711  11.021
21944W        W85877  26.577  37.430  11.070
21945W        W85878  41.818  10.344  12.946
21946W        W85879   8.668  37.975   3.708
21947W        W85880  38.494  28.100  13.879
21948W        W85881   8.271  16.770   1.932
21949W        W85882  33.594  10.715  14.012
21950W        W85883  14.230  39.457  11.018
21951W        W85884   4.884  20.086   2.410
21952W        W85885  41.931  37.440  14.759
21953W        W85886   4.712  12.181   2.833
21954W        W85887  36.952   6.761  13.483
21955W        W85888  38.033  37.388   1.283
21956W        W85889  34.470  37.470   9.976
21957W        W85890  13.215   0.903  12.853
21958W        W85891  32.919  15.317  11.550
21959W        W85892   4.428  28.577   2.756
21960W        W85893  10.755  28.551   2.687
21961W        W85894  12.300  17.119  13.372
21962W        W85895  25.159  44.830   3.202
21963W        W85896   3.891  16.611  14.468
21964W        W85897  21.567   1.828   3.863
21965W        W85898   5.726  10.642   1.754
21966W        W85899   3.294  21.570  12.543
21967W        W85900   9.314   1.310  13.373
21968W        W85901  12.773   0.449  12.574
21969W        W85902  44.007  12.692   1.326
21970W        W85903  13.181  22.603  12.959
21971W        W85904  39.559  37.528   4.802
21972W        W85905  20.640  40.333   4.132
21973W        W85906  26.062  26.510  12.388
21974W        W85907  39.324   1.829  11.378
21975W        W85908  42.892   0.986   0.785
21976W        W85909  20.579  24.109  12.365
21977W        W85910  19.683   4.411   4.244
21978W        W85911   0.436  31.463   3.708
21979W        W85912   4.210   1.317  12.391
21980W        W85913  11.702  13.733  12.426
21981W        W85914  24.700  15.761  11.591
21982W        W85915  41.913  17.769  13.933
21983W        W85916  10.757   9.389   4.153
21984W        W85917  30.074  32.607  14.994
21985W        W85918  34.533  44.952   1.262
21986W        W85919   8.853  30.991   2.284
21987W        W85920   3.815   6.866   2.677
21988W        W85921   5.273  12.686  11.953
21989W        W85922  10.861  15.795  11.895
21990W        W85923  43.899  27.606  12.539
21991W        W85924  21.569  22.086  12.835
21992W        W85925  27.633   1.744   1.360
21993W        W85926  36.018  13.657  13.904
21994W        W85927   7.192   3.906   3.735
21995W        W85928  23.063   1.850   1.855
21996W        W85929  29.544  11.651  13.022
21997W        W85930   3.858  36.359  12.882
21998W        W85931  38.463  37.530   2.734
21999W        W85932  12.763  11.853   1.312
22000W        W85933   8.294  41.028   4.794
22001W        W85934  21.722  19.665  13.840
22002W        W85935  12.243  24.982   2.852
22003W        W85936  29.975   7.709  12.883
22004W        W85937  38.072  19.078   2.361
22005W        W85938  35.873  18.110   0.351
22006W        W85939  36.943   0.810   3.240
22007W        W85940   1.753  17.121   4.321
22008W        W85941  25.602  29.454   4.251
22009W        W85942  35.505  20.750  14.315
22010W        W85943  10.740  16.096  14.954
22011W        W85944  10.639  19.129  14.283
22012W        W85945  41.966  20.647   0.245
22013W        W85946  43.288  38.480   5.215
22014W        W85947   6.745  12.778  10.071
22015W        W85948  30.064  41.494   1.710
22016W        W85949  22.600  38.533  14.502
22017W        W85950   3.306  30.631   3.229
22018W        W85951  17.584  30.656  10.639
22019W        W85952  31.942  42.911  12.375
22020W        W85953  27.045  36.586   0.304
22021W        W85954  20.043  43.373  12.554
22022W        W85955  41.416   8.793  10.953
22023W        W85956  37.416   4.830  12.079
22024W        W85957  26.990  12.831  14.314
22025W        W85958  30.127  25.137  12.928
22026W        W85959  19.566   0.777  13.374
22027W        W85960  28.107   6.862   4.230
22028W        W85961  44.004   9.152  14.910
22029W        W85962  30.098  10.715  14.316
22030W        W85963  36.456  12.332  14.515
22031W        W85964  42.341  19.754  14.773
22032W        W85965  37.028  37.510   2.712
22033W        W85966  17.208  26.982   4.689
22034W        W85967  15.783   6.400  13.034
22035W        W85968  14.720  34.615   3.367
22036W        W85969  23.654   3.800   0.743
22037W        W85970  32.569   8.849  12.505
22038W        W85971  11.156   1.441   1.407
22039W        W85972   3.245  26.524  10.113
22040W        W85973  10.361  41.794   1.400
22041W        W85974  34.024  27.014   2.234
22042W        W85975  32.458  24.654  14.881
22043W        W85976   3.937  24.167   1.701
22044W        W85977  20.170   5.779  12.940
22045W        W85978  13.701  39.515   2.319
22046W        W85979  12.159   4.221   0.928
22047W        W85980  15.126  31.107   4.740
22048W        W85981   0.757   9.180  12.361
22049W        W85982  41.973   6.843  14.387
22050W        W85983  34.481   9.297  12.377
22051W        W85984  26.978  23.515  13.949
22052W        W85985  40.876  40.041  11.962
22053W        W85986  31.541  17.751   1.288
22054W        W85987  17.575  15.232   0.392
22055W        W85988  26.066  15.582   3.283
22056W        W85989  31.105  17.751  10.410
22057W        W85990  36.915  17.304  12.957
22058W        W85991  32.124  30.528   3.638
22059W        W85992  29.497  19.206   3.211
22060W        W85993  39.507  21.559  11.030
22061W        W85994  40.924   9.198  11.959
22062W        W85995   4.752  21.166   2.841
22063W        W85996   9.256   8.813   1.728
22064W        W85997  43.487  41.354   0.311
22065W        W85998  17.288  20.703  10.123
22066W        W85999  36.557  22.547  14.773
22067W        W86000  18.222  36.558   4.212
22068W        W86001  26.543  39.501   0.477
22069W        W86002  27.974  25.001   1.713
22070W        W86003   7.319  13.299   3.196
22071W        W86004  19.542  29.579   0.944
22072W        W86005  34.597  21.630   3.200
22073W        W86006  27.635   9.716  14.355
22074W        W86007   8.242  36.970  13.998
22075W        W86008  22.532  29.959   1.931
22076W        W86009  13.337  28.143  14.956
22077W        W86010  11.165  31.106  10.577
22078W        W86011  26.997   0.437   2.388
22079W        W86012   8.359  43.937   2.377
22080W        W86013  12.135   1.254   1.430
22081W        W86014  23.494  27.565  13.048
22082W        W86015  43.455  14.206  11.910
22083W        W86016   2.929  32.957  13.912
22084W        W86017  15.803  10.341   2.720
22085W        W86018  34.612  23.674  14.900
22086W        W86019  24.134  13.326   0.931
22087W        W86020  12.307  42.847  13.989
22088W        W86021  31.065  35.524   2.223
22089W        W86022   6.260  43.377  12.351
22090W        W86023  39.338  44.760  12.953
22091W        W86024   1.308  25.508   2.814
22092W        W86025  17.300  23.163  13.815
22093W        W86026  19.277  15.767   0.247
22094W        W86027  36.485  26.141  10.418
22095W        W86028  12.134   0.361   1.857
22096W        W86029  27.513  36.443   3.361
22097W        W86030  30.055   4.384   3.180
22098W        W86031   0.875   2.277  11.427
22099W        W86032  17.221  26.135  10.451
22100W        W86033  21.255   5.703   4.699
22101W        W86034  38.525   0.923  14.862
22102W        W86035  18.061   8.892  13.319
22103W        W86036  36.486  37.520   4.152
22104W        W86037  26.051  39.025   0.285
22105W        W86038  18.191   6.354  10.894
22106W        W86039  21.739  30.001   3.182
22107W        W86040  31.541  13.107  14.318
22108W        W86041  29.127   6.712  14.820
22109W        W86042   4.448   1.443  13.408
22110W        W86043  30.989  30.535   3.194
22111W        W86044  10.166  44.887  12.503
22112W        W86045  28.184   2.348   2.285
22113W        W86046  38.891  38.373  14.410
22114W        W86047  17.633   6.301   0.842
22115W        W86048  42.866  11.169  11.105
22116W        W86049   4.792  10.652   4.192
22117W        W86050  26.113   8.336   0.292
22118W        W86051  25.219  37.956   4.314
22119W        W86052   6.389  19.687   2.342
22120W        W86053   1.469  17.573  14.831
22121W        W86054  41.381  42.503  12.083
22122W        W86055   9.266   9.283   0.849
22123W        W86056  40.836   9.686  10.616
22124W        W86057  32.500  29.425  11.020
22125W        W86058  19.093  42.921   0.456
22126W        W86059  24.066  36.028  14.353
22127W        W86060  28.107  29.516   5.193
22128W        W86061  19.126  19.550  14.448
22129W        W86062   9.368  31.486  12.093
22130W        W86063  16.718  33.571   0.270
22131W        W86064   2.454  17.216  14.764
22132W        W86065  20.689  35.435  11.400
22133W        W86066  10.226   1.929  10.126
22134W        W86067  39.418  32.516   4.214
22135W        W86068  37.979   6.737   3.818
22136W        W86069   2.417   6.888   0.441
22137W        W86070   0.916  25.069   2.750
22138W        W86071  30.071  10.149   1.447
22139W        W86072  13.840  17.290   1.782
22140W        W86073  19.629  15.667   4.753
22141W        W86074   7.243  29.001   3.213
22142W        W86075   2.349  24.493   0.412
22143W        W86076  22.698  40.909  12.991
22144W        W86077  14.129  12.183  12.508
22145W        W86078  32.052   3.791  11.443
22146W        W86079  30.076  30.591  11.896
22147W        W86080  32.422  44.444  13.941
22148W        W86081  11.835   5.396  14.008
22149W        W86082  32.623  25.973  12.978
22150W        W86083  41.859  35.370  13.505
22151W        W86084   0.389   2.425   2.263
22152W        W86085  22.588  42.003   4.629
22153W        W86086  41.396  20.751   4.131
22154W        W86087  41.005  16.768   2.277
22155W        W86088   1.931  37.863   3.777
22156W        W86089   8.284  33.577  11.516
22157W        W86090   6.297  14.699   0.804
22158W        W86091  39.916  30.458  13.021
22159W        W86092  15.167   8.341  10.643
22160W        W86093   7.289  43.767  11.014
22161W        W86094  22.021  32.098   0.884
22162W        W86095  40.483  24.073  10.534
22163W        W86096  15.673  33.113  10.434
22164W        W86097  30.451   7.301   2.700
22165W        W86098  28.941  21.239   4.279
22166W        W86099  35.539   4.879  11.390
22167W        W86100   9.233  36.007  14.485
22168W        W86101  10.207  33.061  12.396
22169W        W86102  15.086  41.997   2.713
22170W        W86103   9.274  27.109   5.230
22171W        W86104   8.274  27.555  11.938
22172W        W86105  20.182  15.694   1.768
22173W        W86106  18.630  26.044   1.760
22174W        W86107  18.584  10.314   1.284
22175W        W86108   7.340  35.491   3.753
22176W        W86109  14.742  17.801   1.720
22177W        W86110  35.436  36.945  11.440
22178W        W86111  36.434   7.760   2.706
22179W        W86112  38.415   7.418   4.623
22180W        W86113  35.874   3.388  10.633
22181W        W86114  40.895  28.472   0.826
22182W        W86115  25.015  12.731   2.713
22183W        W86116   2.441   2.364   2.310
22184W        W86117   2.900   5.399   1.915
22185W        W86118  32.028  30.520  14.979
22186W        W86119   1.899  17.175  13.848
22187W        W86120  11.274  33.048   3.250
22188W        W86121  34.474  32.964  11.386
22189W        W86122  26.157  12.641   2.786
22190W        W86123  37.537  21.719   1.358
22191W        W86124   8.654  38.336   2.722
22192W        W86125  22.158   1.962   4.190
22193W        W86126  41.820   5.325  11.083
22194W        W86127   8.898  25.492   9.978
22195W        W86128   5.889  13.675  14.495
22196W        W86129  23.057  37.406   3.222
22197W        W86130  43.991  10.351   4.310
22198W        W86131  34.086  33.036  13.331
22199W        W86132  39.530  16.623   3.371
22200W        W86133  29.103  15.700   2.681
22201W        W86134  19.638  41.405   1.774
22202W        W86135  16.594   8.687  13.883
22203W        W86136  13.814   3.281   3.728
22204W        W86137  44.759  44.480   1.921
22205W        W86138  15.606  39.418   1.324
22206W        W86139  18.141  24.985  10.013
22207W        W86140  11.226   3.764   0.789
22208W        W86141  12.799  29.552  13.949
22209W        W86142  25.190  23.494   4.152
22210W        W86143   5.689  43.940  11.431
22211W        W86144  44.381  10.793   3.382
22212W        W86145   6.191   5.250   5.747
22213W        W86146  18.224  19.067  12.886
22214W        W86147   1.321  35.011  11.500
22215W        W86148  22.710   3.277   2.887
22216W        W86149  41.008  35.054  11.977
22217W        W86150  35.454  33.550  12.899
22218W        W86151  10.379  23.501  11.125
22219W        W86152   0.385  30.627  10.905
22220W        W86153  30.147   8.171  10.516
22221W        W86154  24.022  16.740  14.822
22222W        W86155  41.816  41.420  12.088
22223W        W86156  30.571  28.539   4.158
22224W        W86157  42.377  16.233  10.487
22225W        W86158  35.455  32.594   1.372
22226W        W86159  42.872  15.325   1.388
22227W        W86160   3.444  44.948  13.387
22228W        W86161  27.050  41.860   0.950
22229W        W86162   7.820  39.031   2.340
22230W        W86163  33.902   8.245   3.269
22231W        W86164  18.712  43.500  11.388
22232W        W86165  25.518  15.611  10.917
22233W        W86166  34.373  15.152   1.696
22234W        W86167   1.741  11.314   0.842
22235W        W86168  44.341  23.711   0.438
22236W        W86169  39.422  44.916  11.985
22237W        W86170  33.589  18.762  13.346
22238W        W86171   1.458  12.185   0.860
22239W        W86172   1.299  12.813   0.255
22240W        W86173  17.214  16.226   1.730
22241W        W86174  31.963   5.856  13.865
22242W        W86175  10.712  32.422  14.875
22243W        W86176   5.202  34.916  14.010
22244W        W86177   4.448   6.348   3.832
22245W        W86178  39.885  25.579  11.418
22246W        W86179  24.036  29.031   2.690
22247W        W86180  25.140  32.449   4.310
22248W        W86181  19.072   2.465   4.176
22249W        W86182  29.984   7.269  14.493
22250W        W86183   0.375   7.365   3.341
22251W        W86184  33.380   2.737   3.179
22252W        W86185  13.304   0.391   4.813
22253W        W86186  44.996   2.436  12.948
22254W        W86187  16.318  21.192   1.379
22255W        W86188  31.997   5.813  10.153
22256W        W86189  12.356  31.601   0.381
22257W        W86190  44.490  29.484  12.530
22258W        W86191  37.938  42.450  12.074
22259W        W86192  40.455   4.450  12.908
22260W        W86193   7.286  37.982   3.808
22261W        W86194  15.648   9.819  14.880
22262W        W86195  13.244  36.056   0.739
22263W        W86196   3.955   4.413  13.527
22264W        W86197   4.295  29.652  12.039
22265W        W86198   0.247   3.287   0.321
22266W        W86199  38.975  24.060   5.252
22267W        W86200  21.654  38.929  12.053
22268W        W86201  43.890  33.073  12.389
22269W        W86202  30.158   4.855  13.462
22270W        W86203  24.635  41.789   3.333
22271W        W86204  18.751  41.987   4.835
22272W        W86205   3.394  28.463   4.275
22273W        W86206   3.229   6.335  12.397
22274W        W86207  10.854  23.069  13.862
22275W        W86208  18.181  34.979   0.751
22276W        W86209   9.837  22.075  11.972
22277W        W86210  44.789  42.512   3.746
22278W        W86211  32.136  38.386   9.945
22279W        W86212  22.656  11.256  14.406
22280W        W86213  11.731   4.787  10.915
22281W        W86214  17.134  20.549   0.943
22282W        W86215  39.916  28.672   3.292
22283W        W86216   8.852  14.128   0.277
22284W        W86217  18.790  44.331  10.517
22285W        W86218   8.781  18.580  11.959
22286W        W86219  35.462   9.869   3.702
22287W        W86220   1.735  37.445  13.358
22288W        W86221  13.191  15.789  11.513
22289W        W86222  25.095   4.211   1.316
22290W        W86223  25.962  37.376   3.269
22291W        W86224   8.226  16.711  10.413
22292W        W86225   7.383  41.825  10.549
22293W        W86226  19.696  40.905   4.273
22294W        W86227   7.792   9.369   2.700
22295W        W86228  16.603  31.115   1.933
22296W        W86229  16.159  40.823   4.816
22297W        W86230  35.857  33.088  14.946
22298W        W86231  30.562  21.100  10.997
22299W        W86232  36.357   9.813  14.277
22300W        W86233   8.302   1.456  14.351
22301W        W86234   8.682  20.235   1.266
22302W        W86235  27.144  11.843  10.120
22303W        W86236  36.515  42.029  13.885
22304W        W86237  11.753  17.101  13.871
22305W        W86238   0.304  18.060   2.704
22306W        W86239  17.297  14.333   1.248
22307W        W86240   0.479  37.985   0.403
22308W        W86241  39.930  21.111   0.425
22309W        W86242   1.764  15.796  15.000
22310W        W86243  18.194  21.201   1.786
22311W        W86244  13.840  35.956   4.603
22312W        W86245   4.910   3.728   3.745
22313W        W86246  18.207  39.559  13.931
22314W        W86247  34.870  21.740  11.497
22315W        W86248   4.835   2.302  10.485
22316W        W86249  29.169   6.691   1.438
22317W        W86250  43.327  25.690  10.436
22318W        W86251   2.853  25.993  14.019
22319W        W86252   7.881   9.297   3.765
22320W        W86253  37.485  44.374   2.814
22321W        W86254  25.612  35.887  10.410
22322W        W86255   3.902  31.589  11.557
22323W        W86256  34.023  36.375   2.684
22324W        W86257  39.037  29.660   1.277
22325W        W86258  28.129  38.952   1.307
22326W        W86259  19.066  13.738   4.118
22327W        W86260  39.012  44.753  12.029
22328W        W86261  23.510  41.489  12.873
22329W        W86262  32.130  35.901  11.399
22330W        W86263   7.754  32.522  14.964
22331W        W86264  12.227   7.260  12.948
22332W        W86265  25.210  38.915   0.246
22333W        W86266  22.550   5.229   0.873
22334W        W86267  22.651  22.038   2.241
22335W        W86268   1.794  33.896   4.326
22336W        W86269  10.331  12.202  11.560
22337W        W86270  11.193  16.187  13.508
22338W        W86271  41.907  40.417   0.926
22339W        W86272  41.295  24.692  10.896
22340W        W86273  24.620  16.134   0.956
22341W        W86274  30.937  27.148   1.792
22342W        W86275  40.416  12.259   1.263
22343W        W86276   6.344  32.422  14.349
22344W        W86277  29.658  34.090   1.265
22345W        W86278   0.353  10.878   3.791
22346W        W86279  30.629  24.040   4.797
22347W        W86280  31.442  24.223  14.895
22348W        W86281   6.410  25.670  14.877
22349W        W86282   5.436  20.750  11.076
22350W        W86283  24.212   0.891   9.992
22351W        W86284  28.028  14.808   4.345
22352W        W86285   9.744  39.527   2.789
22353W        W86286  13.816  38.551   1.842
22354W        W86287  27.113  29.504  12.541
22355W        W86288  19.670  38.912   5.120
22356W        W86289   0.450  24.661  13.347
22357W        W86290  28.132  18.618  13.338
22358W        W86291  20.598  29.986  13.540
22359W        W86292  29.548  25.095   1.416
22360W        W86293  37.350  37.533   0.312
22361W        W86294  18.604  24.164   4.261
22362W        W86295  31.427  29.565   1.287
22363W        W86296  24.724  10.662   3.367
22364W        W86297  13.229  40.443   0.398
22365W        W86298  40.886  39.813   0.854
22366W        W86299  33.919  39.879  11.000
22367W        W86300  12.724   0.945   4.630
22368W        W86301  34.390  18.638  10.999
22369W        W86302  33.564   3.786  11.535
22370W        W86303  25.563   0.493   4.668
22371W        W86304  18.639  18.727   3.741
22372W        W86305  28.587  22.154   3.656
22373W        W86306  21.735  11.359  11.407
22374W        W86307   4.726   8.789  13.935
22375W        W86308  21.095  25.185   2.857
22376W        W86309  32.413   1.326   0.433
22377W        W86310  10.286  26.109  13.490
22378W        W86311   8.202  13.792  11.010
22379W        W86312  13.690  44.982   3.817
22380W        W86313  15.808   4.795   4.742
22381W        W86314  12.127  22.667  11.859
22382W        W86315   8.378   1.975  11.478
22383W        W86316  30.462   8.718  14.800
22384W        W86317   9.352  38.512   3.194
22385W        W86318  20.083  10.278   0.305
22386W        W86319  31.026  43.945  14.855
22387W        W86320  19.144  21.570   1.789
22388W        W86321  17.793  22.734   3.228
22389W        W86322  29.614  31.108   2.311
22390W        W86323  42.300  24.141   2.765
22391W        W86324   7.707  32.894   2.678
22392W        W86325  32.995  14.767   1.330
22393W        W86326  37.033   2.736  13.526
22394W        W86327   9.229  45.000   4.729
22395W        W86328  36.008  11.671  12.437
22396W        W86329  43.395  20.733  13.323
22397W        W86330   4.357  38.476  10.900
22398W        W86331  19.261  38.454   3.849
22399W        W86332  29.570  33.500   2.875
22400W        W86333  42.451  22.245  10.528
22401W        W86334  15.762  22.119  11.933
22402W        W86335  39.916  20.740  11.963
22403W        W86336  18.072   3.845  10.444
22404W        W86337   9.840  44.865   4.653
22405W        W86338   0.751  29.067   4.829
22406W        W86339  10.354  33.618   2.821
22407W        W86340  26.606  42.379  13.522
22408W        W86341  20.113   2.791  13.327
22409W        W86342  38.512  10.874  12.908
22410W        W86343  13.291  19.169  10.940
22411W        W86344   1.457  20.181  14.899
22412W        W86345  11.132  31.603  13.045
22413W        W86346  44.461  17.095  14.780
22414W        W86347  20.705   4.275  12.856
22415W        W86348   4.428   2.303  10.064
22416W        W86349  15.180  22.107  14.393
22417W        W86350  33.066  34.429  14.886
22418W        W86351  27.158  22.586  11.027
22419W        W86352   0.439  41.933  10.986
22420W        W86353  33.488  22.565   3.241
22421W        W86354  11.801  37.385  12.842
22422W        W86355  24.211  32.475   0.415
22423W        W86356  25.964  25.665  10.567
22424W        W86357  30.593  34.415   3.714
22425W        W86358  42.393   5.718  13.806
22426W        W86359  12.168  40.975   4.608
22427W        W86360  27.051  26.191   1.705
22428W        W86361  22.213  21.223   0.758
22429W        W86362  42.488  10.877  10.517
22430W        W86363  19.167  43.340   0.896
22431W        W86364  35.535  44.332  12.437
22432W        W86365  28.509  20.209  14.407
22433W        W86366  20.705  14.752   2.897
22434W        W86367  40.043  16.109  11.437
22435W        W86368   8.222  30.155  12.548
22436W        W86369  27.027  15.783  12.946
22437W        W86370   7.411  18.635  11.412
22438W        W86371  41.321  18.641  10.584
22439W        W86372  33.445  16.301   4.642
22440W        W86373   4.852  44.375  10.998
22441W        W86374  31.564   0.986  11.545
22442W        W86375  15.316  13.137  14.770
22443W        W86376  37.863  41.486   0.914
22444W        W86377  13.335  39.524   3.378
22445W        W86378  43.920  10.326   2.251
22446W        W86379  34.871  24.722   2.240
22447W        W86380   8.338  34.090  14.968
22448W        W86381  34.987  18.146   3.172
22449W        W86382   7.179  38.326   0.952
22450W        W86383  35.431  10.267  13.949
22451W        W86384  28.564  42.354  14.025
22452W        W86385  11.179  21.253  14.324
22453W        W86386  24.174   8.259   3.760
22454W        W86387  23.068  20.617   1.375
22455W        W86388  12.669  33.108   0.858
22456W        W86389  37.476   4.923   2.867
22457W        W86390  15.249  10.349   4.830
22458W        W86391  17.685  43.296  13.477
22459W        W86392  21.254   1.870  14.971
22460W        W86393   4.225  37.077  10.566
22461W        W86394   0.377  38.504  13.975
22462W        W86395  17.575   7.778   3.674
22463W        W86396  26.140  41.368   3.322
22464W        W86397   2.356   8.795   3.654
22465W        W86398  25.963  43.479  11.948
22466W        W86399  17.219   4.205   2.725
22467W        W86400  16.120   4.838   2.778
22468W        W86401  16.630  13.796  10.413
22469W        W86402  44.867  16.751   4.237
22470W        W86403  35.948  41.470   0.420
22471W        W86404  11.641  17.284  12.887
22472W        W86405  11.314  10.659   1.920
22473W        W86406   6.321  22.559   2.186
22474W        W86407  21.117  11.808   1.724
22475W        W86408  34.428  21.016  12.389
22476W        W86409   4.851  20.562   4.628
22477W        W86410   0.258  29.162  13.043
22478W        W86411  43.411  38.415   2.376
22479W        W86412  30.412   2.432   2.780
22480W        W86413   8.659  35.502   2.401
22481W        W86414  19.093  15.174  12.035
22482W        W86415  38.564  34.054   3.797
22483W        W86416  19.184   5.834  11.499
22484W        W86417  36.449   6.263  10.065
22485W        W86418  35.358  38.554   0.483
22486W        W86419  27.062   7.348  11.539
22487W        W86420  36.078  25.964  13.813
22488W        W86421   0.939   7.196   2.182
22489W        W86422  30.001  34.375  10.520
22490W        W86423  39.028  23.236  13.478
22491W        W86424  41.016   8.234  11.924
22492W        W86425  21.152  27.511   3.639
22493W        W86426   7.175  21.237  12.027
22494W        W86427   8.191  26.674  12.043
22495W        W86428  31.118  28.958   4.314
22496W        W86429  27.944   3.829   1.417
22497W        W86430  11.313  39.497  14.407
22498W        W86431  35.463  42.778  11.923
22499W        W86432  33.897  43.299   1.866
22500W        W86433   2.450  36.513   0.426
22501W        W86434  43.910  32.538  12.436
22502W        W86435  19.062  30.058  10.634
22503W        W86436  40.859  30.573   4.625
22504W        W86437  19.176  38.405  14.332
22505W        W86438  44.935  31.929   0.476
22506W        W86439  28.435  44.905   1.214
22507W        W86440  26.130   9.348  13.032
22508W        W86441   1.941  12.700   4.792
22509W        W86442   5.252  21.250   4.621
22510W        W86443  37.345  11.247   3.166
22511W        W86444  22.119  17.065   1.768
22512W        W86445   0.840  24.565   3.780
22513W        W86446  29.563  43.401   2.336
22514W        W86447  32.003  33.908   4.626
22515W        W86448  33.477  32.599   3.331
22516W        W86449  11.859  37.561   4.619
22517W        W86450   0.749  32.618   2.745
22518W        W86451   2.433   0.372   1.334
22519W        W86452   8.796  31.537  10.509
22520W        W86453  34.588  27.978   3.360
22521W        W86454   6.240   9.650  14.491
22522W        W86455  31.107  10.759  14.899
22523W        W86456  12.726  16.700   3.217
22524W        W86457   1.839  43.793   1.325
22525W        W86458  10.289  17.684  11.534
22526W        W86459  19.279  28.615  10.543
22527W        W86460   7.822  13.146   3.152
22528W        W86461  18.221   6.193  13.052
22529W        W86462   0.483  44.848   1.743
22530W        W86463   7.775  16.766   3.857
22531W        W86464  24.629  30.582  10.544
22532W        W86465  35.377  42.002   4.829
22533W        W86466  19.650   0.274   4.697
22534W        W86467  30.509   5.399   1.729
22535W        W86468   4.416  41.434   3.703
22536W        W86469  31.904  41.825   2.374
22537W        W86470  39.390   3.856  10.629
22538W        W86471  34.102  22.529  10.970
22539W        W86472  34.413  34.018  12.012
22540W        W86473  20.765   7.285   2.407
22541W        W86474  43.779   1.425  11.003
22542W        W86475  43.400  28.161   0.449
22543W        W86476  21.511  39.058  14.367
22544W        W86477  33.922  14.135  14.401
22545W        W86478  33.447  31.992   3.842
22546W        W86479  10.364  22.019  10.498
22547W        W86480  15.618  28.949  11.556
22548W        W86481  36.591  14.588   3.863
22549W        W86482  38.873   1.403   3.301
22550W        W86483  16.179  14.620   3.709
22551W        W86484  35.470  11.194  11.090
22552W        W86485   5.201  41.960  10.631
22553W        W86486  32.908  37.566   2.351
22554W        W86487   4.706   7.876   4.244
22555W        W86488  38.861   4.832  10.973
22556W        W86489  20.769   2.257  14.406
22557W        W86490  10.663  34.927  11.947
22558W        W86491  42.392  19.682  13.317
22559W        W86492  34.556  26.206   0.967
22560W        W86493  13.777  27.026  11.997
22561W        W86494   2.228  11.844   4.601
22562W        W86495   4.931  10.794  11.095
22563W        W86496  25.141  25.096  13.484
22564W        W86497  23.683   6.186   1.738
22565W        W86498  39.502  27.594  14.024
22566W        W86499   5.751  40.997   2.202
22567W        W86500  31.033  21.144  14.761
22568W        W86501  18.058   9.808  12.017
22569W        W86502   1.370   7.393   3.164
22570W        W86503  16.137  44.363   2.262
22571W        W86504  31.093  31.103   2.706
22572W        W86505  30.607  10.307   1.235
22573W        W86506  42.380   9.782   2.288
22574W        W86507   9.733   3.818  13.936
22575W        W86508  34.025  21.720   1.838
22576W        W86509  21.552  35.869   1.421
22577W        W86510  21.165  25.980  11.536
22578W        W86511  20.591  39.556  11.053
22579W        W86512  32.102  31.566   2.188
22580W        W86513  44.879   9.763   3.737
22581W        W86514  10.174  36.062  10.439
22582W        W86515   5.383   7.904   2.297
22583W        W86516  18.625  37.425   3.316
22584W        W86517  15.738  41.948  13.970
22585W        W86518  17.072  35.087  10.415
22586W        W86519  40.479  40.463   2.200
22587W        W86520  38.426  29.566  13.898
22588W        W86521  24.213  39.967  13.011
22589W        W86522  14.205  35.409  12.509
22590W        W86523  29.624  32.623   0.808
22591W        W86524  12.135  20.652  14.759
22592W        W86525  13.758  17.610  14.409
22593W        W86526  12.225  37.485  11.088
22594W        W86527  19.095  12.308   2.790
22595W        W86528   8.186   4.894   2.794
22596W        W86529  34.532  22.680  11.555
22597W        W86530  23.201  16.725   0.438
22598W        W86531  25.711  36.001   9.961
22599W        W86532  19.106  17.608   3.853
22600W        W86533  14.764  32.006   0.369
22601W        W86534  19.273   8.663   0.430
22602W        W86535  10.727  26.672  12.851
22603W        W86536  35.872   6.774   3.768
22604W        W86537  14.169  15.163   2.812
22605W        W86538  16.180   1.471   1.245
22606W        W86539  15.123  16.134   9.589
22607W        W86540  21.263  22.512   4.142
22608W        W86541  43.938   7.825  14.449
22609W        W86542  19.683  19.110   2.843
22610W        W86543  22.140  18.768  12.357
22611W        W86544  34.992   5.758   3.800
22612W        W86545   3.727  15.662  10.111
22613W        W86546  24.046  37.058  13.525
22614W        W86547   4.719  13.831   3.799
22615W        W86548  16.704  13.338  10.584
22616W        W86549  42.470  18.106  13.809
22617W        W86550  29.931   7.201  13.969
22618W        W86551  16.773  18.235   0.288
22619W        W86552  19.188   6.286   3.149
22620W        W86553  24.139  19.631  12.531
22621W        W86554  17.160   2.397   0.767
22622W        W86555  39.952   5.715  13.964
22623W        W86556  14.812  39.810  13.047
22624W        W86557  17.152   3.943   4.317
22625W        W86558   7.303  20.117  14.495
22626W        W86559  22.239  12.692   2.813
22627W        W86560  21.665  32.624   1.284
22628W        W86561  22.162  32.418  11.373
22629W        W86562  41.917  28.582  12.503
22630W        W86563  17.117  39.049   1.867
22631W        W86564  30.105  42.496   3.814
22632W        W86565  14.802  30.089  14.759
22633W        W86566  31.585  42.901   3.360
22634W        W86567   2.393  37.504  12.989
22635W        W86568   1.286  17.086  11.376
22636W        W86569  28.009  22.597   0.299
22637W        W86570  21.690  22.125  11.901
22638W        W86571  20.591  19.269   1.862
22639W        W86572   1.367  42.780  13.333
22640W        W86573  16.293  36.032  10.940
22641W        W86574  18.747   3.311   0.829
22642W        W86575  35.375  30.563  14.425
22643W        W86576  43.284  15.754   2.826
22644W        W86577  27.948  17.078   5.085
22645W        W86578  19.242  21.249   1.395
22646W        W86579  18.599  19.183   1.438
22647W        W86580  15.109  16.286   3.700
22648W        W86581  38.333  12.146   2.777
22649W        W86582   3.899  44.383  11.016
22650W        W86583  39.325  27.122  10.890
22651W        W86584   8.871  21.616  14.278
22652W        W86585  10.281  41.530   9.919
22653W        W86586  35.989  40.903  12.368
22654W        W86587  37.983   0.744  12.491
22655W        W86588  27.064  33.994   2.386
22656W        W86589  44.411  23.617   3.799
22657W        W86590  24.622  35.955   0.285
22658W        W86591   8.860  28.616   2.295
22659W        W86592  33.414  42.940  13.882
22660W        W86593   7.172   8.852  13.014
22661W        W86594   9.355  11.850  10.991
22662W        W86595  27.481   1.282   2.865
22663W        W86596  17.221  38.003  14.938
22664W        W86597  34.382   8.191  12.459
22665W        W86598  42.357  32.490   0.334
22666W        W86599  15.198   9.361   2.247
22667W        W86600   2.911  36.954  11.555
22668W        W86601  43.298   3.393  14.992
22669W        W86602  24.148   7.195   4.640
22670W        W86603   2.779  28.639   3.796
22671W        W86604  41.910  34.892   0.764
22672W        W86605  38.491  10.758  13.869
22673W        W86606  30.122   4.389   0.257
22674W        W86607  31.637  34.118   0.361
22675W        W86608  11.163  34.577  14.399
22676W        W86609  10.223   2.437  12.548
22677W        W86610  20.662  33.580   2.709
22678W        W86611  31.526  20.531  12.976
22679W        W86612  14.333  17.166  10.422
22680W        W86613  33.035  33.593  14.923
22681W        W86614  12.171  30.447   2.797
22682W        W86615   8.177   0.888   4.674
22683W        W86616  17.659   6.404  14.889
22684W        W86617  35.054  42.397   0.318
22685W        W86618  15.785  44.976   4.745
22686W        W86619  12.251   8.659  11.026
22687W        W86620  34.482  25.010   2.211
22688W        W86621  35.880   0.278  11.973
22689W        W86622  29.918  42.485  10.453
22690W        W86623  28.471  43.475  11.918
22691W        W86624  34.085   2.314   4.355
22692W        W86625  15.652  12.249   0.455
22693W        W86626  16.711  10.730   2.293
22694W        W86627  16.243  19.626   3.832
22695W        W86628  34.598   2.836   2.225
22696W        W86629   8.752  43.455   4.637
22697W        W86630  14.245  21.677  11.967
22698W        W86631  32.516   0.383  12.580
22699W        W86632  31.990  13.709   2.834
22700W        W86633  41.298   5.240   4.631
22701W        W86634  35.892  42.906  12.045
22702W        W86635  32.052   1.959  14.392
22703W        W86636  31.928  20.140  11.077
22704W        W86637  21.750  13.170   0.812
22705W        W86638  30.624  11.213  13.014
22706W        W86639   9.816   1.802  10.431
22707W        W86640   8.308   3.709  14.315
22708W        W86641  34.443  38.463   0.257
22709W        W86642  44.453  11.659  14.397
22710W        W86643  42.340  22.739   4.205
22711W        W86644  20.522   7.342   4.749
22712W        W86645  19.064  29.106  10.091
22713W        W86646  16.280   7.675   5.141
22714W        W86647   4.327  38.952  14.990
22715W        W86648   3.309  17.284  10.965
22716W        W86649  28.107  22.062   2.901
22717W        W86650   3.399  28.953  14.294
22718W        W86651  38.037  33.551  13.044
22719W        W86652  25.994  30.099  11.900
22720W        W86653  39.951   7.372   4.267
22721W        W86654   4.208  19.261  14.448
22722W        W86655   8.818  33.433   3.308
22723W        W86656  38.368  15.172  13.843
22724W        W86657  19.709   3.880   3.760
22725W        W86658  23.580   5.392   0.817
22726W        W86659  19.148  25.209  12.937
22727W        W86660  27.521  15.594   4.307
22728W        W86661  24.630  23.064   4.741
22729W        W86662  41.929  20.171   3.373
22730W        W86663  19.579  28.577   4.288
22731W        W86664  25.025   8.228  13.902
22732W        W86665  33.971  29.499  10.944
22733W        W86666  32.426  41.468  11.578
22734W        W86667  39.507  39.993  11.915
22735W        W86668  37.061   9.659   2.800
22736W        W86669   0.849  32.039   5.239
22737W        W86670  24.552  44.005  13.793
22738W        W86671  23.650  26.036   0.264
22739W        W86672  18.712  30.083  13.920
22740W        W86673   0.275  17.101  11.901
22741W        W86674   9.220  15.280   2.770
22742W        W86675   3.348  33.003   3.342
22743W        W86676  20.608   6.847  10.560
22744W        W86677   6.336  18.244  10.112
22745W        W86678  34.397   4.861   0.247
22746W        W86679   3.233  42.944   2.871
22747W        W86680  18.074  33.970   3.361
22748W        W86681  31.988  20.563   2.713
22749W        W86682   7.412  16.607  12.385
22750W        W86683  41.972  40.346  14.009
22751W        W86684  10.867  32.888   4.239
22752W        W86685  11.716  18.776  14.910
22753W        W86686  20.654  12.712   3.290
22754W        W86687  13.663  23.119   1.258
22755W        W86688  19.671  29.021  13.008
22756W        W86689  34.602  35.918  10.640
22757W        W86690  41.429   5.402  13.016
22758W        W86691   7.832   4.397   9.521
22759W        W86692   1.356  10.344   0.338
22760W        W86693  38.532  13.125   1.809
22761W        W86694  27.099  20.619  12.041
22762W        W86695  43.959   9.861  12.456
22763W        W86696  34.023  38.369   1.700
22764W        W86697   5.822  28.956   2.275
22765W        W86698  22.587  33.946   1.840
22766W        W86699  39.514  24.501  14.386
22767W        W86700  16.691  44.297   3.640
22768W        W86701  38.936  20.537  12.377
22769W        W86702  30.149  20.755   4.673
22770W        W86703   6.310  12.134  13.918
22771W        W86704   7.814  18.054   4.777
22772W        W86705  13.654  32.591  13.874
22773W        W86706  27.611  38.435   1.797
22774W        W86707   6.899  40.028   2.384
22775W        W86708   6.250  38.488   4.168
22776W        W86709  39.911  28.656  12.886
22777W        W86710   2.851   7.415   3.794
22778W        W86711  30.117  19.593  11.444
22779W        W86712  22.022  19.712  13.344
22780W        W86713  31.454  35.934  11.467
22781W        W86714  33.551   8.356  11.610
22782W        W86715  15.299  38.384   0.787
22783W        W86716   3.755  24.073  12.512
22784W        W86717  30.592  20.042  12.495
22785W        W86718  13.319  17.709  14.373
22786W        W86719  30.955   7.705   1.371
22787W        W86720  31.541  30.525   1.839
22788W        W86721  33.383  25.025   3.718
22789W        W86722  42.014  23.114   0.479
22790W        W86723  33.022  43.864   2.330
22791W        W86724   2.448  33.599   2.735
22792W        W86725  33.901  12.159  11.425
22793W        W86726  29.127  38.407  14.490
22794W        W86727  24.210   6.368  12.418
22795W        W86728   4.771  16.745  12.544
22796W        W86729  41.523   1.778  11.898
22797W        W86730  10.172  15.722  13.959
22798W        W86731  12.118  38.862   1.383
22799W        W86732  15.234  38.943  13.890
22800W        W86733  21.573   2.324  13.529
22801W        W86734  11.864  16.793   1.754
22802W        W86735  18.719  19.745  13.338
22803W        W86736   1.389  43.292   1.364
22804W        W86737  11.261  12.647   3.309
22805W        W86738  19.167   6.325   1.763
22806W        W86739  31.626  21.205   4.267
22807W        W86740  16.097  33.992   2.384
22808W        W86741  28.184  28.590  10.948
22809W        W86742  23.686  19.543   2.693
22810W        W86743  19.269  33.515  12.918
22811W        W86744  42.470  39.332   2.740
22812W        W86745  34.561  36.519   2.822
22813W        W86746  37.447  36.462  10.537
22814W        W86747  27.496  34.583   3.700
22815W        W86748  38.050  39.332   0.285
22816W        W86749  17.278  44.357   2.837
22817W        W86750   1.888  26.673   0.280
22818W        W86751  19.760  41.389   4.187
22819W        W86752  35.856  40.469  13.486
22820W        W86753  43.291  35.539  12.505
22821W        W86754  44.439  10.260  10.499
22822W        W86755  16.167  28.624   1.824
22823W        W86756  44.340  38.401   0.872
22824W        W86757  24.540  40.315  14.429
22825W        W86758  41.907  26.075  12.853
22826W        W86759  21.072  13.701   1.866
22827W        W86760  38.392   7.814  12.043
22828W        W86761   5.416  26.022  13.417
22829W        W86762  20.150  40.816   1.853
22830W        W86763   6.698  16.176  14.275
22831W        W86764  41.313   6.698   3.290
22832W        W86765  41.961   1.897  12.533
22833W        W86766   1.262  36.375   0.475
22834W        W86767   0.432   2.818   1.725
22835W        W86768  39.906  37.910   3.733
22836W        W86769   1.435  31.586  12.576
22837W        W86770   9.748  35.388   0.307
22838W        W86771  14.780  27.135  14.454
22839W        W86772   6.230  38.326   3.656
22840W        W86773  29.115   5.898  11.450
22841W        W86774  36.025   7.805   1.874
22842W        W86775  23.683  43.817   3.718
22843W        W86776  25.566  35.079   2.193
22844W        W86777  19.140  24.071   0.749
22845W        W86778  23.613   3.878   2.208
22846W        W86779  22.637  33.104   0.278
22847W        W86780   5.821   9.321   3.787
22848W        W86781  27.140  30.056  13.381
22849W        W86782  41.836  39.553   2.418
22850W        W86783  38.524   5.730   0.942
22851W        W86784   3.409  17.610   2.195
22852W        W86785  40.376  24.650  13.507
22853W        W86786  12.809  28.533  11.383
22854W        W86787   6.384   8.402   4.311
22855W        W86788   7.838  15.135  14.324
22856W        W86789  15.092  17.720   3.654
22857W        W86790  36.037   0.787  10.522
22858W        W86791  39.440  36.962  11.862
22859W        W86792  10.190  17.253   0.356
22860W        W86793  26.608   0.279  13.500
22861W        W86794  19.280   7.251  11.098
22862W        W86795  11.681  21.189  13.798
22863W        W86796  25.082   3.368  10.633
22864W        W86797  10.816  15.780   1.755
22865W        W86798  10.667  14.212   1.350
22866W        W86799  22.062  18.626  12.967
22867W        W86800   6.387  16.624   0.832
22868W        W86801  30.915  16.570   3.650
22869W        W86802  12.841  42.407  11.436
22870W        W86803  42.487  18.293  11.903
22871W        W86804  16.085   2.793   3.254
22872W        W86805  40.427  39.361  11.522
22873W        W86806  29.999   8.298  12.355
22874W        W86807  10.334  37.371  14.481
22875W        W86808  19.252  42.946  14.471
22876W        W86809   0.391  25.128   4.707
22877W        W86810  11.291  14.262   0.376
22878W        W86811  12.243   6.196  10.117
22879W        W86812   9.839  24.531   0.737
22880W        W86813  21.173  22.712   1.786
22881W        W86814  13.821  14.775  13.981
22882W        W86815  33.082  31.629   0.249
22883W        W86816  33.389  18.615  10.441
22884W        W86817  41.503  15.594   2.737
22885W        W86818  38.875  23.586  10.529
22886W        W86819  35.950   4.753   0.906
22887W        W86820  39.857   8.846  14.913
22888W        W86821  14.192  25.965  13.813
22889W        W86822  44.896  16.170  10.942
22890W        W86823  23.051  37.874  12.064
22891W        W86824   5.275  30.533   0.967
22892W        W86825  28.024  37.022  13.839
22893W        W86826  13.816  21.723   3.785
22894W        W86827  18.595  29.088   4.657
22895W        W86828   5.790  26.184  10.486
22896W        W86829  34.986   0.422  10.952
22897W        W86830  16.205   2.925   3.868
22898W        W86831  35.965  32.549   4.725
22899W        W86832  33.906  43.807  13.363
22900W        W86833  35.410  15.766  11.577
22901W        W86834  37.537  41.026  13.030
22902W        W86835  30.599  34.376  12.944
22903W        W86836  41.360  28.007   3.263
22904W        W86837  18.082   2.830  14.912
22905W        W86838  44.361   1.285   2.293
22906W        W86839  19.185  20.136   0.400
22907W        W86840   7.778  40.362   1.768
22908W        W86841   4.341   2.276   0.770
22909W        W86842  33.483   5.846   3.644
22910W        W86843  38.502  36.523   1.416
22911W        W86844  16.198  38.974   4.343
22912W        W86845  21.525   0.852   4.318
22913W        W86846  33.964  14.095  11.409
22914W        W86847   6.748  14.781  11.498
22915W        W86848   5.245  41.865   0.807
22916W        W86849  38.942   4.925   4.719
22917W        W86850   3.729  14.115  11.973
22918W        W86851   4.221  22.606   2.188
22919W        W86852  17.274  43.780   0.837
22920W        W86853  32.946  24.717  11.406
22921W        W86854  25.617  42.827  12.441
22922W        W86855  26.041   3.924   4.743
22923W        W86856  26.196  27.644   1.920
22924W        W86857  28.145   5.797   3.795
22925W        W86858  30.986  23.612   4.321
22926W        W86859   3.821   7.316  11.868
22927W        W86860  12.133  37.542   2.222
22928W        W86861  40.043   9.771  13.975
22929W        W86862  29.929  23.652   3.184
22930W        W86863  30.120  44.765  14.409
22931W        W86864  42.499  26.542   3.278
22932W        W86865  15.791  36.569   3.738
22933W        W86866  41.470  14.744   1.220
22934W        W86867  42.455   2.853  14.975
22935W        W86868  37.452  42.874   5.288
22936W        W86869   4.931   5.776  12.832
22937W        W86870  20.162  12.719   0.403
22938W        W86871   8.696  37.533   0.880
22939W        W86872  15.322  30.500  13.797
22940W        W86873  37.368  16.243  11.030
22941W        W86874  12.668  38.909  14.339
22942W        W86875  14.154  29.001   2.893
22943W        W86876  15.092  11.826   3.149
22944W        W86877  21.097  19.192  12.517
22945W        W86878   0.300   7.707   2.362
22946W        W86879  24.007  19.777   1.862
22947W        W86880  40.806  15.695   2.293
22948W        W86881  12.613   7.694  14.942
22949W        W86882  34.531  27.604  12.454
22950W        W86883  26.074  18.732   1.841
22951W        W86884  30.055  26.150   0.277
22952W        W86885   8.855  18.278   3.753
22953W        W86886  23.653  11.353   2.723
22954W        W86887  32.448  37.833   0.833
22955W        W86888  27.449  42.821  14.278
22956W        W86889  18.557   8.369   0.739
22957W        W86890  32.031  24.616  10.946
22958W        W86891  39.549  42.792   4.763
22959W        W86892  36.425  22.523   4.620
22960W        W86893  41.879   9.777  14.329
22961W        W86894  17.207  24.989   4.709
22962W        W86895  43.824  35.020  11.023
22963W        W86896  43.765  36.859  14.953
22964W        W86897  44.939   5.221   3.168
22965W        W86898  29.940  30.435   2.741
22966W        W86899   1.862  36.452  10.608
22967W        W86900  37.451  29.951   2.209
22968W        W86901   5.389  26.069  12.033
22969W        W86902  43.826  31.055  13.986
22970W        W86903  18.630  15.791   0.868
22971W        W86904  35.569   2.363   4.725
22972W        W86905  24.201  11.857   1.383
22973W        W86906   3.777  13.351   3.767
22974W        W86907  36.951   5.343  10.644
22975W        W86908   7.822  17.575   0.407
22976W        W86909  16.696  41.380  11.078
22977W        W86910  35.074  19.192  11.475
22978W        W86911  44.753  34.401  14.883
22979W        W86912   2.893  24.114  10.963
22980W        W86913  20.681   8.691  14.912
22981W        W86914  17.180  23.651  12.448
22982W        W86915  22.568   2.834  12.090
22983W        W86916   7.823  14.714  14.872
22984W        W86917  23.601  42.884  11.424
22985W        W86918  19.577  29.011   9.969
22986W        W86919  16.782   7.774   1.698
22987W        W86920   2.847  44.787  11.956
22988W        W86921   6.407  33.390   0.800
22989W        W86922   2.940   2.308   2.823
22990W        W86923  12.703   1.476  12.360
22991W        W86924  20.684  36.084  10.640
22992W        W86925  22.675  25.093   2.193
22993W        W86926  39.908  17.165   0.869
22994W        W86927  16.210  40.855   2.232
22995W        W86928  11.302  38.332  14.430
22996W        W86929   8.821  39.990   4.723
22997W        W86930  19.083  33.051   0.254
22998W        W86931  21.691  38.417  11.010
22999W        W86932  24.605   7.720  13.448
23000W        W86933  24.080  32.115   0.457
23001W        W86934   9.201  38.990   1.394
23002W        W86935  28.544  44.470   0.811
23003W        W86936  39.984  17.280  13.375
23004W        W86937  20.551  28.612  12.868
23005W        W86938  35.045   2.874  14.436
23006W        W86939   4.795   4.698  14.907
23007W        W86940  18.701   1.844   3.213
23008W        W86941  44.486  28.027   0.795
23009W        W86942  44.312   3.313  13.841
23010W        W86943  18.178  18.215  13.532
23011W        W86944  38.822  36.927   1.372
23012W        W86945  41.019  41.998  11.098
23013W        W86946   7.851  17.202  11.393
23014W        W86947  19.535  34.896   2.693
23015W        W86948  23.550  33.985  11.436
23016W        W86949  18.203   8.192  14.370
23017W        W86950   0.462   5.300   2.768
23018W        W86951  43.934  22.691  14.966
23019W        W86952   1.432   1.944  11.375
23020W        W86953   9.753  18.251  14.840
23021W        W86954  37.907  14.798   3.724
23022W        W86955  14.768  12.178   1.857
23023W        W86956   9.266  17.590  13.791
23024W        W86957  11.727   1.769   0.768
23025W        W86958  29.578   6.373   0.772
23026W        W86959  34.528  27.107  13.950
23027W        W86960  42.517  17.116  12.356
23028W        W86961  19.594  36.983   2.673
23029W        W86962  21.188   9.294   0.747
23030W        W86963  30.434  16.195   1.888
23031W        W86964  42.282  16.299   3.326
23032W        W86965   3.758  15.606  12.532
23033W        W86966   3.891  43.395   0.246
23034W        W86967   0.936  14.699  10.927
23035W        W86968   4.412   0.368   1.911
23036W        W86969  17.625  28.097   2.207
23037W        W86970   5.332  44.453  12.915
23038W        W86971  44.907  24.119   4.718
23039W        W86972   1.394  21.721   1.750
23040W        W86973  29.951  28.000   0.259
23041W        W86974  24.503  13.787  12.499
23042W        W86975  12.616  14.772  10.413
23043W        W86976  28.619  43.803   0.949
23044W        W86977  30.994  22.588   0.293
23045W        W86978   6.923  24.011   4.702
23046W        W86979   9.287  34.603   1.876
23047W        W86980  26.033   1.306  12.966
23048W        W86981  44.824   4.353   0.861
23049W        W86982  38.063  22.222   3.331
23050W        W86983   8.842   9.750   0.904
23051W        W86984   6.365  30.606   5.139
23052W        W86985  16.249   7.362   1.431
23053W        W86986  14.103   6.241   3.285
23054W        W86987  23.672  23.658  11.949
23055W        W86988  28.533   5.851  12.483
23056W        W86989   1.866  23.587   2.733
23057W        W86990  38.967  27.497  12.979
23058W        W86991   7.172  37.855   2.309
23059W        W86992  33.072   8.270  10.594
23060W        W86993  42.948   5.736   2.316
23061W        W86994  31.940  21.065  14.018
23062W        W86995   2.931  12.173   2.397
23063W        W86996  37.547  44.795   4.134
23064W        W86997  13.782  42.958   2.789
23065W        W86998  33.434  19.733  10.100
23066W        W86999   9.389   8.264  12.972
23067W        W87000   3.932  27.021  11.956
23068W        W87001  27.058  16.120   3.677
23069W        W87002  34.020   8.309   0.910
23070W        W87003  20.122   2.959  12.355
23071W        W87004   0.766  15.722  12.523
23072W        W87005  15.590   5.209   1.802
23073W        W87006  21.712  34.080   1.248
23074W        W87007  11.323  33.542   1.235
23075W        W87008  37.044  24.030  14.800
23076W        W87009  44.771  32.414  11.428
23077W        W87010  36.366   9.338   1.769
23078W        W87011   6.911  20.637  10.404
23079W        W87012  12.271  25.138  10.595
23080W        W87013   0.827  29.104   4.204
23081W        W87014   4.366  27.670  11.532
23082W        W87015   4.811  31.047  14.977
23083W        W87016  39.475   1.789  13.940
23084W        W87017  39.011  20.198  12.975
23085W        W87018  34.119  36.540   1.390
23086W        W87019  25.997   7.898   1.303
23087W        W87020   1.742  29.628   1.363
23088W        W87021  28.133   1.831  10.485
23089W        W87022  41.293   8.673   1.299
23090W        W87023  23.095  40.353   4.684
23091W        W87024  11.219  27.185   3.306
23092W        W87025  25.483   9.208   4.178
23093W        W87026  27.617  33.534  14.438
23094W        W87027   2.947  35.959   2.236
23095W        W87028  42.998   8.827  14.877
23096W        W87029   8.892  21.023  11.000
23097W        W87030   1.853   0.265   2.712
23098W        W87031  36.403  33.513   2.744
23099W        W87032  25.612  42.790  10.059
23100W        W87033  38.348   0.410   0.282
23101W        W87034  32.029  42.781  14.862
23102W        W87035  29.934  20.204   3.339
23103W        W87036  37.478  29.600  10.491
23104W        W87037  33.880   5.817  13.894
23105W        W87038  26.067   5.711   0.379
23106W        W87039  35.908  19.087   1.846
23107W        W87040  18.256   9.385  14.946
23108W        W87041  30.617  11.684   3.204
23109W        W87042  36.054  37.063   1.824
23110W        W87043   2.282  33.615   3.742
23111W        W87044  37.050  15.619   4.258
23112W        W87045  15.182  16.203  13.843
23113W        W87046  13.638  34.570   2.758
23114W        W87047  10.353  17.628   3.318
23115W        W87048  30.027  44.379  13.942
23116W        W87049  10.695   7.718   2.286
23117W        W87050  40.484   9.241   3.176
23118W        W87051  11.737  13.280   0.805
23119W        W87052  27.589  14.102  13.948
23120W        W87053  44.812   6.312   0.914
23121W        W87054  13.162  25.615  13.873
23122W        W87055  37.573  33.005   1.815
23123W        W87056   1.954  10.317   2.247
23124W        W87057  24.087  22.188   0.474
23125W        W87058  38.000  10.738  13.885
23126W        W87059   7.910   9.780  10.930
23127W        W87060  20.210  38.895   0.471
23128W        W87061   5.331  44.474   0.861
23129W        W87062  44.761  34.979   3.310
23130W        W87063  21.258   4.755  10.893
23131W        W87064   8.657  35.977  13.496
23132W        W87065  17.723  15.640  13.987
23133W        W87066  29.074  30.015   3.384
23134W        W87067   7.372  38.327  14.912
23135W        W87068  37.976  33.598  12.478
23136W        W87069  15.164  38.004   0.393
23137W        W87070  34.086  37.376   3.662
23138W        W87071  18.183   8.265  12.367
23139W        W87072   7.725   2.745   1.896
23140W        W87073  31.494  17.116   0.953
23141W        W87074  18.599  44.264   3.813
23142W        W87075  30.544  25.024  13.335
23143W        W87076  22.702  39.907   2.304
23144W        W87077   4.797   9.215   0.960
23145W        W87078  44.005   7.184  12.915
23146W        W87079  28.490   3.334   4.751
23147W        W87080  16.761  11.275   0.309
23148W        W87081  27.942  34.869  14.944
23149W        W87082  43.939  42.514  13.452
23150W        W87083  12.116  40.380  13.926
23151W        W87084   2.426  44.757   0.802
23152W        W87085  10.247  42.362  11.869
23153W        W87086  44.844  33.468   2.388
23154W        W87087   9.302   2.909   5.765
23155W        W87088   8.179  13.344  12.368
23156W        W87089  43.844  21.519   1.852
23157W        W87090  32.482   2.356   3.790
23158W        W87091   0.763  19.741  14.013
23159W        W87092  22.059  28.938  14.846
23160W        W87093  33.121  26.644   2.221
23161W        W87094  27.558  35.976  14.976
23162W        W87095  38.006  18.701  14.484
23163W        W87096   7.857  15.126   4.637
23164W        W87097  44.343  11.660  12.537
23165W        W87098  27.181  14.149  13.930
23166W        W87099  22.571   8.333   2.840
23167W        W87100  41.527  11.292  14.842
23168W        W87101   2.891  43.329  10.409
23169W        W87102  16.737  17.289   3.650
23170W        W87103   7.677   9.216  14.349
23171W        W87104  44.830  35.581   9.650
23172W        W87105  25.501  34.088   0.449
23173W        W87106   6.426  26.672   0.339
23174W        W87107  25.979  40.919   0.392
23175W        W87108   7.872   0.485   0.453
23176W        W87109  32.467   2.228  10.623
23177W        W87110  42.888  15.212  11.579
23178W        W87111  32.573  44.986  10.577
23179W        W87112  34.391  29.157   4.609
23180W        W87113  23.068  29.013  11.903
23181W        W87114  23.714  28.037   4.614
23182W        W87115  36.530  15.297   2.898
23183W        W87116  42.344   5.399   1.720
23184W        W87117  10.378  29.958  11.012
23185W        W87118  16.752  35.978  12.913
23186W        W87119  14.317  23.685  12.863
23187W        W87120   3.361  37.580   4.129
23188W        W87121   7.251  12.356  12.944
23189W        W87122  34.461  36.539  12.897
23190W        W87123   0.762  43.816   1.291
23191W        W87124  43.303   9.155   4.256
23192W        W87125   2.757   2.790  11.471
23193W        W87126   9.345  42.447  12.528
23194W        W87127  30.131   9.362  13.063
23195W        W87128  23.683  29.610  14.452
23196W        W87129  12.163  41.806  13.969
23197W        W87130  38.873  43.970  11.878
23198W        W87131  25.190  26.192  13.880
23199W        W87132  20.599  35.591   3.277
23200W        W87133  20.716  41.407   3.184
23201W        W87134  28.570  15.243   0.961
23202W        W87135   8.314  27.561   2.771
23203W        W87136  24.975  21.754  13.049
23204W        W87137   4.883  34.965  12.518
23205W        W87138  17.562  33.906  10.473
23206W        W87139  40.500  20.728  11.013
23207W        W87140  24.583   0.274   2.847
23208W        W87141  25.605  31.066  13.326
23209W        W87142  13.832   8.703   3.222
23210W        W87143  39.468  37.986   3.860
23211W        W87144   6.824  12.752   0.475
23212W        W87145  26.629  34.429  13.032
23213W        W87146  23.069  16.234   4.279
23214W        W87147  24.560  25.963  14.939
23215W        W87148   6.249  23.033  13.418
23216W        W87149  44.778  11.867   1.851
23217W        W87150   3.343  19.646   2.748
23218W        W87151  24.990  43.470  11.385
23219W        W87152  18.067  36.540   2.215
23220W        W87153  44.924   9.267  12.948
23221W        W87154  26.998  21.556  10.431
23222W        W87155  41.330  36.929  12.057
23223W        W87156  15.592  39.018   0.869
23224W        W87157  42.905   5.238   3.770
23225W        W87158  30.984  39.455   4.800
23226W        W87159   0.298   5.302  11.063
23227W        W87160  25.208  14.643  13.866
23228W        W87161  44.792  40.990   3.723
23229W        W87162  27.460  20.226  11.098
23230W        W87163  42.479  27.981   3.311
23231W        W87164   3.890  36.591   3.834
23232W        W87165   9.651  18.771   3.725
23233W        W87166  40.938  30.012  12.053
23234W        W87167  40.998   3.776  13.468
23235W        W87168  42.972  42.379  14.332
23236W        W87169  15.116  38.486   4.338
23237W        W87170   4.320  44.895  14.865
23238W        W87171  14.631  43.464   2.893
23239W        W87172  28.023  26.158   4.241
23240W        W87173  24.138  20.234  13.462
23241W        W87174  33.562  41.495   1.436
23242W        W87175   8.713   5.849   0.262
23243W        W87176  27.014  34.391   1.342
23244W        W87177  31.487  42.370  14.435
23245W        W87178   4.826   4.418   9.561
23246W        W87179  37.927  20.708  12.361
23247W        W87180  12.241  11.255   3.700
23248W        W87181  25.680   0.356  13.821
23249W        W87182   1.354  42.308   4.824
23250W        W87183  24.017  38.568  10.437
23251W        W87184  25.593  41.360  13.539
23252W        W87185  43.368  37.021  11.875
23253W        W87186  22.678  44.303  14.829
23254W        W87187  36.957  18.708  13.485
23255W        W87188  26.660  29.442   1.838
23256W        W87189  40.895  42.462   4.601
23257W        W87190  39.440  37.522   3.328
23258W        W87191  12.176  38.479  13.540
23259W        W87192  37.455  21.588   3.241
23260W        W87193   9.152  18.089  12.898
23261W        W87194  22.583   6.883   2.848
23262W        W87195  10.851   0.266  12.866
23263W        W87196  20.580  26.003  12.885
23264W        W87197  41.952  28.094   4.785
23265W        W87198  13.626   7.810   2.232
23266W        W87199   2.469  23.503  14.818
23267W        W87200  15.161  16.255  10.135
23268W        W87201  22.096  25.659   0.429
23269W        W87202  41.897  11.741  13.370
23270W        W87203  25.005  40.451  13.379
23271W        W87204   0.949  39.025   3.776
23272W        W87205  26.075  37.549   1.815
23273W        W87206  38.447   6.366   3.660
23274W        W87207  24.508  25.681   0.736
23275W        W87208  30.522   4.719   0.888
23276W        W87209  23.568  25.600  13.446
23277W        W87210  11.164  33.059  11.421
23278W        W87211  15.181   0.983  10.502
23279W        W87212  38.456  13.126  14.382
23280W        W87213   9.769  17.792   4.709
23281W        W87214  25.673  35.431   0.476
23282W        W87215  28.611  15.596   4.208
23283W        W87216  24.716  38.819   2.887
23284W        W87217  20.727  15.789  10.582
23285W        W87218  44.486   4.860   4.240
23286W        W87219   9.687   6.873  10.955
23287W        W87220  27.161   6.714  13.412
23288W        W87221  29.949  42.000   4.652
23289W        W87222  40.846  39.409  10.517
23290W        W87223   1.362  33.030  13.454
23291W        W87224  44.497  13.121  11.533
23292W        W87225  15.807  43.271   5.139
23293W        W87226  18.647  36.420  11.871
23294W        W87227  15.208  13.673   0.382
23295W        W87228   0.977  42.955   2.808
23296W        W87229  31.586  38.561  11.612
23297W        W87230  10.739  34.101  12.887
23298W        W87231  30.093  16.626   3.304
23299W        W87232  22.722  27.133   3.210
23300W        W87233  36.360  19.719   4.675
23301W        W87234  38.427  23.554  12.079
23302W        W87235  38.990  16.199   1.280
23303W        W87236   8.681  42.405   3.244
23304W        W87237  30.034  25.157   3.833
23305W        W87238  40.390  43.405  10.963
23306W        W87239  32.441  32.016  12.828
23307W        W87240  15.302  19.534   3.190
23308W        W87241  23.515  44.999   2.319
23309W        W87242   6.311  37.451   4.152
23310W        W87243  34.512   3.743  13.406
23311W        W87244  22.109  37.407   0.260
23312W        W87245   3.785  29.924   1.894
23313W        W87246  22.150  37.908  14.871
23314W        W87247  25.068  33.981   3.350
23315W        W87248  33.109  44.290  14.987
23316W        W87249  18.764   8.312   2.242
23317W        W87250  34.001   8.255  11.403
23318W        W87251  20.091  26.483   2.201
23319W        W87252  44.408  22.597  11.090
23320W        W87253  38.527  38.335  14.426
23321W        W87254  21.665  24.186  12.007
23322W        W87255  35.464   7.857  13.495
23323W        W87256  34.588  34.017  13.917
23324W        W87257  36.460  34.582  12.892
23325W        W87258  40.909  12.313  14.773
23326W        W87259   5.216  27.174   4.821
23327W        W87260  24.093  13.695  11.023
23328W        W87261  39.349  37.944   2.806
23329W        W87262   7.751  28.583   3.198
23330W        W87263  30.615  37.045   0.427
23331W        W87264   3.403  32.604  14.436
23332W        W87265  24.029   8.682   3.235
23333W        W87266  19.663   9.868  11.592
23334W        W87267  34.403  23.119   2.753
23335W        W87268  33.482  36.931   1.371
23336W        W87269  25.534  12.177   4.171
23337W        W87270  26.986   5.890   0.378
23338W        W87271  18.740  21.070  13.339
23339W        W87272  19.152   8.788  14.981
23340W        W87273   5.888  23.658   3.856
23341W        W87274   0.408  35.561   1.877
23342W        W87275  17.283  21.191  14.792
23343W        W87276   0.855  41.870   1.344
23344W        W87277  39.965  27.469   3.665
23345W        W87278  14.156  39.464   9.921
23346W        W87279  41.033   5.219  13.925
23347W        W87280  30.417  33.407   3.267
23348W        W87281  31.634  12.258  11.917
23349W        W87282  44.894  18.654   0.353
23350W        W87283  17.206  26.084  14.797
23351W        W87284  11.720  15.757  13.484
23352W        W87285  35.926  16.181  13.330
23353W        W87286  33.995  35.488  11.880
23354W        W87287  22.582  18.744  12.477
23355W        W87288  41.303   6.851  10.445
23356W        W87289  10.369   1.458  14.988
23357W        W87290  23.705   3.273   1.393
23358W        W87291   2.794  43.338   0.733
23359W        W87292  36.097  14.788   5.229
23360W        W87293  22.123   4.703  11.479
23361W        W87294  28.073  37.434  10.920
23362W        W87295   3.329   9.833   3.343
23363W        W87296  23.990  28.013  12.441
23364W        W87297  28.607  34.880   1.358
23365W        W87298  40.825  15.235  11.571
23366W        W87299  27.018  38.986   1.274
23367W        W87300   0.843  39.390  14.503
23368W        W87301  22.187  38.501   3.195
23369W        W87302  15.792  22.014  11.498
23370W        W87303  41.431  36.954  12.526
23371W        W87304  28.675  11.277   3.371
23372W        W87305   5.397   2.308   0.844
23373W        W87306   9.753  42.987  13.479
23374W        W87307  38.325   8.865   3.808
23375W        W87308  22.039  15.094  13.845
23376W        W87309  31.433  27.998  13.363
23377W        W87310  38.554  34.575   2.760
23378W        W87311  27.135  21.119  13.963
23379W        W87312  39.018  19.181   2.265
23380W        W87313  15.615   8.715   4.168
23381W        W87314  18.577   4.748   4.625
23382W        W87315  34.418  30.939  13.422
23383W        W87316   2.919  15.649  12.016
23384W        W87317  40.482  22.577  14.908
23385W        W87318  28.630  36.043  14.762
23386W        W87319  12.753  28.521  13.919
23387W        W87320  38.454  43.445   1.769
23388W        W87321   1.329  38.956   3.686
23389W        W87322  16.652  26.507  13.497
23390W        W87323  26.028  29.548  11.102
23391W        W87324  34.110  33.525   2.328
23392W        W87325  35.559  24.215   4.255
23393W        W87326  25.070  15.754   4.727
23394W        W87327   8.713  13.805   2.790
23395W        W87328  23.064  41.400   2.689
23396W        W87329   3.251  10.790  12.065
23397W        W87330  36.376   4.810   4.651
23398W        W87331   6.308  36.439   0.935
23399W        W87332   1.239  27.523   2.217
23400W        W87333  44.836  15.640  14.761
23401W        W87334   1.828   8.230  12.477
23402W        W87335  30.538  44.758  12.935
23403W        W87336  44.303   0.971  13.520
23404W        W87337  35.998  44.811  14.014
23405W        W87338  23.639  12.690  10.521
23406W        W87339  10.784  33.893   3.708
23407W        W87340   9.684  10.176  13.537
23408W        W87341  41.502   6.427  11.498
23409W        W87342  39.369  12.350   4.165
23410W        W87343  40.885  35.928   4.311
23411W        W87344  36.520   7.216  10.117
23412W        W87345  43.449  20.227   1.427
23413W        W87346  30.052  24.040  11.088
23414W        W87347   5.797  28.936  13.960
23415W        W87348  20.129   7.807   4.126
23416W        W87349  11.264  36.921  12.549
23417W        W87350   0.342  15.238  12.039
23418W        W87351  29.638  39.480   1.870
23419W        W87352  37.426  13.141  12.941
23420W        W87353  25.132  16.748   1.722
23421W        W87354  40.831  29.467  13.390
23422W        W87355  26.479   1.795   5.116
23423W        W87356  43.923  24.577  13.849
23424W        W87357   3.311   2.301   5.113
23425W        W87358  25.094  36.457   0.759
23426W        W87359   8.201   2.290   3.718
23427W        W87360   5.432  11.696   1.811
23428W        W87361  17.147  31.473  12.508
23429W        W87362  42.962  30.062   4.632
23430W        W87363   7.393   4.311  11.458
23431W        W87364  33.030  11.188  10.554
23432W        W87365   5.231  42.288   0.443
23433W        W87366   0.971   8.790  10.007
23434W        W87367   3.956  23.603   1.782
23435W        W87368   7.375  37.488   2.722
23436W        W87369  39.899  28.034  12.536
23437W        W87370  32.986   5.780   0.252
23438W        W87371  25.979  42.509   5.088
23439W        W87372  13.752  44.908   3.282
23440W        W87373  19.109  33.486  14.512
23441W        W87374  19.142  14.277  13.854
23442W        W87375  43.272   1.301   2.824
23443W        W87376  23.998  12.655  10.526
23444W        W87377   9.845  31.475   3.816
23445W        W87378  20.273  24.097   3.793
23446W        W87379  40.315  18.175   1.215
23447W        W87380   1.347  20.581   2.780
23448W        W87381   0.953  23.690  14.018
23449W        W87382  18.679  15.693   0.294
23450W        W87383  17.247   9.867   1.867
23451W        W87384  16.228   0.845  12.086
23452W        W87385  23.190  27.152  11.534
23453W        W87386  27.470  38.852  12.991
23454W        W87387   0.367   4.222  12.553
23455W        W87388  23.991  24.685   1.316
23456W        W87389   8.235  10.862  14.031
23457W        W87390  34.509  25.588  10.947
23458W        W87391  44.488  26.958   1.390
23459W        W87392  16.576  33.386  13.433
23460W        W87393  23.199   6.762   4.661
23461W        W87394  21.728  24.630   2.776
23462W        W87395  26.469  14.700   1.735
23463W        W87396   1.794  44.302  10.467
23464W        W87397  15.693  15.797  14.414
23465W        W87398  19.216   7.821  14.348
23466W        W87399   3.727  42.318   0.885
23467W        W87400   2.892  35.443  10.581
23468W        W87401   1.796  31.083   1.288
23469W        W87402  24.564  36.564   3.308
23470W        W87403   1.336   5.862  12.972
23471W        W87404  42.843  21.063  12.981
23472W        W87405  36.567  41.430  11.114
23473W        W87406   7.323  27.098   1.350
23474W        W87407  14.156  31.029   4.212
23475W        W87408  44.759  30.119   4.272
23476W        W87409  10.851  32.049  14.308
23477W        W87410  35.570  21.536  11.969
23478W        W87411   1.355  25.994  12.960
23479W        W87412  24.170  41.963   0.966
23480W        W87413   0.878   0.253  14.848
23481W        W87414  25.476  19.212  11.861
23482W        W87415  20.568  33.934  14.881
23483W        W87416   0.259  31.082   2.663
23484W        W87417  39.907  25.996   3.213
23485W        W87418  25.627  28.046   1.771
23486W        W87419  26.467  32.411   2.850
23487W        W87420  41.860  43.802  12.886
23488W        W87421  18.544  43.433   4.598
23489W        W87422  41.447  34.954   1.368
23490W        W87423  31.422  32.623  13.521
23491W        W87424  26.475  28.589  14.831
23492W        W87425  43.427   4.707  13.876
23493W        W87426  27.551   3.711   4.620
23494W        W87427   8.272  43.505   1.884
23495W        W87428  15.579  28.675   1.863
23496W        W87429  30.421  20.269   2.707
23497W        W87430  23.568  17.795  12.488
23498W        W87431  18.072  10.190   0.388
23499W        W87432  28.532  31.433   4.759
23500W        W87433  41.925  30.968   3.203
23501W        W87434   6.793  12.722  10.974
23502W        W87435  27.612  40.921  12.903
23503W        W87436  28.534  33.880  13.061
23504W        W87437  37.037  12.685   2.345
23505W        W87438  28.449   3.828   0.300
23506W        W87439  42.474  28.531   0.928
23507W        W87440  29.139   8.259  11.016
23508W        W87441   4.417  23.109   0.292
23509W        W87442   7.229  15.120  10.455
23510W        W87443   7.814  41.793   2.735
23511W        W87444  21.079  27.549  10.960
23512W        W87445  41.503   2.792  12.442
23513W        W87446  42.877  13.172  12.024
23514W        W87447  16.235   6.759   4.137
23515W        W87448  40.045  11.225   2.769
23516W        W87449  30.100   5.795  12.565
23517W        W87450  36.478  31.020   4.154
23518W        W87451  33.908  24.101   0.866
23519W        W87452  17.292   5.438  14.804
23520W        W87453  13.710  25.004  14.463
23521W        W87454  43.939  15.625  12.989
23522W        W87455  18.553  19.041   3.180
23523W        W87456  15.115  10.766   3.255
23524W        W87457  42.882  12.191   4.837
23525W        W87458  41.421  18.288  14.769
23526W        W87459  30.976  15.187  14.989
23527W        W87460  22.686  15.641   2.285
23528W        W87461   5.235  38.434  11.115
23529W        W87462  24.149  34.017  11.478
23530W        W87463  18.656  19.104   4.811
23531W        W87464  19.729  42.991   0.903
23532W        W87465  16.769  15.770   1.294
23533W        W87466   1.262  16.580   2.370
23534W        W87467   0.847  21.513   1.711
23535W        W87468  43.818  15.257   4.352
23536W        W87469   4.397   8.291  12.842
23537W        W87470  26.691   2.784  12.978
23538W        W87471   6.422   4.887  11.043
23539W        W87472  28.945  41.477   1.341
23540W        W87473   4.731   2.380   1.236
23541W        W87474  25.666   6.351   4.743
23542W        W87475   9.800  44.936  14.010
23543W        W87476  13.679  30.523  14.491
23544W        W87477  36.437  22.189  14.824
23545W        W87478  24.595  24.161   1.404
23546W        W87479  15.263  28.535  12.949
23547W        W87480   6.376  34.488   9.925
23548W        W87481  25.576  23.213   1.233
23549W        W87482  39.042  41.981  10.086
23550W        W87483  17.089  44.882   2.795
23551W        W87484  29.591  19.620  11.473
23552W        W87485  25.495  29.659   2.695
23553W        W87486  27.640  37.027   4.744
23554W        W87487  15.614   1.357   2.365
23555W        W87488  14.207   1.744  10.512
23556W        W87489  44.276   4.887  10.040
23557W        W87490  24.636   8.245   9.476
23558W        W87491  20.559  10.292   3.222
23559W        W87492  44.008  19.128   0.281
23560W        W87493  39.995  21.601  14.021
23561W        W87494  12.302  23.704   0.780
23562W        W87495  42.914   3.794  12.364
23563W        W87496  23.076   1.922   1.431
23564W        W87497   2.725   2.726   4.246
23565W        W87498  23.091  13.714  14.985
23566W        W87499  37.846  34.960   2.304
23567W        W87500  41.501  34.891  12.060
23568W        W87501   4.414  13.666   3.715
23569W        W87502   8.190   0.449  13.834
23570W        W87503  21.139  38.387   9.980
23571W        W87504   4.765  22.132  10.420
23572W        W87505  18.061  36.851  14.286
23573W        W87506  11.831  21.550  11.425
23574W        W87507   0.886  12.723  10.043
23575W        W87508  13.299   6.769   3.240
23576W        W87509  30.951  24.017   2.195
23577W        W87510  13.801  25.572  14.448
23578W        W87511  21.670  21.535  12.539
23579W        W87512  32.920  28.095  13.799
23580W        W87513  22.551  15.109   2.300
23581W        W87514  31.597  37.525   4.195
23582W        W87515  10.797  18.177  12.495
23583W        W87516  29.427   1.781  12.841
23584W        W87517   9.370  29.091   0.861
23585W        W87518  37.394  36.976   1.792
23586W        W87519  19.187   1.334   2.382
23587W        W87520  20.229  38.851   1.742
23588W        W87521   7.352  34.513   3.768
23589W        W87522  39.353   4.233   2.717
23590W        W87523  14.240   8.374   1.337
23591W        W87524   5.804  36.378  11.374
23592W        W87525  24.187  31.405  14.879
23593W        W87526   2.243  25.693   1.709
23594W        W87527  30.495  14.613   2.259
23595W        W87528  19.203  40.448   4.652
23596W        W87529  14.689  44.430  13.021
23597W        W87530  11.718  37.542  14.397
23598W        W87531  25.978  39.503  14.845
23599W        W87532  20.258  20.563   4.259
23600W        W87533  27.049   6.182   1.857
23601W        W87534  20.044  33.598   0.391
23602W        W87535  21.057   9.805  13.394
23603W        W87536  20.735  44.418   1.828
23604W        W87537  38.374  41.006  13.962
23605W        W87538  17.573  32.500   2.877
23606W        W87539  27.070   0.277  13.953
23607W        W87540  41.382  11.664  12.571
23608W        W87541  38.365  34.478   0.776
23609W        W87542   9.658  42.351  10.551
23610W        W87543  14.621  36.987   4.224
23611W        W87544  11.237  32.544  14.873
23612W        W87545   3.257  38.522  10.615
23613W        W87546  14.325  29.662   1.380
23614W        W87547   7.365  11.856  11.895
23615W        W87548  43.293  23.180   0.811
23616W        W87549  39.904  22.202   1.868
23617W        W87550   9.259  40.798   0.862
23618W        W87551  43.799  19.231  10.556
23619W        W87552  20.547  30.973  11.037
23620W        W87553  37.409  18.111   0.750
23621W        W87554  35.530  27.030  13.471
23622W        W87555   8.686  29.472   0.854
23623W        W87556  19.126   2.818  11.055
23624W        W87557  40.306  34.015  11.860
23625W        W87558  41.509  14.263  14.460
23626W        W87559   8.787  23.130  13.810
23627W        W87560  24.107   6.788   0.825
23628W        W87561  19.234   0.326  12.505
23629W        W87562   6.295  43.299   1.795
23630W        W87563  40.363  36.564   3.728
23631W        W87564  30.104  22.042  10.475
23632W        W87565  24.186  18.283   4.120
23633W        W87566  11.265  31.920   4.226
23634W        W87567   3.357  26.133  10.448
23635W        W87568   1.441  41.293  12.462
23636W        W87569  44.475   2.239  11.095
23637W        W87570  22.086  43.305  12.008
23638W        W87571  33.579  37.498   3.681
23639W        W87572  32.986  17.656   1.263
23640W        W87573  21.525  26.516   2.180
23641W        W87574  42.358  32.531   3.327
23642W        W87575  13.684  16.200  14.819
23643W        W87576  37.579   2.322  12.481
23644W        W87577   2.267   5.400   4.765
23645W        W87578   8.661  13.837  12.866
23646W        W87579   8.402  10.380   3.267
23647W        W87580  28.620  15.690  14.019
23648W        W87581  24.097  14.645   1.253
23649W        W87582   0.897  11.746  13.479
23650W        W87583   8.792   0.436   0.329
23651W        W87584  36.916  15.733   3.652
23652W        W87585  11.825  26.981   2.803
23653W        W87586  12.127  24.547   2.350
23654W        W87587  23.995  20.163   4.665
23655W        W87588  19.066  43.495  10.997
23656W        W87589  41.033  29.068  10.939
23657W        W87590   8.772  29.025  14.891
23658W        W87591  38.379  40.895   0.934
23659W        W87592  22.073  38.493  13.821
23660W        W87593  38.992  23.025   3.808
23661W        W87594  20.157  44.318  14.420
23662W        W87595  35.873   8.771  11.961
23663W        W87596  25.627  41.881   0.459
23664W        W87597  32.629  44.428  11.085
23665W        W87598  13.243  29.463  11.538
23666W        W87599  16.625  25.127   2.836
23667W        W87600  20.117  37.950   0.822
23668W        W87601   2.472  40.888  14.772
23669W        W87602  22.081  40.890   4.201
23670W        W87603  13.122  11.651   3.145
23671W        W87604   1.343  15.744  10.976
23672W        W87605   0.319  29.462   1.271
23673W        W87606  19.279  23.607   1.712
23674W        W87607  10.372   6.921   0.857
23675W        W87608  13.647   2.830   1.258
23676W        W87609  15.727  11.702   2.820
23677W        W87610  43.308  21.214   2.749
23678W        W87611  35.438  11.847   4.727
23679W        W87612  19.156  28.002   3.294
23680W        W87613  26.634  23.225   0.843
23681W        W87614  16.659   8.855  14.987
23682W        W87615  15.276  13.200  14.276
23683W        W87616   4.273  11.802   3.281
23684W        W87617  13.702   4.829   1.864
23685W        W87618  41.886  32.024  13.458
23686W        W87619   7.707  29.656   4.653
23687W        W87620  24.020  21.218  12.945
23688W        W87621   4.836  11.303   3.326
23689W        W87622   4.802  42.943   1.874
23690W        W87623  28.136  44.824   4.213
23691W        W87624  42.450  31.478  12.578
23692W        W87625  28.458  33.999  14.022
23693W        W87626  13.128  31.570  14.988
23694W        W87627   7.242  34.051   4.642
23695W        W87628  44.759  28.186  10.017
23696W        W87629  19.105  19.761   2.820
23697W        W87630  14.108   3.316   0.341
23698W        W87631   4.211  26.620   3.147
23699W        W87632  35.592  18.172   0.764
23700W        W87633  11.159   2.243   1.858
23701W        W87634  12.822  21.033  11.073
23702W        W87635   4.269  18.219  14.833
23703W        W87636  20.557  27.080  14.451
23704W        W87637  27.046  17.172  12.437
23705W        W87638   3.762  42.348  10.546
23706W        W87639  19.184   8.259   0.861
23707W        W87640  40.945  26.592  13.870
23708W        W87641   8.389  32.125   0.727
23709W        W87642  13.631  32.457   4.604
23710W        W87643  44.957  38.568   0.446
23711W        W87644  40.477  11.781   4.648
23712W        W87645  25.598   4.249   2.743
23713W        W87646   5.910  42.782  12.864
23714W        W87647  40.490  24.677  12.844
23715W        W87648   0.453  42.935  14.946
23716W        W87649  42.855  38.052   5.164
23717W        W87650  34.993  11.720  12.924
23718W        W87651  26.988   1.295  12.409
23719W        W87652  35.095  13.835   2.676
23720W        W87653  44.955  12.647  13.909
23721W        W87654  11.793  32.012  10.568
23722W        W87655  31.987  18.252  13.412
23723W        W87656  13.799  36.929   2.235
23724W        W87657  25.501  27.044   2.343
23725W        W87658   3.741   5.248   3.798
23726W        W87659  19.240   7.685   1.805
23727W        W87660  16.784   9.175  13.879
23728W        W87661   1.392  10.336   1.785
23729W        W87662  34.450  26.122  11.475
23730W        W87663  19.552  40.945   4.796
23731W        W87664  39.979  40.890   2.307
23732W        W87665  40.330  36.983   3.690
23733W        W87666  33.390  19.069  14.488
23734W        W87667   1.457  32.437  13.522
23735W        W87668  22.516  25.105  13.485
23736W        W87669  13.753  14.786   3.775
23737W        W87670  15.249  33.075   3.278
23738W        W87671  36.461   8.783  12.861
23739W        W87672  36.419  11.681   0.966
23740W        W87673  24.220  23.034   0.947
23741W        W87674  36.923   0.757   2.739
23742W        W87675  13.233  39.328   0.257
23743W        W87676   0.481  14.189   1.935
23744W        W87677  22.127  13.152   2.806
23745W        W87678   9.245  12.757   4.228
23746W        W87679  36.006  30.148  11.008
23747W        W87680   1.969   8.358   0.812
23748W        W87681  39.809  35.581   1.881
23749W        W87682   8.879  41.530  12.843
23750W        W87683   1.272  11.736  13.377
23751W        W87684   3.786  32.010   1.312
23752W        W87685  14.192  24.995   2.344
23753W        W87686  12.161  44.880  13.938
23754W        W87687  33.090  30.107  11.545
23755W        W87688  20.579  23.546   0.839
23756W        W87689   0.347  30.159  12.441
23757W        W87690  29.469  44.416   2.845
23758W        W87691   3.893  43.775   0.762
23759W        W87692  28.526  36.390   0.476
23760W        W87693  25.102  27.018  13.851
23761W        W87694  27.105  25.128  12.444
23762W        W87695   9.363  15.298  11.083
23763W        W87696  43.959   2.227  14.364
23764W        W87697  26.679  20.078  13.524
23765W        W87698  11.749  25.962  12.028
23766W        W87699   3.746  30.088  10.933
23767W        W87700  35.079  32.986  12.366
23768W        W87701  13.199  15.135   3.767
23769W        W87702  15.184   4.314  11.998
23770W        W87703  43.830  28.545  12.377
23771W        W87704  37.866  35.870   5.257
23772W        W87705  31.647  29.565   4.352
23773W        W87706   8.846  22.240  11.970
23774W        W87707   3.896  17.288  14.976
23775W        W87708  17.629  32.559  14.823
23776W        W87709  28.054  35.509   3.170
23777W        W87710  14.282  33.533  12.485
23778W        W87711  14.201  20.749  11.879
23779W        W87712  32.543  35.525   0.787
23780W        W87713   2.871   6.864  14.508
23781W        W87714  32.067  16.245  13.860
23782W        W87715  16.643   0.789   0.814
23783W        W87716  28.526  21.567   2.350
23784W        W87717  12.144  42.930   1.835
23785W        W87718  16.296  35.532   0.301
23786W        W87719  28.123  40.976   2.812
23787W        W87720  38.471   3.810   3.851
23788W        W87721   6.377   2.831   9.651
23789W        W87722  22.681   3.842  11.919
23790W        W87723  23.665  17.167   4.809
23791W        W87724  13.282  38.984  10.152
23792W        W87725  25.609  12.691   2.741
23793W        W87726   1.735  27.940  14.415
23794W        W87727  15.649  36.494   4.134
23795W        W87728  44.373  34.873   3.304
23796W        W87729  32.588  40.828   0.747
23797W        W87730   6.849  23.220  10.150
23798W        W87731  44.942   6.829   2.244
23799W        W87732  10.188  11.798  11.959
23800W        W87733  31.613   7.828  11.978
23801W        W87734  42.446  19.667   0.258
23802W        W87735  13.158  40.493  11.964
23803W        W87736   8.187  18.203   4.121
23804W        W87737   1.907   2.891   0.792
23805W        W87738  16.075  35.061  11.407
23806W        W87739   3.709   9.796  11.470
23807W        W87740  18.240  26.458  12.041
23808W        W87741  21.674  39.924   2.274
23809W        W87742  31.415   1.748  10.994
23810W        W87743   4.788  26.115   4.677
23811W        W87744  35.363   2.829  11.081
23812W        W87745   8.384  37.442   4.304
23813W        W87746  12.166  29.969  12.894
23814W        W87747   8.846   0.400   4.618
23815W        W87748  38.002  33.028  12.951
23816W        W87749  18.270  23.705   3.156
23817W        W87750   2.910  11.832   1.308
23818W        W87751  19.213  20.654   2.887
23819W        W87752  32.130  27.692   3.765
23820W        W87753   8.357  17.169   3.362
23821W        W87754  27.043  14.150   1.350
23822W        W87755  35.889   6.250  13.873
23823W        W87756  11.634   4.728   0.769
23824W        W87757  32.059   0.930  13.802
23825W        W87758  32.523  24.026  12.973
23826W        W87759  26.574  35.049   2.190
23827W        W87760  24.185  40.311   2.682
23828W        W87761  17.627  28.948   1.783
23829W        W87762   3.442  11.141  13.929
23830W        W87763  18.180   8.855  14.866
23831W        W87764  23.158   6.359  11.079
23832W        W87765  20.266   1.827   5.118
23833W        W87766   8.186  36.514  10.421
23834W        W87767  25.694  26.032   2.380
23835W        W87768  24.599   8.189  11.027
23836W        W87769  11.270  39.453  12.506
23837W        W87770  14.218  17.680   2.865
23838W        W87771   6.366  18.063  10.449
23839W        W87772  16.299  40.329   0.432
23840W        W87773  38.474   0.871   4.317
23841W        W87774   5.438  27.482  13.805
23842W        W87775  28.635  11.696  14.831
23843W        W87776  40.953   4.732   4.656
23844W        W87777  44.803  13.635  12.514
23845W        W87778   5.366  38.840  14.303
23846W        W87779  23.171  41.380   3.233
23847W        W87780  15.253  40.966   4.777
23848W        W87781  31.595  22.556   0.939
23849W        W87782   8.191  40.507  13.896
23850W        W87783   3.922   0.747   4.319
23851W        W87784  29.635  38.879  11.496
23852W        W87785  37.548  18.773  13.876
23853W        W87786  39.377  32.544  12.874
23854W        W87787  33.953  17.672  11.963
23855W        W87788  41.337   4.356   3.680
23856W        W87789  28.640  13.819  12.912
23857W        W87790  33.008  13.179   0.415
23858W        W87791  40.498  25.480   1.367
23859W        W87792  17.753  11.339  12.911
23860W        W87793  30.456  16.172   0.341
23861W        W87794  14.681  42.812  10.496
23862W        W87795   5.199  38.037  10.570
23863W        W87796  38.896  43.897  14.484
23864W        W87797  43.819  41.352   0.363
23865W        W87798  33.506  19.771   4.193
23866W        W87799  17.673  27.166   2.345
23867W        W87800  24.545  20.208  12.444
23868W        W87801  41.366  16.087   2.318
23869W        W87802  39.064  44.415  13.964
23870W        W87803  27.160   0.470   3.236
23871W        W87804  16.298  44.954   1.407
23872W        W87805  28.579  25.172   1.340
23873W        W87806  41.839  44.843  10.914
23874W        W87807  15.112  21.203  11.989
23875W        W87808  20.061  11.190  11.882
23876W        W87809   7.206   3.821  11.562
23877W        W87810  28.148  17.713  13.375
23878W        W87811  12.688  27.544  11.119
23879W        W87812  36.541  31.053  13.867
23880W        W87813  24.689  35.395  11.471
23881W        W87814  21.740  18.157   4.716
23882W        W87815   1.907  19.618  10.969
23883W        W87816  41.501  42.357   1.414
23884W        W87817  25.554  13.246  13.364
23885W        W87818   7.413   2.801   3.699
23886W        W87819  19.181   6.244  13.531
23887W        W87820  33.489  17.792  11.050
23888W        W87821  43.936  21.126  12.978
23889W        W87822  31.907  11.329  14.772
23890W        W87823  38.007   9.645  13.044
23891W        W87824  31.458  40.415   0.815
23892W        W87825  32.555  40.315  13.429
23893W        W87826   6.824  34.447  11.941
23894W        W87827  21.727   0.890  14.487
23895W        W87828   9.730  29.028  13.889
23896W        W87829  19.597   4.892   4.314
23897W        W87830   5.415  23.224   3.750
23898W        W87831  17.244  41.519   0.463
23899W        W87832  31.949  33.427   3.733
23900W        W87833  28.598  31.417  13.370
23901W        W87834  21.735   8.341   1.247
23902W        W87835   1.441  37.540  12.008
23903W        W87836  18.237  22.583  14.970
23904W        W87837  12.125  21.619   4.732
23905W        W87838  27.663  38.880   1.299
23906W        W87839  43.942  44.286  12.938
23907W        W87840  26.702  29.919  13.336
23908W        W87841   0.929   2.263  13.545
23909W        W87842   7.803  36.074  10.574
23910W        W87843  38.400  11.188  11.970
23911W        W87844  34.372  16.239   2.799
23912W        W87845  43.392  39.854  13.824
23913W        W87846  27.646  22.098  11.413
23914W        W87847  14.148   7.275   0.334
23915W        W87848   5.709  20.644   0.830
23916W        W87849  42.003  44.376   2.239
23917W        W87850   1.338  27.619  12.037
23918W        W87851  37.469   1.239  12.849
23919W        W87852   6.681  17.663   1.449
23920W        W87853  15.146   8.661  10.631
23921W        W87854  17.116   7.194   4.784
23922W        W87855  31.446  33.604  12.442
23923W        W87856   8.293  14.226  11.610
23924W        W87857   1.483   4.896  11.063
23925W        W87858   9.293  36.568  11.055
23926W        W87859  44.446  28.154   0.445
23927W        W87860  30.161  35.422   0.866
23928W        W87861  17.709   5.767   3.749
23929W        W87862   4.238  26.467  13.416
23930W        W87863  11.221   9.356   3.822
23931W        W87864  26.186  16.232   2.248
23932W        W87865   4.794  19.251  13.397
23933W        W87866  44.756  17.654  10.960
23934W        W87867  17.068   9.843   0.796
23935W        W87868  13.138  32.014  10.070
23936W        W87869  21.573  34.600  10.890
23937W        W87870  42.857  32.533   2.802
23938W        W87871   2.251  35.076   1.771
23939W        W87872  30.004  34.381  14.978
23940W        W87873  44.757  21.093   4.201
23941W        W87874  30.537  23.544   4.284
23942W        W87875   7.237  29.443  10.485
23943W        W87876  40.847  43.811   3.854
23944W        W87877   5.740  43.512   2.278
23945W        W87878  23.117  16.578  14.821
23946W        W87879   1.340   1.454   0.324
23947W        W87880  20.699  26.123  12.026
23948W        W87881  35.902   5.334  11.003
23949W        W87882  22.585  19.714   1.385
23950W        W87883  35.394   3.216  11.543
23951W        W87884  29.660  32.915  13.048
23952W        W87885  11.835   6.861   0.738
23953W        W87886  31.070   4.258   2.718
23954W        W87887  15.654  28.457  13.898
23955W        W87888   3.760   7.870  12.991
23956W        W87889  40.049  12.305  10.592
23957W        W87890   2.810   4.786   1.915
23958W        W87891  34.432  32.974  12.577
23959W        W87892  11.255  24.112  12.551
23960W        W87893  18.725  26.688   0.730
23961W        W87894  26.109  10.714   3.299
23962W        W87895   7.903  22.094   4.273
23963W        W87896  22.650  12.341  10.988
23964W        W87897   2.739  35.438  12.995
23965W        W87898  10.797  32.007   0.870
23966W        W87899   4.750  33.882  13.014
23967W        W87900  20.665   3.419   0.890
23968W        W87901   9.744  34.432   0.856
23969W        W87902  31.026  15.305   2.727
23970W        W87903   8.308  14.209  12.058
23971W        W87904  44.825  30.160  12.497
23972W        W87905  16.109  22.008  14.466
23973W        W87906  27.168  18.059  14.968
23974W        W87907  44.398  20.705  14.030
23975W        W87908  19.606   4.744   1.852
23976W        W87909  10.280  26.695  13.370
23977W        W87910  28.025   6.212   2.715
23978W        W87911  20.532   3.772   3.676
23979W        W87912  13.308  38.903  11.896
23980W        W87913   8.299   3.216   9.495
23981W        W87914   7.841  10.819   3.657
23982W        W87915  28.940   2.455  12.386
23983W        W87916   7.402  16.739   3.201
23984W        W87917  44.001  13.650  13.883
23985W        W87918  19.133  20.691  11.406
23986W        W87919  35.875  40.031   3.355
23987W        W87920  31.521  21.191  12.052
23988W        W87921  16.763  29.595  12.093
23989W        W87922  20.670   8.245   4.727
23990W        W87923  36.478  17.073   9.934
23991W        W87924   3.745  27.458   1.858
23992W        W87925  17.798  33.455   4.795
23993W        W87926  19.125   0.980  13.360
23994W        W87927  20.130  32.527  13.368
23995W        W87928  36.405  24.533   2.234
23996W        W87929  27.518  26.552  11.464
23997W        W87930  36.045   1.824  10.586
23998W        W87931  22.130  16.688   1.408
23999W        W87932  13.743   8.219   0.726
24000W        W87933  18.705  36.506  13.041
24001W        W87934  16.303  18.733  12.403
24002W        W87935  34.551  20.083  12.437
24003W        W87936  38.457  23.515   4.717
24004W        W87937  43.355  19.702  11.541
24005W        W87938  27.482  36.954   3.288
24006W        W87939  31.005  17.301   5.216
24007W        W87940  10.673  37.888  13.996
24008W        W87941  37.873  42.860  10.510
24009W        W87942  36.977  15.741  13.448
24010W        W87943  18.738  36.914   3.146
24011W        W87944  10.244  26.571   2.861
24012W        W87945  44.272  18.626   0.773
24013W        W87946  33.970  17.659  13.963
24014W        W87947  44.442  13.138   3.384
24015W        W87948  22.637  37.042  11.874
24016W        W87949  43.933  11.749  10.415
24017W        W87950  35.571  12.776   0.395
24018W        W87951  44.788  31.991  14.408
24019W        W87952  33.907   7.272   0.865
24020W        W87953   8.269  39.836   1.393
24021W        W87954  42.779  42.326  11.477
24022W        W87955  44.969  12.258   4.163
24023W        W87956  38.908   7.670  11.955
24024W        W87957   4.406  28.978  14.849
24025W        W87958  39.967   4.337   0.381
24026W        W87959  24.147  44.916  12.992
24027W        W87960  20.109  10.314   3.700
24028W        W87961  23.678  12.657   3.771
24029W        W87962  11.274  30.040   2.882
24030W        W87963  26.989  12.841   0.895
24031W        W87964  26.662   0.450   1.880
24032W        W87965  36.953  42.802   4.162
24033W        W87966   9.369  14.729  13.851
24034W        W87967  41.899  11.192  11.608
24035W        W87968  25.707  17.166  11.859
24036W        W87969  31.095  25.633  14.001
24037W        W87970  33.465  25.110   4.765
24038W        W87971  15.296  27.612   4.764
24039W        W87972  26.509  39.046  12.831
24040W        W87973  33.613  13.332  10.633
24041W        W87974  42.819   6.294  13.474
24042W        W87975  23.564  27.988  14.955
24043W        W87976  28.976  41.393  13.507
24044W        W87977   9.154  15.167  12.843
24045W        W87978  37.861  44.864   1.231
24046W        W87979  10.781  18.551   3.643
24047W        W87980  14.638  17.637   3.339
24048W        W87981  40.939  38.028   1.747
24049W        W87982  38.945   2.402   5.245
24050W        W87983   8.262  29.612   3.263
24051W        W87984  28.664  10.647   2.665
24052W        W87985   4.394   6.810   0.299
24053W        W87986  25.672  27.063  11.857
24054W        W87987   2.742   7.807   3.858
24055W        W87988  24.181   5.864  12.466
24056W        W87989  34.455   6.185  12.470
24057W        W87990  29.017  25.108   3.698
24058W        W87991  31.571  33.061  14.928
24059W        W87992  34.506  44.773  11.022
24060W        W87993  14.183  44.274   0.842
24061W        W87994   9.171  26.126   4.280
24062W        W87995  20.730  28.511   4.605
24063W        W87996   1.739  36.567   2.387
24064W        W87997  11.793  41.859   0.762
24065W        W87998  27.012  15.795  13.990
24066W        W87999  35.936   1.883  12.064
24067W        W88000   9.881  27.553   3.376
24068W        W88001  18.578  24.622   4.351
24069W        W88002   0.771  38.547   4.316
24070W        W88003   9.198  43.898   1.903
24071W        W88004  34.604  40.837  12.045
24072W        W88005  30.060   2.824  14.419
24073W        W88006  18.129  16.123  14.430
24074W        W88007  25.211  23.126   4.200
24075W        W88008  42.965   9.175   5.103
24076W        W88009  43.903  35.965  14.391
24077W        W88010  17.751   3.785   0.817
24078W        W88011  34.505  10.340  14.296
24079W        W88012  23.230  19.746  13.519
24080W        W88013  11.326  18.791  12.900
24081W        W88014   7.877  42.334  14.375
24082W        W88015   8.854  15.779   5.082
24083W        W88016  38.456  22.177  12.042
24084W        W88017   9.187  41.367   3.766
24085W        W88018  35.487  38.986  11.919
24086W        W88019   9.700  39.481   1.368
24087W        W88020  34.402  39.339   3.803
24088W        W88021  25.128  43.292   9.515
24089W        W88022  35.853   0.899  10.922
24090W        W88023   1.381  14.768  14.315
24091W        W88024  33.021  42.848   0.448
24092W        W88025   2.360  12.241   2.353
24093W        W88026  11.314  40.539  14.961
24094W        W88027   5.227  32.964  14.979
24095W        W88028  28.507  28.119   4.831
24096W        W88029  37.842  19.756   1.837
24097W        W88030  17.246  27.569   0.830
24098W        W88031  14.621  26.952  12.485
24099W        W88032  42.378  22.203   4.643
24100W        W88033  28.493  20.757   3.266
24101W        W88034  21.628  42.520   1.295
24102W        W88035  26.557  37.990  13.795
24103W        W88036   1.929  30.153   4.776
24104W        W88037  17.792  24.485   2.671
24105W        W88038  30.069  33.992  12.550
24106W        W88039  13.351  12.639   0.885
24107W        W88040  36.046  43.406   2.897
24108W        W88041   9.659  11.708  11.032
24109W        W88042  43.014   1.830   2.671
24110W        W88043  22.569   9.691   1.837
24111W        W88044   5.397  15.596  13.463
24112W        W88045   9.869  12.779  11.992
24113W        W88046  21.686  26.029  11.079
24114W        W88047  16.238  39.365  12.088
24115W        W88048  32.908   1.843   1.382
24116W        W88049  30.020  38.337  11.076
24117W        W88050   6.276  18.084  12.439
24118W        W88051  39.529  24.180  11.954
24119W        W88052  16.198  14.656   3.335
24120W        W88053  23.098  29.153   2.226
24121W        W88054  39.939  31.636  13.855
24122W        W88055  30.048   7.688  13.383
24123W        W88056  23.228  23.698   1.366
24124W        W88057  10.365  37.576  12.051
24125W        W88058  20.107  43.902  13.407
24126W        W88059  30.467  43.851  12.564
24127W        W88060  30.576  17.158  14.974
24128W        W88061   5.861  44.303   1.711
24129W        W88062   2.259  35.967  11.116
24130W        W88063  27.157  40.027   0.737
24131W        W88064  32.109  20.703  12.492
24132W        W88065  40.377  13.123   3.286
24133W        W88066   0.961  33.486  12.360
24134W        W88067  17.660  18.141   0.864
24135W        W88068  34.392  31.112  14.429
24136W        W88069  10.818  17.136  12.525
24137W        W88070  12.850   4.447   0.781
24138W        W88071   1.253  38.367  13.539
24139W        W88072  35.908   4.705  14.388
24140W        W88073  29.970  16.791   0.453
24141W        W88074  36.581  32.903   2.342
24142W        W88075  20.155   0.952  12.946
24143W        W88076  32.919   7.911  14.436
24144W        W88077  23.528   9.738   3.161
24145W        W88078  20.725  24.151   2.692
24146W        W88079  27.947  27.527   1.842
24147W        W88080  44.473  10.855  11.483
24148W        W88081  41.839  43.934   3.242
24149W        W88082  30.498  29.496   2.803
24150W        W88083  44.819   5.780   1.214
24151W        W88084  35.878  43.888  12.925
24152W        W88085  28.129  43.796  12.062
24153W        W88086  28.948  35.514  14.835
24154W        W88087  44.888  13.283  14.514
24155W        W88088  43.312  20.698   3.741
24156W        W88089  21.629  41.349   1.917
24157W        W88090  38.399  19.619   3.328
24158W        W88091  35.970  18.198  11.422
24159W        W88092  24.690  38.505  11.017
24160W        W88093  30.447  25.598  13.841
24161W        W88094   8.809  14.671   3.825
24162W        W88095   4.921   5.416  10.975
24163W        W88096   7.297  31.970   1.892
24164W        W88097  27.020   9.661  14.938
24165W        W88098   3.855  35.099  10.642
24166W        W88099  19.135   8.246  11.068
24167W        W88100   2.829  22.232   2.820
24168W        W88101   3.908   3.794  13.018
24169W        W88102  39.505   2.434  13.818
24170W        W88103  40.917   4.841  14.459
24171W        W88104  32.053   2.899  14.946
24172W        W88105  10.812  43.821   4.824
24173W        W88106  41.349  32.599   3.830
24174W        W88107  43.880  40.971  13.040
24175W        W88108  41.378  13.322  12.041
24176W        W88109  41.859  32.916  10.961
24177W        W88110  15.269  38.485   3.146
24178W        W88111  14.624  21.262   3.806
24179W        W88112  22.203  31.012   1.253
24180W        W88113  36.884  33.004  13.323
24181W        W88114  26.056  14.296  13.914
24182W        W88115  16.123   7.361   3.669
24183W        W88116   6.685  25.559   1.875
24184W        W88117  11.163  15.790  11.462
24185W        W88118  30.031   0.777   2.816
24186W        W88119   5.328  28.000   2.782
24187W        W88120  30.091  10.317   3.163
24188W        W88121  37.409   6.205  14.767
24189W        W88122  21.551   0.311   3.191
24190W        W88123  22.586  36.405  14.377
24191W        W88124  12.196  33.589   0.369
24192W        W88125  44.954  35.576   2.729
24193W        W88126  15.094   2.363   1.393
24194W        W88127  43.277   7.244  13.435
24195W        W88128   5.743   7.266  12.569
24196W        W88129  24.020  29.020   1.445
24197W        W88130  19.585  22.057   3.261
24198W        W88131  44.343  34.964  13.038
24199W        W88132   8.214  39.499   3.259
24200W        W88133  34.590  41.326   0.334
24201W        W88134  39.529  22.650  10.449
24202W        W88135  38.539   5.889  11.375
24203W        W88136  41.427  13.338   0.868
24204W        W88137  12.744  32.933   2.717
24205W        W88138  30.011  41.464  11.984
24206W        W88139  40.404   6.210  11.424
24207W        W88140   3.795   7.349  13.948
24208W        W88141  33.508  17.066   1.437
24209W        W88142  18.142  22.101  13.040
24210W        W88143   1.734   0.919   3.837
24211W        W88144  13.341  21.172  13.387
24212W        W88145  33.403  24.649  11.005
24213W        W88146   6.355  11.172   1.332
24214W        W88147   0.478  35.080  10.438
24215W        W88148  22.026   4.854   1.418
24216W        W88149  11.129  24.009   1.739
24217W        W88150  24.216   1.946  11.401
24218W        W88151   2.441  36.514   4.667
24219W        W88152  38.889  23.008   1.436
24220W        W88153  36.445   9.389  10.949
24221W        W88154  16.811  14.825  11.921
24222W        W88155  11.868  35.891   1.280
24223W        W88156  40.837  35.941  12.448
24224W        W88157  43.352  36.049  14.960
24225W        W88158  27.135  12.684   1.263
24226W        W88159  24.176  21.572   3.299
24227W        W88160  22.029   3.888   4.164
24228W        W88161  35.475   0.378   1.709
24229W        W88162   4.230  15.651   0.772
24230W        W88163  42.445  33.107   1.729
24231W        W88164  23.007  31.995  10.626
24232W        W88165  24.721  35.935   1.325
24233W        W88166   1.437   4.312  10.908
24234W        W88167  33.065   8.385  13.889
24235W        W88168  30.972  28.463   0.415
24236W        W88169  28.078  21.184   1.851
24237W        W88170  11.775   9.839   0.787
24238W        W88171   7.858  17.273  10.445
24239W        W88172  29.624  19.131  10.976
24240W        W88173  33.457  21.667  11.487
24241W        W88174  15.769  38.035   4.690
24242W        W88175  11.702  36.369   4.696
24243W        W88176  24.029  12.150  11.472
24244W        W88177  16.660  28.500  13.334
24245W        W88178   0.478  30.066   4.114
24246W        W88179  26.456  39.392  12.878
24247W        W88180   7.821  39.876   0.849
24248W        W88181  30.532  38.521  13.884
24249W        W88182  17.800  26.053   1.439
24250W        W88183   5.867  43.846  13.801
24251W        W88184   0.347   0.314  10.469
24252W        W88185  24.662   0.382  11.999
24253W        W88186  42.367  34.439   0.946
24254W        W88187  31.425  36.561  14.888
24255W        W88188  16.245  16.770   2.368
24256W        W88189   3.407   5.734  13.794
24257W        W88190  20.718  38.391   2.754
24258W        W88191  32.391  25.670   2.334
24259W        W88192  38.012  30.578   1.888
24260W        W88193  10.269  36.441   1.217
24261W        W88194  26.025   1.882   2.839
24262W        W88195  11.266  33.980   2.717
24263W        W88196  40.902  37.970  14.459
24264W        W88197  21.688  18.220   1.809
24265W        W88198  38.326  15.137   2.341
24266W        W88199  32.629  35.398  11.376
24267W        W88200  25.586  13.633  14.861
24268W        W88201  11.295  13.322   1.703
24269W        W88202  23.010  26.010   3.382
24270W        W88203  38.463  11.745   4.698
24271W        W88204  12.317  24.645  10.430
24272W        W88205  37.523   0.848   4.634
24273W        W88206  15.293  34.371   4.266
24274W        W88207  39.988  11.185   3.688
24275W        W88208  30.038  44.453  12.392
24276W        W88209   7.850   7.799   4.248
24277W        W88210  28.148  19.242   1.316
24278W        W88211  27.531   9.825  11.032
24279W        W88212  19.685  37.881  14.926
24280W        W88213  36.558  14.682   2.873
24281W        W88214  10.240  40.509  11.128
24282W        W88215  28.632  38.973   0.250
24283W        W88216  10.656  15.693   4.697
24284W        W88217  43.975  19.613  11.600
24285W        W88218  34.396  31.109   4.702
24286W        W88219  33.580  26.572   3.677
24287W        W88220  39.037  32.094  12.440
24288W        W88221  41.408   4.258  14.448
24289W        W88222   8.799  33.552   0.368
24290W        W88223  28.933   6.326   1.238
24291W        W88224  12.235  43.306   2.359
24292W        W88225  35.375  27.532   0.363
24293W        W88226  24.676  12.300   5.090
24294W        W88227  28.503  26.558  12.916
24295W        W88228  11.323  40.863   1.283
24296W        W88229   5.284  12.652  10.575
24297W        W88230  11.281  25.019   2.673
24298W        W88231   5.347   6.415  12.443
24299W        W88232  13.332  44.891  14.326
24300W        W88233  42.019   1.398  11.964
24301W        W88234  15.191  34.061   1.899
24302W        W88235  20.051  14.652   1.774
24303W        W88236  42.492  13.318   0.910
24304W        W88237  24.686  24.505  14.420
24305W        W88238  10.698   2.278   4.613
24306W        W88239  37.884  29.599   4.240
24307W        W88240  36.068  14.250   2.246
24308W        W88241  39.555  17.614  13.520
24309W        W88242  16.179  10.237   3.238
24310W        W88243  18.556  33.913   2.251
24311W        W88244   0.781  16.076   2.737
24312W        W88245  29.016   1.362   1.351
24313W        W88246  28.462   0.304   2.752
24314W        W88247  27.688  35.000  11.436
24315W        W88248  24.690   1.858   3.159
24316W        W88249  42.448  23.716  10.948
24317W        W88250  33.121  30.656  14.432
24318W        W88251   0.400  28.640  14.486
24319W        W88252  44.504  26.095  10.935
24320W        W88253  36.350  14.260   5.194
24321W        W88254   3.712  28.990  13.855
24322W        W88255   0.972  26.979   2.769
24323W        W88256  14.653  39.487  13.489
24324W        W88257   9.738  28.087   0.960
24325W        W88258  11.808  13.143   3.636
24326W        W88259   2.326   9.338  10.596
24327W        W88260  44.408  20.064   0.936
24328W        W88261  42.515  25.612   0.383
24329W        W88262  21.116  14.278  10.143
24330W        W88263   2.266  17.074   2.379
24331W        W88264   9.880  35.053  13.429
24332W        W88265  31.098  30.523   3.855
24333W        W88266  37.562  17.769   3.846
24334W        W88267  14.661  17.133   0.285
24335W        W88268  17.211  19.538  14.937
24336W        W88269  33.395   9.882   2.687
24337W        W88270  16.760  43.905   3.375
24338W        W88271  16.725  38.552  13.342
24339W        W88272  17.257   8.394   1.306
24340W        W88273   3.738   7.858  13.370
24341W        W88274   7.170  30.625  11.448
24342W        W88275   5.258  39.509   2.210
24343W        W88276  40.879  40.310  11.115
24344W        W88277  40.328  18.177   2.667
24345W        W88278  39.559  24.158   4.266
24346W        W88279  12.827  12.275  12.073
24347W        W88280  32.450   3.866  13.848
24348W        W88281  32.451  18.106   5.244
24349W        W88282  36.940  24.212   3.380
24350W        W88283   5.371  36.854  12.018
24351W        W88284  41.302   6.858  14.443
24352W        W88285  13.748  41.513  12.878
24353W        W88286  29.513  20.148  14.767
24354W        W88287   2.294  13.655   5.791
24355W        W88288  38.342  12.655  14.810
24356W        W88289  28.172  40.881  12.525
24357W        W88290  22.248  42.461  11.903
24358W        W88291  20.732  22.522   1.808
24359W        W88292  32.596   4.883  11.382
24360W        W88293   1.470  17.145   3.709
24361W        W88294  42.834  20.039   4.747
24362W        W88295   2.298  23.066   3.276
24363W        W88296   2.859  35.933  13.858
24364W        W88297  37.487  40.854  12.376
24365W        W88298  16.767  13.776   3.308
24366W        W88299  12.324  40.909  11.420
24367W        W88300  21.158  44.338  14.469
24368W        W88301   9.153  40.991   0.361
24369W        W88302   6.795   6.804   0.449
24370W        W88303  27.059   1.376   2.412
24371W        W88304  33.624  43.774  10.479
24372W        W88305  29.439   9.243   4.332
24373W        W88306  14.278   2.844   0.868
24374W        W88307   1.342  32.044   4.227
24375W        W88308   7.808  19.758  13.820
24376W        W88309  37.061   5.217   3.207
24377W        W88310  22.661  27.049  11.452
24378W        W88311  29.612  38.039  14.515
24379W        W88312  17.737  34.379   2.804
24380W        W88313  43.875  21.690  13.016
24381W        W88314  43.848  31.408   4.244
24382W        W88315  11.636  18.788   3.750
24383W        W88316  38.045  26.032   3.705
24384W        W88317  16.118  19.214   1.352
24385W        W88318  29.436  17.723  12.088
24386W        W88319  13.123  15.763  14.386
24387W        W88320  10.325   8.748   2.757
24388W        W88321  33.000  27.505  11.901
24389W        W88322  33.889  15.777  11.940
24390W        W88323  21.657  26.966   9.639
24391W        W88324  19.627  20.715  13.381
24392W        W88325  21.121  32.886  10.969
24393W        W88326   0.289  35.983   3.295
24394W        W88327  44.998  13.329   2.181
24395W        W88328  13.806  29.959  14.973
24396W        W88329  39.865  29.049  12.532
24397W        W88330  16.773  35.387  14.393
24398W        W88331  43.346  30.152   4.802
24399W        W88332  37.478  26.577  14.758
24400W        W88333  24.028  43.874  12.544
24401W        W88334  27.166  40.315  14.890
24402W        W88335  10.206  24.118   2.380
24403W        W88336   7.176  30.638  14.806
24404W        W88337  31.497  11.360  14.379
24405W        W88338  30.996  17.674  14.293
24406W        W88339   7.292  25.700  14.846
24407W        W88340  11.202   5.389   1.892
24408W        W88341  20.162  12.149  12.355
24409W        W88342  14.717  29.083  10.956
24410W        W88343  13.317   8.837  10.938
24411W        W88344  26.650  35.098  12.075
24412W        W88345  12.726  11.743  14.871
24413W        W88346   7.311  18.242  13.846
24414W        W88347  11.321   7.668  11.038
24415W        W88348  11.846  22.184   3.691
24416W        W88349  38.897  28.021   1.840
24417W        W88350  18.064  40.351  12.880
24418W        W88351   4.712  38.886  12.410
24419W        W88352  29.058  33.035  13.518
24420W        W88353   4.872  25.168   1.760
24421W        W88354  43.002  26.607   1.820
24422W        W88355  40.369  15.800  13.852
24423W        W88356  36.846   6.376  12.387
24424W        W88357  14.262  39.345  12.358
24425W        W88358  11.683  31.439   0.791
24426W        W88359  44.309  11.361  12.006
24427W        W88360  20.749  37.373   2.684
24428W        W88361  20.261   1.966  13.037
24429W        W88362  28.030  43.862   0.445
24430W        W88363   8.682  17.719   3.660
24431W        W88364  24.667  29.010   2.876
24432W        W88365  18.606   3.329  14.854
24433W        W88366  42.403  43.963  14.494
24434W        W88367  39.460   6.292  11.443
24435W        W88368  26.047   7.864  12.069
24436W        W88369  29.575  31.945   1.371
24437W        W88370   3.417  12.337   2.823
24438W        W88371   9.260   1.378  12.045
24439W        W88372   6.818  16.103  13.536
24440W        W88373   8.669  22.193   4.310
24441W        W88374  39.038  40.885   0.843
24442W        W88375  17.563  29.945  13.044
24443W        W88376   9.303  24.536   0.441
24444W        W88377  27.119  20.549  11.567
24445W        W88378  24.700  13.302   4.816
24446W        W88379  29.120  34.394  10.910
24447W        W88380  11.282   4.350  13.054
24448W        W88381  29.425   8.833   3.854
24449W        W88382  11.171  18.609  10.580
24450W        W88383  44.762   5.877  12.563
24451W        W88384  17.076  41.925   9.676
24452W        W88385  31.129   2.419  14.477
24453W        W88386  14.272  27.688   2.342
24454W        W88387  16.660  41.460   4.293
24455W        W88388   3.409  14.310   2.210
24456W        W88389   2.370  39.029  10.541
24457W        W88390  28.146  31.569   4.640
24458W        W88391   5.854   3.716   2.671
24459W        W88392  21.067  15.780  10.546
24460W        W88393  28.494  12.320  12.552
24461W        W88394  33.433  36.052   4.751
24462W        W88395  38.513  27.537   0.276
24463W        W88396  36.062   0.967  11.858
24464W        W88397  39.996  39.369  12.446
24465W        W88398   8.273   8.744  10.547
24466W        W88399   4.781  20.631  14.942
24467W        W88400  26.078   7.344   0.408
24468W        W88401   7.231  29.456   5.199
24469W        W88402   1.751  18.739   0.933
24470W        W88403  29.570  42.342  10.111
24471W        W88404  11.297  29.502   4.661
24472W        W88405   4.304  17.072  11.439
24473W        W88406  26.102   6.769  14.805
24474W        W88407  37.024  31.948   4.285
24475W        W88408  16.214  40.977   4.318
24476W        W88409  15.230   6.807   1.909
24477W        W88410  33.901  18.132   0.936
24478W        W88411   4.749  40.894  13.363
24479W        W88412   8.333  35.394   2.258
24480W        W88413  34.478  28.629  11.513
24481W        W88414  12.342  35.027   3.736
24482W        W88415  27.029   4.208   4.262
24483W        W88416  14.718   5.355  11.571
24484W        W88417   9.852  24.200  12.387
24485W        W88418  11.212  22.532   3.674
24486W        W88419  26.112  16.633  12.433
24487W        W88420   6.706   1.402  10.578
24488W        W88421  35.042  17.711   3.166
24489W        W88422   3.369  21.026   0.397
24490W        W88423  42.426  23.632   0.938
24491W        W88424  10.652  26.523   1.387
24492W        W88425  38.933  10.157   1.399
24493W        W88426  12.621   6.885   5.188
24494W        W88427  18.260   4.362  11.045
24495W        W88428  33.913  32.439  12.990
24496W        W88429   7.845  39.997  13.452
24497W        W88430  17.764  37.015  13.027
24498W        W88431   0.758  21.721   0.291
24499W        W88432  36.395  29.448  10.892
24500W        W88433  29.669  22.685  12.446
24501W        W88434  28.142  19.583   1.893
24502W        W88435  20.239  42.990   4.220
24503W        W88436  14.185  20.615   2.182
24504W        W88437   1.483  37.916   0.779
24505W        W88438  42.465  43.822   1.278
24506W        W88439  43.941  41.305  12.536
24507W        W88440  35.549  40.546   1.409
24508W        W88441  15.298   5.312  13.339
24509W        W88442  17.727  40.484  13.453
24510W        W88443  27.582  33.896  11.110
24511W        W88444   0.959  30.498   3.354
24512W        W88445  22.244  43.903   3.665
24513W        W88446   0.978  10.847   4.248
24514W        W88447  38.352  16.219   3.174
24515W        W88448  38.967  12.818   4.776
24516W        W88449  38.892  14.152   3.161
24517W        W88450   5.279  37.862   0.783
24518W        W88451  36.908  10.831  14.471
24519W        W88452  28.477  39.350  11.423
24520W        W88453   7.349  11.711   0.924
24521W        W88454  34.971  26.043   1.849
24522W        W88455  28.618   7.823   1.431
24523W        W88456  21.234  25.658   3.219
24524W        W88457   8.196  27.684   0.792
24525W        W88458  37.853  13.300  14.764
24526W        W88459   3.256  25.105   4.151
24527W        W88460  14.284   3.754   0.839
24528W        W88461  21.620  25.489   2.770
24529W        W88462   7.235  19.230   3.690
24530W        W88463  20.615  19.229  14.905
24531W        W88464  25.656   2.765  12.369
24532W        W88465   1.885  21.626   1.912
24533W        W88466  35.930  40.852  11.611
24534W        W88467   3.231  15.672  14.306
24535W        W88468  10.311  21.744   1.728
24536W        W88469  43.916  33.541  12.935
24537W        W88470  16.173  26.618   0.928
24538W        W88471  16.248  43.765  14.994
24539W        W88472  32.951   1.292   3.853
24540W        W88473  42.288  15.781  14.773
24541W        W88474   2.793  14.601  12.014
24542W        W88475   9.342  13.611  11.102
24543W        W88476  33.071   5.400  12.870
24544W        W88477   8.704  42.780   5.289
24545W        W88478  25.523  13.648  13.991
24546W        W88479  16.098  14.730   1.283
24547W        W88480  15.752  19.059   0.851
24548W        W88481  17.641   7.910  12.503
24549W        W88482   5.896  35.938  12.485
24550W        W88483   1.424  38.562  14.889
24551W        W88484  11.333  14.114  12.833
24552W        W88485  19.606  41.520  13.820
24553W        W88486   8.241  34.904  11.458
24554W        W88487  14.818  39.885   0.442
24555W        W88488  35.394  41.351   2.407
24556W        W88489   0.749  11.340  14.993
24557W        W88490  18.294  13.696  10.492
24558W        W88491  34.974   4.359   1.898
24559W        W88492  23.651  38.483  10.446
24560W        W88493  16.113  20.164   0.770
24561W        W88494  26.094  15.773  14.032
24562W        W88495  27.535  33.400   2.295
24563W        W88496  36.380  37.917   4.616
24564W        W88497   0.744  11.845   2.396
24565W        W88498   9.791  28.113   4.124
24566W        W88499  42.826   0.950   3.720
24567W        W88500  22.113  40.355  12.500
24568W        W88501  25.672  14.095   3.332
24569W        W88502  21.693  37.013  13.430
24570W        W88503   8.854  20.070   0.327
24571W        W88504  31.120  44.798   3.369
24572W        W88505  18.685  17.306   1.816
24573W        W88506   8.839  28.022  12.978
24574W        W88507  23.184  18.706  13.001
24575W        W88508   9.703   4.213   1.392
24576W        W88509  30.527  38.487  11.400
24577W        W88510  41.406   8.869  12.947
24578W        W88511  17.667  33.899  12.451
24579W        W88512  25.603  24.983  13.425
24580W        W88513  18.075  21.203  13.433
24581W        W88514  41.816  25.050   3.814
24582W        W88515  25.591  31.470   4.730
24583W        W88516  22.185   6.234   4.343
24584W        W88517   2.296   5.424  12.962
24585W        W88518  26.700   0.815   5.610
24586W        W88519  22.113  11.309   0.741
24587W        W88520  40.328  17.622  12.363
24588W        W88521  23.550  13.234   1.823
24589W        W88522  26.496  22.583  14.874
24590W        W88523  43.916  42.390  11.126
24591W        W88524   0.866  11.757  12.043
24592W        W88525  22.739  19.085   3.244
24593W        W88526  20.044  13.745  14.507
24594W        W88527   6.190  17.645  10.898
24595W        W88528  39.418  18.605   0.448
24596W        W88529   0.410  17.736  11.898
24597W        W88530  29.651  10.797   1.338
24598W        W88531  20.253  18.716   4.808
24599W        W88532   6.779  13.277   9.983
24600W        W88533  44.768   9.889  14.312
24601W        W88534  15.750  18.728   3.660
24602W        W88535   3.869  19.095   3.716
24603W        W88536  23.028  43.004   4.217
24604W        W88537   9.161  35.058  14.307
24605W        W88538   5.381  27.500  12.397
24606W        W88539  31.454  11.317   1.416
24607W        W88540  35.522  41.867  13.880
24608W        W88541  10.670  24.556   0.743
24609W        W88542  21.049  42.353  13.371
24610W        W88543   7.269   1.302  14.842
24611W        W88544  35.962  13.135   0.785
24612W        W88545   6.750  27.994   0.296
24613W        W88546  37.839  14.755  13.833
24614W        W88547  16.175  30.066   3.826
24615W        W88548  34.449  12.844  10.439
24616W        W88549  30.529  44.354  13.346
24617W        W88550   5.850  35.873   4.346
24618W        W88551  15.626  21.531  12.864
24619W        W88552  35.954   8.213   1.801
24620W        W88553   2.819  20.753  13.393
24621W        W88554   3.403  22.632   5.096
24622W        W88555   8.845   1.902  10.919
24623W        W88556   8.845   1.347  13.937
24624W        W88557  28.951  43.827  13.315
24625W        W88558  38.468  12.612   3.359
24626W        W88559   5.793  35.366   4.809
24627W        W88560   0.292   1.331  12.837
24628W        W88561  17.613  38.439  13.001
24629W        W88562  21.731  24.717  11.114
24630W        W88563   1.293   6.419  13.423
24631W        W88564  13.716   8.721  11.977
24632W        W88565  19.235  40.377  13.522
24633W        W88566  12.248  30.002   4.333
24634W        W88567  37.857  36.492  11.536
24635W        W88568  17.731  33.404  13.503
24636W        W88569  17.265  30.456  12.378
24637W        W88570  17.599  36.495   5.570
24638W        W88571  22.559  26.459  11.416
24639W        W88572  11.814  24.522  12.848
24640W        W88573  12.696  34.033  12.399
24641W        W88574  27.072  21.074   2.826
24642W        W88575   2.939  23.597  13.472
24643W        W88576  28.456  13.783  14.025
24644W        W88577  20.140  16.737  12.007
24645W        W88578   1.942  13.291   2.387
24646W        W88579  37.342  34.997   2.666
24647W        W88580   5.816  30.150  13.450
24648W        W88581   3.848  19.609  10.936
24649W        W88582  39.890   3.223  14.011
24650W        W88583   4.433  36.872  14.864
24651W        W88584  35.932  10.643  10.421
24652W        W88585  27.544   6.225  13.960
24653W        W88586  40.446  31.106  10.550
24654W        W88587   1.853  42.825  10.513
24655W        W88588  36.579  18.082  11.934
24656W        W88589  19.567  26.969  14.359
24657W        W88590  34.427   6.374  10.935
24658W        W88591  15.764  25.497  14.311
24659W        W88592  31.112  16.200  14.285
24660W        W88593  21.561   5.712  14.810
24661W        W88594   6.290   2.372   3.857
24662W        W88595  34.503  38.559  12.537
24663W        W88596  19.243  25.493  12.397
24664W        W88597  43.977  26.109   0.423
24665W        W88598  36.866  33.986   4.129
24666W        W88599   5.918   1.279   5.185
24667W        W88600  36.356  15.782   2.780
24668W        W88601  11.655  39.482  11.376
24669W        W88602   1.404  24.492   3.635
24670W        W88603   0.363  23.147  14.442
24671W        W88604  16.591  33.467   3.258
24672W        W88605  26.534  35.004   5.128
24673W        W88606  33.543  43.341  11.493
24674W        W88607  23.171   9.820  12.537
24675W        W88608   8.347  20.746  10.504
24676W        W88609  20.085   3.362   3.362
24677W        W88610  35.400  37.863   1.385
24678W        W88611  43.423  37.337  11.523
24679W        W88612  12.210  21.656   1.235
24680W        W88613  13.293  34.026   1.321
24681W        W88614  32.002  26.174  12.084
24682W        W88615  16.611  38.866   0.951
24683W        W88616  35.923  33.433   2.400
24684W        W88617  39.824  19.180  12.870
24685W        W88618  44.329  15.809  14.475
24686W        W88619  33.944  26.047  12.551
24687W        W88620  35.599  44.995   2.395
24688W        W88621  27.602  32.894  13.473
24689W        W88622  37.511  11.841  12.493
24690W        W88623   1.769  30.921  13.006
24691W        W88624   7.810  43.011   1.322
24692W        W88625  20.616  44.408   4.735
24693W        W88626  14.745   0.295  10.640
24694W        W88627   6.297   2.828   3.315
24695W        W88628   2.329  15.608  14.489
24696W        W88629   6.347  30.091   0.896
24697W        W88630  32.556  35.876  13.051
24698W        W88631   7.688  35.449  14.968
24699W        W88632  33.517  31.045  13.855
24700W        W88633  22.735   9.354   1.926
24701W        W88634  30.998   1.441   4.134
24702W        W88635  24.149  44.488  14.799
24703W        W88636  18.252  31.108   1.855
24704W        W88637  31.135   0.859  11.864
24705W        W88638  35.390  38.002   1.724
24706W        W88639  11.233  10.332   4.659
24707W        W88640  17.691  44.954   3.314
24708W        W88641  31.586  42.518   0.283
24709W        W88642  30.990  36.076  14.982
24710W        W88643  19.594  15.736   1.699
24711W        W88644  40.479   1.260  10.566
24712W        W88645  31.493  39.925  12.354
24713W        W88646   0.845   9.277   0.458
24714W        W88647   8.270   6.845  11.979
24715W        W88648  41.499  17.306  11.540
24716W        W88649  14.712  44.379  13.378
24717W        W88650  16.629  23.657  14.367
24718W        W88651  13.154  35.882  12.064
24719W        W88652   4.873  35.049   0.310
24720W        W88653  35.534  21.719   3.803
24721W        W88654  24.034   1.460  13.029
24722W        W88655  34.985  23.708  12.843
24723W        W88656  36.018  36.905   0.822
24724W        W88657  30.657  35.415   4.671
24725W        W88658   7.417  23.105   1.402
24726W        W88659  40.797  13.606  11.400
24727W        W88660  11.226  37.058  13.842
24728W        W88661   0.984  44.827   1.281
24729W        W88662  13.752  35.603  12.502
24730W        W88663  38.338   6.797   3.763
24731W        W88664  32.443   6.282  13.500
24732W        W88665  39.557  10.760  13.364
24733W        W88666  34.476  37.072   4.699
24734W        W88667  41.383  23.591   1.762
24735W        W88668  13.328  39.518  11.882
24736W        W88669  26.062   8.728   2.179
24737W        W88670  33.612  18.160   3.383
24738W        W88671   2.346  37.898   2.418
24739W        W88672  25.611  18.660   3.215
24740W        W88673   6.319  27.596   2.767
24741W        W88674   8.341   4.803  13.903
24742W        W88675  31.996  30.412   3.330
24743W        W88676   2.398   0.822   3.669
24744W        W88677  10.868  30.419  12.373
24745W        W88678  40.935   0.794  13.946
24746W        W88679  11.631   1.743  14.767
24747W        W88680  40.898  30.914  10.619
24748W        W88681  42.363   6.805   1.334
24749W        W88682  36.930   5.382  11.383
24750W        W88683  18.063  28.087  14.364
24751W        W88684  37.477   7.288   3.321
24752W        W88685  15.745  27.687  12.004
24753W        W88686  36.398  13.638  12.383
24754W        W88687  36.091  40.365  10.441
24755W        W88688  21.228   3.734   4.660
24756W        W88689  23.603  30.090   2.870
24757W        W88690  27.150  30.959   1.373
24758W        W88691  19.645  23.675  11.978
24759W        W88692  24.666  41.023   4.652
24760W        W88693  17.736   2.282   0.890
24761W        W88694   8.656  29.158  13.880
24762W        W88695  29.017  23.036  11.930
24763W        W88696  32.430   9.389   4.632
24764W        W88697  43.407  31.921  14.466
24765W        W88698   7.834   0.461   2.287
24766W        W88699  32.579  18.726  11.923
24767W        W88700  17.604  34.438   1.302
24768W        W88701  22.136  12.228  14.826
24769W        W88702  10.633   7.799  10.900
24770W        W88703   1.777  42.842  14.424
24771W        W88704   7.700   6.875  12.511
24772W        W88705  16.272  20.619  13.442
24773W        W88706  13.777  21.735   2.223
24774W        W88707  40.307  11.369  12.517
24775W        W88708  43.779   6.717  14.768
24776W        W88709  35.518  37.865  14.436
24777W        W88710  31.639  32.591   1.759
24778W        W88711  37.539  15.718   1.766
24779W        W88712  40.908  34.504   3.164
24780W        W88713  26.060   0.417   4.353
24781W        W88714   1.379  23.728  12.986
24782W        W88715   9.240  14.660  11.067
24783W        W88716  38.864  29.645   3.352
24784W        W88717  41.867  44.938   1.409
24785W        W88718  29.933   9.206  11.461
24786W        W88719  35.966   2.372   4.276
24787W        W88720  16.575  37.368   5.579
24788W        W88721  20.090  15.801   4.812
24789W        W88722  13.670   1.292   1.287
24790W        W88723  33.589  18.176  12.513
24791W        W88724  43.947  41.911   2.697
24792W        W88725   6.730  11.200  13.003
24793W        W88726  36.875  37.040  11.434
24794W        W88727   3.426  23.149  13.389
24795W        W88728  33.528  14.260  11.568
24796W        W88729  16.182   4.274   0.326
24797W        W88730  17.764  25.565  12.832
24798W        W88731  44.919  37.083   2.306
24799W        W88732  41.953  31.091  14.429
24800W        W88733  25.005  43.902   2.707
24801W        W88734  36.908   2.814   4.263
24802W        W88735  13.309  33.898   4.633
24803W        W88736  19.059   2.827  12.353
24804W        W88737  33.380  39.536  13.002
24805W        W88738  11.312  33.927  12.857
24806W        W88739   8.205  29.076  14.338
24807W        W88740  34.021  31.505  11.504
24808W        W88741  27.089  11.333  13.332
24809W        W88742  39.026  40.469   0.886
24810W        W88743  39.989  30.519   2.306
24811W        W88744  39.432  25.479   3.783
24812W        W88745  38.914  28.070   1.248
24813W        W88746  26.043  16.798   3.854
24814W        W88747  29.110  25.173   1.316
24815W        W88748  12.268   1.923  12.035
24816W        W88749  21.552  32.092  14.794
24817W        W88750  16.219  37.344  12.872
24818W        W88751  26.557  14.680   2.897
24819W        W88752  22.661   1.254  14.436
24820W        W88753   3.916  36.861  12.931
24821W        W88754  27.548  14.631   3.821
24822W        W88755  36.055  42.790   0.386
24823W        W88756  15.296   7.674   9.945
24824W        W88757  39.819  40.021  13.026
24825W        W88758  37.845  21.030   5.237
24826W        W88759   6.229  18.785  12.538
24827W        W88760  39.928  28.157  11.882
24828W        W88761   6.706  23.228  13.354
24829W        W88762  41.941   0.804   3.725
24830W        W88763  28.449  38.035   3.815
24831W        W88764  19.276  14.137   0.847
24832W        W88765  13.676   2.240  11.122
24833W        W88766  32.436  39.933  14.767
24834W        W88767  19.754  43.295   2.350
24835W        W88768  15.117  44.448  12.071
24836W        W88769  27.500  20.261   2.890
24837W        W88770   6.816  11.300   0.795
24838W        W88771  19.775  43.464  12.838
24839W        W88772   6.274  39.964   0.943
24840W        W88773  22.649  38.880  14.475
24841W        W88774  25.467  38.430  12.012
24842W        W88775  32.494  34.043   2.841
24843W        W88776  25.641  16.085  13.926
24844W        W88777  21.641   4.233   1.921
24845W        W88778  23.593  43.370  13.546
24846W        W88779  19.095  38.388   2.807
24847W        W88780  26.170  14.242  12.943
24848W        W88781  36.589   7.882  12.009
24849W        W88782  27.538   1.262  13.822
24850W        W88783  40.935  12.300  10.420
24851W        W88784  31.443  42.837  12.545
24852W        W88785   7.679  21.644   2.178
24853W        W88786  40.378  43.010  12.921
24854W        W88787  17.292  39.554   0.312
24855W        W88788  25.573  35.481   3.209
24856W        W88789  27.553  20.644   0.873
24857W        W88790   1.311   9.848   2.711
24858W        W88791  39.345  35.897  10.906
24859W        W88792  44.807  27.977   3.711
24860W        W88793   8.875  29.031  10.141
24861W        W88794  44.765  13.748   0.845
24862W        W88795  24.556  35.563  14.323
24863W        W88796  32.524  34.563   3.217
24864W        W88797   8.745   1.894   1.875
24865W        W88798  40.502  36.997   9.542
24866W        W88799   6.276   9.781   0.948
24867W        W88800   2.824  11.674  10.935
24868W        W88801  40.916  20.640   3.826
24869W        W88802  36.868  44.304   1.914
24870W        W88803  31.526  37.369   3.170
24871W        W88804  12.793  37.890   3.703
24872W        W88805  29.097  20.733   2.243
24873W        W88806  39.883   8.216  10.898
24874W        W88807  28.096  34.533   3.197
24875W        W88808  43.909   3.328   2.702
24876W        W88809  13.258  37.086  11.374
24877W        W88810  35.060  36.854   0.877
24878W        W88811  25.484   5.283  10.954
24879W        W88812  43.893  42.851   4.599
24880W        W88813  13.338  34.581  11.887
24881W        W88814  40.844  34.960  13.834
24882W        W88815  16.217  23.173   1.231
24883W        W88816   7.825   8.725   0.792
24884W        W88817  20.172  26.471  11.546
24885W        W88818  20.583  39.045  12.938
24886W        W88819  11.337  38.331  10.584
24887W        W88820  31.544  25.687   4.837
24888W        W88821  11.224   5.423  10.429
24889W        W88822  15.319   9.219   4.228
24890W        W88823  40.012  27.192   3.780
24891W        W88824  17.212  35.420   2.898
24892W        W88825  24.993  40.869  14.789
24893W        W88826   6.355  29.935  11.117
24894W        W88827  25.582  23.653  14.918
24895W        W88828  39.888   0.804  11.109
24896W        W88829  16.750  44.770   1.815
24897W        W88830  38.466  37.018   0.340
24898W        W88831   1.753  35.956   4.805
24899W        W88832  42.962  38.978   9.475
24900W        W88833   9.270   4.285  13.883
24901W        W88834  12.853  43.854   3.364
24902W        W88835  38.521  30.084   2.291
24903W        W88836  41.800  26.018  14.879
24904W        W88837  13.222   4.703   3.730
24905W        W88838  32.905  29.456  11.414
24906W        W88839  33.432  37.999   4.294
24907W        W88840  39.860  24.640  13.033
24908W        W88841  17.704  11.688   4.656
24909W        W88842  38.405   7.670   2.212
24910W        W88843   8.812  32.125  12.514
24911W        W88844  10.193   8.381   3.702
24912W        W88845  23.619   8.726  14.374
24913W        W88846   6.741  31.595   0.307
24914W        W88847   0.305  13.147   2.397
24915W        W88848  21.133  40.864  10.947
24916W        W88849  41.971  14.160  10.072
24917W        W88850  31.450  35.042   1.802
24918W        W88851  15.278  13.684   2.253
24919W        W88852  24.657  14.198   3.819
24920W        W88853  32.922   6.728   3.242
24921W        W88854  38.534  39.019  13.907
24922W        W88855   3.305  33.058   1.740
24923W        W88856  32.907   9.390   1.785
24924W        W88857   6.856  10.298  12.923
24925W        W88858  10.653  20.122   3.859
24926W        W88859   9.347   7.695   4.838
24927W        W88860  28.110  19.560   3.673
24928W        W88861   8.785   2.303  14.020
24929W        W88862  14.776  27.079  14.808
24930W        W88863  18.251  16.598   0.466
24931W        W88864  37.430  42.813   2.267
24932W        W88865  11.292   3.801  13.869
24933W        W88866   7.758  25.066  11.448
24934W        W88867  11.229  10.288  11.003
24935W        W88868   0.369  15.685  14.389
24936W        W88869  25.674   8.774  11.100
24937W        W88870  41.360  27.102   4.678
24938W        W88871  21.521  17.591   2.353
24939W        W88872  37.442  39.876   4.837
24940W        W88873  33.077  19.726   4.195
24941W        W88874  18.291  31.098  11.066
24942W        W88875   6.794  37.061   2.234
24943W        W88876  29.124  26.554   2.353
24944W        W88877  40.332   3.230  14.457
24945W        W88878  18.130  15.241  10.112
24946W        W88879  36.484  17.768  10.627
24947W        W88880   6.745  13.617   4.136
24948W        W88881   1.456  32.618   1.443
24949W        W88882  19.149  21.111  11.909
24950W        W88883  12.298   7.782   4.635
24951W        W88884  42.878  31.144  13.463
24952W        W88885   5.216  38.909   1.362
24953W        W88886  31.495  20.696   3.184
24954W        W88887  11.667  25.649   4.184
24955W        W88888   8.664  30.605   1.317
24956W        W88889   6.191  42.905  14.309
24957W        W88890   3.396  13.229  14.376
24958W        W88891  18.150  23.115   2.846
24959W        W88892   1.266  34.981   3.666
24960W        W88893  39.483  14.138  12.342
24961W        W88894  40.420  34.119  11.598
24962W        W88895  38.567  27.044  11.448
24963W        W88896   8.654  15.629  14.840
24964W        W88897  25.113  41.033  10.503
24965W        W88898  26.038  12.302   0.934
24966W        W88899  25.165  29.642  13.849
24967W        W88900   9.306  17.581  11.064
24968W        W88901   5.832   7.797   0.267
24969W        W88902  30.589  25.060  13.858
24970W        W88903  22.092  12.797  12.465
24971W        W88904  22.032  35.035  10.638
24972W        W88905  32.082  14.253  12.987
24973W        W88906  41.350  44.983  13.806
24974W        W88907  15.115   1.459  11.594
24975W        W88908   9.321  23.491   4.658
24976W        W88909   0.285  26.507   3.784
24977W        W88910  35.968   6.854  11.909
24978W        W88911  39.483  20.194  14.987
24979W        W88912  42.904   9.325  10.428
24980W        W88913  36.408   8.839  14.856
24981W        W88914  36.490  40.306   0.342
24982W        W88915  29.623  38.392   1.718
24983W        W88916  31.523  18.763  11.531
24984W        W88917  26.564  11.331  12.063
24985W        W88918  38.336   3.796  12.885
24986W        W88919   4.764  35.933  14.340
24987W        W88920   8.888  15.135  13.443
24988W        W88921   2.816  23.124  11.476
24989W        W88922  29.463  38.006   1.750
24990W        W88923  34.887  10.829  12.544
24991W        W88924  31.990  32.915  14.436
24992W        W88925  32.000   6.302  12.030
24993W        W88926   4.295   6.832   1.225
24994W        W88927  34.015   2.423   0.859
24995W        W88928   3.878  19.225  11.085
24996W        W88929  15.306   0.265  11.107
24997W        W88930  41.908  39.877   2.896
24998W        W88931  14.189  39.888  13.441
24999W        W88932  24.118  10.372  12.086
25000W        W88933  11.710  18.106  11.513
25001W        W88934  40.846  20.617  14.770
25002W        W88935  19.039  36.357   5.604
25003W        W88936  32.590   7.803   1.699
25004W        W88937  26.145  40.956   4.827
25005W        W88938  10.353  10.308  10.486
25006W        W88939   8.887   5.355  13.475
25007W        W88940  42.867  20.559   2.698
25008W        W88941  33.408  28.666  14.363
25009W        W88942  29.064  15.239   0.917
25010W        W88943  24.525   7.176  11.010
25011W        W88944   0.419   6.346   2.749
25012W        W88945  26.591  15.702   0.845
25013W        W88946  36.920   2.909   4.620
25014W        W88947  24.719  44.826   4.674
25015W        W88948  24.582  30.940   4.241
25016W        W88949  40.823  27.466  11.103
25017W        W88950   2.261  16.152  12.460
25018W        W88951  29.045  19.103  10.629
25019W        W88952  37.534  41.458   4.655
25020W        W88953  20.274  23.724   0.859
25021W        W88954   5.382   2.345  11.879
25022W        W88955  31.994  23.088   1.754
25023W        W88956  27.951  24.526  14.027
25024W        W88957  26.459  28.517  11.580
25025W        W88958  20.753  29.563  12.053
25026W        W88959  30.599  39.827  10.900
25027W        W88960  24.619   5.767   0.955
25028W        W88961   0.378   1.963   0.867
25029W        W88962   3.918  34.097   0.286
25030W        W88963   4.248   3.228  14.869
25031W        W88964  35.051   4.902  10.531
25032W        W88965  22.141  23.144   1.309
25033W        W88966  20.583  19.675  14.317
25034W        W88967  42.313  19.743   2.829
25035W        W88968  36.849   5.902  12.877
25036W        W88969  34.567  26.042   3.349
25037W        W88970  44.481  18.170  14.884
25038W        W88971  10.834  42.380   0.370
25039W        W88972  23.035  19.068   2.209
25040W        W88973  39.008  25.518   1.338
25041W        W88974  34.977   6.885  11.126
25042W        W88975  15.200  39.847  12.878
25043W        W88976  15.810  21.539   2.855
25044W        W88977  43.829   4.373  12.000
25045W        W88978  16.783   9.758   0.886
25046W        W88979  39.912   0.352   3.346
25047W        W88980  23.632   7.257   3.245
25048W        W88981   6.301   4.335   1.868
25049W        W88982  32.632  30.643   2.296
25050W        W88983  41.026   9.153  12.345
25051W        W88984  10.870  10.352   0.830
25052W        W88985   0.266  41.523  11.518
25053W        W88986   4.299  11.726   4.160
25054W        W88987  18.233  26.980   1.388
25055W        W88988  21.189  14.293  12.975
25056W        W88989   5.692   1.956   2.665
25057W        W88990  35.484  13.661   3.279
25058W        W88991  33.128  35.557  13.402
25059W        W88992  32.061  39.393   3.323
25060W        W88993   6.923  25.532   4.293
25061W        W88994  23.731  28.603   3.721
25062W        W88995   4.311   8.348  11.067
25063W        W88996  18.750  33.970  14.315
25064W        W88997  39.323  32.063  12.002
25065W        W88998  28.058  31.095   3.280
25066W        W88999  30.984  24.635   4.620
25067W        W89000  40.393  12.241  10.483
25068W        W89001  23.596  21.109   1.767
25069W        W89002  29.564  31.057   4.289
25070W        W89003   5.690  17.668   2.849
25071W        W89004  14.244  21.739  10.484
25072W        W89005  21.116  26.578   0.812
25073W        W89006   4.784  37.399  13.410
25074W        W89007   3.732  29.124   9.996
25075W        W89008   6.743   8.299  13.821
25076W        W89009  44.403  16.597  14.330
25077W        W89010  29.515  28.437   1.827
25078W        W89011  39.344  39.980   0.851
25079W        W89012  42.859  36.959  13.793
25080W        W89013  11.696  38.956   4.817
25081W        W89014  29.068  25.526  13.956
25082W        W89015  28.669  43.319   4.278
25083W        W89016  43.369  28.081   0.731
25084W        W89017  38.492  21.025   2.321
25085W        W89018  42.961  18.713  11.507
25086W        W89019  21.137   3.838   1.730
25087W        W89020  22.031  24.059   0.320
25088W        W89021   7.389   1.968   0.346
25089W        W89022  14.248  11.205   3.341
25090W        W89023   9.226  27.148  14.778
25091W        W89024  38.568   0.474  10.497
25092W        W89025  33.003  22.251  12.521
25093W        W89026  15.219  17.635   4.750
25094W        W89027  23.666  13.158  12.851
25095W        W89028  16.718  43.886   1.375
25096W        W89029  23.535  38.497  14.413
25097W        W89030   2.731   1.323   0.816
25098W        W89031   3.266  21.123  13.461
25099W        W89032  36.380  11.180   2.866
25100W        W89033  15.233   7.740  11.478
25101W        W89034  44.987  38.914   3.341
25102W        W89035   5.409  18.217   3.337
25103W        W89036  22.636  13.725  10.638
25104W        W89037   8.690  16.259  11.965
25105W        W89038  25.603  21.046   2.374
25106W        W89039  39.491   3.313  11.448
25107W        W89040   0.371  27.079  11.458
25108W        W89041  35.429  24.524   3.210
25109W        W89042   3.392  24.977  12.978
25110W        W89043  35.943  39.047   1.901
25111W        W89044  10.829  15.718  11.100
25112W        W89045   7.786  38.487   2.847
25113W        W89046  27.531  28.102   1.401
25114W        W89047  19.286  11.690   0.287
25115W        W89048  20.031  24.579   5.086
25116W        W89049  18.699   8.861   4.134
25117W        W89050   9.708  25.048  13.898
25118W        W89051  14.789   8.238  12.423
25119W        W89052   6.275  14.106   9.666
25120W        W89053  26.464  40.476  14.285
25121W        W89054  22.111  37.071  14.783
25122W        W89055  37.984   4.212  12.006
25123W        W89056  24.075  13.223  12.864
25124W        W89057  41.032  42.775  11.127
25125W        W89058  29.607  36.980   2.395
25126W        W89059  37.538  20.563  13.925
25127W        W89060  32.950   9.237   0.339
25128W        W89061  23.036  20.654  12.575
25129W        W89062  22.164  44.891   1.921
25130W        W89063  30.583  43.418  13.833
25131W        W89064  21.132  34.445  14.339
25132W        W89065   5.380  21.537   0.958
25133W        W89066  34.558  32.494  14.765
25134W        W89067  14.742  16.100   0.252
25135W        W89068  44.280  41.431   2.710
25136W        W89069  31.930  38.874  12.466
25137W        W89070  17.196  28.163   1.841
25138W        W89071   9.221  30.519   4.693
25139W        W89072  19.177  13.344  11.381
25140W        W89073  11.259  20.525   3.670
25141W        W89074  32.559   3.844  11.426
25142W        W89075  24.979  43.324   3.732
25143W        W89076  23.600   3.358   4.138
25144W        W89077   8.385  29.109   2.254
25145W        W89078  34.920  30.546   5.205
25146W        W89079  40.855  17.609  13.329
25147W        W89080   7.392  30.573   2.751
25148W        W89081  15.675   0.800  13.792
25149W        W89082  19.735  22.177  14.375
25150W        W89083   0.773   7.735   1.929
25151W        W89084  17.656  37.054   2.368
25152W        W89085  30.631  34.882  12.901
25153W        W89086   0.291  34.101   0.268
25154W        W89087   3.407  10.333   0.260
25155W        W89088  14.698  25.081  13.020
25156W        W89089  40.483  13.614  10.915
25157W        W89090  22.526  38.956   2.779
25158W        W89091  19.763  16.639  13.930
25159W        W89092  44.946  25.541  12.510
25160W        W89093  36.019   9.336  10.973
25161W        W89094  14.803   8.724  12.574
25162W        W89095  24.653  28.472   2.338
25163W        W89096   2.752  24.673  12.566
25164W        W89097  17.700   5.812   5.583
25165W        W89098  38.340  32.967   2.356
25166W        W89099   8.874   8.875  14.456
25167W        W89100  40.326  17.689  13.523
25168W        W89101  28.463   9.658   4.217
25169W        W89102  16.222  17.283   2.705
25170W        W89103   8.262  25.012   0.873
25171W        W89104   0.262  41.016  13.021
25172W        W89105  37.579  20.195  10.579
25173W        W89106  38.341  12.808  13.989
25174W        W89107  21.515   2.765   1.699
25175W        W89108  23.141  13.330  12.385
25176W        W89109  21.030  16.724  14.434
25177W        W89110   7.252   9.244  13.357
25178W        W89111  27.012   2.735   0.243
25179W        W89112  35.370  23.664   2.693
25180W        W89113  40.886  18.057  10.446
25181W        W89114  12.633  28.646   1.403
25182W        W89115  35.388  43.429   2.787
25183W        W89116  23.170  21.029  10.991
25184W        W89117  43.946  22.020   3.356
25185W        W89118  10.857  37.066  12.503
25186W        W89119  43.865  37.574  11.513
25187W        W89120  22.579  41.013   2.346
25188W        W89121  43.995  19.203   4.695
25189W        W89122  40.434  24.032   4.711
25190W        W89123  19.718  41.845  14.919
25191W        W89124  19.218  32.627   1.317
25192W        W89125  40.859  21.261   0.803
25193W        W89126  24.667  24.722  10.892
25194W        W89127  13.178   3.281  13.511
25195W        W89128   1.926  20.264  10.910
25196W        W89129  36.928  26.541  13.378
25197W        W89130  33.431  27.967   1.718
25198W        W89131  34.951  29.636  12.528
25199W        W89132  23.548  20.242   3.368
25200W        W89133  44.766   9.829  12.352
25201W        W89134  34.560  44.824  11.487
25202W        W89135  30.656  15.738  12.888
25203W        W89136  29.930   7.902  11.435
25204W        W89137   3.739  14.130  14.337
25205W        W89138   5.371  32.584  12.481
25206W        W89139   2.435   5.827  11.402
25207W        W89140  31.564  11.339  14.914
25208W        W89141  14.646   7.202  11.082
25209W        W89142  35.993   9.665   0.308
25210W        W89143  25.063   7.905   2.299
25211W        W89144   0.363  42.804  13.969
25212W        W89145   8.796   7.827   1.883
25213W        W89146  32.108   6.835   0.413
25214W        W89147  40.328  27.503   2.872
25215W        W89148  34.044   0.362   4.217
25216W        W89149  22.525  33.545  10.021
25217W        W89150  11.331  30.029   1.771
25218W        W89151  23.193   6.182   0.393
25219W        W89152  38.969   2.801  14.441
25220W        W89153  25.552  12.645   1.902
25221W        W89154   8.765  22.625   1.924
25222W        W89155  40.799  35.001   0.459
25223W        W89156  15.633  30.581  11.934
25224W        W89157  14.696  13.192  14.370
25225W        W89158  34.586   4.410  14.940
25226W        W89159  17.076  35.003   0.370
25227W        W89160  21.654  38.075   4.690
25228W        W89161  21.560  21.063  13.338
25229W        W89162   5.790  34.599  13.836
25230W        W89163  31.948  29.433   4.701
25231W        W89164  20.122   9.697  14.999
25232W        W89165  28.041  21.526  13.494
25233W        W89166   2.402  14.101   3.262
25234W        W89167   8.209  37.491   0.731
25235W        W89168  33.012  16.813  10.607
25236W        W89169  21.163  42.963  10.622
25237W        W89170  19.643  33.040  10.420
25238W        W89171  36.452  43.903   2.686
25239W        W89172  23.132  34.528  11.452
25240W        W89173  20.670  29.985  12.832
25241W        W89174   9.666  31.027   4.200
25242W        W89175  25.018  18.620   5.158
25243W        W89176  12.789  23.731   1.436
25244W        W89177  31.619  40.400  13.009
25245W        W89178  33.956  32.516  12.436
25246W        W89179   5.856  30.976  14.944
25247W        W89180   4.241   4.390   1.361
25248W        W89181   8.268  24.145  14.300
25249W        W89182  35.498  37.015   3.733
25250W        W89183  44.866  38.051  11.502
25251W        W89184   3.779   4.868   1.358
25252W        W89185  25.148  34.897   4.838
25253W        W89186  13.250   9.272  11.015
25254W        W89187  17.159  34.406  11.067
25255W        W89188  37.396   6.799   0.386
25256W        W89189  32.041  21.252  13.425
25257W        W89190   3.730  23.990   4.765
25258W        W89191  20.605  17.153  12.459
25259W        W89192   3.920  25.065  10.105
25260W        W89193  19.050  42.790  14.940
25261W        W89194  24.716  28.604   1.232
25262W        W89195  27.669  44.479  14.485
25263W        W89196  40.022  27.594  12.002
25264W        W89197   6.251  30.996   0.870
25265W        W89198  31.407  18.786  14.276
25266W        W89199  42.367  12.266   0.450
25267W        W89200   9.368  11.286   4.602
25268W        W89201  14.679  42.517  12.871
25269W        W89202   1.823  19.075   0.794
25270W        W89203  38.020  10.645   0.274
25271W        W89204  28.676   3.453  12.850
25272W        W89205  11.298  25.187  13.412
25273W        W89206  43.850  36.359  14.008
25274W        W89207   9.353  22.079  11.037
25275W        W89208  15.300   2.445   2.702
25276W        W89209  18.077  11.348   4.763
25277W        W89210  29.549  28.506  13.985
25278W        W89211   1.820  24.703   3.206
25279W        W89212   2.471  21.237  14.991
25280W        W89213   5.411  33.888  11.521
25281W        W89214   6.867  24.666   1.852
25282W        W89215  18.264   8.242   2.296
25283W        W89216   1.325  11.775  11.972
25284W        W89217  12.680  42.950   0.782
25285W        W89218  21.729  31.566   0.917
25286W        W89219  28.140   5.920   9.986
25287W        W89220  22.670  10.721   1.359
25288W        W89221   6.720   9.701   1.731
25289W        W89222  38.407  21.096  11.118
25290W        W89223  16.614   5.386   4.704
25291W        W89224  41.009   2.318  14.378
25292W        W89225  11.180  23.158  14.894
25293W        W89226  39.533  22.689   2.859
25294W        W89227  36.473  37.434  11.926
25295W        W89228  27.183  11.301   2.747
25296W        W89229  32.915  37.030  13.962
25297W        W89230   7.757  30.614   3.188
25298W        W89231  10.668  25.541   0.893
25299W        W89232  41.339  34.484   0.375
25300W        W89233  35.995   7.287  14.806
25301W        W89234   8.825   2.387   0.273
25302W        W89235  18.139   7.896  12.497
25303W        W89236  37.562  36.372   5.181
25304W        W89237  21.071  33.445   1.801
25305W        W89238  43.365  39.844  11.007
25306W        W89239  12.178  43.864  11.472
25307W        W89240   8.380   2.357   1.734
25308W        W89241  19.672  30.955  13.934
25309W        W89242  26.172  42.509   5.576
25310W        W89243  44.445  31.931   2.373
25311W        W89244  24.217  22.999   0.304
25312W        W89245  37.886  30.927  13.977
25313W        W89246  26.625  28.117   4.804
25314W        W89247   0.253  42.465  12.859
25315W        W89248  14.297   9.166   2.229
25316W        W89249  22.175  14.158  11.465
25317W        W89250   0.354  13.109  14.418
25318W        W89251  22.568   4.216  12.455
25319W        W89252  23.062  36.069  12.461
25320W        W89253  41.526  20.123   4.712
25321W        W89254   9.178  42.786   0.269
25322W        W89255   0.940   6.393  10.025
25323W        W89256  25.199  14.240  13.912
25324W        W89257  12.765  24.143   1.377
25325W        W89258   1.363  16.240   3.860
25326W        W89259  31.020  26.155   0.957
25327W        W89260  22.642  11.303   1.831
25328W        W89261   7.879  31.086  10.931
25329W        W89262  38.555   6.820  11.126
25330W        W89263   1.336   6.878  12.554
25331W        W89264  10.226  39.378   3.850
25332W        W89265  19.636  10.841   2.180
25333W        W89266  13.698   3.460  10.590
25334W        W89267  37.951  13.631   0.932
25335W        W89268  27.118  28.146  10.150
25336W        W89269  16.663  10.323   3.792
25337W        W89270  19.258  16.172  12.408
25338W        W89271   5.433  32.546   3.725
25339W        W89272  42.878  20.101  11.540
25340W        W89273  20.639  12.802   3.796
25341W        W89274  40.334  36.893   5.675
25342W        W89275  14.666  22.229  13.979
25343W        W89276  15.174  24.585   1.848
25344W        W89277  29.172   1.833   2.407
25345W        W89278  26.098  28.043   2.222
25346W        W89279   9.863  16.304   4.163
25347W        W89280  43.286  37.014  11.516
25348W        W89281   7.181  16.315   2.207
25349W        W89282   9.306  44.499  12.403
25350W        W89283  15.601  10.324  10.149
25351W        W89284  35.596  36.963  10.432
25352W        W89285   4.738  40.304  10.551
25353W        W89286  10.301  18.711  14.955
25354W        W89287   1.874  42.476   0.277
25355W        W89288  19.675  35.421  13.384
25356W        W89289   8.280   4.225   2.809
25357W        W89290   7.296   6.757   2.217
25358W        W89291  34.468   1.854  11.608
25359W        W89292  26.493  30.566  11.944
25360W        W89293  28.593  13.767  11.606
25361W        W89294  34.086  19.250  14.509
25362W        W89295   1.978  41.789  12.845
25363W        W89296  25.621  34.546   4.223
25364W        W89297  15.699  25.683   4.658
25365W        W89298  29.508  43.978   1.276
25366W        W89299  19.224  35.971   3.232
25367W        W89300  26.111  18.633  14.312
25368W        W89301   3.389   4.362  13.017
25369W        W89302   9.379  14.806   2.727
25370W        W89303  18.127   6.813  13.443
25371W        W89304   8.343  35.076   3.268
25372W        W89305   9.322  41.007   2.674
25373W        W89306  15.731   8.381  13.047
25374W        W89307  28.092   2.462   0.455
25375W        W89308  11.264   4.305  10.940
25376W        W89309   7.258  33.439   0.454
25377W        W89310  42.985  36.567  13.903
25378W        W89311   0.475  21.634   3.159
25379W        W89312  42.455  14.701   4.739
25380W        W89313  24.995  21.112   2.749
25381W        W89314  19.693  14.760  13.352
25382W        W89315   0.983  24.573   3.169
25383W        W89316  43.962   5.267   4.808
25384W        W89317  16.739  35.480   4.700
25385W        W89318  19.698  15.657  12.085
25386W        W89319  31.405  16.584   0.307
25387W        W89320  39.404   0.462  12.865
25388W        W89321  39.501  10.877  13.944
25389W        W89322  39.047  30.451  12.938
25390W        W89323  29.941   6.710  13.018
25391W        W89324  42.945  12.822   3.187
25392W        W89325  13.825   5.794   1.736
25393W        W89326  12.230  15.739   1.433
25394W        W89327  32.444  18.264   2.341
25395W        W89328   6.773  19.135  10.555
25396W        W89329  12.646  35.368  14.488
25397W        W89330  40.491  16.099  10.483
25398W        W89331   2.343  15.306   4.125
25399W        W89332  18.117  26.544  12.827
25400W        W89333  14.693   2.848   4.696
25401W        W89334  12.706  22.740   1.363
25402W        W89335  40.446  35.985  11.112
25403W        W89336  32.630  36.983  10.888
25404W        W89337   8.783  23.715  10.604
25405W        W89338  43.923  41.420  11.570
25406W        W89339  14.805  26.666   2.786
25407W        W89340   1.321  34.068   2.232
25408W        W89341  32.069  14.219   0.890
25409W        W89342  28.526  20.181  13.844
25410W        W89343   9.660  18.548   4.689
25411W        W89344  35.080  17.576  14.428
25412W        W89345  12.319  28.977  14.509
25413W        W89346  43.905  41.989  14.296
25414W        W89347  38.527  39.959  13.535
25415W        W89348  18.288  17.768   0.304
25416W        W89349  17.092   1.759   2.398
25417W        W89350  40.523  36.358  13.002
25418W        W89351  25.213   1.868   1.318
25419W        W89352  31.136  33.519  14.342
25420W        W89353  35.974  18.290   1.882
25421W        W89354  22.132  20.181   1.368
25422W        W89355   8.713  37.923  10.543
25423W        W89356  23.208   1.752  10.644
25424W        W89357  39.902  14.591  13.799
25425W        W89358   9.242  26.627  13.034
25426W        W89359  25.607  26.598  13.016
25427W        W89360  28.184  10.784  12.877
25428W        W89361   4.322  13.290   3.795
25429W        W89362   1.739  26.666   4.677
25430W        W89363   3.344  12.749  11.561
25431W        W89364  34.522  14.756   4.682
25432W        W89365   8.304  37.970   0.468
25433W        W89366  24.981   8.729   1.794
25434W        W89367  24.571  24.000   2.713
25435W        W89368  39.546  20.737  13.031
25436W        W89369   0.423  33.443  12.886
25437W        W89370  41.421   3.270   0.445
25438W        W89371  43.338  21.692   0.818
25439W        W89372  37.496  39.455   3.807
25440W        W89373   9.833  39.467   3.356
25441W        W89374  27.186  41.834  13.800
25442W        W89375  30.967  44.974  11.964
25443W        W89376  36.942   1.947  12.350
25444W        W89377   2.342  42.527   0.838
25445W        W89378   3.878  29.012   0.392
25446W        W89379  21.202  33.407   1.317
25447W        W89380   8.761   4.924  12.055
25448W        W89381   4.353   2.347   0.306
25449W        W89382  32.066  35.399   4.624
25450W        W89383  23.992  25.031   0.465
25451W        W89384  16.593   6.896  11.970
25452W        W89385  25.144   3.273   2.849
25453W        W89386   9.801  44.499   4.766
25454W        W89387   2.914   8.376  11.412
25455W        W89388  25.004  44.369  12.971
25456W        W89389  40.520  43.817   4.153
25457W        W89390  38.368  40.882   3.664
25458W        W89391  21.652  10.678   1.329
25459W        W89392  10.233   9.217   2.187
25460W        W89393   8.899  19.619   1.850
25461W        W89394  16.716  22.725  13.021
25462W        W89395  20.709  16.171  12.562
25463W        W89396  34.897  10.288   1.434
25464W        W89397  23.564  43.922  11.965
25465W        W89398  29.089  44.487  13.886
25466W        W89399  34.499  12.745   0.863
25467W        W89400  27.030  21.125  11.931
25468W        W89401  38.057  44.284   4.153
25469W        W89402   7.894  28.146  11.449
25470W        W89403  37.573  15.661  11.548
25471W        W89404   9.264   0.410   4.253
25472W        W89405  35.383  35.468  12.446
25473W        W89406  36.982  40.895  12.902
25474W        W89407   1.434  27.126   2.702
25475W        W89408   9.169  14.279   2.819
25476W        W89409  16.672  34.376   0.854
25477W        W89410  42.304  41.990  14.924
25478W        W89411  20.253   7.704   0.800
25479W        W89412   9.753   4.890   0.423
25480W        W89413   1.270  36.587   3.153
25481W        W89414  41.493  20.253   3.340
25482W        W89415   4.781  32.478  12.396
25483W        W89416  32.125  35.052   3.337
25484W        W89417   4.301   5.729  13.058
25485W        W89418   4.421  16.603  12.896
25486W        W89419  10.379  36.448  14.307
25487W        W89420  34.450   1.315   4.156
25488W        W89421  34.012  22.082  14.852
25489W        W89422  21.711   1.732  13.813
25490W        W89423  35.043   1.751  10.090
25491W        W89424  18.615   9.219   3.730
25492W        W89425  24.134   3.294  14.420
25493W        W89426   8.813  34.432   0.246
25494W        W89427  43.006  21.226   2.756
25495W        W89428  33.012  34.017  13.538
25496W        W89429  26.672   8.832  11.927
25497W        W89430  14.251  26.130  12.825
25498W        W89431  23.149  41.310  12.867
25499W        W89432  27.980  12.812   2.231
25500W        W89433  35.855   1.371  11.559
25501W        W89434   3.441   4.413   3.647
25502W        W89435   3.301  29.449  12.478
25503W        W89436   7.197   3.261   2.857
25504W        W89437  34.391  18.161  13.546
25505W        W89438  19.150  11.173   3.653
25506W        W89439  43.410   1.798   5.271
25507W        W89440  20.153   9.855  13.489
25508W        W89441   6.869  34.579   4.278
25509W        W89442  37.490  39.930  13.041
25510W        W89443  24.981   3.752  10.418
25511W        W89444  13.649  40.881   0.779
25512W        W89445  32.422  16.135  11.421
25513W        W89446   3.888   8.814  13.833
25514W        W89447  18.288  33.118   2.301
25515W        W89448   8.894  14.116   1.327
25516W        W89449  32.468  17.166   4.699
25517W        W89450  26.071  15.106  14.814
25518W        W89451  21.221  32.089   3.205
25519W        W89452  16.577  18.729  10.414
25520W        W89453  19.090  37.869   4.124
25521W        W89454   5.746  15.259  14.346
25522W        W89455  11.621  20.676  12.013
25523W        W89456  11.369  20.118  11.513
25524W        W89457  16.747  27.997  10.642
25525W        W89458  14.827   6.292  14.834
25526W        W89459   9.686  37.359  10.587
25527W        W89460   9.801  28.111  10.916
25528W        W89461  11.651  19.251  14.799
25529W        W89462  27.986  29.114  13.328
25530W        W89463  40.304  26.492   1.228
25531W        W89464  40.368  42.484   1.415
25532W        W89465  23.607  21.551   2.702
25533W        W89466  14.598   7.734  11.401
25534W        W89467  20.560  31.526  14.987
25535W        W89468  13.329  21.560   1.783
25536W        W89469  19.759  33.613   2.396
25537W        W89470  27.609  16.189  12.055
25538W        W89471  25.980  24.673   2.900
25539W        W89472   1.940  26.093   0.332
25540W        W89473  33.476  40.303   1.834
25541W        W89474  29.660  15.698  13.351
25542W        W89475  43.458  30.520   0.882
25543W        W89476  16.222   3.955  11.925
25544W        W89477  30.039  19.221   4.352
25545W        W89478  44.377  43.478  11.128
25546W        W89479  14.632  34.916  14.933
25547W        W89480  33.018  42.943   2.386
25548W        W89481  33.556  23.590   3.292
25549W        W89482   8.740  26.521   2.241
25550W        W89483  27.948  10.633  11.515
25551W        W89484   0.491   7.692   1.307
25552W        W89485   9.321  35.430  14.785
25553W        W89486  30.431  12.358   0.904
25554W        W89487   1.843  11.786  14.937
25555W        W89488  17.117  14.600   4.758
25556W        W89489  39.536  12.258  11.861
25557W        W89490  33.046   0.250  12.014
25558W        W89491   0.875   9.666   2.879
25559W        W89492  35.963  41.492   4.350
25560W        W89493  24.706  27.167  12.978
25561W        W89494  30.992  29.978  12.434
25562W        W89495  32.438  29.517   0.252
25563W        W89496   7.285   4.823  12.409
25564W        W89497  36.539  39.923  12.438
25565W        W89498  35.909  26.165  12.917
25566W        W89499  44.861  24.973  12.957
25567W        W89500  41.505  13.106  14.824
25568W        W89501  15.198   8.263   5.723
25569W        W89502   4.209  30.635  14.873
25570W        W89503  31.041  29.560   0.449
25571W        W89504  14.599  37.536  12.562
25572W        W89505  17.568   0.292  14.474
25573W        W89506  37.982  40.386   1.731
25574W        W89507  33.442  44.823   0.889
25575W        W89508  41.853  42.795  12.074
25576W        W89509  29.007   6.412   0.361
25577W        W89510  17.691  11.327   1.398
25578W        W89511  14.822  21.018  14.958
25579W        W89512  11.653  11.183  14.275
25580W        W89513  11.134  38.849   3.747
25581W        W89514  24.994  26.147   1.423
25582W        W89515  23.678   9.248   0.426
25583W        W89516  34.915  17.163  11.963
25584W        W89517  19.651   5.283  14.811
25585W        W89518  12.753  30.567   1.410
25586W        W89519  31.069  20.131  14.870
25587W        W89520  13.729  22.540   3.645
25588W        W89521  23.660  26.580   1.885
25589W        W89522  11.211   1.801  11.080
25590W        W89523  11.219  12.200   0.456
25591W        W89524   8.852  39.320   2.881
25592W        W89525  16.641  18.086   1.899
25593W        W89526  26.579  39.989  14.445
25594W        W89527  26.142  10.334  11.965
25595W        W89528  11.843  28.009   0.415
25596W        W89529  36.487  41.964  12.397
25597W        W89530  23.011  23.116   4.322
25598W        W89531   4.932  30.163   4.640
25599W        W89532  21.147  15.757   3.672
25600W        W89533  15.244   6.852   9.619
25601W        W89534  33.032  32.966  13.999
25602W        W89535  18.651   4.282  13.830
25603W        W89536  36.069  44.843   1.397
25604W        W89537  26.162   8.700   3.740
25605W        W89538  11.269   8.179  14.930
25606W        W89539  32.488  29.579   1.439
25607W        W89540   7.278  41.348  14.348
25608W        W89541   5.769  10.292   4.790
25609W        W89542  17.729  35.942   4.688
25610W        W89543  27.609   9.667  12.504
25611W        W89544  36.437  38.477   4.674
25612W        W89545  21.230  27.113  14.779
25613W        W89546  37.449  24.226   2.724
25614W        W89547  36.078  19.573   2.846
25615W        W89548  20.262  44.833   2.347
25616W        W89549  11.217  33.044   2.875
25617W        W89550  40.908   7.849  12.461
25618W        W89551  44.869  40.514   1.272
25619W        W89552   9.233  32.569  10.606
25620W        W89553   7.374  18.125   3.228
25621W        W89554  14.618  41.979   0.348
25622W        W89555  33.918   5.302   4.635
25623W        W89556  37.391   7.230   3.869
25624W        W89557  21.607  38.544   1.356
25625W        W89558  27.123  10.813   0.793
25626W        W89559  18.279   0.352   2.857
25627W        W89560   8.693  40.343  14.984
25628W        W89561  28.681  21.150  12.000
25629W        W89562  30.056  24.152   4.716
25630W        W89563  14.833  41.907  11.117
25631W        W89564  21.584  18.055   3.223
25632W        W89565  18.095  20.135  10.598
25633W        W89566  11.750  21.234   1.351
25634W        W89567  20.709  26.671  14.315
25635W        W89568   9.380  31.088   2.688
25636W        W89569   5.244  15.276   2.668
25637W        W89570  44.298  34.890  14.032
25638W        W89571  36.445  24.090   4.168
25639W        W89572  40.374   9.213  10.641
25640W        W89573  21.172  12.621   1.746
25641W        W89574  19.698  35.580   3.161
25642W        W89575   5.258  30.603  12.533
25643W        W89576  34.922  28.539   2.181
25644W        W89577  33.464  25.598  14.361
25645W        W89578  20.043  27.969  14.867
25646W        W89579  21.567  39.377  11.933
25647W        W89580  36.590  15.752  11.376
25648W        W89581  19.560  10.668   3.303
25649W        W89582  42.492  40.460   0.931
25650W        W89583  40.549  38.528   1.260
25651W        W89584   1.919   5.906  12.855
25652W        W89585   7.261  15.303  12.957
25653W        W89586  44.449  17.683   3.846
25654W        W89587  13.803  21.145  13.351
25655W        W89588  18.699   3.784  11.048
25656W        W89589   1.294  35.869   1.281
25657W        W89590   5.806   3.756  12.846
25658W        W89591  17.782  13.210  10.966
25659W        W89592  26.474  15.714   2.725
25660W        W89593  26.198  33.527   0.404
25661W        W89594   4.314   5.225  14.804
25662W        W89595  21.681   1.280  14.943
25663W        W89596   6.845  29.960  11.526
25664W        W89597   8.898   0.435  12.461
25665W        W89598   2.795  30.975  14.984
25666W        W89599  15.321   5.815  12.546
25667W        W89600  32.404  36.588   1.902
25668W        W89601  26.012  14.308   4.709
25669W        W89602  27.970  35.510  12.093
25670W        W89603  33.398  41.418  10.488
25671W        W89604  37.377   2.236   2.232
25672W        W89605  43.836   2.817   3.298
25673W        W89606  43.401  43.917  12.377
25674W        W89607  19.623  26.011   2.680
25675W        W89608  30.971   8.795   3.244
25676W        W89609  29.560  31.925   4.817
25677W        W89610  29.592   9.157   1.732
25678W        W89611  18.241  39.018   3.862
25679W        W89612   5.387   8.761   5.191
25680W        W89613  29.067   3.718   1.848
25681W        W89614  22.549  14.672  14.933
25682W        W89615   5.825  17.092   0.302
25683W        W89616  26.519  40.467  10.605
25684W        W89617  42.327  25.163  14.335
25685W        W89618   3.317  30.092   0.738
25686W        W89619  33.895  27.182   1.449
25687W        W89620   6.185  18.240   0.478
25688W        W89621  10.722   3.271  13.465
25689W        W89622  34.064   8.199  14.775
25690W        W89623  26.974   2.376  13.844
25691W        W89624  38.361  12.843   2.303
25692W        W89625   9.208  33.041   1.210
25693W        W89626   3.249  12.652  12.390
25694W        W89627  12.735  24.541  14.275
25695W        W89628  17.704   4.425  14.985
25696W        W89629  35.003  23.194   0.796
25697W        W89630  15.687  41.884   4.169
25698W        W89631   0.366  25.189   3.262
25699W        W89632   3.799   3.810  12.046
25700W        W89633  21.737  13.278   3.775
25701W        W89634  28.949  34.983   4.226
25702W        W89635  23.166  40.995  10.420
25703W        W89636  11.162  27.488  13.879
25704W        W89637  12.301  34.473   4.151
25705W        W89638   5.717  17.668  11.585
25706W        W89639  20.233  30.492  11.500
25707W        W89640  12.749  40.363   3.229
25708W        W89641  13.327  19.600   2.724
25709W        W89642  11.270  10.646  13.513
25710W        W89643   4.212  39.895   0.335
25711W        W89644  24.190  40.886  12.532
25712W        W89645  29.985  30.147  13.352
25713W        W89646   6.217  16.577  14.977
25714W        W89647   8.364  43.433  12.835
25715W        W89648  20.141   1.482  14.982
25716W        W89649  15.720   8.899  12.047
25717W        W89650  10.803  33.999  10.953
25718W        W89651  33.580  29.423  12.017
25719W        W89652  18.565  37.989  13.973
25720W        W89653  30.136   1.346   2.831
25721W        W89654  41.430  40.536   2.289
25722W        W89655   0.281  32.515   4.676
25723W        W89656  13.688  21.244   4.261
25724W        W89657   9.658  34.887  12.005
25725W        W89658   5.819   3.269   3.737
25726W        W89659  28.146   9.275   2.308
25727W        W89660  35.534  29.961   3.221
25728W        W89661  22.031  18.237  12.400
25729W        W89662  22.696   1.878   4.320
25730W        W89663   8.785  25.134  11.022
25731W        W89664  36.045  27.062   0.273
25732W        W89665  39.999  32.434   0.373
25733W        W89666  31.595  44.004   4.280
25734W        W89667   3.841  24.522  12.373
25735W        W89668  14.142  22.723   4.129
25736W        W89669  11.152  16.597  14.278
25737W        W89670  40.006  10.838  14.470
25738W        W89671  40.346   9.367   3.661
25739W        W89672  21.630  23.630  11.375
25740W        W89673  38.369   0.800   1.253
25741W        W89674  30.953  28.582   4.834
25742W        W89675  16.124  14.701  13.005
25743W        W89676   4.315  43.990  14.482
25744W        W89677   0.340  29.533   3.694
25745W        W89678  21.561   2.336  14.508
25746W        W89679  16.149  21.527   0.740
25747W        W89680  12.245  12.281   3.721
25748W        W89681   0.856  34.905   1.427
25749W        W89682  10.685  23.615   0.258
25750W        W89683  20.181  34.998   4.150
25751W        W89684  37.980  38.529  14.867
25752W        W89685  19.586  21.721  14.909
25753W        W89686   5.728  40.837   3.667
25754W        W89687  33.380  31.559   1.386
25755W        W89688   7.694  30.083  14.445
25756W        W89689  40.011  40.345   0.783
25757W        W89690  42.810  18.094   0.844
25758W        W89691  25.623  43.010  14.313
25759W        W89692  24.583  15.278   4.730
25760W        W89693  14.150   5.891   3.336
25761W        W89694  21.575  37.563   0.779
25762W        W89695  11.756  28.082  12.433
25763W        W89696  35.508  30.017  11.526
25764W        W89697   5.319  30.424   2.715
25765W        W89698  24.711  41.043  12.992
25766W        W89699  31.492  30.605   0.905
25767W        W89700  37.394  39.825   0.463
25768W        W89701  32.032  24.661  12.844
25769W        W89702  12.171  16.647  14.967
25770W        W89703   3.938  42.903  10.593
25771W        W89704  21.145  40.856  12.978
25772W        W89705  14.717  24.181  11.120
25773W        W89706  44.912  12.325  13.338
25774W        W89707   2.844  24.020   1.806
25775W        W89708  36.528  12.757   4.308
25776W        W89709   0.902  20.052  12.450
25777W        W89710   6.195  17.633   1.310
25778W        W89711   3.368  19.637  13.858
25779W        W89712  28.947  39.044   1.262
25780W        W89713   8.194  21.602  13.308
25781W        W89714  42.812  42.842  13.013
25782W        W89715  17.109  34.924  12.354
25783W        W89716  22.658  30.949   0.251
25784W        W89717  24.186  34.612   4.601
25785W        W89718  13.632  12.810   3.812
25786W        W89719   2.463  26.964   0.413
25787W        W89720  30.037  40.374   2.835
25788W        W89721  30.951   0.862   0.924
25789W        W89722  24.098   7.784  10.471
25790W        W89723  27.467  31.623  14.469
25791W        W89724  42.434   1.827  13.022
25792W        W89725  14.208  42.924  14.792
25793W        W89726   8.274   4.801  13.348
25794W        W89727  43.327  39.532  12.028
25795W        W89728  44.935  22.649   4.624
25796W        W89729  42.976   4.291  10.010
25797W        W89730  19.573   2.882   0.370
25798W        W89731  17.773  15.154   1.922
25799W        W89732  30.484  37.557  11.525
25800W        W89733  18.752  42.355   2.774
25801W        W89734  26.688  20.202  12.384
25802W        W89735   3.758  14.686  11.592
25803W        W89736  27.636  15.728   1.315
25804W        W89737  31.038   1.391  12.357
25805W        W89738  32.581  37.340   1.917
25806W        W89739  36.903   9.262  12.575
25807W        W89740  26.518  37.377  11.555
25808W        W89741   9.169  21.607  10.405
25809W        W89742  26.630  12.313   4.666
25810W        W89743  16.649   8.335   4.710
25811W        W89744  41.997   7.238   1.888
25812W        W89745   8.847  26.968   3.373
25813W        W89746  40.810  36.903   3.326
25814W        W89747  17.226  20.268  14.993
25815W        W89748  21.688  15.649  14.366
25816W        W89749   4.789  32.991  13.372
25817W        W89750   8.668   3.905   1.275
25818W        W89751  26.686  34.993   0.823
25819W        W89752  36.066  25.977  10.503
25820W        W89753  36.468  20.671   1.407
25821W        W89754  19.148  18.785   2.391
25822W        W89755  27.488  31.506   3.377
25823W        W89756  15.801  43.421  11.466
25824W        W89757   8.889   3.840  10.939
25825W        W89758   5.425  25.178   0.841
25826W        W89759  44.875  35.578  14.448
25827W        W89760   7.190  32.895   0.905
25828W        W89761  17.305   3.807   0.899
25829W        W89762  19.690  27.681   4.142
25830W        W89763   9.855  17.138   4.610
25831W        W89764  11.323  10.833   4.232
25832W        W89765  17.563   9.383   3.207
25833W        W89766   1.780  36.520  13.000
25834W        W89767  11.634   8.893  12.568
25835W        W89768  38.839  35.923   5.166
25836W        W89769  20.122   7.764   3.309
25837W        W89770  31.972  16.288   1.441
25838W        W89771  24.992  35.997   3.857
25839W        W89772   5.349  37.990  14.018
25840W        W89773  21.079  31.119  10.499
25841W        W89774  44.499   0.405  11.460
25842W        W89775  16.801   3.817  12.526
25843W        W89776  29.448   9.251   3.386
25844W        W89777  43.802  39.957  10.603
25845W        W89778   0.355  21.105  13.925
25846W        W89779   5.299  22.037  12.888
25847W        W89780  19.079   0.250   2.281
25848W        W89781  24.998  31.906   4.154
25849W        W89782  27.990   1.410   4.674
25850W        W89783   9.857  15.109   1.284
25851W        W89784  10.345  20.548   2.268
25852W        W89785  33.384  36.560  10.583
25853W        W89786  41.829  43.895  14.904
25854W        W89787  13.244  36.081  12.416
25855W        W89788  38.438  32.434  14.946
25856W        W89789  18.083  14.671   2.379
25857W        W89790   3.765  23.578   0.918
25858W        W89791  37.557   0.355   2.714
25859W        W89792  13.813  14.311  13.824
25860W        W89793  34.889  41.529  10.072
25861W        W89794   7.173   6.279   4.745
25862W        W89795  18.637  41.015   4.607
25863W        W89796  21.082  30.104   2.759
25864W        W89797   2.370   1.289   2.868
25865W        W89798   5.301  15.698   1.360
25866W        W89799  37.438  21.518  13.472
25867W        W89800  30.154  16.640   4.127
25868W        W89801  41.842  32.015  12.970
25869W        W89802  19.184  32.627   3.197
25870W        W89803  41.814  22.237   4.759
25871W        W89804  24.660   5.692   3.259
25872W        W89805  18.280   4.378   1.708
25873W        W89806  13.824  10.262  12.010
25874W        W89807  27.530  42.997   0.363
25875W        W89808  37.393  43.978   3.656
25876W        W89809  27.639   6.183   3.275
25877W        W89810   0.285   7.889   4.785
25878W        W89811  44.823  26.477   3.669
25879W        W89812  20.680   7.826   4.242
25880W        W89813   9.782  34.982  12.547
25881W        W89814  43.813  44.900  13.924
25882W        W89815  34.093  20.036  14.937
25883W        W89816  31.580   8.314   0.436
25884W        W89817  33.886  32.960   3.297
25885W        W89818  14.122  19.645   0.840
25886W        W89819  23.034  37.962  11.431
25887W        W89820  12.346  23.081   3.362
25888W        W89821  14.641  17.675  12.474
25889W        W89822   4.729  43.999   3.727
25890W        W89823  40.814  15.623  13.355
25891W        W89824  36.513  38.547  12.348
25892W        W89825  35.467  24.210  10.410
25893W        W89826  44.482  31.490  13.868
25894W        W89827  41.862  12.258   3.247
25895W        W89828  33.533  32.441   3.810
25896W        W89829  31.023  17.063   2.312
25897W        W89830  23.699  44.770   5.124
25898W        W89831   6.183  21.017   2.730
25899W        W89832  20.196  15.281   1.776
25900W        W89833   4.400   9.779  11.003
25901W        W89834  32.578  44.960   1.363
25902W        W89835  32.885  21.661   0.255
25903W        W89836   7.715  18.109  10.947
25904W        W89837   0.442  13.763   2.693
25905W        W89838  40.846   6.837  13.948
25906W        W89839  28.509   4.415   1.324
25907W        W89840   4.890  13.147   1.714
25908W        W89841  34.088  18.767  11.911
25909W        W89842  19.661   6.922  12.417
25910W        W89843   2.340  11.152  13.014
25911W        W89844  10.708  30.444  14.407
25912W        W89845  10.676  24.203  14.888
25913W        W89846  21.237  28.657   0.863
25914W        W89847  34.593  42.327  14.451
25915W        W89848  14.259  12.663  10.453
25916W        W89849  31.439  23.999  11.891
25917W        W89850   4.424  29.551  13.863
25918W        W89851   4.800  16.696  14.441
25919W        W89852   8.338  39.313  12.500
25920W        W89853  19.541  23.576   0.332
25921W        W89854  36.388  29.992  14.498
25922W        W89855  31.933  29.462   3.185
25923W        W89856  16.144  19.106  13.054
25924W        W89857  15.211  27.515   2.242
25925W        W89858  20.152  36.861   3.660
25926W        W89859  40.033  18.740  13.318
25927W        W89860  13.826  43.514   2.282
25928W        W89861  17.234  17.146   2.302
25929W        W89862   8.705  28.975  13.543
25930W        W89863  12.696   1.958  11.012
25931W        W89864  37.048   2.772  12.970
25932W        W89865  38.533  24.111  11.871
25933W        W89866  42.386   3.748   2.372
25934W        W89867  25.557  35.096  14.922
25935W        W89868  22.040  37.057  12.911
25936W        W89869  44.918  30.419   3.866
25937W        W89870  44.805  20.238   3.159
25938W        W89871   8.247  23.090  10.508
25939W        W89872   6.186  32.914  13.348
25940W        W89873  42.377  30.512  14.777
25941W        W89874   8.375  23.516  13.873
25942W        W89875  15.644  15.113  11.889
25943W        W89876  21.059  38.989   1.441
25944W        W89877  10.781  39.500  12.528
25945W        W89878  21.750  36.353  12.037
25946W        W89879  33.037   6.728   0.351
25947W        W89880  23.660  18.648   3.641
25948W        W89881  26.049  10.875  13.804
25949W        W89882  15.700  33.403  10.925
25950W        W89883  26.673   6.855   1.346
25951W        W89884  12.771   7.875   1.329
25952W        W89885  14.248  17.147  12.461
25953W        W89886   3.454   9.385   2.882
25954W        W89887  32.494  26.538  14.943
25955W        W89888  16.650  28.601   2.326
25956W        W89889  21.635  15.597   2.899
25957W        W89890   1.783  24.651   4.681
25958W        W89891  42.779  42.473   4.647
25959W        W89892  11.695  36.859   1.404
25960W        W89893   8.281  10.299  12.882
25961W        W89894  24.211  28.011   2.687
25962W        W89895  14.670  26.597   5.228
25963W        W89896  20.648  21.072   3.314
25964W        W89897  36.465  43.273  13.025
25965W        W89898  28.669   7.184   2.233
25966W        W89899  42.889   1.460  11.011
25967W        W89900  17.108   4.730  14.853
25968W        W89901  39.891  31.956   4.253
25969W        W89902   2.363  38.977  11.018
25970W        W89903  23.639  40.323  11.543
25971W        W89904  29.136  26.532   1.239
25972W        W89905  15.742  20.604  13.019
25973W        W89906  44.348  37.518  13.808
25974W        W89907  41.463  27.487  11.951
25975W        W89908   4.874  18.288  13.870
25976W        W89909  14.817  24.701   0.887
25977W        W89910  41.309  37.905   4.138
25978W        W89911  29.452  19.167   1.851
25979W        W89912   8.694  31.910   3.150
25980W        W89913   4.392  26.036   9.487
25981W        W89914  39.478  10.198   1.775
25982W        W89915  38.951  38.352  14.939
25983W        W89916  14.250   3.451   2.384
25984W        W89917  15.284   5.688   1.267
25985W        W89918  44.971  33.443   1.447
25986W        W89919  28.085   6.718  14.394
25987W        W89920  41.001   8.387   3.743
25988W        W89921  38.383  37.931   2.290
25989W        W89922  44.839   9.728   4.141
25990W        W89923  27.197  37.378  12.448
25991W        W89924  29.073  34.970  14.766
25992W        W89925  25.114  31.609  11.985
25993W        W89926  23.196  18.100   0.361
25994W        W89927   3.377  37.966   2.218
25995W        W89928  22.098   9.814   5.148
25996W        W89929   2.781  43.513   3.814
25997W        W89930  13.342  42.998   3.785
25998W        W89931  17.144  14.812  10.911
25999W        W89932  22.550  14.185  11.020
26000W        W89933  21.254  19.724   0.898
26001W        W89934  38.445   1.825  12.089
26002W        W89935  43.405  42.286  11.064
26003W        W89936   8.172  35.865   3.158
26004W        W89937   8.304  24.589   1.824
26005W        W89938  41.986   7.859   4.627
26006W        W89939   9.761  33.599   3.300
26007W        W89940  14.210  22.543  13.061
26008W        W89941  23.025   5.701   2.819
26009W        W89942  21.637  32.486   0.931
26010W        W89943  22.519  17.743   4.339
26011W        W89944  32.897  32.036   4.611
26012W        W89945  17.693  22.139   0.754
26013W        W89946  29.127  19.559   4.618
26014W        W89947  24.182  44.456  10.498
26015W        W89948  35.491  15.318   3.189
26016W        W89949   9.291  42.979   2.708
26017W        W89950   1.757  27.994  11.410
26018W        W89951  22.025   1.731   2.202
26019W        W89952  43.991   2.752   0.407
26020W        W89953  36.364   3.334   3.265
26021W        W89954  15.196  20.230   2.281
26022W        W89955  16.634  18.233   3.248
26023W        W89956   5.237  12.656   2.243
26024W        W89957  22.571  25.103   0.818
26025W        W89958   6.328   6.682  14.879
26026W        W89959   8.264  38.341  14.454
26027W        W89960   7.394  20.677  13.855
26028W        W89961   4.220  40.924   1.906
26029W        W89962  17.227  30.999  13.429
26030W        W89963   0.810  15.083   3.357
26031W        W89964  37.889  44.929  10.495
26032W        W89965  42.858  24.630  14.759
26033W        W89966  19.608  22.643   3.647
26034W        W89967  26.509   1.774   4.180
26035W        W89968   5.908   3.292  13.832
26036W        W89969  38.032   6.823   4.235
26037W        W89970  38.519   3.842  11.862
26038W        W89971  35.895  10.309   3.351
26039W        W89972  32.945  14.238  11.420
26040W        W89973  12.617  13.665   0.806
26041W        W89974   7.242  18.146  13.011
26042W        W89975  26.462  42.284  14.461
26043W        W89976   6.720  17.571   3.631
26044W        W89977  15.707   3.274   2.899
26045W        W89978  16.578   5.714  12.474
26046W        W89979  14.622  18.252  13.373
26047W        W89980  36.505   1.896  10.106
26048W        W89981  13.781  27.945   4.271
26049W        W89982  33.894  30.020  13.367
26050W        W89983  38.369  31.944  11.073
26051W        W89984  35.051   9.348   4.603
26052W        W89985  17.664  10.281   9.940
26053W        W89986  20.528  34.573   0.946
26054W        W89987  36.528   8.168   2.718
26055W        W89988   1.367  36.488   2.189
26056W        W89989  19.192  23.023  13.352
26057W        W89990  42.381  37.397   1.222
26058W        W89991  27.979  30.576  12.544
26059W        W89992  24.498  11.277  12.403
26060W        W89993  35.899  34.975   1.264
26061W        W89994  18.593  27.992  12.041
26062W        W89995  21.633  28.592   9.979
26063W        W89996  33.393  30.479   0.373
26064W        W89997   9.388  18.296  14.927
26065W        W89998  15.732  43.877  14.278
26066W        W89999  32.937  18.206  10.521
26067W        W90000  12.223  20.095   0.411
26068W        W90001  17.110  40.983   3.662
26069W        W90002  11.254  14.668   0.852
26070W        W90003  27.576   4.776  12.485
26071W        W90004   6.340  35.589   3.215
26072W        W90005  34.864  36.449   2.406
26073W        W90006   5.199  37.412   0.728
26074W        W90007   3.330  41.966  11.461
26075W        W90008  36.496  18.092  10.502
26076W        W90009  25.694  14.626  10.549
26077W        W90010  21.566  26.524   5.583
26078W        W90011  19.710   7.668   4.245
26079W        W90012  11.205  44.387  11.416
26080W        W90013  15.675  41.496   3.280
26081W        W90014  44.432  24.196   5.125
26082W        W90015  15.633  17.639  14.398
26083W        W90016  16.143   0.947  12.861
26084W        W90017  36.515   1.261   4.154
26085W        W90018  23.165   7.863   3.312
26086W        W90019  40.405  29.660  14.998
26087W        W90020  33.064   1.296   2.783
26088W        W90021  21.528  33.559  10.912
26089W        W90022  34.560  11.781  10.632
26090W        W90023   5.797  42.376   0.744
26091W        W90024  30.910   6.848   2.264
26092W        W90025  19.062  41.871  11.551
26093W        W90026  41.377  30.490  11.441
26094W        W90027  17.653   1.344   1.340
26095W        W90028   8.807  39.056  12.446
26096W        W90029  20.711  23.555  13.982
26097W        W90030   5.385  37.455   0.403
26098W        W90031  14.779   6.232   4.165
26099W        W90032  16.677   8.749  10.526
26100W        W90033  43.887  13.842  13.014
26101W        W90034  37.030  17.750   4.668
26102W        W90035   5.300  36.998  14.991
26103W        W90036  16.082  20.562   3.858
26104W        W90037  40.501  31.422  14.774
26105W        W90038  18.125   9.840  13.462
26106W        W90039  24.031  21.682  14.326
26107W        W90040  14.657  32.533  12.856
26108W        W90041  33.511  22.601  12.466
26109W        W90042  33.608   9.344   1.772
26110W        W90043  14.831   6.864   3.178
26111W        W90044  34.498  19.060   2.371
26112W        W90045  28.115  18.766   1.889
26113W        W90046  28.565  42.868  10.580
26114W        W90047  31.972  26.097  14.953
26115W        W90048   6.199  17.105   1.809
26116W        W90049  38.053   5.716  11.376
26117W        W90050  44.471   9.726   1.440
26118W        W90051  40.053  41.921   2.706
26119W        W90052  42.364  31.074   2.251
26120W        W90053  32.889  16.257  13.983
26121W        W90054  11.839  14.634   3.290
26122W        W90055  38.010  38.379  11.045
26123W        W90056  27.004  35.490   0.963
26124W        W90057  40.438  12.124   2.184
26125W        W90058   7.331  19.136   2.328
26126W        W90059  24.575  30.491   4.204
26127W        W90060  27.950  38.066  14.340
26128W        W90061  43.315  43.793  11.557
26129W        W90062   2.759  27.629   3.847
26130W        W90063  30.120  17.710  11.944
26131W        W90064  16.727  21.542  12.509
26132W        W90065   9.775  12.725   3.301
26133W        W90066   7.324  36.053   0.941
26134W        W90067   7.861   8.897   4.792
26135W        W90068  22.141  44.806  11.552
26136W        W90069  20.539   7.804   0.800
26137W        W90070  30.109   5.368   2.289
26138W        W90071  14.130  23.043  13.011
26139W        W90072   7.684  17.150  13.484
26140W        W90073  40.444  22.077   2.211
26141W        W90074  18.184  11.156   0.481
26142W        W90075  42.318  12.189   2.289
26143W        W90076   5.893  26.985  14.299
26144W        W90077   3.307   3.738  14.781
26145W        W90078  40.893  18.709   0.766
26146W        W90079  23.096  23.507   0.776
26147W        W90080   7.765   8.700   3.821
26148W        W90081   8.183  42.812  11.962
26149W        W90082  32.961  41.875  13.474
26150W        W90083  32.572  12.244   1.319
26151W        W90084  38.556  39.345   0.904
26152W        W90085  10.363   6.280  11.005
26153W        W90086  18.746  21.174   4.647
26154W        W90087  18.172  33.434  13.334
26155W        W90088  16.287  20.708   2.802
26156W        W90089  40.472   6.912   4.162
26157W        W90090  29.600   0.966   1.389
26158W        W90091  14.592  18.553   1.310
26159W        W90092  11.661   6.339   9.923
26160W        W90093  26.563   8.797   3.221
26161W        W90094  33.394  13.635   5.276
26162W        W90095   8.731  31.535   3.204
26163W        W90096  37.056  39.053  14.424
26164W        W90097  33.564  34.061   3.382
26165W        W90098  35.926  25.565   0.939
26166W        W90099  16.777  44.786   2.897
26167W        W90100  35.568  14.265   3.711
26168W        W90101  42.493  40.429  14.362
26169W        W90102  19.076   2.793  14.941
26170W        W90103  39.502   0.932   1.279
26171W        W90104  20.102  11.641  12.039
26172W        W90105  32.917  27.126   2.748
26173W        W90106  40.346  38.421  11.041
26174W        W90107  40.384  13.315  14.830
26175W        W90108  33.874  28.979  12.445
26176W        W90109  12.632   9.201   3.644
26177W        W90110   1.909  39.421  11.867
26178W        W90111  40.450  10.821  11.404
26179W        W90112  43.787  29.670  14.855
26180W        W90113  23.090   1.243  13.828
26181W        W90114  27.686  12.347  11.374
26182W        W90115  37.999  27.524  13.955
26183W        W90116  15.618   8.328   1.378
26184W        W90117  35.917  18.064   4.219
26185W        W90118  13.756   1.746   4.152
26186W        W90119  14.726   4.731   0.774
26187W        W90120  14.687  27.059   3.315
26188W        W90121  41.364  42.867   0.253
26189W        W90122  21.593  39.967   3.653
26190W        W90123  17.217   5.814   5.304
26191W        W90124  33.473  33.626  12.973
26192W        W90125  28.070   3.402  11.117
26193W        W90126   9.348  19.678   1.918
26194W        W90127   0.475   6.230   3.779
26195W        W90128   0.974  35.416  14.891
26196W        W90129  33.425  17.742   2.243
26197W        W90130  21.178  27.554   2.789
26198W        W90131  32.394  13.605   0.420
26199W        W90132   5.317   8.873  10.899
26200W        W90133   6.920   7.344  11.604
26201W        W90134  14.202   9.206  14.443
26202W        W90135  12.698  30.557  14.927
26203W        W90136  39.528  24.038   3.358
26204W        W90137  29.098  18.205   1.917
26205W        W90138  36.489  44.282   2.288
26206W        W90139  36.028  37.491   2.342
26207W        W90140  27.511  37.387   1.316
26208W        W90141  10.235  40.916   5.235
26209W        W90142  43.415  28.525  12.890
26210W        W90143  31.600  11.369   2.878
26211W        W90144  27.005   8.347   3.719
26212W        W90145  41.951   1.975  13.893
26213W        W90146   6.769  39.918  12.924
26214W        W90147  35.998  39.457  14.447
26215W        W90148   7.398  33.432   3.677
26216W        W90149  38.528  20.117   3.744
26217W        W90150  26.596   3.738   3.153
26218W        W90151  12.234  23.727   2.179
26219W        W90152  21.596  18.723   4.655
26220W        W90153  44.853   1.916   4.190
26221W        W90154  36.006  26.619  10.913
26222W        W90155   5.361   6.342   2.801
26223W        W90156  39.505   7.762   1.785
26224W        W90157  21.095  18.598   1.435
26225W        W90158  30.606  24.582  14.452
26226W        W90159  15.123   9.370   4.624
26227W        W90160  39.057  21.192  13.039
26228W        W90161  23.040  11.781  13.520
26229W        W90162  41.358  16.653   2.720
26230W        W90163  32.565  30.459  12.442
26231W        W90164  27.542  20.266  12.879
26232W        W90165  24.719  30.617  11.862
26233W        W90166  34.606  39.912  10.534
26234W        W90167  22.172  26.568   2.729
26235W        W90168  26.108  20.750  13.803
26236W        W90169  32.569  23.566   1.765
26237W        W90170  28.182   0.334  13.459
26238W        W90171  41.404   6.811   0.782
26239W        W90172   7.378   6.406  11.047
26240W        W90173  37.512  23.084  11.973
26241W        W90174  39.961  41.039   1.741
26242W        W90175  26.469  14.205  12.384
26243W        W90176  22.676  32.887  12.912
26244W        W90177  21.262   6.690  13.972
26245W        W90178  26.110   6.361  14.412
26246W        W90179  43.371  37.073  12.872
26247W        W90180  34.080  27.169  13.904
26248W        W90181  18.287  35.969  13.874
26249W        W90182  12.691   8.302  13.976
26250W        W90183  17.149  20.265   9.468
26251W        W90184  34.546  42.423   4.224
26252W        W90185  33.030  10.633  12.048
26253W        W90186  30.585   3.293  11.963
26254W        W90187  38.473  38.437  13.019
26255W        W90188  21.169  26.099   2.781
26256W        W90189  39.868  25.118   0.283
26257W        W90190  32.014  36.914  13.837
26258W        W90191  31.592  15.285  11.528
26259W        W90192  25.660   9.765  10.972
26260W        W90193  15.092  33.981  11.965
26261W        W90194  41.950   5.705   2.329
26262W        W90195  10.318  36.890  14.465
26263W        W90196   9.663  21.110  14.426
26264W        W90197  15.137  30.162   4.282
26265W        W90198  35.925  35.404   1.890
26266W        W90199  39.349  25.528   4.203
26267W        W90200  26.576   9.705  10.586
26268W        W90201  12.833  39.342   3.838
26269W        W90202  20.672   9.767  10.949
26270W        W90203  22.021  10.826  13.335
26271W        W90204  29.456  14.723  11.404
26272W        W90205  41.990  12.755   2.832
26273W        W90206  36.858  16.773  13.468
26274W        W90207  40.937  25.171   3.383
26275W        W90208  29.424  38.905  11.917
26276W        W90209  14.817   3.436   2.385
26277W        W90210   4.248  43.926   0.781
26278W        W90211   9.651  29.482   3.705
26279W        W90212  18.161   6.396   4.708
26280W        W90213  44.873  20.593  11.917
26281W        W90214  18.110  23.675  10.455
26282W        W90215  19.056  22.550  12.069
26283W        W90216   2.849  12.757   2.826
26284W        W90217  19.167  32.561   3.750
26285W        W90218  16.159  40.824  14.507
26286W        W90219  40.028  33.623  13.056
26287W        W90220  20.194  41.449  12.929
26288W        W90221   9.796   4.837  13.804
26289W        W90222  13.231  30.032   0.954
26290W        W90223  35.371  25.574  13.868
26291W        W90224  30.016   3.438   2.296
26292W        W90225  29.478  42.462  14.985
26293W        W90226  32.532  24.204  11.479
26294W        W90227  28.997  36.400   2.695
26295W        W90228  27.128  43.794  10.958
26296W        W90229   3.433  25.014   2.756
26297W        W90230  33.944   1.742  13.974
26298W        W90231  19.729   3.305   4.730
26299W        W90232  41.941   4.246  10.506
26300W        W90233  33.502  32.136   5.254
26301W        W90234   8.330   9.377  13.362
26302W        W90235  21.529  17.564  14.438
26303W        W90236  10.190  34.106  12.013
26304W        W90237   6.235  24.155  13.548
26305W        W90238   9.324  39.887   3.151
26306W        W90239  31.121  22.575  13.970
26307W        W90240  36.557   9.873   3.212
26308W        W90241  35.860   1.838   4.729
26309W        W90242  22.095  35.995  13.930
26310W        W90243  28.073  41.430   4.699
26311W        W90244  20.541  20.698  12.029
26312W        W90245  25.502  25.507   1.865
26313W        W90246  38.856  14.265  10.456
26314W        W90247  38.418  23.642   3.331
26315W        W90248   9.224   0.853  12.400
26316W        W90249  29.441  44.756  14.815
26317W        W90250  18.619  13.299   0.750
26318W        W90251   5.809  26.185   2.783
26319W        W90252  25.011   3.950  11.121
26320W        W90253  28.137   5.796  13.936
26321W        W90254   5.850  12.276  14.827
26322W        W90255  11.857   3.869   4.138
26323W        W90256  25.034   3.216  14.874
26324W        W90257  37.532  33.429   5.295
26325W        W90258  26.007  34.452   0.263
26326W        W90259  33.056  36.933  10.420
26327W        W90260  23.012  39.414  12.432
26328W        W90261  17.087   9.256   2.839
26329W        W90262  20.044  26.042   2.356
26330W        W90263   0.787  23.650  10.482
26331W        W90264  24.191  35.567  14.506
26332W        W90265  13.234  10.380  14.414
26333W        W90266  17.064  14.805  14.827
26334W        W90267  17.257  20.090   3.211
26335W        W90268  32.006   4.346  13.547
26336W        W90269   7.303  44.429   2.846
26337W        W90270  35.898  16.621   3.176
26338W        W90271  19.088  37.433  13.038
26339W        W90272  10.207  41.525   3.722
26340W        W90273  37.897  13.270  11.118
26341W        W90274  30.953  16.076   0.285
26342W        W90275   7.309  23.075  14.506
26343W        W90276  17.775  13.747  14.408
26344W        W90277  22.524   6.366  10.539
26345W        W90278   8.294   5.791   2.819
26346W        W90279   7.899  21.727  12.033
26347W        W90280   5.302   5.329  13.931
26348W        W90281   2.320  34.564  13.413
26349W        W90282   3.232  32.479   2.234
26350W        W90283   6.185  28.597  13.885
26351W        W90284  28.527  43.488   5.192
26352W        W90285  32.428  20.629  14.289
26353W        W90286  29.523  28.572   0.278
26354W        W90287  15.773  23.116   0.377
26355W        W90288  19.598  26.051  10.110
26356W        W90289  43.322  18.767  13.513
26357W        W90290  39.812  41.995  13.958
26358W        W90291   4.826   4.371   5.590
26359W        W90292  23.168  27.130  13.931
26360W        W90293  34.574  18.294   3.730
26361W        W90294  19.622  25.608  13.923
26362W        W90295  20.154  21.089   0.444
26363W        W90296  40.436  42.285  12.013
26364W        W90297  25.170   6.375   4.777
26365W        W90298  11.797   8.705  14.997
26366W        W90299  44.003  10.336   4.726
26367W        W90300  16.571  18.209  11.983
26368W        W90301  13.788  22.656  10.410
26369W        W90302  17.695  26.486  11.609
26370W        W90303  40.960  23.115  12.358
26371W        W90304   0.356  25.185  12.482
26372W        W90305   2.423  17.682  11.561
26373W        W90306  28.147  38.428  10.490
26374W        W90307  24.142  22.158   1.743
26375W        W90308  25.996  28.971   2.782
26376W        W90309  40.313   7.850   2.313
26377W        W90310  16.100   1.772  11.378
26378W        W90311   6.260   0.784   3.673
26379W        W90312  30.926   5.843   9.943
26380W        W90313  14.328  17.217   4.230
26381W        W90314   4.853   7.371   2.860
26382W        W90315  38.980  22.118  13.031
26383W        W90316  42.802  32.551  14.988
26384W        W90317  27.665  17.591   1.338
26385W        W90318   0.841  39.027   3.352
26386W        W90319   0.815  12.798  13.338
26387W        W90320  19.181  40.823  11.484
26388W        W90321  28.106  30.048   0.275
26389W        W90322  42.376  12.798   4.718
26390W        W90323  16.797   5.922   1.913
26391W        W90324   9.774  40.353   1.903
26392W        W90325  36.987  32.594   1.301
26393W        W90326  28.548   6.384  10.891
26394W        W90327  17.276  32.559   3.670
26395W        W90328  40.439  16.139   4.171
26396W        W90329   2.896   8.169  12.369
26397W        W90330  21.063   8.245   4.341
26398W        W90331  28.553  16.125  11.521
26399W        W90332   8.302  33.996   1.236
26400W        W90333   4.819   1.359  13.312
26401W        W90334  14.716   7.766   1.908
26402W        W90335  13.333   2.280   0.421
26403W        W90336  19.752  35.040   5.284
26404W        W90337  33.533  18.605   3.699
26405W        W90338  29.565  17.277   0.950
26406W        W90339  21.676  18.275   0.737
26407W        W90340  34.068  29.006  14.488
26408W        W90341   8.867  33.975   3.230
26409W        W90342  17.631  19.284   5.111
26410W        W90343  16.081  33.503  11.986
26411W        W90344   1.294   8.728   2.781
26412W        W90345  41.499  10.744  11.400
26413W        W90346  41.355  17.669   2.793
26414W        W90347  19.188  12.237  12.881
26415W        W90348  24.089  18.109   2.903
26416W        W90349  38.928  31.597   0.828
26417W        W90350  20.159   4.737  11.395
26418W        W90351  14.743  44.296   2.876
26419W        W90352  38.329  36.968   2.816
26420W        W90353   7.748  39.851  10.080
26421W        W90354  30.445  22.062   4.827
26422W        W90355  18.744  40.413  10.525
26423W        W90356  14.334  35.915  14.359
26424W        W90357  39.457  29.999   1.226
26425W        W90358   6.357   9.334  14.308
26426W        W90359  21.595  41.974   0.966
26427W        W90360  26.972  14.221  12.423
26428W        W90361  35.889   6.776  14.465
26429W        W90362   4.362  44.832   2.681
26430W        W90363  24.709   8.834  10.405
26431W        W90364  28.515  24.490  14.801
26432W        W90365   0.447  44.889  14.905
26433W        W90366  33.430  36.397   9.929
26434W        W90367  11.675   5.233  14.817
26435W        W90368   2.768  33.438  11.400
26436W        W90369  37.451   9.174  11.473
26437W        W90370  30.926  36.052   2.252
26438W        W90371  44.491  24.987   4.634
26439W        W90372  42.804  20.700  11.510
26440W        W90373   7.698   9.243   4.178
26441W        W90374  32.590  13.845   4.804
26442W        W90375  40.350  21.260  10.950
26443W        W90376   8.178   3.757  11.941
26444W        W90377  20.087   2.275   3.299
26445W        W90378  42.297  24.701  14.302
26446W        W90379  15.229   4.229   4.182
26447W        W90380  24.980  30.109  12.380
26448W        W90381  23.054   0.376   1.922
26449W        W90382  24.564   4.790  14.356
26450W        W90383  30.072  32.938   2.743
26451W        W90384  40.046  35.995  12.346
26452W        W90385   6.323   7.361  13.049
26453W        W90386   1.325  36.549   1.894
26454W        W90387  22.147  30.517   0.935
26455W        W90388  16.104  41.304   4.261
26456W        W90389   7.910  43.855  14.369
26457W        W90390   3.339  13.137  12.555
26458W        W90391  26.621  26.027  14.024
26459W        W90392  11.329   2.876   2.188
26460W        W90393  37.975  42.905  11.981
26461W        W90394  37.382  34.941  10.489
26462W        W90395  13.619   6.389   2.689
26463W        W90396  14.116  30.586   1.887
26464W        W90397  25.179  36.464   4.736
26465W        W90398   9.888  11.145  13.062
26466W        W90399  14.813  34.469  13.387
26467W        W90400  12.671  17.637  12.824
26468W        W90401   4.720   2.343   4.709
26469W        W90402  12.697  16.231  11.480
26470W        W90403  35.504  36.471  13.439
26471W        W90404  24.026  27.970  12.859
26472W        W90405  13.771   6.687  11.879
26473W        W90406  40.866  38.020  14.873
26474W        W90407   3.758  10.848  13.805
26475W        W90408  21.518  10.279  12.503
26476W        W90409  39.356  41.328  12.850
26477W        W90410  21.566  42.800  11.119
26478W        W90411   1.457  10.141  12.846
26479W        W90412  37.058  38.569  12.043
26480W        W90413  39.933  16.275  14.277
26481W        W90414  41.956   2.386  13.900
26482W        W90415  30.496   4.243   0.878
26483W        W90416   1.949  42.472  10.943
26484W        W90417   5.375  43.462   0.862
26485W        W90418  12.727   4.263   3.237
26486W        W90419  18.761  40.365  14.879
26487W        W90420   9.829   3.736   2.888
26488W        W90421  31.496  19.756  14.347
26489W        W90422  36.433  39.539   2.772
26490W        W90423  31.971  20.094   2.306
26491W        W90424  35.067  20.737  13.995
26492W        W90425  30.941   6.884   0.928
26493W        W90426  33.433   8.676  10.027
26494W        W90427  24.190  12.700  12.489
26495W        W90428  27.003  14.234   5.093
26496W        W90429  26.456  10.377  13.503
26497W        W90430  30.542   0.450   3.331
26498W        W90431  13.264   6.317   1.857
26499W        W90432  28.945  40.972   3.346
26500W        W90433  37.532  38.428  12.897
26501W        W90434  31.125  38.412   1.316
26502W        W90435   0.947  21.742  12.869
26503W        W90436  42.990  25.494   0.373
26504W        W90437  38.425  16.735   1.319
26505W        W90438  20.533   3.241   3.184
26506W        W90439  37.046  40.833  12.484
26507W        W90440   6.422  28.052   0.955
26508W        W90441   7.219  35.518   1.446
26509W        W90442  35.570  27.593  13.419
26510W        W90443  10.810  24.106   4.221
26511W        W90444   3.948   4.778  11.563
26512W        W90445  26.505  27.446  11.440
26513W        W90446  25.095  20.590  10.916
26514W        W90447   2.304  35.537  11.493
26515W        W90448  34.974  26.001   1.221
26516W        W90449   3.947  13.128  12.899
26517W        W90450  25.998  40.837  14.858
26518W        W90451   9.813  10.297   4.114
26519W        W90452  40.956  24.561  13.834
26520W        W90453  13.309  17.116   1.355
26521W        W90454  19.719   8.780  10.537
26522W        W90455  34.425  43.917  14.421
26523W        W90456  41.816   7.830  14.466
26524W        W90457  36.525  19.732   3.662
26525W        W90458   6.255  38.820   0.313
26526W        W90459   4.732  29.039   2.675
26527W        W90460  36.584   6.413  10.483
26528W        W90461  15.246  10.870  10.535
26529W        W90462  43.816  40.528  12.418
26530W        W90463   4.864  23.152   0.317
26531W        W90464  34.927  41.320   3.674
26532W        W90465  21.241  17.118   3.662
26533W        W90466  13.633  13.320   2.773
26534W        W90467   0.761  38.472  13.541
26535W        W90468  31.939   7.400  12.964
26536W        W90469  23.139  18.650  14.414
26537W        W90470  41.411   1.320   2.760
26538W        W90471   3.724   8.817  13.049
26539W        W90472  11.211  33.905  12.477
26540W        W90473  44.767   3.810   4.303
26541W        W90474   0.792  26.176  12.995
26542W        W90475  29.045  23.607   0.803
26543W        W90476  43.990  14.831   1.758
26544W        W90477  42.788  17.130   4.667
26545W        W90478  21.609  28.170  12.381
26546W        W90479  39.517  33.469   0.431
26547W        W90480  42.989  19.564   3.316
26548W        W90481  43.417   7.357  10.482
26549W        W90482   2.732  16.189   2.889
26550W        W90483   1.949  38.538   0.919
26551W        W90484   9.660  10.307   0.803
26552W        W90485  20.663  34.993  13.515
26553W        W90486  39.315  20.674   4.631
26554W        W90487  27.112  35.457  11.509
26555W        W90488  32.437  27.630  14.832
26556W        W90489   0.374  17.789   0.397
26557W        W90490  16.192  12.157   1.244
26558W        W90491  43.435  43.348   4.734
26559W        W90492  18.134  34.941  10.441
26560W        W90493  36.544  36.942  12.442
26561W        W90494  44.004  28.093  13.982
26562W        W90495  32.440  12.347   3.844
26563W        W90496  18.652  23.534   0.292
26564W        W90497  35.106  38.466  13.352
26565W        W90498  34.043  14.701  11.064
26566W        W90499  43.841  18.645   0.463
26567W        W90500  29.135  29.448   1.793
26568W        W90501  26.104  33.961   0.425
26569W        W90502  36.586  14.335  14.824
26570W        W90503  25.028  15.326  10.576
26571W        W90504  22.645  36.877  13.809
26572W        W90505   1.369  32.450  12.069
26573W        W90506  30.999   2.819  11.545
26574W        W90507  19.216   3.243   0.772
26575W        W90508  12.322  10.358   3.297
26576W        W90509   8.673  35.599  10.972
26577W        W90510  39.439  33.452  11.547
26578W        W90511   1.367  11.206  12.495
26579W        W90512  21.221  30.615  11.444
26580W        W90513  10.150  32.912   3.778
26581W        W90514  23.048  18.123  12.502
26582W        W90515   6.187  23.187   9.593
26583W        W90516   2.815  18.251  14.874
26584W        W90517  26.480  25.627  13.423
26585W        W90518  31.042  23.503  12.083
26586W        W90519  43.474  32.419  10.543
26587W        W90520   4.836  21.125   3.237
26588W        W90521  21.666  38.840  11.040
26589W        W90522  36.371  12.735   4.782
26590W        W90523  26.471   8.777  10.961
26591W        W90524  31.633  23.069   4.650
26592W        W90525  14.767  10.805  14.898
26593W        W90526   4.810  19.155  11.043
26594W        W90527   8.696  18.743   1.697
26595W        W90528  39.392   4.807  10.459
26596W        W90529   2.464   9.162  11.075
26597W        W90530  25.013  35.996  10.503
26598W        W90531  32.511   3.846   2.751
26599W        W90532  11.629  38.879   0.912
26600W        W90533   6.287  15.252   2.370
26601W        W90534   3.813  44.429   2.856
26602W        W90535  19.673   6.366  10.970
26603W        W90536   2.807   9.169  12.342
26604W        W90537  23.634  19.727  12.898
26605W        W90538  44.457  38.944   1.296
26606W        W90539  20.718  18.689   4.268
26607W        W90540  37.481  19.676   4.818
26608W        W90541  33.407  26.951  14.993
26609W        W90542  29.937   2.804   2.745
26610W        W90543  18.549   1.886  10.445
26611W        W90544  23.500  25.129  10.546
26612W        W90545  21.041  22.631   3.650
26613W        W90546  17.186  13.273   2.202
26614W        W90547  35.366  27.679   3.745
26615W        W90548  23.233  23.999  12.924
26616W        W90549   6.204  37.532  12.390
26617W        W90550  30.034  26.006   1.703
26618W        W90551   8.722  12.331  14.507
26619W        W90552  36.926  44.338   0.856
26620W        W90553  21.650  30.060  13.991
26621W        W90554   6.681  18.557   0.765
26622W        W90555  19.659  20.244  13.460
26623W        W90556   0.766  24.197  11.057
26624W        W90557   7.339   2.400   3.340
26625W        W90558  29.055  19.619   3.729
26626W        W90559  25.088  13.289  12.896
26627W        W90560  20.083   3.253   0.891
26628W        W90561   9.303  26.657   4.704
26629W        W90562  12.642  23.151  11.457
26630W        W90563  11.211  18.568  13.376
26631W        W90564  19.139  15.115   4.155
26632W        W90565  24.709  25.675   3.757
26633W        W90566  43.500  25.535   0.756
26634W        W90567   1.859  33.419  13.970
26635W        W90568  28.974  12.347  12.954
26636W        W90569  20.709  40.490   3.300
26637W        W90570  11.701  20.762   3.797
26638W        W90571  28.994   7.751  10.529
26639W        W90572   3.853  35.928  14.451
26640W        W90573  36.354  25.659   2.857
26641W        W90574  15.580  43.312  10.982
26642W        W90575   6.230  42.291   0.368
26643W        W90576  17.143   0.483  12.358
26644W        W90577  19.702  20.620  10.536
26645W        W90578   3.373  17.790   0.362
26646W        W90579  33.570  41.327   5.202
26647W        W90580  17.070  33.077  12.855
26648W        W90581   2.939   3.818  12.371
26649W        W90582   8.235  28.126  10.415
26650W        W90583   1.326  19.157   3.375
26651W        W90584  21.642   1.273  10.902
26652W        W90585  22.112   5.796   0.388
26653W        W90586   8.661  40.510   3.381
26654W        W90587  22.009  38.379  11.583
26655W        W90588   5.224  19.218  12.844
26656W        W90589   0.869   6.410   2.818
26657W        W90590  15.782  36.858  13.445
26658W        W90591  28.137   6.246  13.535
26659W        W90592  39.496  35.983  10.550
26660W        W90593  43.401  37.564  12.365
26661W        W90594  44.351  38.444   4.188
26662W        W90595   1.379  21.646   3.768
26663W        W90596  25.650  29.577  14.333
26664W        W90597  12.162  18.782   2.750
26665W        W90598   3.419  16.288  10.963
26666W        W90599  34.582  12.351  10.634
26667W        W90600  29.144  18.548   4.725
26668W        W90601  43.797  12.339   1.782
26669W        W90602  44.350   7.392   2.790
26670W        W90603  27.093  19.685   2.333
26671W        W90604  29.470   6.829   2.236
26672W        W90605  38.444  16.167   2.259
26673W        W90606  43.805  28.024  11.482
26674W        W90607  24.581   5.194  13.002
26675W        W90608  34.993  34.009  14.800
26676W        W90609   4.908  16.732  10.615
26677W        W90610  16.566  31.636   0.256
26678W        W90611  18.233   8.313  14.001
26679W        W90612  18.184  20.588  11.610
26680W        W90613  33.468  42.428   0.961
26681W        W90614  37.479  37.479   9.930
26682W        W90615  41.789  29.118  11.965
26683W        W90616  42.886  18.070  12.381
26684W        W90617   3.858   2.320   2.205
26685W        W90618  15.211  16.271  12.884
26686W        W90619   5.926  19.085  14.396
26687W        W90620  37.363  38.519  14.824
26688W        W90621  34.379  22.674  12.879
26689W        W90622  19.226   8.276  12.344
26690W        W90623  27.077  13.151   2.888
26691W        W90624  42.413   0.880  12.093
26692W        W90625  30.535   6.722   3.791
26693W        W90626   5.251  26.021  10.408
26694W        W90627  29.060  43.978  13.887
26695W        W90628  38.437   3.817  10.509
26696W        W90629  22.198  12.760   5.194
26697W        W90630   2.338  26.119  14.833
26698W        W90631  23.156  33.610  13.433
26699W        W90632  31.900  19.107   2.388
26700W        W90633   6.379   5.287  12.382
26701W        W90634   9.217  39.827   4.671
26702W        W90635  38.327  17.569  10.645
26703W        W90636  31.125  31.129   3.383
26704W        W90637  24.134  18.714   3.688
26705W        W90638  44.318  26.169   3.691
26706W        W90639  43.966   1.888  11.996
26707W        W90640  23.233   9.251  11.605
26708W        W90641  38.001  16.256   3.302
26709W        W90642  35.944  27.620  14.913
26710W        W90643   1.871  31.472   1.781
26711W        W90644  22.075  44.301  11.955
26712W        W90645   1.477  15.231  12.359
26713W        W90646  22.222   2.810   0.741
26714W        W90647  26.588   2.941  12.072
26715W        W90648  21.259  41.513  14.816
26716W        W90649  43.272  31.907  11.920
26717W        W90650   4.914  38.483   4.113
26718W        W90651  34.448  22.995   0.298
26719W        W90652  16.775  32.433   3.326
26720W        W90653  31.580   8.671   2.272
26721W        W90654  20.095  44.395   0.756
26722W        W90655   2.247   0.950   0.319
26723W        W90656  32.463   6.348   1.439
26724W        W90657   9.169  18.071  13.368
26725W        W90658   8.264   4.206  13.352
26726W        W90659   2.947  35.574   2.713
26727W        W90660   8.702  40.438   5.105
26728W        W90661  29.561  21.571   0.959
26729W        W90662  40.381  43.435   2.265
26730W        W90663  21.237  34.468  11.418
26731W        W90664  16.635  31.434  14.451
26732W        W90665  29.099  24.984   2.341
26733W        W90666  34.537  24.650   2.846
26734W        W90667  21.117  10.841   9.973
26735W        W90668  24.511  38.516  10.494
26736W        W90669  39.551  13.148  12.468
26737W        W90670  34.100  10.708   0.440
26738W        W90671  29.525  11.138  12.048
26739W        W90672   8.691  23.712  13.812
26740W        W90673  20.734   7.760   0.338
26741W        W90674  23.501  37.512  11.065
26742W        W90675   4.263  31.102  13.903
26743W        W90676   5.239  31.413   1.886
26744W        W90677  43.999  17.201  14.309
26745W        W90678  34.902   2.404   3.369
26746W        W90679   8.885   2.414   2.266
26747W        W90680  19.224   0.473   3.648
26748W        W90681   9.741  24.208   3.697
26749W        W90682  22.690   4.819   2.346
26750W        W90683  15.649  18.252   3.230
26751W        W90684  23.034  25.676  13.498
26752W        W90685  17.729  39.324  13.054
26753W        W90686  17.716  41.914  12.513
26754W        W90687   0.430   1.316  12.429
26755W        W90688  11.717  44.329  12.078
26756W        W90689  42.488  24.608   1.230
26757W        W90690  43.378   0.341   4.781
26758W        W90691  15.261  21.074   5.152
26759W        W90692  28.968  16.743  11.991
26760W        W90693  42.363  38.057  11.897
26761W        W90694  16.162  29.426  12.954
26762W        W90695  37.035   0.404   4.818
26763W        W90696   7.266  13.107   3.787
26764W        W90697  27.020  39.830   0.321
26765W        W90698  37.532   4.388  12.849
26766W        W90699   5.771  21.241   3.870
26767W        W90700  31.492   6.829  14.442
26768W        W90701  38.952   3.724  14.295
26769W        W90702  21.121  42.810  10.953
26770W        W90703  27.121  28.519   2.287
26771W        W90704  12.170  16.621  11.499
26772W        W90705  24.517  16.747   2.701
26773W        W90706   7.779  23.068   2.667
26774W        W90707  30.970  28.969  14.284
26775W        W90708  44.474  41.786   0.378
26776W        W90709  13.709  43.903   4.739
26777W        W90710  18.205  42.440   4.214
26778W        W90711   6.702   6.862   5.173
26779W        W90712   8.672  44.285   0.396
26780W        W90713  35.475  28.436   4.233
26781W        W90714  44.871  11.849  12.091
26782W        W90715  12.310  39.981   4.299
26783W        W90716  19.055  23.078   4.271
26784W        W90717  15.662   5.777  14.412
26785W        W90718   5.772  39.459   3.801
26786W        W90719  11.236  44.827  12.934
26787W        W90720   3.373  38.840   0.443
26788W        W90721  28.962  32.538  14.970
26789W        W90722  23.541  44.347   4.120
26790W        W90723  14.735  22.735  14.430
26791W        W90724   4.276  31.024   3.848
26792W        W90725  17.244   1.244  11.412
26793W        W90726  29.057  11.371   2.737
26794W        W90727  36.920  36.558  10.994
26795W        W90728  36.952  25.591   0.730
26796W        W90729  32.491  22.562   4.264
26797W        W90730  44.936   1.393  12.364
26798W        W90731  28.964  33.596   2.825
26799W        W90732   5.712  36.504   2.245
26800W        W90733  13.255  28.581  14.876
26801W        W90734  26.498   6.361   3.303
26802W        W90735  18.192  43.792  11.530
26803W        W90736  23.511  39.906   1.916
26804W        W90737  26.116  38.913  13.951
26805W        W90738  34.521  29.668   0.267
26806W        W90739  20.131   7.687   2.416
26807W        W90740  11.255  22.205   1.238
26808W        W90741   1.314  15.102   4.670
26809W        W90742   6.827  31.011  10.503
26810W        W90743   3.898  27.134  11.371
26811W        W90744  12.738  13.304  11.112
26812W        W90745  17.558  19.678   4.167
26813W        W90746  42.312  22.248   0.826
26814W        W90747  22.202  36.885   4.175
26815W        W90748  34.948  10.181  11.550
26816W        W90749  27.608  25.966  14.996
26817W        W90750  32.936  26.099  11.398
26818W        W90751  16.220  37.352   0.329
26819W        W90752  20.698   5.783   0.931
26820W        W90753   5.803  33.888   1.765
26821W        W90754  40.817   4.424   1.366
26822W        W90755  28.931  16.199   2.900
26823W        W90756   2.953  40.032  11.058
26824W        W90757  11.273  26.463   1.828
26825W        W90758  36.542  42.445   4.290
26826W        W90759  18.153  21.151  14.476
26827W        W90760  23.011   6.899  12.948
26828W        W90761   7.227  25.644   5.579
26829W        W90762  38.898  34.508   4.651
26830W        W90763  25.019  26.486   1.856
26831W        W90764  11.217  16.189  12.038
26832W        W90765  41.519  21.674  13.519
26833W        W90766  18.124  23.111  11.483
26834W        W90767  44.416   9.214  13.391
26835W        W90768   6.383  21.062  12.859
26836W        W90769   8.377   2.921   0.741
26837W        W90770  33.874  34.948  10.901
26838W        W90771  39.931  12.840   0.468
26839W        W90772   8.205  23.170  12.923
26840W        W90773  44.446  37.882   2.194
26841W        W90774  15.753  16.196   2.865
26842W        W90775  14.196  36.434  14.824
26843W        W90776  32.129   5.861  12.553
26844W        W90777  16.603  11.852  13.826
26845W        W90778  19.565  27.024   1.905
26846W        W90779  39.427  34.108   3.210
26847W        W90780   6.195   8.367  14.819
26848W        W90781  16.738  41.456   3.359
26849W        W90782  41.369  43.008  14.893
26850W        W90783  14.305   2.463  12.866
26851W        W90784  14.713  20.714  13.887
26852W        W90785  17.113   1.836  10.467
26853W        W90786  40.307  32.108  11.434
26854W        W90787  36.992  33.532   3.161
26855W        W90788   8.709   9.260  10.613
26856W        W90789  41.897  18.079   0.763
26857W        W90790  29.091  41.519   2.330
26858W        W90791   8.696  30.574   0.460
26859W        W90792  13.833   2.857  13.849
26860W        W90793  29.019  30.065  10.608
26861W        W90794   7.896  40.910  13.463
26862W        W90795  24.649  10.731  13.421
26863W        W90796  38.333  34.576   3.303
26864W        W90797  30.154  27.113  11.457
26865W        W90798   8.308  42.921  14.396
26866W        W90799  13.600  44.446   3.366
26867W        W90800   1.956  41.797   3.684
26868W        W90801   9.266   2.292   4.786
26869W        W90802  16.693  34.471  13.055
26870W        W90803   2.896  27.088   1.847
26871W        W90804   5.786  35.478  14.931
26872W        W90805  32.089  26.667   2.245
26873W        W90806  25.059  27.179  14.834
26874W        W90807  37.083  13.678   3.642
26875W        W90808  36.453  39.439  11.513
26876W        W90809  24.044  16.190  14.921
26877W        W90810   5.301  43.969  11.094
26878W        W90811  28.473   7.862  14.964
26879W        W90812  33.590   7.333  10.987
26880W        W90813  13.602   5.326  11.104
26881W        W90814   9.294   4.914   3.350
26882W        W90815   6.343  11.230   0.296
26883W        W90816   5.773  27.993   1.450
26884W        W90817  31.481  13.784   4.655
26885W        W90818  35.876   7.741   2.394
26886W        W90819  44.968  35.928   2.680
26887W        W90820  14.704  22.090  12.379
26888W        W90821  35.364   7.179  13.012
26889W        W90822  35.479  17.792  14.954
26890W        W90823  39.032   4.765   1.823
26891W        W90824  11.190  44.260  10.630
26892W        W90825  13.264  13.635   4.720
26893W        W90826  19.095  22.625   3.273
26894W        W90827  33.042  35.086   3.231
26895W        W90828  32.420  35.484   3.724
26896W        W90829  30.517  44.931   4.618
26897W        W90830   0.758   8.794   1.871
26898W        W90831  32.575  25.586   4.728
26899W        W90832   9.801   2.297  13.030
26900W        W90833  34.016  26.181  10.596
26901W        W90834   1.264   4.441   2.250
26902W        W90835  41.442  25.112   3.258
26903W        W90836  21.703   9.373   0.454
26904W        W90837  10.818  15.087   1.823
26905W        W90838  32.632  31.429  13.422
26906W        W90839   2.919  38.346  13.912
26907W        W90840  13.611   6.373  11.493
26908W        W90841  13.650  26.991  10.915
26909W        W90842  36.984  39.374   3.239
26910W        W90843  11.236  43.476  12.876
26911W        W90844  33.425   6.832   3.205
26912W        W90845  18.789   6.354  11.995
26913W        W90846  11.807   7.361   1.423
26914W        W90847  43.319  44.390  14.032
26915W        W90848  12.844  34.605   4.292
26916W        W90849  35.429  38.963   3.664
26917W        W90850   8.213  14.625   3.732
26918W        W90851  19.244  26.206  13.850
26919W        W90852  38.070   7.319   0.939
26920W        W90853  32.064  10.663  13.311
26921W        W90854  28.977  32.102  14.355
26922W        W90855  38.903  27.633   0.849
26923W        W90856   2.772  17.116   0.955
26924W        W90857   2.376  30.912   3.721
26925W        W90858  26.982  22.677  10.440
26926W        W90859  29.089  29.566   2.394
26927W        W90860  24.130   2.727  14.349
26928W        W90861  40.392   5.732   4.760
26929W        W90862   8.688  23.025  14.471
26930W        W90863  37.982  27.477   4.253
26931W        W90864  20.536  26.020  14.391
26932W        W90865  44.326  36.910  13.400
26933W        W90866  15.121   9.303  14.921
26934W        W90867  20.554  30.981  14.865
26935W        W90868  28.492  38.401  12.843
26936W        W90869   5.377   1.410  11.967
26937W        W90870  13.215   7.801  11.108
26938W        W90871  43.511  35.533   4.272
26939W        W90872  32.451  30.002   4.633
26940W        W90873  27.525   6.420   4.288
26941W        W90874  41.305   7.674   1.440
26942W        W90875   1.471  34.106  12.342
26943W        W90876   1.810  21.073   5.171
26944W        W90877  12.662   7.375   9.673
26945W        W90878  22.078  43.514   2.335
26946W        W90879  34.094  28.082  10.912
26947W        W90880  11.714  42.441   2.215
26948W        W90881  36.090  31.072   2.848
26949W        W90882  22.661  13.726   0.308
26950W        W90883  31.505  21.181  12.507
26951W        W90884   9.644  39.391  14.357
26952W        W90885  30.986  11.216   3.721
26953W        W90886  27.576  17.692  12.068
26954W        W90887   9.840  32.975  10.476
26955W        W90888  20.170  20.117   9.607
26956W        W90889  42.791  26.167   3.246
26957W        W90890  44.461   7.844  14.457
26958W        W90891   7.899  29.583   4.207
26959W        W90892   8.694  39.454  12.534
26960W        W90893   4.807   6.284   3.368
26961W        W90894  39.508  14.236   1.794
26962W        W90895  13.259   9.841   3.292
26963W        W90896  44.362   1.957   3.263
26964W        W90897   9.363  10.293  12.494
26965W        W90898  16.627  36.584  13.857
26966W        W90899  31.066  22.033  11.873
26967W        W90900  36.420  14.734  13.446
26968W        W90901   7.414  44.809  11.917
26969W        W90902  14.713  13.209   3.181
26970W        W90903  21.693  36.373   2.853
26971W        W90904  32.022  43.789   4.792
26972W        W90905  37.932  28.087  14.404
26973W        W90906  38.481   1.899  11.593
26974W        W90907   4.894  35.512  13.848
26975W        W90908   4.715  10.647  13.350
26976W        W90909  26.458   5.790  13.358
26977W        W90910  32.126  21.217  14.376
26978W        W90911  21.150   7.764  11.537
26979W        W90912  35.452  20.682  10.613
26980W        W90913  19.285  40.312   2.194
26981W        W90914   9.687  37.956  14.920
26982W        W90915  17.640  18.631  14.979
26983W        W90916  31.091  40.430   4.723
26984W        W90917   4.415  35.404   4.669
26985W        W90918  35.416  40.376   3.668
26986W        W90919  20.600   9.869  13.453
26987W        W90920  13.291  27.635   2.358
26988W        W90921  17.149   6.886   4.143
26989W        W90922  15.702  16.164   0.375
26990W        W90923  30.031  18.133   4.216
26991W        W90924  24.985  38.378   2.332
26992W        W90925  41.035  36.963   1.367
26993W        W90926  40.932   4.308  11.975
26994W        W90927  21.598  44.793   3.662
26995W        W90928  13.256  29.517   0.922
26996W        W90929   3.398   4.327  13.898
26997W        W90930   3.712   9.263   2.406
26998W        W90931   8.723  21.646   2.747
26999W        W90932  25.099  25.658   2.846
27000W        W90933  10.858  21.573   1.764
27001W        W90934  28.464  34.612   3.354
27002W        W90935  34.082  34.903  11.422
27003W        W90936  29.978  34.049  13.868
27004W        W90937  41.018  11.867  10.986
27005W        W90938  36.937   9.745  12.953
27006W        W90939  16.784  29.573   4.336
27007W        W90940  43.490  25.136  14.491
27008W        W90941  43.303  10.681   1.749
27009W        W90942  21.213  32.014  13.529
27010W        W90943   3.892  16.135  13.419
27011W        W90944  34.066  38.354  13.340
27012W        W90945  26.554  36.586  12.504
27013W        W90946  34.950  36.384  14.499
27014W        W90947   3.421  33.934   3.644
27015W        W90948  34.956  23.060  14.885
27016W        W90949  11.630  32.050   3.150
27017W        W90950  40.320   0.908   0.418
27018W        W90951  33.922   1.938   3.325
27019W        W90952  12.126  11.632  14.308
27020W        W90953   7.416   2.463  14.306
27021W        W90954  40.863  19.168   0.285
27022W        W90955  42.318  31.951   2.826
27023W        W90956  44.804  19.622  14.943
27024W        W90957  35.866  23.120  10.590
27025W        W90958   3.345  26.570  11.470
27026W        W90959   1.296  44.851   0.396
27027W        W90960  35.438  20.566  13.975
27028W        W90961  29.050  22.536   2.411
27029W        W90962  37.434  38.931   0.298
27030W        W90963  15.808   8.720   1.872
27031W        W90964   5.252   7.819  11.571
27032W        W90965   0.415   8.667  10.627
27033W        W90966  28.131   6.222  11.465
27034W        W90967  27.966  34.412  12.442
27035W        W90968   9.295  17.172  11.991
27036W        W90969  20.267  22.615   2.777
27037W        W90970  32.402   1.282   4.155
27038W        W90971  14.754  12.838   4.635
27039W        W90972  37.917  24.978   0.332
27040W        W90973  11.257   8.777   3.838
27041W        W90974  33.128  19.565   3.156
27042W        W90975   5.344  41.872  14.894
27043W        W90976   1.849  44.971   1.785
27044W        W90977  27.651   4.357  12.035
27045W        W90978  26.069   8.403  11.445
27046W        W90979  34.115  21.027   2.863
27047W        W90980  43.986  37.868   1.831
27048W        W90981  26.516  35.023  10.439
27049W        W90982  25.701  35.596  12.922
27050W        W90983  10.715   6.272  14.403
27051W        W90984  43.982   5.759   2.780
27052W        W90985  19.181   6.192  11.109
27053W        W90986  38.825  36.071  10.031
27054W        W90987   5.761  41.440  12.949
27055W        W90988  33.029  30.031   0.732
27056W        W90989   7.872  18.084   3.267
27057W        W90990  31.041  14.700  12.427
27058W        W90991  40.963  26.133   1.266
27059W        W90992  23.150  37.573  13.941
27060W        W90993  35.031   5.843   0.727
27061W        W90994  33.885   7.367  14.906
27062W        W90995   6.218  21.177   3.212
27063W        W90996  33.438  25.095   2.884
27064W        W90997   5.797   8.305   0.395
27065W        W90998   5.385  15.606  12.042
27066W        W90999  22.093  11.788  11.111
27067W        W91000  32.487  17.576  12.437
27068W        W91001  39.534  19.074   3.214
27069W        W91002  32.008   4.928  13.817
27070W        W91003  32.971  41.793   1.695
27071W        W91004  25.592  36.513   0.275
27072W        W91005  40.054   0.935   2.667
27073W        W91006  16.632   0.274   0.375
27074W        W91007   3.436   8.722  13.493
27075W        W91008  27.614  25.560   2.386
27076W        W91009  38.905  21.559   3.167
27077W        W91010  12.749  41.424  13.337
27078W        W91011  28.567  28.660   2.397
27079W        W91012  17.189   6.312  14.432
27080W        W91013   6.783  43.452   4.748
27081W        W91014  17.237  31.024   3.813
27082W        W91015  21.602  34.082   4.327
27083W        W91016  15.122   1.352  13.802
27084W        W91017  33.585  38.530   0.465
27085W        W91018  22.585   1.416  12.444
27086W        W91019  44.300   9.777  14.427
27087W        W91020  23.544   3.710  10.634
27088W        W91021  33.522  12.836  11.381
27089W        W91022  12.854  21.199   1.317
27090W        W91023   0.381   0.850   0.843
27091W        W91024  22.694   0.851   4.753
27092W        W91025  32.605  13.741  14.916
27093W        W91026  44.857  33.406  13.391
27094W        W91027   5.831  36.562   0.931
27095W        W91028  31.089  32.470  13.547
27096W        W91029  16.137  19.149   3.361
27097W        W91030  25.683  14.757   0.844
27098W        W91031   5.807  43.392   3.280
27099W        W91032  40.392  33.455  11.092
27100W        W91033  28.624  15.754   0.755
27101W        W91034   8.300   2.879   1.868
27102W        W91035  23.106  19.118  10.496
27103W        W91036   4.425  11.255   2.363
27104W        W91037  19.691  38.347   1.358
27105W        W91038  43.424  14.766  13.483
27106W        W91039   5.692  20.039   3.793
27107W        W91040  12.361  29.481  10.619
27108W        W91041  16.721  15.175  11.863
27109W        W91042  15.818  24.717  14.784
27110W        W91043  13.703  11.719   2.752
27111W        W91044  22.622  16.233  12.420
27112W        W91045   6.702  25.969   1.884
27113W        W91046  26.699  27.159  13.438
27114W        W91047  27.156   0.770  14.374
27115W        W91048  43.947  39.402   2.409
27116W        W91049   2.891  17.184  13.912
27117W        W91050  10.153  40.522   3.833
27118W        W91051   7.910  24.976   0.841
27119W        W91052  40.947  40.477  14.809
27120W        W91053  25.651  14.170  11.971
27121W        W91054  34.994  28.949  11.972
27122W        W91055   6.814  10.763   3.686
27123W        W91056   2.880  29.545   4.299
27124W        W91057  25.213  42.025   3.681
27125W        W91058   8.228  29.137  10.516
27126W        W91059   9.288  39.334   2.698
27127W        W91060  14.596  25.170  10.604
27128W        W91061  29.126  43.460   0.390
27129W        W91062  31.646  28.681   4.657
27130W        W91063  10.297  39.017   4.635
27131W        W91064  37.013  27.570   1.323
27132W        W91065  23.053  18.219  11.026
27133W        W91066  29.639  27.632  12.511
27134W        W91067  35.501  36.049   2.178
27135W        W91068   7.383  32.953   3.169
27136W        W91069   8.211  39.833   3.299
27137W        W91070  43.779  26.685  12.557
27138W        W91071   6.692  17.271   1.212
27139W        W91072  32.615  32.091  11.461
27140W        W91073  40.957  39.872  13.059
27141W        W91074  37.852  41.947  11.595
27142W        W91075  29.127  42.503  11.872
27143W        W91076  23.531  25.609   1.295
27144W        W91077  42.021  31.639  10.527
27145W        W91078  15.711  14.114  14.953
27146W        W91079  16.639  17.235   0.876
27147W        W91080  18.559   7.282  10.944
27148W        W91081   3.770   2.271  14.325
27149W        W91082  32.503  23.709  11.064
27150W        W91083  33.431   2.423   4.179
27151W        W91084  29.487  36.093   5.276
27152W        W91085  37.453  30.976  13.931
27153W        W91086  35.944  27.455   1.343
27154W        W91087  28.072  39.420   0.731
27155W        W91088  31.585   8.800  11.108
27156W        W91089  27.992  28.544   4.342
27157W        W91090  25.475  20.761  12.488
27158W        W91091  38.476  16.574  12.898
27159W        W91092   2.232  35.472  11.050
27160W        W91093  30.582  34.062  13.532
27161W        W91094  17.119  28.598   0.762
27162W        W91095  33.524  35.930   3.236
27163W        W91096  23.172  21.735  10.588
27164W        W91097  20.036   9.203   3.652
27165W        W91098   3.891  34.557   1.752
27166W        W91099  18.786  30.483  11.586
27167W        W91100  24.982  26.579  10.049
27168W        W91101  13.171  23.686   1.339
27169W        W91102  18.147  12.654   4.195
27170W        W91103  27.153  40.427  14.011
27171W        W91104  22.675  41.399   0.330
27172W        W91105  28.161   1.954  11.494
27173W        W91106  32.004  27.003  13.928
27174W        W91107  35.434  38.447  10.414
27175W        W91108  44.907  18.286  10.960
27176W        W91109  31.495  39.314  14.275
27177W        W91110  42.835   4.814  14.826
27178W        W91111  41.870   1.246   4.663
27179W        W91112   6.211  11.369   0.732
27180W        W91113  12.204   7.382   0.919
27181W        W91114  10.824  44.916   3.692
27182W        W91115  35.389  33.490  14.886
27183W        W91116   3.872  23.584   5.230
27184W        W91117  34.867  42.517   4.778
27185W        W91118  26.478  37.841   1.810
27186W        W91119  38.426  21.575  11.471
27187W        W91120   9.863   7.325  14.474
27188W        W91121  10.726   9.287   3.366
27189W        W91122  17.255  37.853  12.853
27190W        W91123   8.748   1.890  14.363
27191W        W91124  24.227   5.833  11.006
27192W        W91125  18.562  17.749  10.960
27193W        W91126   6.787  24.713  10.507
27194W        W91127   8.872   0.367  14.468
27195W        W91128   7.376  26.055   2.218
27196W        W91129  22.068   3.319   0.872
27197W        W91130  32.033  39.828   3.371
27198W        W91131   8.287  29.147  13.982
27199W        W91132  28.664   3.819  11.531
27200W        W91133   0.436  15.766   1.711
27201W        W91134   5.429   6.265   4.640
27202W        W91135  18.637   1.830   0.272
27203W        W91136  12.844   1.304   2.269
27204W        W91137   0.304   8.866   1.806
27205W        W91138  44.374  32.484  13.462
27206W        W91139  10.871  43.476   3.692
27207W        W91140  14.647  27.064   0.830
27208W        W91141  41.872  20.197   1.409
27209W        W91142   8.328  25.100   3.167
27210W        W91143  37.476   1.337   1.778
27211W        W91144  13.323   2.385  13.796
27212W        W91145  19.549   8.874   1.245
27213W        W91146  25.687  11.829   5.145
27214W        W91147  40.373  25.619  14.968
27215W        W91148  10.255  38.055  12.476
27216W        W91149   9.256   0.962   9.979
27217W        W91150  44.906  39.526   5.312
27218W        W91151  13.159  15.278  13.044
27219W        W91152   0.847  23.645  10.100
27220W        W91153  28.096  30.590   5.276
27221W        W91154  28.133  20.694  14.499
27222W        W91155  33.523  22.073   0.751
27223W        W91156  42.352  11.805  13.921
27224W        W91157   3.353  42.839  11.967
27225W        W91158  16.252  37.441  14.905
27226W        W91159  23.183  37.357  10.985
27227W        W91160  42.938  19.068  14.770
27228W        W91161  32.537  39.495   1.353
27229W        W91162   1.818   2.850  12.866
27230W        W91163  18.715   6.206  12.866
27231W        W91164  17.734  41.813  14.395
27232W        W91165  35.478  15.293   0.429
27233W        W91166  11.636   6.226   1.273
27234W        W91167  27.540   3.761   0.865
27235W        W91168   9.163  23.012   0.931
27236W        W91169  20.050   3.739   0.368
27237W        W91170  26.489  17.210  14.311
27238W        W91171  31.481   8.879   0.727
27239W        W91172  14.611  43.989   1.260
27240W        W91173  26.586  37.079  11.879
27241W        W91174  14.292  22.179  14.948
27242W        W91175  32.458  43.937   2.694
27243W        W91176  29.555  34.031   4.782
27244W        W91177  33.042  35.022  11.488
27245W        W91178  37.000  26.459   0.397
27246W        W91179  11.791   8.229   1.791
27247W        W91180  12.236  21.566   2.766
27248W        W91181  30.969  12.616   4.646
27249W        W91182   2.463  31.595   3.788
27250W        W91183  16.779  40.412  12.896
27251W        W91184   7.180  36.097  12.913
27252W        W91185   4.892  12.834   4.614
27253W        W91186  39.345  42.020  14.842
27254W        W91187   9.884  12.687   3.785
27255W        W91188  33.948   1.265  14.462
27256W        W91189  44.442  35.961  12.403
27257W        W91190  21.709   1.280   4.138
27258W        W91191  24.604   0.911  14.903
27259W        W91192  13.197  24.185  12.553
27260W        W91193  18.127   2.738   1.759
27261W        W91194  32.448  35.027  13.453
27262W        W91195  34.582  20.066   4.255
27263W        W91196  14.760  22.534   3.710
27264W        W91197  10.216  27.659   3.230
27265W        W91198  44.996  38.824  13.888
27266W        W91199   7.721   2.378  12.466
27267W        W91200  41.510  16.185   1.273
27268W        W91201  14.234  21.203  14.948
27269W        W91202  36.085  39.899  10.493
27270W        W91203   5.719   5.873   0.836
27271W        W91204  38.542  19.698  10.958
27272W        W91205  37.336  32.000   3.227
27273W        W91206  18.606  20.588   3.636
27274W        W91207  15.151  29.631   3.691
27275W        W91208  12.240  42.354  14.025
27276W        W91209   6.743   6.778   2.769
27277W        W91210  15.091   2.336  14.018
27278W        W91211  19.539  33.605   0.888
27279W        W91212   3.718  28.644  13.026
27280W        W91213  29.983  44.939   2.368
27281W        W91214  11.316   2.849   3.153
27282W        W91215  19.072   2.885   3.221
27283W        W91216  33.584   9.390   3.763
27284W        W91217  41.351  17.730  10.510
27285W        W91218  33.113  44.411   3.869
27286W        W91219   6.291  37.377   3.286
27287W        W91220   0.864  39.908   1.707
27288W        W91221  37.984  13.620   2.408
27289W        W91222  31.047  13.335   4.313
27290W        W91223  32.441  41.847   3.233
27291W        W91224  29.055  41.023   0.857
27292W        W91225  20.116  41.835  12.869
27293W        W91226  20.578  19.201  10.921
27294W        W91227  22.516  19.043  12.985
27295W        W91228  38.908   7.792  10.629
27296W        W91229  44.453   3.247   2.274
27297W        W91230  39.407  32.892  13.982
27298W        W91231  12.319   4.816   3.703
27299W        W91232  18.131  28.955  14.822
27300W        W91233  31.946  12.194  13.492
27301W        W91234  18.652  33.601   0.409
27302W        W91235  19.708  30.419   3.805
27303W        W91236   8.252   1.774   1.357
27304W        W91237  43.798  33.528   3.834
27305W        W91238  22.684  33.443   3.668
27306W        W91239  36.086   5.428   4.677
27307W        W91240  44.981   4.809   4.196
27308W        W91241  39.874  27.172   1.272
27309W        W91242  10.248   6.798   4.740
27310W        W91243  37.990  11.171   0.901
27311W        W91244  42.957  42.416  10.582
27312W        W91245   2.228   3.924  10.475
27313W        W91246  33.468   4.369   3.244
27314W        W91247  10.345  14.812   2.391
27315W        W91248  17.582   7.798  11.507
27316W        W91249   7.854   2.346   4.202
27317W        W91250  20.728  16.641  14.913
27318W        W91251  40.451  39.965  11.431
27319W        W91252  17.200   1.792   0.920
27320W        W91253  43.966  20.196  12.899
27321W        W91254  32.420   1.451   3.678
27322W        W91255   6.849  22.108   0.466
27323W        W91256  15.200  29.166   1.400
27324W        W91257  23.608  43.004   3.784
27325W        W91258  32.515  23.080   4.815
27326W        W91259  10.208   9.150   4.120
27327W        W91260  29.096  18.108  14.783
27328W        W91261   2.446  11.807  11.479
27329W        W91262  10.342  17.306  11.407
27330W        W91263  42.985  29.017   4.601
27331W        W91264  26.073  35.415   2.811
27332W        W91265  17.650  37.533  14.936
27333W        W91266  25.689   3.300   3.294
27334W        W91267  11.319  28.640   0.957
27335W        W91268  38.888  20.705   4.160
27336W        W91269  43.351   4.874  11.904
27337W        W91270  37.521  23.701   1.364
27338W        W91271  31.471  21.630  12.496
27339W        W91272  29.130  17.085  11.988
27340W        W91273  40.309   8.270   2.709
27341W        W91274  11.324  44.960   3.359
27342W        W91275   4.795   2.404  13.423
27343W        W91276  10.164   8.307   1.290
27344W        W91277  34.872  44.421   3.852
27345W        W91278  11.355  13.207   2.678
27346W        W91279  19.702  11.851  10.515
27347W        W91280   6.250   4.734   0.437
27348W        W91281   2.264  33.987   2.825
27349W        W91282   3.778   9.746  13.032
27350W        W91283  17.099   4.228   3.333
27351W        W91284   3.832  15.166   4.606
27352W        W91285  25.177  35.970   1.887
27353W        W91286   9.304   4.343   9.976
27354W        W91287  21.213  13.765  14.336
27355W        W91288  16.277  25.034   5.304
27356W        W91289  25.986  26.536  11.544
27357W        W91290  22.071  41.031   1.222
27358W        W91291  22.138  16.572   2.305
27359W        W91292   4.403  44.952   4.116
27360W        W91293  18.692  21.066  12.893
27361W        W91294  13.284   2.245   0.948
27362W        W91295  29.612  25.987   2.333
27363W        W91296  11.830  30.458   2.212
27364W        W91297  43.012  36.375  11.523
27365W        W91298  35.472  44.290   3.344
27366W        W91299   3.773  29.174   1.413
27367W        W91300  12.703   0.855   3.755
27368W        W91301   4.803   2.386  12.544
27369W        W91302   1.765  19.171   4.255
27370W        W91303  29.573  36.408  12.577
27371W        W91304  35.988  36.075  14.283
27372W        W91305  17.591  41.452  12.087
27373W        W91306  16.130  24.134   0.404
27374W        W91307  35.948  12.208  14.993
27375W        W91308  41.003  42.469   1.303
27376W        W91309  17.159  10.218  14.511
27377W        W91310  15.220  39.005   1.812
27378W        W91311  18.737  11.210   1.325
27379W        W91312  10.676  23.570   3.750
27380W        W91313  37.525  15.263   0.950
27381W        W91314  27.552  25.181  14.491
27382W        W91315  42.884   6.338   3.710
27383W        W91316   3.371  14.590   1.802
27384W        W91317  37.519  35.963   1.297
27385W        W91318   2.362  11.766  12.970
27386W        W91319  28.152   0.936   3.147
27387W        W91320  41.502  25.990  11.910
27388W        W91321  28.079  11.320  12.059
27389W        W91322  33.126  27.623   4.809
27390W        W91323  20.203  42.912  12.015
27391W        W91324  26.646   6.363  11.024
27392W        W91325  31.904  25.043  10.485
27393W        W91326  26.073  27.571  13.514
27394W        W91327  31.896   3.403  13.518
27395W        W91328  43.446  29.437  13.036
27396W        W91329   2.297   0.324   2.839
27397W        W91330   5.874  14.305  10.960
27398W        W91331   5.857   5.822  11.594
27399W        W91332  34.069  44.304  13.979
27400W        W91333  13.346  27.642   3.666
27401W        W91334  24.020   9.280   9.445
27402W        W91335  31.616  22.035   2.327
27403W        W91336  12.296  36.362   0.361
27404W        W91337  24.611  24.012  10.579
27405W        W91338  22.585   0.472  13.402
27406W        W91339   2.274   7.856  12.424
27407W        W91340  41.004  21.676   2.716
27408W        W91341  15.207  13.311   2.721
27409W        W91342  11.655  11.635  10.152
27410W        W91343  37.551  26.015   2.330
27411W        W91344  19.269  31.136  14.828
27412W        W91345  43.440  31.128  14.980
27413W        W91346  39.884   4.409  14.998
27414W        W91347   5.381   2.775   0.912
27415W        W91348  13.750   2.310   4.680
27416W        W91349   9.265   6.182  11.926
27417W        W91350  22.733  42.012  14.487
27418W        W91351  14.764   7.778  14.353
27419W        W91352   8.711   3.271   3.336
27420W        W91353  36.408   5.775   3.235
27421W        W91354   2.267  12.156  10.888
27422W        W91355  18.683  34.895   1.777
27423W        W91356   9.685  21.649   3.249
27424W        W91357  29.437  28.948  14.320
27425W        W91358  40.354   8.289  11.917
27426W        W91359   5.248  36.523   2.417
27427W        W91360  38.408  20.061   3.221
27428W        W91361  14.708  23.562   0.791
27429W        W91362   8.722  22.207  10.563
27430W        W91363  18.680   2.877  14.995
27431W        W91364  15.686  22.609  13.060
27432W        W91365   2.899  40.936   3.237
27433W        W91366  30.481   0.331   2.227
27434W        W91367  25.010  33.578  12.489
27435W        W91368   1.903  25.561  13.446
27436W        W91369  40.326   5.735  13.979
27437W        W91370  41.926  44.325   1.266
27438W        W91371  18.789  23.726   3.805
27439W        W91372  32.023  39.844   4.220
27440W        W91373  22.665  27.548  13.476
27441W        W91374  31.510  25.659  14.801
27442W        W91375   6.304  22.516  10.526
27443W        W91376  41.005  44.937   2.190
27444W        W91377   8.176  25.682  13.930
27445W        W91378  24.116  36.583  12.953
27446W        W91379   4.262   0.973  10.445
27447W        W91380  12.620  30.048   2.190
27448W        W91381  25.080  12.298  14.996
27449W        W91382   5.292  14.099  14.295
27450W        W91383   3.365  21.617  13.864
27451W        W91384  25.159  35.432  13.370
27452W        W91385  41.508  38.488  13.369
27453W        W91386  20.154  29.090   2.726
27454W        W91387  20.611  16.671   5.690
27455W        W91388  23.599  30.609   0.874
27456W        W91389  43.305  28.651   3.687
27457W        W91390  25.533  40.393   3.708
27458W        W91391  26.621  41.412   1.858
27459W        W91392  38.377  42.464  14.509
27460W        W91393  34.981  10.671  13.990
27461W        W91394  10.139  10.711   0.407
27462W        W91395   9.804  12.764  14.918
27463W        W91396  21.114   6.867   3.185
27464W        W91397  35.403  24.711   4.194
27465W        W91398   0.942  38.364   1.392
27466W        W91399  39.813   5.320  13.526
27467W        W91400  17.715  13.122   4.618
27468W        W91401  40.939  20.071   1.814
27469W        W91402  18.126  36.504   1.781
27470W        W91403  13.336  43.315  13.003
27471W        W91404   4.736  29.929   3.232
27472W        W91405  37.538  39.514  10.980
27473W        W91406   2.814  20.030   2.194
27474W        W91407  43.879   8.834   4.824
27475W        W91408  34.389   8.776   3.215
27476W        W91409  22.631   0.871  10.953
27477W        W91410  24.228   0.265  12.534
27478W        W91411  23.100  34.468  13.062
27479W        W91412  37.851  37.873  12.993
27480W        W91413   3.838  43.306   2.902
27481W        W91414  26.124  25.685   4.790
27482W        W91415  29.170   1.923   2.678
27483W        W91416  38.567   6.296  13.852
27484W        W91417  37.446   3.753  13.410
27485W        W91418  13.244  27.953   1.833
27486W        W91419  35.522  23.687  13.998
27487W        W91420  28.669  37.398  12.882
27488W        W91421  42.004  32.617  10.996
27489W        W91422  16.669  40.848   1.421
27490W        W91423  17.702  25.152  11.032
27491W        W91424  36.992   3.299   4.208
27492W        W91425  35.953  18.580   1.899
27493W        W91426  21.595   6.858  13.865
27494W        W91427  10.367  22.698   1.392
27495W        W91428  39.052  28.515   3.317
27496W        W91429  18.747   6.302  13.855
27497W        W91430  38.051  17.160  13.031
27498W        W91431  21.140  43.777   3.859
27499W        W91432  32.519  26.580  10.642
27500W        W91433  16.236  18.643   0.355
27501W        W91434  41.328  30.034  12.848
27502W        W91435   0.897  17.145   2.231
27503W        W91436   9.648   5.841   0.738
27504W        W91437  32.531  34.920  13.045
27505W        W91438   4.448  27.691  10.967
27506W        W91439  43.863  34.094  13.843
27507W        W91440  12.341  40.359   0.385
27508W        W91441  32.510  12.225  14.876
27509W        W91442   7.246  24.536  13.842
27510W        W91443   5.752  23.518   2.238
27511W        W91444  27.511  29.932  13.988
27512W        W91445  36.370  18.141  13.951
27513W        W91446  37.370  14.184   0.246
27514W        W91447  31.637  12.332   4.171
27515W        W91448  28.499   5.811   1.711
27516W        W91449   2.850  40.921  11.570
27517W        W91450  13.332  33.974  13.963
27518W        W91451   5.849  40.304  12.951
27519W        W91452  23.720  33.902  11.031
27520W        W91453  23.715  17.108  10.960
27521W        W91454   7.871   0.866  10.433
27522W        W91455  20.653  14.611   3.643
27523W        W91456   4.425   7.720   1.252
27524W        W91457  14.275   7.343  12.831
27525W        W91458  12.327  41.433  11.520
27526W        W91459  17.177  39.534   1.338
27527W        W91460   3.859  27.672  12.553
27528W        W91461  30.103   4.285  13.485
27529W        W91462  29.525  36.911   0.925
27530W        W91463  10.345  14.624   3.349
27531W        W91464  19.103  39.429  12.073
27532W        W91465  37.441   8.344  12.925
27533W        W91466   8.353  35.582  11.094
27534W        W91467  13.294  14.637   1.876
27535W        W91468  38.016  12.211   4.122
27536W        W91469  12.302   5.747  11.036
27537W        W91470  13.116   7.400  10.473
27538W        W91471  29.605  30.463   2.298
27539W        W91472   5.702  39.045   4.253
27540W        W91473  30.564  21.218   4.178
27541W        W91474  16.672  30.525  11.606
27542W        W91475  35.587  10.240  11.422
27543W        W91476  10.724  41.347   0.250
27544W        W91477  36.986  41.008   3.859
27545W        W91478  26.093  34.606  11.017
27546W        W91479  42.498  29.930   0.423
27547W        W91480  21.570  26.478   1.241
27548W        W91481  44.291   3.908   1.835
27549W        W91482  14.833  42.315   1.696
27550W        W91483  43.871   4.270  14.022
27551W        W91484  43.430   3.892   3.147
27552W        W91485   8.851  26.559  13.034
27553W        W91486  37.991  36.968  11.386
27554W        W91487  29.476  42.443   3.354
27555W        W91488  27.131  30.918  12.422
27556W        W91489   4.903  35.405   3.778
27557W        W91490  30.480  28.041   3.256
27558W        W91491   5.221  27.133   3.796
27559W        W91492  37.378  23.735  12.861
27560W        W91493  43.452  26.107  13.508
27561W        W91494  12.125   2.456  13.851
27562W        W91495  10.347  42.920   0.454
27563W        W91496  20.546  11.190  10.554
27564W        W91497  32.995   9.814   1.332
27565W        W91498  36.466  38.928  10.116
27566W        W91499  42.783   6.281  14.881
27567W        W91500  36.038  25.621  10.923
27568W        W91501  39.479  15.202  14.945
27569W        W91502   9.272  10.363   1.740
27570W        W91503  20.188   3.456   1.217
27571W        W91504  43.393  44.312   3.645
27572W        W91505  30.613   7.388  14.848
27573W        W91506  13.191  27.120  13.947
27574W        W91507  34.093   1.921  12.559
27575W        W91508  42.414   8.188  12.353
27576W        W91509   4.783  15.172   4.333
27577W        W91510  21.055  39.351  10.919
27578W        W91511  23.492  31.138   3.158
27579W        W91512  33.979  32.514  10.425
27580W        W91513  19.200  36.007  10.018
27581W        W91514  15.624  25.125  10.144
27582W        W91515  37.482  38.872  12.838
27583W        W91516   8.170   4.903  11.449
27584W        W91517   7.234  27.494   3.838
27585W        W91518  20.747   5.722  14.512
27586W        W91519  36.865  22.593   4.225
27587W        W91520   6.767  30.609   4.606
27588W        W91521   3.370  44.904   4.771
27589W        W91522  29.152  44.912   2.179
27590W        W91523  33.562  44.373   3.805
27591W        W91524   6.881  35.530  11.916
27592W        W91525   7.417  24.145   4.350
27593W        W91526   2.290  35.601  12.513
27594W        W91527  37.346  13.212  13.450
27595W        W91528  18.183  34.502  10.928
27596W        W91529  28.456  44.923  14.997
27597W        W91530   1.272  35.599  11.598
27598W        W91531  41.311  33.949   1.886
27599W        W91532  36.929   0.382   2.189
27600W        W91533  32.499  38.534  12.880
27601W        W91534  16.578   3.730  13.056
27602W        W91535   2.822  26.619  12.079
27603W        W91536  40.431   0.783   3.634
27604W        W91537   0.809  17.611   0.911
27605W        W91538   5.826   9.270  11.456
27606W        W91539   7.387  17.560   2.335
27607W        W91540  14.820  11.844   4.132
27608W        W91541   9.748   6.805   1.695
27609W        W91542  21.563  21.080   9.986
27610W        W91543  24.049  21.597  13.062
27611W        W91544  44.466  21.677   4.167
27612W        W91545  12.362   6.692  10.405
27613W        W91546  37.919  39.997   1.363
27614W        W91547  34.997  37.535  11.958
27615W        W91548  34.540  37.032  11.381
27616W        W91549  30.458  18.236  12.459
27617W        W91550   0.813  35.876  10.130
27618W        W91551  32.078  28.653  11.084
27619W        W91552  35.434  13.348  11.582
27620W        W91553  31.405   5.393   1.881
27621W        W91554  24.068   6.783   2.890
27622W        W91555  37.555  19.202  13.919
27623W        W91556  37.074  14.131  14.769
27624W        W91557  14.280  21.251   4.714
27625W        W91558   7.772  34.498  14.457
27626W        W91559  27.597  26.148   3.819
27627W        W91560  29.999  38.549  12.089
27628W        W91561  32.508  39.952   4.284
27629W        W91562  24.631   8.187   2.374
27630W        W91563  17.781  19.650   0.480
27631W        W91564  41.383  43.779  14.384
27632W        W91565  13.205  37.911   1.758
27633W        W91566  23.604   6.414  13.419
27634W        W91567  22.603  43.893   3.260
27635W        W91568  18.636   2.964   2.253
27636W        W91569  36.983  10.247   4.242
27637W        W91570  26.661  27.024   4.819
27638W        W91571  29.576  26.678  12.462
27639W        W91572  11.661   6.781   3.332
27640W        W91573  25.639  10.779   3.290
27641W        W91574  18.605   4.306  10.527
27642W        W91575  40.923  11.359   1.448
27643W        W91576  36.444   9.887  13.367
27644W        W91577   4.831  43.959  14.314
27645W        W91578   6.678   2.469   5.141
27646W        W91579  19.759  35.434   1.344
27647W        W91580  14.287  25.185  10.635
27648W        W91581  11.241   0.988   1.358
27649W        W91582  19.153  31.609  11.014
27650W        W91583  23.527   2.267   0.337
27651W        W91584  39.476  35.551   4.227
27652W        W91585  33.003  24.228   1.842
27653W        W91586  24.569   7.880  12.025
27654W        W91587  37.878  18.658  11.575
27655W        W91588  28.064   0.429  10.432
27656W        W91589  10.664  31.079  13.987
27657W        W91590  27.548  43.983  14.986
27658W        W91591  20.141  21.220   3.287
27659W        W91592  29.650   3.400   2.203
27660W        W91593   1.935   7.706  14.028
27661W        W91594  35.573  41.348   4.336
27662W        W91595  43.928  35.597  13.004
27663W        W91596  10.838  41.298  11.573
27664W        W91597  15.650  15.175   2.833
27665W        W91598  22.550  33.004   0.736
27666W        W91599  42.319  33.925  14.403
27667W        W91600  10.252  18.124  12.018
27668W        W91601  17.070  17.638  13.325
27669W        W91602  29.589   1.735   3.363
27670W        W91603  22.566  40.927   4.618
27671W        W91604  19.219  22.732  10.481
27672W        W91605  21.115  18.244  13.361
27673W        W91606  43.424  29.612  11.510
27674W        W91607  40.364   2.793   2.210
27675W        W91608  42.826  20.748   1.344
27676W        W91609   7.329  26.482   1.306
27677W        W91610  33.471  33.458  13.521
27678W        W91611  19.649  11.807   3.769
27679W        W91612  13.297   2.302   2.268
27680W        W91613  38.385  26.669  13.056
27681W        W91614  39.394  14.611  12.429
27682W        W91615  41.971  24.031   3.359
27683W        W91616  12.790  18.186  13.507
27684W        W91617  12.286  16.612   0.391
27685W        W91618  27.492   7.260  14.775
27686W        W91619  12.736  28.157  11.560
27687W        W91620  38.037  35.426  14.844
27688W        W91621  39.024  29.559  13.488
27689W        W91622  29.955  31.915   1.225
27690W        W91623  15.218   0.773  14.781
27691W        W91624  33.095  16.727   4.690
27692W        W91625  12.667  24.632  13.814
27693W        W91626  15.710  17.175   2.739
27694W        W91627  34.922  12.729   0.947
27695W        W91628  15.138  31.098   2.829
27696W        W91629  13.632  25.697  13.974
27697W        W91630  11.206   2.384  14.474
27698W        W91631   6.360   6.759  12.839
27699W        W91632  19.052   6.835   0.368
27700W        W91633  40.450  24.044  14.450
27701W        W91634   9.678  44.756  11.406
27702W        W91635  39.401  41.943  12.554
27703W        W91636  26.481   5.891  10.636
27704W        W91637  31.898  26.645   0.867
27705W        W91638  41.295  17.723  14.899
27706W        W91639  32.569  19.185   0.732
27707W        W91640  20.229   3.425  11.926
27708W        W91641  22.563  25.185   1.877
27709W        W91642  13.164  11.765  12.528
27710W        W91643  14.781   6.800  11.064
27711W        W91644  41.452   1.408   3.751
27712W        W91645  42.407  37.468   0.793
27713W        W91646  30.095   5.413  13.364
27714W        W91647  22.675  32.452  12.570
27715W        W91648  17.729  40.359   4.657
27716W        W91649  17.780  10.337   0.316
27717W        W91650  16.276  38.501  11.411
27718W        W91651   3.814  35.865  10.643
27719W        W91652  38.939   2.317  10.578
27720W        W91653  10.691   9.248   1.807
27721W        W91654   8.276  34.483  12.089
27722W        W91655   0.916  18.254   1.297
27723W        W91656  13.335  44.866   0.406
27724W        W91657  25.140   5.439  11.004
27725W        W91658   7.679  30.555  10.528
27726W        W91659   7.400   3.432  12.083
27727W        W91660  40.529  43.766  11.006
27728W        W91661  15.114  24.974  14.965
27729W        W91662  21.247  25.589  14.994
27730W        W91663  28.561  33.115  10.448
27731W        W91664  32.988  31.608   2.316
27732W        W91665  15.619  23.238   2.709
27733W        W91666  24.979  29.602  13.506
27734W        W91667  41.467  35.876  12.560
27735W        W91668   9.854   0.446  11.971
27736W        W91669  25.132  24.130   0.427
27737W        W91670   4.220  14.761  10.589
27738W        W91671   1.288   4.722   2.302
27739W        W91672  39.037  41.531  11.902
27740W        W91673  17.213  36.073   0.942
27741W        W91674  21.624  33.604   9.928
27742W        W91675  43.955  34.588  13.998
27743W        W91676  44.493  13.229  11.007
27744W        W91677  37.844  28.598  11.465
27745W        W91678  34.110   7.334  11.555
27746W        W91679   5.331   4.359  11.605
27747W        W91680  22.528  29.560  11.048
27748W        W91681  32.093  26.039  12.546
27749W        W91682  21.260  10.140   3.823
27750W        W91683  10.688  34.389  14.866
27751W        W91684  35.559  41.477   3.251
27752W        W91685   6.206  13.789   3.219
27753W        W91686  12.276  13.788  14.886
27754W        W91687   7.314  42.434   0.406
27755W        W91688  21.618   7.815  11.497
27756W        W91689  30.055  35.463  10.995
27757W        W91690  36.934  17.266   0.280
27758W        W91691  17.694  31.039   2.297
27759W        W91692  33.519  16.592  11.945
27760W        W91693  24.176  42.455  12.490
27761W        W91694   0.319  36.453  11.373
27762W        W91695  38.006  28.165  11.901
27763W        W91696  36.976  41.832   1.780
27764W        W91697   0.826   8.869  14.366
27765W        W91698  10.727  21.170   0.472
27766W        W91699  25.702   1.424  12.430
27767W        W91700   3.333  29.957   3.250
27768W        W91701  33.054  16.654   1.835
27769W        W91702  16.177  26.638   2.680
27770W        W91703  37.471  14.655   4.658
27771W        W91704  20.035   5.772  11.388
27772W        W91705   5.786  28.671  13.945
27773W        W91706   3.919  12.658   5.103
27774W        W91707  16.286  33.096  10.629
27775W        W91708  25.693  39.509  13.910
27776W        W91709  42.439   7.200  11.069
27777W        W91710   1.331  18.586   2.357
27778W        W91711  30.595  34.423  10.536
27779W        W91712  37.484  30.058   3.723
27780W        W91713  42.414  40.401  10.093
27781W        W91714  41.384   3.894   4.269
27782W        W91715   0.418  36.999  10.497
27783W        W91716  35.077  14.683   4.329
27784W        W91717  36.984  28.637  12.000
27785W        W91718  43.432  23.194  11.568
27786W        W91719   5.840  21.018  12.957
27787W        W91720  16.639  14.686   1.780
27788W        W91721  27.682  28.643   2.692
27789W        W91722   8.319  16.315   3.378
27790W        W91723  30.928   6.702  13.856
27791W        W91724  41.379   6.395  14.328
27792W        W91725   3.912  14.107   2.766
27793W        W91726   7.890  16.736  11.967
27794W        W91727  43.445   2.743   1.389
27795W        W91728   9.202  43.821  12.031
27796W        W91729  29.586  32.887  14.883
27797W        W91730  16.732  18.070  14.468
27798W        W91731  37.535  35.918  13.848
27799W        W91732  36.441  14.280   2.821
27800W        W91733  44.503   9.801  14.955
27801W        W91734  20.120   8.694  11.609
27802W        W91735  16.188  29.567   2.311
27803W        W91736  21.526  30.542   4.625
27804W        W91737  32.554  29.067   1.431
27805W        W91738  18.278  30.115   0.766
27806W        W91739   5.397   9.332   1.823
27807W        W91740  17.193  39.395   2.804
27808W        W91741  24.598  39.029   3.364
27809W        W91742   0.336  39.418   3.207
27810W        W91743   4.824  42.923  13.527
27811W        W91744  43.966   5.710  12.414
27812W        W91745  13.771   7.774  12.431
27813W        W91746  31.648  12.352  13.337
27814W        W91747  28.131   3.807  13.827
27815W        W91748   1.803  25.060   1.701
27816W        W91749  34.581  32.110   3.717
27817W        W91750  35.997  44.344  10.541
27818W        W91751  13.296  12.171   3.681
27819W        W91752   2.429  11.298   1.703
27820W        W91753  28.634  42.296  10.018
27821W        W91754   4.848  31.984   2.721
27822W        W91755  15.609  35.097   2.205
27823W        W91756  38.464  29.528   3.263
27824W        W91757  37.903  12.262   2.873
27825W        W91758   7.306   6.787  12.543
27826W        W91759  26.091  38.476   1.303
27827W        W91760  25.477   0.981  14.423
27828W        W91761  22.165   6.206  10.616
27829W        W91762  18.264  10.365  11.066
27830W        W91763   7.240  40.007  12.453
27831W        W91764  16.174  26.573   1.312
27832W        W91765  36.500  10.157   9.999
27833W        W91766  34.399   7.210  11.999
27834W        W91767   8.369  15.712  12.420
27835W        W91768  25.598  13.163   4.258
27836W        W91769   4.234  17.228  13.910
27837W        W91770  20.200  14.598  12.851
27838W        W91771  42.497  41.508  14.764
27839W        W91772   4.922  17.099   2.349
27840W        W91773   0.978  16.726   0.948
27841W        W91774  42.325  26.151  10.476
27842W        W91775  30.973  42.929   0.740
27843W        W91776  22.187   3.257  13.970
27844W        W91777  27.628   5.708   1.703
27845W        W91778  29.105  44.892  13.957
27846W        W91779   6.328  39.825   3.827
27847W        W91780  19.144  22.653   4.240
27848W        W91781  35.077  13.109   1.258
27849W        W91782   2.823  16.241   2.312
27850W        W91783  36.441  34.406   0.360
27851W        W91784  39.323  37.992  11.996
27852W        W91785  39.398  41.944   2.301
27853W        W91786  40.824  39.033   4.113
27854W        W91787  37.398  11.238  10.074
27855W        W91788   7.276  44.841   1.294
27856W        W91789  38.979  21.223  14.853
27857W        W91790   9.783  44.403  11.032
27858W        W91791   7.273  19.117   4.688
27859W        W91792  43.012  25.083  10.892
27860W        W91793   4.715   9.165   3.159
27861W        W91794  17.119  34.513  12.898
27862W        W91795   2.316   8.349   1.860
27863W        W91796  35.911  17.791  11.532
27864W        W91797  12.166  23.615   1.935
27865W        W91798  41.870  10.634   0.389
27866W        W91799   1.467  36.988   1.407
27867W        W91800  40.390  16.613  13.395
27868W        W91801  22.253  13.325   4.763
27869W        W91802  36.965  10.768  11.506
27870W        W91803   7.298  22.702  12.403
27871W        W91804   1.335  23.728  10.925
27872W        W91805   6.782  44.453   3.809
27873W        W91806   6.715  42.447  14.862
27874W        W91807  23.658   1.287  10.512
27875W        W91808  31.957   3.832   3.719
27876W        W91809  33.519   1.276   1.767
27877W        W91810   3.751  35.946  11.379
27878W        W91811  23.040  37.432   0.883
27879W        W91812  15.810  23.030   2.287
27880W        W91813  44.839  29.497   2.851
27881W        W91814  25.532  44.418   0.277
27882W        W91815  18.634  25.963  11.541
27883W        W91816  28.049  35.864  10.539
27884W        W91817   0.876  12.653  12.960
27885W        W91818  17.751  15.805   3.664
27886W        W91819  37.400   7.805  11.442
27887W        W91820  28.561  27.558  11.897
27888W        W91821  22.138  13.257  12.482
27889W        W91822  17.754  44.856   0.834
27890W        W91823  31.968  30.602  13.419
27891W        W91824  10.667   4.358  10.485
27892W        W91825  26.951  21.587  12.969
27893W        W91826  26.584  30.562   0.343
27894W        W91827  10.632  17.618  11.570
27895W        W91828  29.482   8.176   4.712
27896W        W91829  24.159  15.276   1.888
27897W        W91830  33.482  12.219   2.195
27898W        W91831  24.018  39.951  11.423
27899W        W91832  38.374   5.256   0.389
27900W        W91833  20.225  21.651   1.739
27901W        W91834   5.911   1.869  14.964
27902W        W91835  23.574  39.962   4.666
27903W        W91836  12.769   6.292   5.317
27904W        W91837  24.149   8.734   5.221
27905W        W91838  43.900  17.064  12.038
27906W        W91839  27.527   1.906  12.878
27907W        W91840  18.152  41.322  12.883
27908W        W91841  40.804  13.231  11.034
27909W        W91842  38.984  18.068   3.342
27910W        W91843   0.478  23.086  13.903
27911W        W91844  22.600  10.374  10.615
27912W        W91845  21.080  37.430  14.827
27913W        W91846   5.797   1.742  11.973
27914W        W91847  24.543  42.960  12.511
27915W        W91848  34.585  41.870  14.510
27916W        W91849   4.325  12.171   2.407
27917W        W91850  30.481  37.396  10.577
27918W        W91851  22.523  26.079  14.017
27919W        W91852  35.408  20.602  11.879
27920W        W91853  14.291  44.438  14.478
27921W        W91854  41.381  19.251  13.998
27922W        W91855  18.673  11.185  10.451
27923W        W91856  32.077  20.223  10.514
27924W        W91857   6.758   2.869  11.375
27925W        W91858  29.039  17.634   4.342
27926W        W91859  22.091  42.305  14.027
27927W        W91860  37.430  18.230  13.534
27928W        W91861  12.276  14.196  12.496
27929W        W91862  22.743  30.005   4.672
27930W        W91863   3.411  10.294  13.037
27931W        W91864   1.428  20.130  11.604
27932W        W91865   3.742  34.455   3.711
27933W        W91866  24.092  39.858   1.446
27934W        W91867  23.709  12.123   0.824
27935W        W91868  15.240   5.692  11.377
27936W        W91869  30.417  36.058   2.863
27937W        W91870  23.111  25.631  12.953
27938W        W91871  27.646  15.202   0.956
27939W        W91872  33.969   7.251   2.343
27940W        W91873  14.679  31.007  13.043
27941W        W91874  44.919  20.068  14.474
27942W        W91875  24.620  23.004   4.328
27943W        W91876  22.595  20.223  12.059
27944W        W91877  44.921  29.561  14.989
27945W        W91878   7.189   9.384   2.832
27946W        W91879  18.745  24.534  10.644
27947W        W91880  40.823   2.883   0.263
27948W        W91881  39.819  37.571  10.969
27949W        W91882  16.711  32.545   2.813
27950W        W91883  34.063   2.942   4.615
27951W        W91884  10.291   3.304   4.120
27952W        W91885  40.519  44.787   2.706
27953W        W91886  34.557  40.419   1.430
27954W        W91887   4.731  19.106   3.787
27955W        W91888  41.970  31.434   2.189
27956W        W91889   9.211  40.899  11.514
27957W        W91890  42.006  31.454   0.738
27958W        W91891  22.683  35.927   2.870
27959W        W91892  26.585  18.170  12.415
27960W        W91893  14.233  34.987  11.433
27961W        W91894  13.731   8.847  14.946
27962W        W91895   9.868  33.609  12.407
27963W        W91896  15.600  14.641   1.278
27964W        W91897  27.195   8.899   0.304
27965W        W91898  25.545  20.523   4.654
27966W        W91899  38.396   6.323  11.879
27967W        W91900  14.700  18.264   0.407
27968W        W91901  19.651  27.638  11.404
27969W        W91902   3.806  44.961  14.294
27970W        W91903  39.921  30.495   0.441
27971W        W91904  29.117  28.461  10.991
27972W        W91905  29.174   0.267  10.029
27973W        W91906  22.172  43.825  12.495
27974W        W91907  44.801   9.349   3.249
27975W        W91908  30.543  26.615   2.300
27976W        W91909   2.290  18.292  14.455
27977W        W91910   1.365  40.865  13.942
27978W        W91911  18.231  16.213   3.729
27979W        W91912  25.043  17.064  14.967
27980W        W91913  31.545  33.119  12.850
27981W        W91914  19.757  23.024  10.404
27982W        W91915  21.672   4.410  10.439
27983W        W91916   1.927  24.008   5.275
27984W        W91917  36.939  35.539   4.346
27985W        W91918  12.804  35.088   1.227
27986W        W91919  40.343  40.970   1.402
27987W        W91920  29.508   6.371   2.231
27988W        W91921   1.462   9.725  10.913
27989W        W91922  20.222  30.909   3.340
27990W        W91923  44.263  33.057  11.561
27991W        W91924  16.168  34.019  10.574
27992W        W91925  26.700  27.455   4.639
27993W        W91926  12.216  28.963  10.594
27994W        W91927  44.872  22.018  10.445
27995W        W91928   5.307   2.922  10.932
27996W        W91929   1.265  43.968  13.935
27997W        W91930  32.120   8.209  13.024
27998W        W91931   3.759  39.326  10.497
27999W        W91932  34.055   1.955  13.465
28000W        W91933  29.128  25.698  14.886
28001W        W91934   9.206  13.187  13.941
28002W        W91935  30.465   4.888  11.125
28003W        W91936  37.365  28.517   3.303
28004W        W91937   2.279  42.379   4.316
28005W        W91938  33.550  35.037  14.791
28006W        W91939  20.055   2.737   2.860
28007W        W91940  25.044  27.964   4.254
28008W        W91941  17.092   2.396  11.576
28009W        W91942  14.175  44.272   1.399
28010W        W91943  13.656  27.068  11.475
28011W        W91944  26.664  25.486  10.563
28012W        W91945  27.590  42.364   1.397
28013W        W91946  12.343  29.954   0.388
28014W        W91947   4.706   7.386  11.462
28015W        W91948  25.064  27.602   3.153
28016W        W91949  12.849   5.299  14.511
28017W        W91950  16.241  37.370   4.638
28018W        W91951  20.221  13.304   3.223
28019W        W91952  29.604  31.125   4.626
28020W        W91953  36.394   4.903   2.196
28021W        W91954  20.545  42.962  10.618
28022W        W91955  39.885  29.017  13.337
28023W        W91956   8.738  25.014  14.412
28024W        W91957  39.912  11.299   3.243
28025W        W91958   0.752  20.714   0.740
28026W        W91959  42.291  21.588   4.166
28027W        W91960  11.302  22.743   4.124
28028W        W91961   5.763   1.961  13.514
28029W        W91962  11.699  39.969  11.492
28030W        W91963  29.954  44.862  13.014
28031W        W91964  40.986  29.066   3.863
28032W        W91965   5.695  14.756  10.126
28033W        W91966  35.984  39.337  12.398
28034W        W91967  18.158  39.014   2.213
28035W        W91968  36.548  24.683  13.524
28036W        W91969  35.487  24.081  14.307
28037W        W91970  33.105  11.740   1.770
28038W        W91971  31.552  34.517   0.280
28039W        W91972  20.699  12.820  11.000
28040W        W91973  19.248   8.784   1.697
28041W        W91974  31.423  43.947   1.352
28042W        W91975  11.286  28.545  12.495
28043W        W91976  20.639  23.153  14.911
28044W        W91977  34.422  24.698   0.347
28045W        W91978  19.639  44.447  10.074
28046W        W91979  32.550  18.095  12.019
28047W        W91980  13.600   0.877   1.699
28048W        W91981  27.196  38.927   2.279
28049W        W91982  27.157   5.837   1.282
28050W        W91983   3.906  41.988   0.321
28051W        W91984  25.058  38.030   0.870
28052W        W91985  21.567  30.126   1.843
28053W        W91986  27.963  19.606   0.900
28054W        W91987  41.445   6.309  11.068
28055W        W91988   8.837  27.608  14.892
28056W        W91989  31.529   7.287   3.703
28057W        W91990  21.233  24.218  13.967
28058W        W91991  28.978  25.101   4.280
28059W        W91992  11.344   3.275   4.682
28060W        W91993  34.480  12.262   2.853
28061W        W91994  11.762  12.857   1.809
28062W        W91995  39.987   6.313  11.404
28063W        W91996   7.725  37.575  14.928
28064W        W91997  22.604   5.203   3.684
28065W        W91998  40.958  14.627  14.898
28066W        W91999   3.756  11.654  11.592
28067W        W92000  16.794  37.879   2.726
28068W        W92001   9.742  39.882   1.731
28069W        W92002  13.613   3.871   2.748
28070W        W92003  41.829  36.533   3.765
28071W        W92004   0.907  35.406   0.292
28072W        W92005  21.632  12.232   0.438
28073W        W92006   7.750  40.461   0.321
28074W        W92007  17.613   0.345   0.297
28075W        W92008   9.866  37.438   2.351
28076W        W92009  18.553   3.857  10.496
28077W        W92010   5.795  39.345  12.021
28078W        W92011  24.718  12.302  13.406
28079W        W92012   6.818   9.202   2.837
28080W        W92013   2.957  21.223   4.772
28081W        W92014   5.867  39.859   2.401
28082W        W92015  37.031  43.847   4.220
28083W        W92016  15.154  42.867   2.782
28084W        W92017  37.075   9.861  12.501
28085W        W92018  40.032  17.584  14.971
28086W        W92019   6.240   5.798  12.426
28087W        W92020   2.297   8.756  10.568
28088W        W92021  20.271  14.694  13.432
28089W        W92022  37.946  25.502  13.794
28090W        W92023  21.188  20.610   2.264
28091W        W92024  38.494  12.284   4.204
28092W        W92025  38.423  31.492   4.609
28093W        W92026   5.201  11.821   0.355
28094W        W92027   0.277  27.489   4.727
28095W        W92028  19.078  27.054  14.421
28096W        W92029  32.541   8.851  13.313
28097W        W92030  25.016  17.185   3.247
28098W        W92031  24.654  42.345   3.166
28099W        W92032   1.819  36.526   1.285
28100W        W92033   2.340  32.493   4.225
28101W        W92034  40.977   0.254   0.823
28102W        W92035  17.778  16.245   4.735
28103W        W92036  15.111  37.401   1.365
28104W        W92037  14.788   1.804  13.548
28105W        W92038   8.778  29.575  13.999
28106W        W92039   1.792  32.599   1.813
28107W        W92040  10.820  21.533  12.085
28108W        W92041  11.801   9.690  10.497
28109W        W92042  30.110  12.721   3.289
28110W        W92043  30.441  18.647   3.639
28111W        W92044   8.204  27.609  14.942
28112W        W92045  15.170  12.361  13.512
28113W        W92046   3.752  44.768   2.793
28114W        W92047   8.367  12.259  10.535
28115W        W92048  40.871   4.768  12.005
28116W        W92049  35.049   8.807   2.381
28117W        W92050  26.066  19.632   4.218
28118W        W92051   1.784  10.682   3.159
28119W        W92052  11.807  35.919   4.754
28120W        W92053  29.476  27.062   2.824
28121W        W92054  26.955  28.080  11.372
28122W        W92055   1.267  15.751   2.400
28123W        W92056  24.516  43.489   5.148
28124W        W92057   9.233  37.958  14.386
28125W        W92058  12.695  21.122  11.973
28126W        W92059  21.061  35.923   1.322
28127W        W92060  17.644   3.809  13.056
28128W        W92061  40.973  20.638  13.970
28129W        W92062  21.520   7.247  10.628
28130W        W92063  38.044   1.737  13.015
28131W        W92064  39.844  31.144   4.173
28132W        W92065   0.287  19.043  12.426
28133W        W92066   3.911  35.537   3.679
28134W        W92067  31.086  40.946   1.727
28135W        W92068  18.287   6.267   0.296
28136W        W92069  35.550   0.808   4.815
28137W        W92070   2.389  25.559  13.990
28138W        W92071  37.993  21.587   2.839
28139W        W92072  11.720  17.109   3.864
28140W        W92073  13.741  17.111  12.912
28141W        W92074  19.152  37.021  10.159
28142W        W92075  31.994  15.140  14.854
28143W        W92076  21.635  27.182  10.635
28144W        W92077  18.285  27.573  11.054
28145W        W92078   3.823   5.366  10.947
28146W        W92079  10.660   9.177   0.307
28147W        W92080  27.156  22.204  13.440
28148W        W92081  29.935  39.934  10.404
28149W        W92082  24.513  35.030   3.193
28150W        W92083  23.497  21.254   0.473
28151W        W92084  34.411  27.050   2.859
28152W        W92085  39.013  35.978  11.496
28153W        W92086   5.873   0.369   1.922
28154W        W92087  42.309  10.701   0.278
28155W        W92088  40.321  23.127  10.991
28156W        W92089   3.733  16.099  13.836
28157W        W92090   3.308  17.689  11.999
28158W        W92091  15.184  21.593  10.570
28159W        W92092   4.443  40.537   4.269
28160W        W92093   9.828  30.595   4.314
28161W        W92094  39.056  27.498  14.972
28162W        W92095  11.172  12.299   0.747
28163W        W92096   4.402   7.235  13.375
28164W        W92097  19.537  41.315   4.829
28165W        W92098  15.255  38.459  12.893
28166W        W92099   5.754  16.239  13.967
28167W        W92100  24.976   4.849  10.448
28168W        W92101   7.202  19.540  10.426
28169W        W92102  33.492  34.080  11.912
28170W        W92103  42.794  10.244   3.236
28171W        W92104   3.272   8.210  10.579
28172W        W92105   0.962   5.712   4.771
28173W        W92106  22.565  36.539   1.696
28174W        W92107   2.234  36.044  12.884
28175W        W92108  22.100  13.260   3.748
28176W        W92109  21.164  38.426   3.656
28177W        W92110  14.295  25.663   4.200
28178W        W92111  40.016  33.432   4.737
28179W        W92112  10.801  37.002  10.962
28180W        W92113  31.138  25.553  14.330
28181W        W92114  42.476  42.977  13.360
28182W        W92115  13.280  16.666  13.322
28183W        W92116  17.094   1.399  11.095
28184W        W92117  33.431  11.861   4.728
28185W        W92118  32.933  28.007  10.460
28186W        W92119  20.591   9.890  12.505
28187W        W92120   4.417   6.920   2.780
28188W        W92121  19.761   5.298   0.876
28189W        W92122  20.114  14.742   0.841
28190W        W92123  43.829  31.485  12.908
28191W        W92124   0.934   2.787   1.269
28192W        W92125   3.714  41.440   1.817
28193W        W92126   4.247  28.125  14.984
28194W        W92127   5.422  19.225  12.488
28195W        W92128  15.305  20.194  10.628
28196W        W92129  34.120   4.415  10.958
28197W        W92130  14.603   4.832   0.370
28198W        W92131  19.674  27.466   2.366
28199W        W92132  37.963  27.111  12.405
28200W        W92133  31.416  31.411   3.270
28201W        W92134  12.633  26.626  13.373
28202W        W92135  11.780   4.320   4.256
28203W        W92136   1.477  24.034   0.469
28204W        W92137   1.381   8.265  14.289
28205W        W92138  33.126  22.581   3.292
28206W        W92139  13.645  38.462   1.436
28207W        W92140  38.031  26.037   3.343
28208W        W92141  37.340  30.604   0.761
28209W        W92142   2.900  26.114   1.415
28210W        W92143  43.006  14.163  12.483
28211W        W92144  41.847  20.565  10.551
28212W        W92145   3.241  42.355   4.641
28213W        W92146  21.599   1.815   4.640
28214W        W92147  32.895  41.979  12.445
28215W        W92148  42.975   8.171  13.522
28216W        W92149  23.991  18.743  11.490
28217W        W92150  35.049  22.629  14.328
28218W        W92151   6.901  19.268   3.799
28219W        W92152  31.959  32.544   3.771
28220W        W92153  23.673  21.096   1.311
28221W        W92154  13.170  18.786  10.579
28222W        W92155  42.482  35.413  12.517
28223W        W92156  23.658  10.234  12.829
28224W        W92157  36.347  40.425   5.271
28225W        W92158  31.489  29.123  11.562
28226W        W92159  18.575   5.424  14.985
28227W        W92160  25.058  32.953   1.746
28228W        W92161  24.586  30.037   4.257
28229W        W92162  44.319  36.518  12.015
28230W        W92163   9.738  32.605   1.789
28231W        W92164  24.482   3.247   0.287
28232W        W92165   7.317   2.343   0.875
28233W        W92166   9.844   3.447   1.807
28234W        W92167  13.715   8.302   1.928
28235W        W92168   9.326  22.228  13.846
28236W        W92169  25.534   9.773   4.328
28237W        W92170   9.226  16.160   3.810
28238W        W92171  33.063  22.154   3.222
28239W        W92172  15.606  27.549   4.607
28240W        W92173   2.780  23.700   4.752
28241W        W92174  13.773   8.867  13.539
28242W        W92175   2.758   9.355  12.993
28243W        W92176  23.097  43.955   4.749
28244W        W92177  38.012  20.683  10.598
28245W        W92178  34.524  43.798   0.926
28246W        W92179  21.055   5.712  11.523
28247W        W92180  40.949  37.460   3.763
28248W        W92181  35.445  32.457  14.819
28249W        W92182   0.954   0.260   0.770
28250W        W92183  27.575  21.033   4.119
28251W        W92184  22.593  10.709  12.435
28252W        W92185  35.566  18.606   1.298
28253W        W92186  41.384  29.478   0.856
28254W        W92187  30.119  44.795   2.720
28255W        W92188  37.898  26.084   1.697
28256W        W92189  10.634  14.204   4.273
28257W        W92190  19.173   4.783   2.695
28258W        W92191  17.275  22.707   0.957
28259W        W92192  13.758  13.268  12.825
28260W        W92193  37.053  32.524   3.191
28261W        W92194  34.960  10.244   4.219
28262W        W92195  17.703   7.371  12.386
28263W        W92196  40.958   2.877  10.604
28264W        W92197  41.405  25.517  12.473
28265W        W92198  30.992  16.083  12.578
28266W        W92199  19.186  33.566  13.416
28267W        W92200  19.536  31.426   1.285
28268W        W92201  12.274  26.082   1.830
28269W        W92202  43.510  21.718  11.404
28270W        W92203  30.919  39.541   1.242
28271W        W92204  17.744  12.763   3.222
28272W        W92205  41.794   7.833   4.173
28273W        W92206  30.026  42.870  13.334
28274W        W92207   9.256  20.066   3.355
28275W        W92208  13.176  28.080  11.043
28276W        W92209  11.628   5.390  13.045
28277W        W92210  12.645  36.881  11.602
28278W        W92211  21.254  12.659   4.340
28279W        W92212  20.690  31.564   2.200
28280W        W92213  28.170  38.455   2.362
28281W        W92214  42.997  40.494  10.144
28282W        W92215   1.478  10.864   4.737
28283W        W92216  23.002  25.682  12.082
28284W        W92217  29.115  34.966  10.528
28285W        W92218   2.893   4.335   4.119
28286W        W92219   6.394  29.132   4.809
28287W        W92220  23.554  40.880   2.311
28288W        W92221  41.354  30.415  12.432
28289W        W92222  27.029  30.540   0.891
28290W        W92223  10.323  29.105   4.787
28291W        W92224   1.398  28.155   4.162
28292W        W92225  28.461   5.337   1.416
28293W        W92226   3.321  29.649   1.830
28294W        W92227  30.501   3.310  12.920
28295W        W92228  40.854  14.808  12.986
28296W        W92229  13.288   3.341  13.811
28297W        W92230  39.520  26.959  13.819
28298W        W92231   3.717  16.733   9.994
28299W        W92232  40.324  25.493  12.429
28300W        W92233  39.340  31.603   2.900
28301W        W92234  19.695   2.950  14.461
28302W        W92235  29.522  34.983  12.921
28303W        W92236  30.651  22.076  11.900
28304W        W92237  28.625  24.580   0.256
28305W        W92238  40.407   1.406   1.933
28306W        W92239  22.711  23.587  13.544
28307W        W92240  32.909  42.320  12.363
28308W        W92241  25.527  28.459  12.882
28309W        W92242  20.212  44.336  10.524
28310W        W92243  11.706  12.827  12.959
28311W        W92244  11.201  19.542   2.757
28312W        W92245  39.358  20.060   0.301
28313W        W92246  43.003  23.505   3.665
28314W        W92247  17.286  26.581   2.772
28315W        W92248  12.718  19.757   2.794
28316W        W92249   3.951  19.704   0.887
28317W        W92250  19.553  24.996   2.864
28318W        W92251  27.087   3.453  10.468
28319W        W92252  42.484  30.538  12.519
28320W        W92253  11.757  28.516  13.842
28321W        W92254  40.410  15.808  12.985
28322W        W92255  17.179  22.025   1.910
28323W        W92256  30.629  21.675  13.928
28324W        W92257  17.771  10.275   3.713
28325W        W92258  12.610  33.601   1.231
28326W        W92259   5.321  42.778  14.877
28327W        W92260  39.461  37.489  10.602
28328W        W92261  43.815  27.481  13.427
28329W        W92262  30.593  35.041   4.812
28330W        W92263   1.941   9.765   4.631
28331W        W92264  34.947  41.877   3.349
28332W        W92265  31.968  25.001   2.231
28333W        W92266  29.954  21.060  11.517
28334W        W92267  27.618  39.328   4.621
28335W        W92268   1.258  30.010   0.827
28336W        W92269  23.716  25.550   0.872
28337W        W92270  18.230  30.091   2.805
28338W        W92271  15.746  10.633  14.307
28339W        W92272  12.820   0.287  11.446
28340W        W92273  33.016  26.625   5.164
28341W        W92274  14.264  14.279   3.376
28342W        W92275  23.043  26.631  12.567
28343W        W92276  17.676  41.481   0.261
28344W        W92277  26.550  15.207   0.247
28345W        W92278  15.611  14.827  12.476
28346W        W92279  35.588  40.887  14.422
28347W        W92280  28.643  40.318   0.904
28348W        W92281   4.288   8.405   3.185
28349W        W92282  33.418  18.722  13.801
28350W        W92283   5.795  31.465  12.442
28351W        W92284  10.318  12.857   0.733
28352W        W92285   2.262   6.305  10.609
28353W        W92286  10.744  35.513   0.321
28354W        W92287  13.206  43.831   4.644
28355W        W92288   9.235  35.099   2.277
28356W        W92289  41.987  44.980  12.535
28357W        W92290  15.282  43.364   0.325
28358W        W92291   1.836  19.728   4.199
28359W        W92292   9.681  21.555   4.273
28360W        W92293   2.895  21.603  14.471
28361W        W92294  26.020  43.410   2.717
28362W        W92295  27.194  23.238  11.094
28363W        W92296  14.286   9.794  11.033
28364W        W92297  29.075  12.144   3.366
28365W        W92298  30.531  14.327  13.419
28366W        W92299  26.579  15.204  12.915
28367W        W92300  12.288  26.987  11.105
28368W        W92301  28.976  17.145   2.207
28369W        W92302  12.626  21.264  12.409
28370W        W92303   5.301   2.388  14.348
28371W        W92304   3.719  36.092   0.338
28372W        W92305  22.654   3.795   1.306
28373W        W92306  39.817  38.468   1.302
28374W        W92307  34.503   1.774  13.983
28375W        W92308  12.647  39.440  10.558
28376W        W92309   3.402  32.054   2.868
28377W        W92310   7.682   2.264  14.453
28378W        W92311  17.562  26.206  13.503
28379W        W92312  12.349  36.078   4.310
28380W        W92313  33.039  17.272   2.678
28381W        W92314  29.062  39.968   2.369
28382W        W92315  44.006  36.010  11.857
28383W        W92316   9.221  16.611   9.958
28384W        W92317  32.066  11.733   1.251
28385W        W92318  16.579  29.446   3.784
28386W        W92319  21.035  10.688  11.974
28387W        W92320  38.328  39.954  14.879
28388W        W92321  19.075   2.297   3.336
28389W        W92322  37.361   0.965   4.340
28390W        W92323  26.586  33.062   0.370
28391W        W92324  16.698  14.273   1.243
28392W        W92325  21.527  22.599  11.536
28393W        W92326  25.532  13.303  12.989
28394W        W92327  42.337  37.932  11.082
28395W        W92328  24.519  23.242   1.268
28396W        W92329  10.369  33.885  11.445
28397W        W92330  11.650  22.529   1.237
28398W        W92331   0.975  10.145  13.959
28399W        W92332  44.808  13.250  12.445
28400W        W92333  42.427  32.099   1.886
28401W        W92334   8.752  30.482  14.803
28402W        W92335  40.504  22.171  12.911
28403W        W92336  31.094   8.850   2.369
28404W        W92337  15.599  35.009  12.016
28405W        W92338  23.114  18.286   4.264
28406W        W92339  14.797  15.695  12.055
28407W        W92340   7.326   4.258  14.408
28408W        W92341  40.523  32.524  11.502
28409W        W92342   7.371  11.235   4.610
28410W        W92343   7.178  21.627  14.928
28411W        W92344   2.332   2.817   4.338
28412W        W92345  35.582  17.783   3.766
28413W        W92346   7.888  20.679  10.601
28414W        W92347  34.089  41.428   0.418
28415W        W92348  28.613  20.593   0.812
28416W        W92349  32.959   0.272  14.989
28417W        W92350   4.733  29.642  13.006
28418W        W92351  27.536   5.800  13.404
28419W        W92352  33.388  30.621  12.004
28420W        W92353  34.028  27.951   4.288
28421W        W92354  13.782  41.860  11.603
28422W        W92355  32.582  24.703  13.970
28423W        W92356   2.425  44.970   2.201
28424W        W92357  19.586  13.796  12.082
28425W        W92358  32.065  16.781   0.332
28426W        W92359  13.675  20.107   4.351
28427W        W92360  13.756  26.665  10.538
28428W        W92361  16.285  29.039   2.671
28429W        W92362  14.648  32.141  12.485
28430W        W92363  24.528  34.589   1.696
28431W        W92364   6.329  19.047   0.278
28432W        W92365  24.148   4.698  14.406
28433W        W92366   3.297  29.525   2.212
28434W        W92367  44.780  36.398   9.981
28435W        W92368   5.696  12.712   2.783
28436W        W92369  32.033  35.418  14.351
28437W        W92370   9.268  23.701  13.432
28438W        W92371  11.335  35.497  13.903
28439W        W92372  27.453  32.038  10.623
28440W        W92373  34.881   5.834  11.587
28441W        W92374  26.693  40.395   3.245
28442W        W92375  40.803  37.964  11.465
28443W        W92376  21.226  41.449   2.375
28444W        W92377  15.244  44.289   2.741
28445W        W92378  22.725   7.837   4.128
28446W        W92379  15.821  41.312  11.902
28447W        W92380  14.657   2.862  14.323
28448W        W92381   6.227  17.727  14.959
28449W        W92382  35.583  33.405  11.415
28450W        W92383  11.146   6.779   1.905
28451W        W92384  18.656  23.519  14.895
28452W        W92385  20.603   9.228   2.771
28453W        W92386  14.791  29.942   3.149
28454W        W92387  34.044   1.238  12.358
28455W        W92388  30.945  43.478   0.907
28456W        W92389   4.330  19.753   1.758
28457W        W92390  10.869  14.791  13.383
28458W        W92391  11.693   3.799   1.923
28459W        W92392  36.036   4.253   2.377
28460W        W92393  35.902  18.636   4.646
28461W        W92394  12.650  41.998   0.815
28462W        W92395  25.163  23.180  12.950
28463W        W92396  30.636   5.712  13.889
28464W        W92397  18.159  10.150   1.340
28465W        W92398   5.257  31.475   0.315
28466W        W92399  28.099  11.291   2.335
28467W        W92400  12.226  43.279   0.413
28468W        W92401  38.486  17.305   4.623
28469W        W92402   5.836  44.451  12.945
28470W        W92403  28.633  29.668   3.186
28471W        W92404  29.119  23.212  14.380
28472W        W92405   4.704  16.209  11.418
28473W        W92406   4.861  44.942   0.844
28474W        W92407   3.460  23.164   2.218
28475W        W92408  41.887  20.630   1.222
28476W        W92409  14.696  10.156  13.859
28477W        W92410  36.482   3.339  14.276
28478W        W92411   7.782   8.864  11.116
28479W        W92412  31.976   0.939   2.740
28480W        W92413   8.402  12.846   4.804
28481W        W92414  28.501  11.652   4.348
28482W        W92415   0.332  17.675   0.747
28483W        W92416  44.376  40.320  13.001
28484W        W92417  41.401   7.739   2.392
28485W        W92418   8.345   9.644   1.277
28486W        W92419  38.905  36.475   2.343
28487W        W92420  10.640   5.715  13.437
28488W        W92421  35.398  17.084  14.775
28489W        W92422  15.656   2.888  14.337
28490W        W92423  14.158  31.085   4.716
28491W        W92424  41.421   1.966  11.011
28492W        W92425  43.841  38.536  11.387
28493W        W92426  15.652  26.163   4.177
28494W        W92427  28.133   3.341  12.846
28495W        W92428   1.345  28.628   1.741
28496W        W92429  26.572  29.029   2.687
28497W        W92430  43.820  32.478   0.383
28498W        W92431  31.103  42.893   1.356
28499W        W92432  28.503  16.084   0.480
28500W        W92433  18.687  43.479  11.004
28501W        W92434   4.359  19.695  11.419
28502W        W92435  25.598  36.393  12.430
28503W        W92436  27.198  27.509   4.715
28504W        W92437  17.697  43.824  12.957
28505W        W92438  11.264  13.680  12.376
28506W        W92439  27.063  29.991   1.211
28507W        W92440  12.219   7.368   3.278
28508W        W92441  31.154  25.149  13.354
28509W        W92442  27.671  29.582   1.439
28510W        W92443  40.461   1.859   2.283
28511W        W92444  35.545  31.017  13.039
28512W        W92445   0.351  16.138  12.450
28513W        W92446  26.150   9.877   0.785
28514W        W92447  42.018  13.691  11.005
28515W        W92448  38.820  44.479   3.280
28516W        W92449  40.413   2.932  12.918
28517W        W92450  42.995  19.765  13.377
28518W        W92451   0.949  43.901  11.514
28519W        W92452   6.770  22.705   3.699
28520W        W92453   3.861   3.243   0.405
28521W        W92454   8.865   0.341  11.924
28522W        W92455  29.555  44.788  12.074
28523W        W92456  38.532  35.595   3.317
28524W        W92457  13.112  41.799   5.116
28525W        W92458  18.722  24.651   2.409
28526W        W92459  42.359  43.860  12.027
28527W        W92460   5.372  15.266  12.825
28528W        W92461  29.662  12.703  12.983
28529W        W92462   1.771  43.888   0.823
28530W        W92463  44.413   8.692   0.387
28531W        W92464  33.441  26.069   2.178
28532W        W92465  42.395  38.340  10.008
28533W        W92466  30.069  20.609  13.798
28534W        W92467  35.957  30.155   1.817
28535W        W92468  40.382  36.076  10.407
28536W        W92469  23.519   4.940   3.230
28537W        W92470  18.726   6.691   1.711
28538W        W92471  17.577  42.309  10.926
28539W        W92472  31.944  37.080  14.457
28540W        W92473  28.987   1.910  14.851
28541W        W92474   7.240  33.077   2.777
28542W        W92475  26.505  43.450   1.819
28543W        W92476   5.379  29.081   3.223
28544W        W92477  30.598  30.994  13.978
28545W        W92478  11.229  15.100   0.875
28546W        W92479  30.549   7.848   3.833
28547W        W92480  34.929  24.637  13.461
28548W        W92481  39.339  33.451   1.236
28549W        W92482   9.354  43.391   3.660
28550W        W92483  22.710  20.053  10.503
28551W        W92484  22.666   5.354   4.184
28552W        W92485   0.777  30.521   1.766
28553W        W92486  34.934  20.059   1.851
28554W        W92487  38.400   2.337  14.987
28555W        W92488  38.442  41.471   2.704
28556W        W92489  20.694  26.572  13.972
28557W        W92490   3.369  37.902  14.395
28558W        W92491   0.807  29.139  13.342
28559W        W92492  22.230  25.177   0.831
28560W        W92493  22.008  38.421  13.368
28561W        W92494  32.526  36.499   3.852
28562W        W92495  35.386  24.083   1.741
28563W        W92496  11.168   1.372  13.954
28564W        W92497  41.956  18.729  12.477
28565W        W92498  29.636  10.788  14.009
28566W        W92499  17.277  33.023   1.847
28567W        W92500  31.059  44.505  11.883
28568W        W92501  23.656   5.353   2.358
28569W        W92502   2.923  23.003   0.415
28570W        W92503  37.463   7.738  13.873
28571W        W92504  24.497  21.053  12.059
28572W        W92505  44.877  20.187   1.347
28573W        W92506  41.328  33.387   3.676
28574W        W92507   6.793  43.985  11.965
28575W        W92508  40.935   1.286  11.024
28576W        W92509  32.104  35.005   0.390
28577W        W92510  29.635   2.296   4.325
28578W        W92511  41.931  29.105  11.077
28579W        W92512  24.114  30.994  14.302
28580W        W92513  44.453  18.564  14.992
28581W        W92514   8.864   7.402   3.792
28582W        W92515  33.443  23.584  10.609
28583W        W92516  18.710  35.380  12.952
28584W        W92517  30.987  34.977   2.367
28585W        W92518  12.855  36.472   3.245
28586W        W92519  29.092  30.023  11.093
28587W        W92520  14.620  32.425  11.392
28588W        W92521  30.483   6.365   3.718
28589W        W92522   2.355  12.215  11.430
28590W        W92523  36.441  17.715  14.861
28591W        W92524  18.681   2.877   0.936
28592W        W92525   5.297  10.714   1.776
28593W        W92526  16.072  11.862   2.382
28594W        W92527   8.758  35.045   0.950
28595W        W92528  32.415  20.741   0.483
28596W        W92529   9.174  12.657  12.351
28597W        W92530  40.816  23.656   0.321
28598W        W92531  10.290  42.405   2.348
28599W        W92532  21.746  14.635   2.368
28600W        W92533  42.964  41.493   2.720
28601W        W92534  33.915   1.263   0.265
28602W        W92535  39.428  32.081  10.531
28603W        W92536   3.944  30.961   0.377
28604W        W92537  21.742  18.669  10.433
28605W        W92538  38.362  18.578   4.665
28606W        W92539  41.420  22.050   3.280
28607W        W92540  44.477  39.545  13.951
28608W        W92541  11.635  41.522  10.582
28609W        W92542  24.155  20.694  11.490
28610W        W92543   1.329  39.516   1.758
28611W        W92544  33.428  17.304  14.484
28612W        W92545   8.700  33.968  11.113
28613W        W92546   0.401   1.296  14.292
28614W        W92547  20.167  19.644  10.579
28615W        W92548  13.628  18.165   1.877
28616W        W92549  37.550  12.702  11.041
28617W        W92550  24.691  42.859   1.700
28618W        W92551  30.988  33.451   1.818
28619W        W92552  31.610  42.450  13.318
28620W        W92553  14.218  19.648  12.467
28621W        W92554  10.720  34.923   2.794
28622W        W92555  34.926  21.572  10.572
28623W        W92556  40.417   1.960  11.574
28624W        W92557   5.344   9.864   3.373
28625W        W92558   4.359   3.230   4.828
28626W        W92559   2.917   6.284   0.756
28627W        W92560  14.602  36.054  12.963
28628W        W92561  11.308   1.853   1.433
28629W        W92562   9.781  20.244  14.398
28630W        W92563  15.707  29.593   4.335
28631W        W92564  13.620   9.674  14.762
28632W        W92565   8.334  13.785   2.859
28633W        W92566  40.352  35.925  13.531
28634W        W92567   0.329  23.636   1.210
28635W        W92568   7.319  22.148  12.410
28636W        W92569  42.986  18.659   2.816
28637W        W92570  22.621  33.492   0.331
28638W        W92571  12.203   5.823   2.762
28639W        W92572  34.052   1.461   0.851
28640W        W92573  29.584  22.545  14.019
28641W        W92574  21.622  40.474  14.465
28642W        W92575  10.208  28.101  14.484
28643W        W92576   1.876  31.488   0.453
28644W        W92577  11.698  17.066  14.424
28645W        W92578   9.387  14.230   1.697
28646W        W92579  29.424  30.601   4.353
28647W        W92580  29.007   5.361  14.814
28648W        W92581  44.906  41.018  11.504
28649W        W92582   4.729  42.361  13.002
28650W        W92583  11.199  21.197  14.885
28651W        W92584  22.561   4.435  12.949
28652W        W92585  13.178  29.031  10.060
28653W        W92586  29.125   4.342   0.434
28654W        W92587   7.704  16.726   0.445
28655W        W92588   1.418   8.344   1.768
28656W        W92589  35.872   5.843  12.875
28657W        W92590  12.310  43.783   4.690
28658W        W92591  30.090  25.694  11.419
28659W        W92592  20.626  23.179   4.216
28660W        W92593  38.500  12.853  14.295
28661W        W92594   7.715  25.528  14.885
28662W        W92595  26.627  13.688  11.019
28663W        W92596  23.071  14.290  10.427
28664W        W92597  44.380  24.979  10.078
28665W        W92598  40.011  34.906  12.847
28666W        W92599  36.554  35.065   3.349
28667W        W92600  18.741  28.442  14.807
28668W        W92601  26.003  33.555  14.420
28669W        W92602  15.114  16.790   0.791
28670W        W92603  10.277  38.436   1.282
28671W        W92604  27.132  19.216   4.263
28672W        W92605  36.049  15.112  12.034
28673W        W92606  34.542  19.080   1.298
28674W        W92607  34.115  29.635   4.203
28675W        W92608  41.005   5.905  12.855
28676W        W92609  11.635   0.946  14.914
28677W        W92610  27.083  31.014  11.482
28678W        W92611  24.131  15.801   0.392
28679W        W92612  44.400  34.375  10.116
28680W        W92613   3.452  37.480  14.470
28681W        W92614   2.423  25.646   2.776
28682W        W92615  33.060  31.637  12.028
28683W        W92616  35.384  28.013  14.018
28684W        W92617   7.700  33.934  11.037
28685W        W92618  14.628  39.998  14.015
28686W        W92619  35.862  17.204   3.258
28687W        W92620   9.782  41.318  11.871
28688W        W92621  40.335  37.451  14.319
28689W        W92622   1.770   1.905   4.745
28690W        W92623  25.644   9.390  14.828
28691W        W92624  38.518  17.555  11.371
28692W        W92625  12.243  25.150   2.322
28693W        W92626  39.489  23.089   4.252
28694W        W92627   4.875  44.901   1.754
28695W        W92628  28.117   4.351  13.870
28696W        W92629   2.377  40.363   1.922
28697W        W92630  44.423  17.176  12.496
28698W        W92631  11.718  33.086  12.843
28699W        W92632  30.507   7.176   0.386
28700W        W92633  11.170  29.925  14.804
28701W        W92634  17.741   3.842  14.288
28702W        W92635   4.761  25.708  11.894
28703W        W92636  30.565  36.567  12.393
28704W        W92637  14.325  29.941  10.964
28705W        W92638  28.172   7.221   5.158
28706W        W92639  35.030  18.693  10.502
28707W        W92640   3.339  31.451  14.465
28708W        W92641  44.845  23.169   4.286
28709W        W92642  12.639   3.461  10.050
28710W        W92643  28.938  44.469  12.046
28711W        W92644  25.049  35.451  11.512
28712W        W92645  30.162  33.883   4.345
28713W        W92646  42.795   5.808  13.536
28714W        W92647  25.153  22.245  12.941
28715W        W92648  42.973  31.055  12.442
28716W        W92649  26.009  44.957   1.362
28717W        W92650  28.573  37.568   1.846
28718W        W92651  15.730  32.031   3.292
28719W        W92652  22.590  16.719  12.939
28720W        W92653  31.057  36.054  13.965
28721W        W92654  37.875  40.846   4.217
28722W        W92655  31.450  32.572   1.363
28723W        W92656  34.966  27.466  10.508
28724W        W92657  13.111  32.918   0.726
28725W        W92658  14.698  23.694  13.798
28726W        W92659   3.399   8.355  11.964
28727W        W92660  29.039  11.194   0.950
28728W        W92661   0.364  37.370  10.044
28729W        W92662   5.687   3.310   2.215
28730W        W92663  17.636   2.772   1.832
28731W        W92664  12.298  40.432   3.706
28732W        W92665  20.599   8.770  11.405
28733W        W92666   8.698  13.715  11.007
28734W        W92667  11.220  23.648   2.664
28735W        W92668   6.802  34.077   2.759
28736W        W92669  34.030  17.164  14.469
28737W        W92670  10.718  27.580   0.734
28738W        W92671   4.886  15.752   1.210
28739W        W92672  21.130  36.475   0.827
28740W        W92673  16.608  27.941  11.944
28741W        W92674  15.599  21.687   3.240
28742W        W92675  35.441  17.671   4.163
28743W        W92676   3.870  24.216   0.820
28744W        W92677  30.498  17.139   3.856
28745W        W92678  44.444  44.290  12.880
28746W        W92679  28.025  43.283   2.746
28747W        W92680  13.629  35.062  13.039
28748W        W92681   6.762  19.765   0.348
28749W        W92682  13.607   5.429   2.788
28750W        W92683  34.116   0.426  13.041
28751W        W92684  12.751  40.874   3.261
28752W        W92685  19.744   2.288   4.832
28753W        W92686   9.267  42.917  10.529
28754W        W92687  14.284  39.954  11.435
28755W        W92688  14.695  21.083  13.360
28756W        W92689  19.749   6.709   3.742
28757W        W92690   1.918  42.776   4.723
28758W        W92691  38.846   6.358   0.477
28759W        W92692   9.219  11.268   3.822
28760W        W92693  39.988  23.622   2.227
28761W        W92694   5.418  38.445   2.748
28762W        W92695  35.433   9.304  13.014
28763W        W92696  44.791  15.648   4.150
28764W        W92697  17.625  20.750   1.339
28765W        W92698  29.112  15.617   0.898
28766W        W92699  11.830  34.090   0.903
28767W        W92700  31.580  37.372  10.934
28768W        W92701  26.586  18.777  12.027
28769W        W92702  31.056   2.759   3.721
28770W        W92703  15.131   1.478  14.356
28771W        W92704   7.208  12.765   3.788
28772W        W92705   4.330  16.766   1.285
28773W        W92706  14.796  13.758  12.026
28774W        W92707  36.030  27.122  10.547
28775W        W92708   2.309  40.028  14.288
28776W        W92709  26.045  17.068  14.286
28777W        W92710   1.313  23.733   2.744
28778W        W92711  13.704  40.463   4.355
28779W        W92712  43.954  30.152   1.382
28780W        W92713  42.835  20.570   0.431
28781W        W92714  21.242  16.245   3.206
28782W        W92715  40.036   9.648  14.374
28783W        W92716  29.156   4.870  13.309
28784W        W92717  33.876   0.468   2.875
28785W        W92718  22.501  37.429   3.786
28786W        W92719  15.180  30.449  12.886
28787W        W92720  31.528  13.242  13.871
28788W        W92721   4.863  29.618   1.443
28789W        W92722  41.843  32.528  13.050
28790W        W92723  44.429  21.529  13.906
28791W        W92724  29.156  32.467  13.985
28792W        W92725   7.683  23.091   3.343
28793W        W92726  32.047   8.841   4.740
28794W        W92727  28.032  37.445  11.555
28795W        W92728  42.833  33.551   1.835
28796W        W92729  24.012  25.100  13.985
28797W        W92730  19.615   7.398   1.436
28798W        W92731   6.862  30.441   1.718
28799W        W92732  35.520  17.071   3.780
28800W        W92733  38.358  24.061  10.892
28801W        W92734   7.337   5.270  13.021
28802W        W92735  12.336  14.289   2.311
28803W        W92736  30.134  16.648  14.859
28804W        W92737  33.013  40.026  12.843
28805W        W92738  21.729  40.874  10.991
28806W        W92739  24.631  25.601  10.530
28807W        W92740  31.574  21.528   0.253
28808W        W92741  28.527  15.793   3.815
28809W        W92742   9.347   3.454   0.480
28810W        W92743  10.702  40.006  12.069
28811W        W92744   0.866  20.591   4.336
28812W        W92745  43.296  27.552  11.856
28813W        W92746  30.005  16.780  12.007
28814W        W92747  25.690  24.669   4.630
28815W        W92748  29.516  37.978   2.776
28816W        W92749  14.226  32.502   1.306
28817W        W92750  11.742  11.822  13.339
28818W        W92751   8.811   9.801  14.905
28819W        W92752  42.996  10.212   0.346
28820W        W92753  28.973   7.822  13.908
28821W        W92754  11.692  24.023   4.771
28822W        W92755   0.981  39.453  12.507
28823W        W92756  38.503  34.377   1.245
28824W        W92757  13.257  10.805  13.968
28825W        W92758  17.633  11.690   2.326
28826W        W92759  31.139  13.215  14.455
28827W        W92760  36.881  21.522   2.207
28828W        W92761  12.636  26.559   0.743
28829W        W92762   3.832  34.989  13.019
28830W        W92763  37.516  19.183   2.680
28831W        W92764  26.187  17.784   1.315
28832W        W92765  14.202  36.037   0.866
28833W        W92766  20.627   4.327  11.435
28834W        W92767  23.531  19.046   3.855
28835W        W92768   9.214  16.186  12.054
28836W        W92769  41.801   6.890   2.790
28837W        W92770  29.110  38.439   4.734
28838W        W92771  17.723  28.034   1.398
28839W        W92772  33.532  15.650  10.083
28840W        W92773  13.218  14.298  13.423
28841W        W92774   6.720  23.617   4.832
28842W        W92775  26.060  42.512  14.288
28843W        W92776  27.034  35.030   4.649
28844W        W92777   5.841  24.495   3.702
28845W        W92778   4.305  21.259  14.869
28846W        W92779   2.390  23.239  14.017
28847W        W92780  27.140  15.583  10.588
28848W        W92781  20.730  15.192   3.849
28849W        W92782   9.850  33.490  14.771
28850W        W92783  25.970  41.298  11.995
28851W        W92784  10.821  35.913   1.888
28852W        W92785  20.177   7.412   2.392
28853W        W92786  41.387   4.744   0.890
28854W        W92787  39.422   0.359  10.436
28855W        W92788  44.340   4.903   2.257
28856W        W92789   8.792  42.779  14.909
28857W        W92790  13.802  21.224  14.861
28858W        W92791  23.222  14.767  13.317
28859W        W92792   8.209  34.937   4.282
28860W        W92793  17.801   9.265  13.877
28861W        W92794   4.289  41.375  13.940
28862W        W92795  23.081  42.286   0.463
28863W        W92796  19.559  10.274   0.739
28864W        W92797  23.504   1.475   2.716
28865W        W92798  18.190  15.655  12.533
28866W        W92799  36.944  11.336   2.757
28867W        W92800  28.942  23.013   4.613
28868W        W92801  37.335   7.784  12.491
28869W        W92802  17.113  43.440  11.949
28870W        W92803  35.861  19.610  12.489
28871W        W92804  13.621  39.912   1.926
28872W        W92805  13.203  29.125   1.894
28873W        W92806  13.627  35.362  13.954
28874W        W92807  30.561   2.924  11.610
28875W        W92808  19.534   3.285  13.423
28876W        W92809  39.345  38.855   0.951
28877W        W92810  13.328   1.424   4.235
28878W        W92811   8.358   9.314   1.805
28879W        W92812  17.132  20.635  13.883
28880W        W92813  32.972  38.552   3.711
28881W        W92814  34.454   4.422   2.221
28882W        W92815  14.171  27.030  14.280
28883W        W92816  11.762  12.157   9.993
28884W        W92817  43.383  14.291  13.048
28885W        W92818  44.775  41.506   2.758
28886W        W92819  18.668   5.223   1.273
28887W        W92820   9.328  37.545  10.910
28888W        W92821  18.635   1.761  13.317
28889W        W92822   0.415  23.559  12.501
28890W        W92823  38.526  22.521  10.407
28891W        W92824  44.966  19.208  14.015
28892W        W92825  30.054  24.221  14.768
28893W        W92826  10.824  22.514   4.665
28894W        W92827   2.805  27.131  12.484
28895W        W92828  34.456  42.429  12.843
28896W        W92829  33.113  39.535   3.244
28897W        W92830  20.259  28.134   1.324
28898W        W92831  42.469  15.134   3.869
28899W        W92832  25.041  12.177   9.958
28900W        W92833  18.661  32.927   4.660
28901W        W92834  37.000  38.375   1.773
28902W        W92835  43.401  18.683   4.821
28903W        W92836  26.549  23.513   2.248
28904W        W92837  14.179  11.837  14.473
28905W        W92838  24.198  24.564  11.920
28906W        W92839  35.057  40.835  12.366
28907W        W92840  15.128  10.877  12.467
28908W        W92841  15.247  34.408  14.395
28909W        W92842  33.912   6.825   3.256
28910W        W92843  18.075   8.267  14.804
28911W        W92844   0.916   6.906   3.804
28912W        W92845  40.392  31.921  13.791
28913W        W92846  34.444  40.908   2.326
28914W        W92847  40.838   3.451   0.843
28915W        W92848  14.148  20.731  10.957
28916W        W92849   9.351   3.434   4.218
28917W        W92850   8.309  27.991  13.325
28918W        W92851  14.638  27.115  12.095
28919W        W92852  25.159   2.724  14.304
28920W        W92853   6.813   0.787  11.560
28921W        W92854   6.764  39.406   4.139
28922W        W92855  36.400  24.503  11.536
28923W        W92856  15.714   9.786   5.094
28924W        W92857  26.203  34.955   1.813
28925W        W92858  33.966  44.496   2.210
28926W        W92859   6.409  36.408   4.761
28927W        W92860  40.459  43.345   4.698
28928W        W92861   4.428   6.415   1.909
28929W        W92862   1.855  28.954   2.373
28930W        W92863  22.021  17.217  13.345
28931W        W92864  16.307  24.081   2.247
28932W        W92865   4.938  42.308  11.389
28933W        W92866  25.164  17.274   3.866
28934W        W92867  33.976   6.338   4.760
28935W        W92868   0.764  35.854  10.467
28936W        W92869  40.399  16.109  11.070
28937W        W92870  21.656   8.729  11.412
28938W        W92871   8.889  36.864  12.830
28939W        W92872  34.985  20.194   3.213
28940W        W92873  33.435   1.788  12.015
28941W        W92874  25.550  12.332  10.976
28942W        W92875   4.917  25.174  11.499
28943W        W92876  10.671  42.794   1.858
28944W        W92877   2.888  24.588   1.262
28945W        W92878   5.835  14.250   2.776
28946W        W92879  39.328   9.172  13.021
28947W        W92880  41.501  36.495  11.126
28948W        W92881   3.284  30.476  11.929
28949W        W92882  30.418  18.557   0.967
28950W        W92883  18.106  10.760  12.048
28951W        W92884  12.687   6.359   3.277
28952W        W92885   4.923  35.472   2.878
28953W        W92886  26.528  27.515  14.352
28954W        W92887   1.840  18.112   4.236
28955W        W92888  20.158  16.646  14.833
28956W        W92889   1.782  40.366   1.438
28957W        W92890   6.298  27.520   4.710
28958W        W92891  26.981   8.863   4.210
28959W        W92892  16.670  13.621  11.543
28960W        W92893  11.846  26.482  11.594
28961W        W92894  32.589  28.619  12.445
28962W        W92895  24.497  23.631  10.518
28963W        W92896  17.175  39.346   0.966
28964W        W92897   2.250  31.433   2.750
28965W        W92898  42.778   0.900  13.911
28966W        W92899  13.633  39.006  14.878
28967W        W92900  30.111  13.709   2.225
28968W        W92901  32.565  40.992  10.580
28969W        W92902  42.348   4.292   1.726
28970W        W92903  21.748  23.574   2.723
28971W        W92904  32.583  20.102   3.241
28972W        W92905  41.347  24.536   4.120
28973W        W92906  37.384  14.156   2.382
28974W        W92907  14.131  17.096   1.284
28975W        W92908  18.224  37.899  11.944
28976W        W92909  13.249  41.418  10.408
28977W        W92910  19.083  21.252   2.275
28978W        W92911  16.240  33.561  11.082
28979W        W92912  32.908  10.875  13.381
28980W        W92913  11.190   4.364  12.471
28981W        W92914   1.804  30.614  13.499
28982W        W92915  37.543  44.330  14.029
28983W        W92916  25.121  27.040   1.916
28984W        W92917  23.141  18.212  13.865
28985W        W92918   4.267  15.093   3.199
28986W        W92919  30.546  36.013  13.959
28987W        W92920   1.866  28.997  10.964
28988W        W92921   9.649  39.391  14.819
28989W        W92922  40.846  16.683   4.246
28990W        W92923  40.442  36.022   0.908
28991W        W92924  32.534  37.373   2.350
28992W        W92925  32.951   6.872  12.387
28993W        W92926  25.477  10.199  10.981
28994W        W92927  33.929  35.092  13.890
28995W        W92928  14.243   3.759  12.407
28996W        W92929  21.054   7.271   4.246
28997W        W92930  26.701  22.615   4.614
28998W        W92931  35.464  20.188   1.241
28999W        W92932  40.454   4.813  13.394
29000W        W92933  12.699  22.532   5.232
29001W        W92934  20.621  35.047   1.267
29002W        W92935  39.400  28.534  11.933
29003W        W92936  17.763  30.083   0.245
29004W        W92937   3.839  31.050   0.812
29005W        W92938  11.624   0.431   2.876
29006W        W92939  20.633  19.192  10.619
29007W        W92940  10.807  28.961  13.363
29008W        W92941  12.201   1.867  12.897
29009W        W92942  27.069  33.596  13.492
29010W        W92943   7.361   2.307  10.571
29011W        W92944  22.644  37.909  11.593
29012W        W92945  16.698  26.607   9.953
29013W        W92946  31.417  11.804   0.737
29014W        W92947  25.710  44.426   1.782
29015W        W92948  12.294  30.658   0.314
29016W        W92949  18.283  38.000   2.695
29017W        W92950  43.394  39.974   0.308
29018W        W92951  30.488  18.783   5.217
29019W        W92952  17.091  43.390   2.763
29020W        W92953   5.416  37.582   3.840
29021W        W92954  38.375   5.321   4.823
29022W        W92955   6.249  30.939   2.785
29023W        W92956  37.844  10.292  10.116
29024W        W92957  29.521   6.797  10.464
29025W        W92958  24.181  32.066   5.087
29026W        W92959   1.459  42.452  13.024
29027W        W92960  18.635   9.858  13.428
29028W        W92961  38.040  30.057   3.381
29029W        W92962  12.793   8.205   0.325
29030W        W92963  10.761  27.188   0.928
29031W        W92964  36.069  19.579   4.194
29032W        W92965   5.320  21.189  10.907
29033W        W92966  15.699  40.466   1.259
29034W        W92967  17.637  33.511   3.283
29035W        W92968  20.168   3.796  12.969
29036W        W92969  24.033  24.206   2.405
29037W        W92970  27.067  33.907  13.493
29038W        W92971  17.781  42.349  11.890
29039W        W92972  21.556  14.718   4.608
29040W        W92973   7.311   5.328   2.264
29041W        W92974  16.258  10.871   2.305
29042W        W92975  18.095  43.406   4.744
29043W        W92976  11.168  44.843  11.429
29044W        W92977  40.336  16.163  13.953
29045W        W92978   5.687  40.999  11.870
29046W        W92979   2.788  20.558   0.401
29047W        W92980  34.462  11.199  12.498
29048W        W92981  36.396   8.846  11.413
29049W        W92982  15.176  15.774  12.352
29050W        W92983  10.167  35.954  14.844
29051W        W92984  44.303   8.375  10.486
29052W        W92985  24.036  26.576   1.365
29053W        W92986  41.017  11.302   1.705
29054W        W92987  26.542  18.084  11.034
29055W        W92988  19.247  11.163   4.704
29056W        W92989  37.011   4.749   9.961
29057W        W92990  10.816   5.899  13.061
29058W        W92991  43.353  29.010  14.967
29059W        W92992  17.278  42.908   5.257
29060W        W92993  31.549  10.680   0.874
29061W        W92994  33.896  44.864   1.345
29062W        W92995   9.248  16.133  14.419
29063W        W92996  25.591  25.705  13.815
29064W        W92997  13.266  39.809  11.855
29065W        W92998  38.520  19.090   4.612
29066W        W92999   4.304  38.554  12.505
29067W        W93000  10.348   1.903  12.962
29068W        W93001  36.390  19.727  12.849
29069W        W93002  29.096  37.961   2.823
29070W        W93003   9.352  29.173  12.378
29071W        W93004  19.281  20.188   4.303
29072W        W93005  20.635  39.869  14.795
29073W        W93006  14.767  37.398   9.981
29074W        W93007   7.220  27.525   3.181
29075W        W93008  21.237   1.960  11.548
29076W        W93009  36.581  43.794  14.359
29077W        W93010   4.372   6.329   2.686
29078W        W93011  18.670  15.124   1.262
29079W        W93012  16.594  28.061   3.849
29080W        W93013  15.110  16.732   3.256
29081W        W93014  38.351  31.534  11.579
29082W        W93015  13.632  32.406  11.602
29083W        W93016  15.258  19.721   3.711
29084W        W93017   5.355  22.505  10.142
29085W        W93018  22.205  27.597  10.576
29086W        W93019  42.867  40.318  12.853
29087W        W93020  39.875   1.926   1.399
29088W        W93021  15.669  17.594  13.911
29089W        W93022  22.516  18.764  12.983
29090W        W93023  24.682  36.992  12.555
29091W        W93024  44.857  20.045   2.369
29092W        W93025  20.209  43.376   1.340
29093W        W93026  39.395  10.833   4.794
29094W        W93027  21.159  39.932   1.852
29095W        W93028  31.481  31.565  13.416
29096W        W93029  16.125  26.644   4.270
29097W        W93030  19.655  12.310   2.279
29098W        W93031  38.976  41.478  10.066
29099W        W93032  32.484  35.994  10.445
29100W        W93033  37.981   3.436  11.982
29101W        W93034  40.052  33.514  10.635
29102W        W93035  30.555  28.657   2.833
29103W        W93036  26.538  34.393  13.491
29104W        W93037  36.415  23.510  11.541
29105W        W93038   0.336  11.300  14.870
29106W        W93039  27.962  18.635  12.504
29107W        W93040  28.024  33.966   2.398
29108W        W93041  35.924   8.362  10.902
29109W        W93042  37.034  29.131  14.283
29110W        W93043   4.918  42.791  14.282
29111W        W93044  44.260  10.779   3.728
29112W        W93045  40.966   4.881   4.248
29113W        W93046  40.924  15.306  10.542
29114W        W93047  41.404   5.872  12.932
29115W        W93048   6.281   9.235   1.922
29116W        W93049  35.896  31.942   2.224
29117W        W93050  19.730  30.033   3.842
29118W        W93051  10.857  23.578  10.960
29119W        W93052  11.772  21.235  12.880
29120W        W93053  12.734  36.022   3.297
29121W        W93054  44.972  39.923   3.718
29122W        W93055  18.126  23.009  13.844
29123W        W93056  37.835   6.388  11.873
29124W        W93057  40.350  43.765   3.860
29125W        W93058  32.433  26.133  11.494
29126W        W93059  41.507  28.476   3.206
29127W        W93060  30.923  18.639   4.687
29128W        W93061  21.544  13.145  10.909
29129W        W93062  18.569  44.868  10.623
29130W        W93063   3.720   7.193  11.115
29131W        W93064  11.659   7.273  11.503
29132W        W93065  31.997  18.631  10.961
29133W        W93066  42.911  15.792  14.010
29134W        W93067  13.146  25.012  14.351
29135W        W93068   0.786  24.134   2.782
29136W        W93069  34.577  30.640   1.722
29137W        W93070  15.620  33.602  13.791
29138W        W93071   2.781  41.984  10.481
29139W        W93072  38.955   5.369  13.488
29140W        W93073  44.421   4.315  14.332
29141W        W93074  39.440  26.960  12.571
29142W        W93075  24.134  23.236   2.300
29143W        W93076  33.012  25.468  11.597
29144W        W93077  17.741  19.243  13.851
29145W        W93078  30.030  34.528  11.932
29146W        W93079  14.241   8.181  11.952
29147W        W93080  38.855  11.231  11.968
29148W        W93081  12.329  32.913   2.398
29149W        W93082   0.822  38.822   0.439
29150W        W93083  15.788  40.006  11.557
29151W        W93084   6.258  27.066   5.321
29152W        W93085  37.012   5.347   1.332
29153W        W93086  41.874  16.179  12.427
29154W        W93087  19.095  40.955  12.089
29155W        W93088  17.753  28.452   0.767
29156W        W93089  20.185  19.076   5.210
29157W        W93090   2.344  15.630  10.407
29158W        W93091  23.563  33.412   1.438
29159W        W93092  33.898  14.282   2.359
29160W        W93093  42.815  28.957  13.940
29161W        W93094  12.315  10.810   0.323
29162W        W93095   3.248  40.421   0.425
29163W        W93096   2.299  16.628  14.897
29164W        W93097  11.637  26.097   0.816
29165W        W93098  36.056  36.494   5.198
29166W        W93099  42.288  10.827  12.919
29167W        W93100   3.451  40.853   2.280
29168W        W93101  43.319  30.116  11.863
29169W        W93102  25.107  20.603   1.701
29170W        W93103  11.628  23.096  13.896
29171W        W93104  40.852  14.729   0.417
29172W        W93105  38.533  31.598  13.496
29173W        W93106  28.010  21.532   1.835
29174W        W93107  29.001  14.795  13.516
29175W        W93108   9.235  19.554  14.007
29176W        W93109  22.687  24.165   2.890
29177W        W93110  19.104  15.641  13.458
29178W        W93111   4.911  41.488   3.783
29179W        W93112  28.945   2.419   3.638
29180W        W93113  10.147  28.031  13.850
29181W        W93114  42.885  30.012  12.566
29182W        W93115  22.611  14.774  14.477
29183W        W93116  32.452  22.596   1.932
29184W        W93117  21.685  30.111   3.775
29185W        W93118  43.928  10.279   0.269
29186W        W93119  20.074   9.663  11.470
29187W        W93120  40.484  11.725  13.453
29188W        W93121  32.123  14.663  14.845
29189W        W93122   7.754  40.896   3.296
29190W        W93123  35.379   4.238   2.193
29191W        W93124  23.525  43.338  12.078
29192W        W93125  11.644  27.488  10.521
29193W        W93126   6.695  10.260  11.874
29194W        W93127   8.866   5.793  10.433
29195W        W93128  43.868  23.608  10.953
29196W        W93129   4.392  17.298   1.274
29197W        W93130   4.861  29.140  13.869
29198W        W93131  29.069   6.681  12.869
29199W        W93132  37.966  40.435   0.436
29200W        W93133  34.455  24.051   2.186
29201W        W93134   1.399  19.197   4.662
29202W        W93135  26.589   1.902   4.666
29203W        W93136  11.707  35.585   2.856
29204W        W93137  31.945   0.861  11.034
29205W        W93138  32.938  21.731   1.866
29206W        W93139  41.790  17.080   4.683
29207W        W93140  28.454  33.983   4.697
29208W        W93141   2.455  12.124   0.252
29209W        W93142  17.666  26.574   2.836
29210W        W93143   8.716  39.505   4.707
29211W        W93144  44.429   2.389  13.463
29212W        W93145  30.006  10.744   0.400
29213W        W93146  34.513   2.441  13.534
29214W        W93147  28.931  44.950  10.635
29215W        W93148   7.886  30.908   4.810
29216W        W93149  25.117  14.292  11.990
29217W        W93150  11.170  26.525   1.239
29218W        W93151   3.804   2.873  13.901
29219W        W93152   3.852  27.182  11.050
29220W        W93153  25.529  37.944  12.482
29221W        W93154  16.075  10.219  11.482
29222W        W93155  11.721  41.843   4.734
29223W        W93156  16.312   3.300   3.221
29224W        W93157   4.747  21.650  12.567
29225W        W93158  27.616  38.481   4.221
29226W        W93159  39.875  28.495  11.088
29227W        W93160  35.433   0.375  14.967
29228W        W93161   4.426  39.440   1.220
29229W        W93162   8.697  34.981   0.419
29230W        W93163  26.544   3.267   1.778
29231W        W93164  29.950  43.824  13.464
29232W        W93165  31.919  36.941  11.115
29233W        W93166  26.626  35.512   4.786
29234W        W93167  15.179   2.774   3.316
29235W        W93168   3.448   0.350  14.510
29236W        W93169   4.752  39.539   3.350
29237W        W93170  17.282   2.785   4.632
29238W        W93171  32.931   3.805  14.780
29239W        W93172  30.985  31.078  14.896
29240W        W93173   1.851   6.277   3.851
29241W        W93174  34.535  43.813   3.730
29242W        W93175   3.710  25.615  12.997
29243W        W93176  30.586  44.864  12.386
29244W        W93177  35.914  40.931  14.384
29245W        W93178  31.129  42.345  11.407
29246W        W93179  39.418  41.522  13.495
29247W        W93180  10.345   3.438   2.255
29248W        W93181  43.381  29.620  10.062
29249W        W93182  32.973  36.029  14.904
29250W        W93183  18.271  44.324   4.642
29251W        W93184  44.008  24.614   2.900
29252W        W93185  36.893  24.568  14.387
29253W        W93186  25.064  14.823   0.728
29254W        W93187  28.559  37.030   4.631
29255W        W93188  38.974   1.405   2.780
29256W        W93189  31.083  12.728  12.871
29257W        W93190  15.676  23.639  14.774
29258W        W93191  41.011  40.883   3.362
29259W        W93192  32.608  21.205  12.880
29260W        W93193  27.616  25.594   1.849
29261W        W93194  32.924  31.983  13.895
29262W        W93195   9.737  41.462  10.459
29263W        W93196  20.662   0.776   3.768
29264W        W93197  16.592  16.768  14.936
29265W        W93198  43.436  40.543   0.421
29266W        W93199  20.259  22.646  11.943
29267W        W93200  16.786  43.307   2.182
29268W        W93201  41.509  43.427  13.929
29269W        W93202  15.641  36.848  14.857
29270W        W93203  15.773  32.593  12.832
29271W        W93204  20.744   7.669  11.411
29272W        W93205  15.255  15.744  11.961
29273W        W93206   7.283  18.202  12.046
29274W        W93207  29.933  23.233  14.793
29275W        W93208  13.622  41.309   4.674
29276W        W93209  39.859  40.914   2.671
29277W        W93210  10.264  16.630  14.917
29278W        W93211  22.999  28.069  13.981
29279W        W93212  11.176  43.443  10.580
29280W        W93213  32.986  41.376  12.899
29281W        W93214  21.662  41.445  12.355
29282W        W93215  22.177  29.019   2.723
29283W        W93216  25.603  12.310   0.282
29284W        W93217  32.102  44.270  12.889
29285W        W93218   5.383   9.232   3.214
29286W        W93219  32.535  31.586   1.709
29287W        W93220  36.420   4.231   2.671
29288W        W93221  41.353  12.729   2.710
29289W        W93222  38.872  23.719  14.835
29290W        W93223  15.640  39.903   0.447
29291W        W93224   4.890  21.539   0.880
29292W        W93225  39.034  43.836   1.780
29293W        W93226   3.247  39.323   2.282
29294W        W93227  41.311  24.164   1.802
29295W        W93228  27.537   0.888   0.894
29296W        W93229  10.154  37.469  10.605
29297W        W93230   3.426  40.948  12.368
29298W        W93231  33.593  13.288   0.889
29299W        W93232  15.797  10.349  14.989
29300W        W93233  37.537  14.158   4.811
29301W        W93234  38.912  37.411  14.287
29302W        W93235  34.407   3.734  10.546
29303W        W93236  22.102  15.695   2.388
29304W        W93237  29.998  30.917   3.867
29305W        W93238   3.872   2.748  14.878
29306W        W93239  18.185   8.752   4.727
29307W        W93240  39.976  25.557   1.270
29308W        W93241   5.726   3.263  14.788
29309W        W93242  26.556  21.184  13.962
29310W        W93243  37.467  10.180   2.683
29311W        W93244  23.136  26.995   1.260
29312W        W93245  20.115  21.637  11.888
29313W        W93246  25.063   1.240   9.667
29314W        W93247  33.491  28.635  10.637
29315W        W93248   7.853  30.418   1.897
29316W        W93249  27.036  14.116   4.823
29317W        W93250  22.619   1.814  14.416
29318W        W93251   0.953  27.684  11.586
29319W        W93252  28.489   9.234   2.688
29320W        W93253  20.157  35.960   4.639
29321W        W93254  31.948  41.952   0.332
29322W        W93255  33.954  15.662  14.350
29323W        W93256   6.754  22.233  14.798
29324W        W93257  12.663  30.537  12.848
29325W        W93258  16.263  11.267   4.738
29326W        W93259  29.017  41.333   2.708
29327W        W93260   3.817  15.267  10.548
29328W        W93261  21.606  27.995  11.410
29329W        W93262   4.378  35.915  12.942
29330W        W93263  40.514  10.848   1.391
29331W        W93264  23.141  43.985   2.788
29332W        W93265  15.237  39.475   4.776
29333W        W93266  26.701  17.739   1.390
29334W        W93267  30.418  15.634  12.413
29335W        W93268  19.192  33.596  14.947
29336W        W93269  14.742  10.705  12.367
29337W        W93270  23.234  34.463   2.412
29338W        W93271  42.932  32.028  11.042
29339W        W93272  28.141  34.054  14.930
29340W        W93273  10.175  37.394   3.383
29341W        W93274   6.787   7.903  10.558
29342W        W93275   3.743  33.543   1.881
29343W        W93276  38.544  44.866  14.936
29344W        W93277  17.135  40.037   2.319
29345W        W93278  13.833   4.286  11.894
29346W        W93279  22.178  11.185   1.416
29347W        W93280  23.062  20.030  12.979
29348W        W93281  22.725   6.901  10.465
29349W        W93282   8.402   6.407  14.984
29350W        W93283   3.270  19.704   4.320
29351W        W93284  22.092  25.617  12.956
29352W        W93285  41.975  29.639   2.747
29353W        W93286  26.987  44.272  14.847
29354W        W93287  27.016  35.462  10.616
29355W        W93288   9.297  37.420   0.966
29356W        W93289  11.723  34.986   3.278
29357W        W93290  33.072  15.669  13.432
29358W        W93291  42.884  36.573   3.664
29359W        W93292   0.856  37.865   4.233
29360W        W93293   5.287   8.726   0.806
29361W        W93294  41.969  11.224  10.008
29362W        W93295   2.371  36.097  13.528
29363W        W93296  44.465  11.686   5.120
29364W        W93297  18.084   9.274   1.268
29365W        W93298  41.864   1.278   2.739
29366W        W93299  28.452   9.768   1.836
29367W        W93300  31.588  42.024  14.877
29368W        W93301  17.738  44.926   1.753
29369W        W93302  40.817  15.680   0.481
29370W        W93303  38.470  21.236   5.174
29371W        W93304  39.988  43.823  13.402
29372W        W93305  27.163  33.497  12.009
29373W        W93306  17.561  40.530  12.508
29374W        W93307  30.544  43.497   0.800
29375W        W93308  14.805  10.632   1.851
29376W        W93309  23.512   1.756   0.469
29377W        W93310  26.642  10.251   2.747
29378W        W93311  28.065   5.929   0.740
29379W        W93312   7.782   3.247   2.364
29380W        W93313   6.819  20.542   1.841
29381W        W93314  36.364  11.793   1.377
29382W        W93315  31.428   4.368   0.287
29383W        W93316  34.613  44.884   3.212
29384W        W93317  32.483  31.946   3.777
29385W        W93318   1.408   3.431  12.520
29386W        W93319  13.138  17.085   3.663
29387W        W93320  15.254  18.670   2.856
29388W        W93321  41.991  17.670   0.335
29389W        W93322  10.749   9.733  12.563
29390W        W93323  16.307  44.501  12.885
29391W        W93324  30.123  26.131  13.448
29392W        W93325  28.673   6.766   3.837
29393W        W93326   7.776  12.631   1.766
29394W        W93327  15.114  30.925  12.373
29395W        W93328  20.595  10.354  10.568
29396W        W93329  31.422  15.235   0.839
29397W        W93330  35.872  34.481   3.791
29398W        W93331  13.192  22.090  11.072
29399W        W93332  13.155   0.475   3.775
29400W        W93333  33.119  30.047  10.922
29401W        W93334  25.974  11.228   5.628
29402W        W93335  43.417  12.229  13.849
29403W        W93336  40.053   8.827  13.945
29404W        W93337   1.836  10.158   4.221
29405W        W93338   8.706  37.901   3.365
29406W        W93339  42.850   9.763   4.790
29407W        W93340   0.797  18.702   3.854
29408W        W93341  18.644  24.712   3.324
29409W        W93342   7.352  41.949  14.919
29410W        W93343  39.327  24.088   3.809
29411W        W93344  44.335  16.758   4.339
29412W        W93345  39.901  39.375   4.141
29413W        W93346  17.183  32.586  11.012
29414W        W93347  35.491  13.695   2.292
29415W        W93348   3.220  35.029   2.329
29416W        W93349  39.442  20.095   3.256
29417W        W93350  25.099  26.481   3.337
29418W        W93351   3.780   3.780  12.482
29419W        W93352  19.207  24.478  11.977
29420W        W93353  20.753  36.067   1.838
29421W        W93354  42.306   5.289  11.531
29422W        W93355  41.007   7.386   3.257
29423W        W93356  34.428   0.284  13.547
29424W        W93357  13.782   4.297   3.347
29425W        W93358  23.071  20.549  14.980
29426W        W93359  40.047  38.400  10.138
29427W        W93360  12.254   7.842   2.695
29428W        W93361  42.910   3.752  11.972
29429W        W93362  24.182   1.481  14.911
29430W        W93363  27.492   5.769   2.900
29431W        W93364  21.519  37.530  13.854
29432W        W93365  32.417  21.644  14.799
29433W        W93366  21.053  19.700  14.798
29434W        W93367  34.605  42.423   0.370
29435W        W93368  34.075  38.534   0.452
29436W        W93369  30.543   9.353   0.318
29437W        W93370  34.601  15.320  10.896
29438W        W93371  14.191  43.426  14.817
29439W        W93372  20.036  15.782   2.293
29440W        W93373  37.406  19.737  11.380
29441W        W93374   6.319  16.233  14.462
29442W        W93375  43.515  39.523   5.122
29443W        W93376  44.955  32.496   2.732
29444W        W93377  38.515  19.748  12.894
29445W        W93378   1.961  18.148   1.265
29446W        W93379  14.206  11.262  12.077
29447W        W93380  39.417   6.852  10.621
29448W        W93381  29.663   1.288   0.484
29449W        W93382  15.703  18.215   3.834
29450W        W93383  10.139  31.033  12.379
29451W        W93384   3.821   5.751   1.428
29452W        W93385  37.034  13.834  12.998
29453W        W93386   1.734  16.745   3.323
29454W        W93387  13.233  14.146   1.354
29455W        W93388  39.504  36.494   3.727
29456W        W93389  21.250  44.993  10.932
29457W        W93390  34.488  37.988  12.835
29458W        W93391  33.437  38.443  14.459
29459W        W93392  19.644  40.811  10.421
29460W        W93393  41.914  31.407   2.685
29461W        W93394   0.846  43.967   0.379
29462W        W93395  35.918  10.152   2.316
29463W        W93396  32.606  23.204   0.250
29464W        W93397   2.962  23.226   3.864
29465W        W93398  39.333  17.662  14.859
29466W        W93399  30.055  15.194   4.303
29467W        W93400  21.161  36.466   3.729
29468W        W93401  32.635  10.176   4.354
29469W        W93402  31.902  35.541   3.812
29470W        W93403   9.762   7.684  12.088
29471W        W93404  33.435  20.072   3.303
29472W        W93405   4.448  21.545  14.928
29473W        W93406   0.310  25.161  11.109
29474W        W93407  41.914  40.829   0.245
29475W        W93408  39.511  35.962   2.332
29476W        W93409  42.522  23.550   2.724
29477W        W93410  39.472  27.631   2.272
29478W        W93411   4.258  42.514  14.975
29479W        W93412  25.680   5.905  10.589
29480W        W93413   1.797  34.467   3.803
29481W        W93414  36.006  13.191   1.884
29482W        W93415  15.137  40.501  12.346
29483W        W93416   3.906  44.819   4.799
29484W        W93417  36.376  12.265   0.858
29485W        W93418  42.990  12.181  14.421
29486W        W93419  18.698  36.533   2.220
29487W        W93420  42.370  26.195  14.311
29488W        W93421   9.877  14.281   2.200
29489W        W93422  15.712  40.423   3.294
29490W        W93423  32.588  27.044  13.513
29491W        W93424  22.555   6.825   3.353
29492W        W93425  19.603   5.870  14.462
29493W        W93426  41.421  15.095   0.270
29494W        W93427  26.181  31.643  12.979
29495W        W93428  41.363  29.552  14.433
29496W        W93429  42.916  15.125   0.376
29497W        W93430   1.909  36.863  12.459
29498W        W93431  37.001  35.869  14.985
29499W        W93432  31.627  13.807   3.148
29500W        W93433  13.754  29.454  12.086
29501W        W93434  41.348  33.407  14.901
29502W        W93435  21.525  20.739  12.873
29503W        W93436  16.790   2.935  13.463
29504W        W93437  38.389  28.609   2.383
29505W        W93438   2.824  15.676   0.750
29506W        W93439  31.033  21.717  11.397
29507W        W93440  18.771  17.764  11.411
29508W        W93441   6.887  18.207   4.273
29509W        W93442  42.783  19.099  14.304
29510W        W93443  30.487  39.488  10.965
29511W        W93444  39.509   4.376   4.641
29512W        W93445   0.468  30.609   4.637
29513W        W93446  19.186   9.818  13.791
29514W        W93447  17.740  39.397  14.915
29515W        W93448  18.653  14.720  12.836
29516W        W93449  12.287  14.182  14.971
29517W        W93450  42.316  18.672   1.776
29518W        W93451  15.740  10.378   1.258
29519W        W93452  32.528  29.064   1.703
29520W        W93453  16.645   2.279   3.715
29521W        W93454   1.394  28.646  14.277
29522W        W93455  37.978  17.738  10.893
29523W        W93456  25.218   1.337   3.363
29524W        W93457  41.391   2.920  14.361
29525W        W93458  31.630  36.909   0.887
29526W        W93459  31.064   2.352   4.204
29527W        W93460  28.126  10.163   0.843
29528W        W93461  17.144  42.943   2.380
29529W        W93462  38.844   3.719   1.815
29530W        W93463   1.312  12.731  10.006
29531W        W93464  40.933  17.771   3.147
29532W        W93465   7.329  16.192   2.871
29533W        W93466  44.421  22.092  13.060
29534W        W93467  19.619  12.179   3.295
29535W        W93468  33.040  11.301   1.892
29536W        W93469  24.026  27.150   1.406
29537W        W93470  33.599  28.140  13.803
29538W        W93471  27.993   7.415   0.809
29539W        W93472   5.835  11.803  13.473
29540W        W93473  35.416  27.994   2.881
29541W        W93474  28.156  20.030  14.439
29542W        W93475   3.397  30.970   0.783
29543W        W93476   5.234  40.980  11.074
29544W        W93477  12.685  32.004  13.524
29545W        W93478  32.140  30.141  12.865
29546W        W93479   3.273  27.994  11.548
29547W        W93480   5.883  19.772   0.479
29548W        W93481  44.266  25.084  14.321
29549W        W93482   4.265   3.724   0.308
29550W        W93483  42.447  17.698  11.973
29551W        W93484  42.317  43.441  11.416
29552W        W93485  14.205   7.692   4.307
29553W        W93486  25.476  13.289   1.273
29554W        W93487  28.069  17.610   0.799
29555W        W93488  28.065  32.907   1.720
29556W        W93489  17.707   6.234  10.533
29557W        W93490  22.201   6.375  12.889
29558W        W93491   7.813  12.332  10.918
29559W        W93492  19.066   8.776   0.932
29560W        W93493  38.075  33.495   2.309
29561W        W93494  13.226  42.912  13.507
29562W        W93495  34.418   4.718   3.845
29563W        W93496  14.620   1.755  10.975
29564W        W93497  38.450  17.644  13.925
29565W        W93498   6.325   2.964  14.889
29566W        W93499   2.862  16.673   2.324
29567W        W93500   6.868  16.106   4.762
29568W        W93501  29.091  22.046  12.536
29569W        W93502  19.106  29.134   1.701
29570W        W93503  36.415  42.805   1.387
29571W        W93504  24.031  15.207  13.802
29572W        W93505  27.567  30.437  12.982
29573W        W93506  41.797  11.308   0.306
29574W        W93507   3.380  11.835  12.057
29575W        W93508   5.733  16.629  12.016
29576W        W93509  22.620  38.522   0.851
29577W        W93510   3.342   6.884   4.681
29578W        W93511  35.365  17.129  12.910
29579W        W93512  21.615  32.407  14.766
29580W        W93513  22.162  42.010   3.387
29581W        W93514  25.188  12.173  12.393
29582W        W93515  27.675  25.200   2.813
29583W        W93516  16.150   3.445  14.801
29584W        W93517  31.049  34.863   4.323
29585W        W93518  29.522   9.378  14.905
29586W        W93519  36.446  44.460  10.140
29587W        W93520  10.294  43.397   0.965
29588W        W93521  20.723  43.419  13.036
29589W        W93522   4.832   2.964   1.314
29590W        W93523  24.589  40.866  14.839
29591W        W93524  14.819  20.671   1.863
29592W        W93525  44.502   9.838  10.072
29593W        W93526  28.509   8.287  12.577
29594W        W93527   3.814   3.932   2.695
29595W        W93528   8.656   9.781   1.327
29596W        W93529  19.571   9.870  12.354
29597W        W93530  44.424  20.536   3.170
29598W        W93531  19.226  17.121   4.134
29599W        W93532  33.391  22.591  14.356
29600W        W93533  35.360  10.662   0.329
29601W        W93534  36.859   2.868   2.843
29602W        W93535   4.925  30.441   9.997
29603W        W93536   3.721  39.057   2.260
29604W        W93537  10.268  32.431  13.362
29605W        W93538  20.114   0.871   4.347
29606W        W93539  28.640   7.852   3.640
29607W        W93540   2.916  37.462   1.239
29608W        W93541   6.386  37.088  10.593
29609W        W93542  43.795  26.676  12.987
29610W        W93543  24.724  25.168   3.354
29611W        W93544  27.115   7.382   4.658
29612W        W93545  42.814  22.530  11.110
29613W        W93546  14.697   9.285  12.913
29614W        W93547  24.588  17.629  14.891
29615W        W93548  29.666  22.044   1.434
29616W        W93549  35.504  28.018  12.390
29617W        W93550  44.840   0.478  12.424
29618W        W93551  24.534  13.671  11.104
29619W        W93552  41.451   6.214   0.378
29620W        W93553  24.089  10.331  11.462
29621W        W93554  40.322   2.324   4.199
29622W        W93555  37.357  39.864   2.179
29623W        W93556  18.728  10.324  13.543
29624W        W93557  20.576  20.166   2.355
29625W        W93558   1.441   1.275  12.894
29626W        W93559   7.347  29.995  14.936
29627W        W93560  39.362  29.504   3.240
29628W        W93561  35.521   1.761   3.210
29629W        W93562  12.625  14.208   0.827
29630W        W93563  13.332  25.162  11.603
29631W        W93564   6.796   1.860  14.398
29632W        W93565  24.005  33.594  11.085
29633W        W93566   7.691  17.792   2.235
29634W        W93567  24.695  43.426   4.637
29635W        W93568  28.174   1.768   5.238
29636W        W93569  24.145  15.329  11.378
29637W        W93570  40.527  27.585   2.313
29638W        W93571   2.848  44.382  13.942
29639W        W93572  14.152  23.052   1.871
29640W        W93573  44.874  35.923  10.079
29641W        W93574  33.539  25.067   3.260
29642W        W93575   0.261  27.137  14.499
29643W        W93576  38.509  26.004   4.240
29644W        W93577   0.831   4.813  13.918
29645W        W93578  31.982  44.429   1.880
29646W        W93579  14.814  10.871  12.044
29647W        W93580   2.875  32.988  12.481
29648W        W93581   7.742  16.642  14.331
29649W        W93582  14.743   4.426   1.251
29650W        W93583  27.637  25.210  12.498
29651W        W93584  24.580  19.172   3.635
29652W        W93585  17.262   3.240  11.926
29653W        W93586  30.125  18.550   0.407
29654W        W93587  16.653   2.391  14.818
29655W        W93588  11.845  13.228   1.854
29656W        W93589   6.797  29.430   3.800
29657W        W93590  17.740  43.369   1.905
29658W        W93591  16.750  36.924   1.301
29659W        W93592  24.664  21.017   9.940
29660W        W93593  15.270   0.747  14.448
29661W        W93594  33.010  43.859   0.807
29662W        W93595  33.055  36.423   1.707
29663W        W93596  14.176  43.371  12.830
29664W        W93597  13.194  27.185   1.290
29665W        W93598  34.609  41.352   4.834
29666W        W93599   1.338  15.255  14.925
29667W        W93600  23.683  25.041   2.748
29668W        W93601   6.347  33.963   2.838
29669W        W93602   3.730  31.627  13.446
29670W        W93603  41.300   9.855   2.392
29671W        W93604  28.566  14.216   3.183
29672W        W93605  12.716   7.782  14.415
29673W        W93606  40.358   3.792   2.202
29674W        W93607  17.233   8.779   2.850
29675W        W93608  39.847  29.992  14.906
29676W        W93609   1.967   5.386  10.520
29677W        W93610  36.003  18.587   4.261
29678W        W93611  38.922   7.288  11.000
29679W        W93612  30.922   1.295  13.882
29680W        W93613  22.999  21.516   3.718
29681W        W93614  21.714  37.066   3.279
29682W        W93615  10.800   8.324  10.634
29683W        W93616  43.394  31.647   0.481
29684W        W93617  10.742   4.344  11.086
29685W        W93618  25.562  13.214  12.508
29686W        W93619  35.001   4.816   4.672
29687W        W93620   6.895  35.033   1.744
29688W        W93621   5.284  26.676   3.157
29689W        W93622  11.658  36.376   1.360
29690W        W93623  40.877   4.207   2.849
29691W        W93624   2.409  23.689  14.012
29692W        W93625   5.829   8.792   0.899
29693W        W93626  15.264  27.042  12.454
29694W        W93627  44.487  43.351  11.383
29695W        W93628  33.899  20.716   3.711
29696W        W93629   9.288  23.603  10.054
29697W        W93630  35.575  34.613   4.247
29698W        W93631  19.260  38.338   4.279
29699W        W93632  28.554  29.543  13.385
29700W        W93633  24.165  36.999   1.776
29701W        W93634  31.509  35.062  14.836
29702W        W93635  20.738  34.108   2.670
29703W        W93636  12.180  29.644  14.882
29704W        W93637  31.146  43.482  13.883
29705W        W93638  39.998  38.415  11.890
29706W        W93639  21.597  26.685  10.428
29707W        W93640  13.108   8.715  13.036
29708W        W93641  10.160  41.384   2.887
29709W        W93642  17.760   2.317   3.211
29710W        W93643  35.425  30.602  13.400
29711W        W93644   3.329  29.138   0.955
29712W        W93645   4.857  17.120   4.690
29713W        W93646   2.320  24.158  13.527
29714W        W93647  10.369  13.727  11.027
29715W        W93648   6.838  13.609   1.433
29716W        W93649  42.333  38.982  13.820
29717W        W93650   0.940  44.453   3.652
29718W        W93651  21.194  36.960  14.373
29719W        W93652  22.143  23.642  12.558
29720W        W93653  12.680   5.410  10.498
29721W        W93654   4.900  42.394  13.949
29722W        W93655  20.041  20.209  10.017
29723W        W93656   1.405  26.955   1.927
29724W        W93657  23.580   5.756   1.370
29725W        W93658  35.558  40.534  13.423
29726W        W93659  36.570  15.323  13.014
29727W        W93660   9.783  24.995   4.316
29728W        W93661  17.583  43.360  11.092
29729W        W93662  15.737   4.939  13.340
29730W        W93663   1.838  23.049  10.637
29731W        W93664  28.470  18.188   0.326
29732W        W93665  19.046   6.863   0.814
29733W        W93666  29.946  21.601   2.266
29734W        W93667   7.281  29.922  12.552
29735W        W93668  19.065  21.197   3.147
29736W        W93669   1.349  34.521   3.153
29737W        W93670   6.361  36.587  12.350
29738W        W93671   1.753   1.421  11.066
29739W        W93672  32.582  11.848  11.415
29740W        W93673  26.204  35.427  11.390
29741W        W93674  19.053  18.209   0.367
29742W        W93675   4.412  36.458  10.408
29743W        W93676  43.922  43.274  11.572
29744W        W93677  34.586   4.337   4.176
29745W        W93678  28.164  43.444  11.916
29746W        W93679   5.697  32.445   0.841
29747W        W93680  43.830  22.562  10.512
29748W        W93681  32.592  22.553  12.444
29749W        W93682  38.386  24.997  10.591
29750W        W93683  27.053  10.823  11.593
29751W        W93684  31.596  32.556  13.898
29752W        W93685  21.194  14.627  12.573
29753W        W93686  25.211   3.953  14.963
29754W        W93687   5.431  38.521   4.644
29755W        W93688  22.103  34.600   3.162
29756W        W93689   8.877  27.132   4.744
29757W        W93690  35.087   6.777   1.356
29758W        W93691  16.631   3.936  12.085
29759W        W93692  42.315  30.521  14.470
29760W        W93693  44.451  23.065   3.287
29761W        W93694   4.206  44.276  10.406
29762W        W93695  32.436  25.985  14.364
29763W        W93696   5.851  11.326   2.773
29764W        W93697   5.415   5.821   3.713
29765W        W93698  10.647  27.190   1.887
29766W        W93699  31.512  36.490  12.025
29767W        W93700  20.127  18.137  14.497
29768W        W93701   3.930  28.121  11.536
29769W        W93702  18.660   8.767   5.254
29770W        W93703   1.837   4.914   3.212
29771W        W93704  32.401  43.300  14.818
29772W        W93705  34.906  28.169  10.608
29773W        W93706  15.241  38.410  10.151
29774W        W93707  29.452  42.284   2.784
29775W        W93708  36.413  20.223  10.954
29776W        W93709   3.805  38.543   2.194
29777W        W93710  36.020  21.040  14.795
29778W        W93711  16.603  22.238  11.020
29779W        W93712   4.233  40.337   1.711
29780W        W93713  43.987  34.529   2.250
29781W        W93714  15.315  27.019  11.973
29782W        W93715  24.201  24.593  14.822
29783W        W93716  16.813  30.611   4.170
29784W        W93717  43.781  44.800  12.383
29785W        W93718  42.392  42.965   0.261
29786W        W93719   1.239   4.318   1.894
29787W        W93720  16.081  23.530   4.226
29788W        W93721  32.946  20.136   3.329
29789W        W93722  34.548  22.049  11.012
29790W        W93723  41.989  14.228   2.870
29791W        W93724  33.513  20.605  13.328
29792W        W93725  41.350  18.757  11.529
29793W        W93726   9.798  35.956  12.480
29794W        W93727  38.444  19.597  11.451
29795W        W93728  10.351  30.573   3.323
29796W        W93729  20.756  10.818   2.756
29797W        W93730  35.387  18.555  10.964
29798W        W93731  21.535  22.631  11.972
29799W        W93732  33.906  21.223  10.074
29800W        W93733  24.619  16.311  14.445
29801W        W93734   5.748   6.811  12.501
29802W        W93735  17.737  13.164   2.226
29803W        W93736   8.656  16.234   0.945
29804W        W93737  23.550  21.126  14.404
29805W        W93738   5.866  42.511   3.246
29806W        W93739  30.063  33.125  14.424
29807W        W93740  24.671   8.405  12.463
29808W        W93741  32.012  21.545   2.244
29809W        W93742  44.314  40.382   2.260
29810W        W93743   9.186   3.273   3.655
29811W        W93744  44.309   4.430  11.121
29812W        W93745  37.477  22.726   3.677
29813W        W93746  44.820  20.716  14.855
29814W        W93747   2.720  42.386  12.419
29815W        W93748  33.531   5.842  11.912
29816W        W93749   3.903  29.571   5.165
29817W        W93750   2.755  16.132   1.779
29818W        W93751  25.542  16.581  14.345
29819W        W93752   4.933   7.717   0.454
29820W        W93753  40.942  41.297   3.644
29821W        W93754  34.872  22.138  10.408
29822W        W93755  39.875  22.646   3.308
29823W        W93756  42.363   7.690   2.385
29824W        W93757  14.216  26.683  13.411
29825W        W93758  17.735  41.397  12.872
29826W        W93759   8.900   6.203  12.389
29827W        W93760  37.071  26.958   2.842
29828W        W93761  41.499   8.176   4.138
29829W        W93762  20.682   6.695  11.073
29830W        W93763  39.949  31.034   2.314
29831W        W93764  22.252  15.221   2.748
29832W        W93765  24.525  32.566  12.460
29833W        W93766  16.792   3.910   0.777
29834W        W93767  31.986  28.129  12.477
29835W        W93768  43.964  18.650  12.354
29836W        W93769  42.414  39.405   9.505
29837W        W93770  31.630   0.886   0.433
29838W        W93771  42.478  33.461   4.744
29839W        W93772  44.356   7.243   4.727
29840W        W93773   7.677  17.178   3.809
29841W        W93774   5.903  13.324  11.994
29842W        W93775  21.722   1.804   2.297
29843W        W93776  12.722  32.980  12.871
29844W        W93777  41.486  42.011   0.394
29845W        W93778   2.816  21.167  14.961
29846W        W93779   5.250   5.227   4.208
29847W        W93780  36.577  12.820  10.000
29848W        W93781  11.162   4.400   1.412
29849W        W93782  26.639  44.471  12.514
29850W        W93783  32.506   9.164  14.418
29851W        W93784  23.710  35.898   0.940
29852W        W93785  38.952  34.371  11.537
29853W        W93786  14.257  36.398   0.835
29854W        W93787  31.119  39.932  11.543
29855W        W93788  31.012  17.581  12.508
29856W        W93789   2.919   3.849   2.187
29857W        W93790   3.422  18.671  10.571
29858W        W93791   1.768  37.477  13.884
29859W        W93792  44.870   6.427  12.466
29860W        W93793  43.367  30.448  11.447
29861W        W93794  40.798  16.574  14.414
29862W        W93795  13.785  18.157  14.772
29863W        W93796  12.716  29.994   0.311
29864W        W93797  21.053  29.471  10.536
29865W        W93798  37.024  40.340  10.547
29866W        W93799  34.530  44.379  14.355
29867W        W93800   9.808   5.236   2.191
29868W        W93801  22.541  21.183   1.312
29869W        W93802  22.740  43.013   1.339
29870W        W93803  34.524   0.916  13.987
29871W        W93804  30.499   5.910   0.806
29872W        W93805   6.299  22.106   4.243
29873W        W93806  19.633   5.821  12.438
29874W        W93807   1.313   6.868   2.768
29875W        W93808  15.694  13.751  12.553
29876W        W93809  12.290  21.556  13.532
29877W        W93810  24.987  29.120   0.304
29878W        W93811  13.118  19.596  10.109
29879W        W93812  29.949  23.195   2.877
29880W        W93813  14.119   6.382  13.815
29881W        W93814  18.151  16.182   2.833
29882W        W93815  43.279  19.613  13.039
29883W        W93816   2.726   4.923   3.241
29884W        W93817  15.178  31.120   1.257
29885W        W93818  34.476   3.946   0.841
29886W        W93819  20.530  29.066   2.200
29887W        W93820   7.783  34.074   0.466
29888W        W93821  25.499   1.380   3.660
29889W        W93822  18.143  31.577  10.938
29890W        W93823  24.675  10.378  11.972
29891W        W93824  23.587   2.404  13.900
29892W        W93825  35.859  12.624  14.458
29893W        W93826  29.528  14.220   3.216
29894W        W93827  43.420   7.357   1.894
29895W        W93828  23.502   5.875   4.125
29896W        W93829  16.092  27.173  12.846
29897W        W93830  22.695   9.836  11.857
29898W        W93831   2.249  20.582   2.336
29899W        W93832  14.335   1.324  11.860
29900W        W93833   0.868   1.374   2.296
29901W        W93834  10.384  14.316  10.410
29902W        W93835   2.746   5.901   2.808
29903W        W93836  29.957   9.748   0.775
29904W        W93837  36.084  13.112   2.899
29905W        W93838  25.618  36.933  10.472
29906W        W93839  37.967  13.160   1.368
29907W        W93840  42.827  31.474  10.066
29908W        W93841  29.547  27.968   4.752
29909W        W93842  23.525   7.199  11.569
29910W        W93843   7.799  31.548   2.695
29911W        W93844  39.862   2.966   4.214
29912W        W93845  26.570  16.176  11.995
29913W        W93846  33.439  29.144  12.366
29914W        W93847  22.657  11.288  12.885
29915W        W93848   6.189  17.076   0.347
29916W        W93849  12.829  25.571   1.283
29917W        W93850  28.475  13.254   4.637
29918W        W93851  36.056   3.886   0.843
29919W        W93852  20.688  44.394  12.549
29920W        W93853  11.237  34.998  13.830
29921W        W93854   9.215  10.371  10.569
29922W        W93855   6.900  10.732   0.947
29923W        W93856  10.159  32.398  12.443
29924W        W93857   0.335  10.748  13.340
29925W        W93858  43.888  19.641   4.326
29926W        W93859  44.896  42.419   4.676
29927W        W93860  39.370  23.209  13.408
29928W        W93861  16.709  37.033   5.759
29929W        W93862  15.704   0.833  12.510
29930W        W93863   5.923  15.128   1.350
29931W        W93864  33.596  33.085  12.901
29932W        W93865  35.888  42.481  11.943
29933W        W93866  25.536  29.503   3.337
29934W        W93867  26.560   6.816   3.226
29935W        W93868  39.865  19.756   1.811
29936W        W93869  32.083  24.715   3.750
29937W        W93870  40.828  10.762   2.321
29938W        W93871   2.453  12.689  13.897
29939W        W93872  35.921  19.051   2.865
29940W        W93873  13.229  13.784   0.825
29941W        W93874  38.848   2.344  12.017
29942W        W93875   9.702  34.597   4.807
29943W        W93876  26.058  17.796   0.816
29944W        W93877  37.515  23.218   0.283
29945W        W93878  39.846  29.487  12.551
29946W        W93879  25.650   4.823   4.635
29947W        W93880  37.482  12.695   1.328
29948W        W93881  37.908  34.606  12.526
29949W        W93882  32.011  35.007  14.777
29950W        W93883  16.577  44.381  11.386
29951W        W93884  19.138   9.695   4.211
29952W        W93885  30.444  15.805   1.446
29953W        W93886  22.539  19.621   4.751
29954W        W93887  14.216  33.958   0.790
29955W        W93888  16.309  14.338  14.354
29956W        W93889  17.640  28.547   4.303
29957W        W93890   6.191   6.817  13.354
29958W        W93891  10.318  17.137   2.261
29959W        W93892  28.076  10.333   5.100
29960W        W93893  43.946   6.379  13.029
29961W        W93894  23.057   4.711  14.416
29962W        W93895  18.056  24.985   3.168
29963W        W93896  31.537  15.743  13.977
29964W        W93897   0.765  39.528   2.191
29965W        W93898  32.041  35.602   3.289
29966W        W93899  39.415   3.765   4.616
29967W        W93900  22.703  40.469   2.712
29968W        W93901   4.223  24.557  10.014
29969W        W93902  23.132  35.078   1.810
29970W        W93903  38.358  15.105   2.666
29971W        W93904  31.619  29.040  12.954
29972W        W93905  21.242  43.280  13.028
29973W        W93906  11.223  17.193   3.821
29974W        W93907   2.775  35.041   1.320
29975W        W93908  36.010  42.838  12.501
29976W        W93909   7.202  10.275  13.387
29977W        W93910  39.054   8.781  12.072
29978W        W93911  39.439  16.116  13.395
29979W        W93912  19.760  34.392  13.803
29980W        W93913  30.935  11.656  13.897
29981W        W93914   3.718  13.310   2.833
29982W        W93915   4.784  43.367  10.564
29983W        W93916  11.724  43.284  12.016
29984W        W93917  24.181  40.821  14.373
29985W        W93918  41.883   3.946  11.605
29986W        W93919  28.480   5.835   0.950
29987W        W93920  21.538  21.668  12.860
29988W        W93921  12.793  39.809   1.745
29989W        W93922  31.100   3.730  13.989
29990W        W93923  36.954  14.106   2.819
29991W        W93924  30.033  21.635  14.333
29992W        W93925  11.307  18.117  10.638
29993W        W93926  44.756  19.051  10.454
29994W        W93927   0.284  14.743   2.322
29995W        W93928  35.410  38.955   3.162
29996W        W93929  28.032  44.442  13.347
29997W        W93930  29.564  30.441  10.473
29998W        W93931  14.305  37.373  12.377
29999W        W93932  40.392  29.140  11.034
30000W        W93933   1.428   9.225   4.670
30001W        W93934  11.649   0.967   2.216
30002W        W93935  20.740  43.845  10.941
30003W        W93936  42.863  17.656   4.787
30004W        W93937  39.047  40.811  13.479
30005W        W93938   1.297  24.012   0.931
30006W        W93939  30.026  34.424  11.609
30007W        W93940  25.081  15.290   0.317
30008W        W93941   7.669  44.926  12.011
30009W        W93942  13.319  13.164   3.219
30010W        W93943  22.052  43.987   1.440
30011W        W93944  28.107   7.342   0.255
30012W        W93945   5.270  43.836  14.354
30013W        W93946  28.036  38.843   4.660
30014W        W93947  24.171  16.091   2.827
30015W        W93948  42.907  26.108  13.537
30016W        W93949   1.475   3.278  11.475
30017W        W93950  23.189  24.981   4.673
30018W        W93951  32.011   7.794  13.309
30019W        W93952  37.832  31.033   4.621
30020W        W93953  38.530  37.068  12.027
30021W        W93954  17.300  18.294   2.215
30022W        W93955  42.281  43.831  11.511
30023W        W93956  38.008  32.468   1.375
30024W        W93957  15.671  39.810  13.353
30025W        W93958   5.221  13.692  13.984
30026W        W93959   1.836  29.162   0.856
30027W        W93960  15.823   9.814   2.777
30028W        W93961  10.679  18.569   1.784
30029W        W93962  43.958  42.419   2.860
30030W        W93963  17.687  17.306  13.911
30031W        W93964  44.364   4.920   1.245
30032W        W93965  29.637  10.325  14.426
30033W        W93966  44.395   2.901   3.693
30034W        W93967   3.427  34.871   2.748
30035W        W93968   3.768  43.374  10.617
30036W        W93969   4.340  16.727   4.618
30037W        W93970  22.080  37.447  13.040
30038W        W93971  10.644   6.698   4.654
30039W        W93972  36.021  28.061   1.779
30040W        W93973  38.979  24.191   2.798
30041W        W93974   8.309  20.621  12.432
30042W        W93975   2.938  13.273   5.794
30043W        W93976  18.202  41.474   3.703
30044W        W93977   2.931  38.033  13.369
30045W        W93978  32.031  38.341  11.024
30046W        W93979   9.807  39.880  14.311
30047W        W93980  29.548  40.971  11.041
30048W        W93981  32.938   6.801  13.959
30049W        W93982  36.980  16.791  10.618
30050W        W93983  20.592  31.037   2.340
30051W        W93984  36.022  23.037   2.867
30052W        W93985  15.114   6.748  10.120
30053W        W93986  15.211  19.263   0.377
30054W        W93987  27.100   4.234   4.633
30055W        W93988  29.562  43.450  13.400
30056W        W93989   4.853  35.533   0.449
30057W        W93990  16.698   9.836   3.725
30058W        W93991   4.817  40.888  14.392
30059W        W93992  29.566  18.062   3.177
30060W        W93993  38.398  40.341   2.391
30061W        W93994  23.128  31.470  14.932
30062W        W93995  33.578  34.931   1.228
30063W        W93996  39.442  41.419  12.448
30064W        W93997  30.533  15.228  11.915
30065W        W93998  30.991  33.518  13.046
30066W        W93999  21.148  22.721   3.181
30067W        W94000  42.912   0.851   4.185
30068W        W94001   3.392  42.479  12.899
30069W        W94002  19.740   4.237   3.694
30070W        W94003  23.104  19.226   4.831
30071W        W94004  31.539  43.382  12.939
30072W        W94005  23.511  11.139   2.297
30073W        W94006  34.496  30.119   4.790
30074W        W94007  14.593  30.513  14.782
30075W        W94008  42.783  41.469  11.990
30076W        W94009  36.346  20.638   3.709
30077W        W94010  24.134  21.226   3.843
30078W        W94011  42.379  15.097   1.359
30079W        W94012  19.571  30.137  14.767
30080W        W94013  35.490  31.636   1.263
30081W        W94014  38.471  27.479  14.324
30082W        W94015   3.941  33.984  13.990
30083W        W94016  44.839  17.571   4.746
30084W        W94017  13.833  15.098   3.280
30085W        W94018   9.847  44.900  10.462
30086W        W94019   0.787   1.732   0.951
30087W        W94020  36.082  39.477  12.093
30088W        W94021   3.359  39.430  14.414
30089W        W94022  16.259  26.586  13.941
30090W        W94023  23.594  14.139  12.881
30091W        W94024  12.282  38.009  12.399
30092W        W94025  41.015  19.607  11.119
30093W        W94026  16.254  17.155  13.466
30094W        W94027   3.412   1.941   3.233
30095W        W94028  38.968  10.234   2.354
30096W        W94029  18.566  17.702  13.327
30097W        W94030  30.429  31.404  10.634
30098W        W94031   6.717  24.993  10.465
30099W        W94032   5.255  19.591   2.721
30100W        W94033  32.053  29.586  12.350
30101W        W94034   8.402  35.031  13.314
30102W        W94035   2.904  20.151  13.854
30103W        W94036  41.012  16.638  13.814
30104W        W94037  44.378  24.146   3.754
30105W        W94038  30.929  36.424   0.811
30106W        W94039  23.562   5.322  14.904
30107W        W94040  32.972  36.563  14.298
30108W        W94041  19.206   2.315  14.407
30109W        W94042   9.187  20.616  10.422
30110W        W94043  38.507  20.572   0.957
30111W        W94044  10.291  36.860   0.953
30112W        W94045  22.612  15.325  11.947
30113W        W94046   6.739  43.483  12.847
30114W        W94047   6.855  43.426   4.264
30115W        W94048  21.593   5.351  11.879
30116W        W94049   7.884  29.591   2.365
30117W        W94050  28.491  44.994  10.439
30118W        W94051  16.274  41.327   0.965
30119W        W94052   1.865  30.635  12.079
30120W        W94053  11.286   8.241  11.517
30121W        W94054  39.494  42.861  14.971
30122W        W94055  17.795  14.125  10.429
30123W        W94056  30.525  24.595   1.807
30124W        W94057   9.849  28.947   2.190
30125W        W94058  23.528  15.617   1.239
30126W        W94059   5.802  19.148  11.948
30127W        W94060  13.633  25.141  12.546
30128W        W94061   7.848   2.827  14.012
30129W        W94062  24.047   0.897   3.214
30130W        W94063  43.374  15.589  14.401
30131W        W94064  19.200  16.681   4.163
30132W        W94065  16.217   7.772  12.858
30133W        W94066  33.438   4.784   2.266
30134W        W94067  16.283   5.801  12.468
30135W        W94068  39.440  36.520   2.695
30136W        W94069   3.763  31.087   1.729
30137W        W94070  34.925  17.143  12.444
30138W        W94071  34.517   9.726   4.684
30139W        W94072  43.473   2.795  12.920
30140W        W94073  30.983  18.286  13.424
30141W        W94074  43.010   6.750  10.509
30142W        W94075  40.466   7.755   1.844
30143W        W94076  24.596  37.948  10.914
30144W        W94077  33.539  30.138  14.996
30145W        W94078  22.119  41.479  13.048
30146W        W94079  26.515  13.217   3.724
30147W        W94080  15.790  21.212   0.402
30148W        W94081  36.089  11.252  10.505
30149W        W94082  21.658   5.865   0.314
30150W        W94083  24.496  21.048  11.378
30151W        W94084  34.550   8.716  11.006
30152W        W94085  17.722  30.944   1.233
30153W        W94086  25.647  35.495   2.188
30154W        W94087  44.488  40.473  10.597
30155W        W94088  17.587  26.195  10.140
30156W        W94089   2.407  30.939  11.060
30157W        W94090  36.029   4.765   2.186
30158W        W94091  25.705  31.546   1.759
30159W        W94092  41.839  39.063   0.821
30160W        W94093  27.562  42.834  11.863
30161W        W94094  33.445  40.543  13.529
30162W        W94095  22.606  19.254  10.918
30163W        W94096  43.918  11.754   1.756
30164W        W94097  34.517  19.647  12.520
30165W        W94098  34.873  19.762  14.341
30166W        W94099   4.874  24.508  11.076
30167W        W94100   1.329  41.959  13.428
30168W        W94101   7.251   6.781   0.784
30169W        W94102  31.024  10.796   2.190
30170W        W94103  11.690  15.701  11.562
30171W        W94104  30.028  27.620   0.368
30172W        W94105   2.305  32.091   1.761
30173W        W94106   3.444   0.273   3.263
30174W        W94107   8.746  26.205   4.160
30175W        W94108  40.930  10.765  11.373
30176W        W94109  27.071  42.317  13.025
30177W        W94110  30.439   7.201   0.849
30178W        W94111  17.585  41.495   1.349
30179W        W94112  30.038  18.091   1.889
30180W        W94113  17.752  16.080   2.377
30181W        W94114  30.579  40.378  12.569
30182W        W94115   4.778   9.768  14.894
30183W        W94116   5.311  11.363  10.543
30184W        W94117   5.783  31.422   0.295
30185W        W94118  19.133  44.341  14.349
30186W        W94119  16.779   4.854  13.345
30187W        W94120   5.269  23.993  14.795
30188W        W94121  42.463  21.546   2.312
30189W        W94122   4.788   9.322   3.733
30190W        W94123  37.914  31.950  14.824
30191W        W94124  42.431  16.769   3.831
30192W        W94125  35.519  26.055   3.251
30193W        W94126  37.443   5.823  14.949
30194W        W94127  41.305  17.690   1.319
30195W        W94128   4.206  19.077   4.138
30196W        W94129   9.392   9.887   2.889
30197W        W94130  24.678  18.122  14.770
30198W        W94131   7.229  22.250  13.975
30199W        W94132  26.085  28.148  13.999
30200W        W94133   8.726  42.776   1.374
30201W        W94134   8.200  10.219   2.793
30202W        W94135  32.001  11.626   3.283
30203W        W94136   2.917  42.952  10.937
30204W        W94137  25.087  42.504  11.026
30205W        W94138   5.425   6.774   3.160
30206W        W94139  27.094  17.085   3.861
30207W        W94140  11.644   4.424  12.440
30208W        W94141   8.179  36.004   0.440
30209W        W94142  38.066  20.711  11.598
30210W        W94143  44.772  20.182   4.739
30211W        W94144  26.618  15.626   4.186
30212W        W94145   5.712  25.198  11.059
30213W        W94146  24.704  38.341  12.362
30214W        W94147  29.491  23.541   0.925
30215W        W94148  39.479   8.273   0.373
30216W        W94149  22.076  11.221  11.597
30217W        W94150  26.634  10.149   1.726
30218W        W94151  32.076  20.089   3.702
30219W        W94152  29.928  39.815   0.274
30220W        W94153  44.005   9.375   4.252
30221W        W94154  44.382  14.189   0.926
30222W        W94155  29.002  25.638  12.401
30223W        W94156  11.183  23.985  14.891
30224W        W94157  42.457   0.988   4.645
30225W        W94158  29.157   3.316  14.382
30226W        W94159  11.318  31.912  12.944
30227W        W94160  29.995  18.581  11.569
30228W        W94161  15.240  14.148  12.363
30229W        W94162  43.814   7.411   2.394
30230W        W94163  15.723  28.966  12.519
30231W        W94164  23.533  40.020   3.643
30232W        W94165  35.523  37.523  10.413
30233W        W94166  20.638  23.612   3.187
30234W        W94167  16.178  25.667   3.707
30235W        W94168  18.576   8.285   3.220
30236W        W94169  27.062  37.892  11.607
30237W        W94170  33.447  26.459   1.776
30238W        W94171  30.035  19.705  14.953
30239W        W94172  34.014  13.269   0.842
30240W        W94173  21.611  25.097   2.214
30241W        W94174  18.094  41.908  10.159
30242W        W94175  30.145  32.082   2.878
30243W        W94176  17.556   1.825   0.893
30244W        W94177   3.268  16.301  13.990
30245W        W94178  38.382  26.672   3.376
30246W        W94179  17.566  38.028   3.823
30247W        W94180   5.757  17.299   2.227
30248W        W94181   2.401  20.542  12.850
30249W        W94182  19.165   3.297  11.006
30250W        W94183  14.098  31.567   1.811
30251W        W94184  24.677  26.050  12.394
30252W        W94185  23.557  32.036   0.395
30253W        W94186  43.021  40.875   1.309
30254W        W94187  27.036  21.670   1.235
30255W        W94188  35.928  19.283  14.778
30256W        W94189  44.270  16.680   2.329
30257W        W94190   3.368  29.055   3.869
30258W        W94191  27.976   7.281  12.377
30259W        W94192  27.689  41.532  12.857
30260W        W94193   9.182  40.831   4.119
30261W        W94194  11.766  11.741   1.867
30262W        W94195   3.401  26.598   3.161
30263W        W94196  38.362  22.560  11.895
30264W        W94197  31.132  29.667   2.207
30265W        W94198  43.017  36.880   2.216
30266W        W94199   4.786  18.554  11.557
30267W        W94200  21.165  21.520   3.359
30268W        W94201  14.116  42.318   4.604
30269W        W94202  31.987  28.571  13.379
30270W        W94203  38.974   0.336   2.891
30271W        W94204  41.392  27.123  12.991
30272W        W94205  10.235  23.136   4.291
30273W        W94206  17.209  25.654  12.355
30274W        W94207  17.186   9.232  14.960
30275W        W94208  16.143   3.855  12.832
30276W        W94209  17.174   7.860   1.367
30277W        W94210  37.353  34.615   2.889
30278W        W94211   6.918  34.561   2.281
30279W        W94212   4.207  37.482   3.630
30280W        W94213  14.322   3.216   4.714
30281W        W94214   0.984   6.717   4.162
30282W        W94215  38.971  44.281   1.352
30283W        W94216  41.442   9.314  12.508
30284W        W94217  32.114  30.947   3.846
30285W        W94218  27.473  29.525  11.119
30286W        W94219  22.667  33.542  13.343
30287W        W94220  14.148  18.174  14.373
30288W        W94221  15.747  27.465  12.987
30289W        W94222  21.131  26.651   3.651
30290W        W94223  18.684  38.894   2.763
30291W        W94224  22.680  17.281  10.507
30292W        W94225  39.017  21.757  13.369
30293W        W94226   8.184  34.054   4.335
30294W        W94227  28.064  27.579  10.464
30295W        W94228  26.050  44.268   3.196
30296W        W94229   5.800  19.558  14.860
30297W        W94230  36.925   9.377   1.288
30298W        W94231  18.103  20.688   2.864
30299W        W94232  29.025   7.240  13.035
30300W        W94233  32.565   2.894  10.948
30301W        W94234  13.831  42.831  11.113
30302W        W94235  35.023  16.580   4.343
30303W        W94236   1.765   7.245   3.724
30304W        W94237  29.149  21.233   0.452
30305W        W94238   0.475   5.205   2.276
30306W        W94239  16.803  18.589   4.815
30307W        W94240   9.325  16.138  11.065
30308W        W94241  39.918  39.519   0.911
30309W        W94242  37.491  42.366  14.366
30310W        W94243   2.431  44.402   2.185
30311W        W94244  18.116  34.090   3.827
30312W        W94245   1.344  42.471   4.268
30313W        W94246  29.924   4.760   0.887
30314W        W94247   3.829   5.762   9.478
30315W        W94248  10.818  27.604   3.673
30316W        W94249  21.750   9.864   9.957
30317W        W94250  29.455  16.787  14.418
30318W        W94251  20.196  20.540  11.534
30319W        W94252   4.211  37.042   1.802
30320W        W94253  13.171  19.761   3.190
30321W        W94254  41.997  36.532   1.342
30322W        W94255   1.907  19.097   2.662
30323W        W94256   2.439  25.167  12.403
30324W        W94257  31.035  25.121  14.421
30325W        W94258  20.076  33.951   2.182
30326W        W94259  18.743  20.178  12.846
30327W        W94260  33.014   6.838  10.645
30328W        W94261  17.581  21.622   1.701
30329W        W94262  31.002  42.883  10.529
30330W        W94263  41.837  34.975  12.077
30331W        W94264  19.645   3.279   2.394
30332W        W94265   0.371  13.340   4.778
30333W        W94266  14.660  27.958  14.839
30334W        W94267  10.646  11.754  14.422
30335W        W94268   3.899  30.081  11.519
30336W        W94269  16.755  26.995   2.225
30337W        W94270  35.049   1.417   3.797
30338W        W94271  17.621  26.167   1.772
30339W        W94272  40.939  30.593  10.465
30340W        W94273   8.715  17.239  11.099
30341W        W94274  36.942  11.701   0.862
30342W        W94275  29.019  27.586   1.815
30343W        W94276  15.260  36.481  12.847
30344W        W94277   5.757  19.139   1.756
30345W        W94278  10.197  21.024   3.747
30346W        W94279  40.799  22.050   4.827
30347W        W94280  18.193   6.256   2.687
30348W        W94281  37.067  35.025  11.974
30349W        W94282   0.268  12.259   0.729
30350W        W94283   7.294  42.869  11.567
30351W        W94284   8.257   6.777   1.351
30352W        W94285  26.046  21.745   3.785
30353W        W94286  25.519  22.652  12.363
30354W        W94287  23.539  43.369   4.133
30355W        W94288  29.532  12.679  10.630
30356W        W94289   2.881  41.459  13.850
30357W        W94290  22.521  39.411   0.449
30358W        W94291   1.972   8.259   4.715
30359W        W94292  35.108  40.924  10.483
30360W        W94293  35.506  22.192  13.517
30361W        W94294  19.533  26.674   2.261
30362W        W94295  10.170   4.885  11.102
30363W        W94296  27.032  16.187  11.612
30364W        W94297  14.716  24.522  13.007
30365W        W94298  31.426  28.185   0.878
30366W        W94299  11.687  23.168  12.041
30367W        W94300  42.795  19.043  11.925
30368W        W94301  19.650  27.577   0.327
30369W        W94302   2.446  11.689   1.249
30370W        W94303  13.247  28.034   0.378
30371W        W94304  30.516   8.328  10.919
30372W        W94305  36.854  43.903   2.702
30373W        W94306  25.992  13.617  12.073
30374W        W94307  24.124  15.787  11.377
30375W        W94308   7.817  10.166   2.687
30376W        W94309  44.367  16.776   4.719
30377W        W94310   6.696  17.733   1.785
30378W        W94311  28.986  42.989   1.232
30379W        W94312  26.027  10.146  13.541
30380W        W94313  15.624   8.838   9.537
30381W        W94314  24.211  25.148  12.047
30382W        W94315  34.374  38.002  13.867
30383W        W94316  20.732  26.058   1.904
30384W        W94317  13.293  14.152   3.333
30385W        W94318   7.313  37.533   2.359
30386W        W94319  36.903  27.997   2.827
30387W        W94320  14.746   6.853   0.826
30388W        W94321  23.554  30.932   1.923
30389W        W94322  19.209  32.550  10.932
30390W        W94323   3.422  17.764   4.828
30391W        W94324  17.579  32.933  12.868
30392W        W94325  16.261  26.580   9.975
30393W        W94326  34.444   5.260  10.920
30394W        W94327  29.484  20.530  11.123
30395W        W94328  37.368   0.771  14.925
30396W        W94329   6.789   0.380   3.298
30397W        W94330  35.416  19.141  10.941
30398W        W94331  37.946  11.627   0.866
30399W        W94332  21.244  30.915   5.097
30400W        W94333  11.373  15.595  14.891
30401W        W94334  34.489  31.064   1.297
30402W        W94335  44.274   2.420   0.400
30403W        W94336   5.240  25.475   2.663
30404W        W94337  20.696  12.632   0.851
30405W        W94338  36.855   3.393   1.870
30406W        W94339   5.251  29.138  13.410
30407W        W94340  41.527   9.275   1.696
30408W        W94341   8.711  23.055   2.377
30409W        W94342  17.268  10.148   1.221
30410W        W94343  19.729  18.568   1.913
30411W        W94344  12.618  39.843  11.066
30412W        W94345   9.358  10.154   3.289
30413W        W94346  40.936  32.944  14.319
30414W        W94347  21.124  44.792  12.915
30415W        W94348  20.706  15.713   1.702
30416W        W94349  28.508  41.968   2.662
30417W        W94350   3.420  41.474   9.991
30418W        W94351  30.435  35.927   4.601
30419W        W94352  33.106  38.008  11.891
30420W        W94353  11.227  44.449   3.232
30421W        W94354  40.976  11.828  11.988
30422W        W94355  19.141  31.597   1.210
30423W        W94356  25.501  41.457  10.971
30424W        W94357  10.173  11.819  12.916
30425W        W94358  25.972   0.340  12.062
30426W        W94359   4.779   7.248   1.792
30427W        W94360  27.168  31.412  14.484
30428W        W94361  25.136   1.264  14.477
30429W        W94362  25.603  23.049  13.526
30430W        W94363  25.488   5.784   0.910
30431W        W94364  37.496  17.229  14.838
30432W        W94365   6.887  29.457  11.450
30433W        W94366  26.963   9.150  12.873
30434W        W94367  25.189  30.917   3.358
30435W        W94368  14.727  37.576  10.639
30436W        W94369  13.647  36.027   2.367
30437W        W94370   5.391  29.106   4.733
30438W        W94371  12.267   8.187  14.957
30439W        W94372  18.762  33.565  12.368
30440W        W94373   4.773  14.646  14.365
30441W        W94374  24.035   7.299   2.307
30442W        W94375  19.570   0.412   3.781
30443W        W94376  23.733  10.167   1.811
30444W        W94377   0.989  24.157   0.795
30445W        W94378  33.051  37.021   0.762
30446W        W94379  41.408   2.376   0.744
30447W        W94380  35.402  24.991  13.344
30448W        W94381  28.526   0.977   0.957
30449W        W94382   7.784  24.112   2.861
30450W        W94383  19.179  44.957   2.327
30451W        W94384   2.412  23.027  13.347
30452W        W94385   7.872   2.341   0.356
30453W        W94386  31.900  13.610  10.618
30454W        W94387  29.588  33.935   3.807
30455W        W94388  34.473  39.969   3.290
30456W        W94389  10.227  43.008  12.395
30457W        W94390  28.629  14.808   2.667
30458W        W94391   2.371  22.092  11.604
30459W        W94392  24.003  38.837  13.004
30460W        W94393  40.490  16.707   4.706
30461W        W94394  11.644   3.367  10.436
30462W        W94395  12.210  40.384   3.387
30463W        W94396  13.265  16.204  12.394
30464W        W94397   1.790  13.811   0.411
30465W        W94398  31.466   4.348   2.325
30466W        W94399   2.467  38.472   0.395
30467W        W94400   8.296  11.331   4.819
30468W        W94401  43.993  37.032   1.745
30469W        W94402  19.700   7.211  10.579
30470W        W94403  17.594  39.398  12.511
30471W        W94404  16.640  19.765  10.963
30472W        W94405   0.311  21.637  10.556
30473W        W94406   5.706  17.741   1.418
30474W        W94407  28.040  39.040  13.374
30475W        W94408  28.466  22.617  12.036
30476W        W94409  28.511  38.346  11.919
30477W        W94410  38.384   8.346  14.461
30478W        W94411  12.350  25.666   0.806
30479W        W94412  27.667  41.821   0.459
30480W        W94413  12.732  32.494  14.775
30481W        W94414  13.108  25.676   1.895
30482W        W94415  28.621  33.981   2.771
30483W        W94416   4.851  35.005  11.395
30484W        W94417  10.740   8.861  12.465
30485W        W94418  31.613  33.601   4.353
30486W        W94419   8.659  34.434  12.511
30487W        W94420   1.279  43.909   4.186
30488W        W94421  28.451  34.931  13.519
30489W        W94422  26.637   5.711   0.282
30490W        W94423   7.897  29.139  13.804
30491W        W94424  21.724  44.454  12.962
30492W        W94425   8.797  35.559  13.521
30493W        W94426  23.145  19.681  11.968
30494W        W94427  43.302   0.975   4.640
30495W        W94428  18.733  35.489   0.275
30496W        W94429  30.467  42.335  12.864
30497W        W94430  25.620  34.454  11.051
30498W        W94431  13.720  28.959  12.088
30499W        W94432  38.052  25.112   1.892
30500W        W94433   8.758   9.806   3.229
30501W        W94434  34.919  12.358   2.858
30502W        W94435  36.429  24.027  11.501
30503W        W94436  22.110  19.183   1.366
30504W        W94437  25.700  35.089  11.939
30505W        W94438  23.181  25.061  12.473
30506W        W94439   4.239  30.110  12.452
30507W        W94440  41.932  18.730  10.640
30508W        W94441  16.284  18.691   1.906
30509W        W94442  25.044   0.841   1.823
30510W        W94443  36.586  41.865  13.061
30511W        W94444  32.490  22.511  14.793
30512W        W94445  20.073  20.269  11.415
30513W        W94446   8.188  43.886   1.271
30514W        W94447  40.900  27.191  11.498
30515W        W94448  36.365  12.274  13.858
30516W        W94449  17.139   1.964   4.639
30517W        W94450  34.031  34.603  12.518
30518W        W94451  30.605  20.065  14.376
30519W        W94452  18.722  25.169  14.891
30520W        W94453  40.319  21.153   0.264
30521W        W94454  42.930   4.903   3.695
30522W        W94455  25.174  37.435  14.986
30523W        W94456  27.951  19.123   2.366
30524W        W94457   1.804  35.587   4.648
30525W        W94458  34.071  19.125   2.674
30526W        W94459  23.603   1.875  11.598
30527W        W94460  16.721   1.879  14.853
30528W        W94461   9.790  13.336   3.350
30529W        W94462  22.997  36.848  11.585
30530W        W94463  37.998  26.670   1.724
30531W        W94464  13.303  25.503  14.868
30532W        W94465  32.473  44.968  11.950
30533W        W94466  27.192  13.697   4.307
30534W        W94467   9.176  18.183   2.851
30535W        W94468  16.177  42.939  12.834
30536W        W94469  32.956  24.182  12.072
30537W        W94470  24.034   0.842   0.396
30538W        W94471   0.393  42.413   4.218
30539W        W94472   9.375  35.486   3.217
30540W        W94473   6.895  18.745  14.855
30541W        W94474  39.002  15.674  13.812
30542W        W94475   4.844   3.268  13.508
30543W        W94476  38.341  28.174  14.430
30544W        W94477  32.939  21.067  14.483
30545W        W94478  35.443  12.356  13.960
30546W        W94479   0.975  15.297   1.878
30547W        W94480  30.484   8.744   3.664
30548W        W94481   7.730   6.236  10.552
30549W        W94482  28.496  42.466   0.907
30550W        W94483  21.022  28.981  13.447
30551W        W94484  25.616  24.704   3.153
30552W        W94485   6.355  21.185   5.228
30553W        W94486  30.438  24.129  10.609
30554W        W94487  31.929  37.375  10.980
30555W        W94488  19.595  30.029   2.808
30556W        W94489  38.043  39.358   4.643
30557W        W94490   3.726  36.017  13.340
30558W        W94491  13.604   3.432   1.832
30559W        W94492  12.163   6.714   1.426
30560W        W94493  20.590   9.179  14.431
30561W        W94494  12.304  37.460   4.324
30562W        W94495   6.863  14.822   0.793
30563W        W94496  10.353  14.197  14.963
30564W        W94497  32.472   2.317   4.284
30565W        W94498  34.061   5.781   4.658
30566W        W94499  13.125  21.594   4.250
30567W        W94500  42.458  17.797  14.439
30568W        W94501  43.324   5.746   2.417
30569W        W94502  24.132  33.429  11.457
30570W        W94503   9.743  23.018   0.472
30571W        W94504  40.503  17.279  12.925
30572W        W94505  37.867  32.520   0.742
30573W        W94506   8.170  26.048   2.251
30574W        W94507   3.719  24.548   2.831
30575W        W94508  11.732  27.587   3.738
30576W        W94509   7.708  30.419   1.441
30577W        W94510   0.350  21.043  12.895
30578W        W94511  44.962  35.865  12.497
30579W        W94512  33.531   1.912  11.094
30580W        W94513  23.586  35.969  13.875
30581W        W94514  35.444   6.797  14.856
30582W        W94515  17.724   8.198   4.235
30583W        W94516   4.759   6.699  10.613
30584W        W94517   2.943   9.737   1.724
30585W        W94518  34.425  43.274   2.889
30586W        W94519  36.852  22.723  12.353
30587W        W94520   1.954  26.661   1.783
30588W        W94521  37.976  32.506  12.445
30589W        W94522  22.137  40.442   4.138
30590W        W94523  28.101  29.557   3.846
30591W        W94524  30.584  12.632   3.188
30592W        W94525   0.387  36.541   2.393
30593W        W94526  14.096  37.417   2.268
30594W        W94527  24.528  36.955   4.630
30595W        W94528   4.269  26.048   3.797
30596W        W94529  22.693  29.493   4.675
30597W        W94530  16.189   4.725  12.066
30598W        W94531   4.797   0.828  11.428
30599W        W94532  19.257  44.363   2.205
30600W        W94533  39.900   7.242  10.491
30601W        W94534  14.648  23.718   4.828
30602W        W94535  18.759  32.985  14.884
30603W        W94536  21.524   5.931  12.357
30604W        W94537  31.129  30.539  14.910
30605W        W94538  42.324   7.856   3.206
30606W        W94539   8.301   6.838  14.815
30607W        W94540  43.397  24.492   4.217
30608W        W94541   2.728  25.187  13.319
30609W        W94542  43.933  18.105  12.538
30610W        W94543   1.370   8.880   4.640
30611W        W94544  16.134  23.646   1.895
30612W        W94545  17.109  10.366   2.831
30613W        W94546  38.545  20.072   0.742
30614W        W94547  21.601  32.578   2.682
30615W        W94548  19.589   4.880  10.902
30616W        W94549  12.840  12.246  13.914
30617W        W94550  24.212  14.742  11.045
30618W        W94551  15.310   1.866  13.988
30619W        W94552  26.196  24.523  14.836
30620W        W94553  13.733  10.817   4.710
30621W        W94554  22.211  32.131   2.336
30622W        W94555   8.313   2.889   4.294
30623W        W94556  13.782  18.282  14.027
30624W        W94557   6.828   8.181   2.760
30625W        W94558  11.859  17.204   1.777
30626W        W94559  15.302  27.479  12.940
30627W        W94560  29.045  24.692  14.792
30628W        W94561  23.136  38.519   1.308
30629W        W94562   5.366  23.084  10.530
30630W        W94563  43.795  11.243  13.826
30631W        W94564  18.753  42.497   0.751
30632W        W94565  17.723   7.342  10.601
30633W        W94566  39.862   2.874   3.278
30634W        W94567  38.821   3.951  10.960
30635W        W94568  41.532  14.157  11.479
30636W        W94569   5.751   3.738   3.377
30637W        W94570  30.930  11.802   0.309
30638W        W94571  14.143   1.238  12.435
30639W        W94572  15.198   7.821  12.438
30640W        W94573   0.285  38.887  10.928
30641W        W94574  12.208  34.484  12.519
30642W        W94575  24.499  15.248   4.270
30643W        W94576  40.973  16.227   2.251
30644W        W94577  36.958  20.133  10.541
30645W        W94578   3.856  37.560   0.319
30646W        W94579   1.840   5.894   4.646
30647W        W94580  28.498  42.289   4.184
30648W        W94581  21.132  25.586   5.301
30649W        W94582   0.946  17.172   4.835
30650W        W94583  21.691  17.137   1.798
30651W        W94584   5.793   8.246   2.184
30652W        W94585  16.690  44.007   4.116
30653W        W94586  20.726   6.721   2.373
30654W        W94587  42.906   9.811  10.478
30655W        W94588  38.966   7.703   4.747
30656W        W94589  14.589   4.930  14.328
30657W        W94590  40.938  18.558  11.424
30658W        W94591  34.406   0.922  11.493
30659W        W94592  33.590  30.058  13.483
30660W        W94593   2.786  30.049   4.617
30661W        W94594   8.694  33.909   3.705
30662W        W94595  27.950   3.366  11.493
30663W        W94596  42.344  31.900  13.931
30664W        W94597  31.510  24.525   1.921
30665W        W94598  37.470   8.805  10.583
30666W        W94599   4.748  36.534  11.575
30667W        W94600  38.988   4.806  10.484
30668W        W94601  21.107  28.962   2.298
30669W        W94602  39.510  21.696  14.880
30670W        W94603  14.120  31.517  12.953
30671W        W94604   2.288   5.854   3.789
30672W        W94605   5.390  36.062   0.912
30673W        W94606   3.828  11.816   1.794
30674W        W94607   6.898  20.607  12.396
30675W        W94608  37.342  23.084  12.549
30676W        W94609  11.185  39.511   4.223
30677W        W94610  43.452  37.360  13.058
30678W        W94611  36.946  32.600  13.384
30679W        W94612  17.570  22.663  11.939
30680W        W94613  13.734  15.183   2.700
30681W        W94614  25.634  24.065   4.640
30682W        W94615  40.998  16.690  13.398
30683W        W94616  10.814  18.743   3.222
30684W        W94617   9.876  22.050   2.267
30685W        W94618  24.524  17.220  14.960
30686W        W94619  29.066  18.672  10.410
30687W        W94620  39.988  38.953  10.143
30688W        W94621  18.228  32.399   2.286
30689W        W94622  32.042   8.754   4.203
30690W        W94623  14.244   4.765   1.753
30691W        W94624  42.441   7.313  13.993
30692W        W94625   7.730  43.273  10.627
30693W        W94626  23.681  37.968  14.997
30694W        W94627  22.197  38.498   2.231
30695W        W94628   7.289  10.371  10.602
30696W        W94629  23.531  44.938   1.406
30697W        W94630  16.175  13.185   4.795
30698W        W94631  42.004   7.270   4.818
30699W        W94632  32.114  35.366  12.541
30700W        W94633  13.273  13.176  10.518
30701W        W94634  29.469  40.455  13.422
30702W        W94635  42.031  23.733   3.728
30703W        W94636  42.384  16.617   0.469
30704W        W94637  41.970  20.154  10.550
30705W        W94638  44.976  11.168   1.410
30706W        W94639  44.286  36.548  13.465
30707W        W94640  36.063  15.656   5.240
30708W        W94641  38.906  34.574  13.799
30709W        W94642  34.491  44.316  12.573
30710W        W94643   0.834  37.386   3.227
30711W        W94644   4.420  43.430  11.908
30712W        W94645  42.353  11.796  14.931
30713W        W94646  11.258  16.203  12.980
30714W        W94647  30.481  16.645  13.400
30715W        W94648  12.197  22.121   3.709
30716W        W94649  31.977   0.449  10.467
30717W        W94650  14.259  27.047  13.451
30718W        W94651  41.417  43.394   3.665
30719W        W94652  38.010   5.770   3.306
30720W        W94653  12.283  20.660  14.284
30721W        W94654  41.331  19.688   2.758
30722W        W94655  11.348  15.639   4.657
30723W        W94656   6.202  40.355  10.504
30724W        W94657  40.798  36.008  13.027
30725W        W94658  38.001  26.152   4.759
30726W        W94659   5.200  19.219  13.799
30727W        W94660   8.841  42.820  13.946
30728W        W94661  38.430   6.709  12.386
30729W        W94662   6.789   3.393  14.990
30730W        W94663  42.518  40.531   5.180
30731W        W94664  40.826  35.533   0.764
30732W        W94665   8.696  33.497  11.923
30733W        W94666  19.583  18.702   3.184
30734W        W94667   4.931  44.857   2.255
30735W        W94668   2.241  25.152   1.713
30736W        W94669   3.426  31.412   4.818
30737W        W94670  33.942  14.657   3.345
30738W        W94671  31.106  43.442  10.967
30739W        W94672  41.829  12.169  10.618
30740W        W94673   6.387  35.439   1.896
30741W        W94674  19.091  11.256  10.535
30742W        W94675  19.759  44.794  13.892
30743W        W94676  28.667  24.527   1.705
30744W        W94677  26.113  34.486   3.180
30745W        W94678  35.525  26.632  13.013
30746W        W94679   7.879  41.015   4.724
30747W        W94680  10.868  36.548   0.961
30748W        W94681  38.030  14.146  12.037
30749W        W94682   6.185   7.875   3.720
30750W        W94683   4.443  14.184   2.892
30751W        W94684  15.319  23.161  11.085
30752W        W94685  21.234  43.868  11.389
30753W        W94686  20.581  10.714   1.846
30754W        W94687  38.048   9.260  10.430
30755W        W94688  25.511  12.784  12.531
30756W        W94689   3.454  18.720  14.436
30757W        W94690  37.970  35.065   0.320
30758W        W94691  37.934  33.083   0.747
30759W        W94692   9.646  15.134  14.807
30760W        W94693  30.438  20.210  13.533
30761W        W94694  16.165  32.023  13.807
30762W        W94695  16.748   7.352   3.254
30763W        W94696   2.799  18.613  11.956
30764W        W94697  36.956  21.753  14.367
30765W        W94698  24.583  36.904   2.836
30766W        W94699  21.535   1.879  14.341
30767W        W94700  35.572  15.735   4.278
30768W        W94701   8.260   4.382   3.329
30769W        W94702   1.356  44.963   4.615
30770W        W94703   3.910  27.988   3.666
30771W        W94704  40.365  30.928   0.326
30772W        W94705  33.502   1.323  13.965
30773W        W94706  43.368  17.710  10.999
30774W        W94707  11.767  18.183  14.881
30775W        W94708  22.178  31.626  11.126
30776W        W94709  43.943  21.755  12.552
30777W        W94710  41.800  44.259  10.146
30778W        W94711  24.499  40.982   1.269
30779W        W94712  18.724  32.518  12.855
30780W        W94713  28.643  40.992  12.921
30781W        W94714  16.741  24.113   4.173
30782W        W94715  19.170  40.475   3.822
30783W        W94716  23.503  41.029   3.800
30784W        W94717  35.855   2.459  11.538
30785W        W94718  42.943  17.657   1.334
30786W        W94719  37.058  40.455   2.328
30787W        W94720  27.075   9.646   2.262
30788W        W94721  27.018  13.303   3.211
30789W        W94722   9.791  27.136  13.869
30790W        W94723  32.460   2.937   3.283
30791W        W94724  25.543   3.779   3.667
30792W        W94725  22.688  36.455  12.071
30793W        W94726   4.915  26.146  13.364
30794W        W94727   7.216  22.564   1.396
30795W        W94728  15.183  24.031  13.418
30796W        W94729   6.706   2.397   5.792
30797W        W94730  32.412  27.991  10.425
30798W        W94731   9.745  26.044  12.887
30799W        W94732  38.974  25.539   3.216
30800W        W94733  25.673  20.237  12.057
30801W        W94734   2.276  34.488  14.797
30802W        W94735  10.170  24.570   5.211
30803W        W94736  23.167  19.175  12.560
30804W        W94737  43.995   4.364   3.222
30805W        W94738  43.879  13.769  10.958
30806W        W94739  37.958   3.302  11.432
30807W        W94740  41.928  21.061   5.170
30808W        W94741  29.154  39.875   1.702
30809W        W94742  34.397  35.915  11.881
30810W        W94743  24.230  35.397  12.095
30811W        W94744  33.472  36.422  12.013
30812W        W94745  11.172   3.399   0.266
30813W        W94746  44.782  19.603   2.301
30814W        W94747  14.177   7.826  13.800
30815W        W94748  10.758  10.823   0.887
30816W        W94749   6.707   3.380   2.279
30817W        W94750  16.782   5.415   3.323
30818W        W94751  38.865  25.656   4.270
30819W        W94752  43.820  38.378   3.706
30820W        W94753  30.004  40.978  14.481
30821W        W94754  31.521   3.731   2.857
30822W        W94755   2.740   8.706  11.114
30823W        W94756  35.930  35.862   4.223
30824W        W94757  12.835   6.423   1.330
30825W        W94758  38.068  31.512  12.059
30826W        W94759   4.407  42.924   0.812
30827W        W94760   6.909  35.956  10.640
30828W        W94761  41.924  38.948  12.436
30829W        W94762  38.048  37.345   3.662
30830W        W94763  35.589  17.212  11.941
30831W        W94764  21.017   4.863  13.433
30832W        W94765  16.698  27.685   1.908
30833W        W94766   1.462  39.376   3.241
30834W        W94767  25.633  22.592   5.136
30835W        W94768   7.778  42.326   0.449
30836W        W94769  39.511  43.860  11.474
30837W        W94770  24.530  23.129   0.747
30838W        W94771  37.875  21.648  12.471
30839W        W94772   2.231  39.855   0.378
30840W        W94773  40.832  36.361  10.477
30841W        W94774   9.684  32.412  12.407
30842W        W94775  24.505  18.609   4.745
30843W        W94776  25.094  30.003   4.727
30844W        W94777  13.820  31.007  14.442
30845W        W94778  11.282  30.132   1.372
30846W        W94779  21.085  30.155   4.126
30847W        W94780   2.454  13.225   3.789
30848W        W94781  17.606   7.809  13.436
30849W        W94782   4.795   5.751  13.965
30850W        W94783  35.408  33.052  14.833
30851W        W94784   3.261  16.586   2.333
30852W        W94785   8.718   1.924   2.851
30853W        W94786   9.753   1.318   4.686
30854W        W94787  24.034   2.257   0.472
30855W        W94788  34.509  15.186  10.477
30856W        W94789  29.994   3.920  13.825
30857W        W94790  12.720  44.422   3.790
30858W        W94791  21.191   0.455   3.826
30859W        W94792  42.904  39.532  13.497
30860W        W94793  17.753  21.733   4.608
30861W        W94794   7.295  31.015  11.921
30862W        W94795  25.101  27.652   2.256
30863W        W94796  39.554   0.430  12.574
30864W        W94797  22.038  12.814   2.197
30865W        W94798  37.986  13.766  14.011
30866W        W94799  39.923  31.611  10.456
30867W        W94800  15.296  11.727  12.514
30868W        W94801  25.703  28.588   4.827
30869W        W94802  38.451   5.321  13.973
30870W        W94803   6.777  20.758   3.262
30871W        W94804  28.509  24.134   4.228
30872W        W94805  36.084  21.625   3.351
30873W        W94806   5.309  20.595  14.329
30874W        W94807  11.863  27.614   3.179
30875W        W94808  22.546  25.029  10.573
30876W        W94809  17.591   0.810   1.232
30877W        W94810  23.203  12.833  13.009
30878W        W94811  25.082  44.762  10.077
30879W        W94812  22.706  35.031   0.338
30880W        W94813   1.803  15.729  10.092
30881W        W94814   5.759  17.089  10.518
30882W        W94815  27.564  31.902   1.435
30883W        W94816  21.204  43.824   3.251
30884W        W94817  15.139  32.627   0.881
30885W        W94818  24.990  13.626   0.923
30886W        W94819   3.220  30.630  13.403
30887W        W94820  25.987  38.325   2.798
30888W        W94821  19.200  14.260   0.254
30889W        W94822  32.993  21.757   2.279
30890W        W94823  14.109  29.496   3.180
30891W        W94824   5.364  28.480   4.231
30892W        W94825  20.752   4.258  13.544
30893W        W94826  29.660   3.337   5.144
30894W        W94827   7.235  27.951  14.915
30895W        W94828   9.779   1.297   3.270
30896W        W94829  19.094  29.567   2.703
30897W        W94830  32.959  13.813  10.913
30898W        W94831  42.869  28.054  10.888
30899W        W94832  21.250  44.434   2.662
30900W        W94833  16.713  20.169   0.940
30901W        W94834   2.791  39.029   2.847
30902W        W94835  36.883  10.795   4.255
30903W        W94836  37.473  17.778   2.880
30904W        W94837  39.331  29.479  14.860
30905W        W94838  20.683  21.620  10.466
30906W        W94839  30.540  30.646   4.243
30907W        W94840  36.063  41.462   4.707
30908W        W94841  39.320  30.622   4.236
30909W        W94842  44.471  20.267   1.703
30910W        W94843  33.011  26.118  13.546
30911W        W94844  43.882  39.032  10.997
30912W        W94845  26.133  43.357   4.147
30913W        W94846  24.185   0.825  13.807
30914W        W94847  21.638  27.648   0.939
30915W        W94848   1.308  11.850  13.033
30916W        W94849  22.009  20.561  13.895
30917W        W94850  29.633   9.836   2.294
30918W        W94851   1.816   0.365  11.124
30919W        W94852  43.486  28.954  12.480
30920W        W94853   0.416  25.155  11.902
30921W        W94854  29.166  29.667   2.758
30922W        W94855   9.754  10.677  14.441
30923W        W94856  35.541  36.020  13.495
30924W        W94857  18.229  40.423   0.902
30925W        W94858  18.622  43.345  13.989
30926W        W94859  39.872  26.133  12.066
30927W        W94860  26.671  11.865  10.070
30928W        W94861  10.257  43.903   2.238
30929W        W94862  28.176  26.061   1.846
30930W        W94863  35.922  36.992  13.375
30931W        W94864  24.683  39.894  12.899
30932W        W94865  11.144   4.208  10.540
30933W        W94866  13.785  24.510  12.017
30934W        W94867  10.274  21.589  13.497
30935W        W94868  24.509  39.902   0.352
30936W        W94869  33.009  38.532   0.330
30937W        W94870  14.266   9.766   2.216
30938W        W94871  10.334  26.700   1.838
30939W        W94872  11.754  20.766  11.572
30940W        W94873   1.862  27.636   2.375
30941W        W94874  20.617  10.684   1.252
30942W        W94875  37.341  19.186  14.306
30943W        W94876  19.205   4.366   1.878
30944W        W94877  25.101  20.537  11.882
30945W        W94878  39.883  30.066   3.858
30946W        W94879  20.171  42.910  12.936
30947W        W94880   7.391  26.574  10.955
30948W        W94881  23.198  34.875  13.387
30949W        W94882  27.519  39.988  12.421
30950W        W94883  31.046   5.376  12.921
30951W        W94884  42.890  32.052  13.449
30952W        W94885  24.130  21.587  14.965
30953W        W94886  38.499   6.776   4.790
30954W        W94887   7.738  34.410   1.364
30955W        W94888  44.447   7.843  10.893
30956W        W94889   0.459  37.868  11.939
30957W        W94890  37.854  27.673   2.805
30958W        W94891   0.823   7.893  14.933
30959W        W94892  41.022  19.172  12.465
30960W        W94893  24.979  40.419  11.437
30961W        W94894  27.481  40.922  13.328
30962W        W94895  19.274   7.880  13.976
30963W        W94896  20.590  29.104  11.577
30964W        W94897  27.685  24.568  13.532
30965W        W94898  18.186  24.713  11.910
30966W        W94899   7.795  16.809  13.929
30967W        W94900  38.027  28.184   3.808
30968W        W94901  25.205  36.891  11.091
30969W        W94902  38.571  25.524   3.184
30970W        W94903  23.014  17.151   1.332
30971W        W94904   8.220  33.961   1.891
30972W        W94905  28.023  20.531  14.861
30973W        W94906   7.683  42.803   0.737
30974W        W94907   0.405  44.489   4.315
30975W        W94908  35.482  28.613   1.852
30976W        W94909  28.993  22.553  11.516
30977W        W94910  26.119  35.604  14.336
30978W        W94911  11.185  22.200  13.500
30979W        W94912  20.066  24.116  11.905
30980W        W94913   5.859  31.550   0.796
30981W        W94914   4.318  19.176   2.760
30982W        W94915   0.930  38.506   3.722
30983W        W94916  41.948  36.473  14.314
30984W        W94917  38.980  29.090  14.316
30985W        W94918  15.677  37.996  11.397
30986W        W94919  19.771  42.932  13.537
30987W        W94920  23.553  33.442   2.309
30988W        W94921  26.541  38.546  10.145
30989W        W94922  17.740  10.145   2.257
30990W        W94923  12.167   4.905   2.316
30991W        W94924  16.575  19.588  12.380
30992W        W94925  28.664  34.046  14.999
30993W        W94926  28.943  34.507   0.902
30994W        W94927  37.464  28.091  12.894
30995W        W94928   5.725  24.218   0.245
30996W        W94929   9.835  34.104  12.489
30997W        W94930  27.100  35.579   3.649
30998W        W94931  30.515  43.922   3.684
30999W        W94932  28.520  31.963   3.867
31000W        W94933  15.656  15.762  10.638
31001W        W94934  29.072  38.859  14.020
31002W        W94935  20.626   4.300   4.713
31003W        W94936  41.317  36.924  12.950
31004W        W94937  39.926   4.236  12.991
31005W        W94938  12.749   9.877  12.079
31006W        W94939   5.731  28.469  12.900
31007W        W94940   1.307  21.025   1.848
31008W        W94941  40.984  38.967   4.736
31009W        W94942  41.296  24.515   1.419
31010W        W94943  16.743  39.510   0.361
31011W        W94944  37.894  42.334   1.856
31012W        W94945   4.793   5.301  13.044
31013W        W94946  37.864   7.203  12.374
31014W        W94947  42.860  14.136   0.310
31015W        W94948  11.134  40.863  12.864
31016W        W94949  15.314  28.143  11.890
31017W        W94950  41.936  35.570   4.288
31018W        W94951  39.853   6.870  10.628
31019W        W94952  12.155   4.317   3.638
31020W        W94953  30.978  25.047  12.406
31021W        W94954  44.324  16.768  14.028
31022W        W94955  30.477  15.250  14.460
31023W        W94956  10.188  32.429   3.639
31024W        W94957  39.030  12.817  10.044
31025W        W94958  16.190   4.777   0.296
31026W        W94959  11.181  12.176  11.426
31027W        W94960   5.758   0.948  11.040
31028W        W94961  19.216  38.840   2.808
31029W        W94962  35.517  28.110  14.416
31030W        W94963  41.865  14.592   0.427
31031W        W94964   5.424  16.725  13.487
31032W        W94965  36.949  13.687  10.939
31033W        W94966  39.066  31.017  13.025
31034W        W94967   9.658  15.263   3.161
31035W        W94968  29.146  14.701  11.931
31036W        W94969  35.471  26.074   3.656
31037W        W94970  40.547   0.346   4.703
31038W        W94971  33.934  32.126   1.316
31039W        W94972  21.610  13.115   1.769
31040W        W94973  30.948  19.754  13.885
31041W        W94974  28.182  15.742  10.525
31042W        W94975  43.766   6.879   2.298
31043W        W94976  40.484  28.936  14.928
31044W        W94977  41.421  39.841   4.151
31045W        W94978  12.735  43.877  14.812
31046W        W94979  34.877  30.514   1.694
31047W        W94980  14.652   1.801   2.271
31048W        W94981  36.533  37.984   0.753
31049W        W94982  24.615  31.081  10.597
31050W        W94983  32.634  28.484  13.850
31051W        W94984  40.459  11.191  10.987
31052W        W94985  18.049   5.312  13.489
31053W        W94986   8.249  10.785  13.038
31054W        W94987  15.100  41.433   0.918
31055W        W94988  30.985   4.204  11.407
31056W        W94989  29.655  41.345   5.099
31057W        W94990  26.582  36.073   3.752
31058W        W94991  41.386  42.822   4.189
31059W        W94992  30.018  30.094  12.951
31060W        W94993  42.999  19.568   0.928
31061W        W94994  30.444  20.222  11.109
31062W        W94995  18.227  27.984  11.604
31063W        W94996   2.229  43.825   3.688
31064W        W94997   5.877  33.014  10.960
31065W        W94998  39.495  16.811   4.237
31066W        W94999  28.167   8.736  14.501
31067W        W95000  30.051  33.408  12.351
31068W        W95001  11.818  18.151  12.488
31069W        W95002  16.260  29.491   2.794
31070W        W95003   6.819   2.231   1.338
31071W        W95004   4.760  42.897  10.519
31072W        W95005  36.008  26.038   4.183
31073W        W95006  12.191   3.724   4.618
31074W        W95007  42.503  26.957   4.118
31075W        W95008   0.366  36.550  12.928
31076W        W95009  37.039   0.351  10.593
31077W        W95010   4.749  11.761   4.135
31078W        W95011  42.842  36.513  11.113
31079W        W95012  21.684   3.354  10.941
31080W        W95013  10.639   8.349  12.510
31081W        W95014  37.843  22.109   0.813
31082W        W95015  18.146  19.744   3.319
31083W        W95016  30.958   2.800  13.379
31084W        W95017  29.590  21.621   0.459
31085W        W95018  36.979  22.086   4.296
31086W        W95019  22.201  39.867   4.669
31087W        W95020   7.794  18.574   3.220
31088W        W95021  17.102  10.170  14.958
31089W        W95022  12.665  44.304  13.016
31090W        W95023  14.810  37.875  14.494
31091W        W95024   2.318   3.399   4.638
31092W        W95025  17.778  42.521  10.567
31093W        W95026   8.195  12.769  14.031
31094W        W95027  29.021  16.185   3.789
31095W        W95028   6.306   6.267   5.086
31096W        W95029  10.651  26.194  11.463
31097W        W95030  30.127   0.470  13.064
31098W        W95031  43.014   6.731   2.826
31099W        W95032  41.853   4.811  12.989
31100W        W95033  38.341  35.024  13.851
31101W        W95034   1.402  42.464  10.628
31102W        W95035  31.530  29.030   3.775
31103W        W95036  38.065   4.233  13.880
31104W        W95037   6.308  29.153  12.536
31105W        W95038  35.072   8.399  12.537
31106W        W95039  40.496  17.661   3.219
31107W        W95040  27.533  39.010   0.921
31108W        W95041  31.113  29.651   3.342
31109W        W95042  23.566  10.150  13.502
31110W        W95043  10.680  22.619   1.424
31111W        W95044  27.049  26.983   1.303
31112W        W95045  16.640  43.020  11.859
31113W        W95046  13.609   7.676   4.307
31114W        W95047  18.149  30.143   0.363
31115W        W95048  30.046  31.646  10.914
31116W        W95049  36.872  25.042  13.897
31117W        W95050  13.710  25.126   0.408
31118W        W95051  31.626   8.333  12.038
31119W        W95052  40.321  13.743  12.485
31120W        W95053   9.388  18.163  10.942
31121W        W95054  12.693   3.228  12.480
31122W        W95055   0.804  30.062  12.864
31123W        W95056  24.597  10.687   3.840
31124W        W95057  15.116  44.913  11.881
31125W        W95058  39.341  13.768  14.361
31126W        W95059  30.153   4.426   2.892
31127W        W95060  30.063   5.208  12.364
31128W        W95061  38.946  39.001  14.016
31129W        W95062  34.042  13.227   0.476
31130W        W95063  40.007  37.895   4.333
31131W        W95064  11.678   6.699  14.432
31132W        W95065  22.194  15.584   0.279
31133W        W95066   5.773   0.272   4.812
31134W        W95067  42.478  42.986   2.181
31135W        W95068  21.210  38.489   2.741
31136W        W95069   6.716  40.363  10.936
31137W        W95070  20.720  27.094  13.464
31138W        W95071   6.912  24.720   2.255
31139W        W95072  18.141  31.613   3.365
31140W        W95073  41.007  38.013   0.320
31141W        W95074  29.117  29.985   2.209
31142W        W95075  34.528   8.326  14.320
31143W        W95076   0.380  33.098  14.274
31144W        W95077  22.092  11.136  14.876
31145W        W95078  33.922  21.720   1.292
31146W        W95079   6.239   7.766   0.928
31147W        W95080   0.943  17.233  11.013
31148W        W95081   1.829  27.578   4.803
31149W        W95082  40.418   6.809  14.360
31150W        W95083  16.621  20.701   1.765
31151W        W95084  16.735  43.774  12.404
31152W        W95085  35.898  16.219  10.411
31153W        W95086  40.958  33.401   2.404
31154W        W95087   0.753   2.355   2.411
31155W        W95088  14.153  31.635  13.489
31156W        W95089   5.258  20.524  10.542
31157W        W95090  24.029  38.937  13.414
31158W        W95091  18.635  32.394   4.207
31159W        W95092   9.731  17.739   4.235
31160W        W95093  28.059  13.819   3.348
31161W        W95094  35.031  31.509  10.546
31162W        W95095  43.479  30.611  13.954
31163W        W95096  17.169  41.786   3.351
31164W        W95097  36.922  12.830  14.885
31165W        W95098   4.817  39.936   3.284
31166W        W95099  42.362   6.213   4.645
31167W        W95100  34.470   5.218  12.083
31168W        W95101  30.112  36.883  13.997
31169W        W95102  42.424   7.318   3.719
31170W        W95103  11.292   5.842   4.214
31171W        W95104  24.694  26.995   0.455
31172W        W95105  21.609  30.935   0.278
31173W        W95106   8.243   6.190  13.422
31174W        W95107   9.696  40.438  10.461
31175W        W95108  35.504   9.820  12.515
31176W        W95109  25.000  23.201   4.816
31177W        W95110  15.735  32.627   3.234
31178W        W95111  10.755  17.301  13.056
31179W        W95112  12.762   0.806  10.512
31180W        W95113  34.569   3.722   4.321
31181W        W95114  39.840   1.387   0.429
31182W        W95115  29.116  37.569   2.769
31183W        W95116  30.627  28.123  11.414
31184W        W95117  30.615  25.589  14.332
31185W        W95118  43.430  38.513   0.349
31186W        W95119  43.340  39.426   9.520
31187W        W95120  13.609  42.515  12.437
31188W        W95121  29.425  39.515   3.149
31189W        W95122  18.642  39.063  13.544
31190W        W95123   7.732  35.974  14.280
31191W        W95124  23.492  16.268   3.707
31192W        W95125  10.823   0.439   2.323
31193W        W95126  20.630   6.899  13.027
31194W        W95127  18.211  35.031   1.450
31195W        W95128  16.737  26.962   3.769
31196W        W95129  10.804   4.887   4.736
31197W        W95130  33.507  13.702   0.461
31198W        W95131  11.254   8.784  12.393
31199W        W95132  27.679  17.073   3.849
31200W        W95133   4.214  10.815   4.283
31201W        W95134  29.010  33.085   1.314
31202W        W95135  23.629  12.696   0.268
31203W        W95136  40.381   1.459   0.797
31204W        W95137  22.196  14.640   1.353
31205W        W95138  21.529  10.822   0.398
31206W        W95139   2.256  40.382  11.927
31207W        W95140   0.886  15.695  10.489
31208W        W95141  21.087  19.167   3.286
31209W        W95142  14.733  11.856   0.820
31210W        W95143  25.513  14.757  10.892
31211W        W95144  10.745  13.111  13.000
31212W        W95145  22.054   1.377  12.894
31213W        W95146  13.115  36.592  13.544
31214W        W95147  16.311  41.975   1.843
31215W        W95148   9.302  11.361   3.334
31216W        W95149  41.957  34.473   0.734
31217W        W95150  44.972  19.194  14.286
31218W        W95151   6.693   6.235  11.591
31219W        W95152  44.413  40.419   1.866
31220W        W95153   1.297  43.459   0.748
31221W        W95154  16.731  34.872  13.926
31222W        W95155  12.722  31.034   4.255
31223W        W95156  39.367  13.681  10.910
31224W        W95157  20.235   4.774   1.739
31225W        W95158  14.291  28.553  14.434
31226W        W95159  41.827  38.915   2.804
31227W        W95160  22.174   9.357  10.524
31228W        W95161  42.027   1.473   4.281
31229W        W95162   4.717   5.785  13.470
31230W        W95163  14.186   4.236   2.858
31231W        W95164  30.531  42.459   2.699
31232W        W95165  27.964  26.156   0.878
31233W        W95166   0.281  38.908  14.375
31234W        W95167  40.798  10.248  10.640
31235W        W95168  33.576  37.407   5.232
31236W        W95169   8.790  30.953   0.792
31237W        W95170   6.735  40.015  10.580
31238W        W95171   1.851  24.154  11.866
31239W        W95172  43.397  34.103   4.601
31240W        W95173  41.361   8.177  11.865
31241W        W95174   9.701  33.892   2.290
31242W        W95175  35.958  24.680   4.712
31243W        W95176  19.058  29.530   4.171
31244W        W95177  36.897  20.141   0.401
31245W        W95178  25.015  38.020  13.041
31246W        W95179  25.998  12.203   1.408
31247W        W95180  17.779  33.548   3.799
31248W        W95181   7.694  37.010   2.205
31249W        W95182  35.990  31.531   2.786
31250W        W95183  44.755   5.885  14.376
31251W        W95184   2.447  28.113   4.319
31252W        W95185  41.994  32.998   4.188
31253W        W95186  37.483  12.772  12.057
31254W        W95187  10.210  27.962   3.323
31255W        W95188  23.067  10.818   4.278
31256W        W95189  18.063  35.393   0.351
31257W        W95190  18.190  25.158  12.969
31258W        W95191   5.728   4.231   3.300
31259W        W95192  40.426  21.184   2.783
31260W        W95193   2.809  39.992   4.263
31261W        W95194  35.457  11.833   3.341
31262W        W95195  21.672   6.219  10.485
31263W        W95196   1.321  44.950  12.018
31264W        W95197  31.590  20.117  13.049
31265W        W95198  20.170   8.834   1.920
31266W        W95199  25.615  19.549   2.357
31267W        W95200  40.002  44.873  12.516
31268W        W95201   4.855  22.210   2.266
31269W        W95202  29.649   1.772  11.496
31270W        W95203   2.374   8.195   0.836
31271W        W95204   5.919  22.171  11.958
31272W        W95205   4.361  18.759   3.774
31273W        W95206  38.438  15.133   4.124
31274W        W95207  43.428   5.267   0.874
31275W        W95208  29.456  14.824   3.214
31276W        W95209  34.584  31.551  12.413
31277W        W95210  10.661  38.070  14.954
31278W        W95211  34.864  14.177   5.271
31279W        W95212  42.439  38.996   4.689
31280W        W95213  32.558  11.267   0.918
31281W        W95214  23.611  13.763   5.181
31282W        W95215  32.495  14.265  14.938
31283W        W95216  16.617  20.124  13.389
31284W        W95217  43.802  21.156   0.761
31285W        W95218  27.635  10.180  11.065
31286W        W95219   2.952  21.575  12.014
31287W        W95220  39.956  27.007  13.371
31288W        W95221  37.857  35.404   0.790
31289W        W95222   0.480  10.699  12.990
31290W        W95223  10.810  36.363  13.493
31291W        W95224  43.453  18.155  14.362
31292W        W95225  18.108  21.599   1.314
31293W        W95226  31.946  19.656  12.993
31294W        W95227  41.848  20.690  11.963
31295W        W95228  17.623  28.961   2.219
31296W        W95229  36.028  28.048   0.356
31297W        W95230  17.638  43.873   3.250
31298W        W95231   9.378   6.334  11.012
31299W        W95232  31.047  16.684  10.542
31300W        W95233   4.234  25.185  13.004
31301W        W95234  41.837   8.258   0.864
31302W        W95235   5.791   0.416  11.894
31303W        W95236   8.257  40.329   4.768
31304W        W95237  11.315   6.907   1.284
31305W        W95238  28.967   3.457   1.807
31306W        W95239   8.209  35.966   2.337
31307W        W95240   9.290  13.620  13.948
31308W        W95241  15.287  42.477  12.444
31309W        W95242  37.077   5.693   3.345
31310W        W95243   2.800  37.537  13.965
31311W        W95244  12.131  13.616   0.417
31312W        W95245  11.671  30.948  10.632
31313W        W95246  18.732  33.554  13.410
31314W        W95247  34.088  36.973   0.876
31315W        W95248  18.200  28.159  13.341
31316W        W95249  30.103  41.937  13.457
31317W        W95250  42.796  32.906   0.312
31318W        W95251  14.634  44.459  13.976
31319W        W95252   2.464  44.753  10.634
31320W        W95253  32.987  18.741  14.499
31321W        W95254  16.143  27.141  14.986
31322W        W95255  10.305   2.813   0.418
31323W        W95256  23.101  11.273   1.451
31324W        W95257  10.838  39.539  11.508
31325W        W95258  34.971  23.224  11.075
31326W        W95259   7.371  44.463  14.346
31327W        W95260  43.351  14.622   3.257
31328W        W95261  29.563  26.676   3.184
31329W        W95262  37.927   1.236  10.523
31330W        W95263   6.263  24.574  13.008
31331W        W95264   5.866  41.042  11.109
31332W        W95265  43.980  41.304  10.538
31333W        W95266  29.101  37.510  11.926
31334W        W95267  43.281  15.234   4.242
31335W        W95268  32.949  16.094  14.441
31336W        W95269  32.552   9.352   4.141
31337W        W95270  38.855   3.845   1.416
31338W        W95271   3.388  19.592  10.485
31339W        W95272   0.384  37.927   5.619
31340W        W95273  29.978  37.046  13.352
31341W        W95274  35.053  15.695   0.819
31342W        W95275  41.835  35.947  11.080
31343W        W95276  25.668   4.206   3.633
31344W        W95277  17.101   4.798   9.995
31345W        W95278  11.745  24.634   2.761
31346W        W95279  39.383  19.092  13.012
31347W        W95280  26.665  31.046  14.985
31348W        W95281   3.926  30.154  12.927
31349W        W95282  19.044  31.926   3.658
31350W        W95283   7.399  22.999   0.258
31351W        W95284  20.700   1.836   2.714
31352W        W95285  28.671  11.672  10.424
31353W        W95286   5.900  13.810  13.547
31354W        W95287   3.863   9.651  10.442
31355W        W95288  38.987  28.141   2.889
31356W        W95289  14.324   3.755   1.301
31357W        W95290  40.968  25.180  11.060
31358W        W95291  33.093  12.776   2.766
31359W        W95292  25.566  20.708   1.760
31360W        W95293  11.159  19.649   4.834
31361W        W95294  27.592  11.732  13.490
31362W        W95295   9.783  31.948  14.306
31363W        W95296  17.259   9.738   1.331
31364W        W95297  13.599  42.830   3.233
31365W        W95298  11.857  29.978   4.640
31366W        W95299   1.356   6.916   3.850
31367W        W95300  17.297   8.746  13.796
31368W        W95301  33.459  18.707  12.461
31369W        W95302  41.906  41.026  10.602
31370W        W95303  19.569  13.757   3.655
31371W        W95304  41.802  20.194   4.136
31372W        W95305   0.757  44.342   4.638
31373W        W95306  41.981  27.965   3.274
31374W        W95307  29.627  16.747   3.865
31375W        W95308  39.964  29.981   0.768
31376W        W95309  42.800  44.450  13.052
31377W        W95310  26.951  25.031   3.258
31378W        W95311  30.609   1.473   4.186
31379W        W95312  10.863  29.134   5.214
31380W        W95313  36.849  29.034  13.045
31381W        W95314  10.237  32.469  10.054
31382W        W95315   9.871   6.378  12.044
31383W        W95316   0.881  15.767  11.120
31384W        W95317   9.199  42.992   4.611
31385W        W95318   9.770  28.073  13.987
31386W        W95319  32.993  27.194   3.186
31387W        W95320  12.797  25.660  10.431
31388W        W95321  35.902   3.373   2.378
31389W        W95322  42.820   7.697   0.853
31390W        W95323  35.527  38.999   0.341
31391W        W95324  23.031  34.498  12.506
31392W        W95325   0.258  34.494   3.221
31393W        W95326  25.010  11.637  12.048
31394W        W95327   6.226  25.072   2.778
31395W        W95328  13.304   4.927  10.995
31396W        W95329  15.263   5.897  13.500
31397W        W95330   3.269  19.131   1.857
31398W        W95331   7.211  16.138  11.558
31399W        W95332   0.344  28.123   4.192
31400W        W95333  17.075  26.527  11.492
31401W        W95334   6.199  15.675   4.270
31402W        W95335  42.509  18.163  13.490
31403W        W95336  14.122  11.351   3.774
31404W        W95337  14.095   8.773   4.128
31405W        W95338  41.849  23.141   1.702
31406W        W95339  10.200  20.136   1.837
31407W        W95340  16.738  28.607  14.407
31408W        W95341  11.244  22.583  13.023
31409W        W95342  44.487  35.035   1.405
31410W        W95343  32.541  26.467   4.733
31411W        W95344   2.766  44.478   1.280
31412W        W95345  32.133   3.809  12.352
31413W        W95346  36.379  42.901   2.223
31414W        W95347  42.942  43.467   4.810
31415W        W95348  26.592  21.255  10.994
31416W        W95349  33.511  32.006   0.891
31417W        W95350  15.178  41.975   4.319
31418W        W95351  25.154  13.609  13.481
31419W        W95352  44.336  15.653  11.500
31420W        W95353  16.149  31.543   1.311
31421W        W95354   8.223  28.679   1.698
31422W        W95355   6.378  23.543  12.550
31423W        W95356  20.658  23.689   1.219
31424W        W95357  25.181  39.333   0.463
31425W        W95358  17.174   6.400  14.872
31426W        W95359   4.301   5.307  12.051
31427W        W95360  27.967  26.528  10.625
31428W        W95361  21.614   6.850  11.536
31429W        W95362  36.497  34.584  11.010
31430W        W95363  20.534   8.380   0.461
31431W        W95364  14.308  16.300   2.376
31432W        W95365  32.122  31.911  11.938
31433W        W95366  13.163  38.384  12.368
31434W        W95367  37.578  29.029  14.421
31435W        W95368  38.001  31.416   3.171
31436W        W95369  15.620  11.856  13.436
31437W        W95370  36.870  25.687  12.452
31438W        W95371  11.732  29.443  10.980
31439W        W95372  31.412  42.009   1.390
31440W        W95373  44.337   0.258   4.809
31441W        W95374   8.214  20.108  13.954
31442W        W95375  32.029  20.042  12.971
31443W        W95376   9.689  13.775   4.347
31444W        W95377  42.888  37.906   1.269
31445W        W95378  34.060   8.349  12.999
31446W        W95379  39.554   4.823   9.946
31447W        W95380   4.906  41.863  10.931
31448W        W95381  38.843  35.106   3.281
31449W        W95382  36.585  34.596   4.173
31450W        W95383  13.802  28.460   4.694
31451W        W95384  44.917  38.929  11.900
31452W        W95385  10.789   4.248  14.769
31453W        W95386  14.118  15.621  12.027
31454W        W95387  37.857  10.208   4.291
31455W        W95388  12.227  34.923   1.316
31456W        W95389  31.443   2.231  12.850
31457W        W95390  27.940  39.486  12.053
31458W        W95391  37.083   0.973  11.404
31459W        W95392  31.990   2.420  11.035
31460W        W95393   5.436  13.348   2.880
31461W        W95394  29.020   5.908  11.116
31462W        W95395  44.815  10.749  10.497
31463W        W95396  36.469  14.108  10.544
31464W        W95397   4.352  43.435  11.088
31465W        W95398  37.496  13.292   4.284
31466W        W95399  21.052  43.971   1.753
31467W        W95400  38.970  38.337   2.850
31468W        W95401  37.992  16.577  14.798
31469W        W95402  22.613   5.879  10.917
31470W        W95403  20.635  33.883  13.049
31471W        W95404  15.634  42.514   2.867
31472W        W95405  20.552  32.514   3.220
31473W        W95406  12.759  20.218  12.388
31474W        W95407  35.492  16.593   0.919
31475W        W95408  44.795  42.352  13.064
31476W        W95409  37.940  35.979  11.508
31477W        W95410  28.516  29.167  13.464
31478W        W95411  44.965   0.294  11.531
31479W        W95412  13.716  20.081   1.695
31480W        W95413  26.632  40.342   4.604
31481W        W95414  11.174  26.103   1.274
31482W        W95415  24.590  25.166  12.956
31483W        W95416  23.664  28.665  13.866
31484W        W95417  41.890  14.301  12.038
31485W        W95418  16.640  41.524  13.897
31486W        W95419  35.462  36.019   1.805
31487W        W95420  35.945  20.527   4.144
31488W        W95421  38.331  20.176   2.409
31489W        W95422  20.644  10.229   3.825
31490W        W95423  34.121   9.812   2.887
31491W        W95424   9.285  21.715   3.340
31492W        W95425  34.593  14.783   2.299
31493W        W95426  18.280  26.053   0.243
31494W        W95427  12.241  41.296   2.821
31495W        W95428  42.303  20.031   1.791
31496W        W95429  38.991  41.793   0.458
31497W        W95430  38.937  41.887  13.820
31498W        W95431  21.621  30.018   4.741
31499W        W95432  18.733  41.016   1.291
31500W        W95433  41.816  30.943   0.888
31501W        W95434  34.373  27.995   1.306
31502W        W95435   8.206   8.684  12.058
31503W        W95436  36.408  42.420  14.492
31504W        W95437  13.604  28.515  13.867
31505W        W95438  25.524  28.495  13.977
31506W        W95439  19.222   4.922  11.546
31507W        W95440  22.178  20.202   0.433
31508W        W95441   2.378   2.450  14.500
31509W        W95442  35.059  25.049  11.491
31510W        W95443  17.651  27.125  14.911
31511W        W95444  28.078   6.338  10.628
31512W        W95445  34.598  28.133  11.441
31513W        W95446   1.275   2.428   1.711
31514W        W95447  16.240  40.819   3.736
31515W        W95448  28.969  44.773   5.222
31516W        W95449   6.877  36.862  12.534
31517W        W95450  36.002  36.534  11.101
31518W        W95451  42.512  26.618  12.937
31519W        W95452  16.707  32.533  14.888
31520W        W95453  10.662   4.941   1.736
31521W        W95454  24.500  29.931   1.370
31522W        W95455  13.294   1.732   2.734
31523W        W95456  20.181  29.616  11.378
31524W        W95457  44.941   5.837   4.616
31525W        W95458  38.967  23.139  12.417
31526W        W95459   4.225  25.174  12.022
31527W        W95460  11.662  17.088  12.046
31528W        W95461   0.314  26.635  14.933
31529W        W95462  24.663  22.568  11.998
31530W        W95463  18.547  21.722  11.384
31531W        W95464  12.699  38.443   1.272
31532W        W95465  23.004   4.767   4.237
31533W        W95466  22.543  21.214   9.949
31534W        W95467  30.058  16.709   0.878
31535W        W95468  34.614  44.754   4.598
31536W        W95469  26.462  39.342  14.963
31537W        W95470  41.520  30.157  12.512
31538W        W95471  20.271   2.302  12.982
31539W        W95472  10.208  22.659  11.028
31540W        W95473  34.024   9.234   2.206
31541W        W95474  42.467  10.870  12.567
31542W        W95475   2.803  42.462   0.454
31543W        W95476  44.501  22.225  11.895
31544W        W95477  30.592  12.328   0.271
31545W        W95478  29.947  29.567   0.432
31546W        W95479  12.657  42.894  10.944
31547W        W95480   8.679  42.985  13.438
31548W        W95481  29.130   5.439  12.430
31549W        W95482  19.546  11.730   1.237
31550W        W95483   3.360  37.993   0.333
31551W        W95484  34.887  37.359   9.964
31552W        W95485  30.585  39.913  13.064
31553W        W95486   4.344   4.283   4.334
31554W        W95487  16.214   7.301   0.782
31555W        W95488   9.807  44.984  14.382
31556W        W95489   7.307  42.307  14.776
31557W        W95490  43.830  38.351  11.061
31558W        W95491   4.299   8.854   1.394
31559W        W95492  14.603  29.573   0.256
31560W        W95493  26.034  40.392  14.397
31561W        W95494  14.763  33.924  12.561
31562W        W95495  40.036  30.933   0.271
31563W        W95496  23.640  23.178  10.536
31564W        W95497  37.568  42.803  13.500
31565W        W95498  14.789  26.459   9.940
31566W        W95499   4.907  44.339  11.476
31567W        W95500  21.622   7.214  12.412
31568W        W95501  10.162  13.149  11.590
31569W        W95502  32.448   3.328  12.057
31570W        W95503   3.778   0.879  13.922
31571W        W95504  33.589  17.648   1.809
31572W        W95505   1.433   2.932   2.807
31573W        W95506  10.681  39.533  13.448
31574W        W95507  33.020  11.150   2.810
31575W        W95508   0.986  24.503  12.838
31576W        W95509  11.689  33.952  13.937
31577W        W95510  39.366  23.716   2.777
31578W        W95511   8.254  15.256   4.205
31579W        W95512  44.422  15.715  14.861
31580W        W95513  10.655  20.693  14.030
31581W        W95514  42.434  33.385   2.268
31582W        W95515  20.552   3.331  13.444
31583W        W95516  21.113  10.330   1.785
31584W        W95517  17.640  34.556  12.039
31585W        W95518  11.658   7.895  12.458
31586W        W95519  43.940  10.302  12.537
31587W        W95520  21.624  11.626  14.326
31588W        W95521  43.278  20.116   1.763
31589W        W95522   7.222  42.378  13.544
31590W        W95523  11.128  44.261  13.458
31591W        W95524  42.306  16.771   0.768
31592W        W95525  37.347  24.501   4.119
31593W        W95526   1.907  37.967   1.357
31594W        W95527  31.453   2.962   2.797
31595W        W95528   2.720  44.868   1.437
31596W        W95529  37.361  23.609  14.957
31597W        W95530  27.679  44.948  13.326
31598W        W95531  23.068  40.320   1.347
31599W        W95532  37.918   5.276   2.279
31600W        W95533  28.623   0.357  11.900
31601W        W95534  19.232  15.648  10.534
31602W        W95535  43.442  27.569  13.941
31603W        W95536   0.848  20.144  14.978
31604W        W95537  44.262  30.020   1.387
31605W        W95538  10.862   4.837  13.829
31606W        W95539  37.565  17.307   4.299
31607W        W95540  28.052  35.949  15.000
31608W        W95541   6.772  26.067   0.449
31609W        W95542  25.602   6.376  14.968
31610W        W95543  21.242  20.118  14.890
31611W        W95544  27.949  11.717   3.172
31612W        W95545  31.426   1.240   0.280
31613W        W95546  11.778  22.636   3.280
31614W        W95547  34.491  43.900   2.373
31615W        W95548   5.223  44.800  12.502
31616W        W95549  20.030   2.814  10.453
31617W        W95550  29.452  30.621   3.296
31618W        W95551  25.685  29.080   3.868
31619W        W95552  23.182  35.963  14.283
31620W        W95553  35.875  26.602   1.260
31621W        W95554  44.949  11.789  14.285
31622W        W95555  33.909  14.330   4.230
31623W        W95556  34.598   0.344  10.620
31624W        W95557  29.013   6.371  14.800
31625W        W95558  44.817   8.316  10.643
31626W        W95559  26.156  29.461   1.342
31627W        W95560  23.665  12.260  12.912
31628W        W95561  20.179  40.821  13.960
31629W        W95562  18.581  14.297  14.963
31630W        W95563   8.349  27.174  15.000
31631W        W95564  14.180  18.182  10.587
31632W        W95565  24.979  44.290   2.682
31633W        W95566  33.913  29.027   2.752
31634W        W95567  20.264   4.903   3.254
31635W        W95568   9.816   1.952   4.708
31636W        W95569  18.109  15.675  11.448
31637W        W95570   5.326  21.749   3.168
31638W        W95571   2.301  30.444  10.451
31639W        W95572  14.250  39.467   1.926
31640W        W95573  35.870  28.996   0.439
31641W        W95574  39.496  10.240  12.914
31642W        W95575   0.488   6.259  12.550
31643W        W95576  25.604  39.815  12.843
31644W        W95577  38.964  22.121   4.158
31645W        W95578  26.521  17.223   4.131
31646W        W95579  15.673  11.212  10.925
31647W        W95580  31.536  10.702   3.169
31648W        W95581  32.100  12.140   3.792
31649W        W95582  31.625  17.764  10.610
31650W        W95583  25.042   0.405  14.423
31651W        W95584  40.024  38.888  12.824
31652W        W95585  34.900  32.620   2.719
31653W        W95586  40.371  44.436   1.907
31654W        W95587  36.586  39.813  13.921
31655W        W95588  39.545  34.531   3.797
31656W        W95589  24.525   2.916   0.448
31657W        W95590  31.610  23.672  11.459
31658W        W95591  21.743  32.095  14.507
31659W        W95592   7.758   2.390   3.787
31660W        W95593  15.795  13.149   5.283
31661W        W95594   0.307  28.037  12.833
31662W        W95595  14.296  20.759  14.869
31663W        W95596  26.188  41.925   5.686
31664W        W95597  22.085  41.936   3.658
31665W        W95598  24.199  23.130   2.896
31666W        W95599   7.267   5.876   3.802
31667W        W95600  25.570   7.850   0.868
31668W        W95601  17.557  39.377  13.313
31669W        W95602   9.854   2.897  12.964
31670W        W95603   6.345  43.514   3.219
31671W        W95604   4.879  29.997   3.696
31672W        W95605  22.165  11.829  11.911
31673W        W95606  15.242   3.433  10.587
31674W        W95607  40.892  20.653   1.289
31675W        W95608  39.018  20.077  11.986
31676W        W95609  33.049  15.255   0.790
31677W        W95610  25.189  31.511  12.484
31678W        W95611  38.967   9.694   3.280
31679W        W95612  23.127  36.053  11.129
31680W        W95613  17.099   3.929   4.725
31681W        W95614  10.216   0.934   0.298
31682W        W95615  39.933  12.268  12.446
31683W        W95616  30.536  12.774   2.797
31684W        W95617  19.076  10.685  12.522
31685W        W95618  16.258   3.906  14.765
31686W        W95619  11.162  36.911  11.587
31687W        W95620  32.506  41.938  14.984
31688W        W95621  14.728  20.690   2.674
31689W        W95622  37.001  15.087   1.394
31690W        W95623   6.289   1.948   1.319
31691W        W95624  33.436  14.634  10.893
31692W        W95625  30.553  32.062   1.423
31693W        W95626   6.424  27.545  10.506
31694W        W95627  31.560  11.807  13.954
31695W        W95628   3.921  35.443   2.900
31696W        W95629  30.461  40.362   2.328
31697W        W95630   1.741  32.131  14.323
31698W        W95631  35.508  34.049  11.966
31699W        W95632  35.963  34.114   1.801
31700W        W95633  35.472  34.493   0.378
31701W        W95634   9.329  38.830   3.726
31702W        W95635   8.218  29.611   4.631
31703W        W95636  12.122  33.113   1.255
31704W        W95637  35.406   3.832  12.833
31705W        W95638   2.411  44.892   3.652
31706W        W95639  30.023  23.130   2.238
31707W        W95640  41.875   1.933  14.860
31708W        W95641  32.467  16.233   3.677
31709W        W95642   2.784  40.309  14.947
31710W        W95643  37.577  27.491   2.799
31711W        W95644  15.792   8.254   4.293
31712W        W95645  12.855  13.170  11.456
31713W        W95646  13.798  18.105  14.396
31714W        W95647  18.159  30.497  13.955
31715W        W95648   9.779  39.025   1.880
31716W        W95649  14.816   9.243   4.175
31717W        W95650  17.726   5.411  11.085
31718W        W95651   5.904  35.027  11.500
31719W        W95652   0.853  16.295  14.870
31720W        W95653  14.329   4.817   0.320
31721W        W95654  11.365  26.473  13.853
31722W        W95655  21.712  20.689   4.618
31723W        W95656  18.566  30.537   2.697
31724W        W95657  44.759   6.820  13.347
31725W        W95658  41.444  12.177  11.558
31726W        W95659  38.974  28.052  14.778
31727W        W95660   2.955  19.582   4.158
31728W        W95661   2.268  12.682  10.576
31729W        W95662   3.743  23.514   3.851
31730W        W95663  41.853   5.293  14.991
31731W        W95664  34.888  15.809  14.972
31732W        W95665  38.339  44.330  13.451
31733W        W95666   3.928   5.914  14.508
31734W        W95667  35.378  25.577  11.066
31735W        W95668  22.026  33.439  13.352
31736W        W95669   1.366  15.690   5.233
31737W        W95670  18.127   0.331   0.287
31738W        W95671   4.837  39.322   1.830
31739W        W95672  17.688  38.388   2.200
31740W        W95673  16.646  34.939   1.252
31741W        W95674  16.296  10.319  12.355
31742W        W95675  30.476  40.042  11.930
31743W        W95676  32.430  13.807   2.378
31744W        W95677   2.787  38.960   2.406
31745W        W95678   6.187   7.221   4.346
31746W        W95679  34.436   7.227  11.080
31747W        W95680  36.067  37.895  10.926
31748W        W95681  10.859  33.959   2.860
31749W        W95682   2.904   0.409  13.329
31750W        W95683  38.424  17.723   2.728
31751W        W95684  22.205  28.509  14.908
31752W        W95685  40.000   4.783  14.791
31753W        W95686  41.012  13.772  13.519
31754W        W95687  14.592   1.429   2.230
31755W        W95688  25.041  29.968  13.022
31756W        W95689  10.340   3.833  13.928
31757W        W95690  11.347  31.447  13.407
31758W        W95691   7.380   7.232   3.745
31759W        W95692  14.612  17.069   0.863
31760W        W95693   0.890  35.005  14.293
31761W        W95694  16.256  37.925   0.909
31762W        W95695  13.803  23.691   3.348
31763W        W95696   7.365   8.301  10.591
31764W        W95697  13.303  44.799  13.955
31765W        W95698  38.534  14.206  12.017
31766W        W95699  39.438  15.656   3.679
31767W        W95700  26.170  27.188  14.920
31768W        W95701   0.333  22.143  12.543
31769W        W95702  22.686   3.437  11.520
31770W        W95703  43.386  39.931   1.828
31771W        W95704  16.245   0.763   0.905
31772W        W95705  29.434  26.577   4.200
31773W        W95706  36.551  27.087   4.768
31774W        W95707  43.463   6.402  13.916
31775W        W95708  15.231  34.562  13.315
31776W        W95709  36.859  11.731   3.268
31777W        W95710  10.169   9.752  11.444
31778W        W95711  18.141  26.539   2.258
31779W        W95712   4.267  34.401   1.754
31780W        W95713  11.129  10.213   3.242
31781W        W95714  35.366  14.333  11.999
31782W        W95715  37.018  31.407  11.075
31783W        W95716  39.969  36.456  10.889
31784W        W95717   4.737  23.632  10.917
31785W        W95718  20.711  44.778   0.748
31786W        W95719  23.991  16.164  11.472
31787W        W95720  40.884  11.849  10.583
31788W        W95721  39.383  15.260   2.265
31789W        W95722  41.364  12.258  13.519
31790W        W95723  14.167  21.733   1.250
31791W        W95724  22.685   9.203  14.769
31792W        W95725   6.747  33.616   2.197
31793W        W95726  14.207  11.184  10.502
31794W        W95727  40.336  15.732   3.729
31795W        W95728  25.548  35.442  14.878
31796W        W95729   9.242  11.127   1.225
31797W        W95730  44.475  22.666  14.011
31798W        W95731  26.028  13.293  11.024
31799W        W95732   3.359   4.418   4.748
31800W        W95733  10.781  37.501  12.021
31801W        W95734  35.588  25.197  14.440
31802W        W95735   4.390   9.273   1.912
31803W        W95736  30.654  25.995  13.916
31804W        W95737  40.885  32.053  12.010
31805W        W95738  27.055   5.337   0.285
31806W        W95739  15.207  41.032  10.997
31807W        W95740  31.518  20.629   4.836
31808W        W95741  41.434   0.969  11.910
31809W        W95742  16.613   5.249   2.232
31810W        W95743  27.196  44.386   1.340
31811W        W95744   1.885  44.903   3.241
31812W        W95745   7.817  40.825  11.511
31813W        W95746  27.690   3.778  10.518
31814W        W95747   7.776  36.993  10.555
31815W        W95748  13.177   7.311   0.371
31816W        W95749  16.314   4.368   4.152
31817W        W95750  19.671  43.013  10.073
31818W        W95751  41.041   7.216   0.909
31819W        W95752  29.088  23.518  14.385
31820W        W95753  24.192  44.813  11.563
31821W        W95754  39.040  43.001   1.335
31822W        W95755  43.338  44.349   4.267
31823W        W95756  37.882  20.541   4.309
31824W        W95757  18.618  31.476   3.368
31825W        W95758  13.707   4.926  12.860
31826W        W95759  35.079  31.646  13.490
31827W        W95760   4.374  38.431   0.933
31828W        W95761  16.224  11.332   1.695
31829W        W95762  31.616  37.450  12.046
31830W        W95763  15.590  25.503  13.328
31831W        W95764  24.484  12.227   4.689
31832W        W95765   0.831   5.312  12.408
31833W        W95766   1.373  27.966  10.549
31834W        W95767   3.801  41.326   3.838
31835W        W95768  37.506  33.478  10.553
31836W        W95769  31.553  35.974  10.429
31837W        W95770  11.346   8.807  12.843
31838W        W95771  35.357   9.836   1.808
31839W        W95772  16.216  18.661   2.758
31840W        W95773  22.547  38.071   0.267
31841W        W95774  30.447  42.879  13.469
31842W        W95775  26.156  38.827  10.965
31843W        W95776  40.828  37.488  11.943
31844W        W95777  29.003  21.650   1.847
31845W        W95778  31.947  21.116   9.970
31846W        W95779  14.256  10.863  14.856
31847W        W95780  27.464   0.287   0.797
31848W        W95781  16.128  37.440  11.380
31849W        W95782  43.996   9.768  13.360
31850W        W95783  24.168  41.421  11.432
31851W        W95784  10.733  14.193  11.977
31852W        W95785  12.731  27.691   1.344
31853W        W95786  39.933  41.953  11.440
31854W        W95787  32.606  15.257   1.396
31855W        W95788  14.706  33.901  11.594
31856W        W95789  40.002  33.110   2.320
31857W        W95790  34.867   7.291  11.949
31858W        W95791   6.328  23.567   4.205
31859W        W95792   3.340   8.698  12.474
31860W        W95793  43.499  12.785   1.753
31861W        W95794  17.141  32.070  14.961
31862W        W95795  14.337  13.210  11.039
31863W        W95796  38.523  26.185   3.310
31864W        W95797  37.362  12.813  10.632
31865W        W95798  20.651  18.565  14.425
31866W        W95799  28.566  34.912  13.909
31867W        W95800  44.388  24.991   1.410
31868W        W95801  21.058  41.040  11.457
31869W        W95802  39.951   9.780  14.829
31870W        W95803  36.411  28.020  14.379
31871W        W95804  21.185  13.714   4.276
31872W        W95805  35.964  42.386   2.240
31873W        W95806  38.938   8.900  10.414
31874W        W95807  36.559   7.181  11.925
31875W        W95808  36.938   2.359   1.764
31876W        W95809  30.528  14.238   2.403
31877W        W95810   6.865   1.476  12.523
31878W        W95811  19.643  13.222   0.781
31879W        W95812  40.502  22.557  11.906
31880W        W95813  21.156  37.897   0.392
31881W        W95814  42.432  20.729   2.318
31882W        W95815   6.713   5.829  13.837
31883W        W95816  10.637   7.363  10.946
31884W        W95817   8.342  44.332  13.487
31885W        W95818   4.291  25.679  10.558
31886W        W95819  26.694  35.897  14.970
31887W        W95820  12.148  11.669   3.384
31888W        W95821  20.086   8.350   3.812
31889W        W95822  28.077  25.626  13.866
31890W        W95823  37.853  34.030  14.833
31891W        W95824   3.769  32.966   2.281
31892W        W95825  25.018   3.240   0.336
31893W        W95826   5.417  31.152  12.550
31894W        W95827  39.520  10.700  14.763
31895W        W95828  25.047   5.230   0.770
31896W        W95829   3.728  14.615   2.767
31897W        W95830  42.825  29.991   3.207
31898W        W95831  38.417  22.511   4.143
31899W        W95832  36.567  36.449   1.298
31900W        W95833   3.342   9.275   2.259
31901W        W95834  40.515  28.183  12.946
31902W        W95835  21.263  39.005  13.365
31903W        W95836   1.973  20.239   1.246
31904W        W95837  44.292  19.772  14.841
31905W        W95838  25.041  35.996  14.486
31906W        W95839  12.687  18.184  14.362
31907W        W95840  29.456  29.534  14.898
31908W        W95841  20.694   3.326  13.854
31909W        W95842  36.048  38.544  13.959
31910W        W95843   6.215  32.568   0.272
31911W        W95844  28.474   4.818   2.752
31912W        W95845  26.702   0.763  13.450
31913W        W95846  36.524  16.630  12.363
31914W        W95847  37.980  10.153  14.000
31915W        W95848  25.196   8.747  11.418
31916W        W95849  24.576  23.142   1.900
31917W        W95850  12.735  38.913  13.965
31918W        W95851  30.514   0.490  11.122
31919W        W95852  15.237  27.134  10.485
31920W        W95853  27.129  20.597   3.677
31921W        W95854  32.944   6.233   1.912
31922W        W95855  37.426  24.158   4.674
31923W        W95856  22.208  16.136   1.723
31924W        W95857  14.240  22.504   1.889
31925W        W95858  35.057  16.668   1.282
31926W        W95859  42.339   1.746   2.856
31927W        W95860  38.446   7.388   0.451
31928W        W95861  15.727  29.127   1.347
31929W        W95862  32.981  40.427  14.318
31930W        W95863   9.767  31.951  13.445
31931W        W95864  42.373   4.324  11.376
31932W        W95865  16.078   9.279  13.396
31933W        W95866  42.485  26.037  11.574
31934W        W95867  34.504  44.422  11.971
31935W        W95868   0.350   3.430  14.406
31936W        W95869  10.375  30.954   1.804
31937W        W95870  22.062   3.280   1.415
31938W        W95871  38.391  42.407   0.454
31939W        W95872  28.037  41.936   3.327
31940W        W95873   9.851  42.455  12.065
31941W        W95874   8.222  34.424  11.453
31942W        W95875  42.499  29.132  11.026
31943W        W95876   3.908  15.578   2.181
31944W        W95877  19.611  18.560  14.920
31945W        W95878  24.088  34.553   0.289
31946W        W95879   8.771   5.243   4.679
31947W        W95880  12.312   7.790   0.869
31948W        W95881   1.307  20.071   3.356
31949W        W95882  30.021  21.735  13.862
31950W        W95883  23.164  26.511  10.045
31951W        W95884  19.600   7.345   3.226
31952W        W95885  14.627  21.685   2.720
31953W        W95886  39.982  11.641   2.178
31954W        W95887   8.850   7.252   2.219
31955W        W95888  30.508  22.634  13.019
31956W        W95889  10.365   8.265  13.967
31957W        W95890   5.769   9.652  12.014
31958W        W95891   8.880  21.115  14.398
31959W        W95892  36.566  33.527   5.313
31960W        W95893   4.837  40.838   2.805
31961W        W95894  24.513  42.295   4.753
31962W        W95895  20.700  13.217  10.991
31963W        W95896  24.611   9.721   4.834
31964W        W95897   4.306   3.936  14.352
31965W        W95898  24.508   3.426   2.371
31966W        W95899  10.841  36.099  14.441
31967W        W95900  16.126  41.792  13.850
31968W        W95901  20.243   6.769   4.718
31969W        W95902   3.461  37.065   0.388
31970W        W95903  27.446   7.353  14.472
31971W        W95904  38.994  44.880   4.354
31972W        W95905  21.745  31.942   0.726
31973W        W95906   6.192  36.885   4.727
31974W        W95907  20.606  43.965  13.891
31975W        W95908  44.349  30.433  12.459
31976W        W95909  20.600  22.699  10.407
31977W        W95910  20.697   2.332  13.006
31978W        W95911   0.413  34.403  11.013
31979W        W95912  41.331  19.745   0.252
31980W        W95913  41.409  32.404   2.834
31981W        W95914   7.793   1.943  14.295
31982W        W95915  34.062  28.527  11.952
31983W        W95916  22.131   0.986   2.278
31984W        W95917  22.720  15.251   1.219
31985W        W95918  27.574  18.242  11.117
31986W        W95919   2.394  32.954  13.402
31987W        W95920  17.221   6.255   5.750
31988W        W95921  31.006  39.451   0.345
31989W        W95922  40.355  39.883   2.670
31990W        W95923  41.882  18.097  14.962
31991W        W95924  42.366   0.767  10.588
31992W        W95925  30.079  20.756   3.166
31993W        W95926  22.038  29.951  11.581
31994W        W95927  15.686   7.890   1.769
31995W        W95928   1.779  38.392  13.435
31996W        W95929   5.866  24.000  10.895
31997W        W95930  20.182  34.907   1.804
31998W        W95931   9.223   0.356   3.836
31999W        W95932  33.018  34.894   0.365
32000W        W95933   0.469  27.051   0.875
32001W        W95934  27.961   3.817   2.255
32002W        W95935  25.981  20.615  13.531
32003W        W95936  16.612   1.334   2.701
32004W        W95937  24.086  36.983  14.436
32005W        W95938  38.506  30.657  12.397
32006W        W95939  39.823  44.825  14.931
32007W        W95940  44.820  37.545   5.780
32008W        W95941  15.093  20.769  12.984
32009W        W95942  41.021  15.175  14.922
32010W        W95943  12.222   1.450  13.946
32011W        W95944  30.009   0.926  12.875
32012W        W95945  14.608  37.547  11.527
32013W        W95946  42.391  41.345   1.907
32014W        W95947  10.859   3.376  13.953
32015W        W95948  10.867  42.517   2.875
32016W        W95949  16.713  16.703   0.737
32017W        W95950  24.149  35.883  12.945
32018W        W95951  43.483  29.670  13.347
32019W        W95952   3.927  12.313  11.431
32020W        W95953   1.281  20.654   0.416
32021W        W95954   2.721  41.333  12.494
32022W        W95955   0.876   6.410  14.435
32023W        W95956   2.440   3.822   1.869
32024W        W95957  44.403  18.651  10.563
32025W        W95958   4.935  36.923  13.004
32026W        W95959  44.422  22.584   5.262
32027W        W95960  44.847  30.971  10.955
32028W        W95961  39.323  15.734  13.350
32029W        W95962  19.061   8.828  11.589
32030W        W95963  32.521   0.267  11.986
32031W        W95964  28.008  26.012  13.366
32032W        W95965  17.081  39.363   3.733
32033W        W95966  16.790  15.134  13.977
32034W        W95967  36.550  21.731   4.782
32035W        W95968  27.999   0.309  14.358
32036W        W95969  44.982  40.468  12.016
32037W        W95970  33.912  33.939   0.807
32038W        W95971  38.404  41.825   0.812
32039W        W95972   0.985  30.940  12.039
32040W        W95973  41.449  19.212  14.965
32041W        W95974  16.677  27.524   4.145
32042W        W95975  16.260  34.907  12.017
32043W        W95976  34.476   1.769   2.787
32044W        W95977  12.197  34.421   1.399
32045W        W95978  25.708  39.854  14.282
32046W        W95979  11.819  20.206   2.850
32047W        W95980  10.642  37.017   4.175
32048W        W95981  39.862  19.113   4.628
32049W        W95982   8.333  35.103   4.811
32050W        W95983  23.002  21.065  10.521
32051W        W95984  36.900   9.155   2.778
32052W        W95985   1.755  24.024   1.865
32053W        W95986  27.608  38.552   1.258
32054W        W95987  37.976  36.474   4.790
32055W        W95988  37.010  23.113   2.682
32056W        W95989  18.567  11.160  12.466
32057W        W95990  30.594  39.409   3.816
32058W        W95991   7.811  18.615   2.218
32059W        W95992  29.667   8.393   3.263
32060W        W95993   7.904  26.140  14.512
32061W        W95994  43.948  26.190  14.451
32062W        W95995   5.274  22.109  11.438
32063W        W95996  19.047   9.724   3.310
32064W        W95997  36.960  43.287  14.404
32065W        W95998  11.740  44.816  14.936
32066W        W95999   6.260  26.175  10.557
32067W        W96000  26.187  14.248  14.408
32068W        W96001  17.183  41.526   3.324
32069W        W96002  15.588   4.243   3.374
32070W        W96003   5.237  13.740   0.361
32071W        W96004  13.836  17.112   2.699
32072W        W96005  43.873  22.088  11.423
32073W        W96006  11.634  36.098  12.409
32074W        W96007  13.648  20.541  10.909
32075W        W96008  10.637  42.314   1.331
32076W        W96009   5.238  11.159  14.856
32077W        W96010  40.494   7.295   4.328
32078W        W96011   9.204  26.637   3.843
32079W        W96012  31.408  10.240  10.595
32080W        W96013  34.411  28.040  12.359
32081W        W96014  40.447   9.862   0.428
32082W        W96015  36.981  17.610  12.052
32083W        W96016  33.002   0.946   4.696
32084W        W96017   2.356   9.875   3.856
32085W        W96018   0.899   2.447   1.854
32086W        W96019   6.679   6.222  10.621
32087W        W96020   7.396  17.290  14.889
32088W        W96021  26.682  27.561   3.766
32089W        W96022  10.795  42.971  13.440
32090W        W96023  12.782  24.004  14.032
32091W        W96024  27.462   3.346  11.506
32092W        W96025   3.729  15.673   1.385
32093W        W96026  28.546  44.753  11.900
32094W        W96027   1.848  39.973   2.326
32095W        W96028  18.584   1.765   2.387
32096W        W96029  11.193  13.337   0.965
32097W        W96030  23.051  42.799  11.120
32098W        W96031  18.750   2.246   1.213
32099W        W96032  36.069  29.156   1.406
32100W        W96033  28.978  26.022  14.788
32101W        W96034  16.803   2.763  11.381
32102W        W96035  12.794  30.936   0.912
32103W        W96036  44.325   3.921   3.375
32104W        W96037   0.438  28.183   0.810
32105W        W96038  25.995  23.140  13.833
32106W        W96039   6.722  26.161   0.809
32107W        W96040  32.123  18.148   2.900
32108W        W96041   7.349   5.748   1.272
32109W        W96042  16.104  27.962  14.465
32110W        W96043  38.894  15.250   1.732
32111W        W96044   7.694  17.225  13.955
32112W        W96045  38.466  32.614  11.090
32113W        W96046  30.971  30.610  12.390
32114W        W96047  36.082  20.175  13.435
32115W        W96048   9.842   6.277   0.877
32116W        W96049  36.436   6.193   2.349
32117W        W96050  24.004  42.937  13.351
32118W        W96051  32.136  39.013   3.228
32119W        W96052   6.722  30.032  14.831
32120W        W96053   6.427  35.521   4.761
32121W        W96054  40.038  32.070   2.221
32122W        W96055  21.257  40.491  10.502
32123W        W96056   8.693  22.745   1.330
32124W        W96057  37.341   6.788   2.245
32125W        W96058  12.286   1.392   3.355
32126W        W96059  39.853  35.052  11.457
32127W        W96060   6.745   2.345  10.098
32128W        W96061  23.985  42.019   3.858
32129W        W96062  27.163  27.162  11.088
32130W        W96063   1.896  40.895  10.977
32131W        W96064  24.576   5.302  10.902
32132W        W96065   0.470  33.554  10.497
32133W        W96066  43.816   2.402   1.263
32134W        W96067  13.670  25.150  14.850
32135W        W96068  32.093  29.034   3.158
32136W        W96069  18.743   6.861  13.954
32137W        W96070  13.301  41.967   1.248
32138W        W96071  16.220  30.003  14.991
32139W        W96072  30.555  20.596  14.956
32140W        W96073  16.216   5.703  13.978
32141W        W96074  43.913  36.868  12.076
32142W        W96075  35.430  38.058   0.243
32143W        W96076  35.462  35.908   1.355
32144W        W96077   6.888  26.983   5.582
32145W        W96078   7.271  21.528   1.249
32146W        W96079  37.389   3.834   3.781
32147W        W96080   9.844   4.297  12.848
32148W        W96081   5.797  11.793  13.938
32149W        W96082  33.385  42.326  14.914
32150W        W96083  31.522  14.789  13.798
32151W        W96084  27.038   2.783  12.858
32152W        W96085   3.809  26.048  11.440
32153W        W96086  11.779   8.378   1.267
32154W        W96087   1.325  10.320   0.931
32155W        W96088  11.139  34.949  11.594
32156W        W96089   5.403  18.192   2.322
32157W        W96090  43.287  24.525  11.500
32158W        W96091  39.898  29.067  14.929
32159W        W96092   7.233  24.974   1.436
32160W        W96093  26.021   2.731  13.984
32161W        W96094   5.405  38.434   0.947
32162W        W96095  16.298   2.303   0.306
32163W        W96096   5.302   4.711   0.774
32164W        W96097  10.310  26.132  11.099
32165W        W96098  41.907  14.238   2.228
32166W        W96099   9.730  22.524   3.688
32167W        W96100   3.376  18.713   4.701
32168W        W96101  37.923  19.063   2.771
32169W        W96102  38.936  32.450   2.846
32170W        W96103  21.027  35.958   3.377
32171W        W96104  33.466  17.294   1.861
32172W        W96105  37.063  26.008  11.396
32173W        W96106  44.844   6.790   4.666
32174W        W96107   2.365  27.446  14.915
32175W        W96108  27.559   5.842   0.772
32176W        W96109  29.075  28.522   1.859
32177W        W96110   1.955  37.838  13.886
32178W        W96111  44.470  30.625  14.493
32179W        W96112   7.202   6.725  11.496
32180W        W96113  40.925  20.174   4.174
32181W        W96114   0.880  42.420  11.401
32182W        W96115   1.760  24.200   0.895
32183W        W96116   6.209  21.135  12.075
32184W        W96117   8.272  17.641   0.739
32185W        W96118  27.496  41.954  14.799
32186W        W96119  15.177  13.299   4.834
32187W        W96120   5.899  39.873   4.297
32188W        W96121  44.332  19.221  10.939
32189W        W96122  22.674   9.320  12.042
32190W        W96123  35.928  21.649  13.943
32191W        W96124   3.770  26.156   1.805
32192W        W96125  34.580   1.414  13.921
32193W        W96126   7.793  17.783   1.428
32194W        W96127  32.896  39.410  14.475
32195W        W96128  44.758  18.620  12.915
32196W        W96129  42.483  43.510  14.915
32197W        W96130  22.242  27.662  11.385
32198W        W96131  34.899  25.080   2.713
32199W        W96132  12.243  29.095  11.469
32200W        W96133  44.276  40.391  13.977
32201W        W96134   2.741  19.703  10.582
32202W        W96135  16.620  38.332   2.806
32203W        W96136  38.824   6.823   1.901
32204W        W96137  42.793   7.778  12.996
32205W        W96138   2.444  23.712  11.608
32206W        W96139  14.233  24.164  14.866
32207W        W96140   5.355   7.837  14.279
32208W        W96141   2.345  40.967   0.800
32209W        W96142  30.130   7.347   3.691
32210W        W96143  37.432  30.545  11.580
32211W        W96144  14.308  27.494  14.507
32212W        W96145  19.114  18.564  14.429
32213W        W96146  25.000   4.862   5.195
32214W        W96147  35.943  17.242   1.298
32215W        W96148  39.904   5.333  10.571
32216W        W96149  26.955   0.965   2.222
32217W        W96150  24.180  38.395  14.317
32218W        W96151   1.753  12.680   5.252
32219W        W96152   6.843   9.782   4.128
32220W        W96153  16.659  15.741   3.794
32221W        W96154  35.936  11.782   1.775
32222W        W96155  35.595   0.272   2.669
32223W        W96156  22.746  23.534   1.294
32224W        W96157   9.370  34.874  10.622
32225W        W96158  11.363   7.345   0.870
32226W        W96159   6.200  23.000  11.023
32227W        W96160   9.840   4.913   1.839
32228W        W96161   6.748  36.008  14.874
32229W        W96162  41.986   0.454   1.440
32230W        W96163  14.282  42.898  13.023
32231W        W96164  23.551  11.371  13.452
32232W        W96165  42.500  25.044  12.423
32233W        W96166  19.124  36.852   2.342
32234W        W96167  23.704  14.167  10.568
32235W        W96168  26.175   0.488   2.764
32236W        W96169  27.110  43.339   0.881
32237W        W96170   4.270   8.687  14.915
32238W        W96171  14.682  29.500  12.437
32239W        W96172  27.124  21.023   1.716
32240W        W96173  39.343  40.387  13.390
32241W        W96174  10.853  22.670   3.860
32242W        W96175   5.740   5.711  12.563
32243W        W96176   9.332  11.176  10.604
32244W        W96177  23.579  30.656   3.769
32245W        W96178   4.328   6.221  14.023
32246W        W96179   1.407  27.547  14.465
32247W        W96180  26.030  27.502   3.379
32248W        W96181  11.290  38.885   2.351
32249W        W96182   4.813  42.294  10.956
32250W        W96183  34.049   8.251  11.906
32251W        W96184  20.171  26.527   4.256
32252W        W96185  34.496   4.342  12.339
32253W        W96186  34.884   0.371   2.347
32254W        W96187  25.169  17.274  10.424
32255W        W96188   5.253  15.111  13.874
32256W        W96189   9.690  41.476   0.262
32257W        W96190  14.278  35.903  13.894
32258W        W96191   7.715  39.054  14.891
32259W        W96192  21.140  18.083   0.411
32260W        W96193   7.377   8.853   0.327
32261W        W96194  33.500  23.021  14.276
32262W        W96195  31.473  20.111   4.347
32263W        W96196  17.290  26.626   1.748
32264W        W96197  33.477  12.655   3.850
32265W        W96198   9.793   8.683  12.938
32266W        W96199  22.999  27.618   4.136
32267W        W96200  28.949  13.813   0.889
32268W        W96201  29.082  11.836  13.542
32269W        W96202  19.658  24.569   2.401
32270W        W96203  22.090   4.712   1.774
32271W        W96204  21.069   3.345   3.356
32272W        W96205  43.961  18.184   3.648
32273W        W96206   5.410  17.253   0.405
32274W        W96207  39.854  12.723  14.001
32275W        W96208  15.323  22.217  11.903
32276W        W96209  37.892  32.943  14.286
32277W        W96210  39.328  17.716   0.959
32278W        W96211  35.098   2.722   3.383
32279W        W96212  39.912  33.923  12.883
32280W        W96213  43.796  43.788   0.780
32281W        W96214  26.458  23.095  14.008
32282W        W96215  18.584  44.424  10.150
32283W        W96216  43.410  24.501  13.914
32284W        W96217   0.345  33.117   4.644
32285W        W96218  30.918  28.154  10.433
32286W        W96219  32.135  30.954   0.422
32287W        W96220  17.769  21.558  12.077
32288W        W96221   1.354  17.749  13.927
32289W        W96222   1.826  15.288  14.865
32290W        W96223  32.928   9.836   4.696
32291W        W96224   8.320  22.250   4.677
32292W        W96225  26.515  34.510   0.792
32293W        W96226  18.073  28.584  14.482
32294W        W96227  15.644  23.512   1.815
32295W        W96228  22.123   1.815   1.395
32296W        W96229  24.022  41.307  10.576
32297W        W96230  11.658   0.903   2.894
32298W        W96231   2.778  14.590   4.291
32299W        W96232   5.698  10.228   2.715
32300W        W96233   9.763  44.351   2.820
32301W        W96234   2.827  35.067   2.803
32302W        W96235  34.051  40.904   4.676
32303W        W96236   3.236  30.107  14.905
32304W        W96237  22.194  44.460   2.880
32305W        W96238   8.371  24.210  12.086
32306W        W96239  27.077  38.970  12.532
32307W        W96240  37.965  14.818  10.420
32308W        W96241  28.094  35.378   2.838
32309W        W96242  37.444   4.332  10.405
32310W        W96243   9.379   7.772  11.054
32311W        W96244  36.367  14.300   4.252
32312W        W96245  11.142   2.423   0.884
32313W        W96246  12.201  39.996   1.249
32314W        W96247   1.960  31.585   2.895
32315W        W96248  12.707   9.393   2.903
32316W        W96249  38.916   6.204  14.324
32317W        W96250  12.845   0.848   1.418
32318W        W96251  31.011  28.546  12.851
32319W        W96252  43.304  26.536   3.162
32320W        W96253  23.505  35.367   4.719
32321W        W96254   0.283  16.757   3.303
32322W        W96255  43.434  36.034   0.794
32323W        W96256  43.948  43.482   4.738
32324W        W96257  24.538   0.478  12.551
32325W        W96258  33.461  26.043  14.417
32326W        W96259  14.647   5.839  14.474
32327W        W96260   7.372   2.776  11.611
32328W        W96261   2.807  39.992  12.360
32329W        W96262  16.177   7.207  12.508
32330W        W96263  20.531  29.605  14.502
32331W        W96264   5.810  30.562   4.776
32332W        W96265   6.858   7.344  13.414
32333W        W96266  36.944  29.496  14.798
32334W        W96267  15.151  15.214  12.001
32335W        W96268  37.988  18.611   4.292
32336W        W96269  21.129  37.994  11.994
32337W        W96270  20.581   2.303   2.663
32338W        W96271   0.406  15.589   4.269
32339W        W96272  31.536   5.811  12.405
32340W        W96273  36.982  13.769  14.514
32341W        W96274  31.124  12.255   2.703
32342W        W96275   1.910  11.287   2.223
32343W        W96276  15.198  16.647   0.252
32344W        W96277  28.040  15.664   5.302
32345W        W96278  27.109  37.926   4.612
32346W        W96279  39.551  35.453   4.736
32347W        W96280  10.297  28.452  11.563
32348W        W96281   0.329  15.639  13.941
32349W        W96282  13.237  31.615  12.926
32350W        W96283  35.983  10.827  11.036
32351W        W96284  42.848  10.207  11.913
32352W        W96285  27.124  25.626   0.359
32353W        W96286  36.008  10.813  11.596
32354W        W96287   6.372  17.726  11.887
32355W        W96288   8.217  40.544   2.220
32356W        W96289   5.211  32.395   4.788
32357W        W96290   8.866  33.006  12.844
32358W        W96291  26.202  32.619   4.761
32359W        W96292  35.363   8.813  12.390
32360W        W96293  19.104  11.139  11.021
32361W        W96294  37.854  15.719  11.112
32362W        W96295   8.851  27.133  13.818
32363W        W96296  41.877  25.644  14.767
32364W        W96297  27.535  17.198   1.409
32365W        W96298  37.863  22.722   4.323
32366W        W96299  19.600  35.982  14.905
32367W        W96300  35.395  20.256  14.499
32368W        W96301  33.559  30.465   4.772
32369W        W96302  11.663  37.381  10.916
32370W        W96303   2.385   5.258   4.115
32371W        W96304  31.152   7.277  12.572
32372W        W96305  32.035  29.495  13.987
32373W        W96306  32.913   0.293  13.523
32374W        W96307  13.682   8.713   0.878
32375W        W96308  28.097   8.216   0.436
32376W        W96309  11.226  40.834   0.856
32377W        W96310   2.338   9.332   1.278
32378W        W96311  19.747   6.771  10.546
32379W        W96312  41.796  21.608  11.535
32380W        W96313  37.911   3.768  14.865
32381W        W96314   5.332  44.380   2.196
32382W        W96315  44.282  34.450  10.547
32383W        W96316  26.655   6.265   5.124
32384W        W96317   5.890  35.593   2.883
32385W        W96318  10.876  11.857   3.670
32386W        W96319  41.847  41.828   0.273
32387W        W96320  15.613  25.496   4.319
32388W        W96321  30.547   0.435   2.748
32389W        W96322  30.617   7.754  14.392
32390W        W96323  28.055  16.626  10.414
32391W        W96324  25.528  16.122  12.464
32392W        W96325  43.884  38.330   4.338
32393W        W96326  30.907   5.739  11.053
32394W        W96327  31.594   4.287   0.880
32395W        W96328  17.093  27.994   5.085
32396W        W96329  20.232  41.809  11.929
32397W        W96330  28.182   9.280   2.837
32398W        W96331  20.650  42.785  13.889
32399W        W96332  44.308  44.826  14.453
32400W        W96333  39.320  25.191   0.815
32401W        W96334  36.401  19.053   4.624
32402W        W96335  26.697  17.686   3.161
32403W        W96336  27.672  22.612  10.453
32404W        W96337  10.216  10.739   2.681
32405W        W96338  28.629  29.631  14.299
32406W        W96339   5.741  41.796   2.342
32407W        W96340   5.351  36.354   4.196
32408W        W96341   8.742  12.689   4.694
32409W        W96342  13.722  16.312   2.806
32410W        W96343  32.422  43.330   4.193
32411W        W96344   1.847  10.142  12.377
32412W        W96345   4.280  32.428  12.913
32413W        W96346   5.275   5.240  10.937
32414W        W96347  43.959  34.992  13.476
32415W        W96348  31.538  17.571   4.270
32416W        W96349  32.942  37.042   3.383
32417W        W96350   4.904   4.931  10.637
32418W        W96351  34.492  19.773  13.889
32419W        W96352  22.105  25.688  13.840
32420W        W96353   7.402  25.129  10.417
32421W        W96354   0.839  37.999   4.775
32422W        W96355  35.550  40.507  11.940
32423W        W96356  28.985  33.928  11.446
32424W        W96357  18.790  14.747  14.503
32425W        W96358  16.664  30.446   0.883
32426W        W96359  10.768  29.092  10.577
32427W        W96360  25.679  42.902  10.924
32428W        W96361  26.558  22.137  14.865
32429W        W96362  38.487  17.280  12.389
32430W        W96363  17.652  12.243  10.495
32431W        W96364  25.678   5.364   1.915
32432W        W96365  42.801  15.623   2.348
32433W        W96366  28.047  29.611   0.799
32434W        W96367  19.728   3.432   3.168
32435W        W96368   4.294  13.795   4.704
32436W        W96369  35.382  37.549   2.757
32437W        W96370   0.473  25.064   2.394
32438W        W96371   9.368   2.840  10.084
32439W        W96372  17.268   6.409   2.715
32440W        W96373   5.893   7.871   1.833
32441W        W96374  14.721  35.446   4.686
32442W        W96375  42.459  20.154  14.979
32443W        W96376  34.428  41.480   3.322
32444W        W96377  32.950  42.387  13.039
32445W        W96378   2.751  33.956  13.394
32446W        W96379  22.013  26.591  12.353
32447W        W96380   8.867  40.498   3.705
32448W        W96381  42.373   7.342  13.520
32449W        W96382   6.695   2.743   2.893
32450W        W96383  30.022   7.860  12.480
32451W        W96384  18.778  25.490   1.342
32452W        W96385   8.761  10.276  11.553
32453W        W96386  19.099  30.955  12.462
32454W        W96387   2.949  23.242  14.875
32455W        W96388  26.055   6.365   4.751
32456W        W96389  27.043  24.590  11.390
32457W        W96390  32.886  36.427  12.387
32458W        W96391  12.663   7.819  12.030
32459W        W96392   2.858  23.695   0.284
32460W        W96393   2.767  10.843   2.229
32461W        W96394  40.430  20.254  12.930
32462W        W96395  35.413  24.663  14.366
32463W        W96396  39.502   1.352  12.946
32464W        W96397  10.200  37.993  14.782
32465W        W96398  26.041   0.306  11.391
32466W        W96399  19.566  24.211  14.803
32467W        W96400   3.709  36.978   3.341
32468W        W96401   0.378  19.670  12.960
32469W        W96402   7.272  16.221   1.890
32470W        W96403   5.374   0.279   1.795
32471W        W96404   7.670  14.592   1.909
32472W        W96405  18.057  33.919   4.167
32473W        W96406   9.326  13.325   1.382
32474W        W96407   7.390  35.042  11.117
32475W        W96408   5.841   0.837   3.339
32476W        W96409  27.126  13.215   1.250
32477W        W96410  26.038  32.555  11.384
32478W        W96411  44.966  29.440   1.422
32479W        W96412  38.430  33.489   0.790
32480W        W96413  28.434  20.049  14.887
32481W        W96414  18.556  20.566   1.772
32482W        W96415  33.973   3.774   2.854
32483W        W96416  40.378   7.685  10.909
32484W        W96417  13.792  30.028  10.897
32485W        W96418  42.985  37.854   4.221
32486W        W96419  28.089  32.584   3.238
32487W        W96420  22.069  11.847   4.708
32488W        W96421  30.432  29.513  11.531
32489W        W96422  23.195  17.773   0.803
32490W        W96423  40.860  30.570  14.466
32491W        W96424  20.604  43.332   1.762
32492W        W96425  43.956  19.120  10.904
32493W        W96426  28.629  11.180  14.800
32494W        W96427  17.161  24.545  10.498
32495W        W96428  21.556  35.500   4.213
32496W        W96429  34.030  24.111  10.482
32497W        W96430   4.380  28.116  10.473
32498W        W96431   1.279  40.500  10.918
32499W        W96432  35.899   4.870   1.921
32500W        W96433  35.447  25.990  12.030
32501W        W96434   7.199  39.976  13.814
32502W        W96435  10.653   6.264   0.427
32503W        W96436  17.305  35.858   1.450
32504W        W96437  10.839  40.508  14.351
32505W        W96438  14.144  20.583  14.002
32506W        W96439   6.735  24.615  14.846
32507W        W96440   3.796   6.203   0.313
32508W        W96441  13.751  30.547  12.898
32509W        W96442  11.161   8.376   3.192
32510W        W96443  17.190  35.386   3.338
32511W        W96444  34.972  17.773   2.289
32512W        W96445   1.786  15.774  14.305
32513W        W96446  26.651  22.531  11.520
32514W        W96447  40.544  25.161   1.437
32515W        W96448  33.086  16.614  11.053
32516W        W96449  42.383   1.799  10.618
32517W        W96450  14.315  20.038  12.873
32518W        W96451  37.458   6.293  13.460
32519W        W96452  38.352  14.788   4.171
32520W        W96453  43.334  40.478  10.541
32521W        W96454  22.077   4.859  13.977
32522W        W96455  35.369  39.003  12.984
32523W        W96456   0.790  17.780  12.524
32524W        W96457  33.105  25.520   4.286
32525W        W96458  24.522   1.337  12.405
32526W        W96459  19.189  39.487  13.445
32527W        W96460  17.270  21.709  14.422
32528W        W96461  13.143  29.649   0.473
32529W        W96462   7.187   6.776  11.066
32530W        W96463  28.110   7.846  10.605
32531W        W96464  19.077  29.546   0.900
32532W        W96465  15.245   7.301   3.774
32533W        W96466  26.107  29.128  13.042
32534W        W96467  10.707  41.893   2.861
32535W        W96468  36.365   4.920  12.962
32536W        W96469  36.515   3.737  10.524
32537W        W96470  40.364  43.863   2.662
32538W        W96471   3.850  35.361   4.705
32539W        W96472  22.627  25.537   4.784
32540W        W96473  24.507  39.532   2.407
32541W        W96474  42.295  26.555   2.705
32542W        W96475  41.786  35.897   5.229
32543W        W96476  32.893  28.571  10.517
32544W        W96477  20.752  11.686   0.845
32545W        W96478  19.276  28.542   5.306
32546W        W96479  29.539  17.583   4.276
32547W        W96480  27.011  43.961   4.271
32548W        W96481   2.807  39.398   3.848
32549W        W96482   8.675  10.814   0.480
32550W        W96483  36.531   6.220  12.959
32551W        W96484  13.715  20.723   3.819
32552W        W96485  26.176  14.158  10.535
32553W        W96486  15.268  32.471  14.768
32554W        W96487   2.340  39.059  12.430
32555W        W96488  10.829  17.571   2.277
32556W        W96489   3.399  39.969   3.689
32557W        W96490  19.624   4.799  11.995
32558W        W96491   6.825  33.953   2.296
32559W        W96492  37.885   8.692  12.505
32560W        W96493  36.947   2.912   3.772
32561W        W96494  24.091  16.685   1.405
32562W        W96495   6.677  15.182  11.922
32563W        W96496  40.327  41.811   0.263
32564W        W96497  32.449  40.913  14.311
32565W        W96498   2.724  17.689   0.297
32566W        W96499  18.283   1.429  10.510
32567W        W96500  18.556   9.271   2.677
32568W        W96501  39.951  33.536   3.166
32569W        W96502  35.599  35.476   3.321
32570W        W96503  38.365   0.924   4.719
32571W        W96504  28.982  22.059   3.200
32572W        W96505  33.962  31.117   0.790
32573W        W96506   5.263  22.549   2.818
32574W        W96507   0.905   0.333   0.383
32575W        W96508  23.115  23.668  12.512
32576W        W96509  33.518  41.319  14.414
32577W        W96510  15.308  38.461   5.246
32578W        W96511   3.896  22.134  11.383
32579W        W96512   7.407  42.963   1.451
32580W        W96513  20.605  16.774   1.754
32581W        W96514  17.160  39.045  11.890
32582W        W96515  29.536   2.755  11.926
32583W        W96516  20.040   2.415  11.459
32584W        W96517  16.566   6.353   3.709
32585W        W96518  27.668  43.773  12.519
32586W        W96519   0.393  27.997   1.264
32587W        W96520  42.401  18.760  10.995
32588W        W96521  42.016   4.425  12.048
32589W        W96522   2.232  31.007  11.470
32590W        W96523   6.276  13.347   4.116
32591W        W96524  12.319  21.072   3.276
32592W        W96525  42.970  11.855   0.758
32593W        W96526  34.371  22.670   1.748
32594W        W96527  42.459  39.036   1.785
32595W        W96528  35.450  25.202  12.875
32596W        W96529  22.685   2.931   1.227
32597W        W96530  26.656   2.289  14.479
32598W        W96531  20.592  41.467  14.017
32599W        W96532  28.013   9.827  12.958
32600W        W96533   8.224  31.090  12.508
32601W        W96534   1.934  29.578  14.925
32602W        W96535  11.797  31.907   9.920
32603W        W96536  10.154   8.378   2.373
32604W        W96537  38.409  19.241  14.906
32605W        W96538  35.078  40.018  14.911
32606W        W96539  24.012   9.769  13.806
32607W        W96540  18.287  26.124   4.274
32608W        W96541  16.664   5.380   5.254
32609W        W96542  21.263  43.007  11.406
32610W        W96543  24.134  27.044   0.789
32611W        W96544   7.762   7.397  10.022
32612W        W96545  36.951  21.136  10.959
32613W        W96546  28.600  35.977   1.439
32614W        W96547  11.722  24.571   4.133
32615W        W96548  38.429  37.532  11.938
32616W        W96549  20.063  18.618  11.521
32617W        W96550  18.600  31.992   3.384
32618W        W96551   5.724  26.116  12.514
32619W        W96552  27.596  33.567   0.967
32620W        W96553  15.219  31.098  14.817
32621W        W96554  23.542  15.225  11.124
32622W        W96555  42.974   4.308   1.445
32623W        W96556  25.065  27.585   2.685
32624W        W96557  19.680  11.741   2.231
32625W        W96558  44.010  41.837  12.049
32626W        W96559  25.602  37.576   4.614
32627W        W96560   4.424  36.470  11.558
32628W        W96561  38.428  14.275  14.360
32629W        W96562   8.848  36.589  14.002
32630W        W96563  37.037  20.218  13.890
32631W        W96564  15.172  29.627  11.895
32632W        W96565  32.002  15.602   2.245
32633W        W96566  13.242  42.451   2.712
32634W        W96567   3.924   4.365   4.781
32635W        W96568   0.344   0.864   1.394
32636W        W96569  20.555  38.979  14.004
32637W        W96570  44.878  30.652  14.028
32638W        W96571  11.801  17.661   3.298
32639W        W96572  43.938  32.462  10.486
32640W        W96573  31.549  10.364   4.136
32641W        W96574  20.590  31.989   1.819
32642W        W96575  29.113  22.519  14.915
32643W        W96576  44.819   7.260  13.359
32644W        W96577  28.133  38.050   0.368
32645W        W96578  12.282  37.064  10.499
32646W        W96579   0.898  43.913  13.498
32647W        W96580  13.782  40.870  11.553
32648W        W96581  32.041  16.783  14.382
32649W        W96582  39.324  25.540  13.450
32650W        W96583   5.244  34.609   4.349
32651W        W96584  32.468  33.479   2.747
32652W        W96585  17.303  23.589   2.278
32653W        W96586  37.524  37.482   2.344
32654W        W96587  13.679  25.492   1.229
32655W        W96588  14.306  10.360   3.630
32656W        W96589  20.677  25.216   3.319
32657W        W96590  33.955  33.903   4.791
32658W        W96591  20.094   6.260   2.211
32659W        W96592  22.511  10.177   0.267
32660W        W96593  11.181   8.886  13.898
32661W        W96594   5.329  17.629   3.201
32662W        W96595  44.004  12.325   3.726
32663W        W96596   0.906   3.761  12.856
32664W        W96597  34.943  29.978   3.850
32665W        W96598  40.889  41.358   0.457
32666W        W96599  29.036  23.986  14.352
32667W        W96600  28.089  14.206   2.223
32668W        W96601  39.042  17.160  11.593
32669W        W96602  41.529  44.341   4.705
32670W        W96603  37.878   0.286  13.966
32671W        W96604  11.800   7.291   3.297
32672W        W96605  30.505  36.364   1.438
32673W        W96606  33.514  10.186   2.819
32674W        W96607   7.363  31.566   4.331
32675W        W96608  17.064  17.669   1.713
32676W        W96609  14.110  27.674   0.923
32677W        W96610  43.426  10.748  14.793
32678W        W96611  20.252  36.519   4.201
32679W        W96612  23.720  13.605   1.847
32680W        W96613   8.711  39.063   3.638
32681W        W96614  30.925  25.010  11.895
32682W        W96615  16.082  18.064   1.927
32683W        W96616  24.492  15.604  13.334
32684W        W96617  30.944  23.206  13.390
32685W        W96618  40.897   0.301  12.412
32686W        W96619  40.979  31.475  13.428
32687W        W96620  29.044  39.400   2.807
32688W        W96621  26.565   3.782  12.417
32689W        W96622   1.906  29.003   1.764
32690W        W96623  20.145  39.369  14.283
32691W        W96624  28.503  30.635   4.182
32692W        W96625  12.307  24.698   3.234
32693W        W96626  34.404  20.635  13.484
32694W        W96627  20.753  42.293   1.730
32695W        W96628  34.565  12.712   4.601
32696W        W96629  30.100  37.407   2.840
32697W        W96630  14.676  28.509   1.814
32698W        W96631  11.854   8.386  14.316
32699W        W96632   2.273  28.058   3.760
32700W        W96633  43.980   1.456  10.497
32701W        W96634   9.392  39.913  12.523
32702W        W96635  21.034  30.948  13.828
32703W        W96636  39.363  41.480   3.665
32704W        W96637  20.255  44.323   0.250
32705W        W96638  40.419  23.522   0.819
32706W        W96639  35.440  25.682  12.833
32707W        W96640  35.982  31.965   1.328
32708W        W96641  40.469  19.077   4.129
32709W        W96642  34.092  31.013   1.341
32710W        W96643  41.387  31.144  12.388
32711W        W96644   8.728  28.091  13.324
32712W        W96645   5.706  13.713   3.677
32713W        W96646  28.467  43.456   5.789
32714W        W96647  12.344  11.763   3.758
32715W        W96648  22.113  13.266   1.259
32716W        W96649  13.822   7.736  11.569
32717W        W96650  35.428   0.297  10.575
32718W        W96651  25.579  32.402  13.480
32719W        W96652   1.791   2.941   1.707
32720W        W96653  32.052  43.815   1.359
32721W        W96654  27.104  16.233  14.349
32722W        W96655  37.856  18.054   0.839
32723W        W96656  33.991  20.196  10.419
32724W        W96657  43.393   5.221   1.788
32725W        W96658  31.548   8.783  11.460
32726W        W96659   2.758  15.261  11.085
32727W        W96660  21.053  25.472  12.505
32728W        W96661  25.027  40.010   0.847
32729W        W96662  40.869   7.801  11.540
32730W        W96663   6.267  27.620  14.878
32731W        W96664  32.088  20.105  12.428
32732W        W96665  28.460  13.800  11.088
32733W        W96666  42.398  12.767  11.127
32734W        W96667  35.898   5.360   3.303
32735W        W96668   1.913   0.431   4.660
32736W        W96669   1.761   5.327   4.235
32737W        W96670  33.913  42.425   3.750
32738W        W96671  43.370  35.924   3.276
32739W        W96672  14.176  11.238  12.992
32740W        W96673  33.057  28.565  11.009
32741W        W96674   1.287  25.089  11.920
32742W        W96675  21.082  15.823   2.341
32743W        W96676  21.088  36.999  13.461
32744W        W96677  10.763  38.076  12.518
32745W        W96678  30.507  42.427   1.448
32746W        W96679  11.660  21.141  10.147
32747W        W96680  19.742   1.420   2.277
32748W        W96681  31.143  31.930   3.247
32749W        W96682  15.704  38.947  11.390
32750W        W96683   2.438   7.735   2.219
32751W        W96684   8.310  40.464  13.384
32752W        W96685  24.520  33.009   0.315
32753W        W96686  17.735  16.106   4.266
32754W        W96687   2.296  13.241   4.804
32755W        W96688   7.319  21.607  10.889
32756W        W96689   1.274  34.580   1.887
32757W        W96690  40.456  41.812   1.284
32758W        W96691  37.071  26.179  11.855
32759W        W96692  25.490  22.087   1.708
32760W        W96693  32.020  13.339   2.183
32761W        W96694  33.056  42.977  11.025
32762W        W96695  30.446  26.059   1.779
32763W        W96696  10.258  27.082  13.444
32764W        W96697  39.918   1.468   1.844
32765W        W96698  12.801  25.153   0.426
32766W        W96699   7.407  19.590   3.664
32767W        W96700  27.043  11.660   3.632
32768W        W96701  42.850  33.442  13.037
32769W        W96702  19.059  14.682   2.322
32770W        W96703  33.930  18.159  14.298
32771W        W96704  32.502  40.441   1.849
32772W        W96705   6.421  20.139   1.423
32773W        W96706  21.069  44.383   1.405
32774W        W96707  24.070   7.341   4.349
32775W        W96708  19.596  32.066   4.323
32776W        W96709  20.194  19.752  11.528
32777W        W96710  21.211  13.272  11.054
32778W        W96711  19.102  25.577  12.897
32779W        W96712  10.300  29.617  11.530
32780W        W96713  30.643  40.491   2.689
32781W        W96714   2.343   9.672  13.516
32782W        W96715  10.877   0.942  14.324
32783W        W96716  38.438  37.017  12.999
32784W        W96717  38.046  32.623  14.428
32785W        W96718  34.467   2.730  10.563
32786W        W96719   1.439  38.511   2.860
32787W        W96720  22.719  44.818  12.069
32788W        W96721  38.864  39.340   0.763
32789W        W96722  31.488  30.095   4.667
32790W        W96723  30.464   8.347   0.815
32791W        W96724  17.717  42.791   2.865
32792W        W96725  44.965  19.692   4.232
32793W        W96726  29.599  14.692   2.347
32794W        W96727  40.864  15.215   0.286
32795W        W96728  41.486  13.832  14.487
32796W        W96729   4.296  21.029   1.263
32797W        W96730  37.528  14.218  14.465
32798W        W96731  29.570  16.113   3.292
32799W        W96732   3.739  13.303   0.325
32800W        W96733  13.175  14.335   4.655
32801W        W96734  20.688  10.220   2.666
32802W        W96735  28.023  23.988   2.744
32803W        W96736  44.866  28.002   4.813
32804W        W96737  12.270  40.801   0.905
32805W        W96738  44.812  17.128  13.034
32806W        W96739  42.945  22.175  12.352
32807W        W96740  22.652  28.108   0.805
32808W        W96741  11.751  12.777  13.423
32809W        W96742  34.011  39.468  10.604
32810W        W96743  36.350   8.285   3.683
32811W        W96744  17.799   2.451  14.900
32812W        W96745   1.934  24.008  12.902
32813W        W96746  36.413  38.925   4.674
32814W        W96747  35.603  12.289  12.519
32815W        W96748  33.384  44.462   3.242
32816W        W96749  28.449  16.583   4.779
32817W        W96750  38.358  22.165   1.448
32818W        W96751  12.305  38.070   4.696
32819W        W96752  12.200  32.494  12.434
32820W        W96753  18.177  44.436   0.291
32821W        W96754   5.865  22.196  10.634
32822W        W96755  10.340  12.700   3.823
32823W        W96756   0.758  28.633   0.890
32824W        W96757   4.229  33.971  12.399
32825W        W96758  36.040  31.092  10.943
32826W        W96759   1.323  30.096   3.651
32827W        W96760  12.280  14.686  10.513
32828W        W96761  19.177  10.228   4.342
32829W        W96762  13.753  25.031   3.382
32830W        W96763  31.078  14.239  10.929
32831W        W96764  13.117  30.097  12.088
32832W        W96765  21.165  32.447  10.474
32833W        W96766  20.675  43.377   2.747
32834W        W96767  11.643  32.500  11.582
32835W        W96768  39.818  14.833  13.380
32836W        W96769  13.231  34.555  13.002
32837W        W96770  11.271  34.521  14.800
32838W        W96771  34.074   4.395   0.483
32839W        W96772   2.432  36.964  12.511
32840W        W96773  18.568  30.635   4.276
32841W        W96774  13.672   5.322  12.010
32842W        W96775  10.847   4.892  14.955
32843W        W96776  34.482  17.290   3.823
32844W        W96777  44.970   8.717   3.767
32845W        W96778  38.445  42.282   1.753
32846W        W96779   2.848  40.357   3.366
32847W        W96780  33.975   0.459   4.838
32848W        W96781  17.610   2.302  13.978
32849W        W96782  40.840   0.379  12.927
32850W        W96783  42.818  31.616  10.555
32851W        W96784  37.060  17.244  13.403
32852W        W96785  16.142  21.550   1.838
32853W        W96786  33.091   8.714  10.445
32854W        W96787  23.986  26.461  11.060
32855W        W96788  43.344  23.206   4.790
32856W        W96789   8.820   2.262  14.881
32857W        W96790  32.488  20.267   0.458
32858W        W96791  43.804   6.315  10.546
32859W        W96792  18.777  40.020   2.818
32860W        W96793  13.308  15.718   2.368
32861W        W96794   0.950  18.577  13.524
32862W        W96795  21.564  38.927  11.516
32863W        W96796   3.366   7.385   0.435
32864W        W96797  22.204  36.876   1.272
32865W        W96798  21.678  39.826   4.224
32866W        W96799  12.269  32.413  11.598
32867W        W96800  25.616  26.071   2.811
32868W        W96801  13.110  44.860   2.826
32869W        W96802  14.262   8.344  13.881
32870W        W96803  29.609  37.498   4.783
32871W        W96804  24.029  31.632   2.899
32872W        W96805  17.668   2.950  12.932
32873W        W96806  25.485  43.493   1.448
32874W        W96807  39.810  38.541   0.343
32875W        W96808  44.760  24.207  12.950
32876W        W96809  37.005  41.854   3.298
32877W        W96810  30.931  20.043  10.466
32878W        W96811   2.785  27.631  14.794
32879W        W96812  10.718  37.451  13.518
32880W        W96813  21.114  23.572  10.406
32881W        W96814  34.385  23.988  12.894
32882W        W96815  21.577  29.439   4.676
32883W        W96816  14.777  34.920   1.395
32884W        W96817  13.618  24.621  13.518
32885W        W96818  15.225  32.550   1.232
32886W        W96819  19.117   4.298  12.407
32887W        W96820  28.142  35.096   1.754
32888W        W96821  25.665  14.243   4.658
32889W        W96822  34.499  37.349   4.114
32890W        W96823   4.445  13.738  10.619
32891W        W96824  20.745   0.983  10.574
32892W        W96825  22.134   1.329  11.025
32893W        W96826  37.961   3.739   0.780
32894W        W96827  41.445  12.197   2.351
32895W        W96828  20.753  40.455  12.018
32896W        W96829  28.571  43.817  14.873
32897W        W96830  24.147   7.193  13.991
32898W        W96831  14.185  38.884   3.173
32899W        W96832   3.283  12.279   0.932
32900W        W96833  24.663  22.722   1.889
32901W        W96834  24.193  19.541   4.216
32902W        W96835  42.881  12.206  11.927
32903W        W96836  10.375  36.351   3.754
32904W        W96837  42.032  12.353   4.263
32905W        W96838   3.425   8.402   1.303
32906W        W96839  30.453   3.233  12.390
32907W        W96840  18.123  37.086  10.635
32908W        W96841  40.496  17.109  10.975
32909W        W96842   6.289  19.213   4.640
32910W        W96843   5.735   2.962   0.457
32911W        W96844  23.055  29.118  13.435
32912W        W96845   5.834  20.151  13.807
32913W        W96846  39.490  34.910   3.827
32914W        W96847  19.672  15.274   3.843
32915W        W96848  29.031  17.168   3.146
32916W        W96849  14.296   5.928   2.694
32917W        W96850  43.954   7.173  10.630
32918W        W96851  23.554  42.331  11.561
32919W        W96852  37.357   3.919   3.294
32920W        W96853  18.742  13.347   2.751
32921W        W96854  28.662  25.129  12.453
32922W        W96855  41.934   3.899   3.714
32923W        W96856  24.513  24.207   3.298
32924W        W96857   2.867   4.758  10.922
32925W        W96858  35.015   4.941   1.342
32926W        W96859   3.300  10.832  13.976
32927W        W96860  38.462   6.384  13.463
32928W        W96861   4.803  37.932   3.146
32929W        W96862  11.372  14.152  12.425
32930W        W96863   9.858  26.546  11.040
32931W        W96864  33.572  38.917  12.541
32932W        W96865  15.137  44.435  14.316
32933W        W96866  21.263  38.879   0.786
32934W        W96867  43.408  28.032  11.512
32935W        W96868  42.913  36.413  13.517
32936W        W96869  21.531  42.280   0.409
32937W        W96870  13.283  25.057  13.920
32938W        W96871  33.497  40.800   0.370
32939W        W96872  33.124  22.159   4.325
32940W        W96873  19.535  40.448   0.843
32941W        W96874  39.914  32.086  10.929
32942W        W96875   0.755  35.571   3.299
32943W        W96876  35.979  29.519  11.884
32944W        W96877  36.854  32.464   1.767
32945W        W96878  20.154  27.506   1.283
32946W        W96879  41.381  35.465  11.413
32947W        W96880   3.448   4.798  11.497
32948W        W96881  21.707   9.289   4.744
32949W        W96882   3.760  26.466   1.310
32950W        W96883   7.378  41.832   1.368
32951W        W96884  34.012  32.022   3.253
32952W        W96885  21.098  41.505  12.934
32953W        W96886   4.934  34.901  12.977
32954W        W96887  22.687  16.111  14.885
32955W        W96888  28.086   6.891   0.790
32956W        W96889  16.638  42.509   4.335
32957W        W96890   7.858  19.638   2.199
32958W        W96891  27.520  30.590  12.563
32959W        W96892  38.830  44.754   2.309
32960W        W96893   2.843  37.437   5.207
32961W        W96894  28.170  27.512  11.496
32962W        W96895  34.580  21.689   3.789
32963W        W96896  19.564  44.442  13.427
32964W        W96897  36.920  17.714   1.696
32965W        W96898   6.262  11.217  10.969
32966W        W96899   5.867   7.679  13.026
32967W        W96900  18.088   7.397  10.139
32968W        W96901  17.688  15.614   2.271
32969W        W96902  34.372   4.723   4.722
32970W        W96903   3.740  10.359   3.865
32971W        W96904   7.765  16.229   2.853
32972W        W96905  38.935  33.587   5.311
32973W        W96906   3.244   5.297  10.508
32974W        W96907  40.427  10.869   3.296
32975W        W96908  26.972  34.901  11.010
32976W        W96909  29.465  15.747  14.885
32977W        W96910  32.454   0.481   3.847
32978W        W96911  16.774  33.977  11.433
32979W        W96912  41.895  24.706  14.946
32980W        W96913  37.525  36.098   3.223
32981W        W96914   1.803  44.965  13.983
32982W        W96915  20.200  25.176  14.960
32983W        W96916   9.854  16.315  10.967
32984W        W96917  18.204   0.379  14.773
32985W        W96918   7.300  32.920  11.461
32986W        W96919   0.378  40.018  13.974
32987W        W96920  16.672   0.950  11.528
32988W        W96921  27.141  23.578   2.734
32989W        W96922   2.863  18.157   0.296
32990W        W96923  27.983  12.179  11.592
32991W        W96924  18.268   4.289   1.289
32992W        W96925  41.855   9.242   2.806
32993W        W96926  23.146  19.218  14.978
32994W        W96927  20.084  29.616  11.063
32995W        W96928  26.599  34.083  14.413
32996W        W96929  38.394  10.731   3.635
32997W        W96930  13.714  13.684  13.457
32998W        W96931  37.416  29.528   4.310
32999W        W96932  27.447  39.430   1.849
33000W        W96933  43.903  22.708   4.350
33001W        W96934  41.476   0.354  11.415
33002W        W96935   3.769  39.529   1.908
33003W        W96936  11.690   5.310   2.266
33004W        W96937  13.825  15.316   4.650
33005W        W96938  19.667  40.303  11.561
33006W        W96939  35.004  16.154   2.768
33007W        W96940  32.047  41.846  12.543
33008W        W96941  10.306  30.621  10.006
33009W        W96942  19.180   4.942  10.492
33010W        W96943  17.129   8.228  12.993
33011W        W96944   9.883  26.183   4.283
33012W        W96945  27.185   1.789  13.509
33013W        W96946  28.952  27.618  11.125
33014W        W96947  20.637  11.183   1.445
33015W        W96948   2.844  27.533   1.824
33016W        W96949  27.606  28.631   4.757
33017W        W96950  30.907  26.054  13.366
33018W        W96951  17.279   2.466   3.259
33019W        W96952   7.230  21.684   3.666
33020W        W96953  26.543  24.636  12.482
33021W        W96954   6.188  10.824   0.822
33022W        W96955  27.195   7.696   0.813
33023W        W96956  17.572  12.844  10.604
33024W        W96957   6.834  39.823  14.973
33025W        W96958  30.580   2.796   0.964
33026W        W96959  28.577  28.125  10.596
33027W        W96960  30.149  23.541   2.328
33028W        W96961  40.021  31.505  12.862
33029W        W96962  26.188  20.568   0.431
33030W        W96963  20.147   0.354   3.169
33031W        W96964   2.393  43.957  10.981
33032W        W96965  25.175  42.384   1.900
33033W        W96966   6.415  12.164   3.856
33034W        W96967  44.836   8.882   1.900
33035W        W96968  10.657  21.749   3.176
33036W        W96969  14.216  26.474   0.779
33037W        W96970  36.376  30.087   2.261
33038W        W96971  37.368  31.476  12.472
33039W        W96972  23.220  38.009  12.488
33040W        W96973  17.745  26.015  14.882
33041W        W96974  20.063  24.013   2.315
33042W        W96975  21.141  25.996   1.721
33043W        W96976  42.300  21.262  12.945
33044W        W96977  14.307   1.783   3.869
33045W        W96978   1.804  42.005  14.291
33046W        W96979  41.377  15.588   3.695
33047W        W96980  11.788   3.345   3.185
33048W        W96981  44.906  13.649  13.021
33049W        W96982  36.538  34.504   1.262
33050W        W96983  41.330  28.971   1.395
33051W        W96984  38.028  20.564  11.006
33052W        W96985   7.701  43.341  13.417
33053W        W96986   9.155  17.561   4.327
33054W        W96987  10.194  18.562   0.897
33055W        W96988  16.773  36.908   3.821
33056W        W96989  18.588  25.163   1.277
33057W        W96990  33.107   3.268   2.882
33058W        W96991  31.484  41.481   4.294
33059W        W96992  36.576  10.352   2.719
33060W        W96993  41.787  31.548   1.353
33061W        W96994  42.008   3.840  12.387
33062W        W96995  16.305  25.991  12.846
33063W        W96996  15.709  27.115   3.669
33064W        W96997  22.104  29.022  12.378
33065W        W96998  37.501   4.857   4.252
33066W        W96999  36.511  21.717   2.193
33067W        W97000  18.098  33.109  10.556
33068W        W97001  17.671  10.360  12.357
33069W        W97002  17.171  40.002  12.931
33070W        W97003  15.749   7.257  12.925
33071W        W97004  16.699  39.444   3.163
33072W        W97005  40.917  28.078   0.797
33073W        W97006  26.480  27.644   2.682
33074W        W97007   8.312   8.865  14.850
33075W        W97008   6.832  23.553  14.408
33076W        W97009  11.230  12.748  13.523
33077W        W97010  28.180  15.104   0.894
33078W        W97011   1.337  27.079   4.159
33079W        W97012  41.926  29.996   1.340
33080W        W97013  11.167  30.010  10.888
33081W        W97014  39.958  16.146   1.910
33082W        W97015  11.248  25.999   2.189
33083W        W97016   7.377  32.912  10.952
33084W        W97017   4.922  17.640  11.529
33085W        W97018  22.104  32.986  13.505
33086W        W97019  22.090  41.331  14.769
33087W        W97020  25.047  40.449   2.331
33088W        W97021  22.133  36.036  10.907
33089W        W97022  26.672   8.878  12.453
33090W        W97023  16.676  36.939   0.291
33091W        W97024  15.698  29.152   1.846
33092W        W97025   8.374  42.852  12.510
33093W        W97026  19.628  38.342   2.315
33094W        W97027  34.466   1.975  13.427
33095W        W97028  21.179  16.807  13.378
33096W        W97029  20.619  10.749   4.181
33097W        W97030   9.275  21.635   3.807
33098W        W97031  14.234  39.980   3.836
33099W        W97032   4.837  18.119   1.713
33100W        W97033  15.247  41.848  12.496
33101W        W97034  41.919   5.869   1.242
33102W        W97035  36.920  39.890  11.407
33103W        W97036  15.204   0.778   4.299
33104W        W97037  24.084   1.821  10.537
33105W        W97038  23.552   3.724  12.500
33106W        W97039  29.645  18.059   1.410
33107W        W97040  32.586  32.052   4.736
33108W        W97041  23.093  43.458   0.837
33109W        W97042   0.317  15.084  14.338
33110W        W97043  39.960  43.773  14.971
33111W        W97044  17.643  27.603  14.779
33112W        W97045   3.855   4.712   2.797
33113W        W97046   9.315  33.988  13.385
33114W        W97047  21.131   7.665   4.212
33115W        W97048  44.268  20.629   4.801
33116W        W97049  23.008  21.034   1.343
33117W        W97050   2.260  40.353   0.913
33118W        W97051  37.871  11.353   1.731
33119W        W97052  28.060  12.321  14.428
33120W        W97053  27.174  11.147   3.827
33121W        W97054   4.760  37.990   4.632
33122W        W97055  19.705  32.595   2.236
33123W        W97056  17.290  18.681  12.019
33124W        W97057  42.454  44.446  14.335
33125W        W97058  12.825  41.441  11.026
33126W        W97059   9.708  34.413   2.289
33127W        W97060  35.588  43.331  12.410
33128W        W97061   5.434  22.252   3.700
33129W        W97062   8.756  35.434  12.046
33130W        W97063  26.474   4.849   3.816
33131W        W97064  31.099   8.852   5.085
33132W        W97065  42.310  28.017  10.893
33133W        W97066   0.319  17.615   2.895
33134W        W97067  29.487  36.900  11.034
33135W        W97068  33.905  25.590  11.599
33136W        W97069  34.074  14.619   4.203
33137W        W97070   9.194   7.192   2.709
33138W        W97071  38.965  33.480  10.426
33139W        W97072  14.181  44.954  10.931
33140W        W97073  13.202  13.142  12.826
33141W        W97074  34.890  41.335   4.346
33142W        W97075  20.165   8.885   1.387
33143W        W97076  34.029   6.418   0.366
33144W        W97077  33.970  25.197  11.451
33145W        W97078  13.264  44.409   0.258
33146W        W97079  28.001  22.243   3.304
33147W        W97080  11.793   0.447  11.913
33148W        W97081  31.932  13.642  12.413
33149W        W97082  35.063  21.026   1.287
33150W        W97083  36.960  43.856  13.856
33151W        W97084  11.646   7.200  12.979
33152W        W97085  30.908  10.868  10.575
33153W        W97086  34.911   5.343   4.142
33154W        W97087  10.721  41.891  12.495
33155W        W97088  38.502  38.036   1.723
33156W        W97089  28.644  19.180   4.242
33157W        W97090  16.219  20.574   1.916
33158W        W97091  29.112   3.847  13.307
33159W        W97092  21.085   7.300  12.947
33160W        W97093  20.217  40.818   0.894
33161W        W97094   6.886  36.881   0.818
33162W        W97095  43.001  37.391  11.118
33163W        W97096  43.416   0.480  14.788
33164W        W97097   0.930  26.637   4.604
33165W        W97098  14.236  12.151  13.506
33166W        W97099  15.636  29.540  13.504
33167W        W97100  20.726  14.685   1.807
33168W        W97101  44.973  31.087  13.049
33169W        W97102  13.244  15.751   3.850
33170W        W97103  28.111  14.797   3.823
33171W        W97104  21.684   3.279   4.733
33172W        W97105  42.463  29.970  12.499
33173W        W97106  36.579  38.325  14.924
33174W        W97107   5.878   4.243  12.004
33175W        W97108   3.426  27.453  10.513
33176W        W97109  42.979  11.648  13.478
33177W        W97110   2.740  25.098  12.443
33178W        W97111  31.565  17.758   3.382
33179W        W97112   2.748  42.471  10.586
33180W        W97113   0.452   1.915   4.142
33181W        W97114   7.252   5.896  13.531
33182W        W97115  31.999  12.271  10.530
33183W        W97116  24.681  43.426   0.296
33184W        W97117  43.332  22.172   3.220
33185W        W97118   8.712   2.227  12.040
33186W        W97119   5.757  16.096  12.908
33187W        W97120  43.809  42.345  10.442
33188W        W97121   7.305  20.079  11.906
33189W        W97122  12.131  16.186  13.382
33190W        W97123  42.475  19.274  13.972
33191W        W97124  21.572  28.568  12.507
33192W        W97125  18.709  11.784  14.975
33193W        W97126  43.771  12.121  11.006
33194W        W97127  13.649   7.256  11.993
33195W        W97128  29.579   1.259   4.220
33196W        W97129  22.014  20.629  14.436
33197W        W97130  29.115  21.631  12.922
33198W        W97131  23.094  28.042   2.901
33199W        W97132  15.756  26.520   4.309
33200W        W97133  35.963  33.399  10.893
33201W        W97134  27.953  17.669   4.263
33202W        W97135  32.888  10.857   1.766
33203W        W97136  10.236  12.340   3.862
33204W        W97137  36.361  26.184   1.271
33205W        W97138  44.916  22.186   3.781
33206W        W97139  32.970  17.676  11.885
33207W        W97140  19.653  23.661   1.817
33208W        W97141  36.417  14.638   1.340
33209W        W97142  17.153  35.856  14.976
33210W        W97143   7.363  10.351   1.284
33211W        W97144  21.625  33.906  14.482
33212W        W97145  15.203  39.912  14.448
33213W        W97146  26.639  37.437   1.863
33214W        W97147  39.052  13.694  12.558
33215W        W97148  23.040  42.444   0.860
33216W        W97149  11.772   2.861   2.757
33217W        W97150   2.786  30.048  14.000
33218W        W97151  30.612  12.199  11.979
33219W        W97152   6.858   4.229  11.399
33220W        W97153  29.011  24.014   1.318
33221W        W97154  37.983  42.527  12.441
33222W        W97155  35.566  30.472  12.974
33223W        W97156  31.466   9.801   1.903
33224W        W97157  28.173   3.316   1.386
33225W        W97158   3.322  10.667   0.376
33226W        W97159  21.643  27.185  13.536
33227W        W97160  33.972  20.082  13.893
33228W        W97161  32.139  23.223  14.277
33229W        W97162  27.677  18.175   3.183
33230W        W97163  13.260  34.505   3.338
33231W        W97164   0.975   6.277   5.178
33232W        W97165  40.851  24.504  10.911
33233W        W97166  42.509  25.579   3.219
33234W        W97167  34.423  13.130  11.026
33235W        W97168   9.235   6.860  11.611
33236W        W97169  18.174  28.591  10.995
33237W        W97170  30.989  16.801  13.440
33238W        W97171  41.501   2.306  13.949
33239W        W97172  34.863  11.141  10.894
33240W        W97173   9.283  23.131   1.745
33241W        W97174   7.234  23.142  14.902
33242W        W97175   1.892  31.603  14.434
33243W        W97176  40.384  19.090   3.810
33244W        W97177  15.639   3.406  14.950
33245W        W97178  43.979  31.546   2.407
33246W        W97179  14.637  35.931   3.334
33247W        W97180  33.107  44.776   2.700
33248W        W97181  15.806   5.311  11.859
33249W        W97182  14.766  30.944   0.310
33250W        W97183   1.928  31.450  10.507
33251W        W97184  15.638  29.139   2.403
33252W        W97185   3.720  27.072   2.349
33253W        W97186   6.376  14.289   3.644
33254W        W97187  44.913   0.963   3.742
33255W        W97188  44.988  12.162  12.068
33256W        W97189  41.880  43.349  13.494
33257W        W97190  35.427  14.772   2.810
33258W        W97191  15.674   2.293  13.901
33259W        W97192  39.051   0.903   4.724
33260W        W97193   2.943  39.363   2.207
33261W        W97194   5.704   2.835   1.340
33262W        W97195  35.458   8.709   5.200
33263W        W97196  29.612  44.006  14.936
33264W        W97197   4.237  12.149  13.387
33265W        W97198  19.129  11.666   4.262
33266W        W97199  30.967  32.952   2.707
33267W        W97200   3.904   1.472  12.867
33268W        W97201  41.304  21.216  12.935
33269W        W97202  20.542  36.057   0.449
33270W        W97203   1.441  14.215   2.842
33271W        W97204   5.395  21.664  13.901
33272W        W97205  41.883  10.368   0.425
33273W        W97206  36.080   8.182   2.388
33274W        W97207  29.502  33.060  12.404
33275W        W97208  22.059  23.724   2.342
33276W        W97209  34.873  10.228  14.476
33277W        W97210  33.082  39.459  10.903
33278W        W97211   4.371   4.246   1.811
33279W        W97212  34.006   7.252   2.817
33280W        W97213  11.734  35.468   1.359
33281W        W97214  31.996  27.058  11.982
33282W        W97215   1.359  14.623  12.413
33283W        W97216  25.492   0.872  11.375
33284W        W97217   5.722  40.536   0.416
33285W        W97218  11.163   0.463  11.870
33286W        W97219  21.137  24.078   0.782
33287W        W97220  41.489   9.295  14.417
33288W        W97221  30.044  40.504   3.339
33289W        W97222  28.446  16.298   4.339
33290W        W97223  17.593  17.575   0.425
33291W        W97224   2.887  44.809  11.514
33292W        W97225  10.187   8.277   1.726
33293W        W97226  25.606  39.825  14.762
33294W        W97227  20.158  44.261   3.705
33295W        W97228  25.621  31.596   1.379
33296W        W97229   5.731  30.122   4.347
33297W        W97230   1.353  41.865  11.468
33298W        W97231  33.099  18.139  11.966
33299W        W97232  36.497  33.129  10.492
33300W        W97233  44.367  12.665  11.597
33301W        W97234  23.990  43.330  12.903
33302W        W97235   9.667  41.971  11.878
33303W        W97236  42.494  13.143   2.387
33304W        W97237   0.789  22.501   3.355
33305W        W97238  23.031  22.078   0.730
33306W        W97239   7.819  23.534   5.295
33307W        W97240  14.592   1.255  11.484
33308W        W97241  13.287  22.079   4.257
33309W        W97242   3.281   8.831  12.840
33310W        W97243   7.400  13.168   2.384
33311W        W97244  41.802  33.621   4.786
33312W        W97245  33.915  23.593   1.437
33313W        W97246  19.194  23.735   0.886
33314W        W97247  28.604  25.633   1.747
33315W        W97248  23.099   4.778  10.503
33316W        W97249  12.312  41.338   4.231
33317W        W97250  12.299  29.590   3.773
33318W        W97251  41.850  22.607   2.289
33319W        W97252  42.472  31.152  10.477
33320W        W97253   8.207  29.654  10.424
33321W        W97254  43.906  35.030   1.276
33322W        W97255  18.247   0.295   4.744
33323W        W97256  29.116  22.198   2.216
33324W        W97257  40.511  17.139  13.811
33325W        W97258   8.847  23.656   0.343
33326W        W97259  20.763  41.370   2.880
33327W        W97260   9.769  15.747   1.878
33328W        W97261  10.787  16.784   1.794
33329W        W97262  37.476  32.462  11.391
33330W        W97263  29.617  24.691  10.563
33331W        W97264  37.352  36.852   1.343
33332W        W97265  13.161  13.259   1.779
33333W        W97266  27.140  11.742  12.487
33334W        W97267  33.549  33.913   1.780
33335W        W97268  44.351   6.395   3.728
33336W        W97269  23.230   1.782   4.155
33337W        W97270   1.476   5.883   2.806
33338W        W97271  25.625  32.446   4.325
33339W        W97272  28.136  39.417   4.627
33340W        W97273  31.536  20.723   1.836
33341W        W97274  31.508  12.169  12.930
33342W        W97275  16.194  40.452  13.385
33343W        W97276   4.712  43.321   1.790
33344W        W97277  33.507  23.723  10.905
33345W        W97278  10.866   4.759   2.186
33346W        W97279   1.832  17.266   0.280
33347W        W97280  36.846  13.629  10.638
33348W        W97281  11.690   9.755  12.379
33349W        W97282  11.835   4.819   1.917
33350W        W97283  40.953  16.589  12.566
33351W        W97284  12.180  30.462  14.430
33352W        W97285  41.462   5.917  11.079
33353W        W97286   9.849   5.925  11.044
33354W        W97287  22.528  40.829  10.955
33355W        W97288  44.784  28.064   0.399
33356W        W97289  23.624  16.794  11.587
33357W        W97290  19.165  32.974   4.658
33358W        W97291  22.653  38.461  10.552
33359W        W97292  26.005  11.249   3.749
33360W        W97293   0.744  33.968   2.404
33361W        W97294  26.138  23.014   2.221
33362W        W97295  16.241  21.649   4.601
33363W        W97296  21.163  16.131  10.480
33364W        W97297  44.791  33.620  10.033
33365W        W97298  24.535  20.618  11.517
33366W        W97299   3.460  14.275   2.884
33367W        W97300  44.384   6.256  12.441
33368W        W97301  21.535  31.583  10.506
33369W        W97302  28.513  36.456  10.509
33370W        W97303   8.708  44.868  13.404
33371W        W97304  20.181  12.857  14.921
33372W        W97305   7.774  44.340  14.344
33373W        W97306  37.575  41.802  12.392
33374W        W97307  29.515  18.764   0.440
33375W        W97308   7.772  42.513  12.826
33376W        W97309  13.130   1.301   2.764
33377W        W97310  11.680  26.073  13.493
33378W        W97311  20.229  14.152   0.335
33379W        W97312  34.108   6.910   2.315
33380W        W97313  34.396  23.030  12.524
33381W        W97314  39.511  44.782   4.659
33382W        W97315   9.390  25.649   0.343
33383W        W97316   1.824   6.803   0.865
33384W        W97317  28.104  22.227  13.457
33385W        W97318   7.734  27.626   9.951
33386W        W97319  21.620   7.323   1.809
33387W        W97320   7.254  28.124  13.399
33388W        W97321  34.035  33.587   0.372
33389W        W97322   9.659  23.100  10.066
33390W        W97323  39.426  26.199  10.899
33391W        W97324  42.014   6.371   0.429
33392W        W97325  44.766  44.779   1.903
33393W        W97326  16.639  38.937  11.931
33394W        W97327  38.043  20.189  11.974
33395W        W97328  27.952   0.283   4.814
33396W        W97329  22.726  35.396   1.803
33397W        W97330  11.845   9.658   1.388
33398W        W97331  43.287  32.896   3.677
33399W        W97332  24.130  40.026  10.909
33400W        W97333  17.692   0.355  10.553
33401W        W97334  36.919   9.302  10.503
33402W        W97335  16.314   8.685   1.717
33403W        W97336  36.387  42.360   4.706
33404W        W97337  16.292  18.616  10.484
33405W        W97338  27.014  13.161  11.534
33406W        W97339  32.529   4.768   3.334
33407W        W97340   4.883  27.036   3.726
33408W        W97341  22.070  44.816  13.361
33409W        W97342  25.658  40.891   4.781
33410W        W97343  25.583   6.731   4.694
33411W        W97344  12.628  25.976   0.853
33412W        W97345  33.908  42.781  14.405
33413W        W97346   2.763  40.518   1.767
33414W        W97347   2.357  23.634   0.463
33415W        W97348  41.474  16.299  12.387
33416W        W97349  42.378  25.024  10.595
33417W        W97350  18.269  37.518   0.451
33418W        W97351  31.621   9.352  14.029
33419W        W97352  38.905  28.452   2.857
33420W        W97353   1.379   5.832   0.297
33421W        W97354  29.451   6.385  13.001
33422W        W97355  12.790  14.831   4.723
33423W        W97356  12.688  13.677  10.635
33424W        W97357  28.565   2.291  13.408
33425W        W97358  33.955  41.395  12.417
33426W        W97359  24.177  38.901   0.828
33427W        W97360  27.188  25.585   4.255
33428W        W97361   1.853  28.603   4.317
33429W        W97362  36.091  22.122  11.005
33430W        W97363  29.158  11.763   2.204
33431W        W97364  19.668  31.482   0.420
33432W        W97365  39.429  13.845   3.218
33433W        W97366   1.953  41.827   4.703
33434W        W97367  41.799   6.757   4.701
33435W        W97368   7.863  38.983  11.901
33436W        W97369   0.287  30.090  13.911
33437W        W97370   6.259  38.050   4.240
33438W        W97371   7.735  22.195   0.889
33439W        W97372  37.363  25.135  14.854
33440W        W97373  37.832   2.361   4.625
33441W        W97374  18.566  16.791   0.868
33442W        W97375  34.073  38.975   4.672
33443W        W97376  40.332   5.200   4.152
33444W        W97377  16.227   3.312   2.840
33445W        W97378  14.707  24.662   4.678
33446W        W97379  38.824   3.324   3.227
33447W        W97380  16.652  39.887  12.384
33448W        W97381  35.452  38.455  12.934
33449W        W97382  43.390  21.213  13.373
33450W        W97383  29.483  31.511  11.491
33451W        W97384  22.645  30.530   3.286
33452W        W97385   7.881   2.895  14.393
33453W        W97386  41.376  30.062   1.352
33454W        W97387  43.482  35.454   5.097
33455W        W97388  34.974  41.836  12.535
33456W        W97389  25.017  40.508   2.884
33457W        W97390  40.444   3.950   0.850
33458W        W97391  17.129  35.519  11.570
33459W        W97392   2.745   3.767   3.366
33460W        W97393  25.685  41.859  10.626
33461W        W97394  15.250  40.515  12.913
33462W        W97395  31.064  44.848   2.724
33463W        W97396   4.878  44.297   2.346
33464W        W97397  40.343  37.909   3.851
33465W        W97398  34.433   7.893   3.738
33466W        W97399  18.133  33.037  12.519
33467W        W97400  21.748  12.353   4.604
33468W        W97401  28.184  37.959  12.497
33469W        W97402  11.637  41.422  10.127
33470W        W97403  37.061  27.048   1.332
33471W        W97404  41.843   4.734   4.673
33472W        W97405  11.748  24.162   3.190
33473W        W97406  40.835  28.566   2.187
33474W        W97407   2.963  25.184   0.866
33475W        W97408   7.352  38.514  12.912
33476W        W97409   8.337  28.449   0.916
33477W        W97410  43.441  14.204   2.847
33478W        W97411  19.127   3.429  13.352
33479W        W97412  29.141  30.978  11.594
33480W        W97413  22.694  12.674   1.822
33481W        W97414   4.293  24.214   9.649
33482W        W97415   0.401  38.929  12.071
33483W        W97416  38.952  41.867   0.741
33484W        W97417   0.780  31.450   2.225
33485W        W97418  13.147   9.385   4.603
33486W        W97419  35.903   0.896  12.917
33487W        W97420  26.068  36.425   2.291
33488W        W97421   1.820  22.131   4.668
33489W        W97422  12.287  31.133  10.621
33490W        W97423  34.054  35.599  13.378
33491W        W97424  12.659   4.239  13.977
33492W        W97425  38.879  22.103  11.403
33493W        W97426  35.370  39.367   4.327
33494W        W97427   6.261  19.275   4.257
33495W        W97428  31.622   2.248   2.783
33496W        W97429   9.250   8.656   0.897
33497W        W97430  15.305  44.902   2.880
33498W        W97431   4.243   3.724  14.868
33499W        W97432  12.647  13.812  13.989
33500W        W97433  36.353  24.631  14.852
33501W        W97434  18.243  10.207  13.969
33502W        W97435  42.457  33.463   3.783
33503W        W97436  19.216  40.036  11.958
33504W        W97437  24.498  44.959  11.096
33505W        W97438  31.999   9.744   2.221
33506W        W97439   2.788   7.679  13.355
33507W        W97440  26.675  17.169   4.809
33508W        W97441  15.109  40.975   2.895
33509W        W97442  26.008   2.301   1.306
33510W        W97443  13.180  29.119   1.251
33511W        W97444  40.454  31.900   1.346
33512W        W97445   2.362  44.874   2.686
33513W        W97446  21.636   3.325   3.377
33514W        W97447  13.313  19.097  13.342
33515W        W97448  29.008   6.309   4.680
33516W        W97449  44.470   2.809   2.771
33517W        W97450  10.633  18.100   0.792
33518W        W97451  24.020  15.783  11.118
33519W        W97452  28.505   0.939  11.446
33520W        W97453  14.752  16.600  14.489
33521W        W97454  43.342  17.267  13.946
33522W        W97455  13.309  21.181   9.979
33523W        W97456  16.134  38.852  10.969
33524W        W97457  13.284  30.445  10.413
33525W        W97458  32.506  10.247   1.239
33526W        W97459  36.065   8.730   4.777
33527W        W97460  27.028  35.539   2.325
33528W        W97461  42.804  16.625   3.690
33529W        W97462  16.261  33.118   2.758
33530W        W97463  32.586  27.591  13.319
33531W        W97464  28.175  16.772   4.184
33532W        W97465   0.388  38.894  10.024
33533W        W97466  28.625  38.397  14.957
33534W        W97467  27.087  28.527  11.984
33535W        W97468   3.376  13.749   0.478
33536W        W97469  31.073  22.587  10.558
33537W        W97470  16.756  21.542   1.714
33538W        W97471  43.864   6.861  13.025
33539W        W97472   2.912  36.862  14.366
33540W        W97473  23.551   0.753  12.374
33541W        W97474  44.793   8.672  10.031
33542W        W97475  42.916  14.194   3.639
33543W        W97476   8.268  43.950  13.847
33544W        W97477   8.323  34.966  10.448
33545W        W97478  12.777  44.427  12.067
33546W        W97479  11.164  24.485  13.423
33547W        W97480  12.152  22.697   3.176
33548W        W97481   1.452  39.471   1.276
33549W        W97482  38.373  40.516   3.256
33550W        W97483  40.465  41.360   2.230
33551W        W97484  28.672  30.501  10.989
33552W        W97485  29.998  29.447  14.419
33553W        W97486  44.491  41.340  12.447
33554W        W97487  15.091  39.036   0.368
33555W        W97488  28.945   4.745  11.089
33556W        W97489  12.640   2.391   4.160
33557W        W97490  31.608  24.109   0.263
33558W        W97491   8.351  28.593  13.817
33559W        W97492  24.131   4.226   1.743
33560W        W97493  32.611  20.126   2.753
33561W        W97494  33.879   9.824  11.113
33562W        W97495  34.075  43.978   1.422
33563W        W97496   2.964  36.003  12.464
33564W        W97497   5.439  44.887  11.916
33565W        W97498  32.886  36.000  11.941
33566W        W97499  13.229   5.362   2.769
33567W        W97500   9.739  42.815   3.328
33568W        W97501  17.251  15.747  11.026
33569W        W97502   8.829   7.200   0.253
33570W        W97503  22.641   7.318   2.798
33571W        W97504  33.471   0.974   3.335
33572W        W97505  26.684  14.615  14.347
33573W        W97506   8.279  36.071  13.510
33574W        W97507  40.523  12.835   3.273
33575W        W97508  44.931   9.650   3.231
33576W        W97509  32.467  27.049  12.959
33577W        W97510  22.136  37.853   1.380
33578W        W97511  19.644   2.343  10.506
33579W        W97512  35.522  39.813   3.324
33580W        W97513  41.504  43.497  12.886
33581W        W97514  16.266  16.781   3.765
33582W        W97515   3.393  35.511  12.339
33583W        W97516   9.833  35.010   0.446
33584W        W97517  39.505  44.891  10.964
33585W        W97518  25.656  44.924   9.930
33586W        W97519  26.595  41.817  14.955
33587W        W97520  30.536  32.997   3.285
33588W        W97521  37.521   8.770  10.899
33589W        W97522   2.724   6.678   0.941
33590W        W97523  33.997   6.257  14.817
33591W        W97524   2.824   6.308  14.993
33592W        W97525   7.288   9.285  13.877
33593W        W97526  27.964  20.082   2.713
33594W        W97527  21.631  15.211   0.276
33595W        W97528   8.297  38.333   0.832
33596W        W97529  34.385   7.298   2.849
33597W        W97530  31.957  23.231   2.787
33598W        W97531  34.545  43.829  14.974
33599W        W97532  31.939  29.541  14.509
33600W        W97533  19.266  39.885   4.276
33601W        W97534  11.758  23.179   4.129
33602W        W97535  37.555   0.284   1.378
33603W        W97536  12.815  29.474   1.755
33604W        W97537  31.461  27.965   1.824
33605W        W97538  13.626   2.741  14.498
33606W        W97539  17.187  13.291   3.696
33607W        W97540  22.529   1.857  13.473
33608W        W97541  16.567  40.852  14.352
33609W        W97542  30.163  43.315   1.893
33610W        W97543  22.591  21.121  13.392
33611W        W97544   0.452   8.699   3.385
33612W        W97545  33.130  35.460  14.015
33613W        W97546  35.499  33.005   4.679
33614W        W97547  16.645  19.745   2.276
33615W        W97548  34.944   5.343   0.406
33616W        W97549   1.426  21.117  10.077
33617W        W97550  38.500   2.417   1.395
33618W        W97551  32.426  32.140  10.572
33619W        W97552  28.069  16.279  13.997
33620W        W97553  43.934   1.357   4.159
33621W        W97554  15.723  15.127  13.430
33622W        W97555  16.738  27.644  10.494
33623W        W97556  32.944  34.070   3.704
33624W        W97557  43.869  10.162  11.982
33625W        W97558  19.260   2.893   4.661
33626W        W97559  27.946  33.600  12.352
33627W        W97560  14.264  15.309  12.990
33628W        W97561   8.252  41.857   3.277
33629W        W97562  35.597  16.127  12.518
33630W        W97563  39.316  13.699  12.572
33631W        W97564  26.145  34.536  10.531
33632W        W97565   8.690  40.966   1.877
33633W        W97566  10.750  27.647  13.871
33634W        W97567  32.397  37.039  13.436
33635W        W97568   0.285  35.074   2.270
33636W        W97569   0.265   8.867  12.534
33637W        W97570  16.707   6.866   0.413
33638W        W97571  35.029   3.256  10.074
33639W        W97572  38.420   3.804  14.382
33640W        W97573  35.457  18.605  10.442
33641W        W97574  35.063  42.463  12.030
33642W        W97575  31.408  42.351  11.493
33643W        W97576  19.765  37.036  11.084
33644W        W97577  31.487  36.898  11.114
33645W        W97578  35.411   2.431  14.888
33646W        W97579  14.194  32.029   5.220
33647W        W97580  19.713  13.619   1.762
33648W        W97581  31.477  34.032  14.008
33649W        W97582  18.051  34.395   3.644
33650W        W97583  34.877  28.931   1.786
33651W        W97584  31.142  21.078  14.374
33652W        W97585   1.246  36.978  14.776
33653W        W97586  44.381  12.845  13.050
33654W        W97587  20.750  21.091   0.967
33655W        W97588  44.359   6.815   4.265
33656W        W97589   4.931  17.219  13.036
33657W        W97590  33.384   4.855  12.496
33658W        W97591  25.038  43.480   3.295
33659W        W97592  18.715  35.959  13.024
33660W        W97593  19.774  29.653  12.579
33661W        W97594  40.454  25.525   4.732
33662W        W97595  14.267  16.690  11.860
33663W        W97596  16.718  37.569  14.341
33664W        W97597  10.374   5.901  12.407
33665W        W97598  21.567  23.232  10.923
33666W        W97599  25.713  38.477   1.700
33667W        W97600  36.521   1.842   1.827
33668W        W97601  31.574   9.182   0.880
33669W        W97602  42.775  31.949   2.886
33670W        W97603  44.999  12.690   0.245
33671W        W97604  36.413  16.202   2.777
33672W        W97605   5.726  14.148   1.386
33673W        W97606  27.485  25.992   2.399
33674W        W97607  41.502  42.800  10.892
33675W        W97608  39.029  35.587  11.876
33676W        W97609  22.739   6.362   2.243
33677W        W97610  39.849  41.314  10.936
33678W        W97611  34.961  10.860   3.312
33679W        W97612  20.160  13.130  10.966
33680W        W97613  22.712  39.486  11.427
33681W        W97614  12.796  32.416  14.459
33682W        W97615  30.070  21.145  13.445
33683W        W97616   6.822  31.978   2.289
33684W        W97617  31.501  18.073   2.740
33685W        W97618   5.362   4.355   9.484
33686W        W97619  11.795   9.269  13.947
33687W        W97620   9.878   0.492  14.398
33688W        W97621  36.970  32.592  14.315
33689W        W97622  19.754   1.382  13.857
33690W        W97623  13.193  13.245   1.250
33691W        W97624  22.720  25.129   5.104
33692W        W97625  15.151  18.098   9.558
33693W        W97626  29.562   1.747  14.870
33694W        W97627  38.939  34.989   3.663
33695W        W97628  25.509   0.263   1.324
33696W        W97629  38.411  10.243   1.890
33697W        W97630  41.381  14.776  14.457
33698W        W97631   7.338   7.890   4.289
33699W        W97632  32.485  23.502  13.866
33700W        W97633   4.406   4.713   1.753
33701W        W97634   7.332  25.632   2.716
33702W        W97635  18.765  25.704   2.394
33703W        W97636  44.836   5.808   1.823
33704W        W97637  21.118  30.976  14.833
33705W        W97638  24.205  44.294   2.257
33706W        W97639  35.566  32.900  12.573
33707W        W97640  22.554  14.616   3.148
33708W        W97641   5.368  31.913   5.212
33709W        W97642  29.575  17.696  11.046
33710W        W97643  14.725  16.724  14.008
33711W        W97644   9.315  19.774  12.851
33712W        W97645  39.005  13.171  14.485
33713W        W97646  33.944  27.524   2.299
33714W        W97647  25.493  30.629   0.324
33715W        W97648   2.465  24.154  11.420
33716W        W97649   8.201   3.270   4.701
33717W        W97650   8.268  26.625  12.358
33718W        W97651  41.341  28.664  11.861
33719W        W97652  19.576  25.150  10.451
33720W        W97653  27.525  15.193  13.808
33721W        W97654  18.220  23.165   4.114
33722W        W97655  26.965  26.973  10.608
33723W        W97656  31.532  18.645  14.780
33724W        W97657  27.046  18.659   2.787
33725W        W97658  11.742  20.251  14.880
33726W        W97659  18.694  32.970  11.545
33727W        W97660  29.486   7.245   1.915
33728W        W97661  36.420  37.476   0.885
33729W        W97662  43.827  33.548  14.908
33730W        W97663  13.134   7.317  14.929
33731W        W97664  18.267   9.677   0.337
33732W        W97665   2.265  25.611   0.365
33733W        W97666   1.247   2.933   2.229
33734W        W97667  44.334  43.404   4.744
33735W        W97668   7.743  16.299  11.086
33736W        W97669  41.368  28.033   4.685
33737W        W97670   4.444  13.723   3.299
33738W        W97671  40.511   3.406   1.787
33739W        W97672  21.185  14.609  10.619
33740W        W97673   9.200  32.898   4.167
33741W        W97674   6.687  43.862   4.684
33742W        W97675  37.844  43.502   0.903
33743W        W97676  24.548  11.832  11.104
33744W        W97677  35.577  35.978  12.920
33745W        W97678   9.864  27.104  11.541
33746W        W97679   3.769   2.229  11.861
33747W        W97680  38.047   1.977  14.324
33748W        W97681  23.000  28.165   9.966
33749W        W97682  22.017  23.503  14.861
33750W        W97683  43.941  24.157  11.457
33751W        W97684   8.187  21.744  13.838
33752W        W97685  11.861   6.219   5.160
33753W        W97686  21.693  28.539   5.186
33754W        W97687  26.143  14.605  10.509
33755W        W97688   8.399  43.967   3.859
33756W        W97689  34.026  30.517  14.333
33757W        W97690  36.925  36.020   4.117
33758W        W97691  32.560  10.869   4.332
33759W        W97692  17.787   3.215   3.220
33760W        W97693  24.982  43.850  14.326
33761W        W97694   5.332  29.029   1.261
33762W        W97695  28.150  18.632  10.915
33763W        W97696   8.227   7.377  12.980
33764W        W97697   4.272  31.066  11.107
33765W        W97698  24.055   4.772  14.892
33766W        W97699  25.495   8.376  14.958
33767W        W97700   6.884  15.673   2.717
33768W        W97701  21.149  28.475   2.294
33769W        W97702  30.051  39.845   3.273
33770W        W97703  43.932  23.173   1.743
33771W        W97704  25.005  25.178  14.978
33772W        W97705   7.346  20.106  12.547
33773W        W97706  31.575  17.760   0.760
33774W        W97707   3.452  40.867  13.385
33775W        W97708  26.983  13.710   3.318
33776W        W97709  41.353  16.224  11.969
33777W        W97710   4.277  11.627   5.099
33778W        W97711   1.842  26.047   1.746
33779W        W97712   6.818  30.039   1.415
33780W        W97713  28.456  38.510   3.383
33781W        W97714  43.868  26.632   4.307
33782W        W97715   6.199  15.579  13.321
33783W        W97716  22.033  40.479   0.415
33784W        W97717  20.525   3.818   0.447
33785W        W97718  17.596  10.330  14.279
33786W        W97719  13.678   0.279   4.627
33787W        W97720  11.814  23.042   3.800
33788W        W97721  19.170   6.749  12.867
33789W        W97722  39.422  32.900   0.460
33790W        W97723  43.446  29.157   0.830
33791W        W97724  43.785  39.968  13.937
33792W        W97725  42.820  42.346  11.042
33793W        W97726  32.054  30.967  13.043
33794W        W97727   1.870  21.708  13.537
33795W        W97728  29.928  10.668   2.327
33796W        W97729  17.652   5.728   0.814
33797W        W97730  20.657  21.540   2.833
33798W        W97731   2.381  20.197   1.309
33799W        W97732   1.830  17.717   3.154
33800W        W97733  23.720  35.003  11.922
33801W        W97734  24.018  25.491  10.586
33802W        W97735  22.634  34.930  10.620
33803W        W97736   8.812  23.623  10.892
33804W        W97737  32.079  23.063   0.339
33805W        W97738   5.416   3.372   4.225
33806W        W97739  15.233  23.557  11.494
33807W        W97740   7.178  11.155  13.941
33808W        W97741  39.066  37.997   0.938
33809W        W97742   5.743  42.840   0.844
33810W        W97743  18.778  16.744  12.551
33811W        W97744  30.089  30.067  12.556
33812W        W97745  33.921  42.775   2.822
33813W        W97746  25.105  18.732  13.885
33814W        W97747  26.957  28.943   0.731
33815W        W97748  20.541  11.148  11.953
33816W        W97749   8.286  22.653   4.169
33817W        W97750   9.300  19.238  12.857
33818W        W97751  17.216  34.444   1.223
33819W        W97752  29.656   3.433  12.347
33820W        W97753  41.954  26.601   0.835
33821W        W97754  31.960   9.875   0.875
33822W        W97755  44.343  23.735  11.979
33823W        W97756   8.889  12.334  13.454
33824W        W97757  34.557  30.620  12.945
33825W        W97758  13.236  25.652  10.907
33826W        W97759  21.204  14.285   3.274
33827W        W97760  24.216  33.390  14.319
33828W        W97761  13.159  26.986   4.250
33829W        W97762  37.487  22.043  11.094
33830W        W97763  38.382   6.849  12.908
33831W        W97764   0.968  29.530   2.862
33832W        W97765   3.789  40.930  14.850
33833W        W97766  29.938   4.301  10.909
33834W        W97767   1.333  25.078  10.966
33835W        W97768  26.698  22.608  11.082
33836W        W97769  29.138  17.110   4.223
33837W        W97770   8.821  32.096   2.796
33838W        W97771  17.243  19.063   0.787
33839W        W97772  40.798  15.179  12.972
33840W        W97773  12.260  24.709   2.701
33841W        W97774  32.124  20.530  12.058
33842W        W97775   3.441  18.644   5.210
33843W        W97776   8.809  22.537  10.983
33844W        W97777  10.800  38.368   0.726
33845W        W97778  17.735  36.016   9.967
33846W        W97779   7.713   5.689  13.531
33847W        W97780   2.282  37.023   3.648
33848W        W97781  21.173  34.943   5.318
33849W        W97782  32.482  21.176  11.494
33850W        W97783  11.153  35.514   1.432
33851W        W97784   5.693  26.053   0.766
33852W        W97785  35.559  33.478  13.457
33853W        W97786  42.301  19.216   1.892
33854W        W97787  31.924  12.737   1.295
33855W        W97788   3.316  19.269  11.539
33856W        W97789   3.730  12.783   1.267
33857W        W97790  13.117  37.029   3.846
33858W        W97791  19.704  11.706   0.450
33859W        W97792  23.589  26.994  11.538
33860W        W97793   2.383  12.669  14.945
33861W        W97794  44.366  37.986  11.591
33862W        W97795  33.568  19.554  14.789
33863W        W97796  27.116  14.635  11.495
33864W        W97797   6.856  38.463  14.777
33865W        W97798   9.736  26.566  14.769
33866W        W97799  33.408  10.705   0.793
33867W        W97800  32.539  42.384   0.267
33868W        W97801  30.071   8.880  11.054
33869W        W97802   8.816   9.849  14.431
33870W        W97803   3.411  36.038  12.569
33871W        W97804   8.164   5.342   1.825
33872W        W97805   3.734  20.755   3.805
33873W        W97806  41.951   3.456  10.569
33874W        W97807  36.379  43.922   3.372
33875W        W97808  31.539  28.955   4.625
33876W        W97809  38.367  34.452   4.835
33877W        W97810  13.631  43.894  12.845
33878W        W97811  44.805  17.302   1.807
33879W        W97812  14.097  16.775   2.209
33880W        W97813  26.701  42.843   1.825
33881W        W97814  10.876   6.754   0.964
33882W        W97815  30.948   2.742   2.727
33883W        W97816   7.343  29.476   2.880
33884W        W97817  18.590  29.627  13.954
33885W        W97818   0.277  28.503  14.980
33886W        W97819   2.917   4.344  14.765
33887W        W97820  42.931  23.618  12.408
33888W        W97821  39.396  32.044   3.206
33889W        W97822  16.085  10.725   2.897
33890W        W97823  16.248   6.270  14.313
33891W        W97824  31.544  27.465  14.973
33892W        W97825  18.611  21.095   1.264
33893W        W97826  23.542  27.023  10.895
33894W        W97827  18.655  43.857  12.425
33895W        W97828  40.310   8.813   5.090
33896W        W97829  34.455   9.674   2.337
33897W        W97830  41.894   6.351   1.224
33898W        W97831  44.432   3.265  12.965
33899W        W97832  21.147  24.993   1.320
33900W        W97833  37.377  16.237   2.306
33901W        W97834   0.280  43.317  12.482
33902W        W97835  31.584  41.860   2.314
33903W        W97836  43.997  44.477   2.343
33904W        W97837  42.820  29.568  14.813
33905W        W97838  37.484  28.578   4.277
33906W        W97839  10.242  24.557  11.454
33907W        W97840  23.071   8.809  10.444
33908W        W97841  24.550  33.030  10.584
33909W        W97842  41.350   4.278   4.307
33910W        W97843  22.113  41.818  14.344
33911W        W97844  36.029  29.520  10.591
33912W        W97845  39.448   1.393  14.347
33913W        W97846  35.075  29.462  11.962
33914W        W97847  39.825  37.955   2.798
33915W        W97848  21.598   4.734  14.400
33916W        W97849  36.066  26.627  14.934
33917W        W97850  34.539   1.238   1.253
33918W        W97851  24.102  30.584   0.249
33919W        W97852  24.612  33.884  10.618
33920W        W97853  39.042  28.450  14.986
33921W        W97854  16.256   7.261   0.454
33922W        W97855  27.183  44.279  10.928
33923W        W97856  28.582   6.361   4.718
33924W        W97857   9.283  25.141  12.507
33925W        W97858  43.868  15.768  12.443
33926W        W97859  14.333  23.635  10.642
33927W        W97860  34.948   7.703   1.894
33928W        W97861  41.960   7.266  11.023
33929W        W97862   5.899  19.214   0.389
33930W        W97863  40.304  20.051  13.525
33931W        W97864  29.543  43.375   3.294
33932W        W97865  22.099  30.929  10.945
33933W        W97866  33.888   7.224  13.326
33934W        W97867  14.611  36.347   2.847
33935W        W97868  23.516   4.344   4.179
33936W        W97869  35.869   3.443  11.402
33937W        W97870  24.983   6.753   2.817
33938W        W97871  31.078  28.111  13.451
33939W        W97872  37.040   6.883  12.488
33940W        W97873  29.079   9.655   3.180
33941W        W97874  21.037  42.450  14.405
33942W        W97875  28.971  36.437   3.238
33943W        W97876  11.325  37.365  11.862
33944W        W97877  28.654  27.542  11.073
33945W        W97878  44.850  36.040  11.949
33946W        W97879  29.615  35.412   4.738
33947W        W97880  22.747  12.240   2.753
33948W        W97881   3.841  17.225   4.161
33949W        W97882  44.466   6.428  14.796
33950W        W97883  20.546  42.026   2.214
33951W        W97884  12.140  37.524  11.373
33952W        W97885   3.387  21.571  10.429
33953W        W97886  11.352  41.944  12.095
33954W        W97887  35.549  24.538  12.464
33955W        W97888  29.618  32.015  13.979
33956W        W97889  15.163  19.646  14.922
33957W        W97890   5.704   5.338   0.942
33958W        W97891  24.563   6.205  10.996
33959W        W97892  31.421  26.176   3.863
33960W        W97893  32.121  30.594   1.915
33961W        W97894  36.081   5.762  14.795
33962W        W97895  30.443  14.241  12.089
33963W        W97896  33.107  44.492   0.468
33964W        W97897   6.877  34.559   4.834
33965W        W97898  24.650  21.745   0.932
33966W        W97899  17.106  28.059   3.329
33967W        W97900   9.872  27.950  12.835
33968W        W97901   5.335  10.273  10.472
33969W        W97902  20.224  17.147   0.378
33970W        W97903  36.047  28.033  13.057
33971W        W97904  25.175  13.237   5.212
33972W        W97905  31.018  32.510   0.268
33973W        W97906  23.092  31.460   2.819
33974W        W97907  32.530  30.634   4.150
33975W        W97908  44.325  25.056   2.736
33976W        W97909  31.101  18.132   4.823
33977W        W97910   5.711  11.703  12.560
33978W        W97911   6.712  15.795   3.194
33979W        W97912  44.943  21.037  11.117
33980W        W97913  24.479  20.724   1.929
33981W        W97914   7.850  44.789  11.085
33982W        W97915   3.294  41.534  10.597
33983W        W97916  31.591  35.535   2.408
33984W        W97917   2.425  24.581  14.828
33985W        W97918  19.087  38.012  11.041
33986W        W97919  24.981  34.579   4.208
33987W        W97920   1.889   2.733   2.802
33988W        W97921  26.582  26.997   0.430
33989W        W97922  38.833  39.843  11.975
33990W        W97923  23.016   2.327  12.963
33991W        W97924   0.400  22.558   1.328
33992W        W97925  16.270  40.054  13.004
33993W        W97926  42.795  22.066   2.187
33994W        W97927   2.750   6.283   1.778
33995W        W97928  28.577   3.244  12.013
33996W        W97929  15.241   9.871   2.827
33997W        W97930  39.371  31.021  14.763
33998W        W97931  25.131  43.287  10.474
33999W        W97932  21.650  36.000   4.330
34000W        W97933  35.590   3.787   1.333
34001W        W97934  15.238  39.820  10.932
34002W        W97935  15.096   0.853   0.818
34003W        W97936   8.290  13.646  12.001
34004W        W97937   7.752   6.417   5.306
34005W        W97938  40.977  26.077  14.824
34006W        W97939  33.573  20.112  13.061
34007W        W97940   9.339   9.651   3.772
34008W        W97941  21.615  43.305   3.743
34009W        W97942   1.426  38.469   1.362
34010W        W97943  12.800  36.994   2.743
34011W        W97944  31.135  12.197   0.337
34012W        W97945  25.077  35.968  12.496
34013W        W97946  27.448   0.914   2.855
34014W        W97947  19.116  35.545  10.462
34015W        W97948   8.277   1.255   1.357
34016W        W97949  36.393  32.071  13.931
34017W        W97950   1.808  20.590  13.395
34018W        W97951  24.002  12.210   1.420
34019W        W97952  42.840  32.108   4.626
34020W        W97953  15.800  41.494   1.334
34021W        W97954   9.889   4.870   0.916
34022W        W97955  26.693  28.966   4.782
34023W        W97956   3.838   4.244  14.907
34024W        W97957  36.359  31.539   1.218
34025W        W97958  15.703  39.825  13.860
34026W        W97959  24.630  24.976   2.891
34027W        W97960   2.944  23.138   4.342
34028W        W97961  40.498  38.420  14.027
34029W        W97962  10.263  24.083   4.731
34030W        W97963  10.844  32.924   3.802
34031W        W97964   7.744  29.125   1.695
34032W        W97965  34.508  39.881  14.976
34033W        W97966  21.602  36.421  11.521
34034W        W97967  14.143   4.436   4.721
34035W        W97968  42.996  30.570  11.950
34036W        W97969   3.757  29.454  10.936
34037W        W97970  37.360  13.194   1.378
34038W        W97971   7.876  22.172   2.819
34039W        W97972  23.541  43.424   0.455
34040W        W97973  28.516   2.781   4.818
34041W        W97974  43.869  35.964   3.772
34042W        W97975   8.360  31.972   3.246
34043W        W97976  15.307  10.634  12.024
34044W        W97977  25.982  11.282  13.512
34045W        W97978   8.704  22.548  13.428
34046W        W97979  28.092  16.282  12.371
34047W        W97980   5.711  38.919  14.914
34048W        W97981  38.942  31.963   5.206
34049W        W97982  15.755  39.920   0.879
34050W        W97983  10.746   6.854   0.335
34051W        W97984  19.284  30.998  14.368
34052W        W97985   9.730   7.287  14.914
34053W        W97986  42.868  31.419   2.198
34054W        W97987   8.403  26.129  12.527
34055W        W97988  11.780   9.647  13.893
34056W        W97989  17.607  39.500   0.287
34057W        W97990  31.606  21.672  10.891
34058W        W97991  37.378  41.505   2.179
34059W        W97992  36.557  41.918  12.044
34060W        W97993  38.490  25.538  11.055
34061W        W97994  34.487  11.264  11.606
34062W        W97995  18.678   3.264   4.257
34063W        W97996  44.448  30.006  12.345
34064W        W97997  15.305  44.318   3.631
34065W        W97998  11.753   9.686   1.856
34066W        W97999  36.891   7.707  12.405
34067W        W98000  15.590  15.119  10.588
34068W        W98001  24.535  36.029  11.469
34069W        W98002  14.770  36.569  11.071
34070W        W98003  40.377  38.484  13.516
34071W        W98004   8.693   4.827   0.871
34072W        W98005  38.929  21.047   3.783
34073W        W98006  10.213  38.905   0.266
34074W        W98007  40.337  21.124   0.857
34075W        W98008   8.379  35.371   3.674
34076W        W98009  26.590  38.551   4.774
34077W        W98010   7.905  25.179  13.017
34078W        W98011   1.263  23.178   2.325
34079W        W98012  22.174  31.124  14.024
34080W        W98013  18.216  44.293   0.787
34081W        W98014  12.118   1.788   0.864
34082W        W98015  40.846   4.269  10.594
34083W        W98016   3.777   6.760   1.870
34084W        W98017  23.609  20.597   3.269
34085W        W98018  18.643   1.415   0.418
34086W        W98019  37.036  39.507  13.347
34087W        W98020  24.156   3.246   0.351
34088W        W98021  13.256  10.263  13.546
34089W        W98022   4.313  42.011   4.275
34090W        W98023  34.987  14.694  13.326
34091W        W98024  23.055  24.991   5.174
34092W        W98025  25.008  29.492   3.778
34093W        W98026  31.405  27.499  13.370
34094W        W98027  32.575  19.619  13.804
34095W        W98028  15.114  28.025   4.304
34096W        W98029  35.981   7.675   4.711
34097W        W98030  40.416  33.507   0.957
34098W        W98031  30.536  31.974  12.876
34099W        W98032  30.977  22.743   1.351
34100W        W98033  11.260  12.736   1.391
34101W        W98034  15.297  25.162  10.530
34102W        W98035  26.584  11.346   1.806
34103W        W98036   6.802  35.398  10.592
34104W        W98037  12.334  23.642  10.548
34105W        W98038  19.115  29.471  11.533
34106W        W98039  24.591  17.716   0.398
34107W        W98040  44.005   3.948   4.148
34108W        W98041  42.395  29.487  14.439
34109W        W98042  31.065  36.419   3.854
34110W        W98043  19.243  43.510  14.406
34111W        W98044  39.542   6.261   2.218
34112W        W98045  42.992  18.721   0.958
34113W        W98046  29.660  13.134  12.919
34114W        W98047   1.831  37.019  11.514
34115W        W98048  37.856  22.152   2.247
34116W        W98049  28.658  21.696   4.756
34117W        W98050  20.042  15.172   2.859
34118W        W98051   1.957  16.684  11.409
34119W        W98052   1.964   2.372   0.804
34120W        W98053  17.776  21.604  14.418
34121W        W98054  38.007  27.032   4.347
34122W        W98055  38.895   1.406  12.837
34123W        W98056  32.510   4.765   2.809
34124W        W98057   6.232   4.238  14.507
34125W        W98058  34.889  43.429   0.951
34126W        W98059  40.401   9.764   2.186
34127W        W98060  12.298  44.755   1.410
34128W        W98061  21.576  18.741  14.470
34129W        W98062  35.442  34.585  12.522
34130W        W98063  37.031   7.338  13.505
34131W        W98064  39.053  38.825   4.738
34132W        W98065   9.880   0.808  10.629
34133W        W98066  24.206  26.117   0.468
34134W        W98067  26.697   7.349  10.477
34135W        W98068  37.873  10.153  14.471
34136W        W98069  20.569  37.889   1.437
34137W        W98070  17.750  20.041   1.872
34138W        W98071  27.019   9.768  14.465
34139W        W98072   7.221   4.436   3.853
34140W        W98073  15.603   5.344   4.306
34141W        W98074  24.014  25.596   3.149
34142W        W98075  33.498   3.818   5.189
34143W        W98076  31.948  30.942   1.764
34144W        W98077  24.062  14.299  11.439
34145W        W98078  43.874  38.017   2.278
34146W        W98079   1.914  10.705  10.422
34147W        W98080  38.988  36.066   1.355
34148W        W98081   7.697  22.217   2.293
34149W        W98082   1.864  33.131  10.643
34150W        W98083  24.146   9.801  14.312
34151W        W98084  15.182  24.074   3.283
34152W        W98085   2.320  29.627   3.152
34153W        W98086  35.548  36.944  13.841
34154W        W98087   8.254   6.246  10.458
34155W        W98088  25.691  37.549   3.814
34156W        W98089  13.609   9.166  14.995
34157W        W98090  28.583   2.266  12.082
34158W        W98091  42.938  30.025   1.220
34159W        W98092   5.377  18.608   2.308
34160W        W98093  35.940  20.753  14.808
34161W        W98094   2.446  44.908   4.113
34162W        W98095   5.805  10.161   2.277
34163W        W98096  37.356  33.564   2.877
34164W        W98097  34.013   6.807  13.995
34165W        W98098  23.645  41.390   3.693
34166W        W98099  21.085  22.224   2.813
34167W        W98100  42.848  13.603   3.771
34168W        W98101  15.184  35.879  13.018
34169W        W98102  13.683  19.663   0.911
34170W        W98103  24.552   3.408  13.791
34171W        W98104  29.065   7.817  14.970
34172W        W98105   4.423   1.416   0.258
34173W        W98106   5.301  14.805   3.180
34174W        W98107   1.764  41.395   0.362
34175W        W98108  20.078   8.664  10.464
34176W        W98109   3.789  19.605   3.813
34177W        W98110  10.366  43.292   4.344
34178W        W98111  39.446   3.259  10.532
34179W        W98112   0.828  27.607   4.256
34180W        W98113  27.160  36.357  12.847
34181W        W98114  27.969  33.393   2.751
34182W        W98115  32.403  42.289  11.380
34183W        W98116  20.274  31.509  11.900
34184W        W98117  30.490  25.522  14.888
34185W        W98118   4.306  17.221  12.387
34186W        W98119  31.644  10.709   2.682
34187W        W98120  12.257  19.751   4.657
34188W        W98121  41.960  18.057  11.423
34189W        W98122  25.146   1.409  11.979
34190W        W98123  38.450  26.484  11.020
34191W        W98124   1.413  11.699  13.803
34192W        W98125  23.589   4.339  13.879
34193W        W98126  32.637  18.249  10.912
34194W        W98127  33.570  27.616   1.813
34195W        W98128   1.387  38.893   1.259
34196W        W98129   8.825  43.314  12.905
34197W        W98130  15.607  37.840   0.300
34198W        W98131  10.193  35.959   1.428
34199W        W98132  19.234  34.957   1.444
34200W        W98133  10.851  36.925   1.854
34201W        W98134  30.485  34.868  11.593
34202W        W98135  41.398  27.660   1.260
34203W        W98136  43.292  34.491   1.353
34204W        W98137  28.469  44.479  13.347
34205W        W98138   3.351   2.371  14.980
34206W        W98139  22.722  34.542  13.845
34207W        W98140  26.703  31.115   0.296
34208W        W98141   9.763  20.125   3.152
34209W        W98142  21.252  29.060  14.008
34210W        W98143  22.085  22.131  10.897
34211W        W98144  12.811  26.637  10.529
34212W        W98145  37.045   3.371   3.754
34213W        W98146  34.902  37.041  11.954
34214W        W98147  34.597  28.601   4.603
34215W        W98148  20.188  28.510  11.126
34216W        W98149  39.324  38.545  13.495
34217W        W98150  18.071  20.204  12.458
34218W        W98151  34.414  20.743   0.900
34219W        W98152   9.327  38.425  12.889
34220W        W98153   2.295  28.175  12.367
34221W        W98154   6.248  10.244  10.640
34222W        W98155   5.731  22.594  14.912
34223W        W98156  10.693  16.254  14.466
34224W        W98157  25.637  39.416   0.758
34225W        W98158  38.959  43.281   9.948
34226W        W98159  40.536  33.007   2.239
34227W        W98160  39.920   6.762   4.671
34228W        W98161   6.736  23.551  13.362
34229W        W98162  39.391  28.665   2.344
34230W        W98163   0.774  33.111   4.834
34231W        W98164  39.458  43.808   0.845
34232W        W98165   6.305  15.320   0.393
34233W        W98166  11.855  38.069   4.329
34234W        W98167  24.531  36.887   1.211
34235W        W98168  18.150  24.683   0.754
34236W        W98169  28.619  36.003   3.194
34237W        W98170  11.165  27.053   4.665
34238W        W98171  23.226   1.805  12.906
34239W        W98172  31.148  40.877  11.096
34240W        W98173   7.417  35.098  13.818
34241W        W98174   0.985  20.213   0.253
34242W        W98175  37.045  11.803   1.419
34243W        W98176  23.123  11.713  13.028
34244W        W98177  22.576  35.501   4.776
34245W        W98178  13.272   4.940  11.962
34246W        W98179  36.361  35.433   0.730
34247W        W98180  33.084  24.067   3.166
34248W        W98181  33.116   0.419   4.639
34249W        W98182  43.458   6.874  11.936
34250W        W98183  29.569   1.943  12.426
34251W        W98184   9.267  30.537  12.036
34252W        W98185  13.684  16.696   1.770
34253W        W98186  28.152  20.722   3.837
34254W        W98187  30.492  34.388   3.256
34255W        W98188  35.935  10.872   4.799
34256W        W98189  35.915  22.747  10.469
34257W        W98190   9.231  39.469   4.835
34258W        W98191   9.175  30.503   5.280
34259W        W98192   0.349  25.711  14.276
34260W        W98193  37.512  35.008   5.167
34261W        W98194   7.314  23.108   2.766
34262W        W98195  31.031  34.594  13.442
34263W        W98196   4.305  15.227  14.323
34264W        W98197  35.033  11.225   1.301
34265W        W98198  34.571  28.583   2.670
34266W        W98199  10.142  23.089  10.420
34267W        W98200   2.936  26.013   2.188
34268W        W98201   6.407  29.025  13.897
34269W        W98202   1.761   1.369   3.773
34270W        W98203   7.247  17.575   3.330
34271W        W98204  22.551  13.348  14.478
34272W        W98205  35.082  37.847   1.248
34273W        W98206  10.739  41.356   4.351
34274W        W98207  32.053   9.841  12.994
34275W        W98208  39.998  44.261  12.421
34276W        W98209  13.324  19.245   3.658
34277W        W98210  11.231  41.355  12.949
34278W        W98211  32.444  12.851  12.426
34279W        W98212   1.360  27.078   0.368
34280W        W98213  33.412  43.301   4.247
34281W        W98214   3.379   9.379   4.308
34282W        W98215  35.540  44.799   4.324
34283W        W98216  30.979   6.841   4.233
34284W        W98217  13.265  22.634  13.906
34285W        W98218  19.726  24.188   3.783
34286W        W98219  13.763   7.359  13.494
34287W        W98220   3.415   6.186   1.811
34288W        W98221  10.322  33.594  11.426
34289W        W98222  30.074  29.156  11.927
34290W        W98223  30.959  36.495  13.847
34291W        W98224  12.762   7.287  11.917
34292W        W98225  35.444   0.342   2.192
34293W        W98226  12.322   6.878   0.905
34294W        W98227  18.702  27.534  12.374
34295W        W98228  18.633  23.537  10.443
34296W        W98229  20.715  39.854   3.766
34297W        W98230  12.825  43.459   3.237
34298W        W98231  28.008  14.317   0.315
34299W        W98232  32.065  44.843  13.965
34300W        W98233  12.116  41.972   1.915
34301W        W98234  28.601  34.949   1.794
34302W        W98235  21.583  15.093  11.440
34303W        W98236  32.968   8.291   0.846
34304W        W98237  19.281  44.793  14.453
34305W        W98238   7.197  38.000  11.374
34306W        W98239  39.431  36.000   4.806
34307W        W98240  37.942  26.478  11.416
34308W        W98241  20.180  41.875  14.842
34309W        W98242  40.051  29.535  12.038
34310W        W98243   1.915  18.250  12.026
34311W        W98244  14.702   5.329  12.028
34312W        W98245   8.693  32.119   2.296
34313W        W98246  15.194   5.231   1.268
34314W        W98247  34.946  14.312   1.399
34315W        W98248  42.301  15.626  14.438
34316W        W98249   3.399  19.250  14.796
34317W        W98250   7.347   0.285   2.839
34318W        W98251  21.753  41.313   1.283
34319W        W98252  18.766  24.636  11.456
34320W        W98253   9.177   4.277   4.671
34321W        W98254  21.054   7.815   0.302
34322W        W98255   9.802  19.722   2.328
34323W        W98256  26.192  12.315  10.902
34324W        W98257  30.975  25.001  10.888
34325W        W98258  27.673  25.635   4.793
34326W        W98259  30.125  32.138   3.386
34327W        W98260   0.834  44.305   9.969
34328W        W98261   9.382  20.547  10.908
34329W        W98262  17.157  25.029  10.956
34330W        W98263  11.722  23.710   4.765
34331W        W98264  18.784  39.548   1.211
34332W        W98265  12.153  14.219   0.761
34333W        W98266  30.938  13.620  13.063
34334W        W98267  44.418  25.609   4.168
34335W        W98268  38.561  17.095  10.423
34336W        W98269  36.909  11.634  13.990
34337W        W98270  25.220  42.807  13.887
34338W        W98271  43.494  40.548  12.046
34339W        W98272  35.023  42.357  10.984
34340W        W98273  33.052   5.816  10.995
34341W        W98274  18.267  34.520   4.706
34342W        W98275  15.733   5.913   0.383
34343W        W98276  32.464  31.453  12.408
34344W        W98277  19.736   7.770  11.961
34345W        W98278  10.651  35.031   1.815
34346W        W98279  10.847   7.345   3.221
34347W        W98280  34.867  29.924  10.933
34348W        W98281  21.055  25.066  14.792
34349W        W98282  43.336  15.090  14.422
34350W        W98283  30.501  18.704  12.064
34351W        W98284   9.790   6.265  12.432
34352W        W98285  43.776  23.194   3.300
34353W        W98286  43.421  25.137   2.815
34354W        W98287  43.800  27.519  10.495
34355W        W98288   6.192  19.279  13.414
34356W        W98289  11.178  29.597   4.267
34357W        W98290  13.130   4.288   2.671
34358W        W98291   9.281   2.807   1.251
34359W        W98292  24.217  29.487   3.724
34360W        W98293  24.673  42.504  12.427
34361W        W98294  10.150  15.603   1.219
34362W        W98295  14.182  36.853   2.408
34363W        W98296  14.118   6.419   1.707
34364W        W98297  19.206  36.364   0.933
34365W        W98298  44.962  25.631   4.152
34366W        W98299  15.691  27.949  11.380
34367W        W98300  30.480  37.982   0.797
34368W        W98301  44.421  40.899  13.821
34369W        W98302  34.952  33.991   1.341
34370W        W98303  17.690  21.556  14.884
34371W        W98304  21.117   2.836  14.840
34372W        W98305  29.596  37.387   3.767
34373W        W98306   9.313   1.822   5.102
34374W        W98307  35.003  33.101  11.443
34375W        W98308  19.585  14.667   2.215
34376W        W98309   4.862   5.838  11.583
34377W        W98310  20.076  15.285   5.299
34378W        W98311  22.077   4.397   1.419
34379W        W98312  35.378  19.762  11.073
34380W        W98313  33.408  40.326  10.617
34381W        W98314  20.545  31.127  13.829
34382W        W98315  13.133  38.440  13.415
34383W        W98316  13.749  36.958  14.870
34384W        W98317  29.012  22.663   4.758
34385W        W98318   5.696  16.654   3.315
34386W        W98319  41.855  31.108   4.752
34387W        W98320   7.375  21.644  12.340
34388W        W98321  14.673   5.730  11.449
34389W        W98322   5.725  32.139   3.660
34390W        W98323  34.924  27.448   1.855
34391W        W98324  24.032   8.184  13.402
34392W        W98325  20.587   8.695   3.186
34393W        W98326  21.602  36.061  14.928
34394W        W98327  36.562   1.978   0.896
34395W        W98328  28.546  35.050  14.406
34396W        W98329   3.880  24.999   4.307
34397W        W98330  23.493   5.425   4.631
34398W        W98331  10.730  16.230   0.267
34399W        W98332  15.677  20.196  14.877
34400W        W98333  23.215   3.871   0.337
34401W        W98334  35.011  40.369   2.256
34402W        W98335  26.517   9.394   4.253
34403W        W98336  38.820  43.787  12.403
34404W        W98337  23.022   0.426  12.519
34405W        W98338  10.220  40.915   1.795
34406W        W98339  24.721  42.818  12.049
34407W        W98340   0.301  30.151  14.846
34408W        W98341   1.288  25.609   3.156
34409W        W98342   1.774  14.188   4.205
34410W        W98343  23.207  38.988  14.015
34411W        W98344  35.091  22.016  11.476
34412W        W98345  18.673  16.148   2.668
34413W        W98346   3.279  38.982   1.293
34414W        W98347  25.024   6.205  10.925
34415W        W98348  39.823  35.956  13.872
34416W        W98349  34.570   5.393   1.346
34417W        W98350   5.205  22.248  13.846
34418W        W98351   0.867   3.216  11.100
34419W        W98352   7.835  13.288   0.743
34420W        W98353  20.115  14.255   0.824
34421W        W98354  15.620   0.892   3.350
34422W        W98355  21.518   7.819  11.124
34423W        W98356  28.932  15.152   0.387
34424W        W98357  25.967  10.173   9.596
34425W        W98358   2.244  35.929  12.426
34426W        W98359  20.172  13.137  12.946
34427W        W98360  16.745  33.553  12.902
34428W        W98361  24.202  23.643  14.833
34429W        W98362  33.022  40.443   1.772
34430W        W98363  43.467  17.669  14.933
34431W        W98364   0.906  30.037  12.039
34432W        W98365  31.115   4.737  10.053
34433W        W98366   3.775  40.924  11.977
34434W        W98367  16.745   1.398  13.430
34435W        W98368  31.436   7.820   2.847
34436W        W98369  26.178  10.679  11.986
34437W        W98370  44.919   3.873  11.603
34438W        W98371  38.422  26.592   3.702
34439W        W98372  28.958  23.008  12.554
34440W        W98373   6.803   4.258  13.901
34441W        W98374  43.277  29.542   0.746
34442W        W98375  19.064  14.679  10.890
34443W        W98376  20.615  27.175   4.222
34444W        W98377  13.141   6.810   4.190
34445W        W98378  41.428  35.392   4.673
34446W        W98379  22.252  21.590  11.482
34447W        W98380  30.431  28.456   3.704
34448W        W98381  35.404   5.240  10.511
34449W        W98382  18.059  41.032   4.322
34450W        W98383  28.467  12.169   2.298
34451W        W98384   7.370  30.503   0.855
34452W        W98385   7.878  38.498  13.906
34453W        W98386   5.782  16.717   4.346
34454W        W98387   4.300  12.117   0.382
34455W        W98388  24.563  16.777  14.973
34456W        W98389  18.280  37.843   1.271
34457W        W98390  20.747  10.304   4.118
34458W        W98391  29.515   7.347  14.986
34459W        W98392   8.865  22.635  14.885
34460W        W98393   4.324   2.746   3.784
34461W        W98394  33.593   4.826   2.672
34462W        W98395  15.734   5.399  14.839
34463W        W98396   9.852  18.210  11.457
34464W        W98397   4.296  42.465  14.338
34465W        W98398  32.565  16.187   1.363
34466W        W98399  27.548  24.702  14.296
34467W        W98400  29.996  44.464   3.153
34468W        W98401  37.568  20.264  11.890
34469W        W98402  42.870  27.980   4.146
34470W        W98403  43.505  41.010   3.691
34471W        W98404   2.925  10.799   2.830
34472W        W98405   1.912   0.946  11.050
34473W        W98406   6.183  19.645  12.431
34474W        W98407   6.346  16.608   1.708
34475W        W98408  11.671  34.873  13.827
34476W        W98409  10.743  15.208   3.851
34477W        W98410  18.293  41.906  11.550
34478W        W98411  11.814  31.917  10.932
34479W        W98412   9.693  24.033  13.538
34480W        W98413  19.755   8.238   3.645
34481W        W98414   0.953   6.330   3.384
34482W        W98415   8.843  39.552  10.935
34483W        W98416   7.323  21.674  10.553
34484W        W98417   4.928  18.744  11.868
34485W        W98418  34.442  38.073   0.262
34486W        W98419   7.741  18.702  14.334
34487W        W98420  40.324   1.782  12.956
34488W        W98421  42.025  14.602  10.470
34489W        W98422  18.070  18.237  13.997
34490W        W98423  13.633  11.746  12.409
34491W        W98424   1.789  13.283  12.404
34492W        W98425  30.539  28.678  10.954
34493W        W98426  13.190  33.069   4.223
34494W        W98427  17.598  29.506   5.235
34495W        W98428  33.074  20.623  14.775
34496W        W98429  14.261  30.126  10.415
34497W        W98430  14.777  23.583   1.433
34498W        W98431  34.864  32.515  12.479
34499W        W98432  36.392  23.992  13.792
34500W        W98433  18.257   2.945  12.349
34501W        W98434  12.358  31.444   1.859
34502W        W98435  34.998  41.945   1.292
34503W        W98436   0.827  21.641  12.365
34504W        W98437   5.266  14.722   0.820
34505W        W98438  42.985  44.846  11.091
34506W        W98439  39.442  29.110  10.427
34507W        W98440  35.887  42.993  13.966
34508W        W98441  30.415  24.100   2.321
34509W        W98442   5.369  35.551   0.810
34510W        W98443   9.710   4.357  14.336
34511W        W98444  15.738  13.334   1.447
34512W        W98445  33.920  17.595   0.938
34513W        W98446  41.786  35.942   1.812
34514W        W98447   5.237   4.321   3.729
34515W        W98448  22.128  26.567  10.616
34516W        W98449  36.555  33.919   1.407
34517W        W98450  17.153   7.245   5.204
34518W        W98451  35.071  28.171  14.276
34519W        W98452  10.236  25.108   4.706
34520W        W98453  11.714  10.382  12.012
34521W        W98454   0.252  34.525  13.968
34522W        W98455  20.267  39.400   1.432
34523W        W98456  14.723   8.761  13.417
34524W        W98457  35.022   9.695   0.864
34525W        W98458  13.752  44.473   2.781
34526W        W98459  29.602  21.226  12.393
34527W        W98460  35.453   7.732  12.024
34528W        W98461  24.157  21.604   4.260
34529W        W98462  25.562  24.051  10.415
34530W        W98463  30.569  13.107   0.328
34531W        W98464  43.314  33.944  11.865
34532W        W98465  17.110   9.753  14.915
34533W        W98466  28.117  16.604  12.547
34534W        W98467  40.858  40.020   0.451
34535W        W98468  27.183  44.865   1.357
34536W        W98469   6.350   9.311  14.002
34537W        W98470   7.189   9.203  11.899
34538W        W98471  42.509  44.870  12.525
34539W        W98472  17.745  36.415   0.931
34540W        W98473  20.714  10.822  11.392
34541W        W98474  28.575   2.287   1.426
34542W        W98475  35.375  27.544  14.858
34543W        W98476  21.559  29.091  10.577
34544W        W98477  37.020  22.702   3.280
34545W        W98478  35.038  36.410  10.944
34546W        W98479  20.226  43.949  12.520
34547W        W98480   5.722   2.298   0.418
34548W        W98481  17.577  22.194   4.798
34549W        W98482  17.746  27.635  11.599
34550W        W98483   3.300  41.920   2.360
34551W        W98484  43.408  26.094   4.599
34552W        W98485   1.853  43.930  10.614
34553W        W98486  30.987  41.479   2.761
34554W        W98487  39.809  36.480   1.421
34555W        W98488  17.687   6.361  13.366
34556W        W98489  42.898  13.749   2.257
34557W        W98490  38.369  39.859   2.326
34558W        W98491  38.877  34.112   2.214
34559W        W98492   5.819   3.406   2.760
34560W        W98493  32.633   4.880  14.778
34561W        W98494  16.607  28.601   0.311
34562W        W98495  44.421  18.616  13.943
34563W        W98496   9.217  25.215   4.136
34564W        W98497  23.999  32.980  14.010
34565W        W98498  19.720  25.548   2.237
34566W        W98499   2.732  42.892   4.119
34567W        W98500  17.628   8.248   1.865
34568W        W98501  16.314  42.361   0.846
34569W        W98502  35.534   4.329  13.546
34570W        W98503  31.418  14.719  13.491
34571W        W98504   4.832  28.516   0.873
34572W        W98505  10.830   1.366  14.437
34573W        W98506  43.326  16.076   1.734
34574W        W98507  44.901  21.063  14.333
34575W        W98508  29.145  39.931   2.766
34576W        W98509  19.600   5.806   3.341
34577W        W98510  21.069   8.661   0.394
34578W        W98511  15.258  22.084   2.371
34579W        W98512  15.661   2.416   5.170
34580W        W98513  17.244   2.961  14.379
34581W        W98514   1.428  16.795  11.613
34582W        W98515   0.364   5.261  12.432
34583W        W98516  44.947  43.806   3.746
34584W        W98517  44.929  34.377   0.435
34585W        W98518  24.181  30.634   0.928
34586W        W98519   7.698   4.787   4.170
34587W        W98520  42.471  28.570   2.834
34588W        W98521  25.967  42.781   4.829
34589W        W98522  13.244  12.807   2.702
34590W        W98523  20.721   1.332   1.711
34591W        W98524  30.918   4.310   1.762
34592W        W98525  35.922  43.924  11.514
34593W        W98526  39.461   6.386  14.434
34594W        W98527  17.101  30.510   2.355
34595W        W98528  34.938  25.053  10.026
34596W        W98529  39.808  17.744   2.222
34597W        W98530  17.745  38.837  12.981
34598W        W98531  21.262  34.419   1.813
34599W        W98532  29.935  40.498  11.990
34600W        W98533   1.916  21.153   0.255
34601W        W98534  16.715   4.443  14.984
34602W        W98535   8.726  43.501   3.150
34603W        W98536  32.050  37.558  10.421
34604W        W98537  33.945  23.017   1.450
34605W        W98538   3.354  38.358   1.400
34606W        W98539  15.090  30.491  11.862
34607W        W98540  13.677   6.813   4.118
34608W        W98541  38.987  26.163  14.892
34609W        W98542  23.082   3.415  12.356
34610W        W98543  10.164  19.634   4.673
34611W        W98544  33.929  15.723   3.290
34612W        W98545  35.943  41.515   1.298
34613W        W98546  27.560  17.103   0.794
34614W        W98547  29.022  12.670   0.304
34615W        W98548  15.236  18.677   3.372
34616W        W98549  34.598  22.682  14.818
34617W        W98550  38.020  19.113  11.590
34618W        W98551  34.531  16.095  12.075
34619W        W98552  26.567  29.987   0.889
34620W        W98553  43.359  19.608  13.821
34621W        W98554  43.371  19.146   2.715
34622W        W98555  29.145  34.063   3.184
34623W        W98556  31.042  31.051  14.402
34624W        W98557  17.619   6.886   4.214
34625W        W98558  36.586  13.267  11.441
34626W        W98559  27.671  10.168  13.331
34627W        W98560  17.630  41.999   3.235
34628W        W98561  40.424  15.284  13.395
34629W        W98562   3.845  11.713   5.293
34630W        W98563   9.671  11.250  11.006
34631W        W98564  24.194   8.743  13.467
34632W        W98565  32.914   6.908  10.926
34633W        W98566   0.362  37.912   9.578
34634W        W98567  21.604  43.870  10.639
34635W        W98568  29.498  12.703   0.818
34636W        W98569  42.385  31.412  13.442
34637W        W98570   9.836  30.555   2.188
34638W        W98571  20.052   7.835  12.043
34639W        W98572  31.949  34.387  12.542
34640W        W98573  18.717  22.707  14.765
34641W        W98574  39.368  33.380   3.174
34642W        W98575  24.202  38.563  10.900
34643W        W98576  33.042   8.279   3.195
34644W        W98577   6.395  10.698  11.492
34645W        W98578   6.687   3.722   1.934
34646W        W98579  39.521  13.107  13.040
34647W        W98580  42.986  37.512  12.457
34648W        W98581  31.906  22.679   1.811
34649W        W98582  38.989  35.553   4.650
34650W        W98583  37.355  26.154   0.951
34651W        W98584   5.216  36.021  13.363
34652W        W98585  24.487  36.042   0.912
34653W        W98586  23.211  25.692   0.818
34654W        W98587  23.089  41.028  14.424
34655W        W98588  18.780  15.754  13.410
34656W        W98589  29.967  37.406   3.832
34657W        W98590  36.516  10.703  14.274
34658W        W98591  39.817   6.275   3.795
34659W        W98592  43.505  10.809   2.242
34660W        W98593  21.711  28.142  14.903
34661W        W98594  12.733   6.754   4.823
34662W        W98595  33.939  36.847  14.277
34663W        W98596  10.328   1.324   3.220
34664W        W98597  23.607  44.754   2.892
34665W        W98598  17.162  23.017   3.723
34666W        W98599  15.134  17.104  13.048
34667W        W98600  16.674  17.698  13.983
34668W        W98601  37.384  32.521  11.877
34669W        W98602  35.422  25.591   2.212
34670W        W98603  29.023  36.025   1.413
34671W        W98604   8.348  30.000  11.517
34672W        W98605  43.011  23.128  14.821
34673W        W98606  20.210  12.304  14.448
34674W        W98607  35.022  22.528  10.039
34675W        W98608  18.275   5.277  12.962
34676W        W98609   9.829  32.925  11.067
34677W        W98610  39.484  41.433   0.410
34678W        W98611  42.785  34.116  10.561
34679W        W98612  35.901  15.287  10.990
34680W        W98613  42.524  35.886   0.910
34681W        W98614  38.467   8.749   4.253
34682W        W98615  17.221  16.171   0.897
34683W        W98616  38.464  39.494   3.169
34684W        W98617   3.460  21.150  14.779
34685W        W98618  22.152  20.524  13.443
34686W        W98619  38.879  13.174   2.850
34687W        W98620  21.629  43.393  10.459
34688W        W98621   1.395  14.301   5.111
34689W        W98622  11.277  26.993   2.874
34690W        W98623  26.080   6.412  11.900
34691W        W98624  40.529  24.067   1.325
34692W        W98625  19.272  26.463  10.434
34693W        W98626   9.186  11.798  13.323
34694W        W98627  32.581   4.418  12.920
34695W        W98628  29.061  12.186   2.231
34696W        W98629  12.236  36.387   1.794
34697W        W98630  34.560   2.267   0.256
34698W        W98631  21.562  13.281  13.531
34699W        W98632  12.823   5.754  12.080
34700W        W98633  44.795  33.547  11.896
34701W        W98634  14.639  14.742   3.361
34702W        W98635  42.831  20.050  12.060
34703W        W98636  32.903  35.861   4.186
34704W        W98637  19.618   4.786   2.796
34705W        W98638  25.968  11.346   0.804
34706W        W98639  38.504  38.418  14.781
34707W        W98640  38.421   2.934  13.999
34708W        W98641  41.373  22.226   2.884
34709W        W98642  43.419   3.228   3.862
34710W        W98643  44.331  19.069  12.447
34711W        W98644   6.222  36.457  11.027
34712W        W98645  40.403  41.919   0.811
34713W        W98646   8.770  37.542  13.346
34714W        W98647  14.805  27.586   3.639
34715W        W98648   0.395  31.617  11.098
34716W        W98649  37.962  43.932  11.421
34717W        W98650   4.216  20.074   4.632
34718W        W98651   6.333   2.918  10.407
34719W        W98652  42.868  32.462  11.019
34720W        W98653   6.729  41.333   4.289
34721W        W98654  34.943  20.553  11.552
34722W        W98655   8.271  30.991  12.091
34723W        W98656  38.934   0.788  14.389
34724W        W98657  23.525  25.069   2.341
34725W        W98658   4.244  36.022   2.796
34726W        W98659   7.291  11.141  12.037
34727W        W98660  14.803  32.624   2.417
34728W        W98661  22.996  31.436  13.930
34729W        W98662  44.430  33.560   4.155
34730W        W98663  21.258  39.025   9.948
34731W        W98664   5.710  38.344   0.398
34732W        W98665  31.048  36.873   1.851
34733W        W98666   2.807   8.883  12.949
34734W        W98667  36.511   5.712   0.910
34735W        W98668  22.720  18.676   0.965
34736W        W98669  35.537   4.302  10.446
34737W        W98670  23.078  25.967   2.226
34738W        W98671  17.128  27.520  10.472
34739W        W98672  16.746  27.688   3.207
34740W        W98673  19.120  44.329   1.723
34741W        W98674   7.302   7.181  14.500
34742W        W98675  15.727  32.982   1.705
34743W        W98676   9.847  42.876  12.516
34744W        W98677  15.686  28.492   1.372
34745W        W98678  13.127  44.779   1.216
34746W        W98679  25.653  28.939   4.266
34747W        W98680  25.619  36.852  11.874
34748W        W98681  20.591  36.357  10.983
34749W        W98682  38.564   9.220   4.679
34750W        W98683   3.824  23.184   4.607
34751W        W98684  15.764  43.306   2.347
34752W        W98685  13.320  11.696   2.311
34753W        W98686  15.788  36.041   0.393
34754W        W98687   0.494   2.739   4.249
34755W        W98688  20.267  36.551  14.898
34756W        W98689  28.962  25.008  10.892
34757W        W98690  22.022  21.037  13.456
34758W        W98691  42.790  19.755  12.979
34759W        W98692  24.692  33.085  13.459
34760W        W98693  30.018   4.286   1.769
34761W        W98694  36.961  11.203   4.689
34762W        W98695   6.242   3.348  14.847
34763W        W98696  27.946   7.712   3.304
34764W        W98697  16.630  10.698  11.519
34765W        W98698   5.830  12.611  11.126
34766W        W98699  40.453   1.794   0.846
34767W        W98700  37.526  23.686  13.437
34768W        W98701   1.402   8.761   3.839
34769W        W98702  24.127  11.157  12.068
34770W        W98703   1.735  37.458  12.082
34771W        W98704  31.439  38.538  12.840
34772W        W98705  26.475   7.849  13.008
34773W        W98706  42.013  16.586  14.455
34774W        W98707  25.624  26.138   1.803
34775W        W98708  41.907   4.833  14.278
34776W        W98709  18.630  35.020  11.574
34777W        W98710  42.871  42.985   5.293
34778W        W98711   5.274  10.714  12.913
34779W        W98712  13.252   8.718   3.310
34780W        W98713   6.917  25.566  12.387
34781W        W98714   0.252  35.467  10.419
34782W        W98715   2.417   1.834  10.066
34783W        W98716  40.812  39.316  13.852
34784W        W98717  38.917   5.283  14.409
34785W        W98718  29.978  23.229  12.002
34786W        W98719  36.027  33.095  10.632
34787W        W98720  23.599  10.778  11.472
34788W        W98721  16.311  18.705  13.331
34789W        W98722  31.006   2.280   0.460
34790W        W98723  16.656   0.248   3.721
34791W        W98724  30.008  18.294   0.750
34792W        W98725  33.063  18.250  13.454
34793W        W98726  10.151  25.566   3.225
34794W        W98727  27.457  37.935   3.816
34795W        W98728  25.555  20.616   3.181
34796W        W98729  44.355   2.884   4.800
34797W        W98730  37.425   0.346  13.923
34798W        W98731  28.169   4.219   0.292
34799W        W98732  35.077   5.279  14.003
34800W        W98733  29.567   7.845   0.417
34801W        W98734   2.907   6.229  10.490
34802W        W98735  24.707  10.653   2.275
34803W        W98736  18.675  23.627  11.471
34804W        W98737  22.199   5.868   3.171
34805W        W98738  36.092  17.791  11.059
34806W        W98739  10.197  26.143   3.177
34807W        W98740   1.822   8.835  13.514
34808W        W98741  14.646  39.836  12.022
34809W        W98742  21.612  39.511   4.168
34810W        W98743   1.738  41.952  11.967
34811W        W98744  36.367  33.975  13.482
34812W        W98745  35.400  11.359   4.805
34813W        W98746  32.916  37.909  12.551
34814W        W98747  40.358  33.018   4.827
34815W        W98748   8.330  39.869  14.377
34816W        W98749   9.715  26.069  11.870
34817W        W98750  33.043  23.628   3.335
34818W        W98751  11.132   8.404  14.514
34819W        W98752  43.406   1.776  11.524
34820W        W98753  21.142   1.296   1.736
34821W        W98754   2.441  16.765  11.391
34822W        W98755   3.414   2.275  11.091
34823W        W98756  13.199  12.252   1.723
34824W        W98757  23.714  37.457  14.785
34825W        W98758  30.103   7.875   3.663
34826W        W98759   6.236   1.439  12.410
34827W        W98760  28.065  39.981   3.379
34828W        W98761  21.246  43.318  11.467
34829W        W98762  24.190  44.997  11.978
34830W        W98763  15.639  42.781  12.379
34831W        W98764  40.507   6.354   2.836
34832W        W98765   0.837  36.488   0.952
34833W        W98766  36.084  31.923  11.031
34834W        W98767   1.835  21.681   2.385
34835W        W98768   0.766   1.275  13.002
34836W        W98769  12.151  32.590  14.281
34837W        W98770  37.399  11.828   1.337
34838W        W98771   8.770   3.323  12.419
34839W        W98772  14.708   2.816   1.307
34840W        W98773  10.313  41.015   2.716
34841W        W98774  43.371  39.541   0.753
34842W        W98775  42.492  29.921   0.902
34843W        W98776   5.711  23.158   1.809
34844W        W98777  33.497  15.271  13.896
34845W        W98778  20.743  32.893  14.849
34846W        W98779   4.289  12.793  10.151
34847W        W98780  11.236  29.031   0.748
34848W        W98781   2.429  17.242  10.479
34849W        W98782  14.610  16.168  10.591
34850W        W98783  13.806   7.669  10.966
34851W        W98784  12.268   0.445  12.080
34852W        W98785   3.404  11.140  14.908
34853W        W98786  16.206  23.049   0.840
34854W        W98787  24.146  33.559  12.390
34855W        W98788  18.142  44.945   2.415
34856W        W98789  13.246  16.142  14.835
34857W        W98790  35.450  37.373  11.517
34858W        W98791   1.318   1.931   4.258
34859W        W98792  32.971  21.708   3.662
34860W        W98793  11.782  40.935  14.993
34861W        W98794  41.401  22.585  12.401
34862W        W98795   2.763  26.041  13.033
34863W        W98796  11.166  30.149  12.970
34864W        W98797  28.014  39.978  11.898
34865W        W98798   9.277  22.684   0.750
34866W        W98799   3.773  34.436   4.807
34867W        W98800  22.516  39.912   3.284
34868W        W98801  44.758  22.229  11.446
34869W        W98802  26.542   2.871   5.281
34870W        W98803   7.771  21.021  11.604
34871W        W98804  36.389  43.320   2.705
34872W        W98805   7.333  19.571  11.496
34873W        W98806  35.049  13.270  14.290
34874W        W98807  12.190  29.062   0.292
34875W        W98808  37.447  17.303  13.433
34876W        W98809  24.145  20.107   1.391
34877W        W98810  24.663   2.765   3.353
34878W        W98811   5.787  14.112   0.937
34879W        W98812  33.500  44.928  13.844
34880W        W98813  39.362   7.760   3.735
34881W        W98814  38.056  18.622   1.443
34882W        W98815  32.610   9.331  13.446
34883W        W98816  12.160  24.648  11.908
34884W        W98817  38.365  36.473   2.886
34885W        W98818  10.280  11.864  14.896
34886W        W98819  39.545   9.262   2.272
34887W        W98820  10.745  39.533  13.949
34888W        W98821  18.190  34.037  13.820
34889W        W98822  44.778  38.473  14.988
34890W        W98823  26.604  41.383  12.579
34891W        W98824   7.856  38.501   0.765
34892W        W98825  23.175   2.422   3.757
34893W        W98826   6.297   0.978   2.393
34894W        W98827  12.834  13.212  12.946
34895W        W98828   4.806  36.926  10.580
34896W        W98829  28.964  42.933  10.990
34897W        W98830  34.468  27.103  14.798
34898W        W98831  28.146  14.810  13.334
34899W        W98832  36.374   1.757  12.383
34900W        W98833  18.776  12.202   1.350
34901W        W98834  26.631  34.902   0.334
34902W        W98835  34.992  37.014   4.771
34903W        W98836   2.344  31.611   3.309
34904W        W98837  12.830   5.840  13.979
34905W        W98838  12.694  12.233  14.898
34906W        W98839   0.430  40.900  10.902
34907W        W98840  31.619  14.773  10.623
34908W        W98841  40.988  14.117   0.810
34909W        W98842  15.243  19.649   1.381
34910W        W98843  42.519  24.529  12.012
34911W        W98844  31.432  43.987  12.082
34912W        W98845  12.731  43.812   0.329
34913W        W98846  32.021  35.484  11.388
34914W        W98847   3.764  29.962  11.882
34915W        W98848  13.112  33.479   3.682
34916W        W98849  18.717  40.362   1.433
34917W        W98850  36.921  37.908   0.840
34918W        W98851  38.841  24.719   3.754
34919W        W98852  34.460  37.897  10.429
34920W        W98853   4.894  41.327  14.847
34921W        W98854  22.626  42.483  12.412
34922W        W98855  29.975  32.995  10.420
34923W        W98856  20.189  34.902  10.510
34924W        W98857  16.753   9.266  11.963
34925W        W98858  21.105  23.597  12.521
34926W        W98859   7.234  41.349  10.608
34927W        W98860  27.145  11.768  12.947
34928W        W98861   9.674  11.850   1.817
34929W        W98862   7.232  31.411  11.050
34930W        W98863  39.352  42.522  12.986
34931W        W98864   9.301  28.540   3.850
34932W        W98865  10.233   4.857  13.809
34933W        W98866  12.637   4.314  11.414
34934W        W98867  27.527  27.992  14.935
34935W        W98868  36.433  26.039  13.826
34936W        W98869  35.369  29.513   2.260
34937W        W98870  15.238  27.027   2.226
34938W        W98871  32.532  31.584  10.516
34939W        W98872  31.055  11.235  12.412
34940W        W98873  12.358  26.460  13.457
34941W        W98874   1.444  35.369  10.464
34942W        W98875  14.671  23.624  10.448
34943W        W98876   7.805  27.557   2.395
34944W        W98877  30.066   4.350  14.894
34945W        W98878  16.135  32.555   1.858
34946W        W98879  37.986  26.958   2.387
34947W        W98880  32.020  25.131   2.755
34948W        W98881  21.153  42.945   3.217
34949W        W98882   0.452  25.113  10.594
34950W        W98883   3.725  16.699   3.383
34951W        W98884   6.204  42.474   3.701
34952W        W98885   5.704  40.460   4.718
34953W        W98886  25.569  25.204   3.240
34954W        W98887  44.270  15.675   1.780
34955W        W98888  44.986  36.471   0.826
34956W        W98889   8.845  20.673   1.736
34957W        W98890  31.007  17.256   3.318
34958W        W98891  28.074   4.389  12.872
34959W        W98892  19.041  44.447  13.481
34960W        W98893  16.241  42.923   0.413
34961W        W98894  11.845  42.460   2.784
34962W        W98895  30.969   8.198   4.118
34963W        W98896  43.990  10.787  13.869
34964W        W98897  16.674  40.382   0.329
34965W        W98898  43.457  27.543  13.397
34966W        W98899  24.590  31.468   3.200
34967W        W98900  13.694  11.179   2.902
34968W        W98901  32.090  44.262  11.519
34969W        W98902  40.935   9.181  12.906
34970W        W98903   6.832  22.606  12.881
34971W        W98904  15.596  14.614   0.801
34972W        W98905  17.177  25.480   9.970
34973W        W98906  21.026  35.495   2.684
34974W        W98907  34.527  29.486  14.994
34975W        W98908  40.448  15.767   5.115
34976W        W98909  40.813  36.573  13.792
34977W        W98910  14.777   2.450   3.318
34978W        W98911  44.470  27.596   0.435
34979W        W98912   5.394  24.172  13.449
34980W        W98913   5.278  43.770  14.954
34981W        W98914   0.412  10.866   4.685
34982W        W98915  36.007  20.138  13.894
34983W        W98916  15.595  42.358   4.332
34984W        W98917  44.388  23.013  12.094
34985W        W98918  36.867  25.097  12.046
34986W        W98919  22.999  25.137  10.412
34987W        W98920  43.775  27.961   3.653
34988W        W98921  12.668  10.148  11.504
34989W        W98922  28.012   2.727  10.453
34990W        W98923  14.317   9.285   1.839
34991W        W98924  43.452  23.994  12.502
34992W        W98925  26.045   1.264  14.992
34993W        W98926  14.776  13.236  12.516
34994W        W98927  19.592  14.285   3.225
34995W        W98928  20.593   6.311   3.226
34996W        W98929   4.703   4.365   0.405
34997W        W98930   3.323  13.189  13.944
34998W        W98931  12.677  10.662   1.440
34999W        W98932  40.344  35.446   4.633
35000W        W98933  24.012   7.904   2.799
35001W        W98934  16.585  26.680   2.704
35002W        W98935  32.515  27.063  14.023
35003W        W98936  19.534  27.967   2.293
35004W        W98937  15.692  34.933  11.407
35005W        W98938  24.224  33.994   3.640
35006W        W98939  13.170  16.736  11.092
35007W        W98940  32.413  37.369  13.484
35008W        W98941  28.632  40.442   4.191
35009W        W98942   7.382  32.019  14.975
35010W        W98943  15.183  42.505  13.839
35011W        W98944  28.007  18.113  12.040
35012W        W98945  24.623  34.567  12.496
35013W        W98946   2.288  33.077  10.935
35014W        W98947  32.012  38.522  14.894
35015W        W98948   8.801  26.632   3.262
35016W        W98949  17.695  24.093  14.761
35017W        W98950   2.793  31.041  13.386
35018W        W98951  25.125  36.030  11.947
35019W        W98952   8.191  34.920  13.989
35020W        W98953  25.507  40.433  10.420
35021W        W98954  28.174  42.963  12.991
35022W        W98955   2.449  36.964  13.862
35023W        W98956  37.509  24.665   2.816
35024W        W98957  38.914  18.653   0.318
35025W        W98958  16.162  28.580  11.547
35026W        W98959  23.627  23.528  14.462
35027W        W98960  19.606   1.910   4.141
35028W        W98961  27.995  26.470   1.798
35029W        W98962   1.968  13.818   4.350
35030W        W98963   2.876   1.290  11.056
35031W        W98964   3.955  44.785  10.555
35032W        W98965  24.487  18.066  14.429
35033W        W98966  20.691  10.675  11.118
35034W        W98967  10.210   0.390  14.847
35035W        W98968  41.294  44.428  10.419
35036W        W98969   9.336  35.602   3.773
35037W        W98970  42.524  19.572   1.748
35038W        W98971  43.405  22.157  14.469
35039W        W98972  31.141  11.673   2.411
35040W        W98973  24.044  19.188   4.117
35041W        W98974  30.599  23.197  14.765
35042W        W98975   5.417  44.981   1.430
35043W        W98976   5.325  37.859  14.992
35044W        W98977   1.327  36.465  13.829
35045W        W98978  10.731  22.098   4.220
35046W        W98979  10.251  21.046  11.604
35047W        W98980   9.376  23.525  11.060
35048W        W98981  18.221  34.076  12.983
35049W        W98982  27.966  21.536   3.150
35050W        W98983  42.933  19.687  12.565
35051W        W98984  18.072   1.953  10.418
35052W        W98985  16.099  14.717   4.825
35053W        W98986   5.828  42.796   4.118
35054W        W98987   9.200   7.389  11.569
35055W        W98988  18.742  25.471  10.055
35056W        W98989  24.620  38.952   2.207
35057W        W98990  31.517  10.331  13.838
35058W        W98991  15.631  19.147   1.378
35059W        W98992  15.227   4.208  14.825
35060W        W98993   4.448  10.680  14.423
35061W        W98994  19.771  31.644  11.966
35062W        W98995   2.876  15.253  13.824
35063W        W98996  38.041  19.239  13.330
35064W        W98997  35.429  18.716   4.331
35065W        W98998  39.354   6.428  12.069
35066W        W98999  43.881  40.943   1.720
35067W        W99000  11.290  39.544   0.369
35068W        W99001  31.050  27.054   2.825
35069W        W99002   4.844  37.408   5.103
35070W        W99003  17.764  29.497  14.494
35071W        W99004  21.708  11.690   3.363
35072W        W99005   4.448  28.621   2.419
35073W        W99006  10.695  32.060   1.837
35074W        W99007  35.092   0.434  10.075
35075W        W99008  15.788  31.130   0.852
35076W        W99009  41.866   0.787  12.940
35077W        W99010  42.891  10.266   2.729
35078W        W99011  36.028  14.149   1.438
35079W        W99012   4.847  22.691  14.359
35080W        W99013  24.693   4.915   9.929
35081W        W99014  30.160  42.854  12.979
35082W        W99015  43.273  23.679  11.886
35083W        W99016  35.971  25.531  12.072
35084W        W99017  38.840  42.477  11.093
35085W        W99018  23.548  16.268   2.276
35086W        W99019  13.736  40.804   2.790
35087W        W99020  23.522  28.671   2.662
35088W        W99021  14.716  18.051  12.398
35089W        W99022  41.931  37.027  11.438
35090W        W99023  34.918  44.488   1.894
35091W        W99024   1.455  37.919   3.738
35092W        W99025  24.147  21.639   2.246
35093W        W99026   7.187   1.378  13.358
35094W        W99027  44.431  12.192   1.812
35095W        W99028   2.234  42.925   9.952
35096W        W99029  18.572   0.296  12.826
35097W        W99030  16.112  28.159  12.091
35098W        W99031  32.011  21.078   2.709
35099W        W99032  14.277  33.985   1.426
35100W        W99033  13.652  27.151   4.197
35101W        W99034  10.383   2.265   1.257
35102W        W99035  15.722  41.858  10.992
35103W        W99036  13.347   8.766  12.551
35104W        W99037  36.026  12.749  11.042
35105W        W99038   5.282  36.019  14.410
35106W        W99039   1.952   4.411   0.312
35107W        W99040  29.498  16.199  12.871
35108W        W99041   6.698  43.870  10.615
35109W        W99042  24.169   7.412  14.400
35110W        W99043  17.082  43.831  11.077
35111W        W99044  23.700  10.197  12.557
35112W        W99045  15.119  32.476  10.888
35113W        W99046  35.048  43.854  11.612
35114W        W99047   9.170  33.970   4.798
35115W        W99048  20.186  29.163   4.193
35116W        W99049  16.706  32.129  10.584
35117W        W99050  34.577  27.689  14.765
35118W        W99051  24.600  32.105  10.411
35119W        W99052  13.304  35.875  10.549
35120W        W99053  15.777  37.918   0.924
35121W        W99054  44.758  30.636   1.319
35122W        W99055  34.865  31.117  10.497
35123W        W99056  19.254  41.408  10.991
35124W        W99057  10.366  10.720  13.316
35125W        W99058  43.388  41.386  13.983
35126W        W99059   7.863  32.002   5.160
35127W        W99060   3.916   9.670  14.309
35128W        W99061   8.236  39.542  13.983
35129W        W99062  15.155  37.534  11.599
35130W        W99063  15.699  28.069  10.458
35131W        W99064   1.322   9.172  10.465
35132W        W99065  25.503   6.921   2.186
35133W        W99066  26.960  12.696   3.704
35134W        W99067  28.610  40.847  12.014
35135W        W99068  34.003  13.187   1.377
35136W        W99069  26.700   2.742   3.248
35137W        W99070  26.996   9.772   2.735
35138W        W99071  34.597  39.828  12.883
35139W        W99072  34.016  32.943  11.903
35140W        W99073  39.892   1.370   0.728
35141W        W99074  15.580  18.073  12.546
35142W        W99075  42.948   0.905  11.872
35143W        W99076  21.122  16.232   2.823
35144W        W99077   6.194  39.319   1.322
35145W        W99078  38.493  21.082   0.410
35146W        W99079  12.689  30.476   3.272
35147W        W99080  15.252  17.092  11.026
35148W        W99081  16.770  35.949   5.269
35149W        W99082  36.910  36.455   1.807
35150W        W99083  16.569  42.293  14.983
35151W        W99084   4.841  20.137  11.942
35152W        W99085  38.402  33.611  14.852
35153W        W99086   6.741   2.864  10.421
35154W        W99087  20.030  22.012  14.781
35155W        W99088  43.489   3.803  12.425
35156W        W99089   6.354  39.440   4.694
35157W        W99090  18.662  44.963   1.723
35158W        W99091  17.601  37.575   4.353
35159W        W99092   5.342  23.019   2.853
35160W        W99093  14.782  24.224  10.573
35161W        W99094  37.364  18.608   2.746
35162W        W99095  29.087  24.480  12.418
35163W        W99096  44.964  32.101  11.109
35164W        W99097   5.266   1.747   2.220
35165W        W99098  43.493  28.487   1.352
35166W        W99099  24.711  21.079  12.452
35167W        W99100  32.580  10.710   0.903
35168W        W99101   8.254  30.463   2.387
35169W        W99102  43.787   5.928  12.872
35170W        W99103  18.187  18.646   2.747
35171W        W99104   3.763  24.506  13.454
35172W        W99105  23.498  31.412   1.412
35173W        W99106  24.209  26.991   4.683
35174W        W99107  19.633  39.374   0.352
35175W        W99108  26.638  30.526  13.528
35176W        W99109  43.332  43.826  14.900
35177W        W99110  33.883  31.504  10.582
35178W        W99111  27.943  10.778   3.284
35179W        W99112  41.996  12.623   1.232
35180W        W99113  36.014   2.403   2.202
35181W        W99114   3.780  41.945   2.403
35182W        W99115   5.195  34.411  13.926
35183W        W99116  43.331   1.938  12.934
35184W        W99117  17.141  30.156  10.980
35185W        W99118  44.265   7.250   3.372
35186W        W99119  44.789  36.992   5.278
35187W        W99120   8.390   0.314  11.044
35188W        W99121  32.484  19.182   0.483
35189W        W99122   5.231  31.992  13.889
35190W        W99123  13.649  12.166  13.989
35191W        W99124  43.390   2.408   0.390
35192W        W99125  24.211   7.720   4.728
35193W        W99126  36.974  20.253   2.802
35194W        W99127   2.424  36.442   4.205
35195W        W99128  19.598  40.479   2.252
35196W        W99129  17.246  17.075  12.396
35197W        W99130  33.550  11.359   2.330
35198W        W99131  43.462  37.832  12.835
35199W        W99132   2.771  33.601   3.363
35200W        W99133   8.820  37.439   1.835
35201W        W99134  18.242   0.301  13.424
35202W        W99135  15.741  11.804  11.969
35203W        W99136  31.401   8.784  13.810
35204W        W99137  14.812  38.847   3.279
35205W        W99138   2.399  26.965  14.512
35206W        W99139  42.880   3.367   2.664
35207W        W99140  38.381  15.260  14.426
35208W        W99141  26.189  22.161   2.225
35209W        W99142  44.435  32.920   3.671
35210W        W99143  37.913  34.511   3.268
35211W        W99144  13.252  23.707   3.319
35212W        W99145  21.201  13.166   1.888
35213W        W99146  13.171  41.827  11.072
35214W        W99147  30.549   1.395  14.011
35215W        W99148  31.106  18.112   1.788
35216W        W99149  14.731  17.704   2.675
35217W        W99150  11.239   8.162  12.388
35218W        W99151  36.931  25.485  11.939
35219W        W99152  22.228  44.865  13.864
35220W        W99153  21.098   2.295   1.318
35221W        W99154   9.661  16.660  14.323
35222W        W99155  15.599  21.106   1.279
35223W        W99156  30.539  35.101   1.419
35224W        W99157  26.147  25.103   2.298
35225W        W99158  32.062  10.329  11.456
35226W        W99159  38.073  30.920   1.845
35227W        W99160  29.651   3.240   0.275
35228W        W99161  43.876  43.923  12.517
35229W        W99162  29.137   0.260  12.475
35230W        W99163  14.219  18.714   1.288
35231W        W99164  25.568   8.828   3.289
35232W        W99165  31.062  36.909  11.543
35233W        W99166  36.005  32.547  11.555
35234W        W99167  17.745  37.842   3.344
35235W        W99168  11.327  22.619   0.326
35236W        W99169  31.056   6.859  13.026
35237W        W99170  15.821  34.944   0.349
35238W        W99171   7.678  36.955   0.463
35239W        W99172  23.103  23.158  10.971
35240W        W99173  39.992  31.594  13.341
35241W        W99174   2.314  41.877  11.005
35242W        W99175  24.645  31.982   0.455
35243W        W99176  36.892  12.206   4.758
35244W        W99177  21.110  37.040  14.827
35245W        W99178  22.237  36.994  11.431
35246W        W99179   7.316  40.894  12.962
35247W        W99180  17.663  17.676  14.932
35248W        W99181  30.632  36.859  12.823
35249W        W99182  31.103  25.596  12.999
35250W        W99183   1.286  44.840  10.936
35251W        W99184  44.844  17.691   3.725
35252W        W99185  14.742   9.879  12.569
35253W        W99186   9.298  32.423  11.952
35254W        W99187  23.646  18.783  10.595
35255W        W99188  27.151  23.639   0.377
35256W        W99189  11.282  15.626   2.664
35257W        W99190  27.008  33.524   0.405
35258W        W99191  33.912  41.932  12.033
35259W        W99192   5.802  30.505  12.518
35260W        W99193   9.230  16.589   1.236
35261W        W99194   3.858  16.117   0.337
35262W        W99195  34.090  41.904  13.800
35263W        W99196   9.183  35.538  12.967
35264W        W99197   8.349  33.009  10.569
35265W        W99198  36.360  18.247   4.290
35266W        W99199   3.350  44.374  14.334
35267W        W99200  30.017  24.528   4.254
35268W        W99201  14.311  42.326   3.248
35269W        W99202   8.780  30.514  11.393
35270W        W99203  24.538   0.797  10.085
35271W        W99204  33.548  13.608  12.966
35272W        W99205  22.018  27.483  10.962
35273W        W99206   4.289  31.528   1.352
35274W        W99207  10.862  41.506  12.494
35275W        W99208  32.913  38.884   4.783
35276W        W99209  36.978  24.560   0.329
35277W        W99210  18.219  15.677   3.725
35278W        W99211  32.565  24.019   1.412
35279W        W99212  32.989   3.891  12.825
35280W        W99213   6.306  37.515  14.957
35281W        W99214  38.001  29.149   0.884
35282W        W99215  39.347   7.381  14.488
35283W        W99216  11.691  44.848  11.885
35284W        W99217  15.148  24.062   0.347
35285W        W99218  31.645  36.530  14.007
35286W        W99219  42.979  40.903   1.734
35287W        W99220  32.076  36.450  12.499
35288W        W99221  14.729  17.596  13.542
35289W        W99222  30.456  38.521  14.769
35290W        W99223   3.343  39.995  10.895
35291W        W99224  41.492  29.049   4.687
35292W        W99225  16.750  32.466  10.560
35293W        W99226   2.390  24.057  11.061
35294W        W99227  14.157  35.600   3.857
35295W        W99228   3.865  14.329   4.311
35296W        W99229   7.680  40.449  12.430
35297W        W99230   4.299  27.950   4.694
35298W        W99231  43.906  44.852  10.934
35299W        W99232   6.759   3.728   3.812
35300W        W99233  37.920  35.936   0.924
35301W        W99234  17.064  28.458  12.837
35302W        W99235  24.642  26.006   0.311
35303W        W99236  30.560  24.620  11.079
35304W        W99237  39.540  14.690  14.276
35305W        W99238   9.714  19.143   0.445
35306W        W99239  31.153  37.918   3.637
35307W        W99240  12.756  24.484   3.366
35308W        W99241   6.865  19.573  13.895
35309W        W99242  14.277   7.715   3.332
35310W        W99243  28.550  18.289  14.368
35311W        W99244  33.946  10.203  14.996
35312W        W99245  28.650  11.155  11.411
35313W        W99246  10.350   4.915   1.894
35314W        W99247  13.674   4.432   2.672
35315W        W99248  24.198  25.962   1.779
35316W        W99249  36.521  42.937  13.415
35317W        W99250  15.631  25.997  11.531
35318W        W99251  34.580   5.330  11.484
35319W        W99252  37.372   5.732  12.951
35320W        W99253  16.226  16.156   5.152
35321W        W99254   4.699  33.012  13.027
35322W        W99255  43.877   3.750   4.728
35323W        W99256   0.812  35.073   3.336
35324W        W99257   0.780  32.546   0.943
35325W        W99258  35.914  34.410   2.895
35326W        W99259  10.665  12.684  12.341
35327W        W99260  33.009  10.303  13.015
35328W        W99261  10.730  12.167   0.349
35329W        W99262  21.258   1.282  10.610
35330W        W99263  39.048  25.481  13.516
35331W        W99264  30.480  10.281   3.853
35332W        W99265  22.572   1.749   0.250
35333W        W99266  30.088  41.523   4.220
35334W        W99267  30.499  31.994   1.877
35335W        W99268  40.858   2.352  13.006
35336W        W99269   6.189  23.541   1.405
35337W        W99270  43.482  30.090  14.778
35338W        W99271  38.933  35.561  12.506
35339W        W99272   7.260  10.715  13.488
35340W        W99273  35.358   1.968   2.781
35341W        W99274  44.307  25.187   3.222
35342W        W99275  32.012   4.870   0.334
35343W        W99276  30.585  14.824   4.351
35344W        W99277  27.631  23.573  12.942
35345W        W99278   3.903  32.469   1.752
35346W        W99279   8.312  19.132  10.953
35347W        W99280  37.443  34.964   0.879
35348W        W99281  32.448  17.303  10.643
35349W        W99282  17.099  29.953   2.331
35350W        W99283  31.452  39.820  11.553
35351W        W99284  17.126  15.584   3.700
35352W        W99285   1.928  17.151   2.891
35353W        W99286  36.873  10.241   0.886
35354W        W99287  34.541   4.359   4.606
35355W        W99288  16.692   4.790   2.786
35356W        W99289  24.110   4.320  14.843
35357W        W99290   8.766  11.254  14.335
35358W        W99291  18.252  26.651   9.585
35359W        W99292   1.760   7.395  14.395
35360W        W99293  17.704  14.214  12.389
35361W        W99294  10.840  27.564  10.603
35362W        W99295  43.507  32.993  14.886
35363W        W99296  42.014   2.957  12.932
35364W        W99297  40.991   4.410  14.967
35365W        W99298   9.728  36.069  11.025
35366W        W99299  27.448  35.891   0.250
35367W        W99300   7.722  42.384   2.753
35368W        W99301   9.867  11.163  14.507
35369W        W99302  41.857  38.568  12.026
35370W        W99303  17.295  15.209   2.765
35371W        W99304  17.249  12.767  10.582
35372W        W99305  21.693  29.072  11.953
35373W        W99306   6.372  35.956  12.875
35374W        W99307  17.067  42.971   1.321
35375W        W99308   2.277  32.122  13.476
35376W        W99309   9.742  43.903   1.826
35377W        W99310  31.568  36.018   1.382
35378W        W99311  20.040  35.526  13.928
35379W        W99312  12.248  32.994   1.749
35380W        W99313  24.623   2.424  11.051
35381W        W99314   8.296   9.231   0.930
35382W        W99315  13.840  34.591   4.675
35383W        W99316   0.821   3.727  12.052
35384W        W99317  30.926  15.644  12.013
35385W        W99318   7.688  34.992   1.429
35386W        W99319  43.488  11.193  10.642
35387W        W99320   4.341   6.299   4.756
35388W        W99321  20.691  13.641   1.879
35389W        W99322  27.101  15.165   4.705
35390W        W99323   1.799   0.883   0.418
35391W        W99324   9.305  25.073  10.962
35392W        W99325  23.237  12.781   0.823
35393W        W99326  16.637  26.128  10.152
35394W        W99327  18.585   8.203   4.672
35395W        W99328   8.668  32.608  11.988
35396W        W99329  33.454  12.738   3.306
35397W        W99330  32.030  13.139  13.003
35398W        W99331  23.575  34.400   1.223
35399W        W99332  23.585  20.732   3.747
35400W        W99333   9.712  10.270   0.318
35401W        W99334  37.399  25.168  13.389
35402W        W99335  19.676  15.708  11.422
35403W        W99336   8.819  19.775   3.686
35404W        W99337  28.619   5.320  12.999
35405W        W99338  43.411  25.022  11.449
35406W        W99339  11.287  33.930  12.002
35407W        W99340  28.124  30.142  11.426
35408W        W99341  23.722  42.428  13.349
35409W        W99342   6.305  41.423   5.143
35410W        W99343  39.055  34.088  10.579
35411W        W99344  42.993  36.470   2.754
35412W        W99345  10.823  35.938  12.035
35413W        W99346  41.503  12.633  11.605
35414W        W99347  29.500   0.759   5.249
35415W        W99348  15.204  29.037   0.942
35416W        W99349   3.229  33.384  11.947
35417W        W99350   0.960  12.199  14.019
35418W        W99351  26.488   9.301  14.907
35419W        W99352  28.653   7.402  14.796
35420W        W99353  14.261   7.816   2.723
35421W        W99354  23.026  26.688  10.422
35422W        W99355  15.083  25.673   0.938
35423W        W99356   6.201   4.708  10.027
35424W        W99357  28.034  22.120   2.313
35425W        W99358  12.691  32.111  12.851
35426W        W99359   7.213  26.075   5.305
35427W        W99360  35.480  19.050   3.801
35428W        W99361  27.094   1.811   0.296
35429W        W99362  31.092   8.862   3.686
35430W        W99363  27.674  17.199  12.470
35431W        W99364  40.414  30.917  10.933
35432W        W99365  19.252  36.873   1.783
35433W        W99366  10.366  39.997  13.985
35434W        W99367  13.714  38.526   3.827
35435W        W99368  24.483  30.086   3.644
35436W        W99369  13.719   6.315   3.317
35437W        W99370  36.481  44.497  14.452
35438W        W99371  44.465  29.444  14.337
35439W        W99372  43.284  23.663  12.975
35440W        W99373  40.827  42.784   0.902
35441W        W99374  13.121  13.609  10.619
35442W        W99375  22.139   3.853  13.403
35443W        W99376  27.975   1.240   1.747
35444W        W99377   9.373  11.158  11.056
35445W        W99378  35.992  44.296  12.042
35446W        W99379  16.088   2.738  12.350
35447W        W99380   1.867  35.556  14.481
35448W        W99381  21.640  18.583   3.154
35449W        W99382  19.243  22.046  12.445
35450W        W99383  17.794  27.952   0.755
35451W        W99384  32.960   3.326   3.781
35452W        W99385  33.957  30.050  14.364
35453W        W99386  27.091  19.262  13.399
35454W        W99387  41.299  31.996  10.479
35455W        W99388  10.671   0.769  13.545
35456W        W99389  35.522  23.517   3.675
35457W        W99390  41.806  33.604  11.976
35458W        W99391  42.983  24.618   0.865
35459W        W99392   1.259  42.958   1.769
35460W        W99393  42.506  22.214   1.733
35461W        W99394  36.389  35.050   4.813
35462W        W99395   9.196   7.311  11.042
35463W        W99396  12.258  44.504  10.944
35464W        W99397   6.823  21.594   0.267
35465W        W99398  35.449   8.328  12.990
35466W        W99399  16.108   6.858   2.363
35467W        W99400   4.382   8.820  12.901
35468W        W99401  31.408   3.758  13.488
35469W        W99402  37.975  25.549   4.725
35470W        W99403  22.035  28.611   4.180
35471W        W99404   4.251  39.487  14.478
35472W        W99405   0.982  10.666  13.541
35473W        W99406  14.787  28.556   0.822
35474W        W99407  16.726   1.413   2.374
35475W        W99408  44.462   7.386   0.760
35476W        W99409  36.402   1.842  14.883
35477W        W99410  27.497  43.472  12.948
35478W        W99411  30.445  29.572   0.459
35479W        W99412   3.322  21.125  12.068
35480W        W99413  21.593   0.788   2.872
35481W        W99414  41.806  37.017  11.923
35482W        W99415  13.611  24.671   4.658
35483W        W99416  18.228  30.504   2.734
35484W        W99417  35.452  17.257  10.432
35485W        W99418  29.166  34.968  12.038
35486W        W99419   5.278  28.997  11.903
35487W        W99420   8.676   7.712   4.268
35488W        W99421  13.752  23.172   4.307
35489W        W99422  25.589  33.523   0.362
35490W        W99423   9.644  37.023   0.899
35491W        W99424  12.328   0.463  10.899
35492W        W99425  12.842  28.999  11.894
35493W        W99426  36.461   0.401  12.042
35494W        W99427  16.240   1.406  13.393
35495W        W99428  10.722  29.980  11.873
35496W        W99429   2.428  38.517   1.316
35497W        W99430  23.178  40.447   3.271
35498W        W99431  35.530  16.672   3.364
35499W        W99432  38.519  44.450  14.343
35500W        W99433  30.482  31.905   2.739
35501W        W99434  28.059  41.942   4.253
35502W        W99435   2.412  30.038  14.316
35503W        W99436   8.787  27.650  14.369
35504W        W99437  11.157  15.619   0.374
35505W        W99438  37.055  10.249  12.479
35506W        W99439  33.094  37.968  13.946
35507W        W99440  27.192  34.048   2.687
35508W        W99441  44.345  41.371   0.947
35509W        W99442  13.626   8.887  12.912
35510W        W99443  19.088   7.199   1.243
35511W        W99444  10.303   2.900  11.420
35512W        W99445  37.442  16.316   3.236
35513W        W99446   4.803  39.907   1.885
35514W        W99447  34.438  17.136  11.491
35515W        W99448  13.762  29.931   1.749
35516W        W99449  11.863  25.112  13.966
35517W        W99450  33.440  42.335  11.932
35518W        W99451  26.147  29.594   1.720
35519W        W99452  43.291  27.045  12.379
35520W        W99453   6.273   1.290   9.990
35521W        W99454  17.189  15.104   1.358
35522W        W99455  22.053  33.442   1.324
35523W        W99456   6.813  17.124  11.443
35524W        W99457  19.749   9.663  14.978
35525W        W99458  17.196   8.337   3.848
35526W        W99459  19.056  28.038   3.690
35527W        W99460  20.042  13.812   3.753
35528W        W99461  15.098   3.265   1.844
35529W        W99462  38.050   8.676   3.818
35530W        W99463  20.728  31.457  10.431
35531W        W99464  38.893  41.322  14.769
35532W        W99465   2.957  23.720   0.729
35533W        W99466  35.968  34.432   0.264
35534W        W99467  36.350  21.229  11.586
35535W        W99468  37.848  11.335  14.961
35536W        W99469  22.162  30.595  12.993
35537W        W99470  19.132   7.256  10.406
35538W        W99471  11.864  12.683  14.947
35539W        W99472   3.267  36.930  12.563
35540W        W99473  15.578   5.840  12.392
35541W        W99474  23.021  39.521   2.662
35542W        W99475  36.992  11.836  11.416
35543W        W99476  41.361  25.500  12.844
35544W        W99477  32.901   4.934  12.049
35545W        W99478  35.891   0.944   2.782
35546W        W99479   7.233   4.241   1.441
35547W        W99480   6.387  32.585   1.445
35548W        W99481   0.846  41.990   2.704
35549W        W99482  40.415  41.018  11.579
35550W        W99483  29.643  42.451  13.938
35551W        W99484  11.363  11.335  14.019
35552W        W99485  31.944  25.059   3.785
35553W        W99486  23.562  23.618   3.190
35554W        W99487  19.655   3.375   3.732
35555W        W99488   8.258  27.147  13.918
35556W        W99489  10.281  39.368   2.343
35557W        W99490   5.820  13.339  13.838
35558W        W99491  43.766  33.488   0.738
35559W        W99492  21.525  18.642   1.266
35560W        W99493  25.599  18.249   2.835
35561W        W99494  43.879  16.101   2.804
35562W        W99495  37.844  14.633  12.473
35563W        W99496  37.884  26.697   4.732
35564W        W99497  36.420   5.400   3.672
35565W        W99498  32.933  28.977   2.845
35566W        W99499  19.062  16.687  10.072
35567W        W99500   6.192  25.551  11.070
35568W        W99501   7.686  11.761  10.158
35569W        W99502  26.008   0.762  11.956
35570W        W99503  17.687  29.582  12.953
35571W        W99504  26.147  23.989  11.484
35572W        W99505  28.127  17.105   0.248
35573W        W99506   2.787  44.963   4.640
35574W        W99507   4.769  34.092  12.446
35575W        W99508   6.202  39.847  14.997
35576W        W99509  32.634  37.524   5.279
35577W        W99510   3.882  42.468   1.326
35578W        W99511  35.910  21.580  14.452
35579W        W99512  27.032  41.501  11.903
35580W        W99513   0.347  39.992   0.283
35581W        W99514  11.624  29.095   1.904
35582W        W99515  40.411  12.285   0.261
35583W        W99516  35.853  38.530  14.913
35584W        W99517  39.052  20.273   0.739
35585W        W99518  38.022   5.746   2.233
35586W        W99519   4.337   4.242   2.826
35587W        W99520   8.848  36.468   4.341
35588W        W99521  12.206  31.910  13.896
35589W        W99522  22.239  20.161  10.954
35590W        W99523  10.682  16.194  10.918
35591W        W99524  10.149   4.223  10.049
35592W        W99525  32.486  26.193  14.913
35593W        W99526  15.615  23.138  12.481
35594W        W99527  11.622  25.476  12.095
35595W        W99528  14.093  10.716  10.549
35596W        W99529  14.338  17.686   1.419
35597W        W99530   7.211   3.818   4.166
35598W        W99531  18.665   7.297   2.896
35599W        W99532  10.830  33.965   2.397
35600W        W99533  30.960  12.359  11.575
35601W        W99534  36.002  39.017  13.373
35602W        W99535  30.476  38.541   1.826
35603W        W99536  11.621   4.918  11.595
35604W        W99537  21.195   8.361  10.966
35605W        W99538  19.760  15.796  10.017
35606W        W99539  23.566  43.910  11.555
35607W        W99540  20.261   6.771   3.160
35608W        W99541  16.622  38.349   3.839
35609W        W99542  31.076  11.189  12.091
35610W        W99543  32.129   9.673   4.296
35611W        W99544  15.753  44.400   4.667
35612W        W99545  13.331   6.258   5.755
35613W        W99546  20.065  34.538  11.490
35614W        W99547  41.791   1.772   4.190
35615W        W99548  37.439  44.391   0.286
35616W        W99549   2.295   6.424   5.266
35617W        W99550  42.794  30.590   1.286
35618W        W99551  12.325   9.702   0.417
35619W        W99552   1.413  33.409  14.286
35620W        W99553  33.034  37.337  12.920
35621W        W99554  41.848   3.340   1.361
35622W        W99555  28.090  43.415  13.436
35623W        W99556  10.146   0.259  13.002
35624W        W99557  41.833  19.697   1.705
35625W        W99558   4.418  31.032   2.264
35626W        W99559  28.491   8.343   3.292
35627W        W99560  44.405  39.857  12.449
35628W        W99561  35.957   2.738   0.472
35629W        W99562  42.989  34.381  10.443
35630W        W99563   0.940  31.094  13.031
35631W        W99564   9.666   9.188   3.181
35632W        W99565   5.290  41.305  13.825
35633W        W99566  12.689  17.675  10.602
35634W        W99567  29.602  28.083   3.734
35635W        W99568  12.169  33.441  14.850
35636W        W99569  25.178  22.163   4.347
35637W        W99570  35.862  21.181  13.396
35638W        W99571  20.619   1.777   1.243
35639W        W99572  38.346   9.689   1.259
35640W        W99573  32.115  37.983  12.077
35641W        W99574  18.079  23.218   1.319
35642W        W99575   4.304  43.311   3.174
35643W        W99576  22.182  27.579   3.803
35644W        W99577  15.265  41.979  11.978
35645W        W99578   8.176  28.057   1.830
35646W        W99579  24.646  39.420   1.317
35647W        W99580  27.499  31.075  13.840
35648W        W99581   5.226  32.421  11.965
35649W        W99582  12.317  40.976  14.847
35650W        W99583  10.824   3.315  10.515
35651W        W99584  42.891  24.105   2.272
35652W        W99585  22.608  37.875  11.964
35653W        W99586  11.781  20.239  10.924
35654W        W99587  28.586  21.612  10.508
35655W        W99588  15.821  10.185  13.877
35656W        W99589  17.602  17.751   4.328
35657W        W99590  18.724  30.415  12.573
35658W        W99591  38.911   0.868   4.157
35659W        W99592   5.236   9.313  12.913
35660W        W99593   8.295  11.212   1.423
35661W        W99594  10.151  13.280  14.391
35662W        W99595   9.274   1.786  11.110
35663W        W99596   5.269  13.266   3.169
35664W        W99597   3.768  41.014   3.735
35665W        W99598   2.903  13.170  12.563
35666W        W99599  32.059  14.597  10.524
35667W        W99600  29.550  20.678   4.154
35668W        W99601  33.894   4.755   2.705
35669W        W99602  33.929  12.354   0.268
35670W        W99603   2.329  13.746  11.050
35671W        W99604  12.812   7.799   3.789
35672W        W99605  12.130  24.670   0.960
35673W        W99606   1.875  14.202   2.216
35674W        W99607  34.559  33.965   1.855
35675W        W99608  16.309  28.969  14.994
35676W        W99609  31.634  44.433   1.837
35677W        W99610  26.192  42.775   0.285
35678W        W99611  22.230  44.323   4.718
35679W        W99612   0.952  32.588   1.242
35680W        W99613   2.370  15.760   1.713
35681W        W99614  40.932  10.311   1.826
35682W        W99615  41.937   6.242  12.368
35683W        W99616   8.287  20.700   2.236
35684W        W99617  11.253  22.173   4.353
35685W        W99618   2.408   3.429  14.894
35686W        W99619   3.368   2.261  13.532
35687W        W99620  30.456  10.142   1.760
35688W        W99621  18.136  42.526  12.052
35689W        W99622  44.773  39.065  13.406
35690W        W99623  39.971  21.022  13.033
35691W        W99624   1.345  31.473   0.740
35692W        W99625   6.341  14.180  10.944
35693W        W99626  34.443  41.824  10.422
35694W        W99627  17.099  28.679  13.425
35695W        W99628  25.511  10.705   0.769
35696W        W99629   1.243   8.324   2.721
35697W        W99630  14.157  39.986  10.005
35698W        W99631  44.394  37.339   2.363
35699W        W99632   5.264   8.751  14.769
35700W        W99633   0.979  16.754  11.551
35701W        W99634  40.016  13.687  14.874
35702W        W99635  26.539  39.408   2.824
35703W        W99636  11.801   0.361   2.310
35704W        W99637  32.564   3.326   2.741
35705W        W99638  19.068   6.338  11.900
35706W        W99639  19.656  34.574  11.590
35707W        W99640   4.790  14.133   1.711
35708W        W99641   7.879  39.903  14.024
35709W        W99642  35.984   8.719   1.368
35710W        W99643  12.853  34.052  12.991
35711W        W99644  38.464  15.128  14.892
35712W        W99645  22.179  34.049  13.367
35713W        W99646  27.517   2.778  14.946
35714W        W99647   7.825   0.313   2.863
35715W        W99648  34.378  41.897   2.312
35716W        W99649  29.572   7.334  13.362
35717W        W99650  38.907   2.228   0.861
35718W        W99651  23.135  22.018  13.842
35719W        W99652  40.306  35.408  11.503
35720W        W99653  31.449   4.306  10.466
35721W        W99654  41.812   3.286  12.477
35722W        W99655   1.238  36.576  12.345
35723W        W99656  25.171  12.188  13.989
35724W        W99657  32.069  40.457  12.472
35725W        W99658   9.847  19.567  12.441
35726W        W99659   4.386  37.438  10.635
35727W        W99660  14.823   2.418   2.346
35728W        W99661  21.058  29.103   3.216
35729W        W99662   0.868  13.182  11.042
35730W        W99663  40.874  24.677   0.912
35731W        W99664  19.259   6.751  14.907
35732W        W99665  39.352  19.734  14.861
35733W        W99666  38.969  31.140   0.951
35734W        W99667  29.007   1.442  14.427
35735W        W99668   6.202  34.378   3.693
35736W        W99669  36.066  40.964  10.409
35737W        W99670  37.475  10.232  13.890
35738W        W99671   4.840  19.279  13.875
35739W        W99672  20.126  25.182   4.237
35740W        W99673  16.290  20.059  10.141
35741W        W99674   0.907  26.564  10.623
35742W        W99675  10.815  16.260  10.408
35743W        W99676   0.824  36.846  14.911
35744W        W99677   6.836  16.702  14.833
35745W        W99678  41.520  23.618   2.289
35746W        W99679  17.211  44.306   3.772
35747W        W99680  43.913  19.548  13.426
35748W        W99681  44.903  30.128   1.891
35749W        W99682  36.516   2.967   3.343
35750W        W99683   0.274  32.901  13.469
35751W        W99684  30.981  25.492   0.469
35752W        W99685  28.041  28.492   0.379
35753W        W99686   0.322  33.944  10.547
35754W        W99687   4.921  38.943  10.107
35755W        W99688   5.431   7.303   1.862
35756W        W99689  27.145  41.531  12.839
35757W        W99690  29.517   2.293   0.321
35758W        W99691  31.619  26.166  10.985
35759W        W99692  40.818   5.750   1.918
35760W        W99693   7.745  37.053  10.893
35761W        W99694   7.883  10.808  11.943
35762W        W99695  27.077  42.011   9.473
35763W        W99696  44.836  11.666   1.264
35764W        W99697  32.637   7.818   4.837
35765W        W99698   9.766  44.803  11.065
35766W        W99699   7.711  43.952  11.401
35767W        W99700  14.125  13.782   3.243
35768W        W99701  39.533  11.201   0.792
35769W        W99702  13.204  35.374  10.556
35770W        W99703   8.221  42.919   0.795
35771W        W99704  39.893  31.111  13.974
35772W        W99705  14.805  14.783  14.032
35773W        W99706  16.192  38.471  14.889
35774W        W99707   6.817  29.154   3.307
35775W        W99708  22.088  29.508   2.668
35776W        W99709  11.817  20.556   3.329
35777W        W99710  11.797  43.510   1.851
35778W        W99711  41.424  21.166  13.905
35779W        W99712  30.442  30.110   0.796
35780W        W99713  15.718  39.352   0.386
35781W        W99714  10.343  41.356  14.911
35782W        W99715  43.303  23.627   9.967
35783W        W99716   2.450   8.707   1.778
35784W        W99717  40.843  18.719  10.962
35785W        W99718   2.379  42.359  11.912
35786W        W99719  28.066  38.020   0.849
35787W        W99720  14.608   4.319  12.031
35788W        W99721  41.308  21.680  14.007
35789W        W99722  29.001   4.231  10.577
35790W        W99723  14.818  43.413   1.700
35791W        W99724  43.422  39.842   1.215
35792W        W99725   2.757  32.924   2.403
35793W        W99726  40.334  35.380  13.864
35794W        W99727  17.304  41.411  13.014
35795W        W99728  17.666  11.716   3.778
35796W        W99729   6.684  43.912  12.881
35797W        W99730  42.012  32.455  13.914
35798W        W99731  21.743   6.725  14.304
35799W        W99732   3.936  20.531   1.761
35800W        W99733  38.946   6.200   2.831
35801W        W99734   0.968  10.641  12.417
35802W        W99735   2.250  40.380   4.690
35803W        W99736  23.682  23.665   4.790
35804W        W99737  34.107   9.204   3.731
35805W        W99738  29.102  31.501   0.419
35806W        W99739   9.267  43.964   1.370
35807W        W99740  40.393  20.611   2.850
35808W        W99741   5.860  24.021   2.405
35809W        W99742   3.355   7.291   3.867
35810W        W99743  33.491  30.947  12.992
35811W        W99744   2.352   8.703  12.436
35812W        W99745  40.020  18.740   4.603
35813W        W99746  23.044  31.899  13.030
35814W        W99747  10.245  20.753  12.828
35815W        W99748  13.339  36.919  13.401
35816W        W99749  29.976  34.572   4.771
35817W        W99750  15.759  43.377  12.838
35818W        W99751  16.194   4.750   4.769
35819W        W99752  38.984  19.630   0.921
35820W        W99753  27.130  40.053   2.404
35821W        W99754   7.301  13.266  10.951
35822W        W99755  12.734  42.463  13.849
35823W        W99756   8.344  33.053   0.842
35824W        W99757   0.484  18.667   2.864
35825W        W99758   7.848  19.681  14.335
35826W        W99759  23.577  35.367  11.073
35827W        W99760   4.335  11.718  12.856
35828W        W99761  31.522  17.190  12.079
35829W        W99762   1.361  27.465   0.817
35830W        W99763  39.932  36.965   9.959
35831W        W99764   4.216  41.867  13.477
35832W        W99765  33.077  38.517  12.952
35833W        W99766   9.246  14.661  14.926
35834W        W99767  25.966   6.221  11.428
35835W        W99768  28.113  14.660  14.911
35836W        W99769  27.499   8.255  12.462
35837W        W99770  24.538  42.294   2.368
35838W        W99771  19.097  12.167  14.393
35839W        W99772   1.385   4.856   4.194
35840W        W99773  42.300  39.064   5.271
35841W        W99774  41.799  41.786  11.037
35842W        W99775  38.903  17.213   3.294
35843W        W99776  17.188   6.337   1.216
35844W        W99777  12.337  31.896   9.959
35845W        W99778  34.396  36.959  13.046
35846W        W99779  28.505   1.443  14.400
35847W        W99780  26.972  14.728  14.973
35848W        W99781  28.010  14.635   1.288
35849W        W99782  22.189  23.622  14.359
35850W        W99783   0.944   9.335   3.856
35851W        W99784  33.449  42.507   0.476
35852W        W99785  32.442   2.899  10.611
35853W        W99786  26.617  29.457   4.671
35854W        W99787   0.291   2.379  14.800
35855W        W99788  30.948   3.907   0.921
35856W        W99789   8.876  21.041   9.934
35857W        W99790   1.766  22.125   3.782
35858W        W99791  25.685  19.539  14.899
35859W        W99792  14.231  13.118  12.999
35860W        W99793  38.536  42.932  10.514
35861W        W99794  12.158  15.248  12.834
35862W        W99795   3.285  25.122   4.621
35863W        W99796  32.096  27.172   3.648
35864W        W99797  33.065   2.901   4.219
35865W        W99798  31.108  34.866  13.382
35866W        W99799  25.170  18.071  14.343
35867W        W99800  32.471  22.726  10.632
35868W        W99801  33.453  18.131  13.058
35869W        W99802  44.990  38.468   1.759
35870W        W99803   8.310  31.551   4.804
35871W        W99804  22.507   6.746  13.023
35872W        W99805  15.677  13.227   3.335
35873W        W99806   7.872  13.837  12.472
35874W        W99807  34.865   6.783  10.540
35875W        W99808  39.951  38.379   5.241
35876W        W99809   5.434   8.361  13.430
35877W        W99810  26.646   2.876   1.391
35878W        W99811  34.088  17.214   4.647
35879W        W99812  42.943  38.013   2.872
35880W        W99813  24.070  12.188  14.992
35881W        W99814  44.978  32.540   1.925
35882W        W99815  25.131  20.619  14.294
35883W        W99816  31.911  41.528   0.737
35884W        W99817  32.915  24.550   4.310
35885W        W99818  28.983  19.255  14.927
35886W        W99819  30.500  10.154  14.500
35887W        W99820  38.907  42.784   3.755
35888W        W99821  27.631   2.367   2.723
35889W        W99822  20.134  36.454   0.762
35890W        W99823  20.265  12.705  13.392
35891W        W99824  17.587  11.166  13.503
35892W        W99825  30.556  28.569  14.861
35893W        W99826  35.587  15.719   2.811
35894W        W99827  38.376  13.682  11.091
35895W        W99828  29.096   8.171  12.499
35896W        W99829  35.987  20.539   4.708
35897W        W99830  14.222  14.689   0.343
35898W        W99831   0.922  26.577   4.285
35899W        W99832  19.105   5.849  13.890
35900W        W99833   2.470  40.395  14.357
35901W        W99834  11.789  24.697  14.936
35902W        W99835  19.124  12.301  10.599
35903W        W99836   7.291  42.953   0.427
35904W        W99837  39.868  29.161   0.943
35905W        W99838   1.871  12.255  10.065
35906W        W99839   4.788  25.207   0.252
35907W        W99840  18.100  41.531  11.450
35908W        W99841  34.396  35.953   3.245
35909W        W99842  16.608  23.001  12.354
35910W        W99843  15.169  36.972  12.971
35911W        W99844  23.538   8.170  12.948
35912W        W99845  15.593   5.722  13.525
35913W        W99846  38.906  42.379   0.377
35914W        W99847   0.941  12.719   2.398
35915W        W99848   3.304  33.455   2.671
35916W        W99849  40.313  18.121   0.754
35917W        W99850  41.918  13.260   2.356
35918W        W99851  35.446  21.122   0.418
35919W        W99852  25.016   1.325  10.926
35920W        W99853   4.809  10.374   1.906
35921W        W99854  28.099   5.280   4.199
35922W        W99855  38.528  36.421   1.850
35923W        W99856  28.502   3.919  14.511
35924W        W99857  41.029   8.231   4.158
35925W        W99858  16.139   4.390   4.653
35926W        W99859  18.787  35.980  14.937
35927W        W99860  23.239  12.299   5.168
35928W        W99861   3.223  26.465  10.636
35929W        W99862   0.454   9.324  11.392
35930W        W99863  29.946  27.144  12.886
35931W        W99864  27.186  36.488   3.754
35932W        W99865  29.015  25.704   3.385
35933W        W99866  15.274  39.941   3.167
35934W        W99867  14.668  22.662   4.332
35935W        W99868  40.821  23.701  14.989
35936W        W99869  33.115  19.189  11.512
35937W        W99870   3.251   4.933  10.961
35938W        W99871  35.022  40.340   0.944
35939W        W99872   6.336  35.948   5.211
35940W        W99873  37.478  22.063   4.609
35941W        W99874  29.443  36.842  12.374
35942W        W99875  25.670   4.338  12.361
35943W        W99876  42.392   2.293   3.740
35944W        W99877  15.709   5.422   1.315
35945W        W99878  36.349   0.263  11.376
35946W        W99879  39.546  27.183   3.289
35947W        W99880  21.740  20.753   0.276
35948W        W99881  29.082  39.436   2.357
35949W        W99882  24.532  44.444  13.450
35950W        W99883  23.169  20.263   0.739
35951W        W99884  17.119  21.096   0.294
35952W        W99885  38.487  42.814   2.900
35953W        W99886  33.073  39.924   1.932
35954W        W99887  16.793   9.645   2.770
35955W        W99888  42.493  39.004  12.930
35956W        W99889  34.914  41.905   4.310
35957W        W99890   7.823  24.603   0.901
35958W        W99891  30.921  12.723   1.800
35959W        W99892  16.613  39.881  12.965
35960W        W99893  13.817  43.447  12.388
35961W        W99894  26.058  14.804   0.477
35962W        W99895  44.928   7.670   0.262
35963W        W99896  40.937  23.690   2.340
35964W        W99897  24.563   3.753  12.420
35965W        W99898   8.814  30.620   2.204
35966W        W99899  37.398  25.665   5.308
35967W        W99900  38.396  34.573  10.902
35968W        W99901  31.053   5.704   3.353
35969W        W99902   9.287   5.793  11.987
35970W        W99903  20.591  19.612   4.807
35971W        W99904  38.517  41.800  12.462
35972W        W99905  32.074  17.165  13.429
35973W        W99906   1.456   0.431  12.507
35974W        W99907  37.357  31.071   0.780
35975W        W99908  13.662   9.701   1.330
35976W        W99909  31.437  28.618   3.770
35977W        W99910  23.623  29.560   0.323
35978W        W99911  28.605  25.486   2.305
35979W        W99912  32.509  27.956  10.109
35980W        W99913  37.556  36.060   2.755
35981W        W99914  12.298  22.532   1.425
35982W        W99915  34.585  27.013   3.155
35983W        W99916  32.594  32.918   1.304
35984W        W99917  36.402  19.098  13.322
35985W        W99918  31.032  40.314  13.977
35986W        W99919   5.714   2.436  11.860
35987W        W99920  21.095   3.923  13.319
35988W        W99921  17.083  20.060   0.380
35989W        W99922  31.099   1.755  12.476
35990W        W99923  10.378  16.217  10.902
35991W        W99924  17.602  16.804  12.450
35992W        W99925  17.779  39.889   1.725
35993W        W99926   0.984  12.221  13.047
35994W        W99927  15.642  38.484   1.769
35995W        W99928   2.461   5.431  12.500
35996W        W99929  13.795  25.593  10.624
35997W        W99930  13.757  42.013  12.068
35998W        W99931  14.313   6.740   0.849
35999W        W99932  11.659   2.251   1.247
36000W        W99933  43.442  20.042   4.226
36001W        W99934   7.290  41.331  11.372
36002W        W99935  23.193  29.586   3.181
36003W        W99936  18.070  15.318  14.441
36004W        W99937  11.170  13.232   1.396
36005W        W99938  28.440   1.304   1.426
36006W        W99939   1.463  20.146   2.769
36007W        W99940  32.404   2.756   2.382
36008W        W99941  32.040  38.969  14.762
36009W        W99942  29.025   9.347  14.439
36010W        W99943  40.343  28.616  14.496
36011W        W99944  41.036  27.120  14.956
36012W        W99945  10.766  18.554   1.318
36013W        W99946  44.006  20.128   2.288
36014W        W99947   2.441  24.636  13.543
36015W        W99948   2.960   8.173  14.308
36016W        W99949  13.310  17.647   3.803
36017W        W99950  30.127  25.705  13.934
36018W        W99951  12.169   1.280  11.595
36019W        W99952  20.527  15.754  14.908
36020W        W99953  12.289  12.146   2.187
36021W        W99954  24.646  17.069  13.896
36022W        W99955  32.923   7.906   4.647
36023W        W99956  10.355   7.832   3.329
36024W        W99957  21.187  16.151  13.805
36025W        W99958  26.152  39.401  11.944
36026W        W99959  29.487  11.156  14.797
36027W        W99960  21.665   4.445   3.697
36028W        W99961  21.620   2.918  13.995
36029W        W99962  19.678  28.654   1.275
36030W        W99963  31.402   5.824  14.351
36031W        W99964  35.873  26.457  12.930
36032W        W99965  26.038  43.941   3.290
36033W        W99966   8.261  34.369   0.359
36034W        W99967  43.871   4.427  13.379
36035W        W99968  20.085  38.017   3.322
36036W        W99969   9.812  32.119   0.459
36037W        W99970  44.382  12.728  12.527
36038W        W99971  29.979  44.367  12.961
36039W        W99972  19.187   2.250  11.022
36040W        W99973  36.927  20.739  10.604
36041W        W99974  22.643  29.067  13.440
36042W        W99975   8.185  10.654   2.846
36043W        W99976  12.143  26.021  10.419
36044W        W99977   2.456  13.724   3.632
36045W        W99978  44.971  32.991   2.718
36046W        W99979  18.604  40.468   2.413
36047W        W99980  27.031  38.993  14.902
36048W        W99981  32.399  13.142   4.695
36049W        W99982  36.378  10.648   2.867
36050W        W99983  43.453  14.156   3.820
36051W        W99984  11.649  36.400  13.062
36052W        W99985   0.491   5.232   3.278
36053W        W99986  42.020  10.236  11.483
36054W        W99987  25.978  41.480   2.336
36055W        W99988  31.515   0.444  13.972
36056W        W99989   1.870  43.420  13.396
36057W        W99990  28.655  22.585  13.425
36058W        W99991   4.820  30.923   0.792
36059W        W99992  32.966  20.104  13.835
36060W        W99993  12.316  20.226  12.350
36061W        W99994  35.536  41.840   1.347
36062W        W99995  13.746  35.021   2.340
36063W        W99996  23.003   1.249  11.406
36064W        W99997  13.831  10.264  14.385
36065W        W99998  29.609   0.901  13.368
36066W        W99999   0.440  25.189  14.479
36067W        W    0  42.837  24.648   4.648
36068W        W    1   6.786   6.199  10.066
36069W        W    2  27.065  39.398   1.828
36070W        W    3  17.262  25.052   0.468
36071W        W    4  39.342  39.454   0.833
36072W        W    5  21.044   5.748   0.948
36073W        W    6  33.609  13.725  13.532
36074W        W    7   2.317  42.811   0.911
36075W        W    8  19.743  13.813  14.918
36076W        W    9  13.284  40.450   2.397
36077W        W   10  30.488  39.986   2.392
36078W        W   11  16.275   2.927   2.758
36079W        W   12  39.459  10.152  12.420
36080W        W   13  33.440  14.658   0.444
36081W        W   14  18.255  21.249   5.147
36082W        W   15  32.464  26.656  13.944
36083W        W   16  37.541   2.964   4.195
36084W        W   17  23.734  34.040  13.843
36085W        W   18  20.189  27.131   2.200
36086W        W   19  10.149   5.232  12.474
36087W        W   20   8.345  43.846   2.772
36088W        W   21  41.833  15.819   3.765
36089W        W   22  13.247  26.567  12.387
36090W        W   23  39.048  11.328   1.760
36091W        W   24  25.534   4.764  12.501
36092W        W   25  24.583  40.500  13.458
36093W        W   26   7.258  30.533  13.508
36094W        W   27  43.904  11.811   3.804
36095W        W   28   5.269  38.517  14.405
36096W        W   29   2.260   3.409   3.650
36097W        W   30   5.820  33.054   0.280
36098W        W   31  27.944  17.256  11.538
36099W        W   32  18.243  26.098   0.938
36100W        W   33  13.187   4.260  10.545
36101W        W   34   2.283  41.907   1.364
36102W        W   35  20.087  44.426  11.892
36103W        W   36  42.360  36.888   2.821
36104W        W   37  15.109   8.694   9.922
36105W        W   38  43.879  31.556   0.887
36106W        W   39  36.445  26.559   2.306
36107W        W   40   4.862  21.024   3.765
36108W        W   41   8.876  34.602   3.681
36109W        W   42  41.970  22.063  13.047
36110W        W   43   7.838  10.751  11.383
36111W        W   44  33.383  39.516   4.308
36112W        W   45  38.424  11.825   3.356
36113W        W   46  13.729  34.104   0.425
36114W        W   47  43.466  12.726  14.326
36115W        W   48  35.993  43.479  13.997
36116W        W   49  22.095  10.764   2.689
36117W        W   50   1.362   7.379  11.871
36118W        W   51  35.362  34.022   2.338
36119W        W   52   4.336   8.847   4.717
36120W        W   53  18.625  18.731  12.918
36121W        W   54  26.182  14.645   3.316
36122W        W   55  44.831  43.338  11.967
36123W        W   56  24.134  17.557   4.732
36124W        W   57  44.386  23.521   2.791
36125W        W   58  15.775  19.771   1.935
36126W        W   59   7.831  15.298  12.964
36127W        W   60  28.090  25.970   4.614
36128W        W   61  34.973   2.290   0.769
36129W        W   62  27.457  38.425   2.233
36130W        W   63  40.328  43.317  10.561
36131W        W   64  28.028   6.813   3.838
36132W        W   65   4.297  32.525   0.909
36133W        W   66  10.140  26.491   0.465
36134W        W   67   6.273  40.809  11.078
36135W        W   68  40.352  18.102  14.457
36136W        W   69  32.928  21.723   4.177
36137W        W   70  21.092  35.972   0.827
36138W        W   71  19.726  11.734  12.444
36139W        W   72   7.870   4.433   4.133
36140W        W   73  34.106  15.815  11.569
36141W        W   74  36.085  36.017  11.392
36142W        W   75  21.672   0.471   1.886
36143W        W   76  39.939  23.120  11.427
36144W        W   77  39.368  18.553   4.790
36145W        W   78  40.048  22.659  13.483
36146W        W   79   0.832   9.801   1.766
36147W        W   80  30.919  35.522   4.697
36148W        W   81  32.548  43.358   3.227
36149W        W   82  19.715  14.327   2.852
36150W        W   83  28.540  16.174  14.898
36151W        W   84  28.071  24.102  11.415
36152W        W   85   4.892  23.050  14.380
36153W        W   86  10.242  21.221  10.040
36154W        W   87  13.256  31.640  13.381
36155W        W   88  35.018  44.288   4.760
36156W        W   89  39.011  44.376  11.598
36157W        W   90  41.519  29.157   4.162
36158W        W   91  16.297  37.998  14.434
36159W        W   92  20.115  41.850  10.415
36160W        W   93  11.346  15.587   0.782
36161W        W   94  31.078  29.033  13.485
36162W        W   95  25.481  12.652   0.459
36163W        W   96  35.038  44.858   4.293
36164W        W   97   6.758  11.705  11.471
36165W        W   98   4.444  39.560   0.793
36166W        W   99  39.551  30.418  14.022
36167W        W  100   9.791  13.112  12.925
36168W        W  101   0.986   7.765  13.310
36169W        W  102  11.355   7.338  12.042
36170W        W  103  37.463  37.412   1.761
36171W        W  104  22.181  12.142  13.970
36172W        W  105  22.737  23.160  11.057
36173W        W  106  35.102   0.400  12.823
36174W        W  107  27.141  16.183   1.297
36175W        W  108  43.424  33.527  10.567
36176W        W  109  16.121  29.083   3.722
36177W        W  110  17.596  15.087  11.402
36178W        W  111  16.637  14.142   5.126
36179W        W  112   0.830  32.117  14.820
36180W        W  113  27.951  11.629   4.680
36181W        W  114  34.600  26.485   1.415
36182W        W  115  20.700  13.237  10.438
36183W        W  116  44.343  14.722   3.235
36184W        W  117  25.653  38.451  14.865
36185W        W  118  13.148  39.968  12.383
36186W        W  119  21.204  27.573  12.902
36187W        W  120  34.056  15.587   1.877
36188W        W  121  36.959  25.516  11.056
36189W        W  122   7.245  18.642   2.674
36190W        W  123  24.195  40.802   1.293
36191W        W  124  27.552   1.343   3.856
36192W        W  125  33.051  20.063   0.916
36193W        W  126  30.490  36.355   4.764
36194W        W  127   1.406  11.752  10.611
36195W        W  128  41.369  29.021   1.902
36196W        W  129  21.064   8.387  12.857
36197W        W  130   1.966  28.178   0.895
36198W        W  131  36.582  17.131  14.390
36199W        W  132   0.819  22.140   2.197
36200W        W  133   2.317  13.184  11.880
36201W        W  134  14.140  36.867   0.459
36202W        W  135  19.226  40.948   3.716
36203W        W  136  32.011  17.187   5.258
36204W        W  137  31.502  30.998  14.805
36205W        W  138  39.556  20.525  13.927
36206W        W  139  21.523  26.178   4.184
36207W        W  140   4.371  13.155  13.430
36208W        W  141   7.707  22.532   2.852
36209W        W  142  32.137   9.205   0.246
36210W        W  143  22.177   6.915  13.887
36211W        W  144  26.049  10.299   1.271
36212W        W  145  28.167   3.398  14.965
36213W        W  146  20.223  38.974  11.952
36214W        W  147   7.219   7.902   2.802
36215W        W  148  19.742   6.812   4.299
36216W        W  149  37.859  11.750   1.231
36217W        W  150  28.059  12.285   3.330
36218W        W  151  25.971  33.098   1.775
36219W        W  152  35.543   1.448  11.478
36220W        W  153  39.404  37.965  14.971
36221W        W  154   2.740  19.751  14.336
36222W        W  155  22.055   5.896  10.626
36223W        W  156   4.428  22.669   4.616
36224W        W  157  30.594  31.145  11.079
36225W        W  158   4.392  34.402   0.272
36226W        W  159  12.141  14.277   3.188
36227W        W  160   0.896  22.140  12.983
36228W        W  161  19.173  40.880  14.470
36229W        W  162  12.316   3.811   3.681
36230W        W  163  40.848  36.586   3.186
36231W        W  164  26.127   3.391   0.938
36232W        W  165  18.771  18.786   1.301
36233W        W  166  14.101  27.954   3.168
36234W        W  167   3.259  11.733  14.363
36235W        W  168  37.977  27.976  14.993
36236W        W  169  12.776  14.217  14.344
36237W        W  170  39.932  34.072  10.523
36238W        W  171   8.173  33.444  12.956
36239W        W  172   0.795  16.581   2.342
36240W        W  173  11.150  29.535  11.493
36241W        W  174   5.436   8.751  11.994
36242W        W  175  18.192  25.980   1.272
36243W        W  176  20.203  29.113   1.877
36244W        W  177  23.603  10.365   1.410
36245W        W  178  43.869   6.405  12.528
36246W        W  179  14.624   8.747  10.462
36247W        W  180  24.676  39.535  12.393
36248W        W  181  38.325  19.771  12.342
36249W        W  182   2.862   5.387   4.644
36250W        W  183  40.377  28.981   4.169
36251W        W  184  36.063  29.112   2.345
36252W        W  185  30.547   1.311   3.357
36253W        W  186   6.359  35.912  11.028
36254W        W  187  28.088  27.014  13.356
36255W        W  188  29.028  18.096   4.242
36256W        W  189   3.302   7.792   1.830
36257W        W  190  12.721   2.393  13.999
36258W        W  191  15.165   3.812  11.900
36259W        W  192   3.919   3.324   3.745
36260W        W  193  30.527  10.836  10.900
36261W        W  194   0.287   7.897  13.492
36262W        W  195  44.843  38.458  11.528
36263W        W  196  33.932  43.797  11.908
36264W        W  197   8.805   0.425   2.893
36265W        W  198   1.267  35.988  13.540
36266W        W  199  23.058   3.455   4.733
36267W        W  200  13.740  21.665   2.755
36268W        W  201  23.576  30.648  13.032
36269W        W  202  42.908  43.844   4.806
36270W        W  203  29.641  36.523   0.255
36271W        W  204   9.646  38.882   4.242
36272W        W  205  14.687  35.532   0.305
36273W        W  206  34.945   9.770  10.600
36274W        W  207  38.894  15.280   2.705
36275W        W  208  29.510  32.465  13.383
36276W        W  209  17.152  13.737   3.783
36277W        W  210  38.886  25.557   3.864
36278W        W  211  42.780  42.826   4.189
36279W        W  212  14.763  37.872   5.758
36280W        W  213  41.443  37.840   1.271
36281W        W  214  19.639  11.838   1.862
36282W        W  215  30.597  44.943   3.194
36283W        W  216  35.453  43.952  11.120
36284W        W  217  13.754  16.252  12.940
36285W        W  218  28.545  13.320  10.900
36286W        W  219  44.500  33.015   1.753
36287W        W  220   6.422  18.550   2.314
36288W        W  221  29.099  35.875   2.353
36289W        W  222   2.311   0.848  11.108
36290W        W  223  44.988  23.621   0.483
36291W        W  224  26.636  37.893  14.980
36292W        W  225  43.911  28.954  14.500
36293W        W  226   9.163   5.883   4.251
36294W        W  227   8.260   7.891  13.321
36295W        W  228  44.270  20.126   2.392
36296W        W  229   1.304  21.533   0.883
36297W        W  230  23.707  38.477   1.361
36298W        W  231  16.245  34.064   0.259
36299W        W  232  27.138  18.585   4.691
36300W        W  233   7.811  32.940   1.929
36301W        W  234  38.945  25.027  13.396
36302W        W  235  16.292  43.431   1.239
36303W        W  236   0.869   1.846  10.047
36304W        W  237  25.219  36.949   1.272
36305W        W  238  25.202  30.957   1.924
36306W        W  239  14.278  14.664   1.253
36307W        W  240  21.034   5.827  12.850
36308W        W  241  21.100  12.335   0.325
36309W        W  242  35.910  11.173   4.642
36310W        W  243  33.564  43.512   4.619
36311W        W  244  32.452  31.046  14.493
36312W        W  245   5.438  44.786   0.846
36313W        W  246  14.697  21.125   2.758
36314W        W  247  17.801  27.008  12.549
36315W        W  248  41.949  34.090   4.681
36316W        W  249  34.030  14.240   1.285
36317W        W  250  31.566  21.130   1.874
36318W        W  251  24.072  11.703   5.765
36319W        W  252   3.825  25.004  14.388
36320W        W  253   3.917  12.811   5.642
36321W        W  254  17.165   0.449  13.981
36322W        W  255  26.075  25.199   0.879
36323W        W  256  10.289  44.998  13.453
36324W        W  257   2.449  10.358   3.830
36325W        W  258  33.913  34.864   3.746
36326W        W  259  23.551  24.600  11.927
36327W        W  260  31.030  22.189  12.405
36328W        W  261   1.382  43.424   2.866
36329W        W  262   6.817  18.586  10.506
36330W        W  263  34.587  15.236  12.387
36331W        W  264   2.326   1.411   4.650
36332W        W  265  14.803  29.994  12.473
36333W        W  266  22.227  40.891  14.341
36334W        W  267   6.380  19.671   4.206
36335W        W  268  30.157  33.067  14.780
36336W        W  269  16.219  19.197   4.693
36337W        W  270  18.599  34.939   2.707
36338W        W  271   1.936  38.921   0.928
36339W        W  272  18.678  16.256  11.384
36340W        W  273  11.624  19.079  12.829
36341W        W  274  40.312  29.003   2.774
36342W        W  275  21.111  35.876  10.062
36343W        W  276  15.689   6.196   0.950
36344W        W  277  38.884  31.611  11.875
36345W        W  278  30.155  11.278   3.763
36346W        W  279  13.635  15.177   0.257
36347W        W  280  36.954  33.383   4.136
36348W        W  281   6.817  26.518  14.783
36349W        W  282  19.235  16.614  11.406
36350W        W  283  22.598  29.519  10.437
36351W        W  284   7.726  41.988   3.357
36352W        W  285  37.550  39.931   0.951
36353W        W  286  24.153  38.864  11.481
36354W        W  287  27.159   1.740  10.963
36355W        W  288  21.067  29.128   0.851
36356W        W  289  17.594   7.750   2.386
36357W        W  290  10.758   6.357  12.836
36358W        W  291  11.816  20.198  13.041
36359W        W  292  34.921  13.131  14.980
36360W        W  293   9.677  21.634   1.265
36361W        W  294   1.763  18.252  11.397
36362W        W  295  16.262  17.575  13.922
36363W        W  296  31.031   1.288  12.926
36364W        W  297  26.142  23.562   4.307
36365W        W  298  22.707  26.097   2.322
36366W        W  299  15.227  10.646  14.455
36367W        W  300   6.894   1.865  13.899
36368W        W  301  33.952  24.072  12.464
36369W        W  302   0.748  19.548  10.523
36370W        W  303  13.265   1.916   1.254
36371W        W  304  22.192  22.094   3.177
36372W        W  305   7.289   5.792  12.900
36373W        W  306  44.797  26.475  10.957
36374W        W  307   5.225  16.166   0.735
36375W        W  308  15.309  15.096  14.814
36376W        W  309  31.521  20.154  13.454
36377W        W  310  21.576  34.382   0.846
36378W        W  311  30.047  14.228  12.432
36379W        W  312  37.524  16.221  10.466
36380W        W  313  28.632  28.933   4.147
36381W        W  314  35.415  30.626  13.981
36382W        W  315   8.306  14.670   2.778
36383W        W  316   0.844  26.526  13.991
36384W        W  317   3.904  28.073  13.461
36385W        W  318  14.723  12.792  13.828
36386W        W  319   3.810   4.858  14.764
36387W        W  320  22.692  16.204   2.662
36388W        W  321  33.392  11.822   3.643
36389W        W  322   2.418   6.345  14.833
36390W        W  323  35.906  28.938  11.497
36391W        W  324   3.901   5.810  12.579
36392W        W  325  15.673  19.271  13.373
36393W        W  326  42.898   4.285  11.090
36394W        W  327   4.873   3.372   2.389
36395W        W  328   9.156  33.405   2.357
36396W        W  329   1.301   9.331  12.033
36397W        W  330  31.043  20.260   0.316
36398W        W  331  18.180  15.631   0.773
36399W        W  332  12.321  33.581  13.970
36400W        W  333  35.085  40.325   3.735
36401W        W  334  36.873   8.757   1.763
36402W        W  335  26.078  41.928   9.471
36403W        W  336  34.455   5.263   4.792
36404W        W  337   3.803  16.732  10.569
36405W        W  338  38.888   4.798  11.528
36406W        W  339   0.362  31.424  12.906
36407W        W  340   1.263  10.761   4.355
36408W        W  341  15.306  24.549   4.838
36409W        W  342  29.643  27.077  14.333
36410W        W  343  39.908  43.925  11.429
36411W        W  344  15.698  23.541   2.259
36412W        W  345  40.474  15.241  14.878
36413W        W  346  20.670  43.953  12.403
36414W        W  347  31.529  38.410   3.832
36415W        W  348  25.511  25.572   1.318
36416W        W  349  17.710  39.499   1.805
36417W        W  350  44.324   3.369  13.489
36418W        W  351  28.036  44.912  11.530
36419W        W  352  27.064   5.377  13.998
36420W        W  353   4.796  15.329   1.727
36421W        W  354   3.803  41.816   4.318
36422W        W  355   7.309  14.108  11.116
36423W        W  356   2.921  18.065   4.685
36424W        W  357  23.511   2.832   4.788
36425W        W  358  44.360  18.177  13.798
36426W        W  359   5.880  34.997   0.358
36427W        W  360  28.532  28.003   0.865
36428W        W  361  12.768  45.000   2.860
36429W        W  362  26.094  30.939   1.218
36430W        W  363  31.585  20.248  14.772
36431W        W  364  38.904   8.858  14.007
36432W        W  365   5.308  33.095   2.350
36433W        W  366   3.758  38.978  13.535
36434W        W  367   2.894  35.915   4.258
36435W        W  368  28.037  18.645  12.913
36436W        W  369   2.265   5.830   4.297
36437W        W  370  28.115  37.510  13.945
36438W        W  371  14.101   6.683  11.534
36439W        W  372  41.924  30.435   1.255
36440W        W  373  28.106   4.940  11.487
36441W        W  374   7.864  41.456   4.246
36442W        W  375  28.618  29.135   0.277
36443W        W  376  18.788  40.999  10.916
36444W        W  377   4.714  19.556  12.355
36445W        W  378  28.016  26.983  10.582
36446W        W  379  20.619   7.819   1.698
36447W        W  380  39.933  21.600   3.667
36448W        W  381  34.998  20.228  11.881
36449W        W  382  18.183  13.745   0.904
36450W        W  383  19.165  27.954   0.436
36451W        W  384  15.246  22.658   2.225
36452W        W  385  31.899   3.894  14.306
36453W        W  386  35.954  12.152  10.632
36454W        W  387  42.969  13.713   4.794
36455W        W  388  35.070  11.653   2.208
36456W        W  389   1.929   7.185  13.463
36457W        W  390  10.778  27.058  12.526
36458W        W  391   4.442  17.794   0.860
36459W        W  392  36.391  20.192  10.578
36460W        W  393   5.805  25.678  11.880
36461W        W  394  28.448  19.760   0.246
36462W        W  395  41.834  14.321  14.791
36463W        W  396  14.290  19.257   0.834
36464W        W  397  21.144  16.717  11.870
36465W        W  398  22.107  11.142   4.814
36466W        W  399  19.599  10.659  11.072
36467W        W  400  30.605  44.349   1.907
36468W        W  401  35.515   7.288  14.394
36469W        W  402  34.931   7.257   2.339
36470W        W  403  26.969   2.231  11.432
36471W        W  404  20.561   4.923  13.431
36472W        W  405  20.717  18.069  10.893
36473W        W  406  26.561  35.385   0.895
36474W        W  407  10.332  39.520   0.845
36475W        W  408  35.420  36.586   4.131
36476W        W  409  36.857  34.509  10.465
36477W        W  410   6.711   5.932   2.853
36478W        W  411  31.502  27.654  13.992
36479W        W  412  43.998   5.334   0.892
36480W        W  413  14.257  41.903   3.738
36481W        W  414  12.657  14.612  13.985
36482W        W  415  22.192  19.235  12.913
36483W        W  416  44.951  35.094   2.795
36484W        W  417   0.310   0.268   1.318
36485W        W  418  32.949   3.845  11.502
36486W        W  419   2.418  18.159   3.667
36487W        W  420   3.812   0.930   3.693
36488W        W  421  12.810   3.737  13.873
36489W        W  422   3.224  14.653  14.439
36490W        W  423   9.869  13.183   2.336
36491W        W  424  40.474  27.575  13.874
36492W        W  425  33.894  19.551   4.233
36493W        W  426  19.556  17.066   0.936
36494W        W  427  37.452  25.547   2.272
36495W        W  428  11.257  28.129   4.758
36496W        W  429  27.517  25.044  11.057
36497W        W  430  22.036  30.924   2.398
36498W        W  431  33.964   5.922  12.952
36499W        W  432   4.240  20.088   1.890
36500W        W  433  34.918  33.966  10.455
36501W        W  434  20.595  22.026  14.774
36502W        W  435   1.351  25.091   3.294
36503W        W  436  43.867  20.234  14.765
36504W        W  437  36.510  40.419  12.826
36505W        W  438   6.912  30.157   4.737
36506W        W  439   8.677   5.804   3.375
36507W        W  440  27.512  12.709  13.015
36508W        W  441  32.005  16.293  14.980
36509W        W  442  44.828  13.764  13.495
36510W        W  443  12.815  27.175  10.449
36511W        W  444  15.819  28.533   0.277
36512W        W  445  31.561  33.129   4.633
36513W        W  446  24.154  44.262   2.898
36514W        W  447  15.252  23.677   3.281
36515W        W  448  35.028  41.529  11.533
36516W        W  449  35.573  21.154  13.516
36517W        W  450  39.486  26.209   1.795
36518W        W  451  37.562  27.995   2.782
36519W        W  452   7.834  12.856  14.786
36520W        W  453  24.127  28.029  11.437
36521W        W  454   0.954   4.861   2.740
36522W        W  455   6.823  18.239  14.023
36523W        W  456   9.694  38.336  11.094
36524W        W  457  12.829   0.308   1.800
36525W        W  458  33.899  14.639   3.829
36526W        W  459  31.454  32.009   3.239
36527W        W  460   9.745  21.091  13.453
36528W        W  461  23.067   2.409   2.817
36529W        W  462  23.120  39.343  14.324
36530W        W  463  16.701  18.759   1.253
36531W        W  464  27.165  17.778  14.315
36532W        W  465   2.365  14.189   1.771
36533W        W  466  21.063  17.708   0.943
36534W        W  467  28.514  15.256   4.293
36535W        W  468  19.124  26.697  11.968
36536W        W  469   8.369  20.063  12.096
36537W        W  470  42.988  13.703  13.424
36538W        W  471  39.924   2.918   3.661
36539W        W  472  20.575   8.279   0.787
36540W        W  473  17.095  18.296   1.831
36541W        W  474  12.777   2.893   1.738
36542W        W  475  43.509  25.218   0.805
36543W        W  476  37.343  31.974   4.671
36544W        W  477   9.692  20.109   1.233
36545W        W  478   5.799  21.607   3.169
36546W        W  479  28.092  15.150   2.832
36547W        W  480  23.212  20.175  14.779
36548W        W  481  16.153  25.134   2.349
36549W        W  482   1.288   9.251  11.029
36550W        W  483  42.827  21.085   2.411
36551W        W  484  40.326   5.262   3.246
36552W        W  485   2.238   8.743  11.090
36553W        W  486  12.193   4.907  10.456
36554W        W  487  20.135  29.985  10.473
36555W        W  488  32.892  23.575   2.198
36556W        W  489  26.690   3.868  14.828
36557W        W  490  24.000  12.205  13.860
36558W        W  491  21.078  17.710  10.619
36559W        W  492  13.742   9.169   9.590
36560W        W  493  43.798  34.876  14.392
36561W        W  494   3.927   0.454   2.841
36562W        W  495  24.043  24.994  13.376
36563W        W  496   0.848  23.034  10.550
36564W        W  497  41.873  32.928   0.800
36565W        W  498  31.930   9.205   2.355
36566W        W  499  19.113  11.632  10.545
36567W        W  500  44.854   1.957   0.308
36568W        W  501  20.717  31.992  14.832
36569W        W  502  12.283  26.521  13.892
36570W        W  503  21.116  18.234  13.951
36571W        W  504   4.797   6.411   4.807
36572W        W  505   6.243   8.357  12.375
36573W        W  506  13.175  10.327   1.419
36574W        W  507  44.944  25.122   4.306
36575W        W  508  35.075   7.346   1.763
36576W        W  509  25.631  43.940  12.465
36577W        W  510   7.762  32.915  12.028
36578W        W  511  10.682  42.018   0.861
36579W        W  512  22.251  35.445   0.345
36580W        W  513   9.361   0.260  12.965
36581W        W  514  15.211  12.807  11.551
36582W        W  515  17.300  35.072   4.152
36583W        W  516  31.551  10.704  14.382
36584W        W  517  36.537  26.194   4.255
36585W        W  518   1.823   3.783  13.973
36586W        W  519  41.869  19.159  14.791
36587W        W  520  22.607  16.103   2.209
36588W        W  521  28.610  38.882   4.818
36589W        W  522   3.321  10.793  11.558
36590W        W  523  36.351  25.216   2.831
36591W        W  524   9.796   7.224   0.803
36592W        W  525  20.095  14.749   0.244
36593W        W  526  28.959   9.818   1.911
36594W        W  527  39.432  36.095   3.242
36595W        W  528  37.362  42.949  12.524
36596W        W  529  26.680  10.790   4.199
36597W        W  530   6.416  29.945  12.863
36598W        W  531   3.885  14.722  10.970
36599W        W  532  11.730   3.756   3.760
36600W        W  533   9.180   0.384  11.975
36601W        W  534  22.234  40.961  10.949
36602W        W  535  36.520  31.968  10.543
36603W        W  536  35.101  28.965  10.161
36604W        W  537  34.041  26.017  10.951
36605W        W  538   8.349  35.020   0.303
36606W        W  539  19.634  33.910  11.383
36607W        W  540  16.285   5.381  11.989
36608W        W  541  11.143  13.223  13.057
36609W        W  542  21.183  39.444   3.162
36610W        W  543   5.800  27.540  13.476
36611W        W  544  43.976  35.416  11.391
36612W        W  545  17.769  11.765  12.947
36613W        W  546  19.750  11.659  14.411
36614W        W  547  10.873  30.109  13.063
36615W        W  548  25.544   0.388   3.727
36616W        W  549   5.399  12.855  10.958
36617W        W  550  38.983  42.891   3.214
36618W        W  551  20.030  42.990  13.430
36619W        W  552  27.500  20.062   0.804
36620W        W  553  26.533  34.970  10.939
36621W        W  554  30.487  33.875   0.945
36622W        W  555  16.601   3.826  13.880
36623W        W  556  16.141  23.555  14.902
36624W        W  557  11.166  24.551   4.248
36625W        W  558  21.056  17.214   4.608
36626W        W  559  38.919  36.381  11.898
36627W        W  560   1.394  43.885   3.708
36628W        W  561  29.083  14.108  11.958
36629W        W  562  27.122   5.286  14.307
36630W        W  563  27.490  36.888   4.272
36631W        W  564  15.627  44.396   2.669
36632W        W  565  42.989  30.000  14.414
36633W        W  566  37.475  16.072  11.571
36634W        W  567   4.904  22.538   4.650
36635W        W  568  21.711  22.588   3.326
36636W        W  569  29.011  11.194   1.313
36637W        W  570  12.857  30.161  10.509
36638W        W  571  33.515   8.238  12.053
36639W        W  572  44.934   7.686   2.287
36640W        W  573   2.381  32.959   0.940
36641W        W  574  21.752  44.465   1.718
36642W        W  575  29.927  12.171  13.505
36643W        W  576  32.425   8.803  11.439
36644W        W  577  39.376   6.900  13.924
36645W        W  578  12.757  36.495   2.857
36646W        W  579  19.694   0.329  10.473
36647W        W  580   2.383  15.241  10.899
36648W        W  581   2.281   1.443   0.952
36649W        W  582  22.136   3.897   1.801
36650W        W  583  20.080  16.111  14.454
36651W        W  584  27.664  18.603  14.933
36652W        W  585  42.386  39.849   1.420
36653W        W  586  29.507   8.187   0.901
36654W        W  587  19.249  12.138   1.864
36655W        W  588  24.078   7.172   2.774
36656W        W  589  42.853  40.933  10.612
36657W        W  590  44.810  36.504  13.834
36658W        W  591   2.944   9.372  14.309
36659W        W  592  41.956  16.695  11.856
36660W        W  593  34.956  25.101  14.876
36661W        W  594  17.650   0.449   3.715
36662W        W  595  12.224  19.637   1.816
36663W        W  596  10.254   5.801   1.297
36664W        W  597  38.075  13.667   1.338
36665W        W  598  24.098   5.345   3.667
36666W        W  599  29.467  33.008   1.795
36667W        W  600   3.898  44.264  11.918
36668W        W  601  43.294  40.950  13.437
36669W        W  602  26.140   0.322   4.611
36670W        W  603  30.061  15.739  11.384
36671W        W  604  23.985  19.553   5.183
36672W        W  605  18.682   7.401   2.208
36673W        W  606  17.719  22.708   3.675
36674W        W  607  18.072   5.407  14.347
36675W        W  608  41.352  29.141   2.680
36676W        W  609  42.383  32.025   3.703
36677W        W  610  34.534  27.151  13.445
36678W        W  611  28.084  36.074   1.921
36679W        W  612  21.556  11.759   3.647
36680W        W  613  17.717   8.200  10.133
36681W        W  614  18.166  14.296   1.696
36682W        W  615  11.739  12.274   0.288
36683W        W  616  35.079  11.372   1.848
36684W        W  617   1.409  34.446   1.404
36685W        W  618   8.237   1.778   3.184
36686W        W  619  12.832   7.753  10.605
36687W        W  620  37.350  19.779   1.712
36688W        W  621  10.270   8.892  14.494
36689W        W  622  24.092   4.839   2.799
36690W        W  623   3.759  25.205  11.451
36691W        W  624  38.414   5.253  12.871
36692W        W  625  12.216   8.195   1.907
36693W        W  626  44.472   3.837   2.273
36694W        W  627  35.903  35.382  13.374
36695W        W  628  34.881   8.838  11.966
36696W        W  629  36.878  10.296  14.872
36697W        W  630  24.481   9.729   0.250
36698W        W  631  43.943  34.485   0.868
36699W        W  632  21.175  21.628   1.899
36700W        W  633  37.832  43.314  13.905
36701W        W  634  14.137   1.871   0.436
36702W        W  635  17.766  11.194   3.816
36703W        W  636  13.707  23.618  11.404
36704W        W  637  16.140   0.801  13.885
36705W        W  638  26.075  23.636   1.783
36706W        W  639  31.523   8.770  10.508
36707W        W  640  28.166   4.831   2.177
36708W        W  641  11.270  30.072  13.468
36709W        W  642   5.885  37.003  12.077
36710W        W  643   9.336   9.173   1.827
36711W        W  644   4.274  30.537  10.488
36712W        W  645  26.208  35.373   3.812
36713W        W  646   3.739  33.075   1.390
36714W        W  647  36.883  39.041   0.848
36715W        W  648  34.924  34.494   4.349
36716W        W  649  15.592  32.020  14.869
36717W        W  650   2.234  22.080   4.612
36718W        W  651  33.388  25.539  10.644
36719W        W  652  34.395  16.112   3.868
36720W        W  653  29.641  38.565  11.909
36721W        W  654  40.949  31.632   0.907
36722W        W  655  22.703   3.913  12.439
36723W        W  656  32.985  28.508  12.849
36724W        W  657  16.722  28.161  11.074
36725W        W  658  18.235  22.511  12.426
36726W        W  659  24.719  29.136  11.403
36727W        W  660  33.062   4.798  13.973
36728W        W  661   5.742  40.386  11.110
36729W        W  662  33.467   6.723  11.028
36730W        W  663   2.919  29.155   2.379
36731W        W  664  30.059   1.322   3.682
36732W        W  665  18.163  22.227   2.247
36733W        W  666  35.522  23.171  11.930
36734W        W  667  44.924   3.396  14.837
36735W        W  668  30.533  33.616   1.802
36736W        W  669  25.086  36.875  13.917
36737W        W  670  13.202   2.421   3.657
36738W        W  671  30.939  44.289  11.058
36739W        W  672  13.168   7.712   0.835
36740W        W  673  32.124  44.338   3.342
36741W        W  674   7.226  25.170  13.341
36742W        W  675  44.792   0.392  11.034
36743W        W  676  29.481  17.651   2.849
36744W        W  677   5.890  26.537   4.688
36745W        W  678   2.439  43.926  14.498
36746W        W  679   2.891   7.404   2.265
36747W        W  680  44.762  11.263  10.983
36748W        W  681  32.394   3.828   0.799
36749W        W  682  27.603   1.796   5.279
36750W        W  683  22.516  23.526  14.318
36751W        W  684   2.723  18.652  11.524
36752W        W  685  15.631  35.581   2.391
36753W        W  686   6.900  30.547   3.821
36754W        W  687   8.259  25.664   3.856
36755W        W  688  18.117  23.235   3.634
36756W        W  689   8.686   3.281   1.318
36757W        W  690  35.427  44.481   1.880
36758W        W  691  20.231   9.777  12.891
36759W        W  692  32.935  13.212  13.412
36760W        W  693  43.961  10.270   3.705
36761W        W  694  37.504  29.974   0.850
36762W        W  695  22.083   1.893  11.496
36763W        W  696   4.325  42.308  12.556
36764W        W  697  42.872  16.109  14.927
36765W        W  698  15.158  35.861  11.049
36766W        W  699  44.991   4.800   4.738
36767W        W  700   7.698  22.506  14.778
36768W        W  701  12.219  44.346   0.303
36769W        W  702  14.279  31.913  14.452
36770W        W  703   6.354  17.651  11.602
36771W        W  704  25.494  22.119   2.419
36772W        W  705  16.088  20.227  12.383
36773W        W  706  33.053   0.279  13.980
36774W        W  707  35.479   7.232   2.335
36775W        W  708  43.477  37.524   3.751
36776W        W  709  36.067  13.728   1.854
36777W        W  710  12.633  43.004   3.350
36778W        W  711  42.393  19.214   3.370
36779W        W  712  23.554   8.839   1.915
36780W        W  713  21.023  23.629   4.139
36781W        W  714  24.710  24.706  11.449
36782W        W  715  12.295   3.792  10.495
36783W        W  716  34.059  10.141   0.959
36784W        W  717  14.121  28.570   3.210
36785W        W  718  14.677  23.531  11.374
36786W        W  719   8.672  32.534  13.310
36787W        W  720  16.151  43.372  11.573
36788W        W  721  15.292  14.138  10.526
36789W        W  722  12.233  10.369   4.256
36790W        W  723  30.444  41.929   2.902
36791W        W  724  20.274  25.151  10.486
36792W        W  725  26.193   3.238   0.406
36793W        W  726  30.097  15.782   1.879
36794W        W  727  27.058  44.327  12.006
36795W        W  728   7.243  28.639   0.849
36796W        W  729  33.499  10.730  10.060
36797W        W  730  31.046  11.300   4.354
36798W        W  731  23.647   7.372   3.786
36799W        W  732  25.566  20.752   2.816
36800W        W  733  43.363   7.339  12.077
36801W        W  734  39.903  24.092  12.873
36802W        W  735   6.211  28.576   2.858
36803W        W  736  44.832  21.703  13.852
36804W        W  737  39.948  12.820  14.828
36805W        W  738   8.879   9.151   2.668
36806W        W  739  41.444   3.413  12.880
36807W        W  740  26.037   9.659   3.681
36808W        W  741  29.605  39.027  12.873
36809W        W  742  21.647  29.091   1.327
36810W        W  743  30.015   0.922  13.421
36811W        W  744  21.607  16.803  13.351
36812W        W  745  13.707  37.347  11.565
36813W        W  746   6.338  42.028   2.255
36814W        W  747   1.941  16.741  14.768
36815W        W  748  42.904  16.229  14.323
36816W        W  749   0.784   1.259   2.748
36817W        W  750   2.916  19.043   0.246
36818W        W  751  32.938  40.391   2.273
36819W        W  752  21.516   6.246  12.444
36820W        W  753   5.907  35.956   3.329
36821W        W  754  25.989  41.897   0.798
36822W        W  755  21.104   6.919   4.166
36823W        W  756  27.017  22.019   3.386
36824W        W  757   6.333   7.718   1.305
36825W        W  758  19.679  38.364  12.985
36826W        W  759  30.496   7.834  12.396
36827W        W  760  30.011  25.646  12.535
36828W        W  761  30.150   0.321  10.934
36829W        W  762  16.731  18.567   1.812
36830W        W  763  23.615   8.194  11.399
36831W        W  764  25.135  40.885  11.500
36832W        W  765  33.055  41.036  14.855
36833W        W  766  21.261  37.986   2.889
36834W        W  767  24.004  43.920   4.659
36835W        W  768  37.879  15.617   3.868
36836W        W  769  36.941   2.884   3.170
36837W        W  770  21.032  27.989   2.286
36838W        W  771  14.246  25.631   0.367
36839W        W  772  39.376  31.416   3.293
36840W        W  773  35.043  16.632  14.820
36841W        W  774  19.116  11.199   2.667
36842W        W  775  33.412  15.637  11.914
36843W        W  776  21.087  37.547  11.552
36844W        W  777  35.897  38.823  11.478
36845W        W  778  30.547  37.842  13.523
36846W        W  779   3.918  44.305   2.271
36847W        W  780   5.734  25.516   2.669
36848W        W  781  24.612  35.073  13.342
36849W        W  782  44.882  33.898   1.735
36850W        W  783  34.372  10.317   2.775
36851W        W  784  38.065  25.480  10.504
36852W        W  785   2.764  10.782   1.418
36853W        W  786  24.689  35.515   4.631
36854W        W  787  27.580   2.818   2.839
36855W        W  788   3.838   5.920  10.490
36856W        W  789   6.194  28.017  13.388
36857W        W  790  23.671  40.506  12.831
36858W        W  791  39.002  17.145  10.479
36859W        W  792  24.509  25.513  12.910
36860W        W  793  35.366  40.462  11.557
36861W        W  794   3.266  25.110   2.226
36862W        W  795  23.130  12.352  12.825
36863W        W  796  13.219  20.644  13.984
36864W        W  797  18.562  22.625  11.389
36865W        W  798  42.966  29.465   2.342
36866W        W  799  27.007  15.325   4.171
36867W        W  800   4.435  27.190   9.510
36868W        W  801  40.408  25.170   1.782
36869W        W  802  35.021  40.463  10.433
36870W        W  803  16.569   6.334   3.361
36871W        W  804   0.279  28.504   0.304
36872W        W  805  42.939  17.249  10.460
36873W        W  806  13.747  34.537  14.330
36874W        W  807  11.168  29.660  14.809
36875W        W  808  15.240  23.216   3.339
36876W        W  809  36.964  31.469  10.639
36877W        W  810  41.471  34.483   2.196
36878W        W  811   1.836  25.999  10.557
36879W        W  812  32.635  28.088   0.746
36880W        W  813   7.302   3.916  14.385
36881W        W  814  42.350  30.033  10.940
36882W        W  815  31.090  31.094  12.477
36883W        W  816  42.411  11.162  13.876
36884W        W  817  32.591  33.041  13.327
36885W        W  818  23.713  22.552  14.510
36886W        W  819   2.391  40.036   1.813
36887W        W  820   2.962  21.548   4.810
36888W        W  821  11.308  14.626   3.340
36889W        W  822   6.690   7.823   0.303
36890W        W  823  28.097   6.220  12.825
36891W        W  824  20.593  15.213  11.050
36892W        W  825   1.280   7.323   3.786
36893W        W  826  12.812  11.216   2.365
36894W        W  827  10.199  27.613  11.596
36895W        W  828  10.865  10.295  12.580
36896W        W  829  26.598  20.649   2.256
36897W        W  830  26.016   7.693   3.801
36898W        W  831  11.273   7.215   4.713
36899W        W  832  39.033  39.827  13.503
36900W        W  833  32.045  14.692  12.028
36901W        W  834  15.136  22.188   3.171
36902W        W  835   6.726  25.647   2.894
36903W        W  836  18.263  19.114   5.588
36904W        W  837  16.738   1.319  14.777
36905W        W  838   9.278  44.986   4.183
36906W        W  839  42.387  27.085  11.505
36907W        W  840  33.584  13.323   1.902
36908W        W  841   4.285  26.959  13.348
36909W        W  842  16.684  14.685  10.590
36910W        W  843  27.568   1.274   0.348
36911W        W  844  26.127  17.187   3.179
36912W        W  845  34.987  34.615   0.345
36913W        W  846  31.008  31.484  11.484
36914W        W  847  30.938  19.754   1.765
36915W        W  848  33.009  13.262  14.987
36916W        W  849   3.862  11.176   3.280
36917W        W  850  24.985  28.544   3.302
36918W        W  851   6.233   0.346  12.040
36919W        W  852  20.681  19.050  11.465
36920W        W  853  25.140  14.340   2.751
36921W        W  854  43.852  39.424   3.667
36922W        W  855   1.960  44.287  14.817
36923W        W  856  32.076  26.007   3.717
36924W        W  857  18.093  30.531   1.340
36925W        W  858   1.251  16.733  10.428
36926W        W  859   1.835   2.364  12.941
36927W        W  860  25.705  24.641  13.879
36928W        W  861   5.269  14.227   0.455
36929W        W  862  34.612   4.802  10.636
36930W        W  863  15.729  38.415  13.886
36931W        W  864  24.509  42.294  14.351
36932W        W  865  32.888  42.005   4.162
36933W        W  866  39.988   5.850   4.727
36934W        W  867  33.970   6.694   2.713
36935W        W  868  15.636  29.455   2.310
36936W        W  869   2.451  34.431  11.489
36937W        W  870  31.897   0.821   3.148
36938W        W  871  27.196   7.730  12.458
36939W        W  872  31.576   1.959  13.975
36940W        W  873  16.257  40.458  13.973
36941W        W  874   6.231  18.109   2.388
36942W        W  875  24.143  42.855  12.429
36943W        W  876   1.390   8.831  12.384
36944W        W  877   2.393  33.610  11.404
36945W        W  878  37.036  23.566  11.940
36946W        W  879  10.634  38.973   2.366
36947W        W  880  22.172   6.419   2.675
36948W        W  881   5.887  16.629   1.782
36949W        W  882  36.377   8.292  10.590
36950W        W  883  19.237  13.820  11.045
36951W        W  884  23.143  12.166   3.258
36952W        W  885  33.607  38.369   4.821
36953W        W  886  40.421  31.504  13.342
36954W        W  887   1.788  33.415  14.296
36955W        W  888  34.947  24.509   4.189
36956W        W  889  26.197   8.395  14.994
36957W        W  890   0.419   0.494  14.278
36958W        W  891  27.189   6.344  13.346
36959W        W  892  20.542  37.381  11.456
36960W        W  893  22.682  30.449  14.875
36961W        W  894   9.255  31.901   2.279
36962W        W  895   6.408  43.984  11.449
36963W        W  896  23.990  43.506   0.775
36964W        W  897   9.368  18.567  13.399
36965W        W  898  28.096  18.140  11.504
36966W        W  899  10.206  41.846   4.186
36967W        W  900   1.745   1.896   4.321
36968W        W  901   3.930  32.490   0.381
36969W        W  902   1.897  13.343   4.161
36970W        W  903  24.672  32.015  14.823
36971W        W  904  11.759  14.806  10.529
36972W        W  905  37.449   8.363   3.329
36973W        W  906   4.400  35.521  13.316
36974W        W  907  24.539  36.474  12.034
36975W        W  908  43.790  17.266   4.831
36976W        W  909   7.235  42.825   4.611
36977W        W  910   0.775  38.843  12.066
36978W        W  911  28.585  32.406   0.963
36979W        W  912   6.230  31.645  14.792
36980W        W  913  26.164  31.486   0.812
36981W        W  914  24.697  19.638   1.246
36982W        W  915  34.603  39.523  11.952
36983W        W  916  43.907   8.223  12.838
36984W        W  917  37.999   3.295  12.881
36985W        W  918  22.531  28.517   2.358
36986W        W  919   4.246   9.674  14.327
36987W        W  920  34.477  30.436  11.388
36988W        W  921  32.534  23.708   3.730
36989W        W  922  39.482  34.014   3.679
36990W        W  923  41.966  43.773   1.429
36991W        W  924  24.139  28.984  10.106
36992W        W  925  16.304   2.464   3.379
36993W        W  926  33.999  13.779  12.400
36994W        W  927  37.375   1.767   4.265
36995W        W  928  39.008  30.070   0.850
36996W        W  929  36.472  12.843   3.772
36997W        W  930  27.446  22.507  11.546
36998W        W  931  38.941  40.304  10.029
36999W        W  932  26.111  39.972   3.275
37000W        W  933  40.927  22.040  10.454
37001W        W  934  24.530   7.383  10.507
37002W        W  935  17.656  18.596   2.186
37003W        W  936   1.250  24.111  10.485
37004W        W  937  14.829  29.499  12.089
37005W        W  938  28.182  38.974  14.323
37006W        W  939  13.679  42.392   3.368
37007W        W  940  35.395  43.909   2.813
37008W        W  941  28.609  41.041  14.418
37009W        W  942  29.159  29.495  11.964
37010W        W  943   8.396  22.237  11.882
37011W        W  944  36.006  39.540   1.845
37012W        W  945  29.545  36.846   2.719
37013W        W  946  36.035  39.852   1.796
37014W        W  947  19.619  27.583   0.924
37015W        W  948  41.431  24.677  12.961
37016W        W  949  23.090  13.823   0.472
37017W        W  950   3.350   3.779  12.406
37018W        W  951  11.854  10.876   3.178
37019W        W  952   7.412  10.171  12.847
37020W        W  953  30.912  14.707  14.819
37021W        W  954  21.731  42.300   4.217
37022W        W  955  38.489  17.723   1.829
37023W        W  956  43.923   2.906   3.814
37024W        W  957  28.659  24.192   3.349
37025W        W  958  30.655  36.524   4.288
37026W        W  959  16.747  37.429   1.928
37027W        W  960  15.579  39.422   3.686
37028W        W  961  18.710  29.624  11.954
37029W        W  962  25.659   3.740   0.244
37030W        W  963   8.394  44.431   4.349
37031W        W  964  25.080  38.364   0.756
37032W        W  965  39.876   0.764   3.715
37033W        W  966  19.164  35.089   4.235
37034W        W  967  15.308   9.360   1.436
37035W        W  968   1.951  30.018  12.382
37036W        W  969   0.251  19.534  12.086
37037W        W  970  43.785  13.185   0.953
37038W        W  971   0.265  24.694  11.919
37039W        W  972  25.070  34.935  10.931
37040W        W  973  31.467  38.833   1.271
37041W        W  974  10.824  13.674   4.320
37042W        W  975  20.273   5.919   3.152
37043W        W  976  39.538   7.219  12.928
37044W        W  977  33.448  10.838  11.562
37045W        W  978  26.973  27.046  14.462
37046W        W  979  30.469  16.765  13.999
37047W        W  980  22.719  31.909   2.388
37048W        W  981  31.607  17.169  13.808
37049W        W  982  42.932  25.203   2.765
37050W        W  983  33.017  12.360   0.324
37051W        W  984  29.106   8.210   3.296
37052W        W  985  39.525  32.496   3.355
37053W        W  986  44.488  17.132   2.229
37054W        W  987  22.514  42.022   2.390
37055W        W  988  16.689  44.785   3.256
37056W        W  989  25.195  43.508   0.299
37057W        W  990  30.437  32.564   4.683
37058W        W  991  30.521  13.183   1.316
37059W        W  992   9.200  39.981   3.794
37060W        W  993   7.266  26.985  13.021
37061W        W  994  38.975  18.770  12.401
37062W        W  995   9.644  27.474   1.856
37063W        W  996  27.077   4.935  14.855
37064W        W  997  20.152  11.735  10.512
37065W        W  998  41.489  38.393   2.350
37066W        W  999  34.993  18.283   0.904
37067W        W 1000  26.029  22.210   2.779
37068W        W 1001  28.548  32.039  14.806
37069W        W 1002   3.928  20.139   2.695
37070W        W 1003  43.960  12.654  11.566
37071W        W 1004  22.114  10.637  12.047
37072W        W 1005  26.589   2.742   2.786
37073W        W 1006  25.595  24.652   1.294
37074W        W 1007   0.908  40.491   5.190
37075W        W 1008   9.236  39.482   2.186
37076W        W 1009  19.650  39.852   3.321
37077W        W 1010  31.944   0.804   4.758
37078W        W 1011  27.553  21.127  10.419
37079W        W 1012   3.301  25.623  11.999
37080W        W 1013  20.616   4.268   0.826
37081W        W 1014   3.889  17.740   0.763
37082W        W 1015  17.101  21.693  13.903
37083W        W 1016  40.466  11.840  11.976
37084W        W 1017  29.135  27.043   2.268
37085W        W 1018  39.370  34.955   0.775
37086W        W 1019  30.097  34.050  10.603
37087W        W 1020  34.534  37.550   3.711
37088W        W 1021  28.571  41.952  14.435
37089W        W 1022  15.682  23.067  13.543
37090W        W 1023  19.677  10.693   0.828
37091W        W 1024  31.527  42.931  10.972
37092W        W 1025  39.906  37.913  14.876
37093W        W 1026  14.768   8.161  14.877
37094W        W 1027   8.353   0.804  12.901
37095W        W 1028   2.825  43.503  11.606
37096W        W 1029  34.000   3.839  12.577
37097W        W 1030  18.607  29.583   1.921
37098W        W 1031   6.319  17.799  13.518
37099W        W 1032  13.656  43.875   1.704
37100W        W 1033  38.475   0.977   3.736
37101W        W 1034  39.033  27.467   3.823
37102W        W 1035  29.107  18.717   3.207
37103W        W 1036  23.508   5.725  13.966
37104W        W 1037  23.603  13.776  11.878
37105W        W 1038  13.833  43.429   2.803
37106W        W 1039  32.509  36.002   4.622
37107W        W 1040  40.873  22.719  11.600
37108W        W 1041   9.828  31.064   4.609
37109W        W 1042  38.443  10.663  14.766
37110W        W 1043  33.120  22.088  14.479
37111W        W 1044  25.588  42.456  12.865
37112W        W 1045  28.558  43.492   2.665
37113W        W 1046  35.960  30.099   3.222
37114W        W 1047  21.748  35.451  11.569
37115W        W 1048   5.806  28.935  13.431
37116W        W 1049   5.226  38.404  12.353
37117W        W 1050  42.954  25.562   4.681
37118W        W 1051  19.609  41.301   3.745
37119W        W 1052  15.163  30.124  14.952
37120W        W 1053  29.505  25.667   1.898
37121W        W 1054  23.508  25.522  10.598
37122W        W 1055  42.500  33.874  14.786
37123W        W 1056  28.940  33.962  13.993
37124W        W 1057   8.757   7.381   1.280
37125W        W 1058  25.070  27.533   0.816
37126W        W 1059  29.042  12.790   3.166
37127W        W 1060  24.671  40.893  14.403
37128W        W 1061  16.223  15.276   4.241
37129W        W 1062  14.589  37.406   3.735
37130W        W 1063  35.009   2.438  13.472
37131W        W 1064  30.622   5.418  12.550
37132W        W 1065  15.579  40.975   4.164
37133W        W 1066  37.080  42.373   4.284
37134W        W 1067  34.463  19.697  10.626
37135W        W 1068  26.174   9.154  10.145
37136W        W 1069  39.855  26.470  11.968
37137W        W 1070  34.990  14.141  11.492
37138W        W 1071  18.590  22.111  11.052
37139W        W 1072  38.020  21.253   1.321
37140W        W 1073   7.282  18.240  11.583
37141W        W 1074  38.844  17.684  14.425
37142W        W 1075  26.041  15.153   0.901
37143W        W 1076  14.672   9.655   3.659
37144W        W 1077  39.529  16.242   1.781
37145W        W 1078  19.076   4.282  10.566
37146W        W 1079  17.290  34.377   0.431
37147W        W 1080  23.201  33.047   2.409
37148W        W 1081  18.218  39.052  13.959
37149W        W 1082  38.005  41.915  14.976
37150W        W 1083  30.983  24.141   3.734
37151W        W 1084   3.803  33.893  13.446
37152W        W 1085  18.065  12.153  10.462
37153W        W 1086  22.224  11.236  10.506
37154W        W 1087  19.672  35.020   3.296
37155W        W 1088  37.378   3.782  12.053
37156W        W 1089   1.948  31.462  12.509
37157W        W 1090  33.396  32.971   3.708
37158W        W 1091  36.087  11.835  11.020
37159W        W 1092  15.582   6.901   0.375
37160W        W 1093  23.708  28.161   0.789
37161W        W 1094  32.460  23.241   1.394
37162W        W 1095  19.076  14.197   3.243
37163W        W 1096  43.880  33.617  10.917
37164W        W 1097  19.261  17.195   2.249
37165W        W 1098  14.741  10.833  12.928
37166W        W 1099  28.153  30.914  11.607
37167W        W 1100   4.933  14.327  10.954
37168W        W 1101  30.484   9.726  13.961
37169W        W 1102  31.496  12.118  14.383
37170W        W 1103  13.282  25.514   0.379
37171W        W 1104  35.866   6.765   2.338
37172W        W 1105   2.820  40.460  11.956
37173W        W 1106  27.516  37.353   3.190
37174W        W 1107  24.567  23.221  12.960
37175W        W 1108  14.601  44.457  12.553
37176W        W 1109  22.056  31.995   4.211
37177W        W 1110  16.272   6.358  12.439
37178W        W 1111  18.749  27.599  12.979
37179W        W 1112  43.305  38.871  12.449
37180W        W 1113  27.572  35.952   2.276
37181W        W 1114   1.848  22.177   3.382
37182W        W 1115  26.035  21.624  11.452
37183W        W 1116  15.305  14.648   4.223
37184W        W 1117  26.507   0.372  12.541
37185W        W 1118  37.400   0.476  12.559
37186W        W 1119  19.648  35.086  10.615
37187W        W 1120  30.414  27.047   1.309
37188W        W 1121  14.121  40.000   2.800
37189W        W 1122  27.516   2.306  10.468
37190W        W 1123  39.841  30.595  10.933
37191W        W 1124   0.798  23.049   2.371
37192W        W 1125  37.474   3.312   0.922
37193W        W 1126  17.299   9.303   5.274
37194W        W 1127  17.261  28.127  10.966
37195W        W 1128  44.874   1.249  11.067
37196W        W 1129   6.327   4.933   3.386
37197W        W 1130   5.866  16.289   2.417
37198W        W 1131  20.637  42.453   2.412
37199W        W 1132  35.529  12.852  12.843
37200W        W 1133  33.382  36.985  12.451
37201W        W 1134  11.289  16.591  14.985
37202W        W 1135  43.835  27.530  11.419
37203W        W 1136  41.309  38.532  10.126
37204W        W 1137  20.232  19.257  13.530
37205W        W 1138  37.926  13.259   1.893
37206W        W 1139  44.290  21.103  12.340
37207W        W 1140  28.459  22.617   2.813
37208W        W 1141   2.811  38.562  10.502
37209W        W 1142  10.155   0.989  11.406
37210W        W 1143   3.313  28.475  12.004
37211W        W 1144  22.603  40.313   0.775
37212W        W 1145  14.325  15.241  11.469
37213W        W 1146  30.421   5.232   3.793
37214W        W 1147  27.473   0.312  14.768
37215W        W 1148  23.164  31.057  14.474
37216W        W 1149   0.747  31.486  12.380
37217W        W 1150   3.252   6.686   3.655
37218W        W 1151  39.457  36.048   0.297
37219W        W 1152  15.301  18.595   1.882
37220W        W 1153  32.999   8.886  11.384
37221W        W 1154  43.282  16.607  13.945
37222W        W 1155  24.123  11.641  11.405
37223W        W 1156  14.183  11.156  11.096
37224W        W 1157  10.297  12.207   3.160
37225W        W 1158  36.041  41.926   2.671
37226W        W 1159  41.296  41.389   1.271
37227W        W 1160  42.478  27.686   0.289
37228W        W 1161  41.982   2.846  12.535
37229W        W 1162  42.005   5.720  12.910
37230W        W 1163  42.350  26.568  12.380
37231W        W 1164  21.563  18.101   2.260
37232W        W 1165  14.708  35.101  13.385
37233W        W 1166  26.461  30.942   1.312
37234W        W 1167  29.664  22.161   0.911
37235W        W 1168  26.580  43.444  13.827
37236W        W 1169  42.503   8.216  11.530
37237W        W 1170  35.542   9.301   4.188
37238W        W 1171  21.638  24.565  13.335
37239W        W 1172   0.487  44.868  14.296
37240W        W 1173  41.855  42.315  14.418
37241W        W 1174  24.176   7.825   4.283
37242W        W 1175  30.519   7.811   3.244
37243W        W 1176   3.879  20.136  14.407
37244W        W 1177  21.677  39.927   4.736
37245W        W 1178  36.495  40.989   1.897
37246W        W 1179  30.033  31.586   4.341
37247W        W 1180  28.140  40.843   3.202
37248W        W 1181  20.605   7.275  11.460
37249W        W 1182  17.631   5.901   2.265
37250W        W 1183  28.053  13.197  14.834
37251W        W 1184  35.560  32.936   3.792
37252W        W 1185  18.137  17.257   4.353
37253W        W 1186  16.283  22.532   0.891
37254W        W 1187   7.738   3.347  11.486
37255W        W 1188  15.275  43.948   0.895
37256W        W 1189  38.491  13.278  11.903
37257W        W 1190   8.833  40.031   4.123
37258W        W 1191  43.846  18.091   0.483
37259W        W 1192  35.081  21.061   3.376
37260W        W 1193  12.766  21.607  10.512
37261W        W 1194  22.503  37.981   1.359
37262W        W 1195  33.887  25.015   4.283
37263W        W 1196  31.952  35.905  13.431
37264W        W 1197  27.687  31.016  13.485
37265W        W 1198   8.831  15.097  14.436
37266W        W 1199  36.096  17.134   4.319
37267W        W 1200  38.912   1.973  11.593
37268W        W 1201  18.057  16.582   0.799
37269W        W 1202  16.188  28.649  12.068
37270W        W 1203  43.424  44.757  14.841
37271W        W 1204  20.538  20.092   3.657
37272W        W 1205   6.794  27.046   4.277
37273W        W 1206  11.315   8.869   4.276
37274W        W 1207  36.373  18.280   3.836
37275W        W 1208  42.916   6.806  12.931
37276W        W 1209  43.879   3.805   3.150
37277W        W 1210  41.421  24.521  11.450
37278W        W 1211  16.315  17.580   2.180
37279W        W 1212  39.486  42.874   4.346
37280W        W 1213  27.510  22.144   2.670
37281W        W 1214  19.102   2.429   3.801
37282W        W 1215   5.770  16.594  13.480
37283W        W 1216   9.321  41.344  12.409
37284W        W 1217  13.205  13.189   4.193
37285W        W 1218  38.029  38.908  13.818
37286W        W 1219  26.156  32.562   3.339
37287W        W 1220  43.515   1.824   2.729
37288W        W 1221   4.281   6.844   1.784
37289W        W 1222  37.491  23.551   0.284
37290W        W 1223  33.403  35.370   4.751
37291W        W 1224  32.480  32.137  14.362
37292W        W 1225   1.965  35.524  10.414
37293W        W 1226  22.136  23.119  12.541
37294W        W 1227  42.821   1.914   4.200
37295W        W 1228  40.527  38.331   4.699
37296W        W 1229  34.601   2.264  11.927
37297W        W 1230  19.701   9.320   4.137
37298W        W 1231  10.262  13.704  11.950
37299W        W 1232  29.502  42.963   4.124
37300W        W 1233  38.959  41.824  11.521
37301W        W 1234   4.290   4.935  10.471
37302W        W 1235  26.542  18.135  13.812
37303W        W 1236  15.317  33.466   4.224
37304W        W 1237  40.482  31.034   1.894
37305W        W 1238  42.498   4.905   2.837
37306W        W 1239  31.504  23.530   0.815
37307W        W 1240   6.923  19.572  13.528
37308W        W 1241  20.056  32.484   3.793
37309W        W 1242  12.201  18.162   4.673
37310W        W 1243  13.203  24.147   3.636
37311W        W 1244  14.334  21.521  13.818
37312W        W 1245   1.322  44.980   2.851
37313W        W 1246  29.132  35.379   4.770
37314W        W 1247  28.145  23.044  10.578
37315W        W 1248   9.734  41.919  10.529
37316W        W 1249  33.527  40.534   0.262
37317W        W 1250  20.739  40.435   2.811
37318W        W 1251   1.850  32.109   2.196
37319W        W 1252  22.121  17.102  12.938
37320W        W 1253  21.037  37.558   5.294
37321W        W 1254  22.699  35.475  14.826
37322W        W 1255  27.470  40.030   1.830
37323W        W 1256  33.005  13.750   3.377
37324W        W 1257  39.323  25.502   2.744
37325W        W 1258  43.836  22.194  14.026
37326W        W 1259  41.976  18.659   2.316
37327W        W 1260   8.287   9.844   3.275
37328W        W 1261  34.397  32.538  11.954
37329W        W 1262  43.373  14.684   4.668
37330W        W 1263  40.383  20.127   4.822
37331W        W 1264  29.986  11.194  10.911
37332W        W 1265   9.677  15.123  10.514
37333W        W 1266   6.183   4.303   4.609
37334W        W 1267  35.941  29.082   4.352
37335W        W 1268  32.969  13.812   2.692
37336W        W 1269  30.937  36.009   2.883
37337W        W 1270  35.359  31.988   0.317
37338W        W 1271  37.040   5.305   2.252
37339W        W 1272  44.883  44.499  13.028
37340W        W 1273  37.971  35.503   0.300
37341W        W 1274   6.371  35.475  14.929
37342W        W 1275  35.392  27.106   1.855
37343W        W 1276   6.894  15.651  10.068
37344W        W 1277   5.322  41.902  13.518
37345W        W 1278  34.947  17.671  11.034
37346W        W 1279  24.032   9.736  11.010
37347W        W 1280  23.238  21.750  14.018
37348W        W 1281  25.048  13.283  10.941
37349W        W 1282  32.078  12.224   4.324
37350W        W 1283  13.164   4.938   0.771
37351W        W 1284  36.069  19.597   0.920
37352W        W 1285  38.057   0.454   0.941
37353W        W 1286  25.097   3.390  14.505
37354W        W 1287   5.267   9.181   2.197
37355W        W 1288  32.533  28.002   2.189
37356W        W 1289  19.174  25.123  13.534
37357W        W 1290  43.482  33.924   3.682
37358W        W 1291  11.749  30.957  14.367
37359W        W 1292  43.012  40.319  13.369
37360W        W 1293  33.617   3.350  14.982
37361W        W 1294  21.045  14.170   0.255
37362W        W 1295  15.753  35.010   4.147
37363W        W 1296  38.371  10.348   4.657
37364W        W 1297  20.697  37.869  12.867
37365W        W 1298  15.283   7.740   4.154
37366W        W 1299   9.809  11.631  10.491
37367W        W 1300  25.613   2.228   2.209
37368W        W 1301  41.458  39.946  14.015
37369W        W 1302  43.337  16.573   2.817
37370W        W 1303  38.448  31.023   3.190
37371W        W 1304  36.448   6.738  12.836
37372W        W 1305  37.548  27.606  10.404
37373W        W 1306   8.370  41.043   1.738
37374W        W 1307  31.096  35.569   3.663
37375W        W 1308  14.212   4.857   1.431
37376W        W 1309  39.372  16.811   3.775
37377W        W 1310  32.451  33.027  12.937
37378W        W 1311  28.178  42.849  10.978
37379W        W 1312  26.207  25.699  10.913
37380W        W 1313  35.432   2.309  10.491
37381W        W 1314   5.805  26.652  11.391
37382W        W 1315  37.035  41.503   3.862
37383W        W 1316   9.360  20.266  13.932
37384W        W 1317  25.586  42.010  11.948
37385W        W 1318  11.636   0.339   3.170
37386W        W 1319   6.686  40.376  13.849
37387W        W 1320  29.978  13.650  12.941
37388W        W 1321  12.629  30.539  12.568
37389W        W 1322   3.841   4.806   0.391
37390W        W 1323  37.052  22.052   3.722
37391W        W 1324  37.548  34.882  11.003
37392W        W 1325  13.307  24.059  10.940
37393W        W 1326  11.198  14.673   4.718
37394W        W 1327   2.895  27.005   4.832
37395W        W 1328  13.732   0.908   3.259
37396W        W 1329  22.575   2.952   3.341
37397W        W 1330  28.984  28.014  11.497
37398W        W 1331   6.842   1.941   5.089
37399W        W 1332  39.979  35.460   0.440
37400W        W 1333  29.654  37.842  13.973
37401W        W 1334   6.805  38.911   0.933
37402W        W 1335  44.333   2.961   0.820
37403W        W 1336   6.774  39.992  13.825
37404W        W 1337  42.284   3.819  14.319
37405W        W 1338  27.170  28.110  13.831
37406W        W 1339  32.431  21.686  10.567
37407W        W 1340  32.042  36.424  13.979
37408W        W 1341  21.118  17.716  11.907
37409W        W 1342  37.540  11.680   1.905
37410W        W 1343  41.357  16.599  13.827
37411W        W 1344  40.951  15.170   4.834
37412W        W 1345  10.351   3.250   1.430
37413W        W 1346   5.832  21.636   0.899
37414W        W 1347  21.216   5.922   1.933
37415W        W 1348  40.395  40.480   0.448
37416W        W 1349  25.108  27.132   2.229
37417W        W 1350  25.481   7.290  10.584
37418W        W 1351  20.058  24.059  13.930
37419W        W 1352  28.986  43.281   1.762
37420W        W 1353  23.526  42.947   4.597
37421W        W 1354  23.108  44.866   0.480
37422W        W 1355  35.879  26.563  11.415
37423W        W 1356  25.064  24.719  10.500
37424W        W 1357   1.846   5.896  11.575
37425W        W 1358  23.656  32.028  11.890
37426W        W 1359  26.650  27.076  10.475
37427W        W 1360  28.021   4.375  10.484
37428W        W 1361  21.656  36.502   2.250
37429W        W 1362  29.668  31.127  14.866
37430W        W 1363  35.915  12.756  14.880
37431W        W 1364  11.287  37.539  14.968
37432W        W 1365  36.374   7.239  13.430
37433W        W 1366  34.598  43.017  14.369
37434W        W 1367  24.108  35.860  13.521
37435W        W 1368  43.345  10.382   0.339
37436W        W 1369   5.833  32.128  13.878
37437W        W 1370  20.130  15.592  11.934
37438W        W 1371   7.714  32.935  11.385
37439W        W 1372   1.798  29.500   4.662
37440W        W 1373   3.916  30.658  10.596
37441W        W 1374   6.206   3.275  11.123
37442W        W 1375  36.510  21.702  12.373
37443W        W 1376  30.655  16.706  11.450
37444W        W 1377   7.245  42.803  13.477
37445W        W 1378   3.334   6.828   3.255
37446W        W 1379  36.092  27.951   0.811
37447W        W 1380  38.369   6.690   0.386
37448W        W 1381   6.805  10.653  12.053
37449W        W 1382  38.884  18.264   1.272
37450W        W 1383  32.983  37.083  14.380
37451W        W 1384  28.654  12.210  13.945
37452W        W 1385  30.531  11.171   3.647
37453W        W 1386  24.202  30.919  12.468
37454W        W 1387   4.856  40.905   2.219
37455W        W 1388  24.092  23.644  10.489
37456W        W 1389  27.095  31.963   3.723
37457W        W 1390  23.068  24.601   1.814
37458W        W 1391  22.601  15.816   3.155
37459W        W 1392  27.986  41.010  11.994
37460W        W 1393  29.057  44.797  14.763
37461W        W 1394  11.175  32.553   2.285
37462W        W 1395  26.098  20.692   0.852
37463W        W 1396  31.909  33.131  12.493
37464W        W 1397  13.606  15.600   0.854
37465W        W 1398  22.714   7.814  14.938
37466W        W 1399  14.748  17.162   1.696
37467W        W 1400   3.275  29.546   3.351
37468W        W 1401  10.197  29.970   3.781
37469W        W 1402  17.291  15.186   3.361
37470W        W 1403  17.703  32.466  10.515
37471W        W 1404  44.888  44.924   0.386
37472W        W 1405  17.105  19.694  14.006
37473W        W 1406  23.570   3.921   4.337
37474W        W 1407  24.662  18.210   1.292
37475W        W 1408  15.222  26.137  10.467
37476W        W 1409  43.886   4.881   4.217
37477W        W 1410  16.650  22.172   2.815
37478W        W 1411  29.013   5.748  12.845
37479W        W 1412  36.967  19.048   1.785
37480W        W 1413  28.554  20.572   1.897
37481W        W 1414  26.511  35.525   3.203
37482W        W 1415  38.519  35.880  12.571
37483W        W 1416   1.444  22.559   0.395
37484W        W 1417  38.843  40.507   2.209
37485W        W 1418  25.191  14.605  10.471
37486W        W 1419  23.139  23.185  12.842
37487W        W 1420   8.835  44.399  10.921
37488W        W 1421  44.918  34.486  10.606
37489W        W 1422  42.328  24.050  13.349
37490W        W 1423  12.184  37.451   3.772
37491W        W 1424   8.404  15.207  10.447
37492W        W 1425  17.673  22.624   4.738
37493W        W 1426  15.591   3.294  14.511
37494W        W 1427  26.562   4.762  11.609
37495W        W 1428  34.494  15.707   3.862
37496W        W 1429   6.420  36.995  14.385
37497W        W 1430  28.667   7.364   0.310
37498W        W 1431  41.942  16.764   2.402
37499W        W 1432  37.943  36.384  10.915
37500W        W 1433  41.898  38.373   4.185
37501W        W 1434   2.866  31.017   2.339
37502W        W 1435  41.937   1.957   0.928
37503W        W 1436  20.558  33.970  13.322
37504W        W 1437  41.424   5.428   3.219
37505W        W 1438  41.499  24.182  12.021
37506W        W 1439  33.069  40.943   1.853
37507W        W 1440   9.209  33.563  10.117
37508W        W 1441   6.709  11.322  12.371
37509W        W 1442  17.163  27.082  13.419
37510W        W 1443  31.513  16.273  10.993
37511W        W 1444  37.416  11.639   4.288
37512W        W 1445  30.550  21.110  14.897
37513W        W 1446   5.752  36.472  12.085
37514W        W 1447   5.773  12.195  14.291
37515W        W 1448  23.000  39.031  11.041
37516W        W 1449  40.435   4.811  11.106
37517W        W 1450  40.391  32.980   2.712
37518W        W 1451   4.896  21.608   1.371
37519W        W 1452  35.002   0.787  14.938
37520W        W 1453  39.391  37.552   2.215
37521W        W 1454  23.663  42.022  13.548
37522W        W 1455   8.681  19.262   2.245
37523W        W 1456  31.640  25.592   0.242
37524W        W 1457  31.974  11.624  14.948
37525W        W 1458  36.592   0.398   4.306
37526W        W 1459   2.872  14.695  12.416
37527W        W 1460  11.213  29.516   1.419
37528W        W 1461  25.061  38.937  13.026
37529W        W 1462   9.194   9.277  10.937
37530W        W 1463  40.414  14.824   4.277
37531W        W 1464  40.331   6.339   0.311
37532W        W 1465   5.346   3.718   0.365
37533W        W 1466  16.602  36.364  14.496
37534W        W 1467  18.082   5.839   2.204
37535W        W 1468   0.976  42.346   3.323
37536W        W 1469   3.767  22.036   1.261
37537W        W 1470   4.414  40.503   0.798
37538W        W 1471   4.781  11.682  11.097
37539W        W 1472  13.346  40.939   1.917
37540W        W 1473  28.577  17.223  11.975
37541W        W 1474   6.291   3.290   2.277
37542W        W 1475  35.879  25.980  11.083
37543W        W 1476  17.257  39.361   5.137
37544W        W 1477  42.338  26.647  10.128
37545W        W 1478  41.351  21.146  11.379
37546W        W 1479  34.572  31.517   0.884
37547W        W 1480  24.108  13.763   4.200
37548W        W 1481   5.259  41.946   3.309
37549W        W 1482  22.529  20.266   4.825
37550W        W 1483  18.564   3.287  10.041
37551W        W 1484   8.336  31.129   1.803
37552W        W 1485  40.502  35.877  11.603
37553W        W 1486  14.824  30.655  11.508
37554W        W 1487  39.455  14.649  14.927
37555W        W 1488  15.313  13.722  11.093
37556W        W 1489  33.934  36.861  10.897
37557W        W 1490  10.318  30.106   2.767
37558W        W 1491  25.708  20.081   0.925
37559W        W 1492   1.814  30.637   3.765
37560W        W 1493  32.945  26.690   0.820
37561W        W 1494  37.021  44.466  13.852
37562W        W 1495  23.180   8.357   4.603
37563W        W 1496   0.929  36.517  12.365
37564W        W 1497  11.345  20.198   3.176
37565W        W 1498  40.464  41.972  14.515
37566W        W 1499   2.307  41.515   1.865
37567W        W 1500  30.649  28.180   4.192
37568W        W 1501  18.251  18.078   3.186
37569W        W 1502  14.234  42.466   0.274
37570W        W 1503   0.313  34.993  12.972
37571W        W 1504   1.744   6.208   2.802
37572W        W 1505  27.946   4.827   3.308
37573W        W 1506  10.711  12.318  14.322
37574W        W 1507  33.572   2.886  12.531
37575W        W 1508   9.239  13.636  12.045
37576W        W 1509   5.797  19.563  11.603
37577W        W 1510  18.289  13.670  14.897
37578W        W 1511  38.927  35.908  11.903
37579W        W 1512  14.590  31.900  14.026
37580W        W 1513   3.398  31.421  12.079
37581W        W 1514  38.962  12.128   2.258
37582W        W 1515  23.585  24.974   4.716
37583W        W 1516  24.978  38.916  11.504
37584W        W 1517  13.693   3.889  11.949
37585W        W 1518  41.524  26.514   2.310
37586W        W 1519  17.077  41.330   1.350
37587W        W 1520  38.943  41.996  14.279
37588W        W 1521  43.928   7.710  12.436
37589W        W 1522  26.603  36.890   1.341
37590W        W 1523  36.539  27.657  14.956
37591W        W 1524  24.133   9.708  11.413
37592W        W 1525  18.551   8.288  13.438
37593W        W 1526  18.111  19.614   4.127
37594W        W 1527  23.635  43.961  13.472
37595W        W 1528  14.656  29.020  14.365
37596W        W 1529   2.410  20.100  10.913
37597W        W 1530  16.227  40.965  13.896
37598W        W 1531  12.752  20.252   4.182
37599W        W 1532  15.113  22.531  12.424
37600W        W 1533  32.590   4.806  14.405
37601W        W 1534   0.887  39.903   3.355
37602W        W 1535  17.225   9.257  13.827
37603W        W 1536   3.839  24.058  10.140
37604W        W 1537  35.014  33.572  13.512
37605W        W 1538  44.754  18.771  11.496
37606W        W 1539  28.515  30.581   1.344
37607W        W 1540  26.078  15.197  14.327
37608W        W 1541  20.075  37.450  13.480
37609W        W 1542   6.786  43.388  10.417
37610W        W 1543   2.954  38.363   4.136
37611W        W 1544  10.189  37.387   5.311
37612W        W 1545  38.377  42.320   1.347
37613W        W 1546  17.209  33.097   4.628
37614W        W 1547  16.767  16.184  13.826
37615W        W 1548  17.303  19.728   3.368
37616W        W 1549   3.433  18.706   0.818
37617W        W 1550  28.125  29.434  12.393
37618W        W 1551  12.834  40.514  14.962
37619W        W 1552  19.634  42.775  12.540
37620W        W 1553   7.265   9.390   1.822
37621W        W 1554  22.659   7.333  10.037
37622W        W 1555  22.050   4.902   4.711
37623W        W 1556  13.824  25.566   2.762
37624W        W 1557  41.917  26.146   1.785
37625W        W 1558  32.621  41.436   4.232
37626W        W 1559  37.084  18.141   0.422
37627W        W 1560   7.785  20.158   4.240
37628W        W 1561   9.377  27.525   3.156
37629W        W 1562  32.430  16.118   4.809
37630W        W 1563  14.269  33.609   2.768
37631W        W 1564  34.604  25.475  12.976
37632W        W 1565  27.678  12.148  10.975
37633W        W 1566   2.345  30.456   5.172
37634W        W 1567  26.185   3.746   0.460
37635W        W 1568  28.042  23.733  13.953
37636W        W 1569  12.655  27.569   0.474
37637W        W 1570  35.001   0.456  13.884
37638W        W 1571  25.502  34.936   1.908
37639W        W 1572  16.663   1.371   0.858
37640W        W 1573   8.234  10.355  11.538
37641W        W 1574  28.011  10.243   4.280
37642W        W 1575   5.424  20.754   0.248
37643W        W 1576   7.214   8.295  13.033
37644W        W 1577  34.575  44.307   4.803
37645W        W 1578  42.315   6.693  14.807
37646W        W 1579  16.273  26.564   3.643
37647W        W 1580  23.696  17.616  14.355
37648W        W 1581  43.825  36.093  13.499
37649W        W 1582  39.987   4.839   0.834
37650W        W 1583  19.686  36.857   2.216
37651W        W 1584  24.221   7.757  12.014
37652W        W 1585  19.738   1.974  13.001
37653W        W 1586  32.972  17.696   1.864
37654W        W 1587  27.494  12.669   0.472
37655W        W 1588  20.050  21.142  10.585
37656W        W 1589   7.237  29.956  11.041
37657W        W 1590  10.869  24.038  12.841
37658W        W 1591   5.242  18.577  10.597
37659W        W 1592  38.525   8.335  12.929
37660W        W 1593  13.810  27.973  12.972
37661W        W 1594  28.136  27.166  14.851
37662W        W 1595  21.733  12.223   3.845
37663W        W 1596  23.154  39.506   3.309
37664W        W 1597  21.038  36.392  11.890
37665W        W 1598  37.958  43.498  14.778
37666W        W 1599  21.214   2.385  11.978
37667W        W 1600  10.151  17.758  10.895
37668W        W 1601   7.375  32.912  14.370
37669W        W 1602  22.175  35.536   4.245
37670W        W 1603   6.717   0.826  12.087
37671W        W 1604  31.485  31.520  12.342
37672W        W 1605   1.309  30.131   1.361
37673W        W 1606  19.751   6.391   4.229
37674W        W 1607  25.034  43.402  12.953
37675W        W 1608  44.953  22.168   2.809
37676W        W 1609  16.692  19.187  12.366
37677W        W 1610  36.462  31.128  11.991
37678W        W 1611  38.487  30.139   4.727
37679W        W 1612  13.271  40.341  13.910
37680W        W 1613  28.453  43.439  14.909
37681W        W 1614  10.231  25.007  12.038
37682W        W 1615  32.917  24.203   4.785
37683W        W 1616   9.369  44.403   4.155
37684W        W 1617   7.285  29.942   2.666
37685W        W 1618  30.094  36.592   3.720
37686W        W 1619  14.709  44.010  14.807
37687W        W 1620  33.874  38.944  14.423
37688W        W 1621  31.136   3.883  14.461
37689W        W 1622   7.237  23.201   1.715
37690W        W 1623  32.514  12.851  13.440
37691W        W 1624  42.879  33.024  10.086
37692W        W 1625  20.265   6.721   1.870
37693W        W 1626  30.527  25.203  13.004
37694W        W 1627  31.429   0.953  14.383
37695W        W 1628  40.897  39.434  10.905
37696W        W 1629   3.764  35.417  11.110
37697W        W 1630  38.045  37.502  12.024
37698W        W 1631  31.489   4.305  11.431
37699W        W 1632  40.475   5.428   2.800
37700W        W 1633   6.824  37.423  12.464
37701W        W 1634   9.306   8.663  14.830
37702W        W 1635  19.640  16.688   3.374
37703W        W 1636  38.916  13.183  14.875
37704W        W 1637  16.770  35.364   2.722
37705W        W 1638   6.244  25.637   2.178
37706W        W 1639  14.732   3.766   2.270
37707W        W 1640  42.293  37.453  13.034
37708W        W 1641  28.112  37.343   1.255
37709W        W 1642  33.116  39.048  12.400
37710W        W 1643  43.897  15.660   4.274
37711W        W 1644  37.525  23.725  12.022
37712W        W 1645  42.915  21.184   5.237
37713W        W 1646   9.659  33.545  14.290
37714W        W 1647  43.414  27.667   4.248
37715W        W 1648  15.209  15.286  10.595
37716W        W 1649  22.595  22.738  10.909
37717W        W 1650  38.336  32.480   2.686
37718W        W 1651  11.142  28.567   4.121
37719W        W 1652   4.944  30.930  14.464
37720W        W 1653  18.257  27.649   2.831
37721W        W 1654  13.809  26.480  12.379
37722W        W 1655  12.292   4.257   2.312
37723W        W 1656   0.470  32.984   1.211
37724W        W 1657   1.978  10.384  11.497
37725W        W 1658  31.103  18.755   3.304
37726W        W 1659  14.113  44.772   1.347
37727W        W 1660  28.089   9.169  12.577
37728W        W 1661   1.264  37.076  13.839
37729W        W 1662  31.444  32.594  10.602
37730W        W 1663  34.067  10.244  14.326
37731W        W 1664   9.171  17.775  13.036
37732W        W 1665   1.436  21.548  11.079
37733W        W 1666  27.134   9.384   0.962
37734W        W 1667  38.518   1.238   1.378
37735W        W 1668  21.708  10.704   2.404
37736W        W 1669  22.646  21.616   3.366
37737W        W 1670  19.115   0.789  11.576
37738W        W 1671  17.119  40.381  11.913
37739W        W 1672  29.541  21.155   9.949
37740W        W 1673   1.876  12.205   2.893
37741W        W 1674  20.543  10.713  13.962
37742W        W 1675  32.487  21.225  11.077
37743W        W 1676  18.227  31.947   2.717
37744W        W 1677  36.846  30.566  13.333
37745W        W 1678  17.193   3.404  12.874
37746W        W 1679   9.811  35.461  11.449
37747W        W 1680  23.643  38.051   1.412
37748W        W 1681  16.728  36.981   9.484
37749W        W 1682  32.962  29.462  12.357
37750W        W 1683  29.597  29.436  13.432
37751W        W 1684  39.872   1.918  13.887
37752W        W 1685  30.061  44.316  13.383
37753W        W 1686  39.929   7.726   2.763
37754W        W 1687   7.693   0.823   1.400
37755W        W 1688  32.573  10.214   4.759
37756W        W 1689  34.471  20.266   4.729
37757W        W 1690  34.076  39.839  12.011
37758W        W 1691  22.995  37.368  12.854
37759W        W 1692   2.836  33.408  13.870
37760W        W 1693  41.868  28.660  11.453
37761W        W 1694  30.469  38.468  10.544
37762W        W 1695  24.133   0.967  14.390
37763W        W 1696  37.080  34.078  11.451
37764W        W 1697  28.677   8.344   1.772
37765W        W 1698  18.233  41.525  11.102
37766W        W 1699  40.955  15.599  10.594
37767W        W 1700  26.038   5.718   3.309
37768W        W 1701  38.964  37.903  11.371
37769W        W 1702  10.698  25.608   2.856
37770W        W 1703  10.741  33.083  11.388
37771W        W 1704  17.106   1.274  10.506
37772W        W 1705  35.884  43.826   2.812
37773W        W 1706  11.849   3.261  13.364
37774W        W 1707   8.222  38.998   0.422
37775W        W 1708  23.573  11.833  12.473
37776W        W 1709  19.205  27.554   0.814
37777W        W 1710  11.719  39.970  12.473
37778W        W 1711  41.981  38.326   1.348
37779W        W 1712  38.515  17.757  14.853
37780W        W 1713  32.032  14.144  13.891
37781W        W 1714  44.864  39.354  14.278
37782W        W 1715  27.166   7.818   3.747
37783W        W 1716  24.701  24.062  10.930
37784W        W 1717   3.783  33.594  14.342
37785W        W 1718  33.394  10.305  10.112
37786W        W 1719  32.545  32.472   0.965
37787W        W 1720  27.692   7.307   2.885
37788W        W 1721  19.226  39.872   3.866
37789W        W 1722  31.039  40.491   2.790
37790W        W 1723  43.889   4.752   0.387
37791W        W 1724  12.147  30.072  11.445
37792W        W 1725  19.648   2.228  12.359
37793W        W 1726  19.750  26.040   0.964
37794W        W 1727  43.468   5.423  12.016
37795W        W 1728  24.639  35.107  11.070
37796W        W 1729  41.897  43.898  13.935
37797W        W 1730  18.079   5.763  13.386
37798W        W 1731  13.794  12.120   4.609
37799W        W 1732  29.961  20.564  12.558
37800W        W 1733  10.313  13.134   4.210
37801W        W 1734   7.756  40.474  10.949
37802W        W 1735   3.822  36.545   0.727
37803W        W 1736   8.366  15.097   0.447
37804W        W 1737  38.870  37.886   4.642
37805W        W 1738   7.373  34.589  14.031
37806W        W 1739  39.956  39.451   1.322
37807W        W 1740  30.975   7.773   0.298
37808W        W 1741  18.775  43.285   0.427
37809W        W 1742  33.983   7.806  13.883
37810W        W 1743   5.415  35.494  10.527
37811W        W 1744  11.209  23.535  14.507
37812W        W 1745   8.240   9.644  13.958
37813W        W 1746   5.424  15.249   3.215
37814W        W 1747   2.400  39.848   3.871
37815W        W 1748  29.455  39.375   1.431
37816W        W 1749   6.720  29.473  10.406
37817W        W 1750   3.266  41.821  11.891
37818W        W 1751  22.996  41.459  11.525
37819W        W 1752  39.416  15.761  11.510
37820W        W 1753  25.541  21.213  11.378
37821W        W 1754  33.086  28.014  11.073
37822W        W 1755  13.808  39.330  13.364
37823W        W 1756  33.878  33.088  12.436
37824W        W 1757  40.922   9.195   4.838
37825W        W 1758  41.343   7.713  14.341
37826W        W 1759   2.935  27.041   4.138
37827W        W 1760  11.309  18.725   4.178
37828W        W 1761  40.417  19.122   0.271
37829W        W 1762  15.714   8.869  10.156
37830W        W 1763  17.174  32.604   9.985
37831W        W 1764  29.517  17.577   3.748
37832W        W 1765  17.287  38.393   0.412
37833W        W 1766  32.994  28.946  10.978
37834W        W 1767  31.109  44.295  13.480
37835W        W 1768   3.859  42.347   1.880
37836W        W 1769   2.747  33.616   2.803
37837W        W 1770  31.540  12.185  10.992
37838W        W 1771   5.785  41.416  13.333
37839W        W 1772  36.905  12.312  12.504
37840W        W 1773  44.755  30.543  14.341
37841W        W 1774  16.169  29.597   3.351
37842W        W 1775  39.050  14.777  12.894
37843W        W 1776  12.792  10.794   2.848
37844W        W 1777  10.732  33.020  12.525
37845W        W 1778   3.950  31.908  12.926
37846W        W 1779   6.695  35.080   3.779
37847W        W 1780  30.495  26.616  10.887
37848W        W 1781  17.153  38.341  13.995
37849W        W 1782  16.610  23.034  10.572
37850W        W 1783   3.903  21.728  11.903
37851W        W 1784  23.165  32.082  14.770
37852W        W 1785  44.499  35.093  10.084
37853W        W 1786  31.472  35.587  14.393
37854W        W 1787  44.932  31.934   4.727
37855W        W 1788  12.121   8.784  12.361
37856W        W 1789   6.374  30.437   3.826
37857W        W 1790   6.796  42.500  11.022
37858W        W 1791  44.276  33.015   1.220
37859W        W 1792  20.714   8.332   2.380
37860W        W 1793  44.825  11.737  13.870
37861W        W 1794  22.570  22.511   4.698
37862W        W 1795  32.558  36.511  10.454
37863W        W 1796  16.803  41.881   4.615
37864W        W 1797  29.937  11.673  10.987
37865W        W 1798  19.138  32.418  12.029
37866W        W 1799  35.500  43.775  14.796
37867W        W 1800  41.317   4.778  12.953
37868W        W 1801  28.542  36.561  14.894
37869W        W 1802   2.463   8.374   2.323
37870W        W 1803   5.325  25.650   3.335
37871W        W 1804  21.744  39.505   3.379
37872W        W 1805  36.355  24.657  12.407
37873W        W 1806  29.034  40.525   2.881
37874W        W 1807  24.487  25.066   4.243
37875W        W 1808  22.581  41.929  11.987
37876W        W 1809  40.908  16.684   1.697
37877W        W 1810   5.795  27.517  14.869
37878W        W 1811  25.477  42.878  13.503
37879W        W 1812   4.216  25.132   5.250
37880W        W 1813   9.208  43.368   0.411
37881W        W 1814   2.872  26.631  12.463
37882W        W 1815  28.133  17.740   2.662
37883W        W 1816  23.667  22.592   0.892
37884W        W 1817  44.361  24.531  10.126
37885W        W 1818   8.742  19.696   3.365
37886W        W 1819   0.866  18.223   4.244
37887W        W 1820   8.367  30.154   2.235
37888W        W 1821  43.794  29.518  13.913
37889W        W 1822  32.500   5.717   1.911
37890W        W 1823  27.587  38.904  14.884
37891W        W 1824  18.692   1.762   5.187
37892W        W 1825  42.355   6.302   2.867
37893W        W 1826  24.691  34.419   3.855
37894W        W 1827   9.392   6.684   0.243
37895W        W 1828  37.576   2.291  11.576
37896W        W 1829  42.305  41.496   3.866
37897W        W 1830   6.190  20.747  11.500
37898W        W 1831  31.904  21.130  14.964
37899W        W 1832  35.952  32.629   3.362
37900W        W 1833   8.256  13.628  14.478
37901W        W 1834  31.966   3.904   4.664
37902W        W 1835  30.600  12.763  13.020
37903W        W 1836   9.653  26.007  11.571
37904W        W 1837  21.663  25.615  13.977
37905W        W 1838  29.978  37.065  14.773
37906W        W 1839  40.361   2.784  13.840
37907W        W 1840  41.301  32.028  12.935
37908W        W 1841  21.690  25.091  13.515
37909W        W 1842  38.041  36.944  14.795
37910W        W 1843  44.796   2.862  10.478
37911W        W 1844   4.239  44.425  14.405
37912W        W 1845  18.698   1.810   3.709
37913W        W 1846  22.520  33.489  12.462
37914W        W 1847  35.055  28.118  10.110
37915W        W 1848  27.015  19.096   2.274
37916W        W 1849   9.270  42.867  13.497
37917W        W 1850   5.343  18.225   1.741
37918W        W 1851  38.949  25.195  13.811
37919W        W 1852  36.377  24.540   4.778
37920W        W 1853  37.363  17.182  10.912
37921W        W 1854   3.718   8.315   2.360
37922W        W 1855  29.502  11.795  10.898
37923W        W 1856  17.767   9.165   4.234
37924W        W 1857  19.096  20.542   0.300
37925W        W 1858  22.015  14.589  11.607
37926W        W 1859  14.287  18.137  12.919
37927W        W 1860  12.632  44.994  12.990
37928W        W 1861  29.514  24.687   1.299
37929W        W 1862   0.475  29.041  14.943
37930W        W 1863   4.411   6.347   4.177
37931W        W 1864   9.172  30.527  11.024
37932W        W 1865  13.777   7.338  10.448
37933W        W 1866  24.684  34.598   3.375
37934W        W 1867  15.170  27.958   0.280
37935W        W 1868   9.767  17.792  14.462
37936W        W 1869  32.970  25.154  12.048
37937W        W 1870  26.999  12.318   2.899
37938W        W 1871  12.804  44.450  11.376
37939W        W 1872   4.867  17.224   4.201
37940W        W 1873  35.559  43.339  11.420
37941W        W 1874  39.550  10.713   3.257
37942W        W 1875  27.018  32.083  13.536
37943W        W 1876  27.007  43.483   1.861
37944W        W 1877   9.390  32.393   1.323
37945W        W 1878   7.273  31.076   3.690
37946W        W 1879  16.117  22.203  10.568
37947W        W 1880   6.349  32.422  13.998
37948W        W 1881  34.464  36.999  12.562
37949W        W 1882  10.166  36.576  11.442
37950W        W 1883  17.716  26.487   5.249
37951W        W 1884  20.145  12.742  13.877
37952W        W 1885  34.557   4.881   4.154
37953W        W 1886  20.650  12.202   0.741
37954W        W 1887  40.818   2.337   2.801
37955W        W 1888  23.568  34.926  14.952
37956W        W 1889  42.840  28.632  12.824
37957W        W 1890  39.828  19.609  13.001
37958W        W 1891  14.734  28.637   4.820
37959W        W 1892   8.250  18.761   4.708
37960W        W 1893   7.311  39.875  14.504
37961W        W 1894   4.833  36.891  14.453
37962W        W 1895   0.792  15.731   0.304
37963W        W 1896  21.094  29.425  10.107
37964W        W 1897  42.319  18.203   2.178
37965W        W 1898  15.197  36.443   1.873
37966W        W 1899  39.929  11.692  11.023
37967W        W 1900  15.761  12.673   4.297
37968W        W 1901  28.092   5.431  11.507
37969W        W 1902  12.133  15.288  14.323
37970W        W 1903   7.236  33.603   2.322
37971W        W 1904  21.235   3.841  14.831
37972W        W 1905   9.180   3.905  12.382
37973W        W 1906   9.695  14.659  12.486
37974W        W 1907  11.624  10.252  14.969
37975W        W 1908  42.966  37.012  12.370
37976W        W 1909  30.536  27.992   3.728
37977W        W 1910  24.201  15.313  13.419
37978W        W 1911  37.407  20.130  14.009
37979W        W 1912  33.877  38.000  11.545
37980W        W 1913  24.104  37.362   2.823
37981W        W 1914  24.626  31.080   2.764
37982W        W 1915  28.108  31.060   3.726
37983W        W 1916  22.191   9.261  11.088
37984W        W 1917  32.611  39.043  14.359
37985W        W 1918  20.064   5.226   3.160
37986W        W 1919  25.150  24.692   2.697
37987W        W 1920  40.401  24.159  12.459
37988W        W 1921  24.577  14.687  14.374
37989W        W 1922  33.513  34.526  13.547
37990W        W 1923  37.041  20.550  11.605
37991W        W 1924   3.363  43.915   1.242
37992W        W 1925  29.008  35.522   4.280
37993W        W 1926  23.108  10.201  14.477
37994W        W 1927   2.418   0.493   9.969
37995W        W 1928  27.028  19.652   3.170
37996W        W 1929  29.966  15.778  10.996
37997W        W 1930  24.013   6.747   1.227
37998W        W 1931  33.471  37.864  13.464
37999W        W 1932  30.650  19.751  11.419
38000W        W 1933  36.062  31.083   2.350
38001W        W 1934  19.634  20.239  13.961
38002W        W 1935  32.500   0.747  10.123
38003W        W 1936  30.503   9.287   1.696
38004W        W 1937  24.486  23.670   0.327
38005W        W 1938  18.080  23.548  11.446
38006W        W 1939   7.385  41.330   3.367
38007W        W 1940  21.063  10.702   0.786
38008W        W 1941   8.709  25.620  14.857
38009W        W 1942  28.627  40.490   2.751
38010W        W 1943  27.194  26.198   4.722
38011W        W 1944   3.345  11.844  11.105
38012W        W 1945  37.885  24.568  14.436
38013W        W 1946  35.383   8.707   3.809
38014W        W 1947   0.334  14.589  14.986
38015W        W 1948   6.203   6.233  14.437
38016W        W 1949  33.434  34.580  13.854
38017W        W 1950  26.593   5.228   2.200
38018W        W 1951  29.080  23.639   4.628
38019W        W 1952  20.035  13.742  12.454
38020W        W 1953  10.142  43.816  13.331
38021W        W 1954  20.193   7.388  11.037
38022W        W 1955  38.019  38.375  12.900
38023W        W 1956   2.849  20.228   0.405
38024W        W 1957  15.315  41.531  13.385
38025W        W 1958  17.216  22.746  12.910
38026W        W 1959  29.565   0.933   4.734
38027W        W 1960   7.721  39.489  11.896
38028W        W 1961  27.637  34.863  13.850
38029W        W 1962  15.172  20.710  11.002
38030W        W 1963  11.276   9.202  12.869
38031W        W 1964  13.115  10.852  13.027
38032W        W 1965  26.461  34.935   1.214
38033W        W 1966  15.218  21.199  10.581
38034W        W 1967  20.260  20.579  13.447
38035W        W 1968  18.147   7.178  14.990
38036W        W 1969  14.599   6.683  13.028
38037W        W 1970  16.169   6.818  11.034
38038W        W 1971  24.097  23.610   3.207
38039W        W 1972  18.236  39.498  14.881
38040W        W 1973  40.327  33.906  13.912
38041W        W 1974   5.879  14.797  14.899
38042W        W 1975  42.894  16.211  11.409
38043W        W 1976  42.366  39.452   0.879
38044W        W 1977  39.043  17.631  11.497
38045W        W 1978  19.620  21.557   1.826
38046W        W 1979  17.716  23.637   4.718
38047W        W 1980  28.089   5.368  14.285
38048W        W 1981  18.104  37.494   2.381
38049W        W 1982  35.522   8.177  14.941
38050W        W 1983  37.884  35.956   1.923
38051W        W 1984  29.014  16.714   2.393
38052W        W 1985  38.920   0.285   1.760
38053W        W 1986  33.071  25.573   0.278
38054W        W 1987  13.644  20.166   3.687
38055W        W 1988  42.488  14.676   3.293
38056W        W 1989  35.069  16.104  10.541
38057W        W 1990  28.456  10.221   3.217
38058W        W 1991  40.427  25.697   0.305
38059W        W 1992  25.505  31.479   2.705
38060W        W 1993   8.398  15.658   2.717
38061W        W 1994  28.500  20.757   4.637
38062W        W 1995  34.461  43.361  11.539
38063W        W 1996   7.855  43.283   4.346
38064W        W 1997  18.114   2.386  12.342
38065W        W 1998  28.998  17.708  11.899
38066W        W 1999  35.550  33.001  11.892
38067W        W 2000  16.205  42.849  12.021
38068W        W 2001  33.919  25.628   1.343
38069W        W 2002   7.806  30.092  14.851
38070W        W 2003  11.307   3.217  12.958
38071W        W 2004  23.988  18.138  11.590
38072W        W 2005   9.307  25.604  10.464
38073W        W 2006  30.047  36.037  12.096
38074W        W 2007  25.089   1.278  10.564
38075W        W 2008  30.498   2.923   0.353
38076W        W 2009   3.261  44.373   3.283
38077W        W 2010   4.316  24.653   2.305
38078W        W 2011  22.672   0.363   3.825
38079W        W 2012  16.166  12.233   4.685
38080W        W 2013  37.462  10.298   1.803
38081W        W 2014  20.274  24.194  10.406
38082W        W 2015  31.969  17.180   1.244
38083W        W 2016  28.644   6.218   2.203
38084W        W 2017   1.846  27.667  11.422
38085W        W 2018  16.698  25.559   1.373
38086W        W 2019  16.759  32.412   3.822
38087W        W 2020  43.477  18.708   2.705
38088W        W 2021  43.897  41.496   2.178
38089W        W 2022  29.445  17.082   2.259
38090W        W 2023  30.524  25.474   4.322
38091W        W 2024  43.826  41.836  12.524
38092W        W 2025  38.986  15.677   3.824
38093W        W 2026  31.094  13.159   0.849
38094W        W 2027   9.645   7.206  13.425
38095W        W 2028  27.175  18.754   2.215
38096W        W 2029  44.936  34.461   3.237
38097W        W 2030  22.625  12.718   3.350
38098W        W 2031  38.884  12.764  12.453
38099W        W 2032  34.103   4.253  11.385
38100W        W 2033  26.091   6.814   4.273
38101W        W 2034  33.386  17.574   4.809
38102W        W 2035  12.323  30.057  10.580
38103W        W 2036  34.510  38.023  12.395
38104W        W 2037  12.246  43.293   1.340
38105W        W 2038   3.780  26.517   1.734
38106W        W 2039  44.922  33.119   1.291
38107W        W 2040   5.341  14.594   3.656
38108W        W 2041  42.291  20.736  13.403
38109W        W 2042  12.641  27.131  12.000
38110W        W 2043  32.946  16.770  11.859
38111W        W 2044   9.280  16.103   3.358
38112W        W 2045  35.928  20.055   5.149
38113W        W 2046  16.568  43.274  11.410
38114W        W 2047  15.764  12.148   3.683
38115W        W 2048  24.690  14.317  10.479
38116W        W 2049  18.216  35.464  11.434
38117W        W 2050  20.740  33.015   3.824
38118W        W 2051  26.195  14.720   2.691
38119W        W 2052   5.829  19.711   3.733
38120W        W 2053   6.419   6.691   0.930
38121W        W 2054   8.842  18.070  12.001
38122W        W 2055  43.436  11.762   2.777
38123W        W 2056   0.941   3.327   9.993
38124W        W 2057  30.484  33.909  11.986
38125W        W 2058  18.269  42.776   5.193
38126W        W 2059   3.848  17.622   3.163
38127W        W 2060  21.660  19.217  11.553
38128W        W 2061  36.451  16.241  12.952
38129W        W 2062  40.801   9.691   4.692
38130W        W 2063  29.579  16.634  14.935
38131W        W 2064  34.534   6.317   1.237
38132W        W 2065  32.618  10.673  12.991
38133W        W 2066  44.395   3.376   9.955
38134W        W 2067  30.094   3.812   1.343
38135W        W 2068   1.314  12.132  12.904
38136W        W 2069  28.954  14.718  12.908
38137W        W 2070   2.422  33.943   0.924
38138W        W 2071  15.611   1.940  13.927
38139W        W 2072  30.006  34.517  14.491
38140W        W 2073  32.473  25.040   0.960
38141W        W 2074   3.323  39.981   3.302
38142W        W 2075  33.052   3.277  10.490
38143W        W 2076  30.655   1.750   0.931
38144W        W 2077   0.439  19.630   3.681
38145W        W 2078   0.903   8.363   2.252
38146W        W 2079  33.889  14.319   3.267
38147W        W 2080   7.196  36.432  13.924
38148W        W 2081  39.934  38.988   5.145
38149W        W 2082  40.857   7.205   4.664
38150W        W 2083  42.385   6.206   1.421
38151W        W 2084  15.118  35.929  12.480
38152W        W 2085   0.263  32.607  11.016
38153W        W 2086   9.302  19.159   4.226
38154W        W 2087  42.513   4.916   1.709
38155W        W 2088  40.387   7.386  14.347
38156W        W 2089  17.666   1.865   2.410
38157W        W 2090  10.653  44.401   1.895
38158W        W 2091  18.078  30.442  11.483
38159W        W 2092  39.331  26.619  11.985
38160W        W 2093  12.856  31.541   1.221
38161W        W 2094  36.532  43.432   4.630
38162W        W 2095  33.034  22.019   1.839
38163W        W 2096  18.596  14.793   0.463
38164W        W 2097  32.483  37.558  11.576
38165W        W 2098  34.033  42.006   0.278
38166W        W 2099   8.271   2.827   2.768
38167W        W 2100  21.593  14.132  12.537
38168W        W 2101   6.401  27.133   3.215
38169W        W 2102   4.914  11.134  10.076
38170W        W 2103  12.141  20.076   1.310
38171W        W 2104  38.890  38.980   3.327
38172W        W 2105  24.082  44.412  14.408
38173W        W 2106  19.647  28.506   3.685
38174W        W 2107  32.048  18.062  10.972
38175W        W 2108   5.808  44.842  12.856
38176W        W 2109  14.201   1.881   4.627
38177W        W 2110  35.421  16.200   1.244
38178W        W 2111  33.509   5.270   1.400
38179W        W 2112   8.189  20.620   4.820
38180W        W 2113  22.211  23.624   0.426
38181W        W 2114  43.360  23.670   0.466
38182W        W 2115  23.698  27.446  14.486
38183W        W 2116  42.886  21.525  14.897
38184W        W 2117   9.340  34.911   0.966
38185W        W 2118  36.388  16.632  14.326
38186W        W 2119   7.729  19.738  11.425
38187W        W 2120  30.535  16.690   3.738
38188W        W 2121   6.362  40.359   0.841
38189W        W 2122   2.827  41.399  14.853
38190W        W 2123   2.247  20.115   4.630
38191W        W 2124  25.210  37.044  13.346
38192W        W 2125   8.192   2.449   4.234
38193W        W 2126  36.536  41.298   3.682
38194W        W 2127  11.253  28.987   4.700
38195W        W 2128  27.509  12.725  13.863
38196W        W 2129  32.468  38.970  12.403
38197W        W 2130  16.203  26.626  14.329
38198W        W 2131  19.098  10.848  13.976
38199W        W 2132  21.189  21.587  13.838
38200W        W 2133  19.059  10.307   1.354
38201W        W 2134  10.713  36.948  14.763
38202W        W 2135  29.044  13.316  11.960
38203W        W 2136  18.566  21.667  14.023
38204W        W 2137  26.997  19.570  14.309
38205W        W 2138  42.453  37.581  11.006
38206W        W 2139  10.182  39.527   0.342
38207W        W 2140  12.809  41.472   4.150
38208W        W 2141  26.057  10.239   3.742
38209W        W 2142  21.033  19.602   0.264
38210W        W 2143  24.557  22.110  12.410
38211W        W 2144  13.151   3.412  14.791
38212W        W 2145  30.139   2.810  11.945
38213W        W 2146  31.537  13.168  14.887
38214W        W 2147  40.924  26.956  10.642
38215W        W 2148  14.617   9.200   0.875
38216W        W 2149  29.096  32.017   4.299
38217W        W 2150  24.208  37.862   2.901
38218W        W 2151  36.886  16.622  11.390
38219W        W 2152   5.833  21.091  14.784
38220W        W 2153   4.910   4.776  11.011
38221W        W 2154  17.169  21.749   4.667
38222W        W 2155   7.200  35.573   4.809
38223W        W 2156  29.527  14.267  14.363
38224W        W 2157   6.324  22.201  14.487
38225W        W 2158  41.936   2.409   3.157
38226W        W 2159  17.668  14.312   4.246
38227W        W 2160  39.469   6.827   3.236
38228W        W 2161   6.859  43.506  14.329
38229W        W 2162  44.876   8.728   4.761
38230W        W 2163  42.337  26.625  11.383
38231W        W 2164  40.309  24.630   0.876
38232W        W 2165   3.876  31.505  11.885
38233W        W 2166  17.172  16.696  14.284
38234W        W 2167  23.025  42.350  12.049
38235W        W 2168   9.297  25.638   3.378
38236W        W 2169  25.688   2.425  12.093
38237W        W 2170  38.505  21.147   3.256
38238W        W 2171   8.393  26.070   4.116
38239W        W 2172  38.075   2.951   2.323
38240W        W 2173  43.788   7.699   3.375
38241W        W 2174  33.406   3.385   2.702
38242W        W 2175  36.853   6.789   2.795
38243W        W 2176   7.772  15.628   5.189
38244W        W 2177  15.204  38.940   2.700
38245W        W 2178   1.887  20.617  12.093
38246W        W 2179  16.644  19.574   2.845
38247W        W 2180  10.813  20.237  13.436
38248W        W 2181  13.290   1.338  12.091
38249W        W 2182  39.977   8.224  13.454
38250W        W 2183  37.508  39.048   2.727
38251W        W 2184  42.927  15.084  12.486
38252W        W 2185  34.961  44.272  12.428
38253W        W 2186  41.881  44.779   4.670
38254W        W 2187  42.861   0.449   1.821
38255W        W 2188  20.081  40.055   0.800
38256W        W 2189  30.136  23.177  11.550
38257W        W 2190  39.379  28.564   1.348
38258W        W 2191  16.145  36.514   0.373
38259W        W 2192  18.207   7.367  12.947
38260W        W 2193   6.198  22.109   1.926
38261W        W 2194  16.646  42.843  10.589
38262W        W 2195  22.519  13.613   4.678
38263W        W 2196   7.204   6.404   3.790
38264W        W 2197   1.738  22.241   2.403
38265W        W 2198  39.408  39.364  14.469
38266W        W 2199  27.155  42.307  12.387
38267W        W 2200  31.566  23.497  13.473
38268W        W 2201  20.754  28.982   2.717
38269W        W 2202  30.464  39.822   3.845
38270W        W 2203  21.082  33.457   3.691
38271W        W 2204  14.262  28.463  13.898
38272W        W 2205   3.334  33.526  14.968
38273W        W 2206  12.831  28.024   0.466
38274W        W 2207  22.719  13.612   3.378
38275W        W 2208  17.127  37.555   4.225
38276W        W 2209   1.943  43.954   2.843
38277W        W 2210  39.953  14.177  10.466
38278W        W 2211  24.598  34.099  14.370
38279W        W 2212   8.325   6.360   1.420
38280W        W 2213  11.633  16.719  14.463
38281W        W 2214   3.838  33.983  11.860
38282W        W 2215  16.255  17.701   1.831
38283W        W 2216  35.007  21.668   1.316
38284W        W 2217  10.782   2.241   2.390
38285W        W 2218  36.565   5.392   2.751
38286W        W 2219  39.913  24.020  13.815
38287W        W 2220  25.114   2.866  11.474
38288W        W 2221  26.098  24.048   2.335
38289W        W 2222  32.431   6.739   0.297
38290W        W 2223  37.524  16.747   2.812
38291W        W 2224  29.107  29.645  13.493
38292W        W 2225  12.677  12.748   0.298
38293W        W 2226  36.880   8.362   0.383
38294W        W 2227  42.999  12.664   0.402
38295W        W 2228   9.216   9.299  10.640
38296W        W 2229  25.011  37.837  13.459
38297W        W 2230   6.287  28.118   3.812
38298W        W 2231  10.194  14.327   1.420
38299W        W 2232  32.581  22.228  14.445
38300W        W 2233  44.392  38.513  12.379
38301W        W 2234  42.457   0.752   1.812
38302W        W 2235  27.145   8.278  14.958
38303W        W 2236   1.359   1.783   4.817
38304W        W 2237   6.186   5.420  14.297
38305W        W 2238  27.099  30.568  14.357
38306W        W 2239   3.766  41.912  10.900
38307W        W 2240  37.085  25.533   2.762
38308W        W 2241  27.488   6.727  13.322
38309W        W 2242   1.832  11.688  12.005
38310W        W 2243  21.636   4.352  12.522
38311W        W 2244  20.535  37.954  12.426
38312W        W 2245   5.345  35.053   1.379
38313W        W 2246   3.308  28.104  12.461
38314W        W 2247  32.454  22.605   0.808
38315W        W 2248   9.264  27.967  10.599
38316W        W 2249   6.303  27.592  13.495
38317W        W 2250  31.503  16.778  13.873
38318W        W 2251   8.194  23.692   1.712
38319W        W 2252  18.664  37.342  10.544
38320W        W 2253  40.534  20.551   3.199
38321W        W 2254  30.072   7.896   1.331
38322W        W 2255  29.561  18.284  13.372
38323W        W 2256  35.464  11.635   0.273
38324W        W 2257  29.028  13.680  14.950
38325W        W 2258   9.318  38.529  11.563
38326W        W 2259  10.356  40.509   0.378
38327W        W 2260  20.577  37.850  13.876
38328W        W 2261  39.827   7.870  12.091
38329W        W 2262  15.138  38.496   3.828
38330W        W 2263  36.043  44.491   3.201
38331W        W 2264  40.961  23.993   1.283
38332W        W 2265  22.233  23.717  13.947
38333W        W 2266  14.252  23.607  11.997
38334W        W 2267  26.097  43.811   4.261
38335W        W 2268  14.277  44.426  11.940
38336W        W 2269  10.635  23.091  11.506
38337W        W 2270  13.740  17.758  12.430
38338W        W 2271   9.694  40.413  14.773
38339W        W 2272  38.440  14.740  14.900
38340W        W 2273  44.361  39.491   2.669
38341W        W 2274  22.073   9.335   3.149
38342W        W 2275   9.854  12.700   1.808
38343W        W 2276  44.762   4.420  12.832
38344W        W 2277  42.330  39.885  14.477
38345W        W 2278  14.806  40.321  11.062
38346W        W 2279   6.308   1.794   1.779
38347W        W 2280  22.521  19.691  10.564
38348W        W 2281  27.517  20.617   3.223
38349W        W 2282  40.998   6.186  10.642
38350W        W 2283  27.540   1.759  13.964
38351W        W 2284  31.629   2.392   3.767
38352W        W 2285  41.349  44.791  12.043
38353W        W 2286  43.464  18.576   0.925
38354W        W 2287  28.127   9.299  13.509
38355W        W 2288   8.393  30.095  12.062
38356W        W 2289  13.682   1.831  11.450
38357W        W 2290  14.654  40.845  11.956
38358W        W 2291  12.832  23.986  10.890
38359W        W 2292  20.067  39.032   1.288
38360W        W 2293   7.273  13.623  13.041
38361W        W 2294  38.919  42.951  13.424
38362W        W 2295  23.601  29.956   2.390
38363W        W 2296  28.136  16.693   0.854
38364W        W 2297  10.872  17.572   0.298
38365W        W 2298  29.021  18.238   3.664
38366W        W 2299  27.507  36.041  10.471
38367W        W 2300  30.992  38.052  14.940
38368W        W 2301  24.652   0.479  13.416
38369W        W 2302  41.035  39.515  11.529
38370W        W 2303  44.440  32.511   3.637
38371W        W 2304  39.494  17.134  12.899
38372W        W 2305  39.384  27.027   0.903
38373W        W 2306  20.156   1.946  11.945
38374W        W 2307   0.264   9.849  11.613
38375W        W 2308  34.525  24.500   1.849
38376W        W 2309  14.679  32.975  14.917
38377W        W 2310  35.907  41.932  14.782
38378W        W 2311  13.809   0.361   4.184
38379W        W 2312  17.173  36.584  10.130
38380W        W 2313  22.216  22.625  13.800
38381W        W 2314  20.275  19.103   1.434
38382W        W 2315   4.432  19.151  11.084
38383W        W 2316  13.340  22.590  11.534
38384W        W 2317  29.613  11.652   3.716
38385W        W 2318  43.456  31.058  11.932
38386W        W 2319   9.705  32.434  12.027
38387W        W 2320  27.082   9.230  10.945
38388W        W 2321  43.416  20.652  10.615
38389W        W 2322  29.051   1.891   0.362
38390W        W 2323  23.632  43.791   2.387
38391W        W 2324  28.656  21.237  13.542
38392W        W 2325  10.778   2.786  11.500
38393W        W 2326  10.335  15.263   0.883
38394W        W 2327  42.947  12.816  12.081
38395W        W 2328  30.655  19.666  13.379
38396W        W 2329   8.392  15.586   2.294
38397W        W 2330  19.267  16.567   0.442
38398W        W 2331  40.478  22.639   4.330
38399W        W 2332  21.057  26.628  13.547
38400W        W 2333   2.758  11.297  10.483
38401W        W 2334  37.846   2.762   4.750
38402W        W 2335   3.268  10.719   1.800
38403W        W 2336   6.703   4.934   2.750
38404W        W 2337  15.271   1.949   3.349
38405W        W 2338  41.410  41.522   3.208
38406W        W 2339  20.172   4.392  13.331
38407W        W 2340  42.809   0.473   2.263
38408W        W 2341  40.437  36.431   0.838
38409W        W 2342   0.820  29.497   4.681
38410W        W 2343  21.083  29.102   3.718
38411W        W 2344  17.577  26.579   2.315
38412W        W 2345   9.758  27.595  12.366
38413W        W 2346  33.546  28.119   3.852
38414W        W 2347  16.227  11.367   3.660
38415W        W 2348  34.929  20.558   1.360
38416W        W 2349   1.735   9.738   2.235
38417W        W 2350  15.181  16.244   0.362
38418W        W 2351  35.924   9.654   1.847
38419W        W 2352  20.246  11.683   0.473
38420W        W 2353  23.097  22.209  13.363
38421W        W 2354  39.420  26.644   2.239
38422W        W 2355  40.006   7.808  14.424
38423W        W 2356   6.693  35.441   1.225
38424W        W 2357  43.837   0.745  12.017
38425W        W 2358  15.734  40.967  11.382
38426W        W 2359  19.588  23.661  12.411
38427W        W 2360  28.054  42.949  12.520
38428W        W 2361  44.981  44.491  10.894
38429W        W 2362  44.362  28.440  10.528
38430W        W 2363  20.259  15.247   4.120
38431W        W 2364   2.294  21.022   1.723
38432W        W 2365  35.402  30.066   4.166
38433W        W 2366  14.807  20.091   4.773
38434W        W 2367  30.556  17.191   1.401
38435W        W 2368  42.798   3.937  14.395
38436W        W 2369  28.527   6.270   1.909
38437W        W 2370   7.869   1.278   3.857
38438W        W 2371  43.310  35.465  14.346
38439W        W 2372   3.292  18.740   3.735
38440W        W 2373  26.524  27.118   2.203
38441W        W 2374  36.975  13.210  11.538
38442W        W 2375   2.775  26.493   1.843
38443W        W 2376   1.972   0.780   2.692
38444W        W 2377   1.968  32.626  11.054
38445W        W 2378  31.511  13.631  13.547
38446W        W 2379  11.638  43.392   2.300
38447W        W 2380  30.537  44.467   4.326
38448W        W 2381  22.155  31.088  11.422
38449W        W 2382   1.865   5.315  14.027
38450W        W 2383  12.116   3.216   3.325
38451W        W 2384  10.146  15.584  14.979
38452W        W 2385  30.044   1.421  12.564
38453W        W 2386  24.188  12.763  13.958
38454W        W 2387  37.000  19.272   2.184
38455W        W 2388  22.535  28.603   4.213
38456W        W 2389  33.113  20.701  13.845
38457W        W 2390   3.341  30.518  12.483
38458W        W 2391  25.560  21.167  11.992
38459W        W 2392  13.110  31.477  11.100
38460W        W 2393   1.892  19.278  11.611
38461W        W 2394  22.137  32.540   2.358
38462W        W 2395  26.019  38.916  10.495
38463W        W 2396  27.195  17.606  13.875
38464W        W 2397   6.375  21.753   2.816
38465W        W 2398  38.897  39.001  12.905
38466W        W 2399  41.462  33.931  12.897
38467W        W 2400  42.409  24.583   0.751
38468W        W 2401  17.290   8.862   1.793
38469W        W 2402  12.118  13.702  13.467
38470W        W 2403  39.333  15.609  10.514
38471W        W 2404  30.569  17.659   4.195
38472W        W 2405   3.847  34.399   3.226
38473W        W 2406  44.995  29.120   4.137
38474W        W 2407  26.681  32.420   0.765
38475W        W 2408  34.418  27.502   4.258
38476W        W 2409  24.006  25.663   0.932
38477W        W 2410  28.495  18.551   3.777
38478W        W 2411  25.551   5.366   3.632
38479W        W 2412  41.330  11.829  10.423
38480W        W 2413  27.501  15.602  14.912
38481W        W 2414  43.937   9.867   1.351
38482W        W 2415  14.781  34.969   3.692
38483W        W 2416  36.458  23.712  14.922
38484W        W 2417  35.476  12.307  14.378
38485W        W 2418  12.819  42.395  12.412
38486W        W 2419  14.137  22.528   2.255
38487W        W 2420  44.809   3.425  10.511
38488W        W 2421  24.547  17.288  12.488
38489W        W 2422  37.425  21.171  14.285
38490W        W 2423  35.604  13.659  12.096
38491W        W 2424  15.801  31.049  10.986
38492W        W 2425   3.355  26.503  12.554
38493W        W 2426  28.981  20.059  10.987
38494W        W 2427   4.333  28.645   3.245
38495W        W 2428   8.775  36.538  12.002
38496W        W 2429   0.907  42.414   1.694
38497W        W 2430  32.112  42.321  11.581
38498W        W 2431  31.584  29.660  11.917
38499W        W 2432   1.304  32.414   0.859
38500W        W 2433  39.358  31.590  13.348
38501W        W 2434  43.331  11.666   2.417
38502W        W 2435  19.606   6.815   1.704
38503W        W 2436  22.593   0.422   4.599
38504W        W 2437   8.832  37.987  14.843
38505W        W 2438   2.905  34.867   0.959
38506W        W 2439  29.472  18.644  13.368
38507W        W 2440  34.530  43.407   0.293
38508W        W 2441  35.901   3.315  11.998
38509W        W 2442  14.820  22.609  12.366
38510W        W 2443  18.230  32.568   3.386
38511W        W 2444   1.943   2.808  14.990
38512W        W 2445  31.418   1.763   3.712
38513W        W 2446  19.658   7.171  11.391
38514W        W 2447  37.398  36.892   0.864
38515W        W 2448  40.845   8.861   4.647
38516W        W 2449  40.436  25.010  13.492
38517W        W 2450  29.667  38.026  12.969
38518W        W 2451  37.393   2.736  14.376
38519W        W 2452  30.428  36.352  11.446
38520W        W 2453  40.995  11.242  12.360
38521W        W 2454  21.197  44.775   3.204
38522W        W 2455  19.758  34.093  11.057
38523W        W 2456  30.115  15.782  14.915
38524W        W 2457  38.478  25.055  11.389
38525W        W 2458   1.752  19.277  13.011
38526W        W 2459  16.076  35.089  12.964
38527W        W 2460   5.235   7.291  11.971
38528W        W 2461  27.065  36.913   3.708
38529W        W 2462   7.823   2.251  12.035
38530W        W 2463  42.409  36.385   3.687
38531W        W 2464  11.826  34.552   3.239
38532W        W 2465  20.105   3.765  11.901
38533W        W 2466  20.033  18.167  10.928
38534W        W 2467  25.536  15.707   1.824
38535W        W 2468  35.047   1.942   1.328
38536W        W 2469  31.149   1.887   4.129
38537W        W 2470   2.268  33.522   9.993
38538W        W 2471  32.029  22.134  12.956
38539W        W 2472   1.759   6.191  13.029
38540W        W 2473  15.302  39.875   1.910
38541W        W 2474   0.298  13.331   0.294
38542W        W 2475  24.190  32.414  14.339
38543W        W 2476  38.563  11.738   0.775
38544W        W 2477  19.202  38.518  11.566
38545W        W 2478  21.042  11.625   2.685
38546W        W 2479  10.702  29.120  10.947
38547W        W 2480  13.170  43.834  11.482
38548W        W 2481   2.470  28.938  14.810
38549W        W 2482  13.200  13.599   3.644
38550W        W 2483  36.387  16.146  14.485
38551W        W 2484  38.448  28.438  14.837
38552W        W 2485  10.315  23.194  13.850
38553W        W 2486   9.152   8.900  11.485
38554W        W 2487  41.856  18.172  12.343
38555W        W 2488  20.233  43.838   2.670
38556W        W 2489  10.218  40.509  10.587
38557W        W 2490   7.729  14.267  13.468
38558W        W 2491  41.313   3.853   4.713
38559W        W 2492  14.676  29.140   4.693
38560W        W 2493  26.062  37.999  11.033
38561W        W 2494  33.460  20.602   3.258
38562W        W 2495  25.611  37.384  12.468
38563W        W 2496  15.662  18.227  11.079
38564W        W 2497  34.536  28.159   0.949
38565W        W 2498  44.834  34.043  12.847
38566W        W 2499  29.483  44.770   3.658
38567W        W 2500  30.115   4.776  10.962
38568W        W 2501  29.607   8.166   3.660
38569W        W 2502  22.644  35.480  12.572
38570W        W 2503  44.439  22.686  11.945
38571W        W 2504  18.582  17.787  13.042
38572W        W 2505  43.984  17.786   0.299
38573W        W 2506   7.869  17.136  11.093
38574W        W 2507  13.829  33.457   2.666
38575W        W 2508  28.647  35.358   3.321
38576W        W 2509  32.912  25.516   1.215
38577W        W 2510  35.386  39.916   2.663
38578W        W 2511   3.838  39.485  11.045
38579W        W 2512  12.184  25.197  12.019
38580W        W 2513  29.964  37.518  12.550
38581W        W 2514  35.061  37.980   4.275
38582W        W 2515   4.319  43.322   0.884
38583W        W 2516  29.648  23.017  13.991
38584W        W 2517  17.707  33.878   3.805
38585W        W 2518   5.835  10.207  11.527
38586W        W 2519   7.333   6.204   2.324
38587W        W 2520  19.696  11.346  11.474
38588W        W 2521   4.252  26.090   1.371
38589W        W 2522  34.004  27.980   2.186
38590W        W 2523  14.186   3.256   1.375
38591W        W 2524  29.100  29.568  10.448
38592W        W 2525  40.048  27.996   3.730
38593W        W 2526  44.273  37.486   2.840
38594W        W 2527  19.061  33.930   0.752
38595W        W 2528  12.165   7.734  11.535
38596W        W 2529  31.415  29.987   1.244
38597W        W 2530  40.949  16.718   3.796
38598W        W 2531  20.062  17.747  14.385
38599W        W 2532  38.441  10.233  10.494
38600W        W 2533  37.011  21.177   1.807
38601W        W 2534  35.903   5.752  13.454
38602W        W 2535  18.674  14.199  12.473
38603W        W 2536   5.423  24.104   3.742
38604W        W 2537  29.467   1.908   0.375
38605W        W 2538   5.280   3.235  10.888
38606W        W 2539  31.529  44.918   2.712
38607W        W 2540  32.090  20.654  10.931
38608W        W 2541  18.112  17.640  11.511
38609W        W 2542  43.937  34.557  13.049
38610W        W 2543  34.883  35.552   1.438
38611W        W 2544  43.790   7.701  11.887
38612W        W 2545  34.593  40.902   1.750
38613W        W 2546  25.503  42.817   4.244
38614W        W 2547  35.050  17.128   0.258
38615W        W 2548  26.180  31.592  13.999
38616W        W 2549  18.254  30.012   1.783
38617W        W 2550  18.633   3.920   4.117
38618W        W 2551  15.582  38.030   1.726
38619W        W 2552  35.530  16.717  14.513
38620W        W 2553  12.725  37.572   2.244
38621W        W 2554   5.270   9.815  12.004
38622W        W 2555  14.304  24.178  13.466
38623W        W 2556  16.600  29.616  14.886
38624W        W 2557  21.096  37.055   2.187
38625W        W 2558  30.418   6.867  12.531
38626W        W 2559  14.832  15.208   1.332
38627W        W 2560  29.444   6.788  14.346
38628W        W 2561  12.616  21.143   3.825
38629W        W 2562  44.503  23.545  11.450
38630W        W 2563  43.007  27.145   4.267
38631W        W 2564  19.747  25.535   5.229
38632W        W 2565  10.346   7.342  11.554
38633W        W 2566  43.947  34.948   0.927
38634W        W 2567  32.907  42.998   3.793
38635W        W 2568  36.490  35.873   1.818
38636W        W 2569  10.198   3.925  10.516
38637W        W 2570  26.678  41.009  12.873
38638W        W 2571  19.709  20.705  11.868
38639W        W 2572  39.962  15.132  10.506
38640W        W 2573  30.069  22.127   2.873
38641W        W 2574   8.361  32.126   1.404
38642W        W 2575   4.244   8.804  12.428
38643W        W 2576   3.950   3.432  12.025
38644W        W 2577  31.611  24.200   2.868
38645W        W 2578  41.296  40.434  11.106
38646W        W 2579  34.095  42.965   0.857
38647W        W 2580  17.586  43.451   2.838
38648W        W 2581  26.650  36.023  13.907
38649W        W 2582   7.862   8.172  13.419
38650W        W 2583  16.234  33.028  14.480
38651W        W 2584  29.537  42.366  11.956
38652W        W 2585   6.327  15.795  14.853
38653W        W 2586  19.673  13.141   2.665
38654W        W 2587  11.858  10.798  12.406
38655W        W 2588   9.191  29.617   0.352
38656W        W 2589  29.616  22.588   2.727
38657W        W 2590   5.790   6.689   0.440
38658W        W 2591  33.012   1.368  14.865
38659W        W 2592   6.288   1.737   2.835
38660W        W 2593  31.568  44.277   3.325
38661W        W 2594  43.904  26.646  14.811
38662W        W 2595  31.928  43.844   0.788
38663W        W 2596   5.305   5.697  14.329
38664W        W 2597  17.105  38.841   3.198
38665W        W 2598  35.856  36.559   3.374
38666W        W 2599   1.948  18.084  13.829
38667W        W 2600  18.148  38.546   1.706
38668W        W 2601  41.432   9.386   3.251
38669W        W 2602  42.802   9.861  10.981
38670W        W 2603   0.367   5.252   1.923
38671W        W 2604   7.755  28.627  11.568
38672W        W 2605  23.669  26.024   3.857
38673W        W 2606  29.021   8.188  11.995
38674W        W 2607   9.317  37.445   1.782
38675W        W 2608  34.866  33.109   4.808
38676W        W 2609   9.176  31.444  11.127
38677W        W 2610  27.615  20.219  11.885
38678W        W 2611  24.211  11.156  12.470
38679W        W 2612  21.172  24.718   4.662
38680W        W 2613   6.917  44.301  11.074
38681W        W 2614  23.708   9.208  14.305
38682W        W 2615  13.649  10.743  10.588
38683W        W 2616  41.491  31.538  13.523
38684W        W 2617  32.013  28.982  10.568
38685W        W 2618   3.895  12.758  10.143
38686W        W 2619  38.047  31.527  11.529
38687W        W 2620  20.751  15.644   9.963
38688W        W 2621  18.157  38.335  14.011
38689W        W 2622  23.029   9.273   2.263
38690W        W 2623  38.908   1.880   0.375
38691W        W 2624  34.947  16.172   3.635
38692W        W 2625  26.105  39.464  12.525
38693W        W 2626  26.470  44.774  14.432
38694W        W 2627   6.709  25.171   2.225
38695W        W 2628  36.082  41.874   2.372
38696W        W 2629   1.793  13.282   1.728
38697W        W 2630  31.139  36.364  10.438
38698W        W 2631  20.759  20.705   4.307
38699W        W 2632  42.372  17.629   0.251
38700W        W 2633  35.407   2.897   3.163
38701W        W 2634  25.522  15.297   1.912
38702W        W 2635  40.464  27.454  13.482
38703W        W 2636  27.466  20.681   2.267
38704W        W 2637   9.783  23.504  14.938
38705W        W 2638  44.921   6.717   3.793
38706W        W 2639  35.403  15.818   1.750
38707W        W 2640  22.608  25.608   0.779
38708W        W 2641  18.141  27.190   0.299
38709W        W 2642  28.604  15.143  10.551
38710W        W 2643  30.955  23.491  10.125
38711W        W 2644  23.202  37.380   0.368
38712W        W 2645  44.329  41.880  13.863
38713W        W 2646  38.848  34.068  12.966
38714W        W 2647  44.847   6.401  11.090
38715W        W 2648  12.215   9.381   1.774
38716W        W 2649   4.236   6.914  14.943
38717W        W 2650  36.388  38.424  10.980
38718W        W 2651  25.546   1.917  14.498
38719W        W 2652   1.346  34.456   2.399
38720W        W 2653   6.306  16.164   3.675
38721W        W 2654  37.995  32.964  12.033
38722W        W 2655  43.795   7.311  12.485
38723W        W 2656  29.462  44.423  12.891
38724W        W 2657  20.123  26.063   4.710
38725W        W 2658  23.691   7.363  14.843
38726W        W 2659  34.447  18.546   0.927
38727W        W 2660  20.571   7.219  10.510
38728W        W 2661  33.921  28.450  11.108
38729W        W 2662  39.534  38.866   3.716
38730W        W 2663   1.301  42.025   2.265
38731W        W 2664  12.329  41.923   3.867
38732W        W 2665   7.691   6.322   5.770
38733W        W 2666  19.721   5.801  13.351
38734W        W 2667  17.263  10.859  14.312
38735W        W 2668  22.614   1.369   4.698
38736W        W 2669   0.974  44.285   0.933
38737W        W 2670  39.856  10.182  10.407
38738W        W 2671  34.574  40.422  12.384
38739W        W 2672   9.751   3.351   0.293
38740W        W 2673  38.992   9.666  10.645
38741W        W 2674   3.321  18.652   2.294
38742W        W 2675   8.717   9.857  10.483
38743W        W 2676  32.064   2.415   4.183
38744W        W 2677  25.484  20.112   2.872
38745W        W 2678  13.742  34.005  13.857
38746W        W 2679  20.171   5.902  14.998
38747W        W 2680  16.600  36.929  14.783
38748W        W 2681  23.628  37.577   1.383
38749W        W 2682  16.183   3.808   2.286
38750W        W 2683  24.090  41.328   1.242
38751W        W 2684  35.094  27.018  14.023
38752W        W 2685  28.557  40.540   0.432
38753W        W 2686   2.312  30.941  13.438
38754W        W 2687  19.549  14.777  14.474
38755W        W 2688  31.509  25.624   2.357
38756W        W 2689  26.550  37.519   0.842
38757W        W 2690  11.680  38.360  13.473
38758W        W 2691  23.220  17.306  14.966
38759W        W 2692   5.212  13.688   0.941
38760W        W 2693   4.748  17.297   0.842
38761W        W 2694  17.651  43.365   3.818
38762W        W 2695   1.469  29.560  10.566
38763W        W 2696  35.514  21.172  12.384
38764W        W 2697  14.598  44.477  14.290
38765W        W 2698  11.211  28.622  13.845
38766W        W 2699  20.671  16.764   9.503
38767W        W 2700  34.461  37.942  14.275
38768W        W 2701  18.282  10.277  13.495
38769W        W 2702  31.898  32.494   1.250
38770W        W 2703   9.767   6.370   3.720
38771W        W 2704  44.494  22.006  13.892
38772W        W 2705  14.205  29.126   1.695
38773W        W 2706  24.666  15.714   1.835
38774W        W 2707  39.021   3.905   3.321
38775W        W 2708  25.102  12.157  14.477
38776W        W 2709  12.781  40.394   1.381
38777W        W 2710  35.959  44.438  11.542
38778W        W 2711  38.837  37.540   0.474
38779W        W 2712  40.457   4.305   1.746
38780W        W 2713  40.317  31.598   0.400
38781W        W 2714   5.242  31.084   1.719
38782W        W 2715  34.870  29.934   3.346
38783W        W 2716  25.167   2.798  10.600
38784W        W 2717  14.689  19.044   1.230
38785W        W 2718   4.871  31.526   0.767
38786W        W 2719   7.397   4.432   0.751
38787W        W 2720  42.902  38.447  13.340
38788W        W 2721  17.791  11.633   0.832
38789W        W 2722  36.590   4.800  14.799
38790W        W 2723  34.509   5.738  12.917
38791W        W 2724  39.423   3.933   2.890
38792W        W 2725  15.621  26.539   3.174
38793W        W 2726  19.198  24.534   3.319
38794W        W 2727  10.157  37.866   5.288
38795W        W 2728  15.120  21.070  14.780
38796W        W 2729  37.338  16.207  12.906
38797W        W 2730   6.427  10.816  13.967
38798W        W 2731  18.155  33.604   3.376
38799W        W 2732  42.314  22.581   3.248
38800W        W 2733  30.506   2.909   4.223
38801W        W 2734  22.579  31.136  10.562
38802W        W 2735   3.775   2.944  13.442
38803W        W 2736   7.758   2.234  14.864
38804W        W 2737  33.889  24.711  11.593
38805W        W 2738   7.739  43.480  12.975
38806W        W 2739   7.889  21.160  10.981
38807W        W 2740  35.397  38.559  11.881
38808W        W 2741   9.862   3.837   3.642
38809W        W 2742  40.513  40.798   2.368
38810W        W 2743  34.578  31.407  11.444
38811W        W 2744  24.980  25.071   4.142
38812W        W 2745  24.056  14.242  13.543
38813W        W 2746  26.518  42.939  12.509
38814W        W 2747  32.973   1.424  12.546
38815W        W 2748   3.793  41.518   4.310
38816W        W 2749   0.799  38.377   0.889
38817W        W 2750  38.821   6.712  13.935
38818W        W 2751  36.555  38.057   3.376
38819W        W 2752  38.548  18.197   3.172
38820W        W 2753   7.200  18.572   0.745
38821W        W 2754  12.769  42.510   3.811
38822W        W 2755  25.106  21.189   4.244
38823W        W 2756  36.913  24.665   4.694
38824W        W 2757   9.858  23.233   2.764
38825W        W 2758   2.739  22.165  11.062
38826W        W 2759  16.786  17.225  11.914
38827W        W 2760   0.956  37.995   2.292
38828W        W 2761  37.518  13.810  12.400
38829W        W 2762  20.667  42.322   0.276
38830W        W 2763  23.106  23.998   1.410
38831W        W 2764  26.570  14.736   4.232
38832W        W 2765  15.147  11.682  14.006
38833W        W 2766  22.745  44.833   0.887
38834W        W 2767  13.150   2.434   4.321
38835W        W 2768  42.346  18.570   4.623
38836W        W 2769  10.364   7.856   0.367
38837W        W 2770  35.886  37.914   1.930
38838W        W 2771  18.558  37.345   1.782
38839W        W 2772  36.568  42.010   4.349
38840W        W 2773  41.912  18.206  10.057
38841W        W 2774  27.690  44.757   1.317
38842W        W 2775  20.663  12.309   1.322
38843W        W 2776  13.135  17.210  11.085
38844W        W 2777  31.596   7.216   4.653
38845W        W 2778  31.524  42.784   3.737
38846W        W 2779   6.769   6.265   2.879
38847W        W 2780  41.391  12.329  14.844
38848W        W 2781  11.841  15.209  10.553
38849W        W 2782  16.783  25.675   4.115
38850W        W 2783  15.804  20.240  10.933
38851W        W 2784   8.714   1.284   0.954
38852W        W 2785  14.731   2.860   1.734
38853W        W 2786  30.596  41.896  13.503
38854W        W 2787  38.012  22.999   4.785
38855W        W 2788  25.035  39.479  14.392
38856W        W 2789  10.162   7.869  12.846
38857W        W 2790  12.205  14.242  10.618
38858W        W 2791  11.306  23.067  13.307
38859W        W 2792  23.681  26.190  14.275
38860W        W 2793  30.575  33.924   2.867
38861W        W 2794  12.123  43.439   4.611
38862W        W 2795  28.137  13.649   0.356
38863W        W 2796  12.205   3.327  14.953
38864W        W 2797  42.849  31.604   4.147
38865W        W 2798   9.285  44.854   3.638
38866W        W 2799  22.707   7.900   0.824
38867W        W 2800  21.702  24.106  10.635
38868W        W 2801  25.982  31.002   2.739
38869W        W 2802   6.862  11.680  14.444
38870W        W 2803   4.260  30.616   4.629
38871W        W 2804  31.076  37.086  10.536
38872W        W 2805  19.278   4.443   4.715
38873W        W 2806  42.784  34.501  14.936
38874W        W 2807  42.311  22.021  14.439
38875W        W 2808  23.127  17.703  12.447
38876W        W 2809  43.814   7.207  13.793
38877W        W 2810  43.351   2.438  13.816
38878W        W 2811  20.704  22.164   2.413
38879W        W 2812  21.063   8.399   3.816
38880W        W 2813  41.452  40.544   3.804
38881W        W 2814  16.601   2.899   0.371
38882W        W 2815  29.483  30.999  12.367
38883W        W 2816  43.009  28.570  14.880
38884W        W 2817  40.425   3.737  11.393
38885W        W 2818  33.464  37.938   2.240
38886W        W 2819  33.498  29.550  13.051
38887W        W 2820   4.932  25.029   1.304
38888W        W 2821  38.014  13.264  11.488
38889W        W 2822  34.991  22.043  14.469
38890W        W 2823  22.231  30.077  13.439
38891W        W 2824  44.980  36.398  13.449
38892W        W 2825   4.874  24.099   4.318
38893W        W 2826  38.071   0.249  10.910
38894W        W 2827  22.746  27.976   4.350
38895W        W 2828  17.148  36.402   5.238
38896W        W 2829   0.450  30.916   0.754
38897W        W 2830  21.696  41.923  13.514
38898W        W 2831  29.582  44.442   1.778
38899W        W 2832  35.604   4.822  13.371
38900W        W 2833  19.206  43.499  10.502
38901W        W 2834  33.470  44.949   1.436
38902W        W 2835   8.901  32.962   9.975
38903W        W 2836   7.885  26.555   1.293
38904W        W 2837  12.645  20.059   1.755
38905W        W 2838   4.715   0.352   2.812
38906W        W 2839  31.605  39.836   2.303
38907W        W 2840  36.513  35.572  13.431
38908W        W 2841  39.516  44.846  12.534
38909W        W 2842   1.823   7.192  12.947
38910W        W 2843  34.489  29.527   1.760
38911W        W 2844  28.023   0.413   0.741
38912W        W 2845  17.584  19.724  12.432
38913W        W 2846  34.369  10.230  14.922
38914W        W 2847  23.001  10.869  13.847
38915W        W 2848  13.249  36.538  11.476
38916W        W 2849   5.329  25.710  12.838
38917W        W 2850   9.385  22.607   3.201
38918W        W 2851   7.230  19.733  12.352
38919W        W 2852  17.746   3.753   1.242
38920W        W 2853  28.465  29.491   0.940
38921W        W 2854  23.219  38.851   1.792
38922W        W 2855   4.717  34.875   4.657
38923W        W 2856  33.041   4.896   2.269
38924W        W 2857  24.602   6.831   1.763
38925W        W 2858  32.888  24.593  14.458
38926W        W 2859  17.739  11.661  11.103
38927W        W 2860  33.103  23.713  14.323
38928W        W 2861  33.062  10.374  14.335
38929W        W 2862  31.116   0.906   2.211
38930W        W 2863  38.437   7.689   4.183
38931W        W 2864  11.665  36.434  13.978
38932W        W 2865   3.871  38.072   0.440
38933W        W 2866  40.466  26.533  14.759
38934W        W 2867   5.842  15.216   0.336
38935W        W 2868  19.090  20.720  13.514
38936W        W 2869   7.792  28.668   2.856
38937W        W 2870  11.756  40.370   1.704
38938W        W 2871  26.005  17.101   1.917
38939W        W 2872  41.994  29.105  14.514
38940W        W 2873   2.941  10.862  14.490
38941W        W 2874  31.618  22.580   4.779
38942W        W 2875  32.967  30.446  14.990
38943W        W 2876  18.633  38.372  14.487
38944W        W 2877   9.859  30.153  14.768
38945W        W 2878   3.815  21.154  12.050
38946W        W 2879  26.459   0.822   5.301
38947W        W 2880  42.879  37.913  12.566
38948W        W 2881  18.742   7.347  12.939
38949W        W 2882  43.968  31.915   2.674
38950W        W 2883  14.207  39.466  13.956
38951W        W 2884  38.423  27.960  14.792
38952W        W 2885  20.107   0.941   3.747
38953W        W 2886  34.521  12.199   4.780
38954W        W 2887   3.713  35.035   4.151
38955W        W 2888  34.036   9.220  14.412
38956W        W 2889   8.293  11.300  11.599
38957W        W 2890  36.351   1.882   5.295
38958W        W 2891   4.210  10.352   4.733
38959W        W 2892  10.838   8.260  12.831
38960W        W 2893  43.818   5.709   1.922
38961W        W 2894   1.841  29.620  14.503
38962W        W 2895  29.578  21.197  11.889
38963W        W 2896  18.598  14.833  11.069
38964W        W 2897  41.445  27.000  11.487
38965W        W 2898  24.721  40.948  11.989
38966W        W 2899   1.385   6.189   0.428
38967W        W 2900  43.969   0.287  11.503
38968W        W 2901  11.842  26.603   3.166
38969W        W 2902   6.705   5.208  13.358
38970W        W 2903  11.309  29.997  11.926
38971W        W 2904  41.398  34.424  13.890
38972W        W 2905  34.462  42.518   3.686
38973W        W 2906  25.214  10.865   3.843
38974W        W 2907  34.093   3.825  13.398
38975W        W 2908  31.142  32.068  14.831
38976W        W 2909  10.296  36.438   2.898
38977W        W 2910   8.892  23.010   3.766
38978W        W 2911   1.763  16.179   4.342
38979W        W 2912  38.549  15.326   0.822
38980W        W 2913  28.459  38.904  11.988
38981W        W 2914   7.760  22.023  13.846
38982W        W 2915  18.200  33.408  12.560
38983W        W 2916   7.679  23.039  14.910
38984W        W 2917  31.052  31.955   1.924
38985W        W 2918  25.169  30.630   1.789
38986W        W 2919  41.504  22.573   1.912
38987W        W 2920  34.961  23.541   4.184
38988W        W 2921   6.391  22.649  13.888
38989W        W 2922   4.300  20.242   0.788
38990W        W 2923   7.700   9.319   0.818
38991W        W 2924  20.729   6.784  13.355
38992W        W 2925  21.593  11.159  14.341
38993W        W 2926  44.352  24.165  14.493
38994W        W 2927  30.050  44.402   3.820
38995W        W 2928  25.546  39.552   1.447
38996W        W 2929   4.402  13.292  11.383
38997W        W 2930   7.839   2.444   1.306
38998W        W 2931  27.646  35.587   3.302
38999W        W 2932   0.318  40.322  13.035
39000W        W 2933  22.107   8.202  11.503
39001W        W 2934  17.137  40.518   0.376
39002W        W 2935  11.137   5.359  13.883
39003W        W 2936  13.342  11.132   0.316
39004W        W 2937   8.882   6.877  10.550
39005W        W 2938  22.172  36.023  14.929
39006W        W 2939  19.749  17.714  11.101
39007W        W 2940   8.880  12.150   3.648
39008W        W 2941   0.415  20.194   4.269
39009W        W 2942  35.933  42.851   4.260
39010W        W 2943   3.823  41.492  10.635
39011W        W 2944  26.170  38.989  14.329
39012W        W 2945  38.571   3.826  13.495
39013W        W 2946   6.769   8.777   5.121
39014W        W 2947  17.771   1.803  12.516
39015W        W 2948  22.621  13.599   3.861
39016W        W 2949  43.836  32.954  13.834
39017W        W 2950   9.258  39.510  11.943
39018W        W 2951   8.722   3.455   5.313
39019W        W 2952  42.478  19.191  12.062
39020W        W 2953   7.333  34.987   0.907
39021W        W 2954  18.781   1.470   3.195
39022W        W 2955   6.720   5.792  10.621
39023W        W 2956  35.487  14.329   1.899
39024W        W 2957  39.546  15.752  12.413
39025W        W 2958   4.810  29.172   3.806
39026W        W 2959  12.617  31.634   2.682
39027W        W 2960  24.151  28.112   4.764
39028W        W 2961  32.977   5.749  11.856
39029W        W 2962  19.181  40.547   1.272
39030W        W 2963   6.766   7.354   3.841
39031W        W 2964  10.225  26.027  10.631
39032W        W 2965  12.262  20.564   4.776
39033W        W 2966  34.381  13.709  11.951
39034W        W 2967  13.741  10.363  11.607
39035W        W 2968   6.899  11.367   2.849
39036W        W 2969  10.697   7.898   1.286
39037W        W 2970  12.807  39.315   4.257
39038W        W 2971  25.550  33.982   4.277
39039W        W 2972  11.858   6.753  10.954
39040W        W 2973  19.076   6.801  13.878
39041W        W 2974  43.838  39.054  10.451
39042W        W 2975  35.919  37.489  10.511
39043W        W 2976  16.598   4.887  10.489
39044W        W 2977  23.551   5.308   1.405
39045W        W 2978  12.116  16.132  14.502
39046W        W 2979  17.715  15.088   4.646
39047W        W 2980  44.260   0.796  11.036
39048W        W 2981   4.418  44.420  10.933
39049W        W 2982   6.269   2.244   5.792
39050W        W 2983   6.421   6.756   1.811
39051W        W 2984   6.257  37.896  13.368
39052W        W 2985   8.719   2.357   1.246
39053W        W 2986  37.487   9.795   1.394
39054W        W 2987  24.040  21.116   0.904
39055W        W 2988  36.537  22.616  12.507
39056W        W 2989  39.508  25.000   1.357
39057W        W 2990  40.897  29.028   4.352
39058W        W 2991  31.924  22.053   4.611
39059W        W 2992  13.339   2.423   1.928
39060W        W 2993   6.724  36.520  14.308
39061W        W 2994  11.640   7.886   4.729
39062W        W 2995  10.797  20.525   4.758
39063W        W 2996   5.223   9.874  10.426
39064W        W 2997   4.428   1.407  14.439
39065W        W 2998  12.641  33.964   3.638
39066W        W 2999   7.293  30.946  11.588
39067W        W 3000  34.578   2.761   0.912
39068W        W 3001  21.163  17.098   0.380
39069W        W 3002  35.367  42.825  11.431
39070W        W 3003  36.370  33.404   2.340
39071W        W 3004  37.497  20.576   0.727
39072W        W 3005  16.794  22.126   0.308
39073W        W 3006   6.787   4.884  13.064
39074W        W 3007  24.545  38.061   2.279
39075W        W 3008  35.394  17.788   1.415
39076W        W 3009  17.195  42.888   2.719
39077W        W 3010   4.808  12.813   2.900
39078W        W 3011  18.699  10.645   0.788
39079W        W 3012  11.199   9.799  12.425
39080W        W 3013   0.278  34.575   3.661
39081W        W 3014   8.375  32.411   0.810
39082W        W 3015  10.292  17.632   2.703
39083W        W 3016  32.597  35.602  12.996
39084W        W 3017  37.529  35.477  12.462
39085W        W 3018  39.902  31.548   1.210
39086W        W 3019  24.000  40.385   1.863
39087W        W 3020   4.439   4.208   5.711
39088W        W 3021  28.505  23.234   4.715
39089W        W 3022  42.882   7.866   5.239
39090W        W 3023  15.329   1.408  11.114
39091W        W 3024  27.960  35.056  10.013
39092W        W 3025   0.392  17.114   2.750
39093W        W 3026  34.935  12.240   4.248
39094W        W 3027  40.495  39.994  14.996
39095W        W 3028   6.381  16.193   5.281
39096W        W 3029  39.845  22.742  12.073
39097W        W 3030  39.020  40.856  14.396
39098W        W 3031  14.789  26.662  11.921
39099W        W 3032  37.847   8.728   1.833
39100W        W 3033  27.083   2.405   3.725
39101W        W 3034  16.222  12.347   2.403
39102W        W 3035  40.391  15.095  11.972
39103W        W 3036   1.414   5.790   4.135
39104W        W 3037   0.861  11.201   2.678
39105W        W 3038  25.475   1.813  12.341
39106W        W 3039  27.539  19.603   0.442
39107W        W 3040   4.389  19.733   2.876
39108W        W 3041  10.163  17.791  13.442
39109W        W 3042   1.941  21.052  10.500
39110W        W 3043  33.454  40.917  10.460
39111W        W 3044   0.857  14.778   1.818
39112W        W 3045  40.994  18.780   4.642
39113W        W 3046  27.070  34.889   3.172
39114W        W 3047  34.529  39.339   4.660
39115W        W 3048  31.083   2.446   3.690
39116W        W 3049  25.513  16.692  13.936
39117W        W 3050   4.405  43.891   4.265
39118W        W 3051  42.442  35.545  10.404
39119W        W 3052  31.590  31.978   0.328
39120W        W 3053  10.237   9.810   1.832
39121W        W 3054  11.151  36.379  14.507
39122W        W 3055   9.869  34.525  11.409
39123W        W 3056  41.819  42.776   4.751
39124W        W 3057  34.977   2.407  12.521
39125W        W 3058  25.513  20.765  11.012
39126W        W 3059  31.017  13.227  12.475
39127W        W 3060  24.144  16.230   3.336
39128W        W 3061  19.666  16.115  13.343
39129W        W 3062   3.227  18.184  11.858
39130W        W 3063   3.932  43.341  12.544
39131W        W 3064  20.561   9.776  10.641
39132W        W 3065  38.477  22.070  13.902
39133W        W 3066  26.118  22.177   1.704
39134W        W 3067  32.617   6.421   2.791
39135W        W 3068  13.747  23.697   0.295
39136W        W 3069  35.594  44.972   1.826
39137W        W 3070  41.913  38.562   3.754
39138W        W 3071   6.742  26.530  12.553
39139W        W 3072   3.845  40.942  10.888
39140W        W 3073   4.896  29.994   4.132
39141W        W 3074   6.676  16.638   1.922
39142W        W 3075  13.637   1.463  13.370
39143W        W 3076  10.376  11.797   0.480
39144W        W 3077   5.912  13.701  12.051
39145W        W 3078  12.707  15.797  11.956
39146W        W 3079  14.335  30.938  11.076
39147W        W 3080  14.637  34.082   4.304
39148W        W 3081  18.734  11.309   2.880
39149W        W 3082  16.701  33.078  14.788
39150W        W 3083   8.380  10.832  12.057
39151W        W 3084  30.624  27.486   3.275
39152W        W 3085  16.583   5.776  11.897
39153W        W 3086  13.737  10.703  14.789
39154W        W 3087   2.268  17.592  14.968
39155W        W 3088  36.074  30.024   2.857
39156W        W 3089  20.049  23.665   3.329
39157W        W 3090  39.873  30.914   3.189
39158W        W 3091   4.288  36.361   1.720
39159W        W 3092   4.779   8.884  13.322
39160W        W 3093   1.332   0.798   2.230
39161W        W 3094   6.349  15.580  12.917
39162W        W 3095   6.325  30.520   4.667
39163W        W 3096  44.831   2.867  13.830
39164W        W 3097  21.594  26.457  12.425
39165W        W 3098  18.146  33.918   2.193
39166W        W 3099  42.399  32.023  12.000
39167W        W 3100  33.514  20.666  12.026
39168W        W 3101  40.367  11.172  13.020
39169W        W 3102  11.278   7.806  13.943
39170W        W 3103   7.179   6.699   4.294
39171W        W 3104  30.927  28.454   2.796
39172W        W 3105  25.568   9.867   5.276
39173W        W 3106   9.840  19.183  12.545
39174W        W 3107  25.640   6.285   4.262
39175W        W 3108  19.163   7.693   0.383
39176W        W 3109  22.589  22.737  12.084
39177W        W 3110   8.841   3.793   3.246
39178W        W 3111  34.922  11.167  10.641
39179W        W 3112   6.330  29.072   1.878
39180W        W 3113  40.852  36.046  10.463
39181W        W 3114  21.058  33.068   4.675
39182W        W 3115  30.939  27.686   3.225
39183W        W 3116  19.745  19.064  12.422
39184W        W 3117  11.777  29.989  11.535
39185W        W 3118  18.245  30.103  14.885
39186W        W 3119  42.860  42.496   1.442
39187W        W 3120  29.124  10.692  13.495
39188W        W 3121  22.229  32.946   4.750
39189W        W 3122  20.161   1.894   0.296
39190W        W 3123   2.234  39.494  13.848
39191W        W 3124  17.237  37.053  13.366
39192W        W 3125  30.589  18.057  11.073
39193W        W 3126  22.734  15.306  12.445
39194W        W 3127  38.037  40.452  13.956
39195W        W 3128   0.750  32.471  13.951
39196W        W 3129  26.987  34.888   1.708
39197W        W 3130  23.706  28.056  12.405
39198W        W 3131  29.950  21.514   0.735
39199W        W 3132  37.449   2.440   0.270
39200W        W 3133   2.965   1.925  11.431
39201W        W 3134   5.321   6.420  12.982
39202W        W 3135  13.719  19.684  11.970
39203W        W 3136  40.468  40.872   3.828
39204W        W 3137   0.422   6.718   2.316
39205W        W 3138  27.975  40.355   1.735
39206W        W 3139  24.194  36.361  14.280
39207W        W 3140  12.633  15.179   2.684
39208W        W 3141  43.440   9.201   1.732
39209W        W 3142  39.916  14.659  12.370
39210W        W 3143   3.773   6.713   0.745
39211W        W 3144   3.231  34.992  12.897
39212W        W 3145  30.964  33.955  10.990
39213W        W 3146  31.634  11.300  12.026
39214W        W 3147  43.389  38.329   3.260
39215W        W 3148  43.971  28.619   0.347
39216W        W 3149   2.950  22.077  11.381
39217W        W 3150  23.658  38.476  14.915
39218W        W 3151  20.174  17.631   2.357
39219W        W 3152   8.796   0.945  12.501
39220W        W 3153  39.450  32.599  11.603
39221W        W 3154   0.985  39.832   0.333
39222W        W 3155  10.359   8.878  11.066
39223W        W 3156  10.281  27.079   1.924
39224W        W 3157  17.714   7.299  13.860
39225W        W 3158  36.986  17.619  11.095
39226W        W 3159  16.707   7.351   9.967
39227W        W 3160  24.519  39.912   1.917
39228W        W 3161  12.123  25.589   0.397
39229W        W 3162  39.357  35.009  14.028
39230W        W 3163   8.209  34.089  13.361
39231W        W 3164  29.555  16.633   1.887
39232W        W 3165  12.851   8.684  13.313
39233W        W 3166  14.759  39.520   4.650
39234W        W 3167   3.268   9.294  13.929
39235W        W 3168  10.810  23.173   2.731
39236W        W 3169  20.633   4.822  14.448
39237W        W 3170   4.417  17.166  12.886
39238W        W 3171  32.130   3.227  12.573
39239W        W 3172   7.886  10.688   2.697
39240W        W 3173   0.953  16.699   2.866
39241W        W 3174  35.460  22.673   2.699
39242W        W 3175  37.488  26.163  10.522
39243W        W 3176  37.933   2.436   2.320
39244W        W 3177  23.500  33.890   1.770
39245W        W 3178   7.903   4.854   1.250
39246W        W 3179  33.052  36.943  14.903
39247W        W 3180  38.542  30.520  14.907
39248W        W 3181   7.882  27.965  13.423
39249W        W 3182  29.592  23.718   2.735
39250W        W 3183   7.389  28.958  11.456
39251W        W 3184  27.124   0.944  12.843
39252W        W 3185  17.708  42.493  14.835
39253W        W 3186  26.514  26.180  10.887
39254W        W 3187  28.957  42.938   2.289
39255W        W 3188   1.379  12.712   1.777
39256W        W 3189  37.833  27.193   4.605
39257W        W 3190  12.665   8.326   3.188
39258W        W 3191  36.865   2.351   4.345
39259W        W 3192  24.212  36.543   1.253
39260W        W 3193  38.009  14.662  14.494
39261W        W 3194  34.444   6.380   1.886
39262W        W 3195  25.179  42.780   4.654
39263W        W 3196   9.780  28.620   4.746
39264W        W 3197  38.521  14.659   1.703
39265W        W 3198  18.265  17.791   0.861
39266W        W 3199  33.575  41.889  11.855
39267W        W 3200  22.210  22.601  13.366
39268W        W 3201  39.482   7.687  11.379
39269W        W 3202  21.630  11.646  13.407
39270W        W 3203  33.610  31.618  12.513
39271W        W 3204   1.330  14.787  10.947
39272W        W 3205  12.640  41.967   1.348
39273W        W 3206   3.249   7.831   4.663
39274W        W 3207  38.907   9.224  13.873
39275W        W 3208   0.299  19.556   4.663
39276W        W 3209  10.815   3.829   0.284
39277W        W 3210  20.642  42.995   1.308
39278W        W 3211  35.395  44.452   3.749
39279W        W 3212   5.915  10.821   0.769
39280W        W 3213  43.514  17.734  13.336
39281W        W 3214  35.547  29.530  12.380
39282W        W 3215  32.563   9.775   1.799
39283W        W 3216  33.563   4.267  14.828
39284W        W 3217  32.120  28.952   2.896
39285W        W 3218  32.014   8.371   3.704
39286W        W 3219  34.460  29.431  14.370
39287W        W 3220  14.207  34.467   1.228
39288W        W 3221  14.295  38.489   0.769
39289W        W 3222   3.951   8.871  11.915
39290W        W 3223  38.422  12.326   1.877
39291W        W 3224  10.295  20.041  11.914
39292W        W 3225   3.381  33.044  12.006
39293W        W 3226  17.264  26.626  10.109
39294W        W 3227   7.360   8.196   1.400
39295W        W 3228   4.333  18.560  12.373
39296W        W 3229  24.181  24.069  13.924
39297W        W 3230  24.662   7.213  13.393
39298W        W 3231   3.421  17.191  10.011
39299W        W 3232   3.232  39.370  11.453
39300W        W 3233   1.759   3.797   4.224
39301W        W 3234  29.560  33.462   0.749
39302W        W 3235  31.050   7.775  13.894
39303W        W 3236   3.259  44.468   2.188
39304W        W 3237  19.657  27.139  13.993
39305W        W 3238  36.588  16.083   2.223
39306W        W 3239  12.738   8.188   2.830
39307W        W 3240   4.434  40.880   0.797
39308W        W 3241  18.621  39.335   3.705
39309W        W 3242   2.797  30.113  11.419
39310W        W 3243  41.438  30.514   1.382
39311W        W 3244  17.597  32.977  13.835
39312W        W 3245  36.556  32.613   1.918
39313W        W 3246   8.195   1.895  13.965
39314W        W 3247   3.817  24.535   3.748
39315W        W 3248  23.677   1.779   1.793
39316W        W 3249  30.911   1.448  12.068
39317W        W 3250  42.374  43.346  10.420
39318W        W 3251  11.859  11.261  10.580
39319W        W 3252  25.548  19.064  13.451
39320W        W 3253  37.062  37.364  10.903
39321W        W 3254  37.564  15.690  14.457
39322W        W 3255  21.051  34.881  10.616
39323W        W 3256  11.639  26.478  14.492
39324W        W 3257   3.340  22.699   4.743
39325W        W 3258  13.633  38.971   0.925
39326W        W 3259  18.248   4.887   2.212
39327W        W 3260  19.117  19.145   2.234
39328W        W 3261  38.474  42.508   3.149
39329W        W 3262  44.754  31.635   3.777
39330W        W 3263  22.164  28.969  11.063
39331W        W 3264  44.270   3.915  13.416
39332W        W 3265  29.561  33.599  12.044
39333W        W 3266  26.115  41.881  10.949
39334W        W 3267  25.173  24.718  11.572
39335W        W 3268  21.592   2.797  10.955
39336W        W 3269  43.000  22.046  14.782
39337W        W 3270  18.732  17.125  14.509
39338W        W 3271   4.838   5.869  14.463
39339W        W 3272  15.583  18.761  11.106
39340W        W 3273  40.404  43.398  14.875
39341W        W 3274  22.684   9.873   4.693
39342W        W 3275   6.883  18.760  11.044
39343W        W 3276  23.712  42.921  12.563
39344W        W 3277  12.775  11.325  14.884
39345W        W 3278   9.751  39.969  10.900
39346W        W 3279  36.425  10.633   0.356
39347W        W 3280  19.744  44.283  11.892
39348W        W 3281  28.509  15.216   1.835
39349W        W 3282   9.818  24.022   1.300
39350W        W 3283  11.338   5.771  12.511
39351W        W 3284  23.020   1.248  14.468
39352W        W 3285  29.621   8.206  12.084
39353W        W 3286  18.589   1.929   2.789
39354W        W 3287  22.539  12.298   3.856
39355W        W 3288  43.016  22.735  12.448
39356W        W 3289  21.176  30.936   0.812
39357W        W 3290  15.758  26.013   1.335
39358W        W 3291  21.729  44.913   1.225
39359W        W 3292  24.591  17.248   2.393
39360W        W 3293   5.439  34.022  13.940
39361W        W 3294  25.998  36.911   2.737
39362W        W 3295   4.406  35.425  10.916
39363W        W 3296  31.922  14.622  11.547
39364W        W 3297  26.024  25.079   4.656
39365W        W 3298  18.631  38.033   4.351
39366W        W 3299  24.015  15.587  14.806
39367W        W 3300  41.383  34.532  14.385
39368W        W 3301   5.420  36.952  12.563
39369W        W 3302  26.688   5.335  14.320
39370W        W 3303   4.824  10.844   0.755
39371W        W 3304  12.243   0.288   3.745
39372W        W 3305   3.789  21.232  12.879
39373W        W 3306  20.572  13.178   0.889
39374W        W 3307  17.722  41.528   1.768
39375W        W 3308  27.533  31.104  10.597
39376W        W 3309  27.471  17.679  14.815
39377W        W 3310  19.702  21.706  11.558
39378W        W 3311  42.458  16.171   1.911
39379W        W 3312  38.422  41.531  13.033
39380W        W 3313  29.563  19.185  11.550
39381W        W 3314  15.107  16.796   1.835
39382W        W 3315   0.386  38.953  11.488
39383W        W 3316   4.713  28.977  12.516
39384W        W 3317  13.195  12.205   2.235
39385W        W 3318   1.337  34.072   4.308
39386W        W 3319  18.248  14.287  10.968
39387W        W 3320  16.586  26.503  12.440
39388W        W 3321  13.756  15.703   1.422
39389W        W 3322  21.222  43.460   0.826
39390W        W 3323  16.597  25.494   2.706
39391W        W 3324  14.135   7.174   1.304
39392W        W 3325  41.357   0.863  10.588
39393W        W 3326  17.275  41.798   2.333
39394W        W 3327  20.755  37.465  10.425
39395W        W 3328  19.250  36.008  13.811
39396W        W 3329  19.700  34.871   3.785
39397W        W 3330  12.338  28.050  12.562
39398W        W 3331  15.790  12.352   2.407
39399W        W 3332  19.727  10.274  14.313
39400W        W 3333  42.970  26.463   3.633
39401W        W 3334  19.195  14.173  11.068
39402W        W 3335  41.389  36.042   1.435
39403W        W 3336  29.164  43.414  10.908
39404W        W 3337   4.862  22.528  13.796
39405W        W 3338   5.839  20.547   0.330
39406W        W 3339  15.219  23.085  13.858
39407W        W 3340  19.272  42.913  10.969
39408W        W 3341   1.269  15.108   2.209
39409W        W 3342   4.823  14.227  13.441
39410W        W 3343  18.574  12.809   1.261
39411W        W 3344   7.781  12.853   3.173
39412W        W 3345  41.847   8.841  11.067
39413W        W 3346  29.047  10.706  12.901
39414W        W 3347  28.185  22.241   4.751
39415W        W 3348  44.503  24.638   3.183
39416W        W 3349  26.531  29.608  13.061
39417W        W 3350   3.724  23.573  13.478
39418W        W 3351  33.412   5.839  14.444
39419W        W 3352  42.434  34.601  11.402
39420W        W 3353  10.646  31.107  10.555
39421W        W 3354  25.712   0.911   0.830
39422W        W 3355  19.209  14.255   2.834
39423W        W 3356   8.221  21.184  13.883
39424W        W 3357  15.642   2.874   2.262
39425W        W 3358  33.394  22.603   5.081
39426W        W 3359  16.190  43.330   4.797
39427W        W 3360   4.414   1.776  14.907
39428W        W 3361  38.507   8.312  10.952
39429W        W 3362   1.847  11.274   1.788
39430W        W 3363   2.861  38.342   1.913
39431W        W 3364  38.471  17.236  13.062
39432W        W 3365   5.761  21.193   4.215
39433W        W 3366   7.391  20.620   3.159
39434W        W 3367  18.758  17.066   4.244
39435W        W 3368  14.227  41.319   2.321
39436W        W 3369  16.294  42.432  14.978
39437W        W 3370  39.942  40.464  14.461
39438W        W 3371  26.070  17.584  13.528
39439W        W 3372  41.910   9.170   0.858
39440W        W 3373  41.981  30.516   3.269
39441W        W 3374  33.118  36.593  10.436
39442W        W 3375  39.026  43.864   3.312
39443W        W 3376  38.826  22.704  13.468
39444W        W 3377   6.923  10.790   4.742
39445W        W 3378  22.650  32.476   1.270
39446W        W 3379  21.126   6.252  11.061
39447W        W 3380  32.465  10.208  14.495
39448W        W 3381  22.137  34.410  10.571
39449W        W 3382  11.671  10.297  11.107
39450W        W 3383  10.750  30.150   4.208
39451W        W 3384  17.607   5.812  13.480
39452W        W 3385  19.696  31.410   1.785
39453W        W 3386  21.547  10.695  11.930
39454W        W 3387  17.772   5.200   2.704
39455W        W 3388  28.994  17.668   2.277
39456W        W 3389  26.590  10.862   4.828
39457W        W 3390  27.593  35.894  14.345
39458W        W 3391  22.028   8.897   0.266
39459W        W 3392  26.460   2.810   2.394
39460W        W 3393   9.889  44.304   3.865
39461W        W 3394  19.232   5.690  14.861
39462W        W 3395  16.625   7.344  11.111
39463W        W 3396  32.409   2.734  13.530
39464W        W 3397  24.703  14.315  14.284
39465W        W 3398  44.000   3.773  11.930
39466W        W 3399   1.411  13.138  11.129
39467W        W 3400  35.081  38.985  10.970
39468W        W 3401  15.296  23.113  12.849
39469W        W 3402  38.489   6.850  14.471
39470W        W 3403  39.987  25.998  12.985
39471W        W 3404  27.483  10.327   1.856
39472W        W 3405  30.053   5.846  10.602
39473W        W 3406  28.593   1.964  11.043
39474W        W 3407   5.841   0.836  13.970
39475W        W 3408  33.965   0.298   0.305
39476W        W 3409  28.121  22.197   4.126
39477W        W 3410   2.963  44.405  10.421
39478W        W 3411  40.341  43.896   0.917
39479W        W 3412  41.839   3.412   3.760
39480W        W 3413  23.089  24.620  10.539
39481W        W 3414   1.271   5.239   4.658
39482W        W 3415  26.542  19.611   0.828
39483W        W 3416   8.365  17.203   1.709
39484W        W 3417   8.299  27.019   1.394
39485W        W 3418  31.598  34.582   2.407
39486W        W 3419  33.096  22.227   4.711
39487W        W 3420  34.929  11.625  14.373
39488W        W 3421  10.358  12.231   1.914
39489W        W 3422  19.215   3.345  13.855
39490W        W 3423   6.676  12.813   3.181
39491W        W 3424   5.344  39.512  13.917
39492W        W 3425   5.858  44.385  13.381
39493W        W 3426  34.060  24.550  12.887
39494W        W 3427  22.511   2.366  11.480
39495W        W 3428  33.493  33.972  14.937
39496W        W 3429  27.507  31.610  12.091
39497W        W 3430  17.240  30.964   3.244
39498W        W 3431   9.226  44.279  11.123
39499W        W 3432  17.065  36.947   5.178
39500W        W 3433   4.220  14.674   2.728
39501W        W 3434  19.547  15.314  13.817
39502W        W 3435   8.754  32.633   1.898
39503W        W 3436  29.964  15.775   2.285
39504W        W 3437  24.141  28.178  10.022
39505W        W 3438  43.285  16.140   2.718
39506W        W 3439  19.638  21.529  13.973
39507W        W 3440   6.715  11.177  14.459
39508W        W 3441  39.896   6.378   1.750
39509W        W 3442   7.748  29.564   2.880
39510W        W 3443  10.649   6.732  11.865
39511W        W 3444   9.665  28.108  10.603
39512W        W 3445  30.098  27.173   1.329
39513W        W 3446  25.060  23.512  11.386
39514W        W 3447   8.692  39.533   4.262
39515W        W 3448   7.824  11.260   0.907
39516W        W 3449   2.801   9.740  13.391
39517W        W 3450  20.742  36.064   3.640
39518W        W 3451  41.356  18.228   4.310
39519W        W 3452   4.727  38.553  10.114
39520W        W 3453  15.193   1.329  12.393
39521W        W 3454  39.021  11.709  12.956
39522W        W 3455  16.180  12.302   3.792
39523W        W 3456  26.700  44.950  12.381
39524W        W 3457  39.328  27.996  13.438
39525W        W 3458  19.778   7.212   4.277
39526W        W 3459  32.062  14.628  13.547
39527W        W 3460  20.235  24.989   9.647
39528W        W 3461  22.567  28.145  14.372
39529W        W 3462  41.379  19.608  14.777
39530W        W 3463  24.998  27.948   2.405
39531W        W 3464  27.627  37.901   4.123
39532W        W 3465  19.122   5.313   0.263
39533W        W 3466  39.421   8.814  11.556
39534W        W 3467  34.876  28.664   0.331
39535W        W 3468  27.548  27.034   0.429
39536W        W 3469   6.238  13.651   4.666
39537W        W 3470   6.697   6.762  14.824
39538W        W 3471  37.987  14.287  13.027
39539W        W 3472  13.337  37.444  13.401
39540W        W 3473  15.107   1.746   3.744
39541W        W 3474  29.424  42.944   1.402
39542W        W 3475  39.554  41.505  14.910
39543W        W 3476  32.942  41.489   3.735
39544W        W 3477  31.903  23.196  12.990
39545W        W 3478  36.025  25.700  12.565
39546W        W 3479  42.489  26.515   5.118
39547W        W 3480  22.216  35.009   4.347
39548W        W 3481  42.388  43.909  13.939
39549W        W 3482  41.811  39.362  14.504
39550W        W 3483  12.734  41.330   2.225
39551W        W 3484  33.424  43.456  14.028
39552W        W 3485  35.051  25.052  11.011
39553W        W 3486  44.892  11.271   3.297
39554W        W 3487   4.754  15.110  12.464
39555W        W 3488  37.000  23.118   3.767
39556W        W 3489   1.756   3.849  10.536
39557W        W 3490   8.817  33.469  13.994
39558W        W 3491  31.502  29.099  13.485
39559W        W 3492   8.685  40.862  12.421
39560W        W 3493  11.674  37.515  12.372
39561W        W 3494  37.842  29.919  12.541
39562W        W 3495  36.376  10.259  14.769
39563W        W 3496  36.454   9.787  10.483
39564W        W 3497  35.442  25.569  12.416
39565W        W 3498  44.003   1.948   2.812
39566W        W 3499  30.127  34.577   3.721
39567W        W 3500  23.616  36.467   1.779
39568W        W 3501  31.611   6.848  13.358
39569W        W 3502   7.283  30.957   3.338
39570W        W 3503  36.432  40.404   4.789
39571W        W 3504   7.379   3.887  12.457
39572W        W 3505  17.630  13.215   1.796
39573W        W 3506  36.432   0.824   4.253
39574W        W 3507  24.014  17.264  13.998
39575W        W 3508  36.572   9.673   3.689
39576W        W 3509  20.728  14.651  14.876
39577W        W 3510  10.639  27.003  12.853
39578W        W 3511  19.121  14.099   4.174
39579W        W 3512   7.313  11.337   2.761
39580W        W 3513  35.386  15.598  13.333
39581W        W 3514   2.802  33.430   3.868
39582W        W 3515  42.354  25.988   2.799
39583W        W 3516   5.842   0.304  13.522
39584W        W 3517  43.318  18.194   5.114
39585W        W 3518  29.945   5.887   3.295
39586W        W 3519  18.220  14.828  13.006
39587W        W 3520   6.789  31.126   0.908
39588W        W 3521  36.975   6.306  13.855
39589W        W 3522  17.190  18.683   2.371
39590W        W 3523  19.679   2.826  11.105
39591W        W 3524   6.322   1.844  11.453
39592W        W 3525   6.806  33.486   4.740
39593W        W 3526  10.179  17.281   0.927
39594W        W 3527  33.494  41.936   2.849
39595W        W 3528  23.199  27.043   3.189
39596W        W 3529  22.506   4.214   4.153
39597W        W 3530  31.142  39.061  11.886
39598W        W 3531  20.675  19.162   4.183
39599W        W 3532   7.249  20.627   1.327
39600W        W 3533  28.446  17.161   0.911
39601W        W 3534   3.347  10.692  10.496
39602W        W 3535  39.061  41.945  13.495
39603W        W 3536  25.115  36.372   1.327
39604W        W 3537  39.528  18.558  14.469
39605W        W 3538   6.230  13.264   0.903
39606W        W 3539   2.352  11.156   2.364
39607W        W 3540  23.688  36.521   0.825
39608W        W 3541  11.866  24.687   0.796
39609W        W 3542   2.456  30.539   3.212
39610W        W 3543  38.951  30.146   0.278
39611W        W 3544   1.769  41.403   1.850
39612W        W 3545  11.227  25.125   2.368
39613W        W 3546   3.242  16.306   4.731
39614W        W 3547  16.177   2.752  13.323
39615W        W 3548  33.607  31.605   1.853
39616W        W 3549  16.116  41.453  14.411
39617W        W 3550  44.861  14.214  12.370
39618W        W 3551  23.213  15.811  13.921
39619W        W 3552  14.252  23.711  12.352
39620W        W 3553  23.541   2.952  14.905
39621W        W 3554  39.485  26.045  11.873
39622W        W 3555  34.054   5.312  10.584
39623W        W 3556  37.921   6.888  14.030
39624W        W 3557  41.297  29.556  10.430
39625W        W 3558  40.806  29.967   3.198
39626W        W 3559   3.758   0.312  13.033
39627W        W 3560  28.640  11.750   0.412
39628W        W 3561   9.679  35.498  14.823
39629W        W 3562  20.731  40.886   3.280
39630W        W 3563  38.935  42.305  12.442
39631W        W 3564  37.448   4.262   1.271
39632W        W 3565  17.307  30.569  13.014
39633W        W 3566  12.333   6.345   1.401
39634W        W 3567  10.171   3.761  14.873
39635W        W 3568  32.035   2.892   2.833
39636W        W 3569   1.288   2.398   1.381
39637W        W 3570  28.578  38.946  14.431
39638W        W 3571  41.391  13.207  13.387
39639W        W 3572  16.197  25.665  14.422
39640W        W 3573   2.296  38.449   2.330
39641W        W 3574   8.660  44.907  14.918
39642W        W 3575   5.234  27.556   4.197
39643W        W 3576  12.175  21.036   4.278
39644W        W 3577  24.509  33.611   0.802
39645W        W 3578  41.032  41.882   1.859
39646W        W 3579  40.022  23.510   1.339
39647W        W 3580  40.843  24.173   0.413
39648W        W 3581  36.360   0.439   0.880
39649W        W 3582   2.386  40.019   3.289
39650W        W 3583  24.586   1.436   9.471
39651W        W 3584  21.222  31.442  13.320
39652W        W 3585  25.622  29.473   2.302
39653W        W 3586  15.160   8.727   2.379
39654W        W 3587   2.851  19.193   4.223
39655W        W 3588  37.013  25.973   3.845
39656W        W 3589  33.095   3.373   1.799
39657W        W 3590  15.205   7.690  11.864
39658W        W 3591  25.971  18.626   3.178
39659W        W 3592   9.257  18.668  11.980
39660W        W 3593   5.880   9.296  12.074
39661W        W 3594   3.882  35.088  10.148
39662W        W 3595  12.121  26.199   0.853
39663W        W 3596   4.207  19.063  14.791
39664W        W 3597   1.928  15.316  11.106
39665W        W 3598  25.091  37.444   3.166
39666W        W 3599   9.329  41.882   2.310
39667W        W 3600  13.233  16.613   0.380
39668W        W 3601  34.452   3.361  11.392
39669W        W 3602   1.770  32.039   0.249
39670W        W 3603  31.937  14.827   0.457
39671W        W 3604  16.607  13.662  14.361
39672W        W 3605  20.101  40.345  12.076
39673W        W 3606  29.443   6.210  10.008
39674W        W 3607  16.788  35.968   0.318
39675W        W 3608  32.589  25.022  14.981
39676W        W 3609  14.109  17.791  10.607
39677W        W 3610  42.960  44.465   2.797
39678W        W 3611   4.716  16.729  13.857
39679W        W 3612  39.988   4.884  12.973
39680W        W 3613  44.857  43.491  14.457
39681W        W 3614  15.802  18.757   9.974
39682W        W 3615  22.094  10.312   5.317
39683W        W 3616  43.862  22.152  10.594
39684W        W 3617  20.568  29.512   2.712
39685W        W 3618  21.204  38.430   1.241
39686W        W 3619   0.314  44.790  13.388
39687W        W 3620  25.109  42.821   3.797
39688W        W 3621  16.219  22.509  12.534
39689W        W 3622  38.999  20.557   3.844
39690W        W 3623   5.432  22.590  13.452
39691W        W 3624  28.616  44.000   3.817
39692W        W 3625   5.903  11.792  14.496
39693W        W 3626  33.601  28.666  10.910
39694W        W 3627  41.958  44.402  13.858
39695W        W 3628  26.568  12.236   1.727
39696W        W 3629   9.691  43.775   3.778
39697W        W 3630  29.162  33.622   9.984
39698W        W 3631   1.958  18.153  10.626
39699W        W 3632   5.210  40.968  12.400
39700W        W 3633  17.675   0.439  10.900
39701W        W 3634   7.739  37.479   1.324
39702W        W 3635  29.037  34.972   3.386
39703W        W 3636  30.429  40.904  10.408
39704W        W 3637   4.732  28.471   2.853
39705W        W 3638  38.029  15.309   2.339
39706W        W 3639  19.236  42.416   3.820
39707W        W 3640  43.409  34.421   2.271
39708W        W 3641  42.015  40.473   0.428
39709W        W 3642   1.812  20.155   0.423
39710W        W 3643  18.597  14.830  11.898
39711W        W 3644  29.157  39.553  13.799
39712W        W 3645  32.562  36.519  12.900
39713W        W 3646   3.893   0.753  11.412
39714W        W 3647   1.372   6.300  13.867
39715W        W 3648  40.490  20.748   0.268
39716W        W 3649  18.576  19.778   3.256
39717W        W 3650  15.763  26.569  12.472
39718W        W 3651  38.437  37.386   3.346
39719W        W 3652  35.458  28.065   1.395
39720W        W 3653  38.903  32.423  11.894
39721W        W 3654  24.581   7.193  13.973
39722W        W 3655   4.397  36.953  10.932
39723W        W 3656  41.893  16.277   0.964
39724W        W 3657  34.039  27.983   0.822
39725W        W 3658   9.352  37.915   2.326
39726W        W 3659  15.249  43.997  10.949
39727W        W 3660  15.726  17.087   5.637
39728W        W 3661   9.374  36.439  11.426
39729W        W 3662  34.051  32.396   4.141
39730W        W 3663  27.024  13.277  10.943
39731W        W 3664  22.178  36.956  13.379
39732W        W 3665  16.578  42.375  12.360
39733W        W 3666  37.077  28.161   1.369
39734W        W 3667  34.089  13.697  11.957
39735W        W 3668   2.392   9.763  13.800
39736W        W 3669  17.709  33.988  13.474
39737W        W 3670  40.419  35.950  10.020
39738W        W 3671  22.552   7.740  11.563
39739W        W 3672  16.620  31.527  12.501
39740W        W 3673   4.245  17.556   1.719
39741W        W 3674  15.685  24.708   2.816
39742W        W 3675  13.725  40.974   1.875
39743W        W 3676  26.065  42.429  11.394
39744W        W 3677  41.885  40.043  13.038
39745W        W 3678  20.746  17.117  14.998
39746W        W 3679   6.303  32.910  14.907
39747W        W 3680  27.683  37.374  10.573
39748W        W 3681  44.842  42.952  13.444
39749W        W 3682   4.850   3.905   0.848
39750W        W 3683  14.243  20.708   1.901
39751W        W 3684  20.063  26.577   1.736
39752W        W 3685  23.060  42.867  10.572
39753W        W 3686  24.211  28.477  10.960
39754W        W 3687  29.041  30.444  10.635
39755W        W 3688  34.515  39.011  14.300
39756W        W 3689  16.648  42.344   4.666
39757W        W 3690  18.693  25.579   3.325
39758W        W 3691   8.366  36.907   3.665
39759W        W 3692  23.134  18.177  14.935
39760W        W 3693   3.913   6.188  13.497
39761W        W 3694   4.875   3.399  11.916
39762W        W 3695  34.413  34.087  12.513
39763W        W 3696  12.224  11.151   0.250
39764W        W 3697   0.266  18.724  11.982
39765W        W 3698  28.099  25.640   1.321
39766W        W 3699  22.104  11.200   3.707
39767W        W 3700   9.333  23.021  11.465
39768W        W 3701  34.905  16.774  12.555
39769W        W 3702  37.960  25.171   1.247
39770W        W 3703   5.260   3.877   4.218
39771W        W 3704  24.651  44.975  12.966
39772W        W 3705  32.034  22.535   3.225
39773W        W 3706  26.980  24.138   0.927
39774W        W 3707  16.080  33.518  11.418
39775W        W 3708   6.408  34.949   2.380
39776W        W 3709  23.540  24.088  12.541
39777W        W 3710  36.549  32.933  13.543
39778W        W 3711  11.842  10.657   2.398
39779W        W 3712  20.093   2.289   1.249
39780W        W 3713  15.766   4.698   2.671
39781W        W 3714  38.449  24.570  14.463
39782W        W 3715  12.239   5.870  14.881
39783W        W 3716  19.232   0.291  13.484
39784W        W 3717  36.556  19.697   1.409
39785W        W 3718  32.907  16.260  13.022
39786W        W 3719  28.570  31.083  12.957
39787W        W 3720  40.982  33.900  12.095
39788W        W 3721  38.469   1.336   3.775
39789W        W 3722  26.615   1.296  14.342
39790W        W 3723  17.712  28.542   3.773
39791W        W 3724   4.748   2.457  14.363
39792W        W 3725  18.556   2.297   3.845
39793W        W 3726  35.895  41.962  10.991
39794W        W 3727  35.590  44.335  12.086
39795W        W 3728  10.807  42.395  14.807
39796W        W 3729  34.059  26.030  13.427
39797W        W 3730  40.306  10.246  10.625
39798W        W 3731  19.177   9.773  10.935
39799W        W 3732  37.534  39.334   2.231
39800W        W 3733  31.645  14.179   1.893
39801W        W 3734  14.818  13.831   0.271
39802W        W 3735  26.594  20.649   0.310
39803W        W 3736   9.305  29.163   3.719
39804W        W 3737  43.363  26.088   2.871
39805W        W 3738  25.518  31.954  10.507
39806W        W 3739  14.778  22.513  10.026
39807W        W 3740   2.403   6.297   0.842
39808W        W 3741  26.573   9.301  13.316
39809W        W 3742  11.759  21.085  13.383
39810W        W 3743  23.705   3.719  13.903
39811W        W 3744  36.089  20.106  11.470
39812W        W 3745  29.524  43.410   0.336
39813W        W 3746  39.830  34.470   1.391
39814W        W 3747  40.397  10.310   0.464
39815W        W 3748  41.822   0.319   2.264
39816W        W 3749  22.130  23.556   0.797
39817W        W 3750  32.938  30.986  14.364
39818W        W 3751  21.195   0.296  10.505
39819W        W 3752  19.187  18.239  10.945
39820W        W 3753  36.916  29.968   4.783
39821W        W 3754   5.216  19.047  11.460
39822W        W 3755  15.676   5.858  14.014
39823W        W 3756  12.648  38.906  12.058
39824W        W 3757   2.457  26.591   0.390
39825W        W 3758   0.983  10.275  13.328
39826W        W 3759   0.828  23.197  11.068
39827W        W 3760  11.751  13.811  10.554
39828W        W 3761  26.605  14.190   3.218
39829W        W 3762  16.099  17.712  14.761
39830W        W 3763  27.505  33.103   4.694
39831W        W 3764  14.737  26.506   1.372
39832W        W 3765  43.807  31.499  10.628
39833W        W 3766   2.468  19.189  13.399
39834W        W 3767  25.566   0.782   4.661
39835W        W 3768  15.673  13.130   1.877
39836W        W 3769  35.425  26.018  10.423
39837W        W 3770  12.172  33.424  12.830
39838W        W 3771  13.237  17.619  12.570
39839W        W 3772  10.721   0.776   1.255
39840W        W 3773  33.439  44.349  10.423
39841W        W 3774  16.725  31.610   1.264
39842W        W 3775  12.286  25.151  13.036
39843W        W 3776  34.503  10.757  11.071
39844W        W 3777  28.573  39.842   2.680
39845W        W 3778   1.408   1.272  14.326
39846W        W 3779   3.248  36.485   0.772
39847W        W 3780  10.867  13.303   0.898
39848W        W 3781  11.703  14.166  12.960
39849W        W 3782   1.957  39.345  12.384
39850W        W 3783   5.240  38.427   3.739
39851W        W 3784  17.624  25.078  13.424
39852W        W 3785   1.816  39.516  14.374
39853W        W 3786   3.232  42.987  11.471
39854W        W 3787  19.681  32.138   2.388
39855W        W 3788  27.651  23.539   1.722
39856W        W 3789  41.011   7.216  14.512
39857W        W 3790  38.490  25.134  10.984
39858W        W 3791   7.193   5.733   0.964
39859W        W 3792  35.533  23.649   0.797
39860W        W 3793  20.191  29.442   1.222
39861W        W 3794  39.888  22.230  12.906
39862W        W 3795  33.533  19.116   3.854
39863W        W 3796  25.978  27.157  14.334
39864W        W 3797  21.071  27.479  11.460
39865W        W 3798   4.246   2.918   2.831
39866W        W 3799  23.997  35.921   3.796
39867W        W 3800  43.796  36.056  14.931
39868W        W 3801   9.211  38.357  10.429
39869W        W 3802  26.149  15.680  11.539
39870W        W 3803  12.276  26.138   4.782
39871W        W 3804  11.737   6.381   3.266
39872W        W 3805  32.475  23.517  14.288
39873W        W 3806  33.950  37.435  14.020
39874W        W 3807   9.864  40.939   2.771
39875W        W 3808   1.414   0.313   4.274
39876W        W 3809   1.864  42.375  11.903
39877W        W 3810  32.019  34.083   3.835
39878W        W 3811  13.642  39.880   2.731
39879W        W 3812   1.843  19.222   1.388
39880W        W 3813   2.843  40.367   1.227
39881W        W 3814   9.774  11.229  13.491
39882W        W 3815  24.213  10.858   3.277
39883W        W 3816  28.953  14.722   3.355
39884W        W 3817  27.559  22.534   0.303
39885W        W 3818  20.170  33.003  11.389
39886W        W 3819  20.254   4.916  11.863
39887W        W 3820   9.786  13.808  14.331
39888W        W 3821  20.222  16.687   3.249
39889W        W 3822   7.330  43.516   4.200
39890W        W 3823  44.762  32.961  12.916
39891W        W 3824  41.938  36.841   1.438
39892W        W 3825  10.166   5.808  13.416
39893W        W 3826  14.303   0.285   3.363
39894W        W 3827  19.565  18.585   2.374
39895W        W 3828  39.373  20.759   4.175
39896W        W 3829  10.183   1.763  13.934
39897W        W 3830   7.704  43.302   1.882
39898W        W 3831  16.607  18.551  11.962
39899W        W 3832  20.148  16.203   0.780
39900W        W 3833  14.113  18.079  14.007
39901W        W 3834  11.240   3.375  10.969
39902W        W 3835  31.052  15.629  10.041
39903W        W 3836  14.119   0.483  13.512
39904W        W 3837  34.381  38.346   0.731
39905W        W 3838   3.862  37.479   3.366
39906W        W 3839  21.098   7.171  10.934
39907W        W 3840  24.118  12.722   3.280
39908W        W 3841  37.360  27.124  11.001
39909W        W 3842   4.315  41.357   2.359
39910W        W 3843  16.602   4.793  11.074
39911W        W 3844  25.987  18.291  14.837
39912W        W 3845   0.400  12.815   2.838
39913W        W 3846  22.546  24.033  11.939
39914W        W 3847  22.707   2.781   0.747
39915W        W 3848   5.904  35.561   4.341
39916W        W 3849   1.918  43.895  13.376
39917W        W 3850  41.466  13.794   0.442
39918W        W 3851   2.339  21.616   2.710
39919W        W 3852  23.675  41.880   4.803
39920W        W 3853  23.554  35.438   3.720
39921W        W 3854   1.935  12.632   0.405
39922W        W 3855  20.120   1.841  11.015
39923W        W 3856  21.083  44.809   1.410
39924W        W 3857  43.337  38.056  14.995
39925W        W 3858  38.970  22.009   1.825
39926W        W 3859  19.070   2.908   3.856
39927W        W 3860  33.115  30.448   3.335
39928W        W 3861  40.915  12.630   4.177
39929W        W 3862  27.455  29.508   0.424
39930W        W 3863  35.079  38.955   5.150
39931W        W 3864  22.747  26.681  13.958
39932W        W 3865  15.812   1.427   4.193
39933W        W 3866   8.816  24.616   4.276
39934W        W 3867  13.721  21.193   0.294
39935W        W 3868   1.911  35.555   1.896
39936W        W 3869  41.515  19.233   2.731
39937W        W 3870  23.188   4.371  13.937
39938W        W 3871  38.002  25.987  13.022
39939W        W 3872  24.982  20.625  12.855
39940W        W 3873   7.381  20.198  11.386
39941W        W 3874   9.309  23.185   4.731
39942W        W 3875  42.984   5.717  12.069
39943W        W 3876  40.800  22.709   1.400
39944W        W 3877  28.609  26.976   0.477
39945W        W 3878  38.365   9.856   0.394
39946W        W 3879  25.677  39.005   4.317
39947W        W 3880  14.301  10.863   0.360
39948W        W 3881  35.984  12.729   4.633
39949W        W 3882   4.243  10.356  10.939
39950W        W 3883  16.210  25.215   1.890
39951W        W 3884   8.889  41.981   3.223
39952W        W 3885  15.152  36.548   3.326
39953W        W 3886  33.385  44.259   5.273
39954W        W 3887  40.893   1.482  13.047
39955W        W 3888   5.729  29.962  10.623
39956W        W 3889  25.693  18.251   1.431
39957W        W 3890  37.482  14.677   1.715
39958W        W 3891   0.459  13.689  14.465
39959W        W 3892  16.082  17.141  12.843
39960W        W 3893   8.375   5.403  11.507
39961W        W 3894  12.722  38.863   3.730
39962W        W 3895   4.728   7.347   4.792
39963W        W 3896  21.113  17.136  11.911
39964W        W 3897  21.596  41.490   2.253
39965W        W 3898  43.498  39.376  13.964
39966W        W 3899  23.672  27.545  11.409
39967W        W 3900  26.985  41.863  14.931
39968W        W 3901  33.404  21.241   4.720
39969W        W 3902  12.360   5.277   4.807
39970W        W 3903  17.223  12.163   4.202
39971W        W 3904  11.206  43.981   0.806
39972W        W 3905   5.253  41.419   3.718
39973W        W 3906  22.514  32.004   5.231
39974W        W 3907  37.533  31.464   0.386
39975W        W 3908  35.526  44.413   4.827
39976W        W 3909  11.265  42.945   1.225
39977W        W 3910  22.692  25.611  11.609
39978W        W 3911   3.241  26.645  12.996
39979W        W 3912  10.704  34.932  10.594
39980W        W 3913  30.999  41.959   0.949
39981W        W 3914  36.849  28.004   0.733
39982W        W 3915  22.598  10.176  10.891
39983W        W 3916  25.694  27.611   4.205
39984W        W 3917  36.375   7.386  14.505
39985W        W 3918  23.508   6.425  14.323
39986W        W 3919  14.741  15.626   9.946
39987W        W 3920  44.446  21.145   4.696
39988W        W 3921  18.172  31.441  13.495
39989W        W 3922  31.546  41.825   4.696
39990W        W 3923  41.458  26.093  12.481
39991W        W 3924  37.574  22.235   0.928
39992W        W 3925  38.045  43.292   3.165
39993W        W 3926  35.544  21.679  13.018
39994W        W 3927   9.383  22.567  11.514
39995W        W 3928  18.062  32.094   3.340
39996W        W 3929  14.792  36.984  10.454
39997W        W 3930  32.441  23.041  10.518
39998W        W 3931  16.271  16.683   3.298
39999W        W 3932  19.279  14.166   5.225
40000W        W 3933  12.836  39.405   3.199
40001W        W 3934  24.724  23.064   2.875
40002W        W 3935  42.985  40.042   0.897
40003W        W 3936  22.182   5.876   0.732
40004W        W 3937  41.859  21.020  13.308
40005W        W 3938   2.764  27.664  11.052
40006W        W 3939  42.782   2.410  10.454
40007W        W 3940  18.772   2.424  12.964
40008W        W 3941   7.769  12.694  13.324
40009W        W 3942  15.742  21.022   2.315
40010W        W 3943  18.571  12.240  14.944
40011W        W 3944   2.842  43.847  11.968
40012W        W 3945  11.773   6.826   4.319
40013W        W 3946  40.378  41.423   3.200
40014W        W 3947  33.475  10.653   0.373
40015W        W 3948   8.710  38.062  13.516
40016W        W 3949  42.805  31.079  14.281
40017W        W 3950  37.501  15.259  12.921
40018W        W 3951   9.293  28.958   1.858
40019W        W 3952  44.897   2.405   4.603
40020W        W 3953  10.258  35.903   4.249
40021W        W 3954  37.545  32.046   1.871
40022W        W 3955  36.417  24.124   2.836
40023W        W 3956  14.134  34.045   2.699
40024W        W 3957  38.968  24.095   9.998
40025W        W 3958  27.635  29.940   2.776
40026W        W 3959   7.209   8.285   3.336
40027W        W 3960  32.100  28.659   4.776
40028W        W 3961  30.019  16.636  14.450
40029W        W 3962   5.216   6.233  14.944
40030W        W 3963  32.007  29.607  11.511
40031W        W 3964  20.749  39.442  11.380
40032W        W 3965  36.501  20.091   3.271
40033W        W 3966  28.090  33.968   1.414
40034W        W 3967  25.679  17.642   2.763
40035W        W 3968  27.067  42.805  10.134
40036W        W 3969  28.626  41.349  14.922
40037W        W 3970  43.499   5.768   4.148
40038W        W 3971   7.299  22.594  10.993
40039W        W 3972  38.503   9.703   0.874
40040W        W 3973  30.605  33.034   4.171
40041W        W 3974   7.366  20.611   1.777
40042W        W 3975  41.886   0.344   0.896
40043W        W 3976  13.312  37.075   1.721
40044W        W 3977   0.763  35.431  11.447
40045W        W 3978   2.841  32.412  10.488
40046W        W 3979  26.161  20.140  11.450
40047W        W 3980  11.246  29.106  13.442
40048W        W 3981  37.061  43.935   1.284
40049W        W 3982  29.127  33.610   3.755
40050W        W 3983  26.202   8.278   4.735
40051W        W 3984  13.325  12.642   9.990
40052W        W 3985   9.301  17.569  10.465
40053W        W 3986  22.527  15.600   5.094
40054W        W 3987  24.630  31.412   0.438
40055W        W 3988  25.070  38.500  14.913
40056W        W 3989  33.589  39.321   0.387
40057W        W 3990  24.719   3.940   2.267
40058W        W 3991  37.905  29.630  10.920
40059W        W 3992  35.588  36.093   3.821
40060W        W 3993  22.657  44.796  14.909
40061W        W 3994  27.449   0.839  12.094
40062W        W 3995  29.920  11.775  13.479
40063W        W 3996  13.841  14.215  11.532
40064W        W 3997  17.069   4.773   0.959
40065W        W 3998  12.618  10.841   2.339
40066W        W 3999  24.679   1.926   1.831
40067W        W 4000  43.285  22.518   1.348
40068W        W 4001  17.277  20.221  11.607
40069W        W 4002  20.546  18.758  11.070
40070W        W 4003   8.798  24.158  12.044
40071W        W 4004  31.012   7.802  10.558
40072W        W 4005  14.827  21.729  13.365
40073W        W 4006  17.228  38.374  11.548
40074W        W 4007   7.760   4.891  13.901
40075W        W 4008  25.095  25.582  14.982
40076W        W 4009  18.786  33.083   2.301
40077W        W 4010  37.407   4.790  10.891
40078W        W 4011  40.517  25.025   2.770
40079W        W 4012  19.750  15.683  14.028
40080W        W 4013  15.089  44.449   3.246
40081W        W 4014   6.906   3.936  14.816
40082W        W 4015  35.502  16.743   0.274
40083W        W 4016  21.696  30.602  12.922
40084W        W 4017  18.552  23.568   4.242
40085W        W 4018  22.057  30.041  10.522
40086W        W 4019  11.816  39.451  13.478
40087W        W 4020  19.135   4.334  11.877
40088W        W 4021  37.930   8.230  14.357
40089W        W 4022  16.659   1.384  12.453
40090W        W 4023  24.679  14.186  12.869
40091W        W 4024  19.247  30.107  10.035
40092W        W 4025  36.353  23.027   4.603
40093W        W 4026  16.599  16.718  10.587
40094W        W 4027   8.374  25.703   0.334
40095W        W 4028  27.593  42.782  10.611
40096W        W 4029  27.006  27.144  12.083
40097W        W 4030   6.239  23.652   3.693
40098W        W 4031  11.327  24.500   2.281
40099W        W 4032  11.169  20.768  13.901
40100W        W 4033  44.879  11.833  12.953
40101W        W 4034   6.286   0.951   4.687
40102W        W 4035  10.636   1.803  14.822
40103W        W 4036  44.980  16.309  14.420
40104W        W 4037  19.202  23.032  11.111
40105W        W 4038  22.240  18.105  10.972
40106W        W 4039   7.307  11.697   4.734
40107W        W 4040  14.791  23.995   0.872
40108W        W 4041  20.255   1.738   1.904
40109W        W 4042  21.646  27.972   1.848
40110W        W 4043  32.105  24.131  12.540
40111W        W 4044  32.026   6.217   0.328
40112W        W 4045   3.872  38.563  11.925
40113W        W 4046  27.994   6.258   1.332
40114W        W 4047  25.489  24.167   1.281
40115W        W 4048  43.475   6.333   3.783
40116W        W 4049  36.045  37.372   1.773
40117W        W 4050  31.411  28.649  13.428
40118W        W 4051  35.508   8.663  11.447
40119W        W 4052  17.619  21.724  11.027
40120W        W 4053  29.000  23.536   3.162
40121W        W 4054  25.496  21.248   3.806
40122W        W 4055  34.105   3.749   4.138
40123W        W 4056   7.867  21.709  12.348
40124W        W 4057   3.896  43.382  13.485
40125W        W 4058  28.118  28.974  14.923
40126W        W 4059  29.515  23.602  10.040
40127W        W 4060  15.266  12.833  13.995
40128W        W 4061   2.936   3.901   0.759
40129W        W 4062  12.835   1.837   1.352
40130W        W 4063  33.600  40.525  13.001
40131W        W 4064   7.882   1.370   0.864
40132W        W 4065   8.265   5.414   3.643
40133W        W 4066  17.653   9.800  13.872
40134W        W 4067  34.582  11.758   2.386
40135W        W 4068  44.389  29.462  10.895
40136W        W 4069   2.860  18.619  14.485
40137W        W 4070  21.092  34.594   3.234
40138W        W 4071  31.082   4.858   3.743
40139W        W 4072  42.905  24.991   0.933
40140W        W 4073  35.542  24.190   3.233
40141W        W 4074  34.975  21.635   1.848
40142W        W 4075  39.358  28.643   0.361
40143W        W 4076  28.463  36.900  14.800
40144W        W 4077  11.793  26.085   1.709
40145W        W 4078   0.966  12.336   4.640
40146W        W 4079  27.561  39.435  14.835
40147W        W 4080  29.532  15.654  10.558
40148W        W 4081  22.593   5.703   0.301
40149W        W 4082  25.473  41.896   1.351
40150W        W 4083  40.814   2.382  11.983
40151W        W 4084  44.360  21.085  11.907
40152W        W 4085  14.633  43.955  10.421
40153W        W 4086   4.295  10.361   2.400
40154W        W 4087  17.245  14.326  14.821
40155W        W 4088  12.149  27.008  12.987
40156W        W 4089  32.403   0.279  13.010
40157W        W 4090  12.792   8.728  14.772
40158W        W 4091  28.604  13.340  11.477
40159W        W 4092   2.727  42.477  14.017
40160W        W 4093  15.156  37.841   4.161
40161W        W 4094  21.528  12.361   1.755
40162W        W 4095  37.438  34.467  10.424
40163W        W 4096  14.780  40.416   3.785
40164W        W 4097  32.489  44.505  12.381
40165W        W 4098  40.017  20.037   0.283
40166W        W 4099   2.767  18.064  10.417
40167W        W 4100  19.241  34.924   2.290
40168W        W 4101  34.912  42.992   4.720
40169W        W 4102  31.402  22.596   1.776
40170W        W 4103  43.281   8.821  10.535
40171W        W 4104  14.255  15.617  10.915
40172W        W 4105   6.324  19.228   3.317
40173W        W 4106  29.160  29.966   1.870
40174W        W 4107  43.958  30.519  10.614
40175W        W 4108   5.282  43.908  13.507
40176W        W 4109  18.215  39.470   0.260
40177W        W 4110  35.561  15.586   0.896
40178W        W 4111  23.087  15.774  10.108
40179W        W 4112  13.285  23.716   1.695
40180W        W 4113   6.371  42.861   4.626
40181W        W 4114  27.053  31.500  13.317
40182W        W 4115   4.733  35.861  13.053
40183W        W 4116  22.682  11.325  13.980
40184W        W 4117  36.846  20.213   2.261
40185W        W 4118  31.447  31.628  14.448
40186W        W 4119  22.571  27.544   3.739
40187W        W 4120  12.828   0.410  11.937
40188W        W 4121  10.147  32.498   2.807
40189W        W 4122   7.268   5.822  12.555
40190W        W 4123  11.222  39.028   2.747
40191W        W 4124   7.810  20.234   3.775
40192W        W 4125  35.550   8.774  13.361
40193W        W 4126  32.983   2.430   1.316
40194W        W 4127  19.596  31.912   1.860
40195W        W 4128   4.254  11.789  11.586
40196W        W 4129  30.106  17.134  12.579
40197W        W 4130  26.085  41.462   5.244
40198W        W 4131   6.887  41.834  12.512
40199W        W 4132  29.075  33.471   4.299
40200W        W 4133  29.014  32.003  11.548
40201W        W 4134   6.753   0.344  14.007
40202W        W 4135  24.103  36.450   1.877
40203W        W 4136  34.526  17.575   4.296
40204W        W 4137   5.829  35.595  12.500
40205W        W 4138   0.468   4.271   2.872
40206W        W 4139  21.076  44.275  11.520
40207W        W 4140  26.173  21.531  10.934
40208W        W 4141  12.117  39.472  13.060
40209W        W 4142  31.121  30.584   2.237
40210W        W 4143   5.854  44.996   0.822
40211W        W 4144  28.453  28.041   3.293
40212W        W 4145  18.143  34.010  14.919
40213W        W 4146  41.377  44.452   3.354
40214W        W 4147   3.748   7.899   2.276
40215W        W 4148  33.526  34.995  10.077
40216W        W 4149  21.650   9.818  10.580
40217W        W 4150  41.511  27.476   4.168
40218W        W 4151  18.653  29.574  14.277
40219W        W 4152  20.619  32.455  12.079
40220W        W 4153  34.438  38.907   0.252
40221W        W 4154   1.866   6.332  14.923
40222W        W 4155  23.728   0.290  12.930
40223W        W 4156  16.157  30.540  11.545
40224W        W 4157  21.191   4.871  12.438
40225W        W 4158   4.870  30.079  14.434
40226W        W 4159  38.452  16.788   0.792
40227W        W 4160  17.232  17.094   4.136
40228W        W 4161  43.405  16.567  14.387
40229W        W 4162  31.496  19.187   3.333
40230W        W 4163   5.437   7.791  13.037
40231W        W 4164  38.969   0.975   5.143
40232W        W 4165  17.727  41.876   1.757
40233W        W 4166  34.472   0.866   1.243
40234W        W 4167  19.580  26.097  10.551
40235W        W 4168  14.686   8.863   4.341
40236W        W 4169  24.985  36.993  10.630
40237W        W 4170  42.402  42.813   1.345
40238W        W 4171  12.665  11.157  11.375
40239W        W 4172   1.262  37.976   1.879
40240W        W 4173  23.110  30.486   2.728
40241W        W 4174  14.619  17.757  10.567
40242W        W 4175   6.782  11.811  14.020
40243W        W 4176   2.383  22.037  12.515
40244W        W 4177  37.831  11.226  13.830
40245W        W 4178  21.250  40.963  13.843
40246W        W 4179  20.568  33.939   1.310
40247W        W 4180  20.116  38.456   4.126
40248W        W 4181  29.588  40.929   4.720
40249W        W 4182  13.757  29.940  10.413
40250W        W 4183  18.123  17.221  11.079
40251W        W 4184   2.772  39.955   2.255
40252W        W 4185  38.918   7.280  11.434
40253W        W 4186  14.663  27.532  11.537
40254W        W 4187  31.459  41.464  14.967
40255W        W 4188  16.657   9.164   5.609
40256W        W 4189  24.605  29.476  11.464
40257W        W 4190  41.342  28.115   0.734
40258W        W 4191  12.705  33.432   0.750
40259W        W 4192  32.604   2.764   1.342
40260W        W 4193  21.214   4.329   0.460
40261W        W 4194  27.149  17.620  13.488
40262W        W 4195  23.065  33.536   3.176
40263W        W 4196  28.002  39.831  11.386
40264W        W 4197  39.024   5.323   0.731
40265W        W 4198  33.124  42.292  11.075
40266W        W 4199  17.065   1.840  14.978
40267W        W 4200   5.689  36.567   1.829
40268W        W 4201  43.455  33.046   2.662
40269W        W 4202  34.017  12.633  12.479
40270W        W 4203  37.505  38.340   4.691
40271W        W 4204  44.382  19.658   0.369
40272W        W 4205  26.152   3.725   4.127
40273W        W 4206  20.200  21.214   2.666
40274W        W 4207  28.966   2.462  11.451
40275W        W 4208   0.891   9.394   4.789
40276W        W 4209  36.904  34.596   0.295
40277W        W 4210  20.191  12.308   1.375
40278W        W 4211   4.887  39.476   3.716
40279W        W 4212   7.898  35.986   3.833
40280W        W 4213  44.382  26.622  14.435
40281W        W 4214  37.354  26.105  11.577
40282W        W 4215  42.938  43.298   4.310
40283W        W 4216  11.800  34.417  10.994
40284W        W 4217  29.919   3.735  12.917
40285W        W 4218  42.393   4.774   1.328
40286W        W 4219  21.258  38.882  12.888
40287W        W 4220   3.726  18.195   4.192
40288W        W 4221  11.185  26.510   0.774
40289W        W 4222  26.605   2.320   2.680
40290W        W 4223  23.730   1.740  14.848
40291W        W 4224  41.365  24.113   3.178
40292W        W 4225  20.649  37.357  14.985
40293W        W 4226  10.714  21.138   1.257
40294W        W 4227  20.579  40.812   2.201
40295W        W 4228  32.115   4.203  14.307
40296W        W 4229   1.355  23.143   3.217
40297W        W 4230   1.891  24.567   4.187
40298W        W 4231  21.157  33.396  14.515
40299W        W 4232  30.007   9.713  14.856
40300W        W 4233  12.139   9.260   0.300
40301W        W 4234  11.323  21.680   3.759
40302W        W 4235   3.311  38.526  12.071
40303W        W 4236   9.877  16.753  12.051
40304W        W 4237   7.899  32.088   0.886
40305W        W 4238  29.114  14.799  14.366
40306W        W 4239   9.248  44.500  13.931
40307W        W 4240  14.247   4.927  11.863
40308W        W 4241  16.579  35.105   0.275
40309W        W 4242  37.540  38.514   2.753
40310W        W 4243  17.666  16.640  11.114
40311W        W 4244  22.525   8.672   3.672
40312W        W 4245  40.504   0.354  10.977
40313W        W 4246   9.813  25.549   2.899
40314W        W 4247  42.793  24.561   4.256
40315W        W 4248  41.398  11.254  11.494
40316W        W 4249  37.896  13.710  14.395
40317W        W 4250  32.971  27.459   1.744
40318W        W 4251  24.092  15.219  14.975
40319W        W 4252  31.604  44.843  12.929
40320W        W 4253  41.855  12.324   2.246
40321W        W 4254  30.461  35.601   3.827
40322W        W 4255  43.943  20.614   1.889
40323W        W 4256   5.371  36.565  11.563
40324W        W 4257  10.833  31.041   2.765
40325W        W 4258  11.722   6.852  12.542
40326W        W 4259  20.227  29.927   2.792
40327W        W 4260   3.294   1.953  11.560
40328W        W 4261  23.078   5.719  13.377
40329W        W 4262   1.260  14.254   4.169
40330W        W 4263  36.590  11.830   4.731
40331W        W 4264  38.891   4.258   4.616
40332W        W 4265  10.799  35.526  11.474
40333W        W 4266  24.563   3.931  10.580
40334W        W 4267   2.778  20.596  13.842
40335W        W 4268  25.064  15.733   0.249
40336W        W 4269  33.040  10.267   1.778
40337W        W 4270  40.306  32.115   3.708
40338W        W 4271  27.601  10.323  13.037
40339W        W 4272  16.136  11.249  10.978
40340W        W 4273   2.731  28.585  13.494
40341W        W 4274  44.483   5.854   2.263
40342W        W 4275   9.340  41.361  11.379
40343W        W 4276  33.504  24.585  11.493
40344W        W 4277  38.540  23.989  14.852
40345W        W 4278   3.390   5.314  11.554
40346W        W 4279  37.964  44.471   1.290
40347W        W 4280  29.646  19.673  11.031
40348W        W 4281  30.502   1.331  12.948
40349W        W 4282  28.568  21.641  14.988
40350W        W 4283   8.676  19.588  14.902
40351W        W 4284   1.340  34.032  11.599
40352W        W 4285  41.393  15.685   1.364
40353W        W 4286  42.487  33.882   2.385
40354W        W 4287  31.912  25.210   4.202
40355W        W 4288   9.287   5.319  13.464
40356W        W 4289  22.652  37.015   3.382
40357W        W 4290  42.836  13.340  10.577
40358W        W 4291  26.032  13.762   1.444
40359W        W 4292   1.309  13.293   2.836
40360W        W 4293   9.301  39.469  14.319
40361W        W 4294  23.048  35.076  11.055
40362W        W 4295  24.077  18.064   3.222
40363W        W 4296   2.767   1.972  13.792
40364W        W 4297   0.271  11.357  10.612
40365W        W 4298  29.110  34.033  12.996
40366W        W 4299   2.952  40.803   0.760
40367W        W 4300   1.269   0.892  14.958
40368W        W 4301  33.387  13.609   1.858
40369W        W 4302  41.932  43.474  10.638
40370W        W 4303  17.221  30.997  14.282
40371W        W 4304   9.678   1.806   4.300
40372W        W 4305   2.322   4.727  14.805
40373W        W 4306  40.992  37.003  13.543
40374W        W 4307  40.801  31.403  12.038
40375W        W 4308  27.510  15.319  11.052
40376W        W 4309  24.061  20.083   0.393
40377W        W 4310  36.094  43.948  10.607
40378W        W 4311  37.865  31.529   4.744
40379W        W 4312   4.739  19.711   3.324
40380W        W 4313  13.141  35.995  14.796
40381W        W 4314  28.501  17.257  11.550
40382W        W 4315  43.871  16.752   3.769
40383W        W 4316  19.055  29.633  13.996
40384W        W 4317  25.020  19.613  14.411
40385W        W 4318   4.417  12.258   5.652
40386W        W 4319  41.406  34.591  12.459
40387W        W 4320  19.193  36.432   0.447
40388W        W 4321  11.790   4.894  14.488
40389W        W 4322  16.566  11.676   1.425
40390W        W 4323  10.239  31.485  14.515
40391W        W 4324  34.555  31.453  13.538
40392W        W 4325  36.087  43.779  14.879
40393W        W 4326  10.862  19.711   1.374
40394W        W 4327  20.587  25.192   4.768
40395W        W 4328  37.036  15.119  13.489
40396W        W 4329   2.792  44.901  10.424
40397W        W 4330   0.430   9.253  12.893
40398W        W 4331  16.604  25.695  10.614
40399W        W 4332  37.071  12.342  14.434
40400W        W 4333  32.421  10.806   0.466
40401W        W 4334  11.640  28.030   2.221
40402W        W 4335  42.463  28.548   2.219
40403W        W 4336  24.090  14.309   1.269
40404W        W 4337  32.892  19.652  10.604
40405W        W 4338   5.699   6.837  13.963
40406W        W 4339  35.383  31.938  14.462
40407W        W 4340  13.179  12.765   5.166
40408W        W 4341  28.941  12.211   1.430
40409W        W 4342  38.485  27.010   2.777
40410W        W 4343  35.529   6.766   4.827
40411W        W 4344   9.206  21.571  11.101
40412W        W 4345  25.122  33.485   4.703
40413W        W 4346   5.427  12.246  11.957
40414W        W 4347  13.194  11.679   4.831
40415W        W 4348  32.913   8.380  12.946
40416W        W 4349  37.956  27.989   4.114
40417W        W 4350  44.470   2.258   0.768
40418W        W 4351  28.085  22.210   1.879
40419W        W 4352  22.052  26.113   2.857
40420W        W 4353  25.067  22.056  14.406
40421W        W 4354   8.370  43.952  13.371
40422W        W 4355  38.535   0.399  14.297
40423W        W 4356  22.130  26.114   1.744
40424W        W 4357  23.994  25.632   3.630
40425W        W 4358   1.891  18.087   2.385
40426W        W 4359  26.531   4.280  14.848
40427W        W 4360  13.190  13.838  12.838
40428W        W 4361  30.050  39.887   4.260
40429W        W 4362  18.616  14.625   1.250
40430W        W 4363   7.402  25.174   4.318
40431W        W 4364   3.905  44.927  14.994
40432W        W 4365  18.267  13.261   4.219
40433W        W 4366  11.797  30.912   2.686
40434W        W 4367  20.595  42.843  11.122
40435W        W 4368  26.091  11.778   5.089
40436W        W 4369  25.138   6.313   2.218
40437W        W 4370  15.611   6.719   1.258
40438W        W 4371   9.822  36.536  11.595
40439W        W 4372  38.982  37.505   4.146
40440W        W 4373  30.909  27.111   3.869
40441W        W 4374  22.114   6.873   3.782
40442W        W 4375  11.226  36.485  12.873
40443W        W 4376   4.874   3.909  12.891
40444W        W 4377  12.847  18.616   4.353
40445W        W 4378  17.782   8.684  12.359
40446W        W 4379   0.818  35.046  13.006
40447W        W 4380   3.929   0.273  10.463
40448W        W 4381  10.732  29.636   4.187
40449W        W 4382  13.255  35.457  12.988
40450W        W 4383  35.393   9.726   2.670
40451W        W 4384  16.694  27.544   3.839
40452W        W 4385  43.427  30.018  12.574
40453W        W 4386  19.157  28.020  12.089
40454W        W 4387  28.506  40.408  13.900
40455W        W 4388  12.689   0.420  13.836
40456W        W 4389  28.134   8.886   1.729
40457W        W 4390  20.193  31.598  14.867
40458W        W 4391  12.294  18.694  12.376
40459W        W 4392   1.913  29.623   2.299
40460W        W 4393   3.743   2.917  13.026
40461W        W 4394  25.672  32.463   2.798
40462W        W 4395  31.436  25.538  14.466
40463W        W 4396  13.758  21.136  13.965
40464W        W 4397  17.177  34.952   3.312
40465W        W 4398  17.151  31.987   4.311
40466W        W 4399  32.600  31.546   0.734
40467W        W 4400  25.973  35.414  10.587
40468W        W 4401   7.763  19.098   2.282
40469W        W 4402  28.158  18.152   4.320
40470W        W 4403  39.897  26.663   3.359
40471W        W 4404  37.404   3.274   2.779
40472W        W 4405  16.259   5.735   0.473
40473W        W 4406   4.295   5.757  11.864
40474W        W 4407   3.817  42.969   4.785
40475W        W 4408  13.106  13.621   2.348
40476W        W 4409  38.009   0.322   3.657
40477W        W 4410  16.293  37.370  10.929
40478W        W 4411  31.550  19.649   3.262
40479W        W 4412  38.035  35.094  13.359
40480W        W 4413  40.026  18.666  14.874
40481W        W 4414   8.751  39.353   3.237
40482W        W 4415  31.433  11.346  10.999
40483W        W 4416  11.765  39.993   1.373
40484W        W 4417  29.105  10.292   1.417
40485W        W 4418  40.458  39.349  12.974
40486W        W 4419   0.305   3.893  12.481
40487W        W 4420  41.826  41.823  14.947
40488W        W 4421  21.126  19.180  11.576
40489W        W 4422  40.389  36.883   1.317
40490W        W 4423  40.827  23.529  12.837
40491W        W 4424  26.032  18.762  13.511
40492W        W 4425   8.382  24.496   4.280
40493W        W 4426  43.396  43.449  10.938
40494W        W 4427  14.262   0.763   1.897
40495W        W 4428  18.766  16.776   1.712
40496W        W 4429   4.439  10.685  12.086
40497W        W 4430   8.868  16.673   1.713
40498W        W 4431  23.582  34.041   4.346
40499W        W 4432  27.591  18.056   1.709
40500W        W 4433  24.535  16.302  11.412
40501W        W 4434  18.636  22.078   4.647
40502W        W 4435  23.692  27.509   4.671
40503W        W 4436  18.714   2.368   2.228
40504W        W 4437  35.491   3.251   3.868
40505W        W 4438   7.417   6.699   2.877
40506W        W 4439   5.759  40.334   4.132
40507W        W 4440  23.229  42.926   0.320
40508W        W 4441  41.452   0.288   3.183
40509W        W 4442   7.397  30.913  12.840
40510W        W 4443  15.152  27.094   4.329
40511W        W 4444  36.552  29.662   2.285
40512W        W 4445  11.738  20.522   0.855
40513W        W 4446   4.386  24.534   1.903
40514W        W 4447  10.213   3.855  11.962
40515W        W 4448  30.004  40.965   3.182
40516W        W 4449  18.192  30.086  12.007
40517W        W 4450  12.204  36.076  14.447
40518W        W 4451   2.343  15.681  13.481
40519W        W 4452  33.598  18.192   1.433
40520W        W 4453   8.296  15.114   0.810
40521W        W 4454  10.878  17.601  14.846
40522W        W 4455  37.429  30.443  14.017
40523W        W 4456  37.496  12.285   3.762
40524W        W 4457  15.255  33.936  13.544
40525W        W 4458   3.325   6.903  12.869
40526W        W 4459  11.823  27.500   0.273
40527W        W 4460   8.832  30.012   2.699
40528W        W 4461  12.288  41.963   0.386
40529W        W 4462   7.788  34.389   2.709
40530W        W 4463  20.063   7.205  10.470
40531W        W 4464  19.546  11.173  14.961
40532W        W 4465   5.778  35.985   1.797
40533W        W 4466  32.114  28.488  13.976
40534W        W 4467  15.758  40.530   4.299
40535W        W 4468   4.215  20.096  11.537
40536W        W 4469  31.546  27.536   3.685
40537W        W 4470  39.542  23.130  14.028
40538W        W 4471  31.104  14.195   2.404
40539W        W 4472  23.208  29.568  14.375
40540W        W 4473   2.394  32.463   2.362
40541W        W 4474  35.430  11.259   3.859
40542W        W 4475  10.833  29.070   2.187
40543W        W 4476  18.725  36.361   1.392
40544W        W 4477  37.079  38.051   4.746
40545W        W 4478  24.709  16.222   4.315
40546W        W 4479  36.455  28.009   4.831
40547W        W 4480  28.679  15.239  11.376
40548W        W 4481  34.452   5.923   0.727
40549W        W 4482  23.649  38.363   1.728
40550W        W 4483  36.578  38.834   2.803
40551W        W 4484  40.882  38.448   1.214
40552W        W 4485  13.134  28.456   1.823
40553W        W 4486  11.686  38.994  10.414
40554W        W 4487  21.727  32.975   3.845
40555W        W 4488  10.246  31.043   4.205
40556W        W 4489  14.650  16.097  13.807
40557W        W 4490  34.462  12.289  11.432
40558W        W 4491   9.718  33.463   1.864
40559W        W 4492  39.381  30.502   3.707
40560W        W 4493  44.493  44.004  14.880
40561W        W 4494  13.251  40.336  10.913
40562W        W 4495  42.500   4.794  13.990
40563W        W 4496   4.270  14.324   0.888
40564W        W 4497  35.443  21.028  14.495
40565W        W 4498  22.075   6.820  14.847
40566W        W 4499  24.613  16.811   4.122
40567W        W 4500  18.141  18.677   0.325
40568W        W 4501  40.043  23.556  14.307
40569W        W 4502  26.053  11.367   2.353
40570W        W 4503  38.891  28.550   0.891
40571W        W 4504  20.097  36.983   1.446
40572W        W 4505   6.835   9.164   4.761
40573W        W 4506  15.723  15.744   1.333
40574W        W 4507  33.102  12.228  12.367
40575W        W 4508  33.496   7.691  12.449
40576W        W 4509  25.518   9.253   3.675
40577W        W 4510  11.867  10.769   3.685
40578W        W 4511  27.670   6.690  14.351
40579W        W 4512  16.640  39.016   3.860
40580W        W 4513   6.294  10.753  12.398
40581W        W 4514  34.614   1.960   1.218
40582W        W 4515   4.219  39.984   1.234
40583W        W 4516  22.081  38.505   3.835
40584W        W 4517  27.185  41.516  13.850
40585W        W 4518  29.965  14.642   2.249
40586W        W 4519  25.209  32.115  14.473
40587W        W 4520  30.151   2.330  13.420
40588W        W 4521  15.603  34.500  13.424
40589W        W 4522  33.478  13.210   3.722
40590W        W 4523  19.152  17.769  13.431
40591W        W 4524  41.469  24.126   2.719
40592W        W 4525  10.281   9.362   3.300
40593W        W 4526   7.215   0.851  13.917
40594W        W 4527  37.025   9.828  12.014
40595W        W 4528  30.004  15.232   3.210
40596W        W 4529  37.538   4.778   0.314
40597W        W 4530  43.405  18.186  10.559
40598W        W 4531  31.521  19.542  13.832
40599W        W 4532   6.404  31.556  14.289
40600W        W 4533   6.265   7.255  14.917
40601W        W 4534  15.298   6.890   3.719
40602W        W 4535  11.690  39.394  10.905
40603W        W 4536  19.077  30.913   2.223
40604W        W 4537   4.394   2.242  11.426
40605W        W 4538  13.779  35.041  11.451
40606W        W 4539   1.895   7.344   4.680
40607W        W 4540  27.644  16.306   1.366
40608W        W 4541   7.189  35.449  11.416
40609W        W 4542  26.092  29.562   2.207
40610W        W 4543  15.764  35.031  12.539
40611W        W 4544  21.521  15.115  10.636
40612W        W 4545  15.134  37.972   3.362
40613W        W 4546  38.329  16.757  13.937
40614W        W 4547  25.689  33.897  14.312
40615W        W 4548  23.200  16.678   3.313
40616W        W 4549  41.424  32.399  14.823
40617W        W 4550  22.581  17.108   2.286
40618W        W 4551  31.017  41.509   1.720
40619W        W 4552  41.419  27.013  12.519
40620W        W 4553  43.452   5.739   0.458
40621W        W 4554   2.878  29.450  11.451
40622W        W 4555  10.768  24.168   2.308
40623W        W 4556  20.738   9.258  14.879
40624W        W 4557  33.078  25.472  13.863
40625W        W 4558   1.861  18.117   1.921
40626W        W 4559  18.717  34.428   1.451
40627W        W 4560  26.637  31.601   4.134
40628W        W 4561   4.752  28.567  14.514
40629W        W 4562  28.007  33.609  11.941
40630W        W 4563  28.464  35.432   1.448
40631W        W 4564   6.363  16.072   1.886
40632W        W 4565   6.700  29.597   1.780
40633W        W 4566  43.895  19.600  12.457
40634W        W 4567  15.804   6.876   1.928
40635W        W 4568  15.672   9.210  13.477
40636W        W 4569  43.347  43.865  10.921
40637W        W 4570  32.892  18.090   3.307
40638W        W 4571  22.009  16.246  13.798
40639W        W 4572  42.306  23.526   1.867
40640W        W 4573  30.990  31.897   4.614
40641W        W 4574   9.154   1.937   2.414
40642W        W 4575  40.964  17.666   1.259
40643W        W 4576  13.202  17.631   0.768
40644W        W 4577  27.484  32.977   3.855
40645W        W 4578  27.953  25.550   4.228
40646W        W 4579  18.597  23.240  11.525
40647W        W 4580  36.947  35.915  11.905
40648W        W 4581  14.191   0.393  14.937
40649W        W 4582  38.041   2.374  13.977
40650W        W 4583  24.032  27.038   3.853
40651W        W 4584  24.071  26.151  12.830
40652W        W 4585  19.221   3.826  13.343
40653W        W 4586  11.372  19.102  11.596
40654W        W 4587  43.463   7.776   1.356
40655W        W 4588  25.177  29.984   0.823
40656W        W 4589  24.709  34.072  12.010
40657W        W 4590  44.987  38.474   2.876
40658W        W 4591  19.702  10.362   5.188
40659W        W 4592  44.838  13.820   3.662
40660W        W 4593   2.416  12.626   4.222
40661W        W 4594  37.395  14.202  13.043
40662W        W 4595  37.932  26.665  12.053
40663W        W 4596  37.000  21.158  14.410
40664W        W 4597  30.589  40.357   4.684
40665W        W 4598  19.636  28.554   0.813
40666W        W 4599  35.372  21.105   1.807
40667W        W 4600   9.178  31.505   3.699
40668W        W 4601   8.327  43.938   0.397
40669W        W 4602  12.304   8.390   0.435
40670W        W 4603  33.074  34.970   2.339
40671W        W 4604  10.762  19.276   2.772
40672W        W 4605  30.649  16.738  14.999
40673W        W 4606  27.014   8.692  14.967
40674W        W 4607   1.388  17.630  11.492
40675W        W 4608  33.617  22.583   4.309
40676W        W 4609  30.559  20.230  12.085
40677W        W 4610  31.053  36.394   3.286
40678W        W 4611   6.407  30.116   2.683
40679W        W 4612  43.415  25.025   0.251
40680W        W 4613   5.269   7.234   1.392
40681W        W 4614  42.781  39.523  12.441
40682W        W 4615   4.385   8.283   2.181
40683W        W 4616  31.972   2.418  12.957
40684W        W 4617  25.212   7.797   4.739
40685W        W 4618  38.328  33.933  12.571
40686W        W 4619  15.253  30.492   4.809
40687W        W 4620   1.925  35.883   1.210
40688W        W 4621   9.254   8.831  12.950
40689W        W 4622  35.042   6.775   3.233
40690W        W 4623  32.999  37.569  10.505
40691W        W 4624  24.155  13.210   4.185
40692W        W 4625  37.857  28.078   2.786
40693W        W 4626  38.065  29.120   2.846
40694W        W 4627  12.256  15.197   1.382
40695W        W 4628  21.235  44.350  13.519
40696W        W 4629  25.597  36.033   2.756
40697W        W 4630  25.120  22.045   1.444
40698W        W 4631  19.776  33.904   4.768
40699W        W 4632  22.073  11.728   3.865
40700W        W 4633  22.035  26.607   0.874
40701W        W 4634   8.395   4.435   4.224
40702W        W 4635  41.459  37.062   1.732
40703W        W 4636  36.934  41.924   0.935
40704W        W 4637  17.686  19.555  11.518
40705W        W 4638  14.305  41.470   3.680
40706W        W 4639   7.368  21.660   1.826
40707W        W 4640  28.145  31.938   0.964
40708W        W 4641  38.866  16.119  12.522
40709W        W 4642  38.918  25.623  14.370
40710W        W 4643  41.853  34.598  13.811
40711W        W 4644  30.474  25.089  11.098
40712W        W 4645  30.937  31.047   1.294
40713W        W 4646  13.346  10.352   2.387
40714W        W 4647  28.046  31.432  14.988
40715W        W 4648   9.260  42.308   4.315
40716W        W 4649  25.645  37.832  11.061
40717W        W 4650  44.764  19.595   3.154
40718W        W 4651   6.902   5.401   3.742
40719W        W 4652  25.213  34.584   1.931
40720W        W 4653  13.328  20.661   3.756
40721W        W 4654   8.730   2.910   5.202
40722W        W 4655  40.396  44.261   1.387
40723W        W 4656  17.640  20.049   2.785
40724W        W 4657  26.046  25.713   4.293
40725W        W 4658  25.151  22.579  10.431
40726W        W 4659  12.276   3.857  14.354
40727W        W 4660  24.007   1.779   3.319
40728W        W 4661   9.670  42.892  13.972
40729W        W 4662   0.933  28.968  14.871
40730W        W 4663  35.402  23.717  10.899
40731W        W 4664  42.448   9.791  12.070
40732W        W 4665  15.300  20.049  14.791
40733W        W 4666  27.043  14.211   3.209
40734W        W 4667  26.131  35.592   1.726
40735W        W 4668  25.122  19.274   3.224
40736W        W 4669   8.378  14.227   0.308
40737W        W 4670  35.396  21.546  14.911
40738W        W 4671  32.523  16.755   1.853
40739W        W 4672  33.966   6.750  12.890
40740W        W 4673  26.564  11.653  11.561
40741W        W 4674  10.869  38.450   0.461
40742W        W 4675  41.327  10.143  11.936
40743W        W 4676   9.378   6.209   3.806
40744W        W 4677   2.928  12.808   0.864
40745W        W 4678  15.796   8.666   1.214
40746W        W 4679   1.363  24.639  14.364
40747W        W 4680  11.227  18.190   1.254
40748W        W 4681  26.024  41.354  14.987
40749W        W 4682  28.118  15.718  10.159
40750W        W 4683  29.015   6.684   0.956
40751W        W 4684  41.461  16.273   0.463
40752W        W 4685  30.529   7.214   4.764
40753W        W 4686  24.007  44.936  10.994
40754W        W 4687  34.415  31.016   3.786
40755W        W 4688  28.591  26.468  11.864
40756W        W 4689  19.653  17.624   2.220
40757W        W 4690  20.557  44.800   2.697
40758W        W 4691  30.560  17.233   0.387
40759W        W 4692   6.249  37.896  11.592
40760W        W 4693   7.906  15.136   2.754
40761W        W 4694  14.137  15.588  11.424
40762W        W 4695  22.235  15.317   1.843
40763W        W 4696  38.498   9.200  14.514
40764W        W 4697  34.892  41.834   2.274
40765W        W 4698  22.661  33.454   3.324
40766W        W 4699  16.317  11.744  12.489
40767W        W 4700  39.415   7.415   0.807
40768W        W 4701  18.788  27.968  11.577
40769W        W 4702  22.099  17.188  10.920
40770W        W 4703  29.651  19.278   2.416
40771W        W 4704   9.316  17.196   1.727
40772W        W 4705  39.860  22.062   2.778
40773W        W 4706  35.566  30.970   1.799
40774W        W 4707  23.121  12.322  14.783
40775W        W 4708  44.811  22.225   2.371
40776W        W 4709   2.408  39.816  11.476
40777W        W 4710   3.714   8.759   3.274
40778W        W 4711   5.273  29.991   1.844
40779W        W 4712  18.702   8.384   2.872
40780W        W 4713   9.840  11.684  11.596
40781W        W 4714  15.738  44.783  13.447
40782W        W 4715  26.137  31.533   3.757
40783W        W 4716   4.776  11.254   4.120
40784W        W 4717  35.880  27.556   4.695
40785W        W 4718  18.710  43.877   2.771
40786W        W 4719  37.432  10.180   3.701
40787W        W 4720  27.152  40.808   2.303
40788W        W 4721  32.552   6.772  13.992
40789W        W 4722  16.156  10.790   3.188
40790W        W 4723   1.950  20.556   0.772
40791W        W 4724  41.538  14.714   0.327
40792W        W 4725  39.884  30.990   1.934
40793W        W 4726   5.235  32.630  14.446
40794W        W 4727   8.217  13.105   4.694
40795W        W 4728  40.996   5.415   4.150
40796W        W 4729  24.532   2.954   2.254
40797W        W 4730  19.231  43.886  11.435
40798W        W 4731  13.202  15.639  14.966
40799W        W 4732  43.855  37.389  10.950
40800W        W 4733  11.728   6.711  14.840
40801W        W 4734  44.310  42.513   3.375
40802W        W 4735  26.637  22.732  12.095
40803W        W 4736  37.394  30.097  12.046
40804W        W 4737  26.995  32.395   2.822
40805W        W 4738  32.416   6.355  11.528
40806W        W 4739  35.428   6.311  14.942
40807W        W 4740  22.622  20.045  10.960
40808W        W 4741   8.376   2.457   3.341
40809W        W 4742   9.812  20.140   2.861
40810W        W 4743   2.319  18.585   4.285
40811W        W 4744  39.863  27.665  14.817
40812W        W 4745   2.753  32.033  11.015
40813W        W 4746  42.413  27.041  14.950
40814W        W 4747  42.436   6.852   3.864
40815W        W 4748  29.481  37.040  13.976
40816W        W 4749  13.281  22.095   3.680
40817W        W 4750   7.711   0.265   3.664
40818W        W 4751  32.406  37.864  14.988
40819W        W 4752  42.949  26.172  12.445
40820W        W 4753  18.122  42.513  12.879
40821W        W 4754  14.799  21.063   1.371
40822W        W 4755  33.599  25.713  14.951
40823W        W 4756  34.929  21.064  11.381
40824W        W 4757  44.368   8.896  13.446
40825W        W 4758  30.012   9.819   3.281
40826W        W 4759  41.532  43.380  14.868
40827W        W 4760  26.951   6.318  13.906
40828W        W 4761  32.615  39.871   4.700
40829W        W 4762   6.773  20.569   3.640
40830W        W 4763  14.147  26.617  11.057
40831W        W 4764  42.453  11.771  14.355
40832W        W 4765   0.967   2.852  13.332
40833W        W 4766  10.194   1.860  11.450
40834W        W 4767  36.441  21.164  14.800
40835W        W 4768  43.830  21.185  12.385
40836W        W 4769  16.750  28.643   5.248
40837W        W 4770  16.111  40.889  13.062
40838W        W 4771  33.505  40.959  10.904
40839W        W 4772   8.290  37.984  14.512
40840W        W 4773  18.747  34.378   5.087
40841W        W 4774  41.384   1.813  14.358
40842W        W 4775  16.689  35.046  11.469
40843W        W 4776  35.087   1.786  13.989
40844W        W 4777  27.574  26.051   2.872
40845W        W 4778   2.906  13.636   3.657
40846W        W 4779  18.755  17.158   2.243
40847W        W 4780   0.377  22.031   4.828
40848W        W 4781   0.802  13.176   5.236
40849W        W 4782  29.444  38.865  10.559
40850W        W 4783  12.643  22.043  10.908
40851W        W 4784  22.520   7.344   3.669
40852W        W 4785  11.246   1.304   3.367
40853W        W 4786  12.692  21.093   1.816
40854W        W 4787  20.661   2.849  13.015
40855W        W 4788  40.533  37.556   1.849
40856W        W 4789  42.341  13.700   1.725
40857W        W 4790  34.994  30.942  14.426
40858W        W 4791  24.591  11.212   4.136
40859W        W 4792   6.301  34.079  14.323
40860W        W 4793  29.157  33.475  14.780
40861W        W 4794  43.334  23.529  14.884
40862W        W 4795   4.747  33.118  10.607
40863W        W 4796  28.594  41.996   3.808
40864W        W 4797   7.357  31.461  11.426
40865W        W 4798  26.576  22.570   4.312
40866W        W 4799  13.295  15.132  10.925
40867W        W 4800  33.387  26.552  10.135
40868W        W 4801  17.114   4.351  12.867
40869W        W 4802  32.010  35.052   1.354
40870W        W 4803   1.248  30.011  12.840
40871W        W 4804  18.171  13.343  10.966
40872W        W 4805  26.663   7.364   2.369
40873W        W 4806   9.737  29.614  13.915
40874W        W 4807   1.408  41.422  14.415
40875W        W 4808  19.174  34.521   4.257
40876W        W 4809  43.299  18.576  11.041
40877W        W 4810  11.696  41.007   0.440
40878W        W 4811  42.448  44.278  11.397
40879W        W 4812  36.015  26.043   2.310
40880W        W 4813   7.247   2.760   4.173
40881W        W 4814  41.424  42.514  14.988
40882W        W 4815   9.780  24.531   2.373
40883W        W 4816  10.839  36.022   4.785
40884W        W 4817  16.253  43.424   3.311
40885W        W 4818   7.192  11.643  10.934
40886W        W 4819  43.411  14.264  11.520
40887W        W 4820  37.869  37.880   0.865
40888W        W 4821  22.118   8.279  14.807
40889W        W 4822   5.432  30.133   2.731
40890W        W 4823  35.549  31.635  13.902
40891W        W 4824   1.409  19.166   0.468
40892W        W 4825  20.189  11.768   3.836
40893W        W 4826  19.076  10.780  11.864
40894W        W 4827  40.913  18.757  14.941
40895W        W 4828  25.976  43.833   2.671
40896W        W 4829  43.503  44.880   0.912
40897W        W 4830  38.054  26.088   2.215
40898W        W 4831  43.330  20.528  11.974
40899W        W 4832   2.728  17.239  10.591
40900W        W 4833  12.797  33.510  10.965
40901W        W 4834  41.883  10.258  10.948
40902W        W 4835  39.315  44.402   1.316
40903W        W 4836  43.463  35.011  11.392
40904W        W 4837  10.828  33.012   3.338
40905W        W 4838   2.854  41.445   2.777
40906W        W 4839  20.144  32.918  13.521
40907W        W 4840  13.244  29.066  13.433
40908W        W 4841  25.067  12.148   2.350
40909W        W 4842   8.680  15.592  12.851
40910W        W 4843  15.658   3.911  13.339
40911W        W 4844  30.637  21.728   3.343
40912W        W 4845  38.418  38.392   0.869
40913W        W 4846  16.684  34.376  14.505
40914W        W 4847   2.298   1.839  11.572
40915W        W 4848  26.563   8.695  14.972
40916W        W 4849   8.840   4.707   2.386
40917W        W 4850   3.853  23.691  10.916
40918W        W 4851  42.927  16.741   1.862
40919W        W 4852   2.402  15.743  13.831
40920W        W 4853  42.516   3.319   0.459
40921W        W 4854  28.957  38.950  13.484
40922W        W 4855  10.804  26.038   3.252
40923W        W 4856  23.711   6.803   0.281
40924W        W 4857  10.831  41.892   4.138
40925W        W 4858  26.689  37.452  13.038
40926W        W 4859  36.955  38.015  14.862
40927W        W 4860  40.498  35.018   3.181
40928W        W 4861  40.894  19.160  11.959
40929W        W 4862  17.242  40.364   9.964
40930W        W 4863   9.269  12.281  14.017
40931W        W 4864  33.578  29.560   4.716
40932W        W 4865  40.952  40.921  12.009
40933W        W 4866  24.204   5.425  14.792
40934W        W 4867  33.489  24.681  14.000
40935W        W 4868  39.376  21.673   0.811
40936W        W 4869   1.433  23.534  14.345
40937W        W 4870  19.224  36.961   0.467
40938W        W 4871  36.999  30.641   0.396
40939W        W 4872   0.772  33.503  13.540
40940W        W 4873  14.200  33.088  13.031
40941W        W 4874  32.974  26.127  12.937
40942W        W 4875  35.459   3.864  12.403
40943W        W 4876  15.153  36.027  11.605
40944W        W 4877  19.725   0.255   4.233
40945W        W 4878  11.666   6.845   1.340
40946W        W 4879  30.124  23.145  10.610
40947W        W 4880  29.571  17.080  11.417
40948W        W 4881   1.936  33.126  10.940
40949W        W 4882  44.897  13.836  14.401
40950W        W 4883  22.182  16.610   2.889
40951W        W 4884  23.679   4.907  14.385
40952W        W 4885  23.186  23.020  14.411
40953W        W 4886  28.010  27.662  12.521
40954W        W 4887  32.023  23.095   0.764
40955W        W 4888   1.932   2.252   1.383
40956W        W 4889  27.591  18.162   2.895
40957W        W 4890  23.723  39.857  10.593
40958W        W 4891  43.427  23.076   4.153
40959W        W 4892  40.880  32.132  14.405
40960W        W 4893   4.279   1.475   2.747
40961W        W 4894  22.204  36.584  12.520
40962W        W 4895  17.792  41.293   2.246
40963W        W 4896  38.839  43.446  12.486
40964W        W 4897  25.684   9.801   9.925
40965W        W 4898  26.984  22.096   2.282
40966W        W 4899  44.301  40.363  14.408
40967W        W 4900  33.985   1.768  14.835
40968W        W 4901  33.500  29.593   1.354
40969W        W 4902  26.001   8.168   2.755
40970W        W 4903  34.483   5.861  11.051
40971W        W 4904  39.477  29.924   2.343
40972W        W 4905  35.551  33.057   4.335
40973W        W 4906   3.389  30.005  11.481
40974W        W 4907  40.425   9.185   0.871
40975W        W 4908  23.593  22.205   3.354
40976W        W 4909  31.591   7.691  13.422
40977W        W 4910  22.153  12.225  10.571
40978W        W 4911  30.005  10.309   4.343
40979W        W 4912  21.213   4.292   9.933
40980W        W 4913  17.591  33.380  12.849
40981W        W 4914  29.050  31.982   1.842
40982W        W 4915  14.821  37.473   5.287
40983W        W 4916  23.216  29.583   0.924
40984W        W 4917   7.878  29.581  13.889
40985W        W 4918  44.480  33.431   3.346
40986W        W 4919  26.051  20.186   1.408
40987W        W 4920   2.851   7.361  11.592
40988W        W 4921  24.623  15.222   0.849
40989W        W 4922  15.232  33.528  12.018
40990W        W 4923   2.334  18.744  12.083
40991W        W 4924  28.983  30.565   1.340
40992W        W 4925  27.191   2.322  13.538
40993W        W 4926  40.902  23.680   3.781
40994W        W 4927   7.727  26.623   3.849
40995W        W 4928  14.190  12.630   2.715
40996W        W 4929  25.536  42.918   2.861
40997W        W 4930  30.546   5.705   1.806
40998W        W 4931   2.770  18.277   3.365
40999W        W 4932   3.425  34.940   4.222
41000W        W 4933  34.534  12.167   4.176
41001W        W 4934   3.886   3.261   2.412
41002W        W 4935  11.353   7.751  12.526
41003W        W 4936  14.275  16.189  11.925
41004W        W 4937  44.362  24.540  14.485
41005W        W 4938  22.745  25.589  12.510
41006W        W 4939  24.100  16.125   4.811
41007W        W 4940  32.551   7.284   2.842
41008W        W 4941  42.338  26.564   1.219
41009W        W 4942  23.683  18.102   3.658
41010W        W 4943  15.577  25.601   1.718
41011W        W 4944   9.299   3.376   2.876
41012W        W 4945  32.617  22.668   1.448
41013W        W 4946  37.570  29.026  10.996
41014W        W 4947  28.944  13.108   3.194
41015W        W 4948  26.669   1.775   2.395
41016W        W 4949  15.808  23.105  14.981
41017W        W 4950   5.705  40.506   2.351
41018W        W 4951  12.724  12.731   2.391
41019W        W 4952  25.637  31.486  13.533
41020W        W 4953  43.990  38.445   3.265
41021W        W 4954  21.724   8.363   4.318
41022W        W 4955  21.095  10.237  14.791
41023W        W 4956  12.266  43.933   0.280
41024W        W 4957  14.096   0.785  10.943
41025W        W 4958   2.781  42.434   3.719
41026W        W 4959  29.595  40.977  13.346
41027W        W 4960  43.346  10.235   2.188
41028W        W 4961  36.036  28.036  14.913
41029W        W 4962  20.585  28.095  14.387
41030W        W 4963  26.574  35.878   0.935
41031W        W 4964  44.931  24.516  11.417
41032W        W 4965   1.363   5.847   3.300
41033W        W 4966  24.714   6.746   0.882
41034W        W 4967  27.083  39.890  11.085
41035W        W 4968  19.169  34.556   2.284
41036W        W 4969  29.505  28.568   1.224
41037W        W 4970  20.573  13.768  14.305
41038W        W 4971  38.549  22.583   2.830
41039W        W 4972  17.230  26.156  13.872
41040W        W 4973  36.096  27.632  11.990
41041W        W 4974  11.306  22.656   2.296
41042W        W 4975   5.770  36.849   1.386
41043W        W 4976  34.424  33.567   1.409
41044W        W 4977  14.268  25.482  10.541
41045W        W 4978   2.728  19.251  10.434
41046W        W 4979  37.042  41.351   0.841
41047W        W 4980  17.651  34.942  12.569
41048W        W 4981   8.393  19.209   3.214
41049W        W 4982   9.849   3.763  12.002
41050W        W 4983  30.081  23.611   0.924
41051W        W 4984  31.075  10.153  13.877
41052W        W 4985   2.881  20.665  12.408
41053W        W 4986  42.837  31.631   0.331
41054W        W 4987  24.682  32.569   0.944
41055W        W 4988   1.475  30.579  13.429
41056W        W 4989   8.878  11.788  13.405
41057W        W 4990  25.561  37.859  11.999
41058W        W 4991  30.434   5.275   1.387
41059W        W 4992  27.189  28.511   4.742
41060W        W 4993  32.607  17.669   1.250
41061W        W 4994  30.046  33.486  13.508
41062W        W 4995  14.214   9.728   3.335
41063W        W 4996  13.621  15.719   1.725
41064W        W 4997  23.204   8.186   1.865
41065W        W 4998  13.201  19.169  14.943
41066W        W 4999  42.868  20.173  13.503
41067W        W 5000   8.856   7.708  11.034
41068W        W 5001   4.867   7.749   2.694
41069W        W 5002  43.865   3.367   0.808
41070W        W 5003  16.140  42.342   1.859
41071W        W 5004  42.523  26.477   4.623
41072W        W 5005  24.982  40.826   4.828
41073W        W 5006  33.615   0.755  10.903
41074W        W 5007  11.830  38.010   9.970
41075W        W 5008  24.575   4.414  12.517
41076W        W 5009   2.916  24.071   4.351
41077W        W 5010  38.455  14.812   3.236
41078W        W 5011  15.129   7.805   3.668
41079W        W 5012  10.162  41.981  14.841
41080W        W 5013   1.895  33.099  14.974
41081W        W 5014   5.435  29.962  12.010
41082W        W 5015  13.179  18.642  13.917
41083W        W 5016  18.689  36.575   3.863
41084W        W 5017  19.626  28.946  11.471
41085W        W 5018  24.226  28.138   5.184
41086W        W 5019  39.452   2.460   3.318
41087W        W 5020   8.688  12.329   1.358
41088W        W 5021  31.470   2.318  14.329
41089W        W 5022  43.789  20.161   1.249
41090W        W 5023  29.920   1.918   4.237
41091W        W 5024  39.887  25.093   4.132
41092W        W 5025  31.149  23.608  12.576
41093W        W 5026  44.376   4.317  11.941
41094W        W 5027  36.417   4.935   1.910
41095W        W 5028  24.139   5.306   4.352
41096W        W 5029  34.109  40.369   0.947
41097W        W 5030  37.916   9.191   2.382
41098W        W 5031  38.534   2.372  14.413
41099W        W 5032  16.772   3.243  11.372
41100W        W 5033  30.432  17.781   3.208
41101W        W 5034   3.723  28.641   2.240
41102W        W 5035  43.338   0.746  11.396
41103W        W 5036   6.212   4.930   5.089
41104W        W 5037  37.896   2.392  14.838
41105W        W 5038  10.240  10.162  11.991
41106W        W 5039   5.754   8.888  10.544
41107W        W 5040  43.490  16.131  14.418
41108W        W 5041   3.376  19.633   0.888
41109W        W 5042   5.898  14.589   2.742
41110W        W 5043  18.117  13.199   0.953
41111W        W 5044  15.628  10.288  11.428
41112W        W 5045  34.023  30.929  13.930
41113W        W 5046   5.275  18.177  13.461
41114W        W 5047  34.898  11.162  11.475
41115W        W 5048  35.894  40.873   1.726
41116W        W 5049  42.960  37.868   3.347
41117W        W 5050  18.577   5.899  13.368
41118W        W 5051   0.865  16.279   0.920
41119W        W 5052   2.234  40.936  14.370
41120W        W 5053  40.973  34.081   1.918
41121W        W 5054  22.167  18.212   1.396
41122W        W 5055  12.279  42.419   1.725
41123W        W 5056  17.754  24.109   3.275
41124W        W 5057  22.006  25.472  11.028
41125W        W 5058   0.949  41.855  12.390
41126W        W 5059  12.809  37.559  14.885
41127W        W 5060  24.189  15.301   4.264
41128W        W 5061  30.948  31.904   4.146
41129W        W 5062  21.084  18.593   3.713
41130W        W 5063  11.133   7.811   0.921
41131W        W 5064  11.286  40.321  12.531
41132W        W 5065  23.172   8.681  14.941
41133W        W 5066  20.087  33.926   1.407
41134W        W 5067   3.888  15.644   2.661
41135W        W 5068  24.590  38.985  14.868
41136W        W 5069   3.241  13.266   1.832
41137W        W 5070   8.804  27.450   2.704
41138W        W 5071  32.606  35.032  14.343
41139W        W 5072  31.632  10.741   1.844
41140W        W 5073  24.223   2.735  13.966
41141W        W 5074   4.713  42.010  12.465
41142W        W 5075  21.656  25.116  11.092
41143W        W 5076   9.354  29.545   4.834
41144W        W 5077   4.205  44.006  12.948
41145W        W 5078  34.521  25.983   1.826
41146W        W 5079  21.588  34.919   1.855
41147W        W 5080  43.472   0.985   1.278
41148W        W 5081  20.151  15.195  14.483
41149W        W 5082  41.004  35.521   4.606
41150W        W 5083  40.498  43.003  10.090
41151W        W 5084  16.312  10.656  10.507
41152W        W 5085  43.312  19.649   5.288
41153W        W 5086   9.809  14.630  13.408
41154W        W 5087  12.827  41.902   4.334
41155W        W 5088  12.182  16.171   1.721
41156W        W 5089  42.928  44.440   5.298
41157W        W 5090   6.763  39.895   2.691
41158W        W 5091  41.449  28.448   3.644
41159W        W 5092  11.350  23.493  10.516
41160W        W 5093  44.774  41.439   0.267
41161W        W 5094  22.011   2.387   4.349
41162W        W 5095  25.559  35.999   0.851
41163W        W 5096  12.195  34.409   4.699
41164W        W 5097  44.955  23.149  12.431
41165W        W 5098  35.525  43.020   4.269
41166W        W 5099  18.150  41.934  12.061
41167W        W 5100  42.011  34.385  11.055
41168W        W 5101  44.481  44.876   2.224
41169W        W 5102   7.681  12.684  13.946
41170W        W 5103  23.033  19.763  10.433
41171W        W 5104  44.912   9.325  11.523
41172W        W 5105   8.886  29.995  12.514
41173W        W 5106  27.948  11.630   3.826
41174W        W 5107  30.488  26.182   1.312
41175W        W 5108  33.077  35.028  12.878
41176W        W 5109   6.337  35.941   3.639
41177W        W 5110  23.523  34.881   0.481
41178W        W 5111   5.298  31.042   2.693
41179W        W 5112  39.053  15.580   1.397
41180W        W 5113  23.683  22.592   2.850
41181W        W 5114   6.776  32.409  12.567
41182W        W 5115   6.791  34.534  10.410
41183W        W 5116  35.087  39.938   0.921
41184W        W 5117  32.582  34.571   4.807
41185W        W 5118  40.940  28.104  11.417
41186W        W 5119   7.675  44.844   2.373
41187W        W 5120  25.708   4.301  14.483
41188W        W 5121   9.883  32.506   4.290
41189W        W 5122  40.474  22.617  13.446
41190W        W 5123   0.950  31.016   2.744
41191W        W 5124  35.910   4.225   4.676
41192W        W 5125   6.814   9.357   4.116
41193W        W 5126   2.231  10.339  10.491
41194W        W 5127   6.420  36.483  10.447
41195W        W 5128  11.192  34.966   4.645
41196W        W 5129  27.947  19.681   0.385
41197W        W 5130  18.253  22.116   0.407
41198W        W 5131  13.112  31.566   3.194
41199W        W 5132  38.994  12.851   1.253
41200W        W 5133   6.198  16.113  13.917
41201W        W 5134  16.667  40.997  11.434
41202W        W 5135  18.746  24.021  11.989
41203W        W 5136  40.959  10.865  13.392
41204W        W 5137  20.165  37.547  10.894
41205W        W 5138  28.524  19.196  13.798
41206W        W 5139  29.520   8.368  14.341
41207W        W 5140  31.999   8.265  10.982
41208W        W 5141  42.990  42.796   9.944
41209W        W 5142  23.692  24.623   3.753
41210W        W 5143  12.612  40.924   2.392
41211W        W 5144  23.116   5.379   0.771
41212W        W 5145   8.874  38.368   4.784
41213W        W 5146  28.964  13.717  14.030
41214W        W 5147  20.199   5.353   0.431
41215W        W 5148  16.279   1.333  11.569
41216W        W 5149  40.806   0.959   0.786
41217W        W 5150   5.317  33.599  12.923
41218W        W 5151  13.730  32.131  12.571
41219W        W 5152  43.010  20.075   0.860
41220W        W 5153   3.732   5.316  13.042
41221W        W 5154   9.726  25.679  10.932
41222W        W 5155  39.526   7.746   0.936
41223W        W 5156   0.804  38.498   2.385
41224W        W 5157  33.068  15.279  13.406
41225W        W 5158   6.792  34.045   1.697
41226W        W 5159   3.321  36.521  12.946
41227W        W 5160  18.561  31.589  12.472
41228W        W 5161  37.370   7.774  11.936
41229W        W 5162  41.022  34.000   4.138
41230W        W 5163  31.578   4.884  13.394
41231W        W 5164   8.713  42.323   0.926
41232W        W 5165  39.022  14.167   1.732
41233W        W 5166  15.600  20.684  10.923
41234W        W 5167  44.957  25.983  14.310
41235W        W 5168  29.600  12.705  11.127
41236W        W 5169  34.912   8.840  10.024
41237W        W 5170  23.734  36.842  14.303
41238W        W 5171  11.272  33.110  10.496
41239W        W 5172  15.796   7.319  14.910
41240W        W 5173  18.657  15.256  13.843
41241W        W 5174  39.955  10.231   3.860
41242W        W 5175  34.460  20.056   1.825
41243W        W 5176   1.792  37.476   3.848
41244W        W 5177   0.919   6.397  12.004
41245W        W 5178  39.993  44.902   2.768
41246W        W 5179  25.501  15.805  11.937
41247W        W 5180  26.700  40.997   3.271
41248W        W 5181  33.071  12.822  12.515
41249W        W 5182   0.482  15.644   3.302
41250W        W 5183  42.419  44.002  14.793
41251W        W 5184  16.203   3.388   4.735
41252W        W 5185  11.667  20.106  11.415
41253W        W 5186  16.126  32.985   3.382
41254W        W 5187  40.517  41.984   3.201
41255W        W 5188  39.447  19.224   4.212
41256W        W 5189  35.559  16.188  11.951
41257W        W 5190   3.812   8.759   4.166
41258W        W 5191  11.722   8.698   3.694
41259W        W 5192  11.262  25.556  10.404
41260W        W 5193  42.324   6.342   1.880
41261W        W 5194  14.801  27.675  10.967
41262W        W 5195  25.014   5.784  14.359
41263W        W 5196  22.741  28.445  11.459
41264W        W 5197  10.167  19.641   3.149
41265W        W 5198   7.796   6.854   4.158
41266W        W 5199  32.508   8.767   0.244
41267W        W 5200  14.285  38.998  13.317
41268W        W 5201   6.914  12.187   2.293
41269W        W 5202  17.585  14.729  11.473
41270W        W 5203  41.446  23.660  12.340
41271W        W 5204   8.160  33.931  14.485
41272W        W 5205  35.006  37.032  14.931
41273W        W 5206  20.768  35.996  13.979
41274W        W 5207  34.534  13.834  11.033
41275W        W 5208   0.459  40.006   0.952
41276W        W 5209  12.207  34.091  13.326
41277W        W 5210   3.231   9.704  14.511
41278W        W 5211  23.991  24.060   0.939
41279W        W 5212  13.344   0.814  12.432
41280W        W 5213  41.350  31.580  10.466
41281W        W 5214  35.445  15.815   4.749
41282W        W 5215  42.386   9.846   1.295
41283W        W 5216  25.475  23.709   0.880
41284W        W 5217  16.638   3.841  13.515
41285W        W 5218  24.590  13.745   4.264
41286W        W 5219  30.573  44.860  13.946
41287W        W 5220  19.712  31.080   4.693
41288W        W 5221   1.286  14.312  13.876
41289W        W 5222  38.839  19.126   3.806
41290W        W 5223  30.492  15.798  10.417
41291W        W 5224   9.724  26.654   0.346
41292W        W 5225  28.041  25.524  14.817
41293W        W 5226   0.870  25.565   1.399
41294W        W 5227  33.384   3.450  11.098
41295W        W 5228  17.236   5.755  12.032
41296W        W 5229   9.741  31.012  13.526
41297W        W 5230   7.736  37.931  14.296
41298W        W 5231   3.768   3.950  13.821
41299W        W 5232  41.036  15.151  13.989
41300W        W 5233   7.375  24.650  11.496
41301W        W 5234  40.865  12.662  11.119
41302W        W 5235  32.990  10.746  14.278
41303W        W 5236  39.024   1.452  11.507
41304W        W 5237  39.467   6.354  10.460
41305W        W 5238  44.814  42.819   2.360
41306W        W 5239  13.200  17.192  12.954
41307W        W 5240  42.877  21.245  13.433
41308W        W 5241  24.977  31.104  12.089
41309W        W 5242  42.361  18.119   0.410
41310W        W 5243  19.662   8.851  10.116
41311W        W 5244  30.111  30.035  14.025
41312W        W 5245  28.078  18.769   4.820
41313W        W 5246   2.263   3.372  11.862
41314W        W 5247  23.201  43.468  11.040
41315W        W 5248   3.242  10.697   4.158
41316W        W 5249  14.835  42.935  14.477
41317W        W 5250  13.218  25.027  13.391
41318W        W 5251   0.290   2.917  11.534
41319W        W 5252   7.184  11.795   2.312
41320W        W 5253  10.692   9.361  11.397
41321W        W 5254  25.040   9.342  14.362
41322W        W 5255  10.176  25.616  12.877
41323W        W 5256  41.852  32.485   4.170
41324W        W 5257   3.725  17.087  10.415
41325W        W 5258   7.322  32.076  13.933
41326W        W 5259  30.943  11.727   4.135
41327W        W 5260  10.725  24.168   3.838
41328W        W 5261  17.194   7.712   4.625
41329W        W 5262   8.849  21.685   4.239
41330W        W 5263   9.665  19.632  14.950
41331W        W 5264  33.971  34.410  14.405
41332W        W 5265  28.576   9.395  13.385
41333W        W 5266  25.622  22.220   4.250
41334W        W 5267   1.843  11.640  14.367
41335W        W 5268   8.228   9.168   3.282
41336W        W 5269   2.925  22.710  13.427
41337W        W 5270  44.373  33.045  13.512
41338W        W 5271   9.337  12.234   1.914
41339W        W 5272   4.410  30.008   1.401
41340W        W 5273   5.902  38.480   2.308
41341W        W 5274  11.306  23.994   2.871
41342W        W 5275   7.834   5.348  10.937
41343W        W 5276  33.982  30.631   3.362
41344W        W 5277  44.929  41.928  13.929
41345W        W 5278  40.361   7.282  13.354
41346W        W 5279   0.948  14.629  12.473
41347W        W 5280  16.732  43.312  11.087
41348W        W 5281  37.024   2.366   1.346
41349W        W 5282  32.565  11.196   2.396
41350W        W 5283   6.299  29.934   1.726
41351W        W 5284   2.276   1.738   2.319
41352W        W 5285  12.133  15.766   3.269
41353W        W 5286   5.426  44.891  14.453
41354W        W 5287   7.911  27.674  12.492
41355W        W 5288  31.995   3.760   2.249
41356W        W 5289  13.665   9.715   0.758
41357W        W 5290   9.791  44.499  14.373
41358W        W 5291   4.397   7.336   2.824
41359W        W 5292  22.081  11.803   0.886
41360W        W 5293  42.825  12.345   2.310
41361W        W 5294   5.316  22.575   3.780
41362W        W 5295  35.040   5.374  10.591
41363W        W 5296  15.666   9.337   1.791
41364W        W 5297  19.044  12.156   0.379
41365W        W 5298  30.119  42.475  14.308
41366W        W 5299  39.984   5.821  10.593
41367W        W 5300  16.162  22.032   0.949
41368W        W 5301  31.494  36.519   2.178
41369W        W 5302  23.208   9.355  14.764
41370W        W 5303  33.501  19.100  12.000
41371W        W 5304  30.936   0.816   1.407
41372W        W 5305  29.973  41.949  12.937
41373W        W 5306  27.622  37.375  10.907
41374W        W 5307  27.583  42.898   5.209
41375W        W 5308  24.032  28.027   1.434
41376W        W 5309  23.043  18.132  12.056
41377W        W 5310  32.631  17.742   4.778
41378W        W 5311  33.120  13.131   4.782
41379W        W 5312  35.373  30.618   0.731
41380W        W 5313  10.760   9.211   0.813
41381W        W 5314  36.037  19.166   4.311
41382W        W 5315  18.194  20.042  13.993
41383W        W 5316  34.121  15.818   0.296
41384W        W 5317  31.909  22.552  12.069
41385W        W 5318  23.091  31.611   3.189
41386W        W 5319  41.789  16.703   3.842
41387W        W 5320  37.524  39.400  13.447
41388W        W 5321   6.215  12.785  10.088
41389W        W 5322  22.116  27.070  13.474
41390W        W 5323  23.538  25.550  14.949
41391W        W 5324  12.221  41.338   1.298
41392W        W 5325  38.383  44.997   1.745
41393W        W 5326  13.706  39.955  12.451
41394W        W 5327  10.345  24.652   4.687
41395W        W 5328  21.533  13.750   2.414
41396W        W 5329  28.625  35.460   2.902
41397W        W 5330   9.812  16.724  13.410
41398W        W 5331  34.927   3.728   4.188
41399W        W 5332   4.327  14.289  11.447
41400W        W 5333  19.632  35.880   4.353
41401W        W 5334  41.334  42.840   1.379
41402W        W 5335  35.447   6.246   0.273
41403W        W 5336   4.390  40.051  13.956
41404W        W 5337  41.844  40.379  11.426
41405W        W 5338  10.645   1.827  11.564
41406W        W 5339   0.800  32.403  12.363
41407W        W 5340  40.436  38.845   3.651
41408W        W 5341   5.346  33.596  11.889
41409W        W 5342  29.506   9.302  13.019
41410W        W 5343  37.909  25.662   4.286
41411W        W 5344  31.037   7.696  14.776
41412W        W 5345  26.632  44.477   0.282
41413W        W 5346  36.987  17.636   0.347
41414W        W 5347  24.505  44.797  13.515
41415W        W 5348  26.066  27.103   3.339
41416W        W 5349  11.340  37.052  12.842
41417W        W 5350  30.964  13.797  13.410
41418W        W 5351  35.429   6.198   2.410
41419W        W 5352  13.616  10.650  11.942
41420W        W 5353  20.547  44.291  11.085
41421W        W 5354  15.799  16.756  11.499
41422W        W 5355  16.285  29.087  11.915
41423W        W 5356  26.974  39.319   2.829
41424W        W 5357  19.660  35.577  11.886
41425W        W 5358  20.044  30.625   3.156
41426W        W 5359  35.893  32.083   3.862
41427W        W 5360  16.613  34.094  14.873
41428W        W 5361   7.387  30.626  12.376
41429W        W 5362  39.922  33.882  11.031
41430W        W 5363   6.425  37.830  10.584
41431W        W 5364  21.540  14.330   3.353
41432W        W 5365   8.350  39.362   4.334
41433W        W 5366   4.435  32.966  12.506
41434W        W 5367   3.855  33.910  12.918
41435W        W 5368  22.140  16.635   4.722
41436W        W 5369   8.878  28.168  12.481
41437W        W 5370  29.593  26.000   1.426
41438W        W 5371  35.971  36.590  12.432
41439W        W 5372  42.924  37.955   2.410
41440W        W 5373  37.025   5.724   0.833
41441W        W 5374  16.190   3.886  12.381
41442W        W 5375  19.746  24.699  10.943
41443W        W 5376  32.632  15.110  14.407
41444W        W 5377  24.519  30.595   1.401
41445W        W 5378  14.286  27.593  14.887
41446W        W 5379  13.284  43.881   0.481
41447W        W 5380  19.247  24.598   3.788
41448W        W 5381  16.245  40.368   4.143
41449W        W 5382   8.708  42.821  10.898
41450W        W 5383  42.429  12.745   1.387
41451W        W 5384  33.039  13.123   2.879
41452W        W 5385   8.384  39.974  11.973
41453W        W 5386  26.467   9.337  11.378
41454W        W 5387  39.497  23.541  14.849
41455W        W 5388  17.769  43.961  10.440
41456W        W 5389  11.839  25.147   5.105
41457W        W 5390  23.640  41.329   4.176
41458W        W 5391  38.332  19.762   2.395
41459W        W 5392  39.388  20.723  11.911
41460W        W 5393  30.983   7.730  12.426
41461W        W 5394   6.714  36.986   1.339
41462W        W 5395  27.561  36.880   1.867
41463W        W 5396  22.166  19.696   4.164
41464W        W 5397  23.676  27.173  14.285
41465W        W 5398   0.839  10.159   5.232
41466W        W 5399  29.937   6.872   2.877
41467W        W 5400  35.048   2.752  12.884
41468W        W 5401  13.785  31.924  13.317
41469W        W 5402  37.340  23.600   1.880
41470W        W 5403  35.549   4.807   2.186
41471W        W 5404  42.457  29.055   4.700
41472W        W 5405  33.517  21.162   0.736
41473W        W 5406   6.289  11.856  10.107
41474W        W 5407  44.958  40.336   2.824
41475W        W 5408  21.140  43.388  14.919
41476W        W 5409  14.776  26.590   0.764
41477W        W 5410  39.376  44.906  14.861
41478W        W 5411  32.946  20.678   2.217
41479W        W 5412  39.330  40.383  12.531
41480W        W 5413  40.920  28.566   3.236
41481W        W 5414   0.802  31.935  13.463
41482W        W 5415   6.398  44.883  14.437
41483W        W 5416  44.456   4.709  10.547
41484W        W 5417  40.952  36.098   1.244
41485W        W 5418  42.840  17.073   3.692
41486W        W 5419  21.671  23.638  14.976
41487W        W 5420  24.604  40.835   0.251
41488W        W 5421  14.141   1.300  13.352
41489W        W 5422  34.507   3.341  11.010
41490W        W 5423   6.251   8.240  13.994
41491W        W 5424  30.434  31.131   1.931
41492W        W 5425  22.250   0.250   3.180
41493W        W 5426  44.900  29.430  10.509
41494W        W 5427   9.690   2.436   2.799
41495W        W 5428  19.076  13.807  14.980
41496W        W 5429  34.082  36.923  10.564
41497W        W 5430  21.098  21.235   3.170
41498W        W 5431  25.580  22.571   0.763
41499W        W 5432   1.338  39.061  11.489
41500W        W 5433  17.705  16.675   4.278
41501W        W 5434   9.201  22.146   0.895
41502W        W 5435  10.821  40.367  11.452
41503W        W 5436  19.649   6.246  13.926
41504W        W 5437  32.543  22.537  13.892
41505W        W 5438  38.822  33.527  13.405
41506W        W 5439  41.382   9.317  13.904
41507W        W 5440  40.513  37.892   3.174
41508W        W 5441  10.826  18.112   4.811
41509W        W 5442  19.063  35.930   2.352
41510W        W 5443   9.343  32.041  11.585
41511W        W 5444  10.750  11.681   4.173
41512W        W 5445  43.504  25.577  12.931
41513W        W 5446  41.453  11.838  14.336
41514W        W 5447  15.680  40.476  12.363
41515W        W 5448   9.247   2.841   4.783
41516W        W 5449   0.966  14.160   1.451
41517W        W 5450   3.950   2.337   1.442
41518W        W 5451   2.951  15.236  10.122
41519W        W 5452  40.911  30.487  13.939
41520W        W 5453  41.814  22.589  14.008
41521W        W 5454  33.928  33.599  12.922
41522W        W 5455   8.224  24.479  14.350
41523W        W 5456  34.607  40.931  14.379
41524W        W 5457  19.136  36.536  13.830
41525W        W 5458  39.531  36.079   4.286
41526W        W 5459  14.183  30.582  14.323
41527W        W 5460  15.819  27.065  10.980
41528W        W 5461  28.654  16.808   3.188
41529W        W 5462  29.076  42.955   0.812
41530W        W 5463  26.599  40.857   4.209
41531W        W 5464  34.913  42.866  12.564
41532W        W 5465  11.256  41.458   4.685
41533W        W 5466  32.515  29.434  14.029
41534W        W 5467   0.370  29.152   0.784
41535W        W 5468  27.515   1.298   0.885
41536W        W 5469  38.502   7.762  12.455
41537W        W 5470  29.625   8.256  10.915
41538W        W 5471  26.013  41.816  11.490
41539W        W 5472  31.012  26.583   4.634
41540W        W 5473  15.216  36.453  13.348
41541W        W 5474  26.457  16.135  11.080
41542W        W 5475  30.464  10.811  14.302
41543W        W 5476  17.758  30.424  13.892
41544W        W 5477  37.543  16.121  13.467
41545W        W 5478  28.669  15.267  11.900
41546W        W 5479   3.302  37.454   5.317
41547W        W 5480  26.166  30.099  14.412
41548W        W 5481  40.918  44.908  11.589
41549W        W 5482  11.301  42.943  14.480
41550W        W 5483  36.089  24.117   1.856
41551W        W 5484  10.200  28.999  13.461
41552W        W 5485   2.880  36.544  10.543
41553W        W 5486   7.285   5.838   4.277
41554W        W 5487  31.621  19.200  13.311
41555W        W 5488  36.935  36.920   4.325
41556W        W 5489  21.026  33.588   2.243
41557W        W 5490  33.555  34.523  14.370
41558W        W 5491  14.650  22.645  14.028
41559W        W 5492  44.288  42.325  10.577
41560W        W 5493  21.117  11.721  11.052
41561W        W 5494  11.265   1.389  13.029
41562W        W 5495  26.583  38.993   2.849
41563W        W 5496  39.823  28.109   4.604
41564W        W 5497  21.051   0.982   0.285
41565W        W 5498  33.622  24.695  14.910
41566W        W 5499   5.798   8.825   0.248
41567W        W 5500  28.996  23.020   2.348
41568W        W 5501   5.724  23.150   4.334
41569W        W 5502  19.241  15.321  14.844
41570W        W 5503   4.393  25.042   4.328
41571W        W 5504  12.853   6.357   4.285
41572W        W 5505  20.166  34.888  12.448
41573W        W 5506  22.043  17.221   2.353
41574W        W 5507  38.062  43.962  13.338
41575W        W 5508  20.615  20.108  14.399
41576W        W 5509  15.710   0.444  11.929
41577W        W 5510   6.246  38.962   5.306
41578W        W 5511  20.659  31.472   3.245
41579W        W 5512  20.645  15.603   0.291
41580W        W 5513   5.282  38.863  13.826
41581W        W 5514  10.729  35.586   2.290
41582W        W 5515  23.570  27.104   4.176
41583W        W 5516  12.741   1.346  10.575
41584W        W 5517   2.915  24.117  13.473
41585W        W 5518   6.687  20.563   4.230
41586W        W 5519  31.108  19.579  11.048
41587W        W 5520  15.157   4.794  11.991
41588W        W 5521  27.462  39.812  14.888
41589W        W 5522  30.084  41.429  13.510
41590W        W 5523  29.556  32.551  10.474
41591W        W 5524  17.168  22.251   1.441
41592W        W 5525  12.227  29.659  13.026
41593W        W 5526  13.796  17.169  14.853
41594W        W 5527  32.608   1.760  13.485
41595W        W 5528  40.919  32.564  12.066
41596W        W 5529  16.809  41.336  10.115
41597W        W 5530  18.720  11.737   0.429
41598W        W 5531   5.816  34.551   4.758
41599W        W 5532  43.319  17.689   0.876
41600W        W 5533  32.024   6.208   2.410
41601W        W 5534  22.514  21.244  13.823
41602W        W 5535  40.443  24.711  12.502
41603W        W 5536  23.661  43.313   0.825
41604W        W 5537   5.359  19.541  13.392
41605W        W 5538  28.092   2.815   3.824
41606W        W 5539  27.663  14.820   3.259
41607W        W 5540  35.906  44.365  13.319
41608W        W 5541  34.932  36.068   1.850
41609W        W 5542  14.316  20.034   2.824
41610W        W 5543  34.395   6.364  13.504
41611W        W 5544  38.370  41.859   4.338
41612W        W 5545  40.393  26.080   4.789
41613W        W 5546  35.007   5.211  10.904
41614W        W 5547  38.463  23.654   2.883
41615W        W 5548  37.947   6.898   1.893
41616W        W 5549  26.049  26.105   0.770
41617W        W 5550  25.585  33.025  13.013
41618W        W 5551  41.442  26.005  10.461
41619W        W 5552   4.381  23.182   3.208
41620W        W 5553  37.920  24.074   3.708
41621W        W 5554  19.100  32.107  12.840
41622W        W 5555  37.874   0.794  13.528
41623W        W 5556  33.977   1.885   1.695
41624W        W 5557  43.824  14.802  11.957
41625W        W 5558  44.295   1.368  14.917
41626W        W 5559   8.402  44.757  11.067
41627W        W 5560  44.764  34.371   3.735
41628W        W 5561  17.133  31.110   2.362
41629W        W 5562   0.902  35.039  11.444
41630W        W 5563  25.680  18.760  11.439
41631W        W 5564   4.276  12.833  11.479
41632W        W 5565  37.001  40.347  10.971
41633W        W 5566  41.036  17.106  13.956
41634W        W 5567  39.866  23.009   3.648
41635W        W 5568  40.050  22.010   3.306
41636W        W 5569  26.988  11.254  13.016
41637W        W 5570   1.255  38.907   0.774
41638W        W 5571  10.178  13.277   4.716
41639W        W 5572  25.983  41.800  12.012
41640W        W 5573  30.938  15.329  14.498
41641W        W 5574  16.298  28.073  13.854
41642W        W 5575  22.666  16.622  10.983
41643W        W 5576  24.623  28.650   4.723
41644W        W 5577  27.962   9.706  10.529
41645W        W 5578  40.347  28.565   1.807
41646W        W 5579  19.137   0.428   3.371
41647W        W 5580  14.097  12.143   3.252
41648W        W 5581   3.794  25.165   3.285
41649W        W 5582  13.686  10.192   3.639
41650W        W 5583   3.352  10.326  11.923
41651W        W 5584  41.035  12.846  12.946
41652W        W 5585  14.791  18.669   4.680
41653W        W 5586   8.160  20.211  11.097
41654W        W 5587  16.667   6.781  13.441
41655W        W 5588   6.302   4.886  10.451
41656W        W 5589  43.430  42.895   0.929
41657W        W 5590   5.901  17.159  13.385
41658W        W 5591  10.358   3.344   3.747
41659W        W 5592  17.702  42.895  12.524
41660W        W 5593  27.028  31.545   1.838
41661W        W 5594   4.276  31.626  12.916
41662W        W 5595  18.668  18.068   2.889
41663W        W 5596  39.996  34.604  12.892
41664W        W 5597  29.453   9.381   2.264
41665W        W 5598  12.680  13.181  13.908
41666W        W 5599  33.945   4.340   3.347
41667W        W 5600  44.009  10.865   2.246
41668W        W 5601  13.727  37.849   0.253
41669W        W 5602  14.736  30.983   1.216
41670W        W 5603  10.713  27.532  14.794
41671W        W 5604   0.757   5.810   1.830
41672W        W 5605  22.655  11.236   2.242
41673W        W 5606  32.425  19.606  14.963
41674W        W 5607  12.799  35.971  12.870
41675W        W 5608   3.918  39.984  12.350
41676W        W 5609   8.815  13.232  12.922
41677W        W 5610  12.341  19.094  13.018
41678W        W 5611  27.156  28.058   3.860
41679W        W 5612  11.781  10.230  13.034
41680W        W 5613  41.909  37.983   3.753
41681W        W 5614  16.621   3.419  14.787
41682W        W 5615  38.431  44.913   2.663
41683W        W 5616  35.043  36.970   1.928
41684W        W 5617  32.141  37.977  12.387
41685W        W 5618  41.799  42.931  12.850
41686W        W 5619  34.453  37.561  12.074
41687W        W 5620   8.397   0.931  14.883
41688W        W 5621  13.349  25.213   4.348
41689W        W 5622  15.307  37.354   9.981
41690W        W 5623  27.146   7.416   2.178
41691W        W 5624  40.917  26.513   3.342
41692W        W 5625   0.838  10.271   2.419
41693W        W 5626  39.880  39.920  11.127
41694W        W 5627  26.997  26.006  13.809
41695W        W 5628  36.021  10.356   4.617
41696W        W 5629  26.672   8.194  11.857
41697W        W 5630  20.174  34.584   4.646
41698W        W 5631  17.774  17.752   4.790
41699W        W 5632  23.584  41.382  12.412
41700W        W 5633  38.491   2.831   4.334
41701W        W 5634   2.365  13.636  14.900
41702W        W 5635  14.743   8.207  11.458
41703W        W 5636  34.411  12.644  14.375
41704W        W 5637  37.525  24.721   4.697
41705W        W 5638  24.672   2.319   4.161
41706W        W 5639  42.333  43.796   3.235
41707W        W 5640  12.673  31.964   4.756
41708W        W 5641  35.889   9.158   1.919
41709W        W 5642  15.740   5.748   0.773
41710W        W 5643  33.878  26.985   0.745
41711W        W 5644   1.477   1.751   1.734
41712W        W 5645  28.513  33.615  13.531
41713W        W 5646  44.344  35.992   4.260
41714W        W 5647   2.882  33.894   3.317
41715W        W 5648  43.514   0.884  12.986
41716W        W 5649  38.474   6.746  14.985
41717W        W 5650  25.110  42.986  12.078
41718W        W 5651  21.217  20.249  10.978
41719W        W 5652  38.853  18.710  11.094
41720W        W 5653  22.114  15.219  14.810
41721W        W 5654  21.554  24.617   3.712
41722W        W 5655  42.950  38.422  10.584
41723W        W 5656  19.054   6.368   4.272
41724W        W 5657  43.504  18.683   2.367
41725W        W 5658   2.767   4.817  11.881
41726W        W 5659   9.761  18.188   1.423
41727W        W 5660  28.046   5.346  12.343
41728W        W 5661  23.159  38.907  13.037
41729W        W 5662   2.448  14.718  11.932
41730W        W 5663   2.857  17.231  14.407
41731W        W 5664  15.162  39.395   1.697
41732W        W 5665   2.405  34.595   3.702
41733W        W 5666  25.688  33.098  10.541
41734W        W 5667   0.401  27.102   2.829
41735W        W 5668  13.771  22.169  12.543
41736W        W 5669   8.843  41.463  10.519
41737W        W 5670  18.287  17.598   2.883
41738W        W 5671  34.005  27.584  13.039
41739W        W 5672   7.822  10.343   4.829
41740W        W 5673  16.686  34.421   4.296
41741W        W 5674  38.865  16.306   3.247
41742W        W 5675  19.683  44.857   1.263
41743W        W 5676  39.503  31.969   4.728
41744W        W 5677   5.759  26.620  12.939
41745W        W 5678  30.078  35.867  14.963
41746W        W 5679  16.636  41.895  10.154
41747W        W 5680  19.573  13.824  13.863
41748W        W 5681  44.762  35.097  12.956
41749W        W 5682  16.753  27.965   2.337
41750W        W 5683  37.512   1.252  14.500
41751W        W 5684   3.811  29.514  12.362
41752W        W 5685  39.440  39.835   2.273
41753W        W 5686  37.526  30.636   4.774
41754W        W 5687   3.461  34.000   2.824
41755W        W 5688  34.533  36.003   4.243
41756W        W 5689   5.257  44.819  13.974
41757W        W 5690  33.099  21.052  11.956
41758W        W 5691   2.932  15.085  14.929
41759W        W 5692  33.977   2.276   1.838
41760W        W 5693  20.148  38.554   1.902
41761W        W 5694   6.817   8.843   1.774
41762W        W 5695   5.349  26.490  12.436
41763W        W 5696  32.096  15.796   3.292
41764W        W 5697   3.763  27.532  14.983
41765W        W 5698  17.722  19.049  10.000
41766W        W 5699  14.177  40.379   0.435
41767W        W 5700  22.618  33.558   4.316
41768W        W 5701  38.967  30.594  14.760
41769W        W 5702  32.891  33.527  13.484
41770W        W 5703  11.187  36.415   1.799
41771W        W 5704  16.698  24.216  14.909
41772W        W 5705  24.504  14.691  11.427
41773W        W 5706  26.609  22.503   3.297
41774W        W 5707  29.458  37.998   0.261
41775W        W 5708   2.460  14.670  13.843
41776W        W 5709  30.099  30.637  12.443
41777W        W 5710  40.826   3.920   2.412
41778W        W 5711  21.077  18.786  13.543
41779W        W 5712  13.296  16.767  11.602
41780W        W 5713  27.517  27.978   0.918
41781W        W 5714  32.030  44.893   1.275
41782W        W 5715  38.505  44.304   2.695
41783W        W 5716   4.722  27.513   2.284
41784W        W 5717   5.852  18.282  14.304
41785W        W 5718  38.424  22.219   0.267
41786W        W 5719  43.330  26.996   3.297
41787W        W 5720  23.238  34.088  11.532
41788W        W 5721  35.984  12.846   3.673
41789W        W 5722   6.725  32.637   0.340
41790W        W 5723  27.986  10.855   3.765
41791W        W 5724  16.594  36.015  14.977
41792W        W 5725  14.740  28.570  12.440
41793W        W 5726  11.313  41.875  12.405
41794W        W 5727  16.313  44.966   1.847
41795W        W 5728  20.247  37.372   0.820
41796W        W 5729  19.605   0.446  14.893
41797W        W 5730  18.673  16.237   4.171
41798W        W 5731  12.150  12.628   4.238
41799W        W 5732  28.494  36.354   1.237
41800W        W 5733  34.931  10.237   4.619
41801W        W 5734  19.649  17.725   3.357
41802W        W 5735  12.810  38.333  12.089
41803W        W 5736   4.339  21.591   4.599
41804W        W 5737   9.308   5.894  13.309
41805W        W 5738  43.400   8.192   3.710
41806W        W 5739  21.135  35.430  13.010
41807W        W 5740  22.172   8.325   4.354
41808W        W 5741   4.753  23.144  12.836
41809W        W 5742  11.214  15.608   1.340
41810W        W 5743   9.382   1.958  12.426
41811W        W 5744   5.314  44.892   4.598
41812W        W 5745  32.579   4.716  10.588
41813W        W 5746  23.111  27.958  13.482
41814W        W 5747  42.835  21.657   3.713
41815W        W 5748  25.181   9.663   1.835
41816W        W 5749   5.203  17.194  13.420
41817W        W 5750  31.614  10.148   1.330
41818W        W 5751   2.357  33.048   4.675
41819W        W 5752  22.663  13.205  12.847
41820W        W 5753  17.252  44.994  12.094
41821W        W 5754   6.733  26.670  13.388
41822W        W 5755  21.132  41.350   3.188
41823W        W 5756  27.678   8.792   4.222
41824W        W 5757   5.241   8.185  14.771
41825W        W 5758  21.731   2.249   2.280
41826W        W 5759  42.985  17.769  13.477
41827W        W 5760  21.522  16.152   2.708
41828W        W 5761  34.096   8.327  12.498
41829W        W 5762  28.027   8.320  13.847
41830W        W 5763  35.923   2.794   2.243
41831W        W 5764  44.337  35.593  11.434
41832W        W 5765  16.672  12.804  12.427
41833W        W 5766  36.549  13.831   3.832
41834W        W 5767  40.442  29.590   0.840
41835W        W 5768   8.771  37.997   4.254
41836W        W 5769  23.566   7.249  10.529
41837W        W 5770  36.916   4.836  10.489
41838W        W 5771  44.872  29.573  11.986
41839W        W 5772   5.892  22.723   4.239
41840W        W 5773  20.197  29.998  12.367
41841W        W 5774   4.755  32.115  12.975
41842W        W 5775   0.392  30.028  10.953
41843W        W 5776  16.197  44.260   4.743
41844W        W 5777   6.298  12.637  14.897
41845W        W 5778  18.069  35.913  14.972
41846W        W 5779  36.988   4.266  14.443
41847W        W 5780  16.702  28.512  14.857
41848W        W 5781  20.037  41.975  10.965
41849W        W 5782  21.665  42.411   2.255
41850W        W 5783  41.816  11.777   3.734
41851W        W 5784  28.038  44.468   1.211
41852W        W 5785  34.408  15.264   3.824
41853W        W 5786  18.754  29.615   4.242
41854W        W 5787  24.486  33.402  11.072
41855W        W 5788  18.683  26.531  14.762
41856W        W 5789  11.800  29.548   1.338
41857W        W 5790  18.077  11.730  13.538
41858W        W 5791   8.863  38.987   0.841
41859W        W 5792  20.595  34.110  11.016
41860W        W 5793  36.568  24.146  11.938
41861W        W 5794  31.496  36.571   4.765
41862W        W 5795   1.435   7.803  12.919
41863W        W 5796  25.469  28.634   2.676
41864W        W 5797  38.435  35.872  13.485
41865W        W 5798  22.567   1.402   2.182
41866W        W 5799   6.794  28.985   1.318
41867W        W 5800  20.681  41.925  11.418
41868W        W 5801  19.163  26.481  13.976
41869W        W 5802  18.132  11.225   3.246
41870W        W 5803   8.751  41.480   4.815
41871W        W 5804  31.134  37.480  13.904
41872W        W 5805   5.374  44.502   2.705
41873W        W 5806  19.701  22.700   5.297
41874W        W 5807  11.780  35.458  10.452
41875W        W 5808  30.024  16.155   1.852
41876W        W 5809  17.112  27.492   4.235
41877W        W 5810  35.587  20.610   2.732
41878W        W 5811  24.146  31.119   4.217
41879W        W 5812  38.332  21.159   0.898
41880W        W 5813  44.278  41.475   5.084
41881W        W 5814  24.716  25.662   1.875
41882W        W 5815  22.731   7.785  12.983
41883W        W 5816  14.699  41.312  12.844
41884W        W 5817  42.872  44.489  14.346
41885W        W 5818  15.208  34.525   1.357
41886W        W 5819  28.164  10.684   4.186
41887W        W 5820  24.483  29.546   3.725
41888W        W 5821  33.515   7.194   1.833
41889W        W 5822   6.415  37.005   3.752
41890W        W 5823  33.050   3.419  14.424
41891W        W 5824  14.629  35.977   4.796
41892W        W 5825  30.452  21.050  12.405
41893W        W 5826   1.412  32.602  13.847
41894W        W 5827  29.465  38.985   4.202
41895W        W 5828   3.256  20.761  14.359
41896W        W 5829  30.934  24.207  14.015
41897W        W 5830   3.818  17.613   4.236
41898W        W 5831  24.087  42.320  14.013
41899W        W 5832  15.647  40.955  14.332
41900W        W 5833  11.859   1.899   3.386
41901W        W 5834  15.244   0.278   0.815
41902W        W 5835  20.070  38.421  14.280
41903W        W 5836  40.947  32.910   3.326
41904W        W 5837  18.278   8.886  11.096
41905W        W 5838  35.533  17.238   0.475
41906W        W 5839  15.822   4.371  14.430
41907W        W 5840  25.700   7.300   0.862
41908W        W 5841  10.837  39.480   2.233
41909W        W 5842   8.357  43.915  12.525
41910W        W 5843  17.171  25.680   2.866
41911W        W 5844  11.699  19.622  11.603
41912W        W 5845   0.821  34.068   4.677
41913W        W 5846  23.732   6.391   4.299
41914W        W 5847  21.220  25.074  12.455
41915W        W 5848  21.593  26.199  12.457
41916W        W 5849   1.395  41.373  11.972
41917W        W 5850  20.145  18.590   1.855
41918W        W 5851  41.379  35.101   2.199
41919W        W 5852   2.368  35.064  13.000
41920W        W 5853  40.906  28.643  13.307
41921W        W 5854  44.965  33.129   0.400
41922W        W 5855  40.533  39.062  13.469
41923W        W 5856  35.052  26.122  13.522
41924W        W 5857   2.238  13.244  13.473
41925W        W 5858  34.057  11.134   3.867
41926W        W 5859  17.777  44.275  13.992
41927W        W 5860  42.936  16.678   2.188
41928W        W 5861  24.654  44.437   3.767
41929W        W 5862  17.117  15.609   9.998
41930W        W 5863  14.323  37.995  14.334
41931W        W 5864   1.412  35.391  10.900
41932W        W 5865   7.834  13.658   3.754
41933W        W 5866  26.122  10.738  12.530
41934W        W 5867  19.653  11.130  11.055
41935W        W 5868  12.707  17.126  14.499
41936W        W 5869  35.094  14.785   0.938
41937W        W 5870  18.202  17.112   2.786
41938W        W 5871  42.289   3.416   4.818
41939W        W 5872  18.204  10.845  11.034
41940W        W 5873  25.124   5.261  13.882
41941W        W 5874  23.987  30.003   4.219
41942W        W 5875  33.928  33.934   1.449
41943W        W 5876  42.025  15.105   0.843
41944W        W 5877  23.199   3.382  13.483
41945W        W 5878  39.942  34.884   4.230
41946W        W 5879   9.746  39.422  13.339
41947W        W 5880  40.020  17.600   3.319
41948W        W 5881  12.696   3.897   2.721
41949W        W 5882  21.658   4.281   0.874
41950W        W 5883  39.390   8.330  13.854
41951W        W 5884  30.145  33.453   4.325
41952W        W 5885   0.455  25.468  13.408
41953W        W 5886   6.428   7.400  10.615
41954W        W 5887  33.550  35.397  13.051
41955W        W 5888  41.972   1.346  12.905
41956W        W 5889  18.102  41.804   4.702
41957W        W 5890   0.910  19.200  10.485
41958W        W 5891  27.653  24.600  12.867
41959W        W 5892  27.621  15.294  13.382
41960W        W 5893  40.045  10.377  13.000
41961W        W 5894   3.747   5.761  11.977
41962W        W 5895   4.906  29.669   2.397
41963W        W 5896  38.026  12.267   4.714
41964W        W 5897  39.519  43.372   1.931
41965W        W 5898   8.779  37.050   3.215
41966W        W 5899  22.502   7.315  13.918
41967W        W 5900  31.586   3.370  14.793
41968W        W 5901  44.494   6.759  10.546
41969W        W 5902   7.338  41.886  14.465
41970W        W 5903   4.440   2.917  12.542
41971W        W 5904  12.813  26.203   0.247
41972W        W 5905  38.834  35.936   2.211
41973W        W 5906  40.835  12.621   3.657
41974W        W 5907   4.219   0.337  12.826
41975W        W 5908  21.035  26.103  14.440
41976W        W 5909  43.493  38.049   2.790
41977W        W 5910  34.489  15.787   3.327
41978W        W 5911   5.715  22.566  12.511
41979W        W 5912  13.655  19.198   1.450
41980W        W 5913  22.109  42.856   1.900
41981W        W 5914  43.328  25.177   4.773
41982W        W 5915   8.711   6.336  11.919
41983W        W 5916  42.873  30.975   1.445
41984W        W 5917  14.293  11.288  13.495
41985W        W 5918   9.221  35.923   4.146
41986W        W 5919  13.170  30.556  10.147
41987W        W 5920  17.071  39.002   4.195
41988W        W 5921   6.744  33.072  12.956
41989W        W 5922  18.152  14.172   2.854
41990W        W 5923  21.631  44.356   1.243
41991W        W 5924  10.725  12.145   1.243
41992W        W 5925   9.859  17.734   1.871
41993W        W 5926  12.805  33.405   0.283
41994W        W 5927  36.566  40.448  14.976
41995W        W 5928  20.156  43.426   1.793
41996W        W 5929  24.100  21.565  10.550
41997W        W 5930  41.873  39.461   3.335
41998W        W 5931  11.302  12.349  11.989
41999W        W 5932  40.853   1.897   0.931
42000W        W 5933  25.626   7.283  13.431
42001W        W 5934  44.376  36.020   5.271
42002W        W 5935  20.659   9.643  13.925
42003W        W 5936  31.563  12.331   1.362
42004W        W 5937  24.190  14.330  13.974
42005W        W 5938   6.735  41.296   4.718
42006W        W 5939  20.542  26.647   4.256
42007W        W 5940  23.164  32.489   1.232
42008W        W 5941  29.132  29.146   2.246
42009W        W 5942   3.881  34.947  11.118
42010W        W 5943  12.119   0.956  14.287
42011W        W 5944  22.690  29.626  11.385
42012W        W 5945  31.109  42.285   0.757
42013W        W 5946  30.982   8.769   4.743
42014W        W 5947  33.458   0.983  10.498
42015W        W 5948  41.314   4.263  10.514
42016W        W 5949   0.930  37.974   1.908
42017W        W 5950  27.509  18.609  14.384
42018W        W 5951   6.680  29.029  14.275
42019W        W 5952   3.356  14.765  12.080
42020W        W 5953  37.893  10.803   3.151
42021W        W 5954   3.922  11.855   4.220
42022W        W 5955  39.487  14.765   2.820
42023W        W 5956   7.305  31.141  10.593
42024W        W 5957  30.531   8.177  10.465
42025W        W 5958  22.013   3.281  14.390
42026W        W 5959  41.314  38.421   0.919
42027W        W 5960  34.095   7.366  14.373
42028W        W 5961   2.726   2.954   1.820
42029W        W 5962   7.671  37.374   0.255
42030W        W 5963  40.021   1.959   4.161
42031W        W 5964  22.098  13.107  13.323
42032W        W 5965  10.378   7.381  12.015
42033W        W 5966   8.769   6.913  11.095
42034W        W 5967   6.246   2.744  11.607
42035W        W 5968  13.263   3.388   0.934
42036W        W 5969  41.004  30.497   3.346
42037W        W 5970   0.774  37.453   0.357
42038W        W 5971  38.917   2.731   0.877
42039W        W 5972  27.522  13.215   0.370
42040W        W 5973  14.647  11.847  14.325
42041W        W 5974  25.497   1.395  14.340
42042W        W 5975   5.893  18.152   4.793
42043W        W 5976  41.381  26.582  12.975
42044W        W 5977  16.100  13.114  10.607
42045W        W 5978  42.010  21.163  14.849
42046W        W 5979  17.243  21.216   2.400
42047W        W 5980  24.724  31.923   3.214
42048W        W 5981  32.118  44.456  12.408
42049W        W 5982   8.171   1.801   4.303
42050W        W 5983   3.841  12.743  12.855
42051W        W 5984  28.677  35.362   4.804
42052W        W 5985   1.844  34.562  12.042
42053W        W 5986   8.790   0.472   3.193
42054W        W 5987  33.588   1.432   4.704
42055W        W 5988   9.270  33.456   1.886
42056W        W 5989  42.871  24.691   0.471
42057W        W 5990  40.518  25.650  10.527
42058W        W 5991  41.972   6.219  14.321
42059W        W 5992   0.897  31.560   4.743
42060W        W 5993  26.685  15.588  12.524
42061W        W 5994  25.580  39.480   1.870
42062W        W 5995  21.033  22.139   2.345
42063W        W 5996   6.736   1.274   1.828
42064W        W 5997   4.751  30.455   4.137
42065W        W 5998  40.513  26.574   4.800
42066W        W 5999   5.811   7.753   3.218
42067W        W 6000   9.381  18.191  11.499
42068W        W 6001  43.884   3.360  10.908
42069W        W 6002  21.602   2.942   4.118
42070W        W 6003  26.028   6.699  14.384
42071W        W 6004  43.020  35.580   3.829
42072W        W 6005   7.711  37.918  11.406
42073W        W 6006  29.511  22.567  14.765
42074W        W 6007  42.380  38.482  13.800
42075W        W 6008  35.580  32.091  10.914
42076W        W 6009  29.156   0.469  12.825
42077W        W 6010  18.204  16.171   1.308
42078W        W 6011  27.555  15.795   2.890
42079W        W 6012  14.229   8.386  14.808
42080W        W 6013  23.995  40.987  11.595
42081W        W 6014  23.088  16.622   4.712
42082W        W 6015   3.945  31.569   0.375
42083W        W 6016  39.891  23.125   1.922
42084W        W 6017  44.325  10.833   4.136
42085W        W 6018  10.686  13.837   0.438
42086W        W 6019  33.547   8.363   1.841
42087W        W 6020  43.845   1.237   0.306
42088W        W 6021  23.236  41.506   4.343
42089W        W 6022  13.211  41.935  11.384
42090W        W 6023  36.529  13.642   3.228
42091W        W 6024   4.344  18.154   2.188
42092W        W 6025   2.890  27.120  10.428
42093W        W 6026   6.717   8.860  14.901
42094W        W 6027  12.290  14.631  14.003
42095W        W 6028   4.377  41.971   1.826
42096W        W 6029  11.343   6.678   3.296
42097W        W 6030   5.896  30.966   4.606
42098W        W 6031  39.021  22.620   0.812
42099W        W 6032  34.047  37.467   2.381
42100W        W 6033  30.550   8.837  12.954
42101W        W 6034  38.373  42.795   0.942
42102W        W 6035  42.854  41.444   4.164
42103W        W 6036  12.175   7.259   5.224
42104W        W 6037  12.814  25.533   3.298
42105W        W 6038  27.689  19.729   3.820
42106W        W 6039  21.106  40.798   4.268
42107W        W 6040   5.278  15.738  14.337
42108W        W 6041  41.303  23.223   3.311
42109W        W 6042  11.292  43.390   3.354
42110W        W 6043  11.225  30.559   2.330
42111W        W 6044  33.609   6.860  14.476
42112W        W 6045   6.901  12.270  13.426
42113W        W 6046   8.182   0.797   0.869
42114W        W 6047  13.781  32.611   3.320
42115W        W 6048   9.162   8.328   0.384
42116W        W 6049   5.721  19.074   3.321
42117W        W 6050   5.812  25.563  11.553
42118W        W 6051   5.789  39.438  13.540
42119W        W 6052  13.345   3.807   3.289
42120W        W 6053  21.583  39.893  11.414
42121W        W 6054  32.479  37.459   2.851
42122W        W 6055  19.683  16.631   0.414
42123W        W 6056  14.174  37.857  12.088
42124W        W 6057  38.944   3.915  13.888
42125W        W 6058  16.743  35.400  12.548
42126W        W 6059  21.697  24.031   2.288
42127W        W 6060  31.071   7.791   2.838
42128W        W 6061  14.098  40.985   2.810
42129W        W 6062  19.716  31.477  12.914
42130W        W 6063  22.740  12.143  10.621
42131W        W 6064  21.146  29.517  13.511
42132W        W 6065  25.663  13.842  10.563
42133W        W 6066  26.982  32.960  11.975
42134W        W 6067   6.702  17.212  12.036
42135W        W 6068  16.157   9.773   3.778
42136W        W 6069  13.311  33.386  11.024
42137W        W 6070  37.992   6.759  11.006
42138W        W 6071   7.707  25.563  12.344
42139W        W 6072   9.887   3.316   3.768
42140W        W 6073  19.106  21.118   5.222
42141W        W 6074  42.357  38.952   1.230
42142W        W 6075  31.128   9.268   2.181
42143W        W 6076  15.801  40.523  13.893
42144W        W 6077  37.042  32.947   4.790
42145W        W 6078   5.352  15.171  14.964
42146W        W 6079  39.413   0.260  14.897
42147W        W 6080  39.942  20.178  14.847
42148W        W 6081  23.125  22.616   0.886
42149W        W 6082  12.654  41.936  13.460
42150W        W 6083  43.361  20.174   3.324
42151W        W 6084  43.993  18.055   2.833
42152W        W 6085  27.002  13.763   0.453
42153W        W 6086  44.757  31.443  11.015
42154W        W 6087  42.336   3.876   4.335
42155W        W 6088  18.204  23.630   2.867
42156W        W 6089  30.970   7.890   3.292
42157W        W 6090  25.594   5.411  14.446
42158W        W 6091  16.214  18.254  14.830
42159W        W 6092   0.368  14.812   4.832
42160W        W 6093  27.965   7.228   1.886
42161W        W 6094  32.038  16.781  11.376
42162W        W 6095  30.002  27.514   3.814
42163W        W 6096  14.776   3.817   4.149
42164W        W 6097  27.064  27.090   2.327
42165W        W 6098  39.929  13.120   0.788
42166W        W 6099  16.586  34.957   4.242
42167W        W 6100   6.253  28.468  11.976
42168W        W 6101  13.341  17.083   3.346
42169W        W 6102   8.898  26.479  12.025
42170W        W 6103   7.907  44.374  11.869
42171W        W 6104  43.417  41.013  14.005
42172W        W 6105  18.721   8.681  10.595
42173W        W 6106  10.190  41.478  11.048
42174W        W 6107  34.922  41.517   5.155
42175W        W 6108  11.702  44.838  13.883
42176W        W 6109  26.071  44.807   3.290
42177W        W 6110   0.465  20.216  11.944
42178W        W 6111  44.830  11.667  13.385
42179W        W 6112  24.702  33.901   1.272
42180W        W 6113  42.855  38.479   3.366
42181W        W 6114  38.484  22.617   1.312
42182W        W 6115  40.304  40.448  12.094
42183W        W 6116  24.604   9.795   9.961
42184W        W 6117   4.766   1.454  12.020
42185W        W 6118   4.897   6.222  11.955
42186W        W 6119   8.796  42.301   1.290
42187W        W 6120  13.344  12.310  14.822
42188W        W 6121  18.546  16.169   1.392
42189W        W 6122  42.941  15.197   4.211
42190W        W 6123  12.740  10.795   1.749
42191W        W 6124  26.172  39.831   4.261
42192W        W 6125  33.007  44.502   2.695
42193W        W 6126  36.020  11.196  13.335
42194W        W 6127  41.350  11.310   0.304
42195W        W 6128  33.529   2.919   4.230
42196W        W 6129  27.488  25.588   1.216
42197W        W 6130   7.408  39.491   2.261
42198W        W 6131  14.335  16.812  13.520
42199W        W 6132  29.631   9.697  14.905
42200W        W 6133  44.471  43.382   1.418
42201W        W 6134  34.381  27.063  14.408
42202W        W 6135  18.781  36.591   4.309
42203W        W 6136  13.142  27.179   2.817
42204W        W 6137  36.515  25.553   1.390
42205W        W 6138  17.192  28.522   2.315
42206W        W 6139  19.678  41.463   3.196
42207W        W 6140  42.864  15.811  10.500
42208W        W 6141  44.278  11.820   3.387
42209W        W 6142  34.581  28.675   0.302
42210W        W 6143  20.561  39.910  13.435
42211W        W 6144  10.177  26.671  11.426
42212W        W 6145  39.854   1.439   2.691
42213W        W 6146  31.075  19.590  13.019
42214W        W 6147  32.515  18.139  13.352
42215W        W 6148   2.354  26.073  13.417
42216W        W 6149  17.126  39.410  11.538
42217W        W 6150  20.235  28.626  11.581
42218W        W 6151   5.256  25.537  10.423
42219W        W 6152  17.658  33.535  10.888
42220W        W 6153  30.131  18.107  11.419
42221W        W 6154  10.844   5.356   4.234
42222W        W 6155  43.964  39.343  14.025
42223W        W 6156   2.381  40.986  10.618
42224W        W 6157  44.765  40.820  10.889
42225W        W 6158   0.798  25.526   2.791
42226W        W 6159  11.633  38.563  12.547
42227W        W 6160  25.124  22.017  14.965
42228W        W 6161   9.782  40.849  14.878
42229W        W 6162  16.687  20.720  12.976
42230W        W 6163   9.845   2.756  10.555
42231W        W 6164  33.066  23.538   0.288
42232W        W 6165   6.221  33.936   4.319
42233W        W 6166  26.496   9.816   2.393
42234W        W 6167  40.833  34.408   2.276
42235W        W 6168  30.434  26.594  12.391
42236W        W 6169  44.412  20.572   0.730
42237W        W 6170  28.619  26.560   1.357
42238W        W 6171   6.681  15.200  14.292
42239W        W 6172  41.350  42.497   2.236
42240W        W 6173  29.116  26.042  10.426
42241W        W 6174  11.280  15.206   3.185
42242W        W 6175  40.907   3.950  12.446
42243W        W 6176  26.551   0.769  14.908
42244W        W 6177   4.930  12.223   1.233
42245W        W 6178  17.746   9.199  12.839
42246W        W 6179  11.190  17.131   3.240
42247W        W 6180  40.471  32.503  14.003
42248W        W 6181  35.890  22.193   3.334
42249W        W 6182  33.017  40.536  11.974
42250W        W 6183  11.337  39.041   0.927
42251W        W 6184  25.495   9.197   1.269
42252W        W 6185  15.216   1.875   2.296
42253W        W 6186  18.097  42.975   1.351
42254W        W 6187  16.148   4.345  14.455
42255W        W 6188  27.656   6.780  12.413
42256W        W 6189  17.296   6.772  13.026
42257W        W 6190   0.836  43.015  13.403
42258W        W 6191  43.394  18.200   4.310
42259W        W 6192  33.927  25.664  12.392
42260W        W 6193  20.137  44.317  11.564
42261W        W 6194  10.809  16.635  13.335
42262W        W 6195  31.024   2.959  11.061
42263W        W 6196  10.320   6.199  14.471
42264W        W 6197  38.341  38.947  12.563
42265W        W 6198  22.224   6.328  12.467
42266W        W 6199  14.203  41.357  14.319
42267W        W 6200  15.666  11.290   0.793
42268W        W 6201  33.090  32.553   3.805
42269W        W 6202  44.991  21.648   1.293
42270W        W 6203  41.857   8.700  10.104
42271W        W 6204  17.728  31.937   4.130
42272W        W 6205  16.277  13.812  12.911
42273W        W 6206  21.162   2.309   2.368
42274W        W 6207  19.069   7.329   3.244
42275W        W 6208  10.222  37.021   3.165
42276W        W 6209  32.054   3.239  14.289
42277W        W 6210  37.860  34.099   1.805
42278W        W 6211   8.309  31.006   3.684
42279W        W 6212  26.176   0.335   0.801
42280W        W 6213  33.592  39.859   5.242
42281W        W 6214  19.280  31.614  14.851
42282W        W 6215  34.015  19.098   2.279
42283W        W 6216  14.794  29.007  12.968
42284W        W 6217  19.077  16.728  12.420
42285W        W 6218  39.911  14.813  12.984
42286W        W 6219  14.758   8.255   5.253
42287W        W 6220   4.336  37.564   1.312
42288W        W 6221  26.468  27.965   3.771
42289W        W 6222  12.193  31.538   0.756
42290W        W 6223  29.942  37.040  12.036
42291W        W 6224  31.406  43.383  10.969
42292W        W 6225  17.194  20.259   1.898
42293W        W 6226  17.215  29.607   3.852
42294W        W 6227  12.768  36.361  13.030
42295W        W 6228  19.276  10.821   3.170
42296W        W 6229  16.752  18.786   0.937
42297W        W 6230  15.141  38.028   4.609
42298W        W 6231  26.627  34.036  14.883
42299W        W 6232   2.849   2.877   4.786
42300W        W 6233  41.391  13.305   4.125
42301W        W 6234  44.307  11.777   2.330
42302W        W 6235   5.375  43.943  12.378
42303W        W 6236  24.143   1.391   1.696
42304W        W 6237  16.743  30.143  12.517
42305W        W 6238  30.533   7.213  14.352
42306W        W 6239   8.395  12.180   0.957
42307W        W 6240  40.879  28.609   1.809
42308W        W 6241  29.528  41.981   2.233
42309W        W 6242  18.590  24.638  12.851
42310W        W 6243  18.789  25.476  11.613
42311W        W 6244  43.459   0.908  11.967
42312W        W 6245   7.408   3.267   0.779
42313W        W 6246  26.042  43.996  14.943
42314W        W 6247   8.689   6.880  14.339
42315W        W 6248  44.457  10.246   4.256
42316W        W 6249  18.100   2.737  13.886
42317W        W 6250  23.634  19.161  11.533
42318W        W 6251   5.261  19.731  12.390
42319W        W 6252  14.729   5.810  11.938
42320W        W 6253  17.731   9.854   4.347
42321W        W 6254   8.662  37.054   1.237
42322W        W 6255  21.198  37.433   4.198
42323W        W 6256  26.035  10.161  10.085
42324W        W 6257  28.665  23.085  12.874
42325W        W 6258  21.620  24.147   0.853
42326W        W 6259  42.777   8.190   1.893
42327W        W 6260  18.113  11.344  14.942
42328W        W 6261   2.753  37.038  10.435
42329W        W 6262   1.873  37.561   0.744
42330W        W 6263  37.549   9.818  12.464
42331W        W 6264  10.663  43.846  13.029
42332W        W 6265  17.114  33.438   1.251
42333W        W 6266  40.525  14.116   3.325
42334W        W 6267  21.128   9.359  13.013
42335W        W 6268  28.524  32.003  10.539
42336W        W 6269   6.279  14.687   4.640
42337W        W 6270  14.312  43.011  12.404
42338W        W 6271  30.588  15.612  13.443
42339W        W 6272   2.822  13.780  14.005
42340W        W 6273   8.753  44.848   2.293
42341W        W 6274   9.232   3.713   2.239
42342W        W 6275  42.007  26.526  10.587
42343W        W 6276  44.385  37.863   0.892
42344W        W 6277  34.568  40.999   1.449
42345W        W 6278  32.572  29.984   2.832
42346W        W 6279  34.388  18.296   4.761
42347W        W 6280  24.516  29.577   3.220
42348W        W 6281  28.007  20.153  11.398
42349W        W 6282  37.521  25.212   2.807
42350W        W 6283  22.504  18.269  13.036
42351W        W 6284  27.109   3.757  12.433
42352W        W 6285  33.130  32.951   0.456
42353W        W 6286  38.907  32.502  13.875
42354W        W 6287  30.609   1.446   0.301
42355W        W 6288  14.716  42.834   0.305
42356W        W 6289  20.598  31.593   4.247
42357W        W 6290  43.493   0.821   0.302
42358W        W 6291  20.220  35.938   3.248
42359W        W 6292   0.942  27.136   4.211
42360W        W 6293  14.325  32.394   3.813
42361W        W 6294  38.005  14.336  10.490
42362W        W 6295  36.524  23.032  11.425
42363W        W 6296  26.492   3.715   2.405
42364W        W 6297  26.593  25.035  12.093
42365W        W 6298  31.585  44.350  14.289
42366W        W 6299  33.573  32.988  14.496
42367W        W 6300  37.396   8.403   1.727
42368W        W 6301   5.390  35.889  12.022
42369W        W 6302  29.592  17.187  12.486
42370W        W 6303  33.890  15.643  13.992
42371W        W 6304  35.390  18.735   2.375
42372W        W 6305  38.438  40.035  10.624
42373W        W 6306  29.493  26.478  11.471
42374W        W 6307  15.298  15.715   2.376
42375W        W 6308   1.415  23.988   3.165
42376W        W 6309  31.648  10.376   3.739
42377W        W 6310  23.211  11.669  14.806
42378W        W 6311  11.196   2.927  11.061
42379W        W 6312  36.859  15.201   0.415
42380W        W 6313  24.696  24.025  13.035
42381W        W 6314  28.030  21.027   2.816
42382W        W 6315  27.168  28.530  11.004
42383W        W 6316  22.592  39.338   1.370
42384W        W 6317   7.829   0.426  13.492
42385W        W 6318  10.204  34.590  11.972
42386W        W 6319  37.902   4.852   4.801
42387W        W 6320  33.035  29.645   3.692
42388W        W 6321  32.078  14.128   1.254
42389W        W 6322  10.811  16.117   2.731
42390W        W 6323  21.753  23.498  12.970
42391W        W 6324   9.372   1.762   9.961
42392W        W 6325  43.789  14.734   0.824
42393W        W 6326   7.858  13.644  13.882
42394W        W 6327  41.886  44.823  12.920
42395W        W 6328   0.965  29.533   3.166
42396W        W 6329  24.598  11.697   5.130
42397W        W 6330  21.727  10.681   4.301
42398W        W 6331   3.835  33.071   0.310
42399W        W 6332  12.670  16.085   2.666
42400W        W 6333   2.805  11.722  14.931
42401W        W 6334  25.498  36.582  13.317
42402W        W 6335  33.447   1.944   4.804
42403W        W 6336  42.942  23.682   2.811
42404W        W 6337  19.725  12.829   4.707
42405W        W 6338  26.102  20.633  14.427
42406W        W 6339  21.733   4.413  11.083
42407W        W 6340  37.560   8.399   1.399
42408W        W 6341  31.023  43.399   0.337
42409W        W 6342  39.987  15.120  13.801
42410W        W 6343  43.364   1.283  12.434
42411W        W 6344  44.987  44.773   4.821
42412W        W 6345   1.868  41.860  10.575
42413W        W 6346  19.570  29.990   5.117
42414W        W 6347  39.985  17.680   4.192
42415W        W 6348  37.833  16.682   3.724
42416W        W 6349  11.685  26.203   4.269
42417W        W 6350  27.513  11.862  12.828
42418W        W 6351  44.400  44.900   1.711
42419W        W 6352  26.582  34.506   1.896
42420W        W 6353  33.477   5.792  13.385
42421W        W 6354  18.781  27.666  14.806
42422W        W 6355   4.714   9.786   0.383
42423W        W 6356   2.464   2.269  14.780
42424W        W 6357  15.218   1.284  10.530
42425W        W 6358  15.155  19.237   3.675
42426W        W 6359  11.144   1.305  13.404
42427W        W 6360  42.940  40.899  12.407
42428W        W 6361   1.286  36.878  11.567
42429W        W 6362  44.793  20.679   4.664
42430W        W 6363   7.287  43.340   1.416
42431W        W 6364  14.679  33.100   1.399
42432W        W 6365  32.431   6.740   3.692
42433W        W 6366   3.711   3.298  10.408
42434W        W 6367  28.081  41.849  12.912
42435W        W 6368  14.304  25.194   1.879
42436W        W 6369  18.570  20.193   1.388
42437W        W 6370  16.680  25.160   4.646
42438W        W 6371  26.486  40.528   1.712
42439W        W 6372  25.023   9.765   2.187
42440W        W 6373  32.115  36.504   0.941
42441W        W 6374  25.710  26.994  14.990
42442W        W 6375  13.285  30.447   3.223
42443W        W 6376  19.608  29.016  12.021
42444W        W 6377  18.176  35.062  13.379
42445W        W 6378  27.661  19.085   2.897
42446W        W 6379  36.479  10.724   4.740
42447W        W 6380  30.059  41.306  10.486
42448W        W 6381  30.435  16.139   4.201
42449W        W 6382  40.995  37.964  13.848
42450W        W 6383  26.550  18.070  13.452
42451W        W 6384  44.404   7.701   4.772
42452W        W 6385  13.242  31.479   0.323
42453W        W 6386  22.711   0.890   3.271
42454W        W 6387  15.811  23.146   4.788
42455W        W 6388  29.484  22.107  12.429
42456W        W 6389  21.094  32.059  10.034
42457W        W 6390  16.648  14.670  14.431
42458W        W 6391   8.807  25.681  12.007
42459W        W 6392   6.412  25.625   2.870
42460W        W 6393  20.541  27.617  11.377
42461W        W 6394   0.899  10.657  10.496
42462W        W 6395  25.684  29.533  14.802
42463W        W 6396  15.316  35.506   4.799
42464W        W 6397   2.362   2.836  14.401
42465W        W 6398  30.019  30.112  11.877
42466W        W 6399   7.765   0.335  12.899
42467W        W 6400  21.557   7.717  10.623
42468W        W 6401  11.323  30.127  11.381
42469W        W 6402  22.509  41.517  11.009
42470W        W 6403  40.461  28.456  11.894
42471W        W 6404   4.923  33.625  13.809
42472W        W 6405  23.634  39.874  11.121
42473W        W 6406  19.544  21.245  11.553
42474W        W 6407   8.336   4.793   1.299
42475W        W 6408   0.296  33.884   3.322
42476W        W 6409  29.106  41.879  10.589
42477W        W 6410  16.756   5.238  12.380
42478W        W 6411   5.816   0.256   3.346
42479W        W 6412   7.817  18.145   1.856
42480W        W 6413  23.496  12.665   2.345
42481W        W 6414  31.034  23.171   1.430
42482W        W 6415  35.009  10.287   1.895
42483W        W 6416  13.732  34.408  14.997
42484W        W 6417  21.233  15.726  11.430
42485W        W 6418   0.847  13.800   3.368
42486W        W 6419  19.711  30.909   3.387
42487W        W 6420  13.305  19.556  13.889
42488W        W 6421  39.511  34.576   0.366
42489W        W 6422   5.244  26.064  14.332
42490W        W 6423   2.958  31.986   2.750
42491W        W 6424  18.663  34.383   3.823
42492W        W 6425  28.446  24.206  11.870
42493W        W 6426  28.111   0.328  14.992
42494W        W 6427  27.536   2.945  11.948
42495W        W 6428  26.088  27.542  11.122
42496W        W 6429  25.663   1.446  14.910
42497W        W 6430  33.540   0.248  14.989
42498W        W 6431  28.146   0.751  13.542
42499W        W 6432  32.545   5.831  13.376
42500W        W 6433  42.430   0.938  14.802
42501W        W 6434  10.710  20.750  13.428
42502W        W 6435  25.066  43.960   0.948
42503W        W 6436  24.700  28.105  10.574
42504W        W 6437  13.326  34.990  11.559
42505W        W 6438  38.432  11.183   3.780
42506W        W 6439  36.391  34.027   2.796
42507W        W 6440  12.811  25.549  12.835
42508W        W 6441  28.163   5.341  10.595
42509W        W 6442  35.543  35.984  11.055
42510W        W 6443  30.079  19.247   4.642
42511W        W 6444   6.305   1.884  10.145
42512W        W 6445  23.197   3.710   4.675
42513W        W 6446  37.857  15.218   1.780
42514W        W 6447  23.591   0.312  11.959
42515W        W 6448  31.993  27.196   2.340
42516W        W 6449  40.957   2.936  12.564
42517W        W 6450   3.822  19.719   2.712
42518W        W 6451  10.167  18.268  11.401
42519W        W 6452   9.176   4.737  10.644
42520W        W 6453  19.574  12.846   4.286
42521W        W 6454  39.965   1.734   0.966
42522W        W 6455  28.153  44.899  11.885
42523W        W 6456  30.092  13.693  13.813
42524W        W 6457   6.827  42.299   4.267
42525W        W 6458  41.377   0.818   0.776
42526W        W 6459   8.218  26.976   1.856
42527W        W 6460  31.018  37.928  11.374
42528W        W 6461   5.201  15.750   2.258
42529W        W 6462  27.023  25.141  10.576
42530W        W 6463  25.637   6.846   0.784
42531W        W 6464   3.314  32.526  13.937
42532W        W 6465   7.735  19.046  12.366
42533W        W 6466  28.630  16.262  11.981
42534W        W 6467  11.705  28.933   3.195
42535W        W 6468   8.366  21.541   4.116
42536W        W 6469  30.014  22.547   3.671
42537W        W 6470  20.574   4.387   2.371
42538W        W 6471   4.746  12.622   4.235
42539W        W 6472  11.350   0.829  13.374
42540W        W 6473  43.021  11.361  12.067
42541W        W 6474  22.539  13.248  12.018
42542W        W 6475  16.295   7.740  11.012
42543W        W 6476  31.935  31.113  10.444
42544W        W 6477  16.793  23.659   2.386
42545W        W 6478  24.658  22.653   3.749
42546W        W 6479  17.764  24.561  12.865
42547W        W 6480  30.932  23.006   4.687
42548W        W 6481   2.744   7.405   1.422
42549W        W 6482  15.650   4.221   0.930
42550W        W 6483   7.755   0.824   3.717
42551W        W 6484  13.128  35.470  13.355
42552W        W 6485  31.416  30.976  12.905
42553W        W 6486  19.133  24.625   5.123
42554W        W 6487  19.730  19.700  10.602
42555W        W 6488  40.035  11.841   0.433
42556W        W 6489   0.270   4.379  13.826
42557W        W 6490   6.218  34.495  12.022
42558W        W 6491   7.902   6.818   9.445
42559W        W 6492  38.554  33.088  10.944
42560W        W 6493  29.953  22.567   2.236
42561W        W 6494  34.033   7.825  12.958
42562W        W 6495  21.225  30.038   1.306
42563W        W 6496  17.766  13.659  12.078
42564W        W 6497  42.841  29.576  11.062
42565W        W 6498  33.396   0.761   4.350
42566W        W 6499  22.621   4.900   4.599
42567W        W 6500  29.069   4.734   1.754
42568W        W 6501  37.572  27.041  12.845
42569W        W 6502   3.886  16.304   3.714
42570W        W 6503  36.450  32.470  10.583
42571W        W 6504  10.214  13.130   3.782
42572W        W 6505  16.576  38.033  12.055
42573W        W 6506  18.557  35.548   4.780
42574W        W 6507  28.553  39.352   3.744
42575W        W 6508  19.102  27.629   2.220
42576W        W 6509  13.802   2.410  12.081
42577W        W 6510  27.042  19.616  10.450
42578W        W 6511   2.770  33.005  10.983
42579W        W 6512   0.916  44.843  14.405
42580W        W 6513   8.751  17.177   1.376
42581W        W 6514   1.871  11.223   3.752
42582W        W 6515  36.418  44.403   0.482
42583W        W 6516   5.855  38.450   1.888
42584W        W 6517  34.588  34.991   1.303
42585W        W 6518  39.022  27.579  10.905
42586W        W 6519   1.357  31.052   1.245
42587W        W 6520  30.938  12.221  14.817
42588W        W 6521  32.922  17.640  13.024
42589W        W 6522  31.514   5.832   0.730
42590W        W 6523  29.496   4.779  10.411
42591W        W 6524  44.878  19.558   0.747
42592W        W 6525  21.112  32.610  12.457
42593W        W 6526  37.914  12.208   3.300
42594W        W 6527  37.957  41.019  12.897
42595W        W 6528  23.059  38.002   2.761
42596W        W 6529   7.715  18.736   4.837
42597W        W 6530  19.102  17.682   2.819
42598W        W 6531  12.804   7.231  12.868
42599W        W 6532  28.629   8.785  10.917
42600W        W 6533  11.349  42.478   3.672
42601W        W 6534   1.847  43.508   2.417
42602W        W 6535  10.836  41.954   4.597
42603W        W 6536   3.776   9.731  10.902
42604W        W 6537  39.858  41.854  10.539
42605W        W 6538  40.942  34.564  14.426
42606W        W 6539   5.730  13.255   3.363
42607W        W 6540  20.647  25.120  13.976
42608W        W 6541   4.945  31.905  12.410
42609W        W 6542  12.355   3.441  11.892
42610W        W 6543   3.262  42.874  12.951
42611W        W 6544  42.819  39.515  12.925
42612W        W 6545  21.229  39.954   0.288
42613W        W 6546  35.579  22.029  12.943
42614W        W 6547  19.661   5.266   3.743
42615W        W 6548  39.839  40.036   2.367
42616W        W 6549  42.954  44.935  14.925
42617W        W 6550  24.685   6.379   3.345
42618W        W 6551   8.373  34.985  12.841
42619W        W 6552  19.673  39.346  12.051
42620W        W 6553   8.231  22.240   2.751
42621W        W 6554  37.892  15.127   2.863
42622W        W 6555  35.083  20.126   1.415
42623W        W 6556  27.611  29.042  11.030
42624W        W 6557  36.446  30.966  14.312
42625W        W 6558  42.864   3.390  14.787
42626W        W 6559  31.482  36.013  11.972
42627W        W 6560  35.973  15.733   1.317
42628W        W 6561  23.131  30.531  13.337
42629W        W 6562  33.970  40.961   3.288
42630W        W 6563  33.468  35.006  13.935
42631W        W 6564  29.547  41.011  12.521
42632W        W 6565  24.616  29.574  12.361
42633W        W 6566  29.074  43.405  12.948
42634W        W 6567  27.609  34.506  10.991
42635W        W 6568  41.949  37.012  14.277
42636W        W 6569  43.369   4.303   1.218
42637W        W 6570  17.171  26.957   5.794
42638W        W 6571  33.408   9.779  11.469
42639W        W 6572  42.979  44.976   3.364
42640W        W 6573   2.904  38.884  11.011
42641W        W 6574  14.159   6.809   2.377
42642W        W 6575   0.930  13.753  10.952
42643W        W 6576  16.743  33.519   1.245
42644W        W 6577  33.989  38.477  13.918
42645W        W 6578  22.729  15.653  13.471
42646W        W 6579  35.480   6.922  14.389
42647W        W 6580  26.581   0.312  13.980
42648W        W 6581  43.466  23.996   1.807
42649W        W 6582  27.972  32.502   2.345
42650W        W 6583  29.978  19.265  13.928
42651W        W 6584   9.706  38.976   0.268
42652W        W 6585  40.011   6.905  14.865
42653W        W 6586  40.312  21.257  10.625
42654W        W 6587  10.338   1.483   4.319
42655W        W 6588   1.429  10.193   4.294
42656W        W 6589  31.595  20.083   2.298
42657W        W 6590  41.366  44.771  14.877
42658W        W 6591   3.809  39.422  13.985
42659W        W 6592   0.434  28.175  13.962
42660W        W 6593  15.125  41.512  12.062
42661W        W 6594  20.136   1.923  13.477
42662W        W 6595  37.994  39.817   2.831
42663W        W 6596  11.702  21.221  11.604
42664W        W 6597  41.853  20.061   1.777
42665W        W 6598  37.448  12.252   1.379
42666W        W 6599  33.039   5.731   1.748
42667W        W 6600  20.528  36.443   2.224
42668W        W 6601  32.966  15.732  12.562
42669W        W 6602   1.312   3.330   2.835
42670W        W 6603   5.841  18.155  12.569
42671W        W 6604  36.539  23.154  14.975
42672W        W 6605   5.792  21.231  11.473
42673W        W 6606  30.610  25.036  10.417
42674W        W 6607   9.275   3.912  13.831
42675W        W 6608   0.469  21.161  14.476
42676W        W 6609  42.461  26.693  14.847
42677W        W 6610  26.509  15.099  14.015
42678W        W 6611  11.794  21.590  14.970
42679W        W 6612  41.905  23.506   4.187
42680W        W 6613  14.122  28.470  11.122
42681W        W 6614   5.925   4.900   2.795
42682W        W 6615  27.615  22.188   3.640
42683W        W 6616  27.067  37.075   0.952
42684W        W 6617  13.211  33.533  12.387
42685W        W 6618  42.333  41.909  13.858
42686W        W 6619  28.534  37.432   2.816
42687W        W 6620  36.933  36.943   0.741
42688W        W 6621  27.988  30.161   2.811
42689W        W 6622  40.975  21.084   2.207
42690W        W 6623  13.630  31.475  13.471
42691W        W 6624  19.655  29.666  14.918
42692W        W 6625   4.715  28.944   1.768
42693W        W 6626  41.031   8.822  11.088
42694W        W 6627  30.992  23.550   2.699
42695W        W 6628  24.088  38.533   1.826
42696W        W 6629  37.550  28.459  11.558
42697W        W 6630  27.619  19.060  12.412
42698W        W 6631  13.150   4.305  12.073
42699W        W 6632  23.152  12.304  13.847
42700W        W 6633  42.912   5.754   0.952
42701W        W 6634  30.512  24.204   0.461
42702W        W 6635  42.410  29.168  11.566
42703W        W 6636  31.140  39.449  10.607
42704W        W 6637   8.874  26.588  13.359
42705W        W 6638  15.151  11.289   0.342
42706W        W 6639  34.397  37.897   1.770
42707W        W 6640  33.596  19.568   0.790
42708W        W 6641  20.571  40.423  10.588
42709W        W 6642  27.571  26.075   4.605
42710W        W 6643   6.428  29.083  11.044
42711W        W 6644  33.875   3.343  14.899
42712W        W 6645  37.890  43.363  11.447
42713W        W 6646  16.774   3.806   1.855
42714W        W 6647  37.479  39.004   1.893
42715W        W 6648  20.178  44.362  12.908
42716W        W 6649  26.023  33.582   3.717
42717W        W 6650   4.821  17.656   1.248
42718W        W 6651   1.243  12.830   3.820
42719W        W 6652  33.571  30.104   0.367
42720W        W 6653  16.134  25.588   4.644
42721W        W 6654  30.583  35.024  14.391
42722W        W 6655  17.665  26.176   0.414
42723W        W 6656  38.571  41.859   1.227
42724W        W 6657  41.032  28.143  10.412
42725W        W 6658  18.773  19.566  14.833
42726W        W 6659   7.896  34.010  13.368
42727W        W 6660  23.231  43.993   3.657
42728W        W 6661   7.681  23.996  12.496
42729W        W 6662  30.543  14.780  11.903
42730W        W 6663  35.962  28.623   4.815
42731W        W 6664  24.517  39.010  12.894
42732W        W 6665   9.245  33.455   4.189
42733W        W 6666   0.336  28.550  12.422
42734W        W 6667   2.261   6.259  12.892
42735W        W 6668   7.712  11.288  14.835
42736W        W 6669  25.988  17.593  12.902
42737W        W 6670  15.604  19.638   4.818
42738W        W 6671  22.116  25.504  10.447
42739W        W 6672   7.404   3.321  14.936
42740W        W 6673   9.654  36.362  12.361
42741W        W 6674  14.709  15.630  11.118
42742W        W 6675  34.528  39.365   0.286
42743W        W 6676  13.291   1.883  14.298
42744W        W 6677  40.970  19.154  13.333
42745W        W 6678  15.755   1.754  14.839
42746W        W 6679  32.416   5.873  11.960
42747W        W 6680  31.987  44.455  10.511
42748W        W 6681  23.730  26.523  11.399
42749W        W 6682   5.844   5.771   2.405
42750W        W 6683  40.831  34.570   4.617
42751W        W 6684  27.118  17.201  10.521
42752W        W 6685  30.629  15.109   1.408
42753W        W 6686  15.631   1.900   3.319
42754W        W 6687   3.828   0.977   0.442
42755W        W 6688  34.519  12.239  14.278
42756W        W 6689   5.908  27.604   4.336
42757W        W 6690  42.788  12.179   0.437
42758W        W 6691  14.268  25.700  14.455
42759W        W 6692  22.219   0.462   1.928
42760W        W 6693  13.738  24.041  13.860
42761W        W 6694  40.878  33.965  13.880
42762W        W 6695  14.626  37.980   4.217
42763W        W 6696  35.516  26.663   0.816
42764W        W 6697   0.899   3.400   1.877
42765W        W 6698  11.690  41.474  12.956
42766W        W 6699  33.894  40.040   1.765
42767W        W 6700   9.706  31.129   3.299
42768W        W 6701  17.761  32.463   3.234
42769W        W 6702   0.292  40.873   3.812
42770W        W 6703  29.133  11.625   1.753
42771W        W 6704   5.913  41.806   3.707
42772W        W 6705  21.232  36.972  13.844
42773W        W 6706  21.547  25.019  14.492
42774W        W 6707  11.146  43.925  13.005
42775W        W 6708  36.427   0.274   2.356
42776W        W 6709  14.591  36.501   0.916
42777W        W 6710  25.143  16.731   0.880
42778W        W 6711  44.849  29.544   3.286
42779W        W 6712  25.071   1.879  12.020
42780W        W 6713  29.647  17.686   1.911
42781W        W 6714  19.122  32.084   1.411
42782W        W 6715  28.053  35.915  12.549
42783W        W 6716   2.345   3.435   1.930
42784W        W 6717  18.156  30.990  11.521
42785W        W 6718   4.820   6.834  14.440
42786W        W 6719  41.480  38.940   4.775
42787W        W 6720   9.763  33.927  13.399
42788W        W 6721  20.172  44.501   1.752
42789W        W 6722  35.573  14.269  11.461
42790W        W 6723  21.087  31.060   1.319
42791W        W 6724  44.776  20.695   3.218
42792W        W 6725  23.685  36.487  12.370
42793W        W 6726  25.714  14.275   0.470
42794W        W 6727  13.246  20.589  11.380
42795W        W 6728  24.020  17.140  10.414
42796W        W 6729  41.337  34.448   3.764
42797W        W 6730  17.110   8.758  10.962
42798W        W 6731  29.935  18.233   1.259
42799W        W 6732   9.849  23.237   4.693
42800W        W 6733  31.619  44.265   4.771
42801W        W 6734  43.516  10.784  12.907
42802W        W 6735  26.537  14.144  12.966
42803W        W 6736  35.585   6.217  12.013
42804W        W 6737  31.457  20.034  11.932
42805W        W 6738  38.387  31.442   2.334
42806W        W 6739  44.910  11.726   2.239
42807W        W 6740  24.227   3.282  10.609
42808W        W 6741  22.145   0.778  12.914
42809W        W 6742   6.784  28.164   2.411
42810W        W 6743   2.260   2.402  11.383
42811W        W 6744  19.090  33.502   0.941
42812W        W 6745  13.774  43.789   0.870
42813W        W 6746  29.989  39.405  11.595
42814W        W 6747  28.031  20.768  12.940
42815W        W 6748  36.970  22.202  12.992
42816W        W 6749   7.243  16.599   2.230
42817W        W 6750  30.574  23.495   4.624
42818W        W 6751   8.216  40.346  12.486
42819W        W 6752  22.556   8.397   1.765
42820W        W 6753  17.581  30.155  12.495
42821W        W 6754  43.901  30.461  10.977
42822W        W 6755  12.718   7.838   3.350
42823W        W 6756  38.464  37.869  14.498
42824W        W 6757  28.513  41.845   1.902
42825W        W 6758  33.925  32.553  11.879
42826W        W 6759  31.138  42.831   3.327
42827W        W 6760  17.707  16.125   3.724
42828W        W 6761  32.116  20.546  10.463
42829W        W 6762  17.627  43.348   4.730
42830W        W 6763   6.283  13.669   5.646
42831W        W 6764  10.841  38.912  13.062
42832W        W 6765  44.272  29.964  11.583
42833W        W 6766  38.395   5.327   4.257
42834W        W 6767   9.712  34.874  13.901
42835W        W 6768  10.194  32.059  11.571
42836W        W 6769  12.232  29.639   4.238
42837W        W 6770  23.079  42.005  12.383
42838W        W 6771  14.629   6.308   0.427
42839W        W 6772  36.953   4.931  12.014
42840W        W 6773  10.175  28.518   0.871
42841W        W 6774  41.327  34.880  14.802
42842W        W 6775  37.372  44.803   1.752
42843W        W 6776  19.244  22.205  14.877
42844W        W 6777   8.287  33.383   4.290
42845W        W 6778  25.992   1.821   4.656
42846W        W 6779   8.788  33.932   0.265
42847W        W 6780  33.977  34.059  12.441
42848W        W 6781   3.915   9.782   1.875
42849W        W 6782   9.828   7.666   1.885
42850W        W 6783  38.951  37.083   4.131
42851W        W 6784  18.097   1.295  11.508
42852W        W 6785  33.995  14.818  14.821
42853W        W 6786  44.272   3.258   2.903
42854W        W 6787  36.866  15.136   1.704
42855W        W 6788  33.035  34.489  10.901
42856W        W 6789  14.626  11.149   3.791
42857W        W 6790   1.380   6.718   0.273
42858W        W 6791  20.751  38.956   1.857
42859W        W 6792  10.296   2.279   9.934
42860W        W 6793  13.215   9.173   0.839
42861W        W 6794  11.193  24.008   3.374
42862W        W 6795  34.084  25.499  14.814
42863W        W 6796  43.483  17.289  10.957
42864W        W 6797  34.506  14.828  10.966
42865W        W 6798   2.388  26.549   0.796
42866W        W 6799  15.181   6.260  12.931
42867W        W 6800  40.939  44.385   2.684
42868W        W 6801  10.766  44.815   0.884
42869W        W 6802  14.619   3.733  10.465
42870W        W 6803  18.091  23.188  12.044
42871W        W 6804  38.011  31.599   0.445
42872W        W 6805  18.280   8.373  12.933
42873W        W 6806  28.459  30.610   2.688
42874W        W 6807  42.881   8.838  14.342
42875W        W 6808  34.058  17.784   2.746
42876W        W 6809  39.449  11.358  11.967
42877W        W 6810  29.528   2.724   0.383
42878W        W 6811  16.671  24.501  12.026
42879W        W 6812   7.195  36.548  11.941
42880W        W 6813  16.592  29.451  11.415
42881W        W 6814  44.001  20.624   3.687
42882W        W 6815  25.591  20.247  14.378
42883W        W 6816  22.028  43.833  13.411
42884W        W 6817  26.520   9.291   0.734
42885W        W 6818   1.974  23.574  13.377
42886W        W 6819  35.536   7.206  11.036
42887W        W 6820  44.845   0.892   2.804
42888W        W 6821  24.583  15.668  11.089
42889W        W 6822  12.837  14.602  14.343
42890W        W 6823   3.745  43.879  13.943
42891W        W 6824  19.632  12.187   4.277
42892W        W 6825  41.890  32.942   2.414
42893W        W 6826  17.127  12.322  13.326
42894W        W 6827   2.765  23.497  12.870
42895W        W 6828  14.684  40.833  11.033
42896W        W 6829  38.938  40.412  14.777
42897W        W 6830  22.725   7.251   0.816
42898W        W 6831  14.287  11.725  12.495
42899W        W 6832  42.933  21.210   0.477
42900W        W 6833  15.641  20.767  14.024
42901W        W 6834  25.148  39.426  14.953
42902W        W 6835  34.072   0.413   3.345
42903W        W 6836  28.526   9.394  13.875
42904W        W 6837   1.308   1.791  14.859
42905W        W 6838  18.059  29.134  12.004
42906W        W 6839  16.631  27.480  11.018
42907W        W 6840  13.759  18.082   3.292
42908W        W 6841   7.839   0.280   4.826
42909W        W 6842  36.548   0.427  14.910
42910W        W 6843  33.608  25.588   1.226
42911W        W 6844   2.933  25.684  14.998
42912W        W 6845  13.740  35.970   3.736
42913W        W 6846   8.386  32.127  14.774
42914W        W 6847  32.085  16.604  12.924
42915W        W 6848   5.774  37.917  10.993
42916W        W 6849   4.884  26.186   2.226
42917W        W 6850  14.317  33.892   0.255
42918W        W 6851   5.808   1.411   0.412
42919W        W 6852  17.654  13.661  14.022
42920W        W 6853  14.803  14.640   3.658
42921W        W 6854  33.387   4.251  10.976
42922W        W 6855   5.304   3.883  11.028
42923W        W 6856  36.998  11.748   2.773
42924W        W 6857  17.253  15.130   4.301
42925W        W 6858  19.739   0.474   2.822
42926W        W 6859  11.758   2.907   0.802
42927W        W 6860   3.311  18.121   3.230
42928W        W 6861  19.073  34.476  11.605
42929W        W 6862  29.578  11.373   0.734
42930W        W 6863  23.705  31.645   3.246
42931W        W 6864   7.813  17.144   2.867
42932W        W 6865  10.266  24.977  14.360
42933W        W 6866  42.355   5.906   0.770
42934W        W 6867  32.924  10.740  12.478
42935W        W 6868   0.945  28.651   4.694
42936W        W 6869  14.267  28.159   2.251
42937W        W 6870  44.957   0.765   4.831
42938W        W 6871  33.563  29.534   2.834
42939W        W 6872   2.227  39.979  12.479
42940W        W 6873  35.428  32.572   2.856
42941W        W 6874  41.376  29.656   1.285
42942W        W 6875   0.950   9.165  13.957
42943W        W 6876  44.463  35.431   1.439
42944W        W 6877  21.219  39.000   2.867
42945W        W 6878  15.128  42.304  13.003
42946W        W 6879   2.382  23.060  12.447
42947W        W 6880  11.141  39.993  11.610
42948W        W 6881  23.705   1.246  11.594
42949W        W 6882  35.379   8.180  14.022
42950W        W 6883  16.313   0.315   1.918
42951W        W 6884  26.561  34.478  10.001
42952W        W 6885  25.068  37.485   4.601
42953W        W 6886  13.609   8.258  10.922
42954W        W 6887   3.409  12.331  10.990
42955W        W 6888  26.683  19.571   3.764
42956W        W 6889  34.487   6.737   3.865
42957W        W 6890   7.331   7.402   1.901
42958W        W 6891  11.762  14.667   0.792
42959W        W 6892  30.535  36.055   3.146
42960W        W 6893  25.112   2.232  14.438
42961W        W 6894  11.705  11.624  10.417
42962W        W 6895  34.573  33.461  10.467
42963W        W 6896  43.500   1.447  10.523
42964W        W 6897  33.439   2.752   4.739
42965W        W 6898   5.733   6.832   2.785
42966W        W 6899  26.160   9.355   3.682
42967W        W 6900  30.482   2.415  11.976
42968W        W 6901  37.920  25.637  13.343
42969W        W 6902   3.243  12.148   1.309
42970W        W 6903  34.009  34.538   0.831
42971W        W 6904  25.475  34.071   0.901
42972W        W 6905   6.831  41.386  11.415
42973W        W 6906  27.078  31.013   3.737
42974W        W 6907  12.696   9.872  14.410
42975W        W 6908  34.930   6.834   0.316
42976W        W 6909  19.219  38.370   1.305
42977W        W 6910  32.416   2.462   2.854
42978W        W 6911   9.229  14.786   0.764
42979W        W 6912  28.143  25.149  10.488
42980W        W 6913  37.080  31.992   4.796
42981W        W 6914  42.497  36.593   2.368
42982W        W 6915   5.806  42.301  10.509
42983W        W 6916   8.892  16.160  12.869
42984W        W 6917  42.961   2.453   1.403
42985W        W 6918  41.975  33.956   0.732
42986W        W 6919  27.628  29.165  14.338
42987W        W 6920  19.780  29.639  13.508
42988W        W 6921  24.098  17.667   3.630
42989W        W 6922  10.223  17.080  14.409
42990W        W 6923   8.754   1.871  11.604
42991W        W 6924  18.161  16.284   9.597
42992W        W 6925  28.151  44.768  14.491
42993W        W 6926  21.590  10.874   1.873
42994W        W 6927  18.667  29.627  14.775
42995W        W 6928  10.186  21.629  12.348
42996W        W 6929  28.476   6.379  12.463
42997W        W 6930  21.724  18.201  12.402
42998W        W 6931  21.072  11.364   3.364
42999W        W 6932  29.497  24.173  10.562
43000W        W 6933  23.090  41.953  14.339
43001W        W 6934  17.200  43.014  13.531
43002W        W 6935  22.030  12.270   3.836
43003W        W 6936  33.565  39.468  12.079
43004W        W 6937  33.432  16.684   1.746
43005W        W 6938   6.699   6.344  10.910
43006W        W 6939  40.886  17.305  12.535
43007W        W 6940   6.328  26.965   1.326
43008W        W 6941  31.475  24.981   0.317
43009W        W 6942  12.661  40.906  13.506
43010W        W 6943  17.299   4.369   4.828
43011W        W 6944  36.370  36.392   3.807
43012W        W 6945  16.186  27.649   4.224
43013W        W 6946  30.024  35.546   4.284
43014W        W 6947  28.020  25.638  10.918
43015W        W 6948  39.877  15.811  11.973
43016W        W 6949   3.290   9.230  12.389
43017W        W 6950   8.343  22.572   2.684
43018W        W 6951  44.961  12.808   1.369
43019W        W 6952  23.140  20.736  10.917
43020W        W 6953  29.943  20.148  10.933
43021W        W 6954  33.964  40.348  11.544
43022W        W 6955  38.426  29.055   2.382
43023W        W 6956  15.161   6.340  11.879
43024W        W 6957  23.169   0.975  14.496
43025W        W 6958  33.420  16.225  13.370
43026W        W 6959  39.549  42.012   1.797
43027W        W 6960   1.805  16.131   0.290
43028W        W 6961   0.957  15.625   4.273
43029W        W 6962  42.447  26.131   2.223
43030W        W 6963  27.462   9.159   4.786
43031W        W 6964   3.284  25.507   5.226
43032W        W 6965   1.343  33.940  13.471
43033W        W 6966  12.635  44.998   0.726
43034W        W 6967  16.616  36.875  10.614
43035W        W 6968  20.263  25.157  13.534
43036W        W 6969   3.927  24.555   2.316
43037W        W 6970  12.116  42.931  11.869
43038W        W 6971  31.900  40.429   3.276
43039W        W 6972  27.076  39.337   2.405
43040W        W 6973  38.327  11.256   4.701
43041W        W 6974  33.454  34.020  12.484
43042W        W 6975  16.568  32.544  11.390
43043W        W 6976  10.751  18.129  14.887
43044W        W 6977  30.051  29.630  14.812
43045W        W 6978  24.603  30.038   2.710
43046W        W 6979   5.903   9.297  14.934
43047W        W 6980   7.752  11.368  13.318
43048W        W 6981   1.927  31.112  14.381
43049W        W 6982   5.769  43.827   0.956
43050W        W 6983  19.711  41.910  11.549
43051W        W 6984  18.137  14.648   1.348
43052W        W 6985  32.065  42.465   2.849
43053W        W 6986  33.066  36.433  12.033
43054W        W 6987  25.997  27.463   3.792
43055W        W 6988  24.175  23.019  13.458
43056W        W 6989  17.709  10.229  11.076
43057W        W 6990  19.535  21.260   4.199
43058W        W 6991  29.617  30.507   2.682
43059W        W 6992  39.552  41.010  11.094
43060W        W 6993  18.666  27.163   2.346
43061W        W 6994  23.150  28.155  12.973
43062W        W 6995   0.823  40.340  10.579
43063W        W 6996  36.846  34.984   4.634
43064W        W 6997  19.114  38.912  14.298
43065W        W 6998  40.355  37.443  13.874
43066W        W 6999  41.352  18.223   3.847
43067W        W 7000   1.842  15.745  13.913
43068W        W 7001  39.837   2.259  14.835
43069W        W 7002  10.319  42.937   2.374
43070W        W 7003   8.295  30.515   3.842
43071W        W 7004   2.345  33.474  12.413
43072W        W 7005  17.731  30.635   2.408
43073W        W 7006  35.446  20.192   0.754
43074W        W 7007  34.409  31.541  14.844
43075W        W 7008   9.686  14.625   2.764
43076W        W 7009  34.041  35.078   1.387
43077W        W 7010  22.166   1.470   1.764
43078W        W 7011  17.740  39.838  11.914
43079W        W 7012  13.717  12.362  12.426
43080W        W 7013  41.848  38.970   1.403
43081W        W 7014   3.787   4.899  13.369
43082W        W 7015  39.526   4.336  12.578
43083W        W 7016  38.519  33.990   4.339
43084W        W 7017  21.676  43.381  12.032
43085W        W 7018  21.227  12.725   2.756
43086W        W 7019  15.221  36.895   1.413
43087W        W 7020  37.965   1.957   0.956
43088W        W 7021  33.536  41.997  10.608
43089W        W 7022  21.253  33.017   3.197
43090W        W 7023  27.606  21.543   3.766
43091W        W 7024   0.321  24.122   2.187
43092W        W 7025   4.249  23.007  12.382
43093W        W 7026  29.480  35.958   1.213
43094W        W 7027  43.442  18.731  10.412
43095W        W 7028  39.934  20.582  14.020
43096W        W 7029  38.338   6.862   1.312
43097W        W 7030   7.266   4.929   1.283
43098W        W 7031  20.769  26.594  14.973
43099W        W 7032  19.734  31.505  13.864
43100W        W 7033  23.114  31.041   2.207
43101W        W 7034  44.340  33.487  12.493
43102W        W 7035   1.477   6.721  14.980
43103W        W 7036  31.082  19.612   4.311
43104W        W 7037  29.058  28.011   0.376
43105W        W 7038  22.153  32.600   1.353
43106W        W 7039   6.275  19.635   9.971
43107W        W 7040  35.055  40.385   4.235
43108W        W 7041  38.491  30.095   1.713
43109W        W 7042   3.277  17.217  12.955
43110W        W 7043   9.161  39.394   1.247
43111W        W 7044   0.398  18.602  10.522
43112W        W 7045  34.537  30.973  12.959
43113W        W 7046  39.948   8.183   1.451
43114W        W 7047  22.252   2.334  12.985
43115W        W 7048  11.233  10.182  12.844
43116W        W 7049  34.932  36.573   4.824
43117W        W 7050  33.559  38.345  10.157
43118W        W 7051  42.859  30.631   1.881
43119W        W 7052  33.083   3.436  14.914
43120W        W 7053  27.641   4.799  10.454
43121W        W 7054  29.058  38.842  12.343
43122W        W 7055  31.133   7.848  11.986
43123W        W 7056  14.210  32.509  11.092
43124W        W 7057  13.730  18.759   0.838
43125W        W 7058  22.104  40.012  12.094
43126W        W 7059  38.061  44.406  11.111
43127W        W 7060  44.778   3.419   1.707
43128W        W 7061  10.693  30.559   0.347
43129W        W 7062   8.679  36.869   0.860
43130W        W 7063  37.521  42.445   0.809
43131W        W 7064  36.899   9.885   2.193
43132W        W 7065  18.057   3.728   3.196
43133W        W 7066  29.004   0.962  14.847
43134W        W 7067  34.475   2.783   4.272
43135W        W 7068  17.753  35.562  11.503
43136W        W 7069   0.488  16.583   0.906
43137W        W 7070   5.305  21.514   3.654
43138W        W 7071  37.487  29.918  13.379
43139W        W 7072  30.463  21.086  14.304
43140W        W 7073  43.806  43.336  14.334
43141W        W 7074  43.994  41.398  13.922
43142W        W 7075  40.812  28.530  10.970
43143W        W 7076  30.483  40.983   3.236
43144W        W 7077  37.349   5.765  14.426
43145W        W 7078   5.224   4.717   5.304
43146W        W 7079  27.630  42.395   0.286
43147W        W 7080  43.377   2.928   4.206
43148W        W 7081   3.344  38.420  13.485
43149W        W 7082  26.156  19.134   4.261
43150W        W 7083  12.792   2.940  11.112
43151W        W 7084  44.337  36.003   1.438
43152W        W 7085  18.761   9.223   1.698
43153W        W 7086  10.179  27.630   1.891
43154W        W 7087  40.456  20.701  12.533
43155W        W 7088  40.490   5.293   1.884
43156W        W 7089   1.888  35.095   0.422
43157W        W 7090   9.267  33.884  14.955
43158W        W 7091  44.779  34.386  10.981
43159W        W 7092   7.262  35.571  12.404
43160W        W 7093  13.223  23.171  14.947
43161W        W 7094  43.399  34.000   0.272
43162W        W 7095  41.327   9.705  13.338
43163W        W 7096  16.740  18.217   3.662
43164W        W 7097  28.979  33.541  12.843
43165W        W 7098  41.968  12.657   2.339
43166W        W 7099  31.634   1.252   1.415
43167W        W 7100  38.010  19.706  11.944
43168W        W 7101   3.395  33.948   0.349
43169W        W 7102  12.262  37.841  14.827
43170W        W 7103   2.908  14.589   9.950
43171W        W 7104   9.221  22.143   0.274
43172W        W 7105  37.419   5.322   0.788
43173W        W 7106  35.429   9.747  13.029
43174W        W 7107   0.290  38.499   3.720
43175W        W 7108   3.870  29.979  12.394
43176W        W 7109  29.113  30.914  12.896
43177W        W 7110  26.686  10.325   0.774
43178W        W 7111  14.176  41.537   1.376
43179W        W 7112  27.685   6.247  12.858
43180W        W 7113   5.247  25.185  13.401
43181W        W 7114  26.519   1.896   0.315
43182W        W 7115   7.179  15.147  14.516
43183W        W 7116  20.733  13.283   4.335
43184W        W 7117  44.769  13.121  13.932
43185W        W 7118  15.686  41.849   1.331
43186W        W 7119  17.574   0.969  14.504
43187W        W 7120  14.210   2.414  10.406
43188W        W 7121  28.616  29.025  14.848
43189W        W 7122  34.020  36.556   3.776
43190W        W 7123  18.261  34.945   4.129
43191W        W 7124  26.624  30.973  10.504
43192W        W 7125   6.719  41.422   2.847
43193W        W 7126  30.533  37.024   1.257
43194W        W 7127  27.118  24.546   2.398
43195W        W 7128  38.047  34.041   4.807
43196W        W 7129  31.589  31.515  11.497
43197W        W 7130  23.502  21.581   3.206
43198W        W 7131  11.210  40.021   1.867
43199W        W 7132  39.986  34.088   4.656
43200W        W 7133   6.838  23.682   3.241
43201W        W 7134   2.853   7.712  11.556
43202W        W 7135  42.431   3.230  12.572
43203W        W 7136  44.312  23.234  10.958
43204W        W 7137  19.611   0.919   0.481
43205W        W 7138  27.997   8.247   4.798
43206W        W 7139   2.963   0.961   4.646
43207W        W 7140  27.123  30.634   2.400
43208W        W 7141  26.957   0.935  10.125
43209W        W 7142  35.428   1.792  12.870
43210W        W 7143   4.346  42.889   3.351
43211W        W 7144   3.439  31.962  13.982
43212W        W 7145   3.773  15.324  13.320
43213W        W 7146  22.138  35.395  13.974
43214W        W 7147  40.324   1.253  14.988
43215W        W 7148  31.482   3.346   2.197
43216W        W 7149  17.282  26.054  11.872
43217W        W 7150  43.483  43.336  12.479
43218W        W 7151  17.175   2.303   5.305
43219W        W 7152  16.117  28.443  11.065
43220W        W 7153  38.040  13.237   3.351
43221W        W 7154  21.145   2.423  11.007
43222W        W 7155  13.125  15.613   0.299
43223W        W 7156   2.775  29.023  10.516
43224W        W 7157  34.119  26.678  13.511
43225W        W 7158   1.308  33.000  11.605
43226W        W 7159  20.751   0.778   4.693
43227W        W 7160  34.972  14.184  13.922
43228W        W 7161  27.497   5.420  13.515
43229W        W 7162  39.429   5.368  14.781
43230W        W 7163   5.803  13.711   1.790
43231W        W 7164  10.338  30.124  12.917
43232W        W 7165  43.799   2.954   2.824
43233W        W 7166  27.624  15.264  11.396
43234W        W 7167  33.981  21.569  12.504
43235W        W 7168  38.983  12.669   3.701
43236W        W 7169  38.415  19.770   1.210
43237W        W 7170  14.778  33.480   3.187
43238W        W 7171  32.099  26.015   4.270
43239W        W 7172  14.128  12.326  13.931
43240W        W 7173  25.099  13.217  11.533
43241W        W 7174  10.212   4.409  12.050
43242W        W 7175  25.976  40.839   3.267
43243W        W 7176  30.546   4.249   2.410
43244W        W 7177  30.945  31.493  12.941
43245W        W 7178  14.706  13.723  13.794
43246W        W 7179  14.739  12.124  12.997
43247W        W 7180  42.371  29.589  12.387
43248W        W 7181  16.245  15.702   0.896
43249W        W 7182   0.842   1.410  11.085
43250W        W 7183  28.626   0.484   4.216
43251W        W 7184  34.576  30.940  13.996
43252W        W 7185  38.003   0.441  13.462
43253W        W 7186  18.745   9.643   3.219
43254W        W 7187  17.667  30.029  11.443
43255W        W 7188  17.585  16.632  14.843
43256W        W 7189  14.647   9.244  11.454
43257W        W 7190  32.104  37.483   2.714
43258W        W 7191  24.600   9.197  12.579
43259W        W 7192  25.615  17.106   1.350
43260W        W 7193   6.732  24.193   1.254
43261W        W 7194  41.979   5.308   2.877
43262W        W 7195  32.435  27.502  11.932
43263W        W 7196  42.884   9.844   0.935
43264W        W 7197  21.756  12.735   4.174
43265W        W 7198  17.197  24.982   4.214
43266W        W 7199  14.150  37.834  10.425
43267W        W 7200  40.855  31.084   3.323
43268W        W 7201   3.810  35.912   4.633
43269W        W 7202   0.817  27.011   1.861
43270W        W 7203  33.965  30.498  10.933
43271W        W 7204  20.203  42.985  13.808
43272W        W 7205  27.495  38.334  11.402
43273W        W 7206  29.020   5.882  14.318
43274W        W 7207  33.078  18.227   2.719
43275W        W 7208  42.420   9.825   4.661
43276W        W 7209  19.071  13.189   2.250
43277W        W 7210  31.446   1.963  14.988
43278W        W 7211   2.267  25.589  14.832
43279W        W 7212  35.975  13.750   2.313
43280W        W 7213  40.378  23.719  13.981
43281W        W 7214   7.204  25.628   3.863
43282W        W 7215   9.889  16.634   4.734
43283W        W 7216   5.770  22.655  11.436
43284W        W 7217  29.967  28.027   3.318
43285W        W 7218  15.780  15.771   2.290
43286W        W 7219   5.813  31.072  13.544
43287W        W 7220  15.305  18.609   0.252
43288W        W 7221  32.626  13.173  14.994
43289W        W 7222  39.819  15.741  14.952
43290W        W 7223  35.954   8.762   2.790
43291W        W 7224  27.966  25.055   0.830
43292W        W 7225  19.551  42.779   1.282
43293W        W 7226  28.998  26.659  10.460
43294W        W 7227  21.604  33.391   2.737
43295W        W 7228  43.322  23.230  12.925
43296W        W 7229  15.577   2.246   0.437
43297W        W 7230  44.953  36.515   4.342
43298W        W 7231  36.418  23.238  14.011
43299W        W 7232   0.961  36.581  11.985
43300W        W 7233  44.997   3.847   0.299
43301W        W 7234  42.812  29.137  11.012
43302W        W 7235  36.356  35.524   2.417
43303W        W 7236  32.521   2.818   3.810
43304W        W 7237  24.075  10.733  14.310
43305W        W 7238  29.549  40.527  10.515
43306W        W 7239  20.170  34.486   0.872
43307W        W 7240  42.287   7.367   1.365
43308W        W 7241  16.738  41.990   2.828
43309W        W 7242  38.510  25.681   3.723
43310W        W 7243  13.842  20.596   0.243
43311W        W 7244  13.339  23.540   9.966
43312W        W 7245  18.765   9.843  14.819
43313W        W 7246  24.123  35.473  13.452
43314W        W 7247   8.666  38.455  11.518
43315W        W 7248   2.466  13.108   0.300
43316W        W 7249  41.804  38.942  10.536
43317W        W 7250  26.653  42.426   9.948
43318W        W 7251  44.873  35.939  11.576
43319W        W 7252  23.189  26.479  13.976
43320W        W 7253   9.709  13.789  11.534
43321W        W 7254  14.787  31.610  11.581
43322W        W 7255  38.008  36.026   2.267
43323W        W 7256  12.696  39.828  13.038
43324W        W 7257  32.122  29.950   2.248
43325W        W 7258  14.611   8.305   2.264
43326W        W 7259   5.709   9.285   0.253
43327W        W 7260  33.408  18.102  14.000
43328W        W 7261  34.973  31.023  13.474
43329W        W 7262  39.490   7.276   4.807
43330W        W 7263  43.476   8.840  14.298
43331W        W 7264   7.902  27.580   1.275
43332W        W 7265  20.679   5.859   0.369
43333W        W 7266  16.312   6.793   2.865
43334W        W 7267  17.159  32.011  10.491
43335W        W 7268  11.350  21.079   0.922
43336W        W 7269  12.311   2.958   4.171
43337W        W 7270  29.075  26.002  12.574
43338W        W 7271  39.905  12.197  14.502
43339W        W 7272  15.617  23.165  14.364
43340W        W 7273  29.457  37.834  14.844
43341W        W 7274  32.495  33.561   3.298
43342W        W 7275  36.999  41.953  13.330
43343W        W 7276  16.273   4.901   0.890
43344W        W 7277  15.300  33.596  11.444
43345W        W 7278   0.464  14.167  11.106
43346W        W 7279  22.558  38.389   2.858
43347W        W 7280  29.593  13.813  10.540
43348W        W 7281  30.950  15.086   1.305
43349W        W 7282   4.280  39.449  12.398
43350W        W 7283  28.967  31.444  11.421
43351W        W 7284  32.417   5.753   2.706
43352W        W 7285  37.341  15.145  13.791
43353W        W 7286  23.042  43.780   1.373
43354W        W 7287  31.956  30.423  11.925
43355W        W 7288  42.020  32.965  13.037
43356W        W 7289  35.590  20.080  10.609
43357W        W 7290  12.732  28.163   5.195
43358W        W 7291  41.010  32.408   4.128
43359W        W 7292  17.755   6.401   2.715
43360W        W 7293  22.194  20.572   2.401
43361W        W 7294  25.540  42.332  12.550
43362W        W 7295  28.468  39.550  10.531
43363W        W 7296   9.266  15.811  14.826
43364W        W 7297  29.084  15.689  13.488
43365W        W 7298   9.774  20.042  10.580
43366W        W 7299  37.578  30.920  14.828
43367W        W 7300  32.912  25.645  12.956
43368W        W 7301  43.773  33.390  13.854
43369W        W 7302  22.019  13.214  12.851
43370W        W 7303   7.827   7.689  11.421
43371W        W 7304  20.233  36.882  14.954
43372W        W 7305  23.070  41.524   0.769
43373W        W 7306  33.928  39.537   2.751
43374W        W 7307  13.134   6.831   1.448
43375W        W 7308  20.187  27.967  11.886
43376W        W 7309  19.102  25.627  11.538
43377W        W 7310   7.387  44.805  14.955
43378W        W 7311  21.713  29.453   0.407
43379W        W 7312  37.980   7.334  14.457
43380W        W 7313  35.977   0.484   0.931
43381W        W 7314  19.121  18.652   3.346
43382W        W 7315  14.332  44.423   1.900
43383W        W 7316  27.022  13.724   1.799
43384W        W 7317  23.163   6.917   0.377
43385W        W 7318   2.859  42.285   0.815
43386W        W 7319  21.168  20.211   2.401
43387W        W 7320   8.894  24.630   0.728
43388W        W 7321  43.810  30.038  11.482
43389W        W 7322  12.617  44.388   2.778
43390W        W 7323  15.238   3.787  13.965
43391W        W 7324  37.513  33.974   3.722
43392W        W 7325  23.629  40.321  13.808
43393W        W 7326   3.270  40.427  11.855
43394W        W 7327  13.269  32.580   1.778
43395W        W 7328  15.820   0.955   4.341
43396W        W 7329  16.298  23.117   1.786
43397W        W 7330  37.982   0.912  11.119
43398W        W 7331  19.141   0.983   4.726
43399W        W 7332  15.286  42.810   1.904
43400W        W 7333  44.432  11.691  13.893
43401W        W 7334   6.325  24.147   0.471
43402W        W 7335   5.799  39.361  12.931
43403W        W 7336  27.666  29.034  10.413
43404W        W 7337   0.845   6.922   0.400
43405W        W 7338  23.616  25.038  13.879
43406W        W 7339  42.507  10.698   3.209
43407W        W 7340  38.981  20.203   4.266
43408W        W 7341  41.838  11.224  12.943
43409W        W 7342  37.037  29.019   4.808
43410W        W 7343  36.424  38.376   3.711
43411W        W 7344  11.299  18.621  12.534
43412W        W 7345  13.778  13.792   2.844
43413W        W 7346  40.376  27.535  11.014
43414W        W 7347  40.445  27.125   4.336
43415W        W 7348  13.666  24.570   0.251
43416W        W 7349   3.892  19.096   0.244
43417W        W 7350  34.896   5.365  11.565
43418W        W 7351  39.837  29.039   2.351
43419W        W 7352  44.490  27.552  12.940
43420W        W 7353  42.332   6.345  13.431
43421W        W 7354  36.954  10.642   3.792
43422W        W 7355  33.625  30.961   4.790
43423W        W 7356  36.505   4.419   0.812
43424W        W 7357  37.438  16.722  10.143
43425W        W 7358  42.522   7.909  10.547
43426W        W 7359  18.760  31.614  10.899
43427W        W 7360  22.995  11.794  11.122
43428W        W 7361  39.529   9.150   1.774
43429W        W 7362  17.112   3.425  11.525
43430W        W 7363   0.965  16.666  11.897
43431W        W 7364  38.825   4.920  14.448
43432W        W 7365  29.543  22.601   1.878
43433W        W 7366  26.601  11.348   9.637
43434W        W 7367  41.419  27.653   2.278
43435W        W 7368  22.030   7.200   2.773
43436W        W 7369  30.519  40.897   0.353
43437W        W 7370  44.820   6.812   0.401
43438W        W 7371  34.554  22.699   3.769
43439W        W 7372  42.833  32.055   3.304
43440W        W 7373  39.513  29.141   4.664
43441W        W 7374   6.681  35.589   3.810
43442W        W 7375  34.103  40.533  14.916
43443W        W 7376   3.805  17.745   4.743
43444W        W 7377   1.945  27.004  12.869
43445W        W 7378  10.762   0.889   0.477
43446W        W 7379  23.182  38.073   1.915
43447W        W 7380  44.331  31.076   0.256
43448W        W 7381  20.196  41.294   5.269
43449W        W 7382  43.446  11.687   4.737
43450W        W 7383  32.618  30.162   2.287
43451W        W 7384  21.575   7.226   0.299
43452W        W 7385   4.845  34.077  10.582
43453W        W 7386  36.854  26.456  14.875
43454W        W 7387   6.809  35.408  11.073
43455W        W 7388  28.651  16.593  13.884
43456W        W 7389  34.533  34.581   3.708
43457W        W 7390  40.535  27.014   2.742
43458W        W 7391  39.829   7.249  12.447
43459W        W 7392  40.810  27.002   0.281
43460W        W 7393  24.570   6.416   1.829
43461W        W 7394  11.656   7.379  13.362
43462W        W 7395   7.251  21.670  11.453
43463W        W 7396  30.485  41.957   1.423
43464W        W 7397  14.660  19.675   1.362
43465W        W 7398   1.328  15.101   9.513
43466W        W 7399  35.551  22.732   3.801
43467W        W 7400  16.810  44.895  13.970
43468W        W 7401  37.917   7.873   3.797
43469W        W 7402  20.240   0.828  13.975
43470W        W 7403  25.635  14.128  14.967
43471W        W 7404  18.134  30.605  11.914
43472W        W 7405  28.028  10.315   3.293
43473W        W 7406  18.569   5.759  14.389
43474W        W 7407  29.929  33.130  11.007
43475W        W 7408  19.564   9.650  14.469
43476W        W 7409   6.262  30.135  14.985
43477W        W 7410  43.276  30.530  10.960
43478W        W 7411  32.003  44.310   0.402
43479W        W 7412  32.066  26.074  13.352
43480W        W 7413   4.331  40.385  13.792
43481W        W 7414  25.061   6.857   0.249
43482W        W 7415  41.298  23.040   0.848
43483W        W 7416  24.071  41.320   4.295
43484W        W 7417  36.524  37.962   2.893
43485W        W 7418  19.177  13.193  10.529
43486W        W 7419   2.746   8.687   2.732
43487W        W 7420  11.225  37.925   1.930
43488W        W 7421  29.944  17.090   2.718
43489W        W 7422  29.971   9.384  10.423
43490W        W 7423  13.691   6.920  12.927
43491W        W 7424   4.381  35.891  13.926
43492W        W 7425  26.650  16.094  14.024
43493W        W 7426  38.931  21.574  10.957
43494W        W 7427  11.703  10.792  14.899
43495W        W 7428  43.373  24.019   4.347
43496W        W 7429  33.880  25.068  14.355
43497W        W 7430  31.603  36.969   3.170
43498W        W 7431  28.109   7.753  14.369
43499W        W 7432  35.480  12.306   4.256
43500W        W 7433  44.756  13.314   0.433
43501W        W 7434  23.086  10.159   3.386
43502W        W 7435   3.839  16.747  13.817
43503W        W 7436  41.373  14.174  13.335
43504W        W 7437   5.798  34.957  13.802
43505W        W 7438  23.513  10.718  14.295
43506W        W 7439  24.705  23.581   2.332
43507W        W 7440  23.572   5.389   1.694
43508W        W 7441  40.986  29.665  11.119
43509W        W 7442  27.574   1.872  11.108
43510W        W 7443  17.645  34.530  14.393
43511W        W 7444  22.731  29.105  13.861
43512W        W 7445  41.344   3.814  12.426
43513W        W 7446   1.323  10.288  12.354
43514W        W 7447  36.942   3.802  11.483
43515W        W 7448   5.713  33.040   0.966
43516W        W 7449  44.290  15.231   4.807
43517W        W 7450  35.464   9.364  10.500
43518W        W 7451  13.302  14.749   1.301
43519W        W 7452  34.585  44.494  12.839
43520W        W 7453  24.601  40.433   1.815
43521W        W 7454  43.510   0.272   0.941
43522W        W 7455  39.462   4.728   0.749
43523W        W 7456  24.227  17.598  12.459
43524W        W 7457  33.391  20.264  10.531
43525W        W 7458  25.474  20.161   3.332
43526W        W 7459  44.897  28.513  10.951
43527W        W 7460  10.350  38.393  14.032
43528W        W 7461  22.230  34.415   3.720
43529W        W 7462  16.147  43.021   3.813
43530W        W 7463  20.238  43.417   4.157
43531W        W 7464  21.547  10.751   4.693
43532W        W 7465  12.308  28.154  10.573
43533W        W 7466  11.361  27.566   0.959
43534W        W 7467  14.818  40.821   3.186
43535W        W 7468   6.313   3.279   3.711
43536W        W 7469  36.513  15.156   1.903
43537W        W 7470  36.368  31.592  13.942
43538W        W 7471  40.819   7.851  14.351
43539W        W 7472  43.801  40.438  13.354
43540W        W 7473  17.299   4.435  12.509
43541W        W 7474  33.900  31.550  14.353
43542W        W 7475   7.291  33.416  11.547
43543W        W 7476  22.705  21.079  11.077
43544W        W 7477   3.408  16.707   4.824
43545W        W 7478  24.536  13.117  10.936
43546W        W 7479  26.574  19.756  11.591
43547W        W 7480  23.567  30.513  10.538
43548W        W 7481  40.437  14.684  14.421
43549W        W 7482   8.239   9.808  13.528
43550W        W 7483  10.177  15.292  13.341
43551W        W 7484  20.242  37.944  10.103
43552W        W 7485  12.854  11.731  14.338
43553W        W 7486  29.038  36.876   2.811
43554W        W 7487   3.252   0.795  13.890
43555W        W 7488   7.826  41.311  13.310
43556W        W 7489  14.187   4.204   2.206
43557W        W 7490   1.333  32.125   3.206
43558W        W 7491  10.265  40.053   9.967
43559W        W 7492   2.834  24.193  12.912
43560W        W 7493   3.874  35.560   2.313
43561W        W 7494  24.081  11.763   2.899
43562W        W 7495  26.689  25.980  12.026
43563W        W 7496  11.684  43.989   1.366
43564W        W 7497   5.379  16.576   2.695
43565W        W 7498  29.091  38.541  13.031
43566W        W 7499   9.653  41.350  14.499
43567W        W 7500   0.969   7.905  10.531
43568W        W 7501  18.222  41.844  13.441
43569W        W 7502  22.617   3.426   1.418
43570W        W 7503  42.932  44.323   0.375
43571W        W 7504  31.510   4.446   1.368
43572W        W 7505  24.144  43.337  12.449
43573W        W 7506  40.387  41.428  14.514
43574W        W 7507  43.894  25.201  14.770
43575W        W 7508   2.298  17.171   2.682
43576W        W 7509  14.095  34.945   3.866
43577W        W 7510   2.254  40.019  13.524
43578W        W 7511  39.501  28.077   0.461
43579W        W 7512   4.876   5.331  13.897
43580W        W 7513  28.158  36.553  13.400
43581W        W 7514  34.104  20.144   1.294
43582W        W 7515  12.207  20.609  12.945
43583W        W 7516  43.806  35.984  13.019
43584W        W 7517  11.866  22.670   9.959
43585W        W 7518  36.002   5.311   0.395
43586W        W 7519  26.967  24.554  13.045
43587W        W 7520  27.942  14.703   1.876
43588W        W 7521   1.453  18.603  12.566
43589W        W 7522   4.366  29.633  13.457
43590W        W 7523  16.149   5.856   3.379
43591W        W 7524  14.110  12.293   2.804
43592W        W 7525  38.941   2.760  11.895
43593W        W 7526   6.872  38.960  13.405
43594W        W 7527  32.520   0.410   2.314
43595W        W 7528  12.318  14.631  12.036
43596W        W 7529  14.826  13.271   4.260
43597W        W 7530  20.148  31.639   3.740
43598W        W 7531  12.699  13.610   0.321
43599W        W 7532  13.121  18.704  12.578
43600W        W 7533  40.864   0.971   0.311
43601W        W 7534   9.276  38.024   3.662
43602W        W 7535  35.496  10.865   3.734
43603W        W 7536  40.881  25.565   4.349
43604W        W 7537   8.895  41.801  13.063
43605W        W 7538   6.735  23.096  14.308
43606W        W 7539  24.995  10.322   1.711
43607W        W 7540  23.022   4.887  12.537
43608W        W 7541  42.857  16.614  12.911
43609W        W 7542  22.081  12.624   4.202
43610W        W 7543  23.651  13.670   2.697
43611W        W 7544  40.391  32.072  14.450
43612W        W 7545  27.965  34.089  13.838
43613W        W 7546  19.664  33.556   4.221
43614W        W 7547  22.210  33.597  11.402
43615W        W 7548   1.952  28.449   0.840
43616W        W 7549  24.523   3.903   0.787
43617W        W 7550  18.720  23.694  10.942
43618W        W 7551  14.258  43.791   4.671
43619W        W 7552  30.100  39.359   2.331
43620W        W 7553   7.787  22.140   0.257
43621W        W 7554  40.042   7.839  10.487
43622W        W 7555  13.724   9.323   2.346
43623W        W 7556  22.057  28.107   0.789
43624W        W 7557   3.407  15.749  12.869
43625W        W 7558  34.915   4.298  12.088
43626W        W 7559   6.277   1.898   0.856
43627W        W 7560   4.287  42.900  11.006
43628W        W 7561  13.728  22.165  14.928
43629W        W 7562  32.898  30.069  13.489
43630W        W 7563   1.246  24.092   4.161
43631W        W 7564  24.131  43.929  13.379
43632W        W 7565  20.602  15.768   3.808
43633W        W 7566  35.425  23.169  13.934
43634W        W 7567   7.399  16.754   4.795
43635W        W 7568   6.792  21.625   4.234
43636W        W 7569   4.924  28.602   1.770
43637W        W 7570  12.178   0.868   4.726
43638W        W 7571   5.900   7.376   4.336
43639W        W 7572  25.142  26.631  10.447
43640W        W 7573  22.155  24.143  11.438
43641W        W 7574  17.307  22.741   1.339
43642W        W 7575   3.900   9.787  14.942
43643W        W 7576   9.661  39.433  13.882
43644W        W 7577  29.491  31.485  11.082
43645W        W 7578  26.165  23.133   4.657
43646W        W 7579  43.980  21.211   2.236
43647W        W 7580  12.268  12.135   0.926
43648W        W 7581  42.331  42.826   4.606
43649W        W 7582   3.299  21.641  14.415
43650W        W 7583  19.536  22.242  13.379
43651W        W 7584   9.172  37.069  11.036
43652W        W 7585  24.230  43.485   5.153
43653W        W 7586  31.128  11.820  11.466
43654W        W 7587  11.803  12.257  11.958
43655W        W 7588  38.507  19.669  11.881
43656W        W 7589   0.466  32.439  14.949
43657W        W 7590   0.461   1.915   0.390
43658W        W 7591  29.473  34.382   3.710
43659W        W 7592  28.471  11.272  14.383
43660W        W 7593   9.321  36.910   2.712
43661W        W 7594  11.719   0.368  10.129
43662W        W 7595  32.553  32.038  12.352
43663W        W 7596  22.724   4.380  11.575
43664W        W 7597  33.562   3.266   3.382
43665W        W 7598  31.004  35.037   3.348
43666W        W 7599  17.264  32.516   3.333
43667W        W 7600   5.793  18.671   1.756
43668W        W 7601  39.895  33.444  13.344
43669W        W 7602  42.005  22.689  14.449
43670W        W 7603  12.200   1.801   1.243
43671W        W 7604  30.026  18.591  13.507
43672W        W 7605  20.121  32.620  12.057
43673W        W 7606   6.204   5.908   4.791
43674W        W 7607   4.299   2.949  10.914
43675W        W 7608  20.251  39.932  11.490
43676W        W 7609  10.814   1.860   2.820
43677W        W 7610  36.452  27.687  11.476
43678W        W 7611   8.235  15.658  14.936
43679W        W 7612  34.092  38.477  11.989
43680W        W 7613  33.123   6.752   3.736
43681W        W 7614  18.207  27.113  11.065
43682W        W 7615  17.122  21.149   3.682
43683W        W 7616  11.196  11.370  11.969
43684W        W 7617  10.860  29.994  14.014
43685W        W 7618   6.388  13.746  11.472
43686W        W 7619   3.900  36.879   4.182
43687W        W 7620  10.854  15.191   2.386
43688W        W 7621  33.439   8.365  10.639
43689W        W 7622  31.986  27.583   3.165
43690W        W 7623   0.418  12.792  12.554
43691W        W 7624  15.788  13.167   2.292
43692W        W 7625  16.804  41.889  13.940
43693W        W 7626  26.481  42.456  14.832
43694W        W 7627  32.936  13.771   2.226
43695W        W 7628  18.776  16.715  14.839
43696W        W 7629   6.261  24.681   3.162
43697W        W 7630  13.308   6.909  11.598
43698W        W 7631   0.339  13.689  11.934
43699W        W 7632  38.525  19.651  10.602
43700W        W 7633  13.234  40.895   4.301
43701W        W 7634  41.920  14.139   0.905
43702W        W 7635  34.397   3.934  14.349
43703W        W 7636   5.728   8.734  11.031
43704W        W 7637  16.123  43.792   4.125
43705W        W 7638  22.592   8.713   4.756
43706W        W 7639  19.210   4.807   0.799
43707W        W 7640  15.755  42.891   0.748
43708W        W 7641   4.230  26.525   1.387
43709W        W 7642  28.125  37.541  13.436
43710W        W 7643  31.036  27.568  12.906
43711W        W 7644   4.318   9.784  13.528
43712W        W 7645  40.390  17.153   5.225
43713W        W 7646  21.193  14.814  14.890
43714W        W 7647  35.431  38.492   1.250
43715W        W 7648  14.741  43.870   0.379
43716W        W 7649   7.693   7.872   4.698
43717W        W 7650   2.451   1.812   4.837
43718W        W 7651  33.602  36.901  14.378
43719W        W 7652  12.302  19.106  10.414
43720W        W 7653   5.855  28.105  11.501
43721W        W 7654  41.812   7.195  12.892
43722W        W 7655  39.863  13.779  12.961
43723W        W 7656  21.591  32.579   3.674
43724W        W 7657  38.357   8.289  12.558
43725W        W 7658  15.730  44.849  11.496
43726W        W 7659  27.067  32.100  10.112
43727W        W 7660  37.392  11.283   0.302
43728W        W 7661  37.503  17.732  11.399
43729W        W 7662   8.361  16.267   4.794
43730W        W 7663   6.850  17.656   4.719
43731W        W 7664   0.942  27.557   2.888
43732W        W 7665  25.589   0.938  14.016
43733W        W 7666  28.033  20.231  13.338
43734W        W 7667  40.006  13.115   3.290
43735W        W 7668  20.635   1.260  11.111
43736W        W 7669  39.332  39.050   1.438
43737W        W 7670  19.212  22.040   0.308
43738W        W 7671  16.250  44.360  10.072
43739W        W 7672  42.416  44.922   4.302
43740W        W 7673  13.720  36.428   4.257
43741W        W 7674   0.307  39.968  13.390
43742W        W 7675  31.131  21.175  10.090
43743W        W 7676  18.661  10.283   4.176
43744W        W 7677  24.555  42.965   0.787
43745W        W 7678  13.765  15.292   1.738
43746W        W 7679  41.020   9.163  10.602
43747W        W 7680  35.109  40.452  13.042
43748W        W 7681  20.219  40.822  11.515
43749W        W 7682  21.203  16.598   3.384
43750W        W 7683  24.134   3.757  13.869
43751W        W 7684  19.600   0.260  12.460
43752W        W 7685   1.748  32.416   2.707
43753W        W 7686  28.459   8.817   4.188
43754W        W 7687  32.983  26.002  14.899
43755W        W 7688  35.034  17.775   2.862
43756W        W 7689   8.802  43.376  11.425
43757W        W 7690  27.026  38.846  12.988
43758W        W 7691   8.787   5.805   0.949
43759W        W 7692   2.884  32.120   4.767
43760W        W 7693  25.512  38.961  12.416
43761W        W 7694  30.947  30.064  11.103
43762W        W 7695  41.378  26.974   3.721
43763W        W 7696  33.080  16.622  12.969
43764W        W 7697  38.859  35.594   1.343
43765W        W 7698  32.099   1.417   2.707
43766W        W 7699  44.842  13.194  12.900
43767W        W 7700   1.355  40.032  10.643
43768W        W 7701  40.973  26.013   3.285
43769W        W 7702  33.611  27.146   3.198
43770W        W 7703   6.295  23.526   3.221
43771W        W 7704  10.876  34.107   0.242
43772W        W 7705   2.253  34.955   3.245
43773W        W 7706   9.365  16.318   4.189
43774W        W 7707  10.711  31.516  14.453
43775W        W 7708  38.855  28.173  11.972
43776W        W 7709   5.378  34.533  11.448
43777W        W 7710  14.619   1.784   4.322
43778W        W 7711  33.605  24.603   2.321
43779W        W 7712  29.034  32.555   4.277
43780W        W 7713   5.267  20.189  12.393
43781W        W 7714  21.130  37.546  13.030
43782W        W 7715  21.750  28.669  10.607
43783W        W 7716  32.603   3.821   0.420
43784W        W 7717  14.228  19.141  10.407
43785W        W 7718  17.626   1.363   3.225
43786W        W 7719  21.251  43.958   2.297
43787W        W 7720   8.792  36.004   2.777
43788W        W 7721  19.623  27.685  14.441
43789W        W 7722  19.157  12.694  13.382
43790W        W 7723  27.949  43.303   3.687
43791W        W 7724   0.433   2.915   2.199
43792W        W 7725  23.706  13.755   4.182
43793W        W 7726  40.971  23.098   1.813
43794W        W 7727  19.221  20.755   3.189
43795W        W 7728  31.595  16.808  11.905
43796W        W 7729  35.443  39.332  13.547
43797W        W 7730  30.971  40.983   4.278
43798W        W 7731  24.216  35.572   3.270
43799W        W 7732  32.610  11.279  10.447
43800W        W 7733  21.535  24.514  11.950
43801W        W 7734  29.015  33.521   0.332
43802W        W 7735  44.933  34.060  13.910
43803W        W 7736  35.470  25.568   4.691
43804W        W 7737  11.662  18.295  11.980
43805W        W 7738   6.387  28.521  10.571
43806W        W 7739  43.446   6.259   0.256
43807W        W 7740  29.064  36.417   0.353
43808W        W 7741  17.792  35.874   0.270
43809W        W 7742  30.654  11.740  13.902
43810W        W 7743  36.945  23.203   0.320
43811W        W 7744  26.143  24.566  13.828
43812W        W 7745  34.075  33.528  14.445
43813W        W 7746  28.484   6.828   4.719
43814W        W 7747  23.002   7.357  11.388
43815W        W 7748  19.252   0.430   4.347
43816W        W 7749  43.350   4.929   3.261
43817W        W 7750  26.975  14.603   2.360
43818W        W 7751  35.460  26.545   4.678
43819W        W 7752  28.951  10.320   0.361
43820W        W 7753  34.098  31.998  12.974
43821W        W 7754  18.109  11.161   3.853
43822W        W 7755  35.543  28.606  11.027
43823W        W 7756  11.673   1.952   2.834
43824W        W 7757  43.334   1.438  14.997
43825W        W 7758  32.398   7.796   2.386
43826W        W 7759   7.772   6.768  11.499
43827W        W 7760  34.898  14.178  12.477
43828W        W 7761  34.392   8.172   3.187
43829W        W 7762  20.627  38.327  14.397
43830W        W 7763   9.768   3.921  14.768
43831W        W 7764  16.672  36.463   5.632
43832W        W 7765  35.882  18.156   1.339
43833W        W 7766   9.302   6.843  14.914
43834W        W 7767   3.393   2.829   1.732
43835W        W 7768  21.624  32.608  12.555
43836W        W 7769   3.423  21.176  13.886
43837W        W 7770  32.135  38.957  14.290
43838W        W 7771  27.175  39.054  10.421
43839W        W 7772  16.153  10.295  11.058
43840W        W 7773  32.041  35.957   3.252
43841W        W 7774   1.313  28.008   3.262
43842W        W 7775  30.034  29.043  10.566
43843W        W 7776  30.979  17.681   2.325
43844W        W 7777  12.232   1.363   2.192
43845W        W 7778  30.142  42.004  10.565
43846W        W 7779  14.692  31.099  12.078
43847W        W 7780  30.965   0.436   0.753
43848W        W 7781  23.712  30.533  11.055
43849W        W 7782  43.457  41.958   0.752
43850W        W 7783  31.513  23.713   3.241
43851W        W 7784  36.405  28.607   1.922
43852W        W 7785  38.439  42.506  12.955
43853W        W 7786   8.200   6.835  13.332
43854W        W 7787   7.786  10.210  10.570
43855W        W 7788  42.838  37.579   4.759
43856W        W 7789  20.046   8.856   4.339
43857W        W 7790  40.321  25.189  11.556
43858W        W 7791   8.402  42.927   1.726
43859W        W 7792  36.965  33.419  11.539
43860W        W 7793  24.034  26.990   3.360
43861W        W 7794  37.020  36.925  13.529
43862W        W 7795  16.569  36.373  10.410
43863W        W 7796   0.783  32.062  11.014
43864W        W 7797  13.317  25.077   2.237
43865W        W 7798  27.120  40.965  10.550
43866W        W 7799  28.945  14.120  14.487
43867W        W 7800   1.270  37.412   3.373
43868W        W 7801  10.814  17.640  14.296
43869W        W 7802  41.820  22.069  13.871
43870W        W 7803  34.550  10.654  13.360
43871W        W 7804  18.776  35.916  12.573
43872W        W 7805  10.662   1.374  10.483
43873W        W 7806  22.012  19.663   2.271
43874W        W 7807  25.033  24.983   3.724
43875W        W 7808  39.017  33.094  10.526
43876W        W 7809  13.607  11.823   4.747
43877W        W 7810   8.403  12.315   1.815
43878W        W 7811   0.988   0.845  13.427
43879W        W 7812  29.581   6.742   0.848
43880W        W 7813  12.251  18.596  14.448
43881W        W 7814  39.846  19.226  12.465
43882W        W 7815  32.128  29.100  13.003
43883W        W 7816  20.716  18.285   0.794
43884W        W 7817  30.160  29.139   4.177
43885W        W 7818   7.229  38.013  11.964
43886W        W 7819   1.824  40.816  14.431
43887W        W 7820  20.665   3.356  14.956
43888W        W 7821   3.239  17.107   1.772
43889W        W 7822  24.212  33.386   3.820
43890W        W 7823  39.391  17.653  14.357
43891W        W 7824   5.792  28.615   3.828
43892W        W 7825  30.542  17.130  10.524
43893W        W 7826   3.351   3.955  10.948
43894W        W 7827  26.087   3.743   1.327
43895W        W 7828   8.887  17.567  12.872
43896W        W 7829  13.775  32.619   4.321
43897W        W 7830  37.430  15.684   4.617
43898W        W 7831   7.349   4.719   0.754
43899W        W 7832  25.063   7.417   3.762
43900W        W 7833  36.989  38.452  12.561
43901W        W 7834  23.001  41.368   1.837
43902W        W 7835  31.462   7.707   0.474
43903W        W 7836  26.082  36.851   3.704
43904W        W 7837  32.427  40.385   2.187
43905W        W 7838  14.298  21.238  14.494
43906W        W 7839  23.174  35.397  12.964
43907W        W 7840  14.154  40.013   1.824
43908W        W 7841   2.835  25.510  10.613
43909W        W 7842   6.408  32.477   4.208
43910W        W 7843   8.880  27.465   1.823
43911W        W 7844  40.817  42.290  11.428
43912W        W 7845  41.900   3.848   0.375
43913W        W 7846  39.557  42.521   1.428
43914W        W 7847  25.978  11.351  13.963
43915W        W 7848  44.481  41.036   2.209
43916W        W 7849  21.653  25.478  11.385
43917W        W 7850   9.803   3.234  14.322
43918W        W 7851  37.367   5.855   0.338
43919W        W 7852   2.385  32.965  10.529
43920W        W 7853  38.414  41.336  13.478
43921W        W 7854  34.586   6.682   1.884
43922W        W 7855  34.945  16.585   4.819
43923W        W 7856   6.713  10.833   3.273
43924W        W 7857  38.387  19.113  10.445
43925W        W 7858   8.709  25.001   1.291
43926W        W 7859  31.435  15.657   0.298
43927W        W 7860  35.948  20.597   1.342
43928W        W 7861  42.913   7.757   4.198
43929W        W 7862  21.584   3.911   2.835
43930W        W 7863  34.394  10.669  12.484
43931W        W 7864  38.474  16.188  11.017
43932W        W 7865  41.435  27.677   0.807
43933W        W 7866  40.914  35.373  10.531
43934W        W 7867   4.715  36.583   4.727
43935W        W 7868  26.590  24.502  11.425
43936W        W 7869  41.874  26.564   5.191
43937W        W 7870  34.452  34.874  11.561
43938W        W 7871   8.731  36.504   0.469
43939W        W 7872   7.307  11.651   3.774
43940W        W 7873  30.104  19.174  10.477
43941W        W 7874  28.094  24.048  12.072
43942W        W 7875   2.444  43.389   2.751
43943W        W 7876  31.993  10.181  12.886
43944W        W 7877  20.204  30.124  12.859
43945W        W 7878  23.241   1.955  11.442
43946W        W 7879  13.805  16.272   0.837
43947W        W 7880  25.066  28.979  10.918
43948W        W 7881  19.547  32.974  13.332
43949W        W 7882   1.258  41.397   3.855
43950W        W 7883  31.498  12.159   3.743
43951W        W 7884   8.236  12.845   0.283
43952W        W 7885  19.062  15.816   4.315
43953W        W 7886  25.594   8.389   1.382
43954W        W 7887  30.127  41.499   2.245
43955W        W 7888  17.158   3.432  14.501
43956W        W 7889  19.057   3.419   2.226
43957W        W 7890  27.523  31.107   1.434
43958W        W 7891  10.265   8.697  11.495
43959W        W 7892  23.614  41.833  13.905
43960W        W 7893  36.508  32.565   2.667
43961W        W 7894  20.035  35.576   2.416
43962W        W 7895  22.246  43.430  12.944
43963W        W 7896  26.181  34.118  12.078
43964W        W 7897  24.124  29.045  11.098
43965W        W 7898  30.018  23.645   1.361
43966W        W 7899   0.929  12.778   3.218
43967W        W 7900   1.349  10.641   1.368
43968W        W 7901  37.858  34.921  12.372
43969W        W 7902  39.457   5.921   0.820
43970W        W 7903  24.554  33.563   4.171
43971W        W 7904  21.644  17.254  10.998
43972W        W 7905  22.645  44.949   0.351
43973W        W 7906  36.868  12.685   0.928
43974W        W 7907  22.145   2.366  10.593
43975W        W 7908  41.409  17.801   4.635
43976W        W 7909  26.159  23.562   3.261
43977W        W 7910   9.333   6.710   3.303
43978W        W 7911  32.994  38.501  13.513
43979W        W 7912   2.765   3.281   4.276
43980W        W 7913  15.701  17.614   0.325
43981W        W 7914  38.536  32.427  14.327
43982W        W 7915  38.391  29.510  14.796
43983W        W 7916  10.354  42.941  13.003
43984W        W 7917  10.172  44.887  14.893
43985W        W 7918  12.242  32.604   0.367
43986W        W 7919  42.513  36.065   2.330
43987W        W 7920  32.025  15.084   1.869
43988W        W 7921  34.007  17.585  12.479
43989W        W 7922  19.224   4.427  14.838
43990W        W 7923  34.000  10.837  11.560
43991W        W 7924   4.222   7.674  12.437
43992W        W 7925  26.025   5.810   2.414
43993W        W 7926   3.946  44.345  12.372
43994W        W 7927  32.087  23.636   1.254
43995W        W 7928  39.454   2.893   2.335
43996W        W 7929  38.944  19.696   3.271
43997W        W 7930  38.919  29.091  13.911
43998W        W 7931   6.316  38.049   1.441
43999W        W 7932  24.145  13.622  12.559
44000W        W 7933   2.895  22.162   4.723
44001W        W 7934  34.063   4.905   0.353
44002W        W 7935  43.355  37.359   0.775
44003W        W 7936   0.492  13.659   1.343
44004W        W 7937  10.875  17.174  14.775
44005W        W 7938  12.130  14.315   2.675
44006W        W 7939  44.985  10.364   1.412
44007W        W 7940  31.025  44.888   0.839
44008W        W 7941  18.143  30.011   4.233
44009W        W 7942  42.434  24.053   0.828
44010W        W 7943  39.009  42.312  13.361
44011W        W 7944   9.359  44.423  14.281
44012W        W 7945  15.138  17.181  14.282
44013W        W 7946  25.097  31.907   2.785
44014W        W 7947  23.996  40.322  12.860
44015W        W 7948  32.431   0.346  10.980
44016W        W 7949  21.558  37.532  12.882
44017W        W 7950  13.816  42.373  11.458
44018W        W 7951  35.389  38.838   1.279
44019W        W 7952  25.115  24.481   4.318
44020W        W 7953   8.703  24.167   5.104
44021W        W 7954  38.438  21.025  12.927
44022W        W 7955   4.934  27.556   1.257
44023W        W 7956   3.943   4.345  12.423
44024W        W 7957  39.482  33.514  13.547
44025W        W 7958  38.363  15.600  10.612
44026W        W 7959  44.444  42.818   0.810
44027W        W 7960  36.895  17.112  14.383
44028W        W 7961  20.166  30.990   2.343
44029W        W 7962  23.662  30.468   2.845
44030W        W 7963   9.757  13.667   4.629
44031W        W 7964  43.515  31.597   0.764
44032W        W 7965   5.370  11.247   2.702
44033W        W 7966  44.983  32.934  12.088
44034W        W 7967   2.819  16.189   0.469
44035W        W 7968  17.740  37.575  12.048
44036W        W 7969  32.142   1.330   0.829
44037W        W 7970  23.594  37.916  13.013
44038W        W 7971   9.795  24.201   0.384
44039W        W 7972  20.607  28.187   3.253
44040W        W 7973  29.131  12.213   3.647
44041W        W 7974  14.816   1.332   4.279
44042W        W 7975  15.620  14.757   3.683
44043W        W 7976  13.806  39.888  14.460
44044W        W 7977  11.775   4.883  12.063
44045W        W 7978  42.779  39.018  13.971
44046W        W 7979  43.405   3.365  13.483
44047W        W 7980  44.331  44.311  13.313
44048W        W 7981  10.358  36.351   0.955
44049W        W 7982  21.545   4.733  10.985
44050W        W 7983   2.419  21.732  14.839
44051W        W 7984  19.268   8.202  14.392
44052W        W 7985  33.951  36.881   3.175
44053W        W 7986  23.710  11.169  14.764
44054W        W 7987  43.003   2.422   3.348
44055W        W 7988  20.768  24.550   4.347
44056W        W 7989  15.277  12.812  14.389
44057W        W 7990  41.791  34.965  13.971
44058W        W 7991  38.445   1.323  11.032
44059W        W 7992  39.962  40.444  12.528
44060W        W 7993  42.830  19.687   4.671
44061W        W 7994   6.427  20.240  13.473
44062W        W 7995  14.104  23.236   3.730
44063W        W 7996   0.942  32.446  14.476
44064W        W 7997  23.683  36.071   3.184
44065W        W 7998  31.035  44.440   3.723
44066W        W 7999  32.396  32.604  12.429
44067W        W 8000   6.210   2.283   5.141
44068W        W 8001  17.668  26.678  13.844
44069W        W 8002  22.151  11.166  11.944
44070W        W 8003  34.567  11.786  10.981
44071W        W 8004  17.798  44.940   4.613
44072W        W 8005  11.824  19.046   1.836
44073W        W 8006   1.871  41.838   5.246
44074W        W 8007  13.325  31.118  12.926
44075W        W 8008  15.737  37.983   1.384
44076W        W 8009  44.268  31.075  14.791
44077W        W 8010  40.314  35.970  11.966
44078W        W 8011  30.999  18.718  10.457
44079W        W 8012  19.107  43.904  13.865
44080W        W 8013  11.137  19.772  14.863
44081W        W 8014  29.956  11.243  11.989
44082W        W 8015  20.660  41.004  13.042
44083W        W 8016   0.416  34.878   4.163
44084W        W 8017   8.684   8.681  11.479
44085W        W 8018  20.579  35.490   2.384
44086W        W 8019  10.865   5.202  12.061
44087W        W 8020  12.614  36.504   3.806
44088W        W 8021  31.565  23.017  13.844
44089W        W 8022   2.788  40.988  10.507
44090W        W 8023  42.839   1.423  12.924
44091W        W 8024  16.192  28.616   1.337
44092W        W 8025  33.504  31.129   3.768
44093W        W 8026  10.836  19.167  11.100
44094W        W 8027  44.985  30.098   2.374
44095W        W 8028   2.229  27.602  10.973
44096W        W 8029  14.627  36.969   2.244
44097W        W 8030  24.667  10.685   0.870
44098W        W 8031  39.500   0.823   4.218
44099W        W 8032   7.811  14.608  10.941
44100W        W 8033  29.043  42.957   3.339
44101W        W 8034  26.983  30.599  13.384
44102W        W 8035   4.831  23.173   0.765
44103W        W 8036  31.467  23.107   1.408
44104W        W 8037  39.860  19.632  11.411
44105W        W 8038   6.916  42.981  14.017
44106W        W 8039  26.034   7.353   2.727
44107W        W 8040  44.468  22.247  14.922
44108W        W 8041  37.423  12.836   0.945
44109W        W 8042   6.772  31.938  12.879
44110W        W 8043  33.397  17.279   2.843
44111W        W 8044  27.106  39.393   4.263
44112W        W 8045   6.884  28.950   2.232
44113W        W 8046   7.210  16.196  13.025
44114W        W 8047  17.716  22.585  11.481
44115W        W 8048  20.216   0.883   2.791
44116W        W 8049  31.536  43.960   2.360
44117W        W 8050  27.073  17.202  11.572
44118W        W 8051  33.396  35.588  10.597
44119W        W 8052   5.323   8.210  12.020
44120W        W 8053  29.627  11.652  10.634
44121W        W 8054  13.247  27.101  12.868
44122W        W 8055  35.958  15.200  14.911
44123W        W 8056  40.025   3.242   4.668
44124W        W 8057  12.615  14.332  12.888
44125W        W 8058   5.309  24.560  11.053
44126W        W 8059  10.164  16.235  12.904
44127W        W 8060  40.831  34.439   3.708
44128W        W 8061  23.204  15.777   4.807
44129W        W 8062  41.870  30.492   1.924
44130W        W 8063  24.045   7.850  14.869
44131W        W 8064  12.255  29.113  13.460
44132W        W 8065  28.973  33.901   4.192
44133W        W 8066  39.941  26.575  10.944
44134W        W 8067   9.168   4.329  13.467
44135W        W 8068  21.169  24.638  12.867
44136W        W 8069  30.560  19.086  10.933
44137W        W 8070  32.522  35.364  10.528
44138W        W 8071  27.055  15.109  12.880
44139W        W 8072   7.910  23.675  10.890
44140W        W 8073   0.377  12.700   4.236
44141W        W 8074  16.726  30.108   1.337
44142W        W 8075  36.427  26.165  12.903
44143W        W 8076   3.225  16.219   0.802
44144W        W 8077  44.980  30.462   0.468
44145W        W 8078  14.267  15.314   4.691
44146W        W 8079  37.537  44.406  11.912
44147W        W 8080  32.020  33.026   0.313
44148W        W 8081  37.988   3.343   1.712
44149W        W 8082  31.623  26.491  14.950
44150W        W 8083  10.779   4.320  12.025
44151W        W 8084  17.128   7.715   4.215
44152W        W 8085   0.344  25.699   4.312
44153W        W 8086  24.490  42.897   5.149
44154W        W 8087  32.402  31.629  14.008
44155W        W 8088  15.619   5.433  11.505
44156W        W 8089   1.919   0.910  13.797
44157W        W 8090  10.310  27.452  13.812
44158W        W 8091  39.991  42.510  11.380
44159W        W 8092  11.808  23.648  11.938
44160W        W 8093  40.866  13.149   3.244
44161W        W 8094  43.503  44.405  11.457
44162W        W 8095  13.276  17.113   4.289
44163W        W 8096   9.864  15.276  13.390
44164W        W 8097   5.309  16.148   1.282
44165W        W 8098  15.622  25.145  10.955
44166W        W 8099  10.868  13.259  14.309
44167W        W 8100  34.486  44.875   4.291
44168W        W 8101  24.057  36.531  13.413
44169W        W 8102  39.834  16.763   4.811
44170W        W 8103   2.747  13.337   0.818
44171W        W 8104  16.099  41.485   2.289
44172W        W 8105  19.110   7.719  13.421
44173W        W 8106  28.979  14.097   0.473
44174W        W 8107  10.251  15.325  12.054
44175W        W 8108  44.834   0.745   1.420
44176W        W 8109  25.136  43.947   1.825
44177W        W 8110  38.359   9.718  14.434
44178W        W 8111  34.613  22.101   3.677
44179W        W 8112  37.529  21.158   1.905
44180W        W 8113  19.703  39.511  14.404
44181W        W 8114  20.126  18.645  13.890
44182W        W 8115  32.055  39.972   4.746
44183W        W 8116  35.104  40.541  13.538
44184W        W 8117  30.490  18.769   3.258
44185W        W 8118  32.452  20.033   4.809
44186W        W 8119  44.349  10.873  14.487
44187W        W 8120  26.041  28.095   0.728
44188W        W 8121  14.243  11.325   4.226
44189W        W 8122  23.111  24.072  13.800
44190W        W 8123  31.517  41.308   2.228
44191W        W 8124  24.077  25.575  12.532
44192W        W 8125  41.480   9.189  11.464
44193W        W 8126  30.556  21.043  13.476
44194W        W 8127   4.244  23.997   4.725
44195W        W 8128  14.796  26.145   0.466
44196W        W 8129  22.701  41.498   3.236
44197W        W 8130  38.863  41.463  10.450
44198W        W 8131  31.135  33.451  13.501
44199W        W 8132  29.017   6.764  10.535
44200W        W 8133  38.451   8.201   1.344
44201W        W 8134  28.437  22.068  11.955
44202W        W 8135  29.522  24.614  11.102
44203W        W 8136  43.817  20.135  13.867
44204W        W 8137   3.230  18.756   1.761
44205W        W 8138  17.133  41.818  11.992
44206W        W 8139   1.382  26.478  14.471
44207W        W 8140  30.138  29.639  12.031
44208W        W 8141   2.965  10.815  13.548
44209W        W 8142   5.733   5.702   3.258
44210W        W 8143  35.548  25.627   1.320
44211W        W 8144   1.924  20.756  14.395
44212W        W 8145  22.073   5.218   2.801
44213W        W 8146  20.098  20.745  12.432
44214W        W 8147  17.655   5.273  14.801
44215W        W 8148  27.073  21.755  12.013
44216W        W 8149  44.850   6.208   2.334
44217W        W 8150  14.251   9.277  13.006
44218W        W 8151  43.470  20.569  13.021
44219W        W 8152  39.971  39.000  10.974
44220W        W 8153   3.911  36.002  14.875
44221W        W 8154  34.997  12.252  12.547
44222W        W 8155  38.996  22.732  12.479
44223W        W 8156   0.353   1.449  10.420
44224W        W 8157  16.574  21.552  13.504
44225W        W 8158  35.556  44.268  11.078
44226W        W 8159  17.218  22.137  14.945
44227W        W 8160  14.791  10.215   1.389
44228W        W 8161  42.968  10.174  11.562
44229W        W 8162  37.971  22.179  10.547
44230W        W 8163  32.113  43.379  13.386
44231W        W 8164   9.355  34.054  11.584
44232W        W 8165  35.420  25.964   1.915
44233W        W 8166   5.229  33.482   1.268
44234W        W 8167  11.365  16.207   3.355
44235W        W 8168   7.724  41.012  13.846
44236W        W 8169  18.245  31.457  12.043
44237W        W 8170  24.099  31.078  12.994
44238W        W 8171  32.399  22.238  11.434
44239W        W 8172  24.532  35.579   4.322
44240W        W 8173   1.741  17.275   4.611
44241W        W 8174  13.625   1.751   2.302
44242W        W 8175   4.350  17.092   1.853
44243W        W 8176   1.373  15.727   3.679
44244W        W 8177   3.235   8.785  13.905
44245W        W 8178  13.142  21.588   1.411
44246W        W 8179  33.928  33.506  13.905
44247W        W 8180  19.732   7.834  14.949
44248W        W 8181  32.527   7.731  10.610
44249W        W 8182  11.846  29.443  10.408
44250W        W 8183  16.724   6.809   3.386
44251W        W 8184   2.918   9.723   0.892
44252W        W 8185  42.464  41.308  12.412
44253W        W 8186  27.942   6.897  14.779
44254W        W 8187  10.182  32.523   0.762
44255W        W 8188  21.661  30.019   0.816
44256W        W 8189  11.160  43.786  11.409
44257W        W 8190  43.779  20.620   2.782
44258W        W 8191  44.333  19.218   1.745
44259W        W 8192  16.591   3.377   2.850
44260W        W 8193   6.686  31.095  14.959
44261W        W 8194  26.662   8.877  11.572
44262W        W 8195  39.922  31.922   2.727
44263W        W 8196  29.130  13.311   2.271
44264W        W 8197   6.876   7.251   4.605
44265W        W 8198   2.731  24.168   4.631
44266W        W 8199  13.696  32.000  12.043
44267W        W 8200   9.789  22.013   1.445
44268W        W 8201  14.656  16.144  12.846
44269W        W 8202  25.033  26.656   0.726
44270W        W 8203  18.662  41.308   4.165
44271W        W 8204   2.888   3.276   2.335
44272W        W 8205  10.771  15.235   3.188
44273W        W 8206  42.849  33.407  11.414
44274W        W 8207  30.456  19.190   1.849
44275W        W 8208  28.443  19.191   0.934
44276W        W 8209  19.696  27.087   1.330
44277W        W 8210  22.612   0.406  10.607
44278W        W 8211  28.026   2.423   0.845
44279W        W 8212   9.712  21.044  12.075
44280W        W 8213  30.640  26.464   2.843
44281W        W 8214  12.629  25.080   1.384
44282W        W 8215  11.149  20.274  12.471
44283W        W 8216  17.757   1.854  14.317
44284W        W 8217  28.146  29.450  13.857
44285W        W 8218   5.829  17.686  10.963
44286W        W 8219  13.317  42.386   4.737
44287W        W 8220  18.587   9.679  11.583
44288W        W 8221   8.783  25.069   3.631
44289W        W 8222  28.633   9.841  11.875
44290W        W 8223  42.952  37.841  10.509
44291W        W 8224  34.870  42.485  14.875
44292W        W 8225  32.589  10.798   3.345
44293W        W 8226   6.828  27.976   1.860
44294W        W 8227  19.190  12.812   1.409
44295W        W 8228  32.102  44.315  11.944
44296W        W 8229  31.616  30.569   4.288
44297W        W 8230   7.177  33.553   2.765
44298W        W 8231   5.299  43.435   3.671
44299W        W 8232  36.388  23.578  12.468
44300W        W 8233   7.737   3.943  14.926
44301W        W 8234  13.625   2.250   1.704
44302W        W 8235  35.036  21.174  11.013
44303W        W 8236  36.372  14.640  11.035
44304W        W 8237  18.752  35.952   1.257
44305W        W 8238  10.733  28.448   0.967
44306W        W 8239  18.582  12.189  14.475
44307W        W 8240  19.576  35.455  11.373
44308W        W 8241  41.521  30.116  14.873
44309W        W 8242  30.415  27.604   4.724
44310W        W 8243  28.013  35.472   0.802
44311W        W 8244   7.213  40.453   0.859
44312W        W 8245  10.876  44.448   2.699
44313W        W 8246  20.643  14.197   1.751
44314W        W 8247  42.003  22.069  14.967
44315W        W 8248   6.751  16.110  11.591
44316W        W 8249  33.010  33.549  13.940
44317W        W 8250  40.439  18.191  11.507
44318W        W 8251  39.982  37.517   4.258
44319W        W 8252   7.318  14.743   2.254
44320W        W 8253  37.924  21.203  14.839
44321W        W 8254  16.590  22.673  13.446
44322W        W 8255  17.116  17.650  14.868
44323W        W 8256  13.296  38.866   1.745
44324W        W 8257  23.986  31.084   2.876
44325W        W 8258   9.213   6.769  12.010
44326W        W 8259  41.348  18.123  11.024
44327W        W 8260  16.175  12.639  11.099
44328W        W 8261  28.052  28.113   2.682
44329W        W 8262   1.356   1.918  12.963
44330W        W 8263  14.215  19.588   3.652
44331W        W 8264  20.769  23.209   1.754
44332W        W 8265  30.616  37.009   4.728
44333W        W 8266   6.245   9.676   3.851
44334W        W 8267  21.245  41.939  13.063
44335W        W 8268  31.638  43.473   3.781
44336W        W 8269  19.736  36.061  13.838
44337W        W 8270  13.822  10.841   4.199
44338W        W 8271   8.825   8.361   0.829
44339W        W 8272  38.519  44.843  13.824
44340W        W 8273  35.935  17.575   4.156
44341W        W 8274  36.400  18.679   0.896
44342W        W 8275  29.605  30.016   1.821
44343W        W 8276  39.952  18.694   3.807
44344W        W 8277  39.365  41.449   3.326
44345W        W 8278  42.829  39.556   1.794
44346W        W 8279  26.974  35.575   4.719
44347W        W 8280  24.193   0.789   2.877
44348W        W 8281  34.960  33.543   3.190
44349W        W 8282  14.670  11.284   2.286
44350W        W 8283  32.112  16.098  11.978
44351W        W 8284  12.623  19.225  12.574
44352W        W 8285   0.367  17.099   3.858
44353W        W 8286  16.090  13.314   4.251
44354W        W 8287  25.192  36.096   4.336
44355W        W 8288  30.579  10.842   1.809
44356W        W 8289   2.299  40.850  12.366
44357W        W 8290  16.585  32.397   4.159
44358W        W 8291  43.515  43.425   2.273
44359W        W 8292  36.497  24.549  12.851
44360W        W 8293  25.967  41.395   4.309
44361W        W 8294   8.827  40.429   2.281
44362W        W 8295  27.533  30.909  12.858
44363W        W 8296  43.417   7.765  11.031
44364W        W 8297   2.246  14.315  13.535
44365W        W 8298  30.994  23.636  14.859
44366W        W 8299  31.481  11.734  10.928
44367W        W 8300   6.300  39.816  11.508
44368W        W 8301  42.381  22.679  14.929
44369W        W 8302  36.057  36.357   2.321
44370W        W 8303  22.198  43.505  13.458
44371W        W 8304  19.733  12.209  11.395
44372W        W 8305   7.300  26.471  12.412
44373W        W 8306  21.102   7.336  14.403
44374W        W 8307  31.069   3.834   2.345
44375W        W 8308  29.062  35.391   2.192
44376W        W 8309  13.640   0.369  11.093
44377W        W 8310  36.394  15.656   0.385
44378W        W 8311  26.148  32.933   2.766
44379W        W 8312  30.131   7.697  14.275
44380W        W 8313  26.590   7.404   3.638
44381W        W 8314  32.486   2.873  11.889
44382W        W 8315  14.293  42.436   2.796
44383W        W 8316  31.931  36.064   9.968
44384W        W 8317  33.557   8.671   0.326
44385W        W 8318  22.523  37.534  13.539
44386W        W 8319  11.689  43.448  14.916
44387W        W 8320  31.899   2.305  12.514
44388W        W 8321  34.057   0.806   1.820
44389W        W 8322  15.190  32.604   2.377
44390W        W 8323  28.083  32.921   4.603
44391W        W 8324  14.697  20.643   1.332
44392W        W 8325  36.582  33.475   4.291
44393W        W 8326  14.239  15.322  14.479
44394W        W 8327  18.067  27.468  12.385
44395W        W 8328  10.350   8.774   1.786
44396W        W 8329  37.357  31.144  14.415
44397W        W 8330  34.532  21.546  11.383
44398W        W 8331  38.849   5.870   3.383
44399W        W 8332  38.374   4.782  11.113
44400W        W 8333  16.285   0.880  14.852
44401W        W 8334  44.826  35.444  11.403
44402W        W 8335  20.594  17.243  13.406
44403W        W 8336  18.068  12.653  12.982
44404W        W 8337   9.814  33.382   0.453
44405W        W 8338  35.365  38.072  12.949
44406W        W 8339  25.219  34.926   2.331
44407W        W 8340  23.072  44.421  12.420
44408W        W 8341  28.570   5.819  10.636
44409W        W 8342   7.363   2.768  12.435
44410W        W 8343  14.750  26.184  13.369
44411W        W 8344  16.317  14.269  10.549
44412W        W 8345  20.745  38.970  11.995
44413W        W 8346  42.008   8.759   0.903
44414W        W 8347  17.626   9.786   2.804
44415W        W 8348  25.092  11.188   0.312
44416W        W 8349   5.347  32.045  10.596
44417W        W 8350  44.957  30.536  11.411
44418W        W 8351  13.185  35.082  12.395
44419W        W 8352  40.412   5.256   1.303
44420W        W 8353   9.264  39.490  11.523
44421W        W 8354  19.662  35.017  11.965
44422W        W 8355  41.043   6.733   1.833
44423W        W 8356   2.776  12.331   1.878
44424W        W 8357   1.823  15.688  12.961
44425W        W 8358  10.763   3.393  12.534
44426W        W 8359  38.549  11.128   4.296
44427W        W 8360  14.731   1.941  13.004
44428W        W 8361  40.945  43.298  12.347
44429W        W 8362   8.319   7.803  14.347
44430W        W 8363  42.892  26.652  13.419
44431W        W 8364  35.425   8.818  10.413
44432W        W 8365  37.395  42.801   1.332
44433W        W 8366  14.244  26.077   2.233
44434W        W 8367   3.419   0.905   4.760
44435W        W 8368  10.770  31.084  14.993
44436W        W 8369  10.877  21.225  14.306
44437W        W 8370  23.580  29.114   3.745
44438W        W 8371  40.024  25.000   1.917
44439W        W 8372  17.218  37.942   2.772
44440W        W 8373  11.659  19.690  12.444
44441W        W 8374   4.416  43.463   3.859
44442W        W 8375   6.757  34.997  11.998
44443W        W 8376  21.089  10.765   2.700
44444W        W 8377  23.030  34.089   1.878
44445W        W 8378  22.033   5.388  14.973
44446W        W 8379  33.001  17.641   4.649
44447W        W 8380  20.244  18.708  13.528
44448W        W 8381  15.636  28.171   1.743
44449W        W 8382  35.429  13.746  10.953
44450W        W 8383  38.417  40.848   1.372
44451W        W 8384  13.196  24.642  14.763
44452W        W 8385   4.411   3.453   0.289
44453W        W 8386   9.755  33.895  13.934
44454W        W 8387   2.773  23.576  10.436
44455W        W 8388  12.243  23.097   1.766
44456W        W 8389  18.293  42.331   3.666
44457W        W 8390  16.120  20.588   2.270
44458W        W 8391   3.826   2.791   3.385
44459W        W 8392  10.196  10.334   0.763
44460W        W 8393  42.444  43.279  12.083
44461W        W 8394  14.774  37.915   1.252
44462W        W 8395  29.989  37.968   4.158
44463W        W 8396  20.160  33.985  13.916
44464W        W 8397  19.135  38.995  13.871
44465W        W 8398  19.122  27.623   3.798
44466W        W 8399  10.813   0.290   0.898
44467W        W 8400   3.286  36.391   2.728
44468W        W 8401   1.391  25.077  12.988
44469W        W 8402  39.500  26.021  14.765
44470W        W 8403   0.987  11.690   0.952
44471W        W 8404  42.499  16.728  12.437
44472W        W 8405  21.196  13.835  12.833
44473W        W 8406   6.189  13.837   5.166
44474W        W 8407  15.594  34.421   1.428
44475W        W 8408  30.525  39.999  11.605
44476W        W 8409  14.122  32.936  10.907
44477W        W 8410  32.101  43.330  10.487
44478W        W 8411  29.640  31.077   1.363
44479W        W 8412  41.895   6.702  14.028
44480W        W 8413  21.621  40.418   0.468
44481W        W 8414  44.911   1.887   0.806
44482W        W 8415  16.295   0.784   1.303
44483W        W 8416   2.243   6.689  11.862
44484W        W 8417  31.613  16.589  14.438
44485W        W 8418   3.291  10.331   0.729
44486W        W 8419   2.804  33.112  10.450
44487W        W 8420  15.134  35.974   1.710
44488W        W 8421  26.207  42.402   2.672
44489W        W 8422   4.426  26.135  10.145
44490W        W 8423   8.879  24.000  12.898
44491W        W 8424  40.391  33.892   1.928
44492W        W 8425  42.317  13.671   0.886
44493W        W 8426  29.958  32.131  11.068
44494W        W 8427   8.298   2.822  12.425
44495W        W 8428  42.306   6.317  14.442
44496W        W 8429  28.663  38.914  14.792
44497W        W 8430  12.717  20.629   4.132
44498W        W 8431  31.601  16.749   3.831
44499W        W 8432  36.056  13.759   3.842
44500W        W 8433   4.305  27.010  11.120
44501W        W 8434  20.183  35.915  11.041
44502W        W 8435   5.418  10.687  13.801
44503W        W 8436  42.797  30.048   0.381
44504W        W 8437  20.554   6.208  14.838
44505W        W 8438  39.502  34.600  14.445
44506W        W 8439   9.354  13.688   0.875
44507W        W 8440  39.957  14.644  11.587
44508W        W 8441  20.628  29.146   1.323
44509W        W 8442  14.099  13.288   2.856
44510W        W 8443  14.611  41.318   3.865
44511W        W 8444  18.771   0.385  14.433
44512W        W 8445  26.588   4.838   4.832
44513W        W 8446   8.785  39.510  10.597
44514W        W 8447  41.014   0.460  13.989
44515W        W 8448  42.989   9.776  10.081
44516W        W 8449  37.546  40.368  14.792
44517W        W 8450  39.901   6.219   4.704
44518W        W 8451  16.264  23.594  12.551
44519W        W 8452   5.712  37.884   1.367
44520W        W 8453  10.333  10.181   3.224
44521W        W 8454  22.652  18.065  10.568
44522W        W 8455  30.485   5.928  11.612
44523W        W 8456  16.574  30.473  14.802
44524W        W 8457  28.960  17.731   1.708
44525W        W 8458  38.473  20.733   0.423
44526W        W 8459  25.098  15.645   3.313
44527W        W 8460   8.317  44.874   4.352
44528W        W 8461  22.079  11.654   1.265
44529W        W 8462   0.353  24.006  12.507
44530W        W 8463  36.843  29.137  11.425
44531W        W 8464  10.721  34.888  14.024
44532W        W 8465  35.449  18.651  13.007
44533W        W 8466  12.648  41.360  13.848
44534W        W 8467   9.169  20.567  13.372
44535W        W 8468  40.525  44.773   4.224
44536W        W 8469  39.484  39.559  11.943
44537W        W 8470  28.156  44.847  11.071
44538W        W 8471  21.104  43.826   4.243
44539W        W 8472  43.892  41.401   3.293
44540W        W 8473   3.859  39.042  12.532
44541W        W 8474  12.349  37.053   2.364
44542W        W 8475   0.837  34.015  11.076
44543W        W 8476   9.352  23.619  12.374
44544W        W 8477   8.762  35.955  13.808
44545W        W 8478  39.441   8.710   5.139
44546W        W 8479  11.817  42.507   0.960
44547W        W 8480   5.404  17.724   0.759
44548W        W 8481  41.370  26.617  14.855
44549W        W 8482   2.351  14.835   1.924
44550W        W 8483  40.980  41.303   1.911
44551W        W 8484  28.579   5.307  10.989
44552W        W 8485  43.915  23.569  14.342
44553W        W 8486  13.614  43.481  11.428
44554W        W 8487  32.404  42.887   1.701
44555W        W 8488  36.434  21.527  12.907
44556W        W 8489   9.246   1.853   1.339
44557W        W 8490  11.264   2.851  13.804
44558W        W 8491  41.412   1.877  12.952
44559W        W 8492  31.572  24.030  14.473
44560W        W 8493  38.392  37.988  11.910
44561W        W 8494  37.839  29.100  12.985
44562W        W 8495  21.540  39.334  11.487
44563W        W 8496  39.448  27.009  10.506
44564W        W 8497   7.239   4.784   3.757
44565W        W 8498   7.295  22.139  12.939
44566W        W 8499  34.923  34.571  13.042
44567W        W 8500   0.336  26.091   4.738
44568W        W 8501  44.867   8.870   4.129
44569W        W 8502  14.748  19.605  14.510
44570W        W 8503  21.040  15.585  12.851
44571W        W 8504  42.481   7.679  14.425
44572W        W 8505  31.543  21.628  10.446
44573W        W 8506  25.063  44.868   2.280
44574W        W 8507  28.102   7.231  11.014
44575W        W 8508  15.804  19.157   4.818
44576W        W 8509  23.126  39.348  11.082
44577W        W 8510  34.580  41.303   1.410
44578W        W 8511  23.987  42.381   2.297
44579W        W 8512  19.601  28.601  12.578
44580W        W 8513  18.790  24.982  11.113
44581W        W 8514  39.882   5.274   1.221
44582W        W 8515  33.032  33.572   9.963
44583W        W 8516   5.423  41.035  14.322
44584W        W 8517  20.718  41.461   1.800
44585W        W 8518  27.000  41.497  11.080
44586W        W 8519  43.838  41.306   4.335
44587W        W 8520  44.897  38.953  14.896
44588W        W 8521   6.274  24.651   2.269
44589W        W 8522  26.184  12.265  10.091
44590W        W 8523  44.270   6.678   4.789
44591W        W 8524  25.159  13.249  14.434
44592W        W 8525  36.416   6.761   0.360
44593W        W 8526  38.043  41.786   4.132
44594W        W 8527   2.429  24.693   1.303
44595W        W 8528  15.777  32.585   1.231
44596W        W 8529   9.837  38.436  12.463
44597W        W 8530   0.459  10.173  14.391
44598W        W 8531  15.252  31.624  12.446
44599W        W 8532  19.165  26.703   1.444
44600W        W 8533   2.830  14.294   2.305
44601W        W 8534  42.359   0.489  13.860
44602W        W 8535  39.405  43.298   3.833
44603W        W 8536  28.566  31.484  13.878
44604W        W 8537  10.189   4.914   0.405
44605W        W 8538  26.544  27.968  10.455
44606W        W 8539  10.745  26.109   2.280
44607W        W 8540  28.138   8.728  12.035
44608W        W 8541   3.898   3.371  12.826
44609W        W 8542  29.429  17.199   4.736
44610W        W 8543   0.464  10.746  12.547
44611W        W 8544  18.747   5.203   0.810
44612W        W 8545   6.796  24.622  12.397
44613W        W 8546  35.858  44.293  10.935
44614W        W 8547  26.644  34.038   0.796
44615W        W 8548  34.055  32.471  13.365
44616W        W 8549  29.623  13.342  11.936
44617W        W 8550  39.860  20.240   1.220
44618W        W 8551  17.658  24.083  10.601
44619W        W 8552   5.276  36.073   2.720
44620W        W 8553  17.709  35.901  10.512
44621W        W 8554  14.630  16.207   1.299
44622W        W 8555  33.887  41.295  14.383
44623W        W 8556  11.784  40.352  11.507
44624W        W 8557   9.359   4.352  11.063
44625W        W 8558  12.244   9.885   1.718
44626W        W 8559  30.962  15.319   3.309
44627W        W 8560  11.360  26.596  14.769
44628W        W 8561  42.353  33.547   1.812
44629W        W 8562  19.251  15.703   2.893
44630W        W 8563  41.837  30.937  13.443
44631W        W 8564  42.374  14.763   1.849
44632W        W 8565  11.337  12.153   2.411
44633W        W 8566  24.603  39.966   2.876
44634W        W 8567   8.730  42.364  12.888
44635W        W 8568  25.150  35.401   2.188
44636W        W 8569  29.080  23.147  11.052
44637W        W 8570   1.274  32.630  10.544
44638W        W 8571  37.461  44.469   2.287
44639W        W 8572  40.546  20.609  13.990
44640W        W 8573  19.053  10.227   4.794
44641W        W 8574  22.517  14.736  11.524
44642W        W 8575  32.089  38.056  13.321
44643W        W 8576  29.993  20.734   1.259
44644W        W 8577  34.103  35.467   1.864
44645W        W 8578  36.392  32.119  14.492
44646W        W 8579  25.978  24.712  12.481
44647W        W 8580  13.252  42.990  12.430
44648W        W 8581  29.626  24.610  13.905
44649W        W 8582  39.920  38.919  14.376
44650W        W 8583  35.541  30.421  11.421
44651W        W 8584  10.681   7.357  10.437
44652W        W 8585  38.382  31.513  14.394
44653W        W 8586  27.598  19.670  11.437
44654W        W 8587  12.742  16.732   3.768
44655W        W 8588   9.681  37.968  12.354
44656W        W 8589  44.426  25.619  14.006
44657W        W 8590  30.029   2.757  12.860
44658W        W 8591  40.990   8.865  14.367
44659W        W 8592  31.609   6.692  11.009
44660W        W 8593  30.575   9.197   4.605
44661W        W 8594  15.307  37.565   0.960
44662W        W 8595  43.366  28.963  10.479
44663W        W 8596  35.359  36.549  11.077
44664W        W 8597   9.198   8.333  11.525
44665W        W 8598  32.074  13.309   1.377
44666W        W 8599  32.069  44.455   0.790
44667W        W 8600  21.074   9.363   3.751
44668W        W 8601   5.747  18.291  14.875
44669W        W 8602  30.623   9.858   4.215
44670W        W 8603  10.677  12.821  10.408
44671W        W 8604  22.114  35.435   2.689
44672W        W 8605  13.198  44.353   5.298
44673W        W 8606  36.525  38.480  14.333
44674W        W 8607   6.343  39.863  13.968
44675W        W 8608   3.269  16.257   2.733
44676W        W 8609  43.009  35.585   1.875
44677W        W 8610  16.197  42.504   1.234
44678W        W 8611  38.513  42.500   3.718
44679W        W 8612  34.876  16.280   1.925
44680W        W 8613  22.717  33.568   5.281
44681W        W 8614  31.597   2.230  11.483
44682W        W 8615  25.149  37.888   2.316
44683W        W 8616  15.192   5.234  14.940
44684W        W 8617  20.604  34.526   2.824
44685W        W 8618   6.195   0.384   0.734
44686W        W 8619  31.537   9.709   3.150
44687W        W 8620  27.561  40.321  10.607
44688W        W 8621  30.480   1.924   4.243
44689W        W 8622  26.953  37.888  13.979
44690W        W 8623  18.605  44.755   4.677
44691W        W 8624  17.673  20.640  11.585
44692W        W 8625  37.916  39.402  10.514
44693W        W 8626   3.904  42.428  10.904
44694W        W 8627  34.411  41.465  10.547
44695W        W 8628  44.949   5.343  11.547
44696W        W 8629   0.452  26.185   0.364
44697W        W 8630  39.399   5.784   3.331
44698W        W 8631  23.236  30.614   3.335
44699W        W 8632  35.551  35.516   2.755
44700W        W 8633  38.841  13.335   5.144
44701W        W 8634  44.355  42.444   1.248
44702W        W 8635  40.472  17.063   3.807
44703W        W 8636  28.103   4.883   1.757
44704W        W 8637  20.723  13.315  12.017
44705W        W 8638  15.664  19.751   0.465
44706W        W 8639  17.574  10.729  12.526
44707W        W 8640  11.758   5.289   1.220
44708W        W 8641  44.871  44.421   2.836
44709W        W 8642  39.843  26.161   2.184
44710W        W 8643  23.671  22.215  10.522
44711W        W 8644  29.981  14.101  14.332
44712W        W 8645  28.952  17.745   4.737
44713W        W 8646  43.349  41.356  10.436
44714W        W 8647  29.099  19.273   4.611
44715W        W 8648   8.344  32.903   3.293
44716W        W 8649  35.524  23.120   3.216
44717W        W 8650  37.533  25.988  14.352
44718W        W 8651   2.471  14.669   2.389
44719W        W 8652   1.755  19.644  14.380
44720W        W 8653  13.157   4.344   1.854
44721W        W 8654  18.771  11.754   2.784
44722W        W 8655  26.689  34.968   3.668
44723W        W 8656  37.867  19.706   0.272
44724W        W 8657  12.236  39.816  13.403
44725W        W 8658   2.245   5.728  10.426
44726W        W 8659  28.539  20.620   3.840
44727W        W 8660   0.979   2.948  11.080
44728W        W 8661  37.414  10.749  11.947
44729W        W 8662   0.756  34.443   2.260
44730W        W 8663  22.586  41.458   1.798
44731W        W 8664  23.554   1.259   3.229
44732W        W 8665  19.707  32.112   3.153
44733W        W 8666  40.515  44.810  14.280
44734W        W 8667  31.125  28.514   4.114
44735W        W 8668  26.991   9.214  13.985
44736W        W 8669  40.436  16.628  12.950
44737W        W 8670  37.335  16.191  14.473
44738W        W 8671   1.344   7.192  10.476
44739W        W 8672  28.992   4.769   0.412
44740W        W 8673   1.416  31.469  12.958
44741W        W 8674   2.323  19.774  10.154
44742W        W 8675  19.649  38.820   4.704
44743W        W 8676  30.092   0.803   3.306
44744W        W 8677  42.288   3.250   3.811
44745W        W 8678  17.118   3.388   1.888
44746W        W 8679   9.228  44.002  11.066
44747W        W 8680   3.820   2.793  12.095
44748W        W 8681  17.203  16.207  11.405
44749W        W 8682  37.983   5.368   0.333
44750W        W 8683  36.049   2.436  13.808
44751W        W 8684  41.468  43.953   4.258
44752W        W 8685   1.769  10.713   0.351
44753W        W 8686   1.450  18.660  13.836
44754W        W 8687   5.382  43.784   1.934
44755W        W 8688   6.791  39.480  10.543
44756W        W 8689  27.676  17.136  13.966
44757W        W 8690  17.700  29.583   3.635
44758W        W 8691  18.112   8.659   1.270
44759W        W 8692  19.587  40.872  13.808
44760W        W 8693   9.750  37.932  10.965
44761W        W 8694  32.893  12.339   2.877
44762W        W 8695  11.753   5.838  11.609
44763W        W 8696  25.608  17.644   0.800
44764W        W 8697  10.185   2.771   1.284
44765W        W 8698  44.999  21.083   1.783
44766W        W 8699  16.298  41.799  14.496
44767W        W 8700  39.927  40.807   4.716
44768W        W 8701   5.734  15.214  11.920
44769W        W 8702   3.453  38.835  13.876
44770W        W 8703  40.951  44.267  12.967
44771W        W 8704  11.708  34.576   3.714
44772W        W 8705  33.892  30.965   3.210
44773W        W 8706  42.842   2.809  10.982
44774W        W 8707  37.544  23.673  11.083
44775W        W 8708  22.528  12.310   9.932
44776W        W 8709   9.244  35.857  13.041
44777W        W 8710  43.350  27.999   4.186
44778W        W 8711  13.838  17.679  11.942
44779W        W 8712   3.784  11.827   2.893
44780W        W 8713  37.046  36.077   3.211
44781W        W 8714   2.751  22.577   4.333
44782W        W 8715  13.822  28.097  10.888
44783W        W 8716  28.022  37.873   2.191
44784W        W 8717  40.815  19.699   4.740
44785W        W 8718  24.176  39.359  10.616
44786W        W 8719  36.871  10.191  10.585
44787W        W 8720  35.381  20.051   3.709
44788W        W 8721   5.203  40.911  13.820
44789W        W 8722  28.442  11.660  11.048
44790W        W 8723   4.252  32.453  12.426
44791W        W 8724  41.999  27.967   0.780
44792W        W 8725  31.489   1.868   3.378
44793W        W 8726  21.615  26.538   0.261
44794W        W 8727  37.080  30.149  10.929
44795W        W 8728  31.951  36.566   3.187
44796W        W 8729  31.966  37.429  12.840
44797W        W 8730   0.438  28.518   0.904
44798W        W 8731  27.598  29.629   3.323
44799W        W 8732  36.541   7.847   0.947
44800W        W 8733  34.489  12.698   3.649
44801W        W 8734  39.808   5.268  11.967
44802W        W 8735  28.143  18.777   3.822
44803W        W 8736   6.263   6.205   1.266
44804W        W 8737  37.005  42.511  12.933
44805W        W 8738  33.506  21.019   2.322
44806W        W 8739  42.917  27.478  14.826
44807W        W 8740  39.426  27.102   4.340
44808W        W 8741  16.131  36.354   1.814
44809W        W 8742  20.114  17.184   3.187
44810W        W 8743  36.396  37.412   3.637
44811W        W 8744  22.226  42.903   4.169
44812W        W 8745  39.475  25.597  12.905
44813W        W 8746   8.856  37.434  14.855
44814W        W 8747  17.754  33.926   1.711
44815W        W 8748  39.821  37.428  12.449
44816W        W 8749  44.770  41.481   1.773
44817W        W 8750  42.462  11.269  11.110
44818W        W 8751   1.866  14.623  11.042
44819W        W 8752   7.257  44.284   1.731
44820W        W 8753   3.734  24.161  14.763
44821W        W 8754  39.015   2.878  11.398
44822W        W 8755  23.984  31.475  11.495
44823W        W 8756   1.260  43.913   4.730
44824W        W 8757  29.599  29.134   3.299
44825W        W 8758  11.369  41.878   4.217
44826W        W 8759   8.721  35.925  12.898
44827W        W 8760  13.761  10.826   3.369
44828W        W 8761  43.928   0.314   0.375
44829W        W 8762   5.346  35.480   3.170
44830W        W 8763   6.837   0.770  10.918
44831W        W 8764  24.005  31.942   4.209
44832W        W 8765  29.540  14.815   4.302
44833W        W 8766   1.799   3.869  12.498
44834W        W 8767  28.438  19.108   0.246
44835W        W 8768  33.410   1.895  10.036
44836W        W 8769  30.018  26.196  11.994
44837W        W 8770   4.841  34.393  14.449
44838W        W 8771  38.336   7.842   3.248
44839W        W 8772  31.970  28.168  12.861
44840W        W 8773  22.575  25.007   2.869
44841W        W 8774  13.274  38.032  11.903
44842W        W 8775  13.288  37.964  14.417
44843W        W 8776   3.775  26.669   3.276
44844W        W 8777  26.570   6.268   1.925
44845W        W 8778  12.776  37.382  12.059
44846W        W 8779  17.229  24.205   2.818
44847W        W 8780  12.624  22.107  12.836
44848W        W 8781  27.626   0.918   4.743
44849W        W 8782  20.192  16.142   5.233
44850W        W 8783  11.158  37.969   4.696
44851W        W 8784   5.881  11.724  11.486
44852W        W 8785   0.884  29.923  10.407
44853W        W 8786  37.066  30.056   0.272
44854W        W 8787  14.657  10.368  12.069
44855W        W 8788  32.036   3.311   1.898
44856W        W 8789  26.592  44.389  11.492
44857W        W 8790  38.862   2.391  12.929
44858W        W 8791   6.372   3.904   4.747
44859W        W 8792   5.834   4.873  11.390
44860W        W 8793  31.135  31.429   2.388
44861W        W 8794  15.229  14.145   0.411
44862W        W 8795  40.877   4.805   3.385
44863W        W 8796  28.979  27.990   4.638
44864W        W 8797  33.496  13.319  13.913
44865W        W 8798  29.161   7.380  14.867
44866W        W 8799  22.041   4.896  13.435
44867W        W 8800  30.924   5.745  13.810
44868W        W 8801  23.024  28.547   2.327
44869W        W 8802   0.973  28.025  12.558
44870W        W 8803  42.011  21.091   2.772
44871W        W 8804  41.449  36.088   4.642
44872W        W 8805   2.414  28.620   0.945
44873W        W 8806  28.097  40.377  11.382
44874W        W 8807   8.209   1.384  13.033
44875W        W 8808   9.828   0.856  12.457
44876W        W 8809   4.722  37.438  14.771
44877W        W 8810   1.759  17.195  13.460
44878W        W 8811  41.801  11.760   1.902
44879W        W 8812  30.985  35.091  12.973
44880W        W 8813  38.553  42.962  12.981
44881W        W 8814  17.673  40.364   3.728
44882W        W 8815  26.170  25.125  14.347
44883W        W 8816  44.298  43.921  13.800
44884W        W 8817   1.951  33.550  12.560
44885W        W 8818   2.261  22.556  12.562
44886W        W 8819  44.763   5.750   0.448
44887W        W 8820  12.323   9.367  12.985
44888W        W 8821  12.683  21.136   2.788
44889W        W 8822  42.920  33.622  10.900
44890W        W 8823  39.406  39.518  12.566
44891W        W 8824  29.577  33.524  11.547
44892W        W 8825   8.780  36.452   3.713
44893W        W 8826  43.365  27.486  13.046
44894W        W 8827   4.371  39.523  13.546
44895W        W 8828  37.342  38.977  14.475
44896W        W 8829   6.880  31.980   2.787
44897W        W 8830   2.255   2.365   2.784
44898W        W 8831   7.218  29.086  11.062
44899W        W 8832  23.563  27.600  11.032
44900W        W 8833   4.909  36.458  14.904
44901W        W 8834   2.269   6.278  11.120
44902W        W 8835  17.784   4.790   2.713
44903W        W 8836  13.311  31.497  13.906
44904W        W 8837  36.053  34.086   2.191
44905W        W 8838  28.490   6.744  11.604
44906W        W 8839  20.754  14.285  14.392
44907W        W 8840  26.642  33.426  14.886
44908W        W 8841  32.564  25.503   4.211
44909W        W 8842  19.167  33.942   4.625
44910W        W 8843  10.276  30.477  13.037
44911W        W 8844  26.544   0.343  11.081
44912W        W 8845  17.556  36.560  13.810
44913W        W 8846  42.486  14.591  11.032
44914W        W 8847   7.224  11.240   1.389
44915W        W 8848  24.204  35.496   2.247
44916W        W 8849  28.953  18.573   2.681
44917W        W 8850  14.210   2.264  14.310
44918W        W 8851  42.779  24.067   5.308
44919W        W 8852  21.244  15.198   3.330
44920W        W 8853  39.448   6.753  14.432
44921W        W 8854  19.073  34.049  14.323
44922W        W 8855  11.676  16.201   1.388
44923W        W 8856   3.777  32.898   2.786
44924W        W 8857  41.865  36.955   3.200
44925W        W 8858  44.790  39.349  11.508
44926W        W 8859  20.594   2.810  13.798
44927W        W 8860   9.306  27.619   0.919
44928W        W 8861  31.911  42.325  13.834
44929W        W 8862   6.183  35.588  13.457
44930W        W 8863  35.533  34.535  14.776
44931W        W 8864   8.810  30.557  10.147
44932W        W 8865  20.114  44.927  12.055
44933W        W 8866  21.067  17.225  10.902
44934W        W 8867   2.944  27.170   2.729
44935W        W 8868  12.617  10.216   4.746
44936W        W 8869  42.476  41.923   2.858
44937W        W 8870  19.680  19.278  12.919
44938W        W 8871  38.012  35.531  13.854
44939W        W 8872  38.000  38.373  13.843
44940W        W 8873  27.126  32.606  14.781
44941W        W 8874  35.491  11.640  10.423
44942W        W 8875   8.736  26.045   5.280
44943W        W 8876  38.878  43.868   3.805
44944W        W 8877   4.721  29.600   3.317
44945W        W 8878   4.737   2.886  10.060
44946W        W 8879  13.687   2.289  14.789
44947W        W 8880  19.248  40.489   4.319
44948W        W 8881  34.097  28.648  14.329
44949W        W 8882   7.190  14.721  13.050
44950W        W 8883   1.427  27.683   4.116
44951W        W 8884  10.231  13.223   0.457
44952W        W 8885   1.446  43.962  12.828
44953W        W 8886  21.207  23.728   2.338
44954W        W 8887  26.988  19.594  14.916
44955W        W 8888   4.800  39.550  10.930
44956W        W 8889  29.600   5.269   4.183
44957W        W 8890  42.383   3.813  13.792
44958W        W 8891   0.393  31.108  10.918
44959W        W 8892  23.604  30.992  13.347
44960W        W 8893  25.642  29.484  10.935
44961W        W 8894  38.830  21.539  13.009
44962W        W 8895  10.700  23.137  14.449
44963W        W 8896   7.864   3.224   1.441
44964W        W 8897   7.782  22.995  13.427
44965W        W 8898   0.787  25.213   2.310
44966W        W 8899  20.201   2.261   4.332
44967W        W 8900  22.690  39.886  11.396
44968W        W 8901  24.496  26.016   3.223
44969W        W 8902  36.553   5.198  14.468
44970W        W 8903  28.486  33.038   4.232
44971W        W 8904  25.531   1.827  10.161
44972W        W 8905  13.735  16.700  14.453
44973W        W 8906   6.406   5.194   3.335
44974W        W 8907  20.645  44.485  14.387
44975W        W 8908  18.690  38.382  12.553
44976W        W 8909  41.496  35.490   4.321
44977W        W 8910  15.616  42.403  10.620
44978W        W 8911  31.956  28.170  11.530
44979W        W 8912  24.486   8.659  14.485
44980W        W 8913   6.380   7.299  12.361
44981W        W 8914  23.203  44.957   4.330
44982W        W 8915  18.688   2.886  13.927
44983W        W 8916  37.949  24.219   1.452
44984W        W 8917  26.661  22.138   4.277
44985W        W 8918  41.501  24.990  10.631
44986W        W 8919  29.056   6.723  11.042
44987W        W 8920  13.206  20.643   4.159
44988W        W 8921   1.843  24.987  13.819
44989W        W 8922   9.688  19.692  13.869
44990W        W 8923  20.147  32.009   2.700
44991W        W 8924   6.851  29.091  12.565
44992W        W 8925  19.621  15.682   3.649
44993W        W 8926  13.189   5.247   5.298
44994W        W 8927   6.813  19.590   1.316
44995W        W 8928  38.394  34.395   2.412
44996W        W 8929  37.543   1.854   0.452
44997W        W 8930  20.274  15.310  11.597
44998W        W 8931  22.738  27.662  14.889
44999W        W 8932  41.370  33.503  13.403
45000W        W 8933  34.941  36.466   0.802
45001W        W 8934  31.430  39.535   0.781
45002W        W 8935   2.734  28.659   4.267
45003W        W 8936  16.281  18.063  13.890
45004W        W 8937  25.703  24.597   2.389
45005W        W 8938   7.906  13.278   4.306
45006W        W 8939  23.146   0.479  11.420
45007W        W 8940  24.185  23.172  10.982
45008W        W 8941  36.484  19.615  12.090
45009W        W 8942   6.344  42.500   2.901
45010W        W 8943  22.508  29.549   2.849
45011W        W 8944  30.162   7.411   0.246
45012W        W 8945  21.552   4.847  12.086
45013W        W 8946  19.687   7.729   2.228
45014W        W 8947  33.005  25.633  14.447
45015W        W 8948  37.450   7.858  14.847
45016W        W 8949   4.347  23.206  14.504
45017W        W 8950  37.886  44.946  13.794
45018W        W 8951   9.763   5.814   0.369
45019W        W 8952   5.753  37.524  11.382
45020W        W 8953  44.803  18.261   2.311
45021W        W 8954  16.683  19.561   1.308
45022W        W 8955  32.557  40.000   2.398
45023W        W 8956  15.205   1.908  13.481
45024W        W 8957  31.614   7.808  12.514
45025W        W 8958  44.897  13.207  11.032
45026W        W 8959  28.977   1.449   3.292
45027W        W 8960  14.705   2.442   4.767
45028W        W 8961  21.212  39.041   1.713
45029W        W 8962   7.171  14.811   1.723
45030W        W 8963   8.660  28.590  11.560
45031W        W 8964  38.954  32.896  13.321
45032W        W 8965  35.924  37.463   3.845
45033W        W 8966  11.660  36.439  11.454
45034W        W 8967  23.649  37.560   2.229
45035W        W 8968  39.947  34.892   3.689
45036W        W 8969  19.561   8.309  12.452
45037W        W 8970  36.894  35.084  11.390
45038W        W 8971  37.382  19.215   4.333
45039W        W 8972  29.158  34.592   4.837
45040W        W 8973  34.048  19.190  10.522
45041W        W 8974  27.610   6.810   2.756
45042W        W 8975  10.770   5.795  12.461
45043W        W 8976  19.215  11.801  13.965
45044W        W 8977  32.524  42.485   2.872
45045W        W 8978   9.189   0.884   2.307
45046W        W 8979  35.546  12.776  11.052
45047W        W 8980   8.404   8.228   1.763
45048W        W 8981  19.580  27.554  10.498
45049W        W 8982  16.759  34.941  11.960
45050W        W 8983  32.427   6.392  13.951
45051W        W 8984  20.525  42.394  12.554
45052W        W 8985  17.568  37.420  11.124
45053W        W 8986  32.553  25.131  10.523
45054W        W 8987  38.034  20.600  14.291
45055W        W 8988  15.617  39.991   1.926
45056W        W 8989   1.746  18.757  12.023
45057W        W 8990   7.399  22.654  10.618
45058W        W 8991  30.122  31.107   2.773
45059W        W 8992  13.653  30.617   1.248
45060W        W 8993   3.938  13.137   1.753
45061W        W 8994  13.131  31.086   2.689
45062W        W 8995   4.247  22.609  14.507
45063W        W 8996  15.283  25.973   0.451
45064W        W 8997  23.090  18.683   2.283
45065W        W 8998  34.383  23.240   4.740
45066W        W 8999  44.885  40.370   2.258
45067W        W 9000  25.658  30.030  10.635
45068W        W 9001  19.662  24.532  13.469
45069W        W 9002  21.708  37.512   4.751
45070W        W 9003   2.339  18.758  13.912
45071W        W 9004  17.664  33.131  11.463
45072W        W 9005  34.517  41.805  12.499
45073W        W 9006  12.669  33.606   4.269
45074W        W 9007  26.697  28.008  13.024
45075W        W 9008  19.665  19.735  11.503
45076W        W 9009  33.968  35.033   0.926
45077W        W 9010  42.023  11.197  10.605
45078W        W 9011  26.546   8.875   2.664
45079W        W 9012   1.463  31.041   1.783
45080W        W 9013  41.830  44.344  13.484
45081W        W 9014  43.340  16.712  13.055
45082W        W 9015   4.829   4.850   4.676
45083W        W 9016  18.583  44.284   2.204
45084W        W 9017  32.430  23.647  11.393
45085W        W 9018  10.691  18.628   0.294
45086W        W 9019  28.679  14.179  10.554
45087W        W 9020   8.177  25.692   9.514
45088W        W 9021   5.864  16.099   1.789
45089W        W 9022  40.526  40.495   1.903
45090W        W 9023  39.940  20.717   0.443
45091W        W 9024  33.035  31.641   4.736
45092W        W 9025  18.717  44.852  14.289
45093W        W 9026  11.748  39.389  10.632
45094W        W 9027  43.952   0.863  13.953
45095W        W 9028  27.946  18.635  13.963
45096W        W 9029  26.178  37.871  12.995
45097W        W 9030  34.573  13.774  13.056
45098W        W 9031  11.318  15.257   2.838
45099W        W 9032   3.362  43.832   3.789
45100W        W 9033  29.438   7.232   4.120
45101W        W 9034   6.380   7.876  12.388
45102W        W 9035  34.902  29.531   1.213
45103W        W 9036  27.073  42.834   1.399
45104W        W 9037  28.093  31.454  14.317
45105W        W 9038   7.853  31.913  14.293
45106W        W 9039  30.524  44.953  14.983
45107W        W 9040  38.557  40.513   4.787
45108W        W 9041  40.475  20.588   4.180
45109W        W 9042  44.991   5.322  13.808
45110W        W 9043  31.023  39.427   1.714
45111W        W 9044  29.086  16.723  10.927
45112W        W 9045  39.464  23.083   2.872
45113W        W 9046  11.791  11.174   0.331
45114W        W 9047  38.461  35.984   0.381
45115W        W 9048   2.234   7.277  11.862
45116W        W 9049  18.563   0.391  12.354
45117W        W 9050  41.420  27.118  10.614
45118W        W 9051  34.505  29.428   4.310
45119W        W 9052  39.340  41.933  10.617
45120W        W 9053   8.328   4.271   0.479
45121W        W 9054  25.593  24.222   2.783
45122W        W 9055  11.635  26.176  12.356
45123W        W 9056  16.223  28.172  12.401
45124W        W 9057  41.487  34.491   4.753
45125W        W 9058  42.976  26.622  12.825
45126W        W 9059  42.319  25.592   4.189
45127W        W 9060  37.974  15.316   0.813
45128W        W 9061  21.028  17.741  10.993
45129W        W 9062  40.807  10.821  12.435
45130W        W 9063  35.593   9.155  11.899
45131W        W 9064  29.959  21.645  11.896
45132W        W 9065  28.570  25.565  13.850
45133W        W 9066  29.443  40.875  12.918
45134W        W 9067  17.181  24.569   2.307
45135W        W 9068  44.324   1.340   1.230
45136W        W 9069  32.136  42.975   0.305
45137W        W 9070   1.404   4.335  11.984
45138W        W 9071  19.228   4.900   4.167
45139W        W 9072  22.686   4.874   3.184
45140W        W 9073   5.342  31.445   0.895
45141W        W 9074  38.388   0.248   2.219
45142W        W 9075   6.746  35.009   2.857
45143W        W 9076  17.225   5.226   1.721
45144W        W 9077   8.710  30.637  13.811
45145W        W 9078   3.309  33.428   3.255
45146W        W 9079  44.345  11.239  14.507
45147W        W 9080  43.490  25.661   1.720
45148W        W 9081   8.182  13.702  13.351
45149W        W 9082  13.709  21.747  10.606
45150W        W 9083  21.116   9.763   1.779
45151W        W 9084  38.453  27.463   0.826
45152W        W 9085  14.598  35.919  14.774
45153W        W 9086  20.607  26.530   2.763
45154W        W 9087  14.302   2.906  14.022
45155W        W 9088  11.638  32.524  13.953
45156W        W 9089  28.600  39.418   4.198
45157W        W 9090  43.360  43.350  11.396
45158W        W 9091  28.624  44.268  11.541
45159W        W 9092  20.676  19.280   4.679
45160W        W 9093  44.307  33.081   3.284
45161W        W 9094   5.283  14.105  12.461
45162W        W 9095   8.278  27.572  13.474
45163W        W 9096  26.064  30.644  11.527
45164W        W 9097  11.768  31.456   0.307
45165W        W 9098  17.726  40.398  14.800
45166W        W 9099  26.004  40.021  12.360
45167W        W 9100   5.298  44.359  11.475
45168W        W 9101  26.975  33.560  10.541
45169W        W 9102  13.794  23.178  13.934
45170W        W 9103  10.695  31.484   2.725
45171W        W 9104  35.000  28.602  12.433
45172W        W 9105  13.340  30.484   1.418
45173W        W 9106  38.834  32.070   2.250
45174W        W 9107  28.493  19.045   2.258
45175W        W 9108  33.996   8.698   3.727
45176W        W 9109  28.478  18.663   4.252
45177W        W 9110  24.065  23.705  11.402
45178W        W 9111  26.675  11.629   3.636
45179W        W 9112  12.331  38.036  10.599
45180W        W 9113  18.136  16.733  12.027
45181W        W 9114  14.787  43.792   4.784
45182W        W 9115  36.386  20.119  13.351
45183W        W 9116  10.205  16.217   4.246
45184W        W 9117  27.617  41.788  13.958
45185W        W 9118  19.705  16.747   0.877
45186W        W 9119   7.834  35.854   1.361
45187W        W 9120  42.312  42.495  14.983
45188W        W 9121  16.796  19.759   3.747
45189W        W 9122  19.776  34.906  12.874
45190W        W 9123  34.979  39.403   2.301
45191W        W 9124   5.886  23.510   0.896
45192W        W 9125  40.841  29.505   4.718
45193W        W 9126  43.842   1.801   2.203
45194W        W 9127  11.778   3.383   2.232
45195W        W 9128  26.124  22.513   0.293
45196W        W 9129  32.119   0.357   3.814
45197W        W 9130  35.047  12.634   0.315
45198W        W 9131  10.194   6.891   3.853
45199W        W 9132   5.308  16.639   9.984
45200W        W 9133  11.283  38.515   1.694
45201W        W 9134  24.552  22.118  10.417
45202W        W 9135  44.279   2.846   1.287
45203W        W 9136  17.722  34.878  10.130
45204W        W 9137  11.841   3.836  10.543
45205W        W 9138  12.325  23.175   0.921
45206W        W 9139  16.306  18.052  10.489
45207W        W 9140  20.655  14.309   4.634
45208W        W 9141  30.000  30.126  14.310
45209W        W 9142  27.577  33.124  13.880
45210W        W 9143   9.824  22.212   2.876
45211W        W 9144   6.240  36.892   2.226
45212W        W 9145  40.362  37.444   4.613
45213W        W 9146  13.755  22.228  10.488
45214W        W 9147  41.304  22.176   3.794
45215W        W 9148  25.209  17.201   2.737
45216W        W 9149  34.069  22.697   2.357
45217W        W 9150  37.368   2.839  13.374
45218W        W 9151   9.776  44.292  12.488
45219W        W 9152  34.408  18.070  13.964
45220W        W 9153  23.077   0.915  12.008
45221W        W 9154  37.005  11.332   1.816
45222W        W 9155  24.148  17.651  10.939
45223W        W 9156   4.726  33.407  13.394
45224W        W 9157  37.830  28.511  13.438
45225W        W 9158  18.667  39.410  11.566
45226W        W 9159  18.717   9.189  13.901
45227W        W 9160  26.624  29.479   5.091
45228W        W 9161  16.181   6.237   3.209
45229W        W 9162  10.184  35.417  12.393
45230W        W 9163   3.442   6.419   3.269
45231W        W 9164  38.444  40.458  13.363
45232W        W 9165  30.089   8.199   2.892
45233W        W 9166  27.122  15.664   2.714
45234W        W 9167  32.042  44.758   4.638
45235W        W 9168  25.695  24.060  14.986
45236W        W 9169  39.530   1.744   4.658
45237W        W 9170   8.714  27.130   0.736
45238W        W 9171  26.107  28.069   3.159
45239W        W 9172  18.654  11.291   3.294
45240W        W 9173  23.117  11.688   3.376
45241W        W 9174  10.826  23.601   1.229
45242W        W 9175  13.720   9.715  12.854
45243W        W 9176  10.805  35.603   1.211
45244W        W 9177  42.358  44.339   1.914
45245W        W 9178  25.601  26.050   0.384
45246W        W 9179  22.688  30.527   0.397
45247W        W 9180  36.499  25.702   1.818
45248W        W 9181  19.141  20.171  14.515
45249W        W 9182  33.509   3.766   3.272
45250W        W 9183  37.847  14.115   1.772
45251W        W 9184   5.385  37.944   2.414
45252W        W 9185  10.301  34.538   3.252
45253W        W 9186   2.454   1.454  11.994
45254W        W 9187  26.532  44.280   1.766
45255W        W 9188  13.322   6.769   5.754
45256W        W 9189  22.082   8.659  12.523
45257W        W 9190  24.536   1.448   4.128
45258W        W 9191  20.575  41.879  13.912
45259W        W 9192  27.997   3.397   4.133
45260W        W 9193  12.228  19.700  12.894
45261W        W 9194   6.682  31.072  11.970
45262W        W 9195  35.864  38.894  14.804
45263W        W 9196   1.405  32.076  11.914
45264W        W 9197  23.638  41.807   4.156
45265W        W 9198  28.674  30.596   3.748
45266W        W 9199  29.046  17.266  11.449
45267W        W 9200   3.736  19.064  12.523
45268W        W 9201  30.099  23.097   0.816
45269W        W 9202  37.891  24.109  10.905
45270W        W 9203  28.569  32.007  13.504
45271W        W 9204  36.440  27.115  13.514
45272W        W 9205  17.221  11.333  11.027
45273W        W 9206  14.181  37.368   1.912
45274W        W 9207  30.064  11.785   4.322
45275W        W 9208  37.933  33.082  10.489
45276W        W 9209  17.269  31.620  13.972
45277W        W 9210  42.876  11.642  12.878
45278W        W 9211  19.725  44.870   4.820
45279W        W 9212  20.203  14.209   3.190
45280W        W 9213  24.188  30.938  13.379
45281W        W 9214  36.855  26.967  11.106
45282W        W 9215  22.126  23.217   0.358
45283W        W 9216   6.842  41.456   3.279
45284W        W 9217   5.795  40.912  12.568
45285W        W 9218  34.933   0.494  13.438
45286W        W 9219  12.706  10.330   1.261
45287W        W 9220  30.644  39.062  12.968
45288W        W 9221  11.348  21.645  12.011
45289W        W 9222   4.340  22.512  10.526
45290W        W 9223  17.591  32.065  11.061
45291W        W 9224   5.762  26.541  11.996
45292W        W 9225  28.108  28.611   1.283
45293W        W 9226  13.177  41.018  13.366
45294W        W 9227  17.649  29.546   4.187
45295W        W 9228   3.302  42.914  11.035
45296W        W 9229  36.561   7.347   1.900
45297W        W 9230  25.155  24.135   1.754
45298W        W 9231  25.036   8.296  12.433
45299W        W 9232  26.968  23.117   4.216
45300W        W 9233  34.583  32.397  12.995
45301W        W 9234  34.547  29.493   4.621
45302W        W 9235   7.895  29.526   0.867
45303W        W 9236  14.191  18.232  14.879
45304W        W 9237   6.192  34.531   2.852
45305W        W 9238  17.777  35.423   2.839
45306W        W 9239   5.211   1.368   2.384
45307W        W 9240   9.160  35.553   1.341
45308W        W 9241   2.273  28.935   4.818
45309W        W 9242   3.943  30.430  14.291
45310W        W 9243  39.515  23.525   4.717
45311W        W 9244  37.433  23.672   3.797
45312W        W 9245  12.196  36.086  13.883
45313W        W 9246  44.801  27.958  14.281
45314W        W 9247  38.839  28.460   4.784
45315W        W 9248  37.398   9.269  11.116
45316W        W 9249  31.138  13.196  12.986
45317W        W 9250  36.955  28.586  11.051
45318W        W 9251  20.556  10.868   0.816
45319W        W 9252  30.581  13.178   0.965
45320W        W 9253  19.776  11.289   1.257
45321W        W 9254  28.511   1.257   1.887
45322W        W 9255  17.247  15.297  12.460
45323W        W 9256  23.680  12.271  11.920
45324W        W 9257  24.036  30.554   2.272
45325W        W 9258  23.012  15.201   1.733
45326W        W 9259  33.996   4.374  14.314
45327W        W 9260  13.602  36.859  11.595
45328W        W 9261   6.294  34.947  13.361
45329W        W 9262   2.839  14.642   2.752
45330W        W 9263  22.563  14.108   4.204
45331W        W 9264  36.040  31.481  12.352
45332W        W 9265  23.619   4.245  12.372
45333W        W 9266  44.270  12.757   4.239
45334W        W 9267   2.417   2.751  13.311
45335W        W 9268   7.718  22.554   1.233
45336W        W 9269  33.043   9.823   1.915
45337W        W 9270  26.018  21.074   4.837
45338W        W 9271  39.352  37.987   4.173
45339W        W 9272   8.721  38.484   0.304
45340W        W 9273  18.086  20.040  14.975
45341W        W 9274   0.390   0.879  13.059
45342W        W 9275  19.251  15.630   1.870
45343W        W 9276   7.210  36.906   0.367
45344W        W 9277  26.518  16.650   3.312
45345W        W 9278  25.176  29.010  14.451
45346W        W 9279  26.117  29.531   2.858
45347W        W 9280  38.002  36.983   2.237
45348W        W 9281  11.130  12.742   0.863
45349W        W 9282  25.035   9.342   1.772
45350W        W 9283  28.605  10.658  12.864
45351W        W 9284   2.468  40.539  11.120
45352W        W 9285  35.952  32.548  11.042
45353W        W 9286  12.665  21.227   4.216
45354W        W 9287  39.460  17.637  12.002
45355W        W 9288  10.688  12.777   4.320
45356W        W 9289  33.123   1.902   3.224
45357W        W 9290  29.612   2.727  12.940
45358W        W 9291  17.567  31.516  13.351
45359W        W 9292   0.926  18.700  14.354
45360W        W 9293   0.911   3.926  10.600
45361W        W 9294  43.935  42.007  11.124
45362W        W 9295   1.905  12.613   2.859
45363W        W 9296  26.520  13.184  13.953
45364W        W 9297   0.781  36.466   3.290
45365W        W 9298  14.135  19.238   2.187
45366W        W 9299   4.813  21.171   1.311
45367W        W 9300  17.181   4.377  10.016
45368W        W 9301   6.261  26.460   4.754
45369W        W 9302   1.856  31.933   3.229
45370W        W 9303  36.864   4.820  14.965
45371W        W 9304  40.876  20.649  12.443
45372W        W 9305  32.555   4.767  11.051
45373W        W 9306  31.483   1.928   1.905
45374W        W 9307  42.349  37.981  14.954
45375W        W 9308  15.119  20.200   1.795
45376W        W 9309  42.029   2.720   0.813
45377W        W 9310  18.599  14.177   1.860
45378W        W 9311  25.520  20.149   1.295
45379W        W 9312  40.976   4.407  11.524
45380W        W 9313  29.529   9.884   2.742
45381W        W 9314  40.488   0.826  13.371
45382W        W 9315  22.148  21.235  10.141
45383W        W 9316   3.711  37.398  11.104
45384W        W 9317  25.168  15.720  10.486
45385W        W 9318  25.570  37.495  12.846
45386W        W 9319  30.157  21.078   0.930
45387W        W 9320  38.847   9.765   2.736
45388W        W 9321   2.838  17.116   4.640
45389W        W 9322  11.695   1.347   4.778
45390W        W 9323   4.428  19.196  11.949
45391W        W 9324  29.600  19.625  12.056
45392W        W 9325  39.461  17.281  13.457
45393W        W 9326  40.851  39.892  10.463
45394W        W 9327  27.946  30.929  10.433
45395W        W 9328  21.738  30.479  13.936
45396W        W 9329   1.950  34.471   1.878
45397W        W 9330  17.078  23.578  12.864
45398W        W 9331   7.883   4.750  10.918
45399W        W 9332  30.608  20.675  14.464
45400W        W 9333  11.318  19.631   1.335
45401W        W 9334  42.912  20.235   5.312
45402W        W 9335  24.655  17.627  12.342
45403W        W 9336  25.990   5.245  14.996
45404W        W 9337  36.076  43.501   3.238
45405W        W 9338   9.266  44.798  13.901
45406W        W 9339  23.654  18.210  11.862
45407W        W 9340  44.261  31.117   5.271
45408W        W 9341  40.335  29.644   4.117
45409W        W 9342  44.315  27.620   4.274
45410W        W 9343  36.005  14.173   0.853
45411W        W 9344  13.351  38.470   1.438
45412W        W 9345  38.034  32.962  11.582
45413W        W 9346  41.892  23.026  12.868
45414W        W 9347   6.712  34.919  13.329
45415W        W 9348  43.364  40.392   4.700
45416W        W 9349  24.084  20.715  13.004
45417W        W 9350  43.948  36.951  12.877
45418W        W 9351  39.030  31.106  11.592
45419W        W 9352   4.417  35.957  12.355
45420W        W 9353  16.188   3.410   3.643
45421W        W 9354  17.595  29.611  14.012
45422W        W 9355  26.553   0.975  14.407
45423W        W 9356  31.900  24.616   4.693
45424W        W 9357  29.140   8.673   0.878
45425W        W 9358   8.276  15.710  11.455
45426W        W 9359  40.925  12.193   0.869
45427W        W 9360  43.886  29.611   1.731
45428W        W 9361  36.405  36.498  13.327
45429W        W 9362  19.544   4.403   4.825
45430W        W 9363  18.269   2.358  13.985
45431W        W 9364  35.998  19.632   3.312
45432W        W 9365  22.174  20.164  13.309
45433W        W 9366   3.453  42.976  10.462
45434W        W 9367  33.393  18.561   4.829
45435W        W 9368  26.953  13.791  13.438
45436W        W 9369  27.014  21.650   0.292
45437W        W 9370  13.272  29.611   2.269
45438W        W 9371  42.897  30.050  12.095
45439W        W 9372   0.378  29.465  12.527
45440W        W 9373  36.857  37.469   4.164
45441W        W 9374   3.363   5.866   1.419
45442W        W 9375  19.102  23.119   1.852
45443W        W 9376   9.273  10.676  10.940
45444W        W 9377  34.897  31.926   0.744
45445W        W 9378   0.909  33.014   2.364
45446W        W 9379   6.736  41.455   0.306
45447W        W 9380  35.488  21.659   4.764
45448W        W 9381  40.538  34.609  11.520
45449W        W 9382  26.013  29.513   3.349
45450W        W 9383  18.687  14.104   1.272
45451W        W 9384  10.850  41.301  12.861
45452W        W 9385  37.991  27.603  14.909
45453W        W 9386  40.399   5.719   9.948
45454W        W 9387  33.399   6.427  13.022
45455W        W 9388  10.672  25.014  13.916
45456W        W 9389  15.819   0.774   2.309
45457W        W 9390   0.856  11.177  11.606
45458W        W 9391  37.929   2.830   1.414
45459W        W 9392   6.346  31.947   3.382
45460W        W 9393  30.593   2.332   3.151
45461W        W 9394  42.438  33.491   3.273
45462W        W 9395  29.924  40.893   2.741
45463W        W 9396   4.918  44.850   4.819
45464W        W 9397   7.411  40.914   4.294
45465W        W 9398  15.786  21.608  14.484
45466W        W 9399  29.543  20.180  13.867
45467W        W 9400  13.351  24.203   5.303
45468W        W 9401  19.228  11.628  12.958
45469W        W 9402  30.101   1.482  14.778
45470W        W 9403  11.651  40.410  13.852
45471W        W 9404  42.371  33.882   0.885
45472W        W 9405   1.462  29.615   1.382
45473W        W 9406  22.097  25.711   4.816
45474W        W 9407  11.163  22.722   2.858
45475W        W 9408  25.186  43.387  14.875
45476W        W 9409  43.974   1.355  14.500
45477W        W 9410  12.312  27.196   3.850
45478W        W 9411  11.635  43.381   1.386
45479W        W 9412  26.589  29.497   2.326
45480W        W 9413  34.004  23.170  13.019
45481W        W 9414   7.182  22.175   4.237
45482W        W 9415  19.766  23.064   4.314
45483W        W 9416  21.258  42.343   2.665
45484W        W 9417  14.246  14.281   3.766
45485W        W 9418  25.505  33.877   1.694
45486W        W 9419  19.149   4.933  12.843
45487W        W 9420  31.403  11.726   3.326
45488W        W 9421   6.854  28.435  10.541
45489W        W 9422  39.517   3.284  14.370
45490W        W 9423  11.720  12.138  10.937
45491W        W 9424   1.853  35.922   0.331
45492W        W 9425   6.744   0.356  11.475
45493W        W 9426  11.758   2.466  11.897
45494W        W 9427   0.259  22.020  14.887
45495W        W 9428  27.148  37.391  10.945
45496W        W 9429  41.426  31.930  13.874
45497W        W 9430  40.831  36.933  13.841
45498W        W 9431  43.829  36.385   5.598
45499W        W 9432  11.638   0.776   4.801
45500W        W 9433   5.225  18.666   0.925
45501W        W 9434  10.144  42.465   3.236
45502W        W 9435  31.471  32.966  12.420
45503W        W 9436   1.796  12.685  12.015
45504W        W 9437   6.380  22.502   4.675
45505W        W 9438   3.888  30.480  13.950
45506W        W 9439  37.494   7.803  13.433
45507W        W 9440  38.838  31.434   4.753
45508W        W 9441  11.332  37.581  10.121
45509W        W 9442  36.533  27.524  13.016
45510W        W 9443  18.127  13.729  11.959
45511W        W 9444  44.448  10.335   1.868
45512W        W 9445   7.849  41.364   1.332
45513W        W 9446  10.684  37.531   0.423
45514W        W 9447   6.750  30.984  11.036
45515W        W 9448  13.325   4.945  10.088
45516W        W 9449  12.714  31.919   3.163
45517W        W 9450  32.987  19.150   3.759
45518W        W 9451   7.845  21.639   1.734
45519W        W 9452  21.218  28.129   2.681
45520W        W 9453  15.691  36.522   5.210
45521W        W 9454  42.902  34.580   0.805
45522W        W 9455  27.663  36.927   2.357
45523W        W 9456  14.755   6.703   0.331
45524W        W 9457  38.459  17.749  14.276
45525W        W 9458  41.850  10.800  12.505
45526W        W 9459  41.913   7.767  14.964
45527W        W 9460   3.721  24.101  13.004
45528W        W 9461   3.800  10.827  10.956
45529W        W 9462  15.620  28.067   4.135
45530W        W 9463  23.018  32.945   1.321
45531W        W 9464  11.657  26.986   1.236
45532W        W 9465  32.483  21.557   2.808
45533W        W 9466  37.027  35.962   3.649
45534W        W 9467  36.012   9.317   4.709
45535W        W 9468   7.757  22.595   2.328
45536W        W 9469  43.493  41.842  12.944
45537W        W 9470  16.696  10.695  11.068
45538W        W 9471  38.028   3.731  12.529
45539W        W 9472  32.935   3.718   4.170
45540W        W 9473   8.883  25.152   2.713
45541W        W 9474  41.847  27.662   1.222
45542W        W 9475  34.535  39.829   2.785
45543W        W 9476  13.204  20.642  10.489
45544W        W 9477   1.326  33.473   4.711
45545W        W 9478  27.575   7.256   0.737
45546W        W 9479  37.052  34.380   4.168
45547W        W 9480  21.605   7.369  10.888
45548W        W 9481  22.176  35.064   3.789
45549W        W 9482  18.284  15.280   4.164
45550W        W 9483  13.701  41.532  13.944
45551W        W 9484  11.135  41.870  10.897
45552W        W 9485   5.398   6.888  14.354
45553W        W 9486  15.095  17.592  12.575
45554W        W 9487  19.696  27.518  13.840
45555W        W 9488  28.139   5.896   2.830
45556W        W 9489  18.766  34.503   2.370
45557W        W 9490  22.074  10.227   3.798
45558W        W 9491   9.200   4.319   0.388
45559W        W 9492   4.448  25.582  10.926
45560W        W 9493  41.294   5.757   4.627
45561W        W 9494   4.701  35.935   5.186
45562W        W 9495  23.523  17.620   1.346
45563W        W 9496  14.820  30.104  13.811
45564W        W 9497   3.912  39.944   3.204
45565W        W 9498  19.244   4.784  13.826
45566W        W 9499   2.230   4.442  13.460
45567W        W 9500   2.811   8.778   1.228
45568W        W 9501  43.406  13.300   1.278
45569W        W 9502   9.848   0.841   4.764
45570W        W 9503  36.405  35.886  12.958
45571W        W 9504  12.200  41.330  11.949
45572W        W 9505  21.114  11.827  14.348
45573W        W 9506   4.258  30.925  12.374
45574W        W 9507  44.786   0.432  12.943
45575W        W 9508  35.465  26.981  11.866
45576W        W 9509  24.015   9.375   1.437
45577W        W 9510  44.312   5.430   2.330
45578W        W 9511  30.599  37.353  13.964
45579W        W 9512  34.558  28.480   0.925
45580W        W 9513  39.857   1.853  12.495
45581W        W 9514  10.722  27.156   3.376
45582W        W 9515  44.763  18.222   1.217
45583W        W 9516  28.146   5.794  12.948
45584W        W 9517  20.189  40.465  14.813
45585W        W 9518   2.889  21.055   2.278
45586W        W 9519  28.543  42.854   4.701
45587W        W 9520  20.206  42.003  14.469
45588W        W 9521   9.264  29.643  11.889
45589W        W 9522  17.204  43.984  12.427
45590W        W 9523  44.291  38.011  14.307
45591W        W 9524  22.134  31.643   1.252
45592W        W 9525  10.326  23.135   1.898
45593W        W 9526  43.858   8.754   0.809
45594W        W 9527   9.844  20.683   1.876
45595W        W 9528  39.878  37.889   3.154
45596W        W 9529  32.889  40.406  14.864
45597W        W 9530  28.442  39.969   1.290
45598W        W 9531  16.810   5.336   4.313
45599W        W 9532  33.039  23.651  11.880
45600W        W 9533  31.005   8.270  12.960
45601W        W 9534   8.343  18.774  13.374
45602W        W 9535  41.899  29.643  13.057
45603W        W 9536   2.895  25.178   3.762
45604W        W 9537  29.138  41.400   3.169
45605W        W 9538   6.779  18.205   0.885
45606W        W 9539  39.009   1.366   1.767
45607W        W 9540  38.833  26.047  11.120
45608W        W 9541  44.338  30.525   1.417
45609W        W 9542   3.238  43.343  11.470
45610W        W 9543  32.060  20.071   1.407
45611W        W 9544  16.729  16.707   2.706
45612W        W 9545   2.281  41.366  10.933
45613W        W 9546  14.631  23.579  11.042
45614W        W 9547  32.421  29.053  11.453
45615W        W 9548   7.778   2.457   1.850
45616W        W 9549   5.792  12.180  12.556
45617W        W 9550   3.399  22.528   4.202
45618W        W 9551  38.048  29.919  11.938
45619W        W 9552  38.869  38.342   1.818
45620W        W 9553  16.714  22.539   0.456
45621W        W 9554   8.883  39.851   1.826
45622W        W 9555   0.887  22.691   0.249
45623W        W 9556  41.470  37.495   1.822
45624W        W 9557  20.260  43.431  12.094
45625W        W 9558  37.869  42.845  14.978
45626W        W 9559  24.598  14.312   1.775
45627W        W 9560  31.450  31.499   2.243
45628W        W 9561  35.362   8.815  14.305
45629W        W 9562   9.376  38.853   2.710
45630W        W 9563  28.525  19.282   1.231
45631W        W 9564  38.363  35.992  11.129
45632W        W 9565  44.808  21.623   0.818
45633W        W 9566  11.713  38.883  14.419
45634W        W 9567   3.736  35.883  13.051
45635W        W 9568   3.852  10.238   3.213
45636W        W 9569  30.963  38.344   2.703
45637W        W 9570  16.649  36.025   2.188
45638W        W 9571   8.811  26.174  11.394
45639W        W 9572  41.519  15.307   4.627
45640W        W 9573  27.495  30.973   1.779
45641W        W 9574  25.047  41.514  10.471
45642W        W 9575  16.182  43.882  13.514
45643W        W 9576  31.055   0.905  11.586
45644W        W 9577  30.958   5.198   3.763
45645W        W 9578   4.339  43.459  10.518
45646W        W 9579  19.105  36.539   1.922
45647W        W 9580  44.282  19.254   2.898
45648W        W 9581  28.564  38.860  10.944
45649W        W 9582  22.115  28.097  11.540
45650W        W 9583  16.272  34.588   4.639
45651W        W 9584  13.635   9.801  13.363
45652W        W 9585  33.079  12.289   0.892
45653W        W 9586  25.558   8.330  12.528
45654W        W 9587  35.875  12.773  13.457
45655W        W 9588   0.472  11.677  11.058
45656W        W 9589   0.297  33.561   0.354
45657W        W 9590   9.703  42.315   0.250
45658W        W 9591   2.338  30.625  11.917
45659W        W 9592  21.254  14.822   1.339
45660W        W 9593  17.632   9.754  12.445
45661W        W 9594   4.795  14.192   3.245
45662W        W 9595  12.307   0.782   0.810
45663W        W 9596  42.389  38.530   3.696
45664W        W 9597   4.289  44.429   1.841
45665W        W 9598  14.819  42.995   5.105
45666W        W 9599  43.801   7.204   1.844
45667W        W 9600   3.266  30.936   3.714
45668W        W 9601  36.035  21.712  11.122
45669W        W 9602   2.264  11.827   2.789
45670W        W 9603  23.707   5.700  10.588
45671W        W 9604  37.944  11.232   3.274
45672W        W 9605  16.621   0.826  14.322
45673W        W 9606  26.053   5.348   4.141
45674W        W 9607   1.349  38.501   0.935
45675W        W 9608  41.432  27.978  11.975
45676W        W 9609  17.749  18.650   2.716
45677W        W 9610  15.731  40.414  12.917
45678W        W 9611  32.087  37.025  12.825
45679W        W 9612  38.978   4.396  12.017
45680W        W 9613  21.186  22.168   4.245
45681W        W 9614   7.300  10.215   0.842
45682W        W 9615  12.846  44.976  12.445
45683W        W 9616  44.951  32.120  12.975
45684W        W 9617  10.176  39.486  12.506
45685W        W 9618  35.424  18.084  12.417
45686W        W 9619  31.557  17.147  11.039
45687W        W 9620   8.382  44.880  13.894
45688W        W 9621  10.650  14.696   4.301
45689W        W 9622   1.884   3.759  14.886
45690W        W 9623  27.029  18.695  14.391
45691W        W 9624  32.906   5.349   3.312
45692W        W 9625   3.949   4.431  12.930
45693W        W 9626  40.318  18.748   1.696
45694W        W 9627  26.681  34.094  10.913
45695W        W 9628  29.973  22.017   0.314
45696W        W 9629  27.011  43.021   4.822
45697W        W 9630  23.048  43.364  13.362
45698W        W 9631   2.327  13.229  11.463
45699W        W 9632   6.293  24.095  12.850
45700W        W 9633   0.805  10.784  11.973
45701W        W 9634  38.388   2.415   2.716
45702W        W 9635  32.025   7.261   1.800
45703W        W 9636  10.757  30.452  11.858
45704W        W 9637   7.356  17.102  10.562
45705W        W 9638  33.115  23.993   0.761
45706W        W 9639  30.620  14.753  13.041
45707W        W 9640  18.626   6.694   3.221
45708W        W 9641  13.318  26.656  10.039
45709W        W 9642  10.856  41.012   0.266
45710W        W 9643  29.542  29.164  13.845
45711W        W 9644  39.021  31.960  14.763
45712W        W 9645  18.222  40.334  10.161
45713W        W 9646   6.341  30.928  11.949
45714W        W 9647  34.523  23.687   1.415
45715W        W 9648  12.852  23.090  12.489
45716W        W 9649  11.127  33.078  14.480
45717W        W 9650  36.915   0.907  11.045
45718W        W 9651  22.070  44.402  10.444
45719W        W 9652  25.208   6.284  10.574
45720W        W 9653   0.279  29.581  14.307
45721W        W 9654  29.561  11.650  13.888
45722W        W 9655  36.881  39.460   4.139
45723W        W 9656  11.645   5.285  10.409
45724W        W 9657  18.777  29.174  11.016
45725W        W 9658  21.046   1.336  12.553
45726W        W 9659  16.666   8.694   4.305
45727W        W 9660  26.986  16.201   0.758
45728W        W 9661  40.419  35.427  13.334
45729W        W 9662  24.615  13.188   4.335
45730W        W 9663  22.243  12.706  10.518
45731W        W 9664  12.349   8.190  14.023
45732W        W 9665  14.243   0.974   2.232
45733W        W 9666  30.588  22.104   1.827
45734W        W 9667  39.342  17.141   3.336
45735W        W 9668  30.084  30.474  13.055
45736W        W 9669  44.869  22.099   0.354
45737W        W 9670   4.852  17.095   3.661
45738W        W 9671  37.567   1.972  13.040
45739W        W 9672  34.958  42.386   1.904
45740W        W 9673  40.328   9.354   4.172
45741W        W 9674   8.878  35.441   1.702
45742W        W 9675  18.234  35.987   2.287
45743W        W 9676  19.096  12.234  12.017
45744W        W 9677  38.831   6.875   3.194
45745W        W 9678  12.357  14.665  14.904
45746W        W 9679   1.430  23.165  13.014
45747W        W 9680  21.714  11.185   3.203
45748W        W 9681  33.875  22.081  13.985
45749W        W 9682   4.761  31.524   1.266
45750W        W 9683  18.245  11.775   4.823
45751W        W 9684   8.379  22.099  14.496
45752W        W 9685  42.320   0.369   3.854
45753W        W 9686  21.089  23.602   4.724
45754W        W 9687  22.746   2.381  14.287
45755W        W 9688   2.401  38.991   2.762
45756W        W 9689  32.963  18.068   1.714
45757W        W 9690  16.154  32.488   0.476
45758W        W 9691   3.833   3.767   0.473
45759W        W 9692  10.746   7.307  12.376
45760W        W 9693  39.019  15.143   1.424
45761W        W 9694   7.906  33.017   1.420
45762W        W 9695   0.410   6.866   2.671
45763W        W 9696  26.069   2.776   3.337
45764W        W 9697  29.599  16.223   4.210
45765W        W 9698  22.516  20.544   0.473
45766W        W 9699  32.635   6.715   0.915
45767W        W 9700  41.348  40.919  13.389
45768W        W 9701  14.666  29.158  12.534
45769W        W 9702  33.573  15.191  12.836
45770W        W 9703  34.511  14.142  14.992
45771W        W 9704  33.458   1.450   0.356
45772W        W 9705  31.633  43.785  14.941
45773W        W 9706   1.890  34.530   4.136
45774W        W 9707  18.599  17.601   2.287
45775W        W 9708  20.605  15.130   4.702
45776W        W 9709  22.743  16.635   4.174
45777W        W 9710  40.935  40.435   2.340
45778W        W 9711  32.626  27.194  10.907
45779W        W 9712  25.054  32.537  10.477
45780W        W 9713  20.191  16.242  10.912
45781W        W 9714  37.076   2.397   3.789
45782W        W 9715  20.028  19.641   4.133
45783W        W 9716  26.645   2.327   0.481
45784W        W 9717   7.229  29.044  14.977
45785W        W 9718   5.812  28.537   1.337
45786W        W 9719  44.417   3.263  11.112
45787W        W 9720   3.398  43.870  13.001
45788W        W 9721  32.441  15.322  12.503
45789W        W 9722   5.355   0.454  11.083
45790W        W 9723   8.372  36.541   3.784
45791W        W 9724  36.891   0.489  10.954
45792W        W 9725  31.601  30.930   1.894
45793W        W 9726  24.489   2.325   4.816
45794W        W 9727   8.844  15.801   4.261
45795W        W 9728  19.151  13.796  12.091
45796W        W 9729  43.492  36.583  11.564
45797W        W 9730  18.110  37.830  12.381
45798W        W 9731  35.476   1.364   0.786
45799W        W 9732  23.572  44.449  11.530
45800W        W 9733  23.639   9.326  10.085
45801W        W 9734  15.242  42.495  14.872
45802W        W 9735  39.997   5.708   3.667
45803W        W 9736   8.390  35.873   4.736
45804W        W 9737  11.849  13.740  13.033
45805W        W 9738  31.934  39.968  12.420
45806W        W 9739  44.417  11.288  11.123
45807W        W 9740   0.330  16.300   3.793
45808W        W 9741  40.443  31.597  10.638
45809W        W 9742  16.114  42.451   2.365
45810W        W 9743  31.530  43.425   4.696
45811W        W 9744  25.098  31.541  14.926
45812W        W 9745  33.438  38.822   4.702
45813W        W 9746  33.545  15.737  10.633
45814W        W 9747   6.422   1.924   3.325
45815W        W 9748  15.111  20.077   1.320
45816W        W 9749  39.396  27.551   4.727
45817W        W 9750  27.952  42.975   3.155
45818W        W 9751  25.675  20.737  14.935
45819W        W 9752   6.838  18.552  11.863
45820W        W 9753  20.544   5.702   1.327
45821W        W 9754  15.693  27.099  14.006
45822W        W 9755  35.906   1.291   4.170
45823W        W 9756  38.399   1.755  11.002
45824W        W 9757  41.379   2.349   1.215
45825W        W 9758  19.659   4.710   0.449
45826W        W 9759  13.213  28.117  13.824
45827W        W 9760   1.416  43.884   1.425
45828W        W 9761   7.849  17.596  11.518
45829W        W 9762   2.282   2.450  12.483
45830W        W 9763  39.523  32.124   4.247
45831W        W 9764  29.041  43.496  12.033
45832W        W 9765  23.051  38.476  10.917
45833W        W 9766  27.607   6.911   0.854
45834W        W 9767  39.432  26.463   3.677
45835W        W 9768   9.181  31.552   2.769
45836W        W 9769  29.059   7.345   3.378
45837W        W 9770  40.840  22.204  12.419
45838W        W 9771   5.767   6.409   4.317
45839W        W 9772  37.993  31.641  14.979
45840W        W 9773   8.291  19.262   1.843
45841W        W 9774   5.369  17.696   1.719
45842W        W 9775  44.329  32.121  10.594
45843W        W 9776  37.868   3.418  14.000
45844W        W 9777  31.139  34.555  12.489
45845W        W 9778  36.532  14.100  11.000
45846W        W 9779  37.371  31.568  11.945
45847W        W 9780  27.115  19.748   0.960
45848W        W 9781  26.544  27.602   1.420
45849W        W 9782  19.581  33.919   0.375
45850W        W 9783  11.717  39.044  14.844
45851W        W 9784  43.415  26.154   1.252
45852W        W 9785  21.636  13.645  11.087
45853W        W 9786  15.751  21.093   4.353
45854W        W 9787  37.384  13.651   4.659
45855W        W 9788  10.227  44.362   4.624
45856W        W 9789  13.254  16.100   4.756
45857W        W 9790  25.985  28.621  14.322
45858W        W 9791  12.748  43.339  12.888
45859W        W 9792   3.272  38.490  12.436
45860W        W 9793  22.008  28.461   3.173
45861W        W 9794  15.099  16.305   0.744
45862W        W 9795  34.975  41.371   0.818
45863W        W 9796   7.887  10.782   0.245
45864W        W 9797  36.992  21.027   4.118
45865W        W 9798  15.297  43.369   0.766
45866W        W 9799  30.525  26.561   4.169
45867W        W 9800  25.018  23.681   0.730
45868W        W 9801   2.377  28.983   0.436
45869W        W 9802  11.671  42.417  11.543
45870W        W 9803   2.413  12.826  11.457
45871W        W 9804  35.924  34.022  12.828
45872W        W 9805  40.966  44.001   0.765
45873W        W 9806   4.411  21.574   0.767
45874W        W 9807  41.341  33.550  12.360
45875W        W 9808  25.065  37.973   4.803
45876W        W 9809   1.937  40.322  13.374
45877W        W 9810  44.919   1.855  12.528
45878W        W 9811  18.253  18.285  14.309
45879W        W 9812  22.697   9.819  12.354
45880W        W 9813  17.230  28.541   4.305
45881W        W 9814  41.365   7.911   4.822
45882W        W 9815  40.513  19.748   9.943
45883W        W 9816   0.977  39.341   2.734
45884W        W 9817  17.219  37.408   0.281
45885W        W 9818   2.401  27.001   2.222
45886W        W 9819  13.226  10.787  13.482
45887W        W 9820  20.087   5.813  14.337
45888W        W 9821   6.297  10.723   3.271
45889W        W 9822  18.122  42.920   0.399
45890W        W 9823  12.712  30.093  13.996
45891W        W 9824   2.906  40.345  12.567
45892W        W 9825  42.776  14.288   0.815
45893W        W 9826  19.668  14.116  14.440
45894W        W 9827  13.235  35.978  14.029
45895W        W 9828  27.482  16.208   0.838
45896W        W 9829  36.873  26.055  10.611
45897W        W 9830  11.184  26.142   1.808
45898W        W 9831  43.437  21.175   3.642
45899W        W 9832  35.507  10.236   0.279
45900W        W 9833   5.770  20.263  12.009
45901W        W 9834  29.556  15.798   4.710
45902W        W 9835  29.133  13.710  11.961
45903W        W 9836  10.736  14.672  12.926
45904W        W 9837  36.984  30.510  10.593
45905W        W 9838  33.948  17.794  12.896
45906W        W 9839  20.100  32.967  12.899
45907W        W 9840  41.948  38.506   9.972
45908W        W 9841  19.270  32.570   2.723
45909W        W 9842  20.583  44.849   1.734
45910W        W 9843   2.801  15.140   2.385
45911W        W 9844  21.201  22.119  10.108
45912W        W 9845  29.142  24.535  11.551
45913W        W 9846  10.160   4.752   2.392
45914W        W 9847  28.470  22.508  12.388
45915W        W 9848  44.827  10.267  13.046
45916W        W 9849  42.406   5.707   1.716
45917W        W 9850   3.440  27.188   1.451
45918W        W 9851  44.461   0.308   1.403
45919W        W 9852  26.107  19.620   2.855
45920W        W 9853  43.020  44.792  10.576
45921W        W 9854   7.681  20.705   3.190
45922W        W 9855   5.743  43.508  13.030
45923W        W 9856   0.397  29.038   1.779
45924W        W 9857   1.320   3.870  12.342
45925W        W 9858  19.647   0.834   1.694
45926W        W 9859  20.203   1.305   2.209
45927W        W 9860  25.665  18.683  11.075
45928W        W 9861  20.256  31.003   2.823
45929W        W 9862   7.799  31.636   4.760
45930W        W 9863  16.263  42.924   2.849
45931W        W 9864  31.912  33.129  14.924
45932W        W 9865  23.707  25.096   3.784
45933W        W 9866   9.688  35.555  14.317
45934W        W 9867  27.007  37.498   0.316
45935W        W 9868  32.031  27.616   0.375
45936W        W 9869  12.848  30.114  11.479
45937W        W 9870  27.150  42.407   3.685
45938W        W 9871  43.406  13.300  13.925
45939W        W 9872   6.834  19.626   4.812
45940W        W 9873  43.285  15.263   0.403
45941W        W 9874  20.628  19.249  13.365
45942W        W 9875  34.905  36.371  13.978
45943W        W 9876  32.633  16.274  10.607
45944W        W 9877  27.647  31.563   1.432
45945W        W 9878  13.793  14.211   2.726
45946W        W 9879  43.369  17.088   3.147
45947W        W 9880  42.384  12.690  12.042
45948W        W 9881  34.592   8.727  11.385
45949W        W 9882   8.268  33.927   3.194
45950W        W 9883  29.098  14.618   1.311
45951W        W 9884  36.867  15.617  10.507
45952W        W 9885  30.122  28.437  13.544
45953W        W 9886  28.520  31.989   0.416
45954W        W 9887  36.493  43.473  13.479
45955W        W 9888  26.564  32.123  13.537
45956W        W 9889  41.423  39.814  14.769
45957W        W 9890  24.632  30.970   2.378
45958W        W 9891   3.823  44.784   0.745
45959W        W 9892   4.839   0.752   2.843
45960W        W 9893   0.351   3.850   3.344
45961W        W 9894   5.927   6.794   1.447
45962W        W 9895  11.786   7.293  14.413
45963W        W 9896  28.021  28.445   3.363
45964W        W 9897   4.839  24.068  10.555
45965W        W 9898   8.302  21.568  11.075
45966W        W 9899  12.686  15.659  10.917
45967W        W 9900  38.856   8.849  13.517
45968W        W 9901  41.945   6.267  11.567
45969W        W 9902  17.727  16.746  13.448
45970W        W 9903  25.194  30.976  14.986
45971W        W 9904  44.500  29.959  14.010
45972W        W 9905  24.161  23.220  12.034
45973W        W 9906  19.194  36.938  12.467
45974W        W 9907  19.764  39.023  13.458
45975W        W 9908   9.767  13.730   2.321
45976W        W 9909  38.484  32.440  12.990
45977W        W 9910  12.689  43.275   3.650
45978W        W 9911  26.460  30.522   2.284
45979W        W 9912  43.431  33.568  13.408
45980W        W 9913  14.213  33.943  14.004
45981W        W 9914   4.255  21.526  10.444
45982W        W 9915  44.840   9.871  13.478
45983W        W 9916  19.083  13.609   1.841
45984W        W 9917  42.789  37.521   3.827
45985W        W 9918   7.781  42.361   3.371
45986W        W 9919  29.470  41.479  13.961
45987W        W 9920  28.176  12.760  14.780
45988W        W 9921  14.166  44.863   1.932
45989W        W 9922  15.297  31.977   2.352
45990W        W 9923  40.988   3.369   3.776
45991W        W 9924  27.654   1.876   0.475
45992W        W 9925  31.455  27.490   4.668
45993W        W 9926  10.221   7.702  10.439
45994W        W 9927  23.707  27.601   1.774
45995W        W 9928  21.640  11.789  12.342
45996W        W 9929   4.848  32.619  13.044
45997W        W 9930  31.023  22.652   3.846
45998W        W 9931  16.764  33.547   4.784
45999W        W 9932  27.653  13.180  12.560
46000W        W 9933  14.157  24.976  12.920
46001W        W 9934  32.560  25.597  12.431
46002W        W 9935   0.932   0.843  13.882
46003W        W 9936  24.678  44.374  10.990
46004W        W 9937  25.060  40.478  14.305
46005W        W 9938  31.063  17.786   1.823
46006W        W 9939   8.889  17.073   1.822
46007W        W 9940  10.353   2.923   1.790
46008W        W 9941  11.211  24.696  12.930
46009W        W 9942  32.018   8.254   4.769
46010W        W 9943  44.977   9.664  12.076
46011W        W 9944  10.768  12.717   1.308
46012W        W 9945  43.294  10.338   1.814
46013W        W 9946  28.638  32.401  12.461
46014W        W 9947  10.382  34.471  14.927
46015W        W 9948  26.562  22.211   0.881
46016W        W 9949  27.612   9.787  11.867
46017W        W 9950  36.882  26.702   1.715
46018W        W 9951   6.795   5.800   5.233
46019W        W 9952  14.713  38.358  14.490
46020W        W 9953  28.100  21.564  10.074
46021W        W 9954   7.791   9.773  13.484
46022W        W 9955   3.795  23.229  11.059
46023W        W 9956  38.434  36.915   3.774
46024W        W 9957   9.749  31.605   1.899
46025W        W 9958  40.452  30.115   0.344
46026W        W 9959  41.979  42.827  11.485
46027W        W 9960  18.649   0.320  14.972
46028W        W 9961  18.782  28.051   0.281
46029W        W 9962  11.370  23.518   3.215
46030W        W 9963  20.564  23.590  14.822
46031W        W 9964   2.394  21.589  13.316
46032W        W 9965   1.312  25.669   2.297
46033W        W 9966   7.693  30.940   0.787
46034W        W 9967  28.455   1.314  11.951
46035W        W 9968   4.890  27.590   3.842
46036W        W 9969  16.753  10.834   4.318
46037W        W 9970  14.153   3.264  13.971
46038W        W 9971  25.024  20.624  14.837
46039W        W 9972  30.515  30.434   3.234
46040W        W 9973  26.958  10.190  11.898
46041W        W 9974  27.620  22.228  14.995
46042W        W 9975  32.576   3.383   0.270
46043W        W 9976  41.898  27.560  13.375
46044W        W 9977  31.018  12.133   4.638
46045W        W 9978  37.852  25.081  14.916
46046W        W 9979   2.369   8.271  12.872
46047W        W 9980  28.943  26.048   0.831
46048W        W 9981  22.571  15.212   0.830
46049W        W 9982   5.823  17.273   0.875
46050W        W 9983   2.837  43.317   1.228
46051W        W 9984  36.564  22.033  10.515
46052W        W 9985   5.254  27.179  11.923
46053W        W 9986  36.353  14.615  11.404
46054W        W 9987  44.265  42.824   3.232
46055W        W 9988   3.826  33.042   3.816
46056W        W 9989  44.479  24.623   0.434
46057W        W 9990   5.406  21.520  12.341
46058W        W 9991  26.499  11.236   2.313
46059W        W 9992  32.600   1.880  13.980
46060W        W 9993  23.621  23.713   0.732
46061W        W 9994  37.439  26.954   0.938
46062W        W 9995   1.771  42.307   3.268
46063W        W 9996  17.575  44.449   3.380
46064W        W 9997  34.485  10.766   2.733
46065W        W 9998  35.920   4.804   0.438
46066W        W 9999  18.635  39.017   3.756
46067W        W10000   5.325  20.562  11.540
46068W        W10001  33.465  30.653  14.991
46069W        W10002  20.527  34.443   0.324
46070W        W10003  34.917  31.552   4.325
46071W        W10004   4.716  15.272  14.021
46072W        W10005   1.966  19.051   3.812
46073W        W10006  40.316   2.830   0.728
46074W        W10007   2.419  20.047   3.289
46075W        W10008  18.733   8.346  14.407
46076W        W10009  15.675  44.263  14.828
46077W        W10010  27.040  40.859  14.021
46078W        W10011  27.941  19.592  13.457
46079W        W10012  37.977  42.432   3.812
46080W        W10013  25.001  36.064   4.682
46081W        W10014  24.523  24.533  13.371
46082W        W10015  39.452  41.811   0.841
46083W        W10016   2.755  37.477   3.805
46084W        W10017  42.324  14.183   3.725
46085W        W10018   7.817  36.395   1.293
46086W        W10019  27.669  44.453  11.428
46087W        W10020  32.898  36.567  14.782
46088W        W10021  43.813  40.919   2.223
46089W        W10022  20.748  29.976  14.344
46090W        W10023   3.728  18.604   3.642
46091W        W10024  26.082  42.369   2.195
46092W        W10025   0.316   2.900  10.597
46093W        W10026  31.403  27.633   4.230
46094W        W10027   9.726  34.042  12.959
46095W        W10028  31.476  17.143  14.419
46096W        W10029  26.009  28.065  12.068
46097W        W10030  25.662  39.429  14.898
46098W        W10031  39.554  13.112  11.986
46099W        W10032  16.777  29.640  13.498
46100W        W10033   9.722  36.540  13.891
46101W        W10034  36.887  17.793   0.790
46102W        W10035  15.104  37.458   3.209
46103W        W10036  17.671  38.498   0.308
46104W        W10037  11.346  23.711   4.232
46105W        W10038  13.630  36.346   1.250
46106W        W10039   9.304  36.570  13.874
46107W        W10040  12.818  43.848  12.442
46108W        W10041  29.167   9.287  12.481
46109W        W10042  37.885  27.995   1.345
46110W        W10043  19.716  37.396   4.678
46111W        W10044  33.995  18.778  12.894
46112W        W10045  35.582  29.969  11.873
46113W        W10046  31.054  22.223   4.263
46114W        W10047  10.240   8.194   3.291
46115W        W10048  35.564  28.669   3.249
46116W        W10049  30.553  23.216   4.741
46117W        W10050   3.408  39.438  10.983
46118W        W10051  30.462  41.466   3.783
46119W        W10052  39.975  21.111   0.913
46120W        W10053  21.742  20.175  14.006
46121W        W10054  29.992   0.877  11.438
46122W        W10055  11.863  21.625   0.935
46123W        W10056  28.097  20.689   1.344
46124W        W10057  15.313  26.143   3.338
46125W        W10058  41.482   0.805  14.435
46126W        W10059  34.432  37.546   5.240
46127W        W10060  29.648   6.713  13.343
46128W        W10061   7.721  43.453   2.322
46129W        W10062  15.260  43.974   3.254
46130W        W10063  13.312  19.654   4.312
46131W        W10064   7.228  19.691   2.874
46132W        W10065  10.657  23.177  12.353
46133W        W10066  25.596  25.987  14.790
46134W        W10067  44.864  21.018  12.093
46135W        W10068  29.447  18.171   5.186
46136W        W10069  32.476  40.327   0.731
46137W        W10070  35.991  28.584   1.246
46138W        W10071  28.678  18.163   1.806
46139W        W10072   1.932   7.286  12.551
46140W        W10073   6.358  12.815  12.371
46141W        W10074  37.883  42.509   3.314
46142W        W10075  27.601  20.195  14.509
46143W        W10076  12.320  13.759   2.419
46144W        W10077  32.889   2.356  11.931
46145W        W10078   3.430  38.469   1.852
46146W        W10079   9.754  21.042  10.418
46147W        W10080  21.228  14.179  10.638
46148W        W10081  40.850  32.061   1.699
46149W        W10082  23.639   4.810   0.819
46150W        W10083  20.678  22.250   0.332
46151W        W10084  39.437   9.390   2.781
46152W        W10085   1.894  12.801   1.230
46153W        W10086   9.325  20.691   1.934
46154W        W10087  17.767  21.146   0.862
46155W        W10088  16.621   9.159  14.341
46156W        W10089  42.025  26.083   2.881
46157W        W10090  37.574  35.867   3.762
46158W        W10091   7.727  39.336   2.805
46159W        W10092  12.292  42.446   3.865
46160W        W10093  24.200  41.811   3.253
46161W        W10094  24.183  22.049   2.274
46162W        W10095  10.203   3.245  12.029
46163W        W10096  28.103  23.669  10.968
46164W        W10097  43.906  43.460  12.000
46165W        W10098   0.492  38.365  12.864
46166W        W10099  43.343  40.024   5.164
46167W        W10100   8.898  16.198   4.120
46168W        W10101  31.535  10.351   2.342
46169W        W10102  43.297  43.937   3.792
46170W        W10103  30.164   6.230  10.574
46171W        W10104  18.058  31.437   2.734
46172W        W10105  33.909   7.363  13.985
46173W        W10106  13.115   0.791   4.225
46174W        W10107  41.811  12.803   5.189
46175W        W10108   9.382  20.540   4.680
46176W        W10109  30.458  43.398   1.795
46177W        W10110  44.394  21.583   0.348
46178W        W10111  27.150  14.745  13.970
46179W        W10112  15.222   5.914   0.324
46180W        W10113  38.905  41.425   1.357
46181W        W10114  36.514  21.052   5.155
46182W        W10115  15.242  36.385  14.308
46183W        W10116  28.081  18.555  11.548
46184W        W10117  10.830   8.304  11.052
46185W        W10118  42.391  39.973   0.859
46186W        W10119   7.263  23.158  10.446
46187W        W10120  40.860  10.774   4.284
46188W        W10121  21.553  16.198   2.272
46189W        W10122   2.950  35.544   4.282
46190W        W10123   2.757  38.824   1.276
46191W        W10124   6.198  16.749  10.945
46192W        W10125  15.291  27.028  13.514
46193W        W10126  20.190  33.401   4.113
46194W        W10127  22.148  28.004   3.263
46195W        W10128   2.328  17.213   5.196
46196W        W10129  10.382  29.499   0.840
46197W        W10130  38.469  38.344  13.441
46198W        W10131  16.258  39.890  13.867
46199W        W10132  44.776   4.845   3.853
46200W        W10133  14.215  42.940  11.096
46201W        W10134   0.865  24.135   5.246
46202W        W10135  36.947   4.230  14.030
46203W        W10136  35.513   1.360  12.044
46204W        W10137  14.652  18.712  10.906
46205W        W10138   3.819  44.280  13.477
46206W        W10139  31.603  21.685  14.458
46207W        W10140  35.555  28.930   0.751
46208W        W10141   8.236  41.355  12.572
46209W        W10142   4.708   4.208   3.168
46210W        W10143  12.839  13.211   1.356
46211W        W10144  44.432   1.464  13.996
46212W        W10145  22.648  31.472   0.437
46213W        W10146  32.092  42.490  14.791
46214W        W10147  29.485  44.390  11.872
46215W        W10148  14.640  37.425  13.048
46216W        W10149   5.248  42.809   2.820
46217W        W10150   9.377  29.087   2.247
46218W        W10151  24.606  25.641  12.482
46219W        W10152  32.012  20.246  11.917
46220W        W10153  44.955  23.027  10.924
46221W        W10154  15.125  37.978   1.297
46222W        W10155  23.060  17.686   3.259
46223W        W10156   0.304  20.078  11.093
46224W        W10157   0.392   7.665  14.976
46225W        W10158  31.574  36.966   4.280
46226W        W10159  16.082   8.309   1.749
46227W        W10160  15.223   4.887   4.641
46228W        W10161   9.692  42.020  12.976
46229W        W10162  16.084  17.118   1.310
46230W        W10163   6.845   1.755  12.939
46231W        W10164  16.589  18.632  12.434
46232W        W10165  16.083  25.036  14.388
46233W        W10166   1.939  13.116   0.728
46234W        W10167  36.970  37.956  13.459
46235W        W10168   6.345  32.508   1.885
46236W        W10169  17.150  34.969   2.879
46237W        W10170   1.839  38.074   0.962
46238W        W10171  37.867  42.845   1.715
46239W        W10172  15.596  23.141  10.996
46240W        W10173  27.504  10.648   1.697
46241W        W10174  26.966   1.823  14.402
46242W        W10175  14.747  17.801  12.077
46243W        W10176  37.550  14.696  13.857
46244W        W10177  42.407   1.774  10.909
46245W        W10178  36.074  31.419  14.970
46246W        W10179  40.426   8.733   1.807
46247W        W10180   6.239  15.322  10.051
46248W        W10181  14.806  17.658   2.331
46249W        W10182  17.669  32.472  11.602
46250W        W10183  33.485  10.185  14.498
46251W        W10184  13.261  19.699   0.398
46252W        W10185  18.651  16.637   4.254
46253W        W10186  25.081   0.455   0.820
46254W        W10187  15.102  34.961   3.234
46255W        W10188  28.654  13.611   4.134
46256W        W10189  23.496  34.060   0.422
46257W        W10190  10.368  16.243  13.309
46258W        W10191  34.007   3.826  13.040
46259W        W10192   8.688  36.374   4.605
46260W        W10193  16.694  40.023  12.008
46261W        W10194  19.273  11.369  14.336
46262W        W10195   5.332  14.209   0.819
46263W        W10196  39.326  42.929   2.376
46264W        W10197   4.448  25.081  11.502
46265W        W10198  31.580  35.873   4.664
46266W        W10199  39.427  44.951  13.537
46267W        W10200  15.269  14.710   3.708
46268W        W10201  34.879  25.545   4.697
46269W        W10202  17.731  41.869   2.181
46270W        W10203  38.938  40.466   4.152
46271W        W10204  24.713  36.038   2.839
46272W        W10205  44.406  35.362  12.527
46273W        W10206  24.700   1.801   1.248
46274W        W10207  35.489   6.725   4.210
46275W        W10208  22.239   5.284  13.308
46276W        W10209  41.855  42.337   1.746
46277W        W10210  11.333  34.884  10.921
46278W        W10211  15.146  30.094  10.463
46279W        W10212  18.655  30.972   4.734
46280W        W10213   7.262  24.654   0.280
46281W        W10214  28.931   7.826   1.391
46282W        W10215   5.703  29.549   3.654
46283W        W10216   5.220  23.530  11.488
46284W        W10217  22.572  38.963   5.271
46285W        W10218  30.505  43.436  13.016
46286W        W10219  20.680  42.427  13.822
46287W        W10220   6.285  24.541   0.727
46288W        W10221  24.108   4.340   3.249
46289W        W10222   3.242   6.308  11.064
46290W        W10223  14.661   6.367  12.564
46291W        W10224   7.683   5.205   0.880
46292W        W10225   8.237  18.701  11.381
46293W        W10226   5.738  27.953  14.919
46294W        W10227  11.292  25.133   4.633
46295W        W10228   4.817  35.919  11.055
46296W        W10229   9.180  39.474  13.815
46297W        W10230  19.131   2.370  12.948
46298W        W10231   0.319  42.387  11.070
46299W        W10232  18.061   1.815   3.850
46300W        W10233  13.330   3.435  14.332
46301W        W10234   2.397  30.956  14.937
46302W        W10235  38.421  44.756   4.297
46303W        W10236  34.005  25.106   1.710
46304W        W10237  22.136  15.161   2.340
46305W        W10238  25.584  42.520   1.332
46306W        W10239  44.871  40.007   1.331
46307W        W10240  12.821  15.201   3.705
46308W        W10241  24.015   0.449   0.761
46309W        W10242  35.998   2.953   3.163
46310W        W10243  40.003  34.090  14.402
46311W        W10244  13.659   5.809  14.838
46312W        W10245   1.239  25.488  11.008
46313W        W10246  43.809   5.731  14.000
46314W        W10247  11.172  38.924   1.893
46315W        W10248  25.601  24.150   0.934
46316W        W10249  32.951  41.300  12.576
46317W        W10250  32.924  19.131  10.612
46318W        W10251  31.633  22.666   4.345
46319W        W10252   2.860  27.024  14.328
46320W        W10253  25.102  42.948   2.896
46321W        W10254  35.523  43.930  12.422
46322W        W10255  23.648   2.308   2.751
46323W        W10256  18.105  44.340  14.832
46324W        W10257  30.140   6.752  11.079
46325W        W10258  11.864  18.545  13.990
46326W        W10259  12.669  17.578   0.731
46327W        W10260   3.804  16.278   5.183
46328W        W10261  44.457  18.218  10.133
46329W        W10262   4.205   9.295  10.897
46330W        W10263  20.748   0.329  13.463
46331W        W10264  30.009   6.362   1.802
46332W        W10265   3.386  40.998   3.375
46333W        W10266  39.817  41.448  12.551
46334W        W10267  44.985  28.585  11.921
46335W        W10268  43.850   0.977   3.695
46336W        W10269   7.703  42.356   2.260
46337W        W10270  21.223  35.930   2.763
46338W        W10271  33.439   2.386   0.835
46339W        W10272  34.408  33.590   1.702
46340W        W10273  31.045  13.307  14.950
46341W        W10274  39.469  25.706   1.775
46342W        W10275  28.610  26.081  10.502
46343W        W10276  40.919  43.337   3.304
46344W        W10277   9.826  24.677  12.077
46345W        W10278  35.567  12.160   1.871
46346W        W10279  11.702  24.674   3.224
46347W        W10280  31.933  44.496  14.419
46348W        W10281  20.218  38.486   0.442
46349W        W10282  22.685  41.983  11.477
46350W        W10283   6.899  19.282  11.527
46351W        W10284  39.032  26.032   1.324
46352W        W10285  31.094  25.673   4.338
46353W        W10286  32.094   2.429  11.857
46354W        W10287  37.443  39.388   4.149
46355W        W10288   7.379  37.830  14.416
46356W        W10289  18.635  11.681   0.791
46357W        W10290   3.332  11.175   2.302
46358W        W10291  14.620   1.372   1.254
46359W        W10292  28.161  24.478   1.882
46360W        W10293   5.805  26.612  14.869
46361W        W10294  40.346  22.089   0.329
46362W        W10295  38.896  23.510  10.160
46363W        W10296   9.333  25.646  13.920
46364W        W10297  43.956  14.771   3.839
46365W        W10298  39.354  23.593   3.218
46366W        W10299  35.853  14.221  11.125
46367W        W10300  27.514  13.178   1.374
46368W        W10301   0.812   3.301   0.885
46369W        W10302  42.994  25.707   0.957
46370W        W10303   6.752  26.595   5.235
46371W        W10304   7.366  44.975   0.461
46372W        W10305  11.774  26.680  10.566
46373W        W10306   3.852   6.264   4.268
46374W        W10307  24.063  21.158   2.252
46375W        W10308  38.437  32.013   1.446
46376W        W10309   6.246  26.006  14.314
46377W        W10310  26.515  16.753   2.405
46378W        W10311   6.769  29.160  10.547
46379W        W10312  22.229  13.328   0.376
46380W        W10313  33.962  33.558  12.388
46381W        W10314  25.216  26.977   3.173
46382W        W10315  18.101   4.857  12.915
46383W        W10316  11.782  15.684   4.673
46384W        W10317   3.843  11.157  12.865
46385W        W10318  22.747  22.112  12.355
46386W        W10319  23.693  21.242  13.356
46387W        W10320  22.671  41.803  14.908
46388W        W10321  21.124   0.341  13.966
46389W        W10322  19.615  38.967   4.328
46390W        W10323   9.210  19.715  12.348
46391W        W10324  22.246  39.052   4.177
46392W        W10325  41.384   0.430   0.809
46393W        W10326  16.674  25.038  14.015
46394W        W10327  21.064  23.664  11.425
46395W        W10328  18.556  11.189   4.193
46396W        W10329  24.569  25.129  10.535
46397W        W10330  18.247   9.360   1.837
46398W        W10331  19.057  14.226   1.288
46399W        W10332   8.274  25.022  14.951
46400W        W10333   4.846  44.346   4.760
46401W        W10334  15.807  12.679  13.482
46402W        W10335  10.648   8.168   4.809
46403W        W10336  16.080  43.349  11.011
46404W        W10337   2.339  10.277  12.992
46405W        W10338  28.458  21.144   1.381
46406W        W10339   8.258  19.626   3.677
46407W        W10340  26.152  18.705   3.649
46408W        W10341  32.596   7.410  13.019
46409W        W10342  27.687  21.194  14.508
46410W        W10343  38.508  30.566  12.068
46411W        W10344  23.084  20.210  13.388
46412W        W10345  21.112  17.718  11.439
46413W        W10346  42.942  36.019   4.309
46414W        W10347  44.391  38.354   0.458
46415W        W10348  32.970  43.286   4.764
46416W        W10349  38.331  24.020  12.560
46417W        W10350  29.507  26.532   5.120
46418W        W10351  27.492   3.764   3.686
46419W        W10352   7.677   1.962   1.346
46420W        W10353  17.624  32.898  14.463
46421W        W10354  19.164  19.153  14.766
46422W        W10355  34.991  23.082   2.277
46423W        W10356   7.404   8.331   0.790
46424W        W10357  10.757  37.430   1.883
46425W        W10358  40.338  24.556  12.060
46426W        W10359  21.227  13.254   0.816
46427W        W10360  29.052  34.010   1.216
46428W        W10361  29.946  38.962  11.992
46429W        W10362  16.205  10.250   1.777
46430W        W10363  22.191  37.388   1.313
46431W        W10364   9.293  32.075  10.623
46432W        W10365  13.627   2.852  13.339
46433W        W10366  10.342  15.681   5.322
46434W        W10367  11.366  37.866  13.432
46435W        W10368   8.344  23.523   0.871
46436W        W10369  16.570  27.629  14.911
46437W        W10370   1.371  43.963  12.020
46438W        W10371   1.831  17.195   1.303
46439W        W10372  25.205   2.895   1.746
46440W        W10373  11.226  27.950  13.001
46441W        W10374   8.329  42.868  14.026
46442W        W10375  28.179  29.651   1.320
46443W        W10376  38.362  40.428  10.407
46444W        W10377  41.977  22.609  11.496
46445W        W10378  30.020  25.171   4.329
46446W        W10379   0.287  18.149  12.845
46447W        W10380  39.958  33.966  11.465
46448W        W10381   5.881   0.443   4.265
46449W        W10382  36.569   2.332  13.509
46450W        W10383   0.815  13.626   2.722
46451W        W10384   0.757  39.458   4.758
46452W        W10385   7.848  27.127  12.042
46453W        W10386   6.325  17.628   1.793
46454W        W10387  43.956  43.883  13.811
46455W        W10388  29.458   6.792  12.839
46456W        W10389   2.748   6.331   3.652
46457W        W10390   6.863  16.132   1.357
46458W        W10391   9.722  15.197   0.354
46459W        W10392  10.698  39.469   4.234
46460W        W10393  44.279   5.758   5.172
46461W        W10394  41.319   8.782   2.331
46462W        W10395   9.658  42.787   0.258
46463W        W10396  29.519  24.656   4.156
46464W        W10397  36.956  22.564  13.803
46465W        W10398  32.089  33.384  10.526
46466W        W10399   0.431  20.172  10.473
46467W        W10400  14.221   5.830   2.411
46468W        W10401  26.478   3.421   9.983
46469W        W10402  25.677  38.846  10.566
46470W        W10403  23.031  29.050  10.938
46471W        W10404  17.622  21.071   2.739
46472W        W10405  10.659  19.593  12.885
46473W        W10406  25.685  32.472  10.457
46474W        W10407  28.934  42.365   0.473
46475W        W10408  22.189  43.409   4.676
46476W        W10409   9.387  31.482  12.857
46477W        W10410  40.802  26.109   4.204
46478W        W10411  20.165  23.691   5.198
46479W        W10412  23.194  44.781   4.652
46480W        W10413  22.573  37.545   4.347
46481W        W10414  28.944  15.145  13.493
46482W        W10415   0.794  31.579  11.961
46483W        W10416  23.127   1.848   0.862
46484W        W10417  12.833  17.138  12.898
46485W        W10418  36.009  42.861  14.813
46486W        W10419  40.447  18.179  10.056
46487W        W10420  31.086  16.727  10.991
46488W        W10421  32.589  29.146   0.447
46489W        W10422   0.756  21.189  10.014
46490W        W10423   5.838  28.052   0.314
46491W        W10424  26.568  10.313  14.914
46492W        W10425  33.972  13.154  10.928
46493W        W10426  29.483  36.378   4.709
46494W        W10427  18.177  31.641  13.942
46495W        W10428  44.284  32.435  11.967
46496W        W10429   5.319  44.965  11.449
46497W        W10430  32.513   9.780  10.992
46498W        W10431   6.314  26.550  12.064
46499W        W10432  33.081  20.165   4.290
46500W        W10433  22.738  42.833   0.385
46501W        W10434  15.578  21.092   3.274
46502W        W10435  44.991  29.526   3.800
46503W        W10436  32.973  36.469  10.927
46504W        W10437  30.433  32.611  14.825
46505W        W10438  37.043  28.955  14.933
46506W        W10439  19.206  44.908  14.789
46507W        W10440  24.649  24.601   2.800
46508W        W10441   6.338  17.250  10.986
46509W        W10442   4.919  29.582   0.345
46510W        W10443  39.414   0.924  12.985
46511W        W10444  21.605  36.907  11.120
46512W        W10445  25.473   2.859   3.847
46513W        W10446  23.648  28.582   4.663
46514W        W10447  44.274  34.437  13.922
46515W        W10448  28.975  18.758   1.712
46516W        W10449  34.880  33.518  14.834
46517W        W10450   6.235  31.439   1.777
46518W        W10451  44.329  10.143   3.802
46519W        W10452  36.929  12.218  10.491
46520W        W10453  20.132  22.073   3.853
46521W        W10454  28.624  35.009  13.005
46522W        W10455  37.440  17.731  12.408
46523W        W10456   4.751  14.250  11.415
46524W        W10457   4.291  40.422  11.378
46525W        W10458   6.365   0.428  14.002
46526W        W10459  26.554   2.400   1.806
46527W        W10460   5.905  25.536  14.020
46528W        W10461  15.261   9.245  12.377
46529W        W10462   1.764  38.466  14.295
46530W        W10463  23.032   1.292  12.968
46531W        W10464  14.780   3.221   1.750
46532W        W10465  27.562  32.970   2.414
46533W        W10466   6.699  23.611   0.729
46534W        W10467  26.970  13.827   2.833
46535W        W10468   5.824   5.907   0.415
46536W        W10469  34.889  15.733   3.648
46537W        W10470   9.170  19.764   0.819
46538W        W10471  43.273  43.801   0.323
46539W        W10472  25.470  31.969  14.893
46540W        W10473  34.003   8.169   1.249
46541W        W10474   5.287  31.920   4.752
46542W        W10475  19.587  22.697   0.760
46543W        W10476  39.480  23.124  11.069
46544W        W10477   1.401  36.533   0.778
46545W        W10478   5.416  40.827  12.079
46546W        W10479  25.471  34.891  14.016
46547W        W10480  20.101  21.220   5.266
46548W        W10481  27.586   4.247  11.533
46549W        W10482  29.647  10.241  10.445
46550W        W10483  25.694   6.341  12.023
46551W        W10484  18.579   7.205   0.464
46552W        W10485   2.328   7.682  14.330
46553W        W10486   9.184  31.112  14.812
46554W        W10487  19.105  23.556  10.914
46555W        W10488  15.625  20.246  11.583
46556W        W10489  23.013  39.062  11.609
46557W        W10490  25.654  21.559  11.486
46558W        W10491  22.583   0.933  14.373
46559W        W10492   0.755   4.372   4.820
46560W        W10493   3.831  28.943  13.538
46561W        W10494  22.168  41.973   0.320
46562W        W10495  13.187   0.910   0.475
46563W        W10496  18.638  24.547  11.881
46564W        W10497  43.951  25.042   4.792
46565W        W10498  36.421  33.460  10.602
46566W        W10499  33.575   3.829   4.180
46567W        W10500  39.859  36.404   0.391
46568W        W10501  31.095  17.194  12.960
46569W        W10502  24.651  43.875   0.448
46570W        W10503  28.581  33.001   1.833
46571W        W10504   9.836  25.691   4.121
46572W        W10505  19.641  24.540   3.260
46573W        W10506  22.241   9.730  11.485
46574W        W10507   5.912  12.818   3.813
46575W        W10508  16.241  19.663   0.347
46576W        W10509  22.745  14.259   2.261
46577W        W10510  43.482  13.308  10.477
46578W        W10511  15.641   0.853  12.871
46579W        W10512  42.478   2.288   3.278
46580W        W10513  37.954  40.421   3.303
46581W        W10514  38.877  40.463  11.898
46582W        W10515  14.272  23.693   9.945
46583W        W10516   1.929  27.485  14.440
46584W        W10517  36.426   1.806  11.905
46585W        W10518  21.111  10.675  11.384
46586W        W10519   8.656   8.814  14.966
46587W        W10520  31.021  24.079  11.127
46588W        W10521  39.978  21.720   4.114
46589W        W10522   1.332  24.183  12.565
46590W        W10523  12.816   1.912  10.485
46591W        W10524  11.313  20.639  11.892
46592W        W10525  27.527  42.916   3.750
46593W        W10526  32.968  39.996  10.952
46594W        W10527  31.019  40.329  10.133
46595W        W10528  29.462   7.331   0.361
46596W        W10529  18.185  32.510  14.986
46597W        W10530  11.357  35.483   4.669
46598W        W10531  31.118  38.544   0.942
46599W        W10532  19.097  37.364   0.308
46600W        W10533  25.164  44.834   0.777
46601W        W10534  41.512  14.695  13.900
46602W        W10535  27.518  15.584  10.486
46603W        W10536  28.967  24.008  14.759
46604W        W10537  30.583  26.700  13.954
46605W        W10538   2.466  30.929   3.385
46606W        W10539  36.406  30.448   1.345
46607W        W10540  14.126   1.433   3.665
46608W        W10541   7.318  13.338   0.729
46609W        W10542  22.739  34.012   0.921
46610W        W10543  40.041  36.054  14.954
46611W        W10544  16.144  34.098  11.034
46612W        W10545  18.201   0.876   1.259
46613W        W10546   0.250  41.974   2.663
46614W        W10547   5.790  29.073   1.912
46615W        W10548  17.732  20.266   5.092
46616W        W10549   8.288   1.249   4.732
46617W        W10550  27.107  38.054   3.209
46618W        W10551   4.799   6.232   5.154
46619W        W10552  25.477  42.446  10.962
46620W        W10553  22.514   6.316   3.794
46621W        W10554  34.982  42.847   0.939
46622W        W10555  26.465  25.663  14.979
46623W        W10556  19.202  40.002   9.977
46624W        W10557  20.722  41.451  10.549
46625W        W10558  22.128  23.495   4.604
46626W        W10559  13.266  34.053  11.548
46627W        W10560  32.888   1.837  10.596
46628W        W10561  12.650  10.379  11.094
46629W        W10562  16.795  37.060   2.881
46630W        W10563  39.476  36.487  11.125
46631W        W10564  31.567  33.969  14.442
46632W        W10565  25.707   9.764  12.076
46633W        W10566   5.362  32.570   4.174
46634W        W10567  37.474  29.061   4.713
46635W        W10568  12.294  38.891  12.376
46636W        W10569  42.818  40.432  14.854
46637W        W10570  33.590  18.239   4.780
46638W        W10571  38.825  15.176  12.092
46639W        W10572  14.263   6.196  11.591
46640W        W10573   6.820  37.066  11.537
46641W        W10574  16.230  30.566   1.417
46642W        W10575  43.367  36.936   1.233
46643W        W10576  40.543   9.232  13.405
46644W        W10577  15.085  36.928   0.268
46645W        W10578  25.472  31.932   0.329
46646W        W10579  27.503   4.760  13.000
46647W        W10580  38.394  40.972  12.552
46648W        W10581  43.287  19.151  14.864
46649W        W10582  33.959   1.317  13.499
46650W        W10583  37.518  33.101   4.646
46651W        W10584  41.803  35.400  13.913
46652W        W10585  35.989   6.767  10.628
46653W        W10586   1.356  43.380   4.703
46654W        W10587  30.622  21.262   5.156
46655W        W10588  34.090   3.740   0.830
46656W        W10589  40.408  22.553  13.861
46657W        W10590  20.171  43.811  14.021
46658W        W10591  33.969   3.367   3.820
46659W        W10592  34.520  37.484   0.812
46660W        W10593  19.661   2.422   0.373
46661W        W10594  14.773   3.746   1.364
46662W        W10595  13.194  31.502   0.733
46663W        W10596  11.337  36.473  13.877
46664W        W10597  30.983   5.418   2.783
46665W        W10598  22.022   3.716  14.934
46666W        W10599  15.286  26.104   4.784
46667W        W10600  44.971   2.785   0.924
46668W        W10601  15.244  42.874  12.559
46669W        W10602  16.645  11.181  10.611
46670W        W10603   4.269  33.491   1.282
46671W        W10604  14.730  44.836   2.407
46672W        W10605  10.639  17.698   3.346
46673W        W10606  22.632  36.954  11.034
46674W        W10607  44.884  27.639   4.169
46675W        W10608   0.387   9.879  12.375
46676W        W10609   0.430  14.821  12.965
46677W        W10610  17.299  39.823   3.802
46678W        W10611   9.265  22.538   0.477
46679W        W10612  27.538  42.490   1.811
46680W        W10613  17.094   5.770  14.778
46681W        W10614  30.527  11.364  13.982
46682W        W10615  33.423  15.279  11.445
46683W        W10616  25.653  14.791   4.719
46684W        W10617  17.694  38.558  11.920
46685W        W10618  33.968  21.532   0.858
46686W        W10619  14.198  31.989   1.863
46687W        W10620  26.105  26.044   4.212
46688W        W10621  21.187  12.779  10.058
46689W        W10622  32.935   6.207  12.514
46690W        W10623   1.855  21.674   4.797
46691W        W10624  41.969  42.910   2.183
46692W        W10625  44.787   3.787  12.537
46693W        W10626  14.117  11.365  14.933
46694W        W10627  36.437  14.320  14.032
46695W        W10628  29.100  38.942   4.728
46696W        W10629   5.217  24.537  13.403
46697W        W10630  28.521  34.415  14.417
46698W        W10631  21.189  32.610  14.938
46699W        W10632  27.035  24.077  11.513
46700W        W10633  28.500  29.922  12.996
46701W        W10634  23.083  32.931   4.278
46702W        W10635   6.398  18.592   3.690
46703W        W10636  44.999  15.714  10.114
46704W        W10637  33.602  10.864   4.760
46705W        W10638  36.377   9.218   4.270
46706W        W10639   4.698  43.838   2.730
46707W        W10640  44.272  10.364  12.466
46708W        W10641  13.337  33.551  11.902
46709W        W10642  32.087   2.233  11.441
46710W        W10643  15.647   7.191  10.996
46711W        W10644   5.776  38.993   1.712
46712W        W10645  20.185  25.627  12.415
46713W        W10646  41.328  14.825  14.769
46714W        W10647  44.481  36.021  13.409
46715W        W10648  27.183  25.666  14.000
46716W        W10649  10.713  22.116  13.323
46717W        W10650  24.608  44.975   3.829
46718W        W10651  33.425  25.207  14.957
46719W        W10652  39.990   6.879  13.372
46720W        W10653  39.328  13.128  13.885
46721W        W10654  35.075   0.849  13.313
46722W        W10655  37.833   1.848  11.030
46723W        W10656   4.885  12.321   0.901
46724W        W10657  12.660  33.992  13.537
46725W        W10658   8.209  19.678  14.961
46726W        W10659  40.827  43.294  11.389
46727W        W10660  16.160  25.496   0.386
46728W        W10661  26.510  28.124   1.252
46729W        W10662  28.435  37.835  13.812
46730W        W10663   9.871  17.194  13.941
46731W        W10664   0.903  32.984  12.488
46732W        W10665  10.326  16.765   2.712
46733W        W10666   3.835  34.495   0.371
46734W        W10667  29.107  22.150   3.817
46735W        W10668   5.277  19.551  10.407
46736W        W10669  17.127   1.327   4.663
46737W        W10670  14.264  20.527   0.882
46738W        W10671  44.304  13.191  12.425
46739W        W10672  31.413  21.184   0.265
46740W        W10673   6.904  13.725   3.300
46741W        W10674  27.087  31.434   0.886
46742W        W10675   9.706  36.049  14.288
46743W        W10676  12.338  12.741  11.585
46744W        W10677  25.642  35.489  12.570
46745W        W10678  13.282  44.358  12.540
46746W        W10679  14.695  36.947   9.473
46747W        W10680  31.572  24.186   3.632
46748W        W10681  42.408  39.817   2.344
46749W        W10682  33.040  14.332  12.068
46750W        W10683  23.663  29.507  12.353
46751W        W10684   1.968   6.321   2.374
46752W        W10685  23.718  21.246   3.830
46753W        W10686  44.813  10.327   2.889
46754W        W10687   3.868  10.713   1.343
46755W        W10688  40.356   5.265   2.281
46756W        W10689  17.604  28.021  12.541
46757W        W10690  41.429  12.121   2.779
46758W        W10691  33.910   0.832  14.361
46759W        W10692  41.874  40.386   2.348
46760W        W10693  40.844  19.069   2.701
46761W        W10694  16.274  15.112   2.396
46762W        W10695   3.259  23.105   0.933
46763W        W10696   1.309  25.703  14.360
46764W        W10697  13.188  22.711  12.394
46765W        W10698   5.263  29.124   0.403
46766W        W10699  17.078  12.161  14.425
46767W        W10700  10.733  21.047   2.818
46768W        W10701  39.425  14.114   0.838
46769W        W10702  19.582  15.742  14.287
46770W        W10703   5.711  12.799  10.461
46771W        W10704   4.387  31.453   1.926
46772W        W10705  18.065   5.877  14.904
46773W        W10706  30.074  30.485   1.248
46774W        W10707  10.372   6.215   3.729
46775W        W10708  33.428  33.997  11.471
46776W        W10709  24.158  42.992  10.114
46777W        W10710   6.242   5.901  14.479
46778W        W10711  43.791  23.643  13.056
46779W        W10712   0.443  13.612  12.504
46780W        W10713  44.850   7.842  12.576
46781W        W10714   8.889  10.274   0.341
46782W        W10715  37.035  26.598  11.576
46783W        W10716  28.943  26.531  13.863
46784W        W10717  28.940   9.268   0.852
46785W        W10718   0.834   6.759  14.949
46786W        W10719  17.256  27.967  13.973
46787W        W10720  21.638  30.913  12.037
46788W        W10721  35.500  18.099   1.396
46789W        W10722  14.751   1.785  11.963
46790W        W10723  20.135  16.237   3.251
46791W        W10724  25.174   7.906  12.881
46792W        W10725  19.743  40.386   3.319
46793W        W10726   7.331  20.672   4.646
46794W        W10727  23.561   9.767   1.769
46795W        W10728  32.416  26.578   1.823
46796W        W10729  33.520  21.733   2.776
46797W        W10730  36.970  16.610  11.061
46798W        W10731  26.572   5.876   2.859
46799W        W10732  40.475   9.765   3.761
46800W        W10733  41.858  34.926   3.850
46801W        W10734  21.130  20.178  13.796
46802W        W10735  10.162  34.866   0.454
46803W        W10736  29.115  28.104  13.050
46804W        W10737  18.129  28.541  14.906
46805W        W10738  12.727   6.805  12.061
46806W        W10739  15.224  19.188  10.015
46807W        W10740  36.842   9.189   0.409
46808W        W10741   9.765  16.597   3.371
46809W        W10742  44.378  14.209  10.036
46810W        W10743  17.688   4.770   3.780
46811W        W10744  31.998  14.271  10.145
46812W        W10745  18.714   9.204  10.573
46813W        W10746  19.738  18.741   5.137
46814W        W10747   4.416  40.827   3.338
46815W        W10748  31.590  44.436  10.158
46816W        W10749  25.704  28.982   4.740
46817W        W10750  39.518   0.351  11.040
46818W        W10751   4.257  21.753  13.442
46819W        W10752  11.291  37.026  13.449
46820W        W10753   3.940  27.172   4.264
46821W        W10754  25.594   5.823   3.312
46822W        W10755  26.664  13.701   0.807
46823W        W10756  12.722  39.403  14.998
46824W        W10757   0.456   1.779  14.503
46825W        W10758  36.077   5.321  14.398
46826W        W10759   3.937  41.791  11.899
46827W        W10760   9.393  38.438   4.343
46828W        W10761  35.905  34.097   4.284
46829W        W10762  28.000  31.637   4.227
46830W        W10763  33.493  43.452  14.421
46831W        W10764  36.937  13.789   0.867
46832W        W10765   8.858  25.213  13.933
46833W        W10766  33.424  12.157   4.244
46834W        W10767  31.971   1.740  11.973
46835W        W10768  33.023  29.504  14.907
46836W        W10769  17.199  22.700  11.498
46837W        W10770  26.534   1.394   4.683
46838W        W10771  37.404  31.107  11.860
46839W        W10772  12.729  23.129   4.838
46840W        W10773  14.292   9.872  13.821
46841W        W10774   0.763  41.329  12.481
46842W        W10775   9.670  23.630   2.279
46843W        W10776  21.217  27.074  14.335
46844W        W10777   0.489   7.369   0.940
46845W        W10778  13.760  12.818   2.795
46846W        W10779   8.394  42.393  10.952
46847W        W10780  43.889  22.515  11.091
46848W        W10781  13.702  22.516   4.836
46849W        W10782  27.629  11.242   0.861
46850W        W10783  37.454  29.085   2.771
46851W        W10784  43.851  14.739  12.403
46852W        W10785  13.838  25.964  12.488
46853W        W10786  37.409   1.771  12.030
46854W        W10787  14.112  20.547   2.735
46855W        W10788  38.934   4.438  14.483
46856W        W10789  10.871  38.925  14.950
46857W        W10790  41.427  36.063   3.185
46858W        W10791  15.111  44.860   3.253
46859W        W10792  21.533   5.410  13.540
46860W        W10793  30.492  41.507   0.794
46861W        W10794   2.779  32.607  13.942
46862W        W10795  14.763  30.592  13.910
46863W        W10796  10.761   9.654   4.636
46864W        W10797  23.521  32.552   4.332
46865W        W10798  13.825  11.764  11.486
46866W        W10799  22.691  32.628  11.885
46867W        W10800  34.925  35.027  11.525
46868W        W10801   2.757  21.575   2.796
46869W        W10802  19.159  38.539  12.934
46870W        W10803  32.530  29.662  10.573
46871W        W10804  14.610   9.832   1.433
46872W        W10805  14.256  22.171  13.807
46873W        W10806  30.947   6.715   4.612
46874W        W10807  10.363   0.345  12.065
46875W        W10808  17.689   4.265  10.432
46876W        W10809   4.741  32.046   0.922
46877W        W10810   7.861  10.728   1.780
46878W        W10811  28.450  31.620   2.898
46879W        W10812  29.127  30.977  14.422
46880W        W10813   9.758  24.091  14.492
46881W        W10814  38.877  29.526   0.929
46882W        W10815   6.684   4.817   5.293
46883W        W10816  28.142   6.399  12.090
46884W        W10817  40.409  30.483   2.266
46885W        W10818   0.437  36.577   3.679
46886W        W10819   2.966  15.723  12.432
46887W        W10820  43.497  13.739   4.781
46888W        W10821  26.513  17.170  13.413
46889W        W10822   1.753  28.632  11.006
46890W        W10823  42.841  11.182  14.861
46891W        W10824  44.006   5.323   4.117
46892W        W10825  24.207  36.578   2.298
46893W        W10826  32.411  23.514   4.154
46894W        W10827  20.552   5.925   4.700
46895W        W10828  17.789  17.556   2.707
46896W        W10829  27.620  19.631   4.274
46897W        W10830  10.337  39.886   4.626
46898W        W10831  27.085  44.418  14.368
46899W        W10832  36.971  20.750   3.678
46900W        W10833   1.896  43.951  12.490
46901W        W10834  44.842  10.879  12.439
46902W        W10835  19.131   0.824   3.841
46903W        W10836  13.824  13.770  14.828
46904W        W10837   7.179  12.677  13.895
46905W        W10838  22.709  28.930   2.262
46906W        W10839  35.398  23.509  12.442
46907W        W10840  11.865  18.069   4.271
46908W        W10841  15.130  29.633  14.804
46909W        W10842   8.256   3.740  12.919
46910W        W10843   3.799  14.111  10.540
46911W        W10844  37.973  30.063   2.335
46912W        W10845  34.591  32.139  11.479
46913W        W10846   6.834  12.128   3.339
46914W        W10847  20.546  18.683   2.307
46915W        W10848  30.492  36.083   1.766
46916W        W10849  29.019   9.368   3.723
46917W        W10850  11.697  41.991  13.399
46918W        W10851  15.803  35.501  10.929
46919W        W10852  38.868  22.240   0.278
46920W        W10853  43.915  10.875  14.355
46921W        W10854  38.542  18.194   0.873
46922W        W10855   0.265   5.688  14.366
46923W        W10856  12.141  28.509  13.007
46924W        W10857  27.167  12.301   1.220
46925W        W10858  41.016  38.938   2.790
46926W        W10859  38.331  24.039   3.179
46927W        W10860  39.042   4.719  12.353
46928W        W10861  29.056   6.689   3.271
46929W        W10862  24.008  17.254   5.212
46930W        W10863   1.950  18.778  13.531
46931W        W10864   6.243  42.891   3.181
46932W        W10865  25.641   7.300   4.319
46933W        W10866  38.863  25.661  10.620
46934W        W10867  35.557  26.116  14.877
46935W        W10868  39.831   6.683   1.868
46936W        W10869  22.186  27.568  12.882
46937W        W10870  31.490  32.548  12.078
46938W        W10871  31.532  15.233   2.399
46939W        W10872  27.089  44.883   0.427
46940W        W10873  42.031  11.709   2.761
46941W        W10874  43.464  40.939   1.250
46942W        W10875  26.480  28.072   0.938
46943W        W10876  38.028  24.702  12.459
46944W        W10877  20.108  43.906   3.320
46945W        W10878  12.196   4.887   2.698
46946W        W10879   8.890  17.801   0.464
46947W        W10880  17.233   5.428   2.304
46948W        W10881  20.611  10.194  12.500
46949W        W10882  38.925  10.266  13.821
46950W        W10883  19.041  22.227   2.180
46951W        W10884   7.302  37.075  10.543
46952W        W10885  31.587  22.103  13.835
46953W        W10886  17.121   9.865   2.374
46954W        W10887   8.334   1.953   5.253
46955W        W10888  24.725  42.471   1.234
46956W        W10889  20.749  18.664   3.321
46957W        W10890  22.726  44.804   1.294
46958W        W10891  20.530  36.512   1.923
46959W        W10892  42.526  15.137  10.952
46960W        W10893  25.510  31.477  11.405
46961W        W10894  15.299  39.016  12.405
46962W        W10895  18.685   7.786   0.762
46963W        W10896  24.230  15.204  12.507
46964W        W10897  12.643   4.912   4.171
46965W        W10898  17.104   9.268   4.784
46966W        W10899  27.066  10.320  12.541
46967W        W10900  30.480  19.135  12.540
46968W        W10901  18.733  12.767   4.122
46969W        W10902   0.371  42.812  13.434
46970W        W10903  23.657  14.098   3.724
46971W        W10904  28.575  41.960  14.933
46972W        W10905  27.046  13.750   3.634
46973W        W10906   8.182  28.444   1.294
46974W        W10907  32.518  38.019  11.864
46975W        W10908   7.717  20.136   1.343
46976W        W10909  21.215   7.673   1.725
46977W        W10910  13.239  39.519  11.452
46978W        W10911  25.979  26.487   1.925
46979W        W10912  11.756  29.092  12.436
46980W        W10913  25.118  28.087   3.307
46981W        W10914  15.284  25.524  13.943
46982W        W10915   3.875   1.349  12.554
46983W        W10916  13.839  21.568  12.049
46984W        W10917  44.395  32.558   2.786
46985W        W10918   8.730   1.950  13.005
46986W        W10919  32.062  12.755   3.722
46987W        W10920  26.537  29.982   0.337
46988W        W10921  30.594  25.523  10.464
46989W        W10922  33.001  41.037  12.017
46990W        W10923  26.969  11.736   5.203
46991W        W10924  34.993  35.551   2.680
46992W        W10925  10.699  24.122  13.891
46993W        W10926   2.856  25.081  10.899
46994W        W10927  15.611  13.821   0.272
46995W        W10928  35.959  40.373  11.404
46996W        W10929  34.057  28.126   1.815
46997W        W10930   9.213  11.174   0.407
46998W        W10931   1.476   7.900   2.349
46999W        W10932  43.017  12.273   3.827
47000W        W10933  36.483   1.369  11.048
47001W        W10934  13.649   2.946   3.376
47002W        W10935  28.135  32.907   0.870
47003W        W10936  41.834  19.137  10.621
47004W        W10937   0.784  20.054   4.338
47005W        W10938  29.490   4.277  13.012
47006W        W10939   4.706  28.550   0.299
47007W        W10940   3.330  13.298  13.333
47008W        W10941  21.536  31.994   2.230
47009W        W10942  26.591  40.430   0.758
47010W        W10943  40.341  30.437   1.787
47011W        W10944  40.936  30.091  13.358
47012W        W10945  30.425   4.270  11.943
47013W        W10946  29.965  15.795  13.009
47014W        W10947   9.669  44.007  13.836
47015W        W10948  19.220  30.549   0.472
47016W        W10949  31.079  44.869  12.852
47017W        W10950  13.797  28.149  11.510
47018W        W10951  38.546  36.521  14.939
47019W        W10952  42.482  14.246   2.330
47020W        W10953  38.857  39.979   3.744
47021W        W10954  20.121  42.023   4.249
47022W        W10955  33.587  43.974   0.949
47023W        W10956  38.447  40.864  11.961
47024W        W10957  40.032  26.094   2.798
47025W        W10958  11.714  31.002   1.784
47026W        W10959  33.996  33.877   3.282
47027W        W10960   2.913  34.408   0.852
47028W        W10961  28.500  23.074   1.827
47029W        W10962   9.238  38.455  11.998
47030W        W10963   6.784  36.893   4.130
47031W        W10964  28.170  41.353   3.869
47032W        W10965  14.785  15.134  11.548
47033W        W10966   8.850   1.378  14.312
47034W        W10967  29.924  37.473   4.293
47035W        W10968   0.396  44.468   0.463
47036W        W10969  11.227  29.670  12.461
47037W        W10970  15.789  28.139  12.463
47038W        W10971   1.898  20.136  13.461
47039W        W10972  16.232   5.357   9.933
47040W        W10973  28.632   0.751  12.560
47041W        W10974  39.438  16.729  10.522
47042W        W10975   9.779  18.703   0.933
47043W        W10976   9.759  43.991   3.374
47044W        W10977   1.469  37.551   3.659
47045W        W10978  29.934  22.728  10.569
47046W        W10979  13.274   7.787   0.404
47047W        W10980   6.897  12.777  14.993
47048W        W10981  21.747  33.042   4.158
47049W        W10982   2.744  39.939   0.936
47050W        W10983  42.403  16.163   3.745
47051W        W10984   0.423  38.823  13.948
47052W        W10985  39.502  30.012  10.541
47053W        W10986  13.805  35.428   3.271
47054W        W10987  33.943  17.772   0.245
47055W        W10988  29.489  34.568   1.697
47056W        W10989   5.269  34.583  14.811
47057W        W10990  32.949  38.992   4.201
47058W        W10991  43.996  26.104  11.886
47059W        W10992  42.000  37.363   0.345
47060W        W10993   9.830  22.621   1.275
47061W        W10994   1.760  41.468   0.881
47062W        W10995  36.040  42.520   1.287
47063W        W10996   6.378   6.801   1.414
47064W        W10997  39.318  11.776  12.909
47065W        W10998  29.002  16.211   1.444
47066W        W10999  14.244  27.153   0.336
47067W        W11000  32.057  40.052  12.027
47068W        W11001  39.815   3.904  12.341
47069W        W11002  29.028  16.159   4.115
47070W        W11003   0.429  18.705   4.339
47071W        W11004  33.504  24.502   1.271
47072W        W11005   0.779  27.556   0.835
47073W        W11006  35.398  25.638  13.546
47074W        W11007  43.492  21.107  13.010
47075W        W11008  27.038  38.471  14.927
47076W        W11009  12.756  37.033  10.575
47077W        W11010  43.508  30.485  12.091
47078W        W11011  23.505  39.350  14.969
47079W        W11012  43.787  25.216  10.561
47080W        W11013   6.716  22.557  13.504
47081W        W11014  25.980  22.663  12.461
47082W        W11015  43.981  30.454  11.933
47083W        W11016  17.089  36.994   1.441
47084W        W11017  20.240  44.300   4.336
47085W        W11018  43.490  19.115  10.416
47086W        W11019  20.618   0.351   3.383
47087W        W11020  32.543  12.175  12.342
47088W        W11021   6.267  21.721  11.861
47089W        W11022  16.223  26.596   2.211
47090W        W11023  19.773  19.246   0.765
47091W        W11024  35.530  23.192  10.455
47092W        W11025   6.717  40.504  14.399
47093W        W11026   3.252  28.018   3.805
47094W        W11027   0.903  19.659  14.877
47095W        W11028  31.037   8.668  14.416
47096W        W11029  23.600  23.612   4.235
47097W        W11030  32.055  26.998  13.519
47098W        W11031  29.084   9.269  14.794
47099W        W11032  18.116  10.759   3.746
47100W        W11033  29.482   6.845  11.920
47101W        W11034  25.528  42.331   3.637
47102W        W11035   9.671  36.092  11.415
47103W        W11036   8.370   1.814  12.059
47104W        W11037  10.157  21.704  12.895
47105W        W11038   4.413  26.157  10.920
47106W        W11039  38.409  13.649  14.809
47107W        W11040  42.918  42.800  10.471
47108W        W11041  35.025  41.953  13.956
47109W        W11042  10.309  29.549  14.408
47110W        W11043  35.596   2.313   2.860
47111W        W11044  21.146   6.861  11.449
47112W        W11045   1.249  19.683  10.532
47113W        W11046  10.277   1.885   0.799
47114W        W11047  29.574  16.679  14.004
47115W        W11048   6.194  26.679   3.830
47116W        W11049  24.994  33.575   1.750
47117W        W11050  21.553   4.858  14.004
47118W        W11051  31.104  20.253   1.866
47119W        W11052  21.617  39.019   0.356
47120W        W11053  44.941  34.444   2.854
47121W        W11054   0.947  17.751  13.929
47122W        W11055   6.822   4.876   1.866
47123W        W11056  23.062  36.484  13.849
47124W        W11057  43.308  12.288   1.285
47125W        W11058  15.234  24.144   0.924
47126W        W11059  31.505  15.633   1.821
47127W        W11060  16.135  39.456   0.300
47128W        W11061  40.015   9.716   3.342
47129W        W11062  24.485   1.395  11.429
47130W        W11063  31.114  19.650  14.921
47131W        W11064   0.777  35.063  12.461
47132W        W11065  24.625  15.145  13.489
47133W        W11066  10.197  24.173   4.200
47134W        W11067  36.452  38.484  13.351
47135W        W11068  20.213  40.420   3.348
47136W        W11069  14.736  37.973  10.563
47137W        W11070  28.993  42.418   3.848
47138W        W11071  34.998   8.253   2.418
47139W        W11072  22.502  27.073   4.176
47140W        W11073  20.241  40.493   2.807
47141W        W11074  41.957   1.850  13.334
47142W        W11075  39.511   3.876  13.890
47143W        W11076   4.771  16.232   0.792
47144W        W11077   8.691   8.759   2.349
47145W        W11078   4.715  16.224  13.307
47146W        W11079  27.608   4.829  14.283
47147W        W11080   6.909   6.887   1.212
47148W        W11081  13.708  29.919  12.968
47149W        W11082  39.999  25.026  14.803
47150W        W11083  19.262   7.865   3.338
47151W        W11084  37.906  19.770  13.981
47152W        W11085  14.618  13.603   4.189
47153W        W11086  14.754  28.501  14.821
47154W        W11087  34.528  41.399  11.108
47155W        W11088  23.166   7.685   2.202
47156W        W11089   8.895  34.511  11.003
47157W        W11090   1.877   6.726  13.447
47158W        W11091  44.502  31.990  12.936
47159W        W11092   0.415  34.595   4.686
47160W        W11093  27.108   6.396   4.214
47161W        W11094   4.818   1.756  13.422
47162W        W11095  21.595  16.176  12.962
47163W        W11096  25.010  12.671  14.399
47164W        W11097  39.542  37.064  13.048
47165W        W11098  23.127  38.570   3.271
47166W        W11099  32.575   9.246  14.794
47167W        W11100  21.262  24.112   4.811
47168W        W11101  19.055  28.641   4.830
47169W        W11102  27.664  34.084   3.762
47170W        W11103  12.764  24.509   4.336
47171W        W11104  20.196  32.634  11.452
47172W        W11105   2.961  28.946   2.772
47173W        W11106  36.864  11.742  10.499
47174W        W11107  14.103  15.316   0.769
47175W        W11108  13.714  17.114  11.902
47176W        W11109  17.222  36.898  11.941
47177W        W11110   2.948  15.727   0.286
47178W        W11111  11.166  20.641   0.792
47179W        W11112   8.787  38.368  12.858
47180W        W11113  17.698  16.764  14.478
47181W        W11114  26.612  12.628   0.366
47182W        W11115  17.706  35.091   4.146
47183W        W11116  40.806  25.093  14.469
47184W        W11117  35.999  44.443  13.039
47185W        W11118  11.220  10.762   2.239
47186W        W11119  38.423  30.515   4.730
47187W        W11120  15.599  30.456   1.390
47188W        W11121  27.516  39.458   2.235
47189W        W11122  11.680  22.539  12.394
47190W        W11123  20.253  10.666  11.087
47191W        W11124   6.197  35.405  12.391
47192W        W11125   6.269  13.287  12.390
47193W        W11126  37.088  20.523   0.768
47194W        W11127   5.273  21.554  14.361
47195W        W11128  19.054   5.831  12.386
47196W        W11129  25.177   4.445   4.730
47197W        W11130  26.689   2.320  11.579
47198W        W11131  28.664  22.547   4.164
47199W        W11132  32.047  22.024   0.921
47200W        W11133   4.777  19.653   2.800
47201W        W11134  13.670  24.077  12.056
47202W        W11135  16.575  14.265  13.988
47203W        W11136   8.277  20.041  13.434
47204W        W11137  40.510  39.513  11.077
47205W        W11138  20.738  20.094   4.204
47206W        W11139  20.760  27.553   1.920
47207W        W11140  14.707  36.020   3.652
47208W        W11141  41.438  23.681   1.331
47209W        W11142  40.897  27.065   3.695
47210W        W11143  25.196  35.952   0.803
47211W        W11144  30.654  43.472  10.574
47212W        W11145  17.119   9.257  11.008
47213W        W11146  31.946  29.558   3.710
47214W        W11147  37.948  20.092   1.338
47215W        W11148  23.018  27.959   0.271
47216W        W11149  12.309  27.577   0.467
47217W        W11150  33.383  25.190   1.924
47218W        W11151  18.707   5.349  12.422
47219W        W11152  44.364  16.316   2.869
47220W        W11153  31.131  37.076  13.973
47221W        W11154  40.430  19.613  14.303
47222W        W11155  23.534  18.586   2.816
47223W        W11156   5.235  24.093   5.134
47224W        W11157  15.143  26.457   2.274
47225W        W11158  31.587  38.402   0.292
47226W        W11159  16.105  40.354   0.815
47227W        W11160  40.882  29.154   1.358
47228W        W11161  43.312  40.375  12.854
47229W        W11162  29.586  32.481  11.984
47230W        W11163  18.656  26.138  12.920
47231W        W11164  21.037   5.380  13.970
47232W        W11165  23.086   4.879  14.910
47233W        W11166  37.513  18.657   3.712
47234W        W11167  14.176   1.328   0.773
47235W        W11168   0.255  27.194  10.633
47236W        W11169  34.559  41.864   0.354
47237W        W11170  41.470  41.968  10.429
47238W        W11171  14.759  20.739   3.299
47239W        W11172  19.088  43.308  14.794
47240W        W11173  41.345   8.736  12.508
47241W        W11174  32.074   5.869   4.267
47242W        W11175  24.481   4.756  12.948
47243W        W11176  11.257  35.549   1.922
47244W        W11177  27.593  20.097   3.281
47245W        W11178  28.005  40.972   2.219
47246W        W11179  43.004   4.908  13.548
47247W        W11180  12.649   3.884   1.786
47248W        W11181  21.019  13.201  14.422
47249W        W11182  14.600   4.877   4.649
47250W        W11183  29.929  11.768  12.885
47251W        W11184  12.311  40.821   3.227
47252W        W11185  39.541  12.690  13.507
47253W        W11186  39.912  41.440   3.384
47254W        W11187  30.968   6.259   0.428
47255W        W11188   8.742  40.402  10.441
47256W        W11189  21.030  39.951   3.300
47257W        W11190  35.940  22.179   0.470
47258W        W11191  26.611  39.889   4.345
47259W        W11192   8.671  21.130  13.017
47260W        W11193  11.796   1.970  12.931
47261W        W11194   8.841   3.438  14.848
47262W        W11195  27.684   8.301   1.445
47263W        W11196  21.732  34.048  14.928
47264W        W11197  31.927  35.592   2.267
47265W        W11198  30.495  24.974  12.088
47266W        W11199  41.886   8.245  13.878
47267W        W11200  44.849   5.906  11.554
47268W        W11201  19.608   4.410   2.809
47269W        W11202  22.023  36.440   4.674
47270W        W11203  41.951   6.240  13.436
47271W        W11204  13.149   1.349  13.410
47272W        W11205  26.465   9.281  14.327
47273W        W11206   9.153  38.482   2.180
47274W        W11207  15.577   3.260   1.377
47275W        W11208  29.532   2.912   4.325
47276W        W11209  20.146  30.506   1.813
47277W        W11210  37.345  36.531   0.934
47278W        W11211  43.913  40.378  14.490
47279W        W11212  40.921   4.274  10.937
47280W        W11213   1.785  16.584  12.559
47281W        W11214  29.032  41.826   4.696
47282W        W11215   3.838  30.970  14.809
47283W        W11216  27.585  42.440  12.047
47284W        W11217  16.194  35.022  13.520
47285W        W11218  15.662  13.144  14.909
47286W        W11219  28.988  26.627  11.486
47287W        W11220   7.371  31.622   2.224
47288W        W11221  31.935  25.524   1.240
47289W        W11222  21.706  18.073  13.338
47290W        W11223  34.505  19.233  11.499
47291W        W11224  39.360   8.879   3.266
47292W        W11225  34.485   3.775   4.651
47293W        W11226  43.363  14.723   1.254
47294W        W11227  34.431  21.606  12.823
47295W        W11228   3.915   6.695  12.861
47296W        W11229   6.776  14.627   1.409
47297W        W11230  21.720  11.135   4.701
47298W        W11231  33.576  24.719  10.632
47299W        W11232   7.727  18.287   9.962
47300W        W11233  12.304   9.873  11.531
47301W        W11234  12.667  29.648   3.280
47302W        W11235   5.723  33.013  14.847
47303W        W11236   9.302  14.208   3.741
47304W        W11237  31.967  34.545  12.052
47305W        W11238  16.291  32.110  12.397
47306W        W11239  25.519  38.963   3.665
47307W        W11240  10.287  35.571  10.498
47308W        W11241  29.113  10.273  13.489
47309W        W11242  35.919  15.253  13.995
47310W        W11243  27.447  43.392   1.703
47311W        W11244  34.100  13.610  11.381
47312W        W11245  14.217  14.338   0.960
47313W        W11246  11.191  17.771   4.332
47314W        W11247   4.379  10.873   2.224
47315W        W11248  12.191  28.035  14.337
47316W        W11249  11.731  31.648  11.931
47317W        W11250   3.873  13.678  11.045
47318W        W11251  10.158  27.065   0.363
47319W        W11252  19.059  38.349   1.767
47320W        W11253   8.242  36.903  13.540
47321W        W11254   4.742  43.447   0.243
47322W        W11255  14.114  21.632   0.939
47323W        W11256  14.835   7.667  13.377
47324W        W11257  31.064  40.425   1.912
47325W        W11258  42.875  19.656   0.478
47326W        W11259  28.506  34.897   3.657
47327W        W11260  32.077  33.548   1.915
47328W        W11261  29.982   5.362  11.418
47329W        W11262  27.979   2.251  13.524
47330W        W11263  16.610  26.667   4.615
47331W        W11264  17.659  34.391   4.815
47332W        W11265   0.807  21.604   0.902
47333W        W11266   3.840  15.188   3.642
47334W        W11267  10.213  19.716  11.999
47335W        W11268  25.675  13.164   3.837
47336W        W11269  24.660  12.750  12.842
47337W        W11270  13.819  40.508   1.718
47338W        W11271  23.991  44.991   0.847
47339W        W11272  20.603  18.545  10.625
47340W        W11273   1.874   5.775  12.498
47341W        W11274  12.627  18.230  12.507
47342W        W11275  35.484   8.666   0.861
47343W        W11276   6.419  44.450   5.254
47344W        W11277  36.091  31.612   1.926
47345W        W11278  36.523   4.398  10.413
47346W        W11279   7.772  44.347   5.290
47347W        W11280  42.899   7.259  10.524
47348W        W11281  39.377  29.998   1.910
47349W        W11282  37.350  18.187  11.378
47350W        W11283  11.666  18.666  14.347
47351W        W11284  27.964  43.275   0.317
47352W        W11285  27.999  32.920  12.920
47353W        W11286  27.666  21.558   1.783
47354W        W11287  23.125   6.767  12.068
47355W        W11288  44.974  28.035   0.888
47356W        W11289  40.361  30.068  12.021
47357W        W11290  10.141  26.611   3.307
47358W        W11291  34.503  29.931  12.427
47359W        W11292  24.536  42.921  14.012
47360W        W11293  44.878  42.523   3.162
47361W        W11294  44.277  18.706   1.906
47362W        W11295  20.713  31.920  11.580
47363W        W11296  22.119  19.206  13.847
47364W        W11297  19.196  32.565   1.786
47365W        W11298  44.854  43.942   1.712
47366W        W11299   6.406  20.070   3.867
47367W        W11300   7.414   1.742  14.480
47368W        W11301   5.774   7.396  14.356
47369W        W11302  18.580  27.637   2.798
47370W        W11303  26.030  30.627   0.939
47371W        W11304  24.717   4.883   4.807
47372W        W11305  22.590  17.175   0.288
47373W        W11306   3.784  29.036  10.613
47374W        W11307  30.024  28.180   0.788
47375W        W11308  37.067  27.089   3.774
47376W        W11309  18.546  43.784  13.338
47377W        W11310  33.605  23.697  10.026
47378W        W11311  14.624   8.337  10.992
47379W        W11312  18.647  11.808   4.820
47380W        W11313  17.650  15.582  10.084
47381W        W11314  27.544  15.617   3.294
47382W        W11315  33.564   6.414   0.366
47383W        W11316  16.164  37.499  10.408
47384W        W11317  34.063   9.655   3.210
47385W        W11318  27.683  10.780   0.388
47386W        W11319  27.662  28.497   1.921
47387W        W11320  12.222  22.057   2.368
47388W        W11321  10.330   2.388   2.249
47389W        W11322  35.576  10.156  11.117
47390W        W11323   0.457   1.276   4.286
47391W        W11324  43.914   3.275  12.001
47392W        W11325  32.002  19.261  12.891
47393W        W11326  17.654  28.063  10.498
47394W        W11327  40.345  27.603  14.772
47395W        W11328  13.744  32.570   2.870
47396W        W11329  37.407   6.285   5.273
47397W        W11330   8.772  32.994  12.399
47398W        W11331  43.918  28.008   4.187
47399W        W11332  17.262  30.990   4.599
47400W        W11333  10.803  28.594  13.860
47401W        W11334  44.923  31.521  14.991
47402W        W11335  32.452   8.343  14.998
47403W        W11336   4.837   1.453  10.610
47404W        W11337  37.399   4.317   0.262
47405W        W11338  38.343  32.538   0.739
47406W        W11339  41.365  23.027  14.931
47407W        W11340  20.679  30.535  14.391
47408W        W11341  20.143  41.507  14.316
47409W        W11342  21.131   8.830   5.204
47410W        W11343  11.806  44.005   3.632
47411W        W11344  39.544  33.036   2.345
47412W        W11345  36.094  18.100   2.326
47413W        W11346  34.091  13.300  14.911
47414W        W11347  38.515  12.169  11.020
47415W        W11348  41.447  36.010  13.933
47416W        W11349  43.293  30.113   3.156
47417W        W11350  15.706   7.302   1.786
47418W        W11351  14.309   9.701  12.386
47419W        W11352  18.651  34.534   0.843
47420W        W11353   3.861  39.314   4.643
47421W        W11354  38.997   0.870   1.350
47422W        W11355   7.749  34.598   4.349
47423W        W11356  43.508   0.449   3.285
47424W        W11357  15.762  14.742  13.507
47425W        W11358  11.312  41.444  11.428
47426W        W11359   6.690  25.963   3.152
47427W        W11360   4.444   9.225  13.502
47428W        W11361  40.013  23.115  12.526
47429W        W11362  17.703  28.932  12.444
47430W        W11363  37.888   3.929   0.281
47431W        W11364  37.852  37.428   2.764
47432W        W11365  11.809   2.378   4.745
47433W        W11366   3.839  25.699   3.243
47434W        W11367  35.407  43.501  10.464
47435W        W11368  10.810  10.375  14.893
47436W        W11369  25.645  40.464  11.389
47437W        W11370  44.784  37.380   1.700
47438W        W11371  10.178  25.533  10.980
47439W        W11372  14.741  38.901   5.239
47440W        W11373  13.178  25.497  13.018
47441W        W11374  14.337  15.716   4.264
47442W        W11375  27.492  12.847  10.967
47443W        W11376  23.191  43.516   0.360
47444W        W11377  23.536   5.854   1.808
47445W        W11378  26.065  22.027  14.017
47446W        W11379   8.397  44.378   0.834
47447W        W11380  40.902  13.609  12.916
47448W        W11381   6.391  19.612   0.803
47449W        W11382  31.055  29.579   9.939
47450W        W11383  24.678  44.297  14.861
47451W        W11384  32.929  22.686  12.027
47452W        W11385  16.150   1.472  12.353
47453W        W11386  37.834   6.206   4.667
47454W        W11387  25.139  35.578   1.917
47455W        W11388  26.578   7.808   4.259
47456W        W11389  34.075  31.532  12.386
47457W        W11390  11.812  35.419  12.413
47458W        W11391   4.420  15.747   3.837
47459W        W11392  44.938  17.117  14.495
47460W        W11393  13.778  32.994   0.965
47461W        W11394  20.580  22.169   0.904
47462W        W11395  17.286  10.377   0.449
47463W        W11396  27.669   9.254   2.372
47464W        W11397  21.062  35.016   2.680
47465W        W11398  21.748   0.413   2.882
47466W        W11399  22.630   3.433   0.447
47467W        W11400   9.320  20.588   3.675
47468W        W11401  37.846  18.100  14.502
47469W        W11402   6.373  41.389   2.314
47470W        W11403   9.202  20.549  13.793
47471W        W11404  38.418  26.607  13.492
47472W        W11405  32.035   9.861  13.984
47473W        W11406   5.739  24.020  14.773
47474W        W11407   4.410  16.072  11.499
47475W        W11408  33.066  27.071   0.850
47476W        W11409  44.890  40.875  11.877
47477W        W11410  36.030  23.208  11.448
47478W        W11411  41.486  18.609  13.530
47479W        W11412  36.868  29.591   0.870
47480W        W11413  10.378  23.681  12.896
47481W        W11414  26.675  25.019   0.937
47482W        W11415   8.765  42.374   2.194
47483W        W11416  44.268   6.834   3.314
47484W        W11417  12.626  19.069   4.756
47485W        W11418  24.722   9.756  13.952
47486W        W11419   7.289   3.903   0.727
47487W        W11420  27.050  40.467  10.512
47488W        W11421  33.507  22.507  13.829
47489W        W11422  41.921  28.043  13.893
47490W        W11423  40.907   2.258   0.353
47491W        W11424  30.082  30.607  10.622
47492W        W11425  33.996   7.221   1.345
47493W        W11426   5.715  31.142  12.860
47494W        W11427   2.740  14.164  12.489
47495W        W11428  24.628  15.224   3.352
47496W        W11429  24.010  15.824  11.997
47497W        W11430  22.544  23.185  12.837
47498W        W11431   5.279  10.839   4.614
47499W        W11432  19.640  35.599   0.911
47500W        W11433   2.416  15.726   4.703
47501W        W11434  39.011  23.044   2.682
47502W        W11435  18.050  14.679   0.735
47503W        W11436  35.002  33.405  11.470
47504W        W11437  18.713  24.543   4.677
47505W        W11438  24.517  18.575  11.914
47506W        W11439  28.566  12.328  11.472
47507W        W11440   3.847  16.630  10.941
47508W        W11441   9.819  22.066   4.186
47509W        W11442  15.119  24.047  11.880
47510W        W11443  43.823  38.904   2.342
47511W        W11444  36.005  44.791   2.284
47512W        W11445  32.094  15.596  14.315
47513W        W11446   0.302  16.268   0.828
47514W        W11447   0.456  20.163   1.247
47515W        W11448   3.236  12.664  14.374
47516W        W11449  10.812  36.044   0.275
47517W        W11450  22.718  24.086  11.521
47518W        W11451  37.495  24.140   4.154
47519W        W11452   2.363   6.872  12.479
47520W        W11453  38.867  43.015   5.311
47521W        W11454  31.140  15.744   2.694
47522W        W11455  27.665   5.234  13.005
47523W        W11456   8.803  42.009  13.991
47524W        W11457  12.234   7.306  10.153
47525W        W11458  40.935  42.432  14.336
47526W        W11459  12.328   4.841  14.997
47527W        W11460  43.982  37.892   0.414
47528W        W11461   2.250   2.277  13.447
47529W        W11462  30.077  12.778   2.801
47530W        W11463  37.989  21.226   4.131
47531W        W11464  43.015  22.070  14.300
47532W        W11465  27.093  42.807  13.061
47533W        W11466  17.249  39.880  14.415
47534W        W11467  33.423   4.217   4.632
47535W        W11468  36.073  41.977   0.419
47536W        W11469   9.768  36.419   4.670
47537W        W11470   2.819  15.094   5.163
47538W        W11471   6.726  43.406   0.447
47539W        W11472  40.302  39.839   4.795
47540W        W11473   1.403  44.428   2.766
47541W        W11474  18.613  28.072  12.365
47542W        W11475  19.719  35.371  12.517
47543W        W11476  24.043  17.125   4.626
47544W        W11477   3.780   5.269   2.184
47545W        W11478  22.198   4.408   0.280
47546W        W11479  13.619  43.829  14.414
47547W        W11480  35.463  11.368  12.496
47548W        W11481   2.259  28.108   1.427
47549W        W11482  33.914  32.621   0.767
47550W        W11483  23.074  37.055   0.860
47551W        W11484  19.040  11.696   1.884
47552W        W11485  36.919   4.282   0.885
47553W        W11486  16.714  32.017  13.042
47554W        W11487   5.348  41.486  12.498
47555W        W11488  23.530  17.307   0.277
47556W        W11489  29.142  20.746  10.481
47557W        W11490   5.319  19.155   1.285
47558W        W11491  42.839  29.536  14.291
47559W        W11492   1.245   3.368  13.794
47560W        W11493  43.797  40.847   1.328
47561W        W11494  10.303   6.803   2.816
47562W        W11495  34.481  35.942  13.359
47563W        W11496  13.166  44.276   1.329
47564W        W11497  10.834  30.620  12.862
47565W        W11498   3.230  43.995   3.305
47566W        W11499  10.218  44.791  14.362
47567W        W11500   2.849  14.227   3.196
47568W        W11501  33.505  22.154   3.279
47569W        W11502  36.410  17.617   3.307
47570W        W11503  41.502  16.767  12.348
47571W        W11504   0.476  13.815   4.326
47572W        W11505  17.159   9.330  14.371
47573W        W11506  40.447  39.541  14.377
47574W        W11507  43.854  25.607   1.806
47575W        W11508  11.216  40.016   3.630
47576W        W11509  10.704  20.167  11.905
47577W        W11510   3.233   7.819  13.337
47578W        W11511  18.196  20.156  10.023
47579W        W11512  23.043  39.932   3.330
47580W        W11513  36.593   7.371   1.286
47581W        W11514   8.303  20.623  14.879
47582W        W11515  30.095  35.876  10.460
47583W        W11516  41.466   0.355  14.869
47584W        W11517   7.394  18.687   2.191
47585W        W11518  36.400  28.670   2.260
47586W        W11519  37.045  36.891   3.758
47587W        W11520  32.423  29.020  13.372
47588W        W11521   4.211  21.161  14.294
47589W        W11522  19.131  38.972  12.448
47590W        W11523  23.588   0.799  10.494
47591W        W11524  31.487   3.847   1.243
47592W        W11525  36.590   8.277   3.367
47593W        W11526  33.438  11.205  14.457
47594W        W11527  11.820  24.132  11.118
47595W        W11528   2.460  40.998  12.011
47596W        W11529  19.159  33.079   2.763
47597W        W11530   4.809  32.019   4.695
47598W        W11531   0.873  35.956   0.423
47599W        W11532  11.834  44.481  13.010
47600W        W11533  17.618   2.240  11.129
47601W        W11534  10.153  19.062  11.073
47602W        W11535  22.592   7.187   2.376
47603W        W11536  37.043  34.959  13.468
47604W        W11537  30.547  10.813  10.458
47605W        W11538  12.819  40.042   2.806
47606W        W11539   9.384  17.078   3.799
47607W        W11540  26.463  12.127  14.010
47608W        W11541  39.947  10.354  14.363
47609W        W11542   9.864  16.597  12.563
47610W        W11543  33.406  14.693   2.679
47611W        W11544  43.781  30.911  14.988
47612W        W11545  23.182   1.334   3.835
47613W        W11546  24.127  24.602  12.561
47614W        W11547  33.522   1.465  10.914
47615W        W11548  26.155  41.499  13.500
47616W        W11549  22.523  14.751   2.746
47617W        W11550   9.742  12.239  12.959
47618W        W11551   6.417  37.573  11.602
47619W        W11552  27.567  19.162  11.398
47620W        W11553  35.559  24.094   1.246
47621W        W11554  23.196  16.641   3.644
47622W        W11555   9.262  39.909  11.977
47623W        W11556  28.511  19.550   1.240
47624W        W11557  25.055  34.542  12.978
47625W        W11558  15.775  44.446   2.346
47626W        W11559  42.829  20.580   3.871
47627W        W11560  32.509   1.734   3.159
47628W        W11561  18.554  20.706  14.764
47629W        W11562   7.201  27.125  14.410
47630W        W11563  37.479  13.350   0.415
47631W        W11564  28.486   2.444  10.617
47632W        W11565  42.507  38.476   2.269
47633W        W11566  26.016  36.035  12.526
47634W        W11567  17.102  12.258  11.941
47635W        W11568  24.086  10.638  11.964
47636W        W11569  40.353   8.802  11.901
47637W        W11570   9.862  25.483  14.354
47638W        W11571   1.324  33.455  13.003
47639W        W11572  24.495  40.435   3.820
47640W        W11573  21.164   4.842   1.823
47641W        W11574  18.736  39.333  12.090
47642W        W11575  14.788   3.867  14.327
47643W        W11576  18.669  12.362  11.498
47644W        W11577  42.023  32.957  14.405
47645W        W11578  20.050  21.558  12.865
47646W        W11579  41.945   6.330  13.919
47647W        W11580  22.645  33.022   3.344
47648W        W11581  36.058   5.395  12.990
47649W        W11582  16.092  18.063   3.232
47650W        W11583   6.196  17.750  10.443
47651W        W11584  35.538  21.637   4.310
47652W        W11585  25.559  28.096  14.809
47653W        W11586  20.623   8.213  14.331
47654W        W11587  22.583  39.537  11.044
47655W        W11588  26.670  28.608  12.984
47656W        W11589  44.910  26.159  12.454
47657W        W11590  33.084   8.218  14.894
47658W        W11591   4.372   4.264   2.194
47659W        W11592  28.595   7.746  10.532
47660W        W11593  28.520  21.246  13.987
47661W        W11594  36.423  22.087  11.985
47662W        W11595   5.301  25.023   1.348
47663W        W11596   1.781  24.190  11.521
47664W        W11597   9.287   6.808   4.712
47665W        W11598   8.371  44.846   4.710
47666W        W11599  30.548  41.976   4.227
47667W        W11600  35.588  13.760   4.198
47668W        W11601  35.056  41.440  14.991
47669W        W11602  36.872  44.857   3.685
47670W        W11603  17.153  40.913  11.876
47671W        W11604  14.680  17.118  13.819
47672W        W11605  23.195  28.488   1.294
47673W        W11606  33.936  24.138  14.813
47674W        W11607   0.832  22.220   3.194
47675W        W11608  20.658  22.541   3.262
47676W        W11609  29.512  44.320   0.868
47677W        W11610   1.305  15.276  10.980
47678W        W11611  31.139   6.286   2.849
47679W        W11612  29.506  21.262   2.287
47680W        W11613  38.870  24.549  14.376
47681W        W11614  18.692   1.387   4.768
47682W        W11615  26.643  31.079  13.505
47683W        W11616  30.008  43.004  14.011
47684W        W11617  24.211  12.287   2.286
47685W        W11618   1.861   1.294   2.770
47686W        W11619  38.407  12.193  14.886
47687W        W11620  31.602   0.458  14.290
47688W        W11621  40.311   9.810  10.907
47689W        W11622  10.232  28.587  11.875
47690W        W11623  41.846  18.135  13.346
47691W        W11624   3.725  16.310  12.409
47692W        W11625  11.785  30.011  14.288
47693W        W11626  35.433  26.041  14.392
47694W        W11627  24.700  13.639  14.894
47695W        W11628   9.191  13.213  12.361
47696W        W11629  44.800  27.517  14.005
47697W        W11630   1.479   1.733  13.861
47698W        W11631  26.068  36.925   2.295
47699W        W11632  35.862  37.050  11.932
47700W        W11633  14.098  20.720  10.556
47701W        W11634  24.155  44.457   5.304
47702W        W11635  10.204  36.527  13.341
47703W        W11636  30.095  25.096   0.810
47704W        W11637  34.934  38.566  11.497
47705W        W11638  24.100  12.678   1.918
47706W        W11639  37.979  37.028  12.354
47707W        W11640  16.785  16.115   0.298
47708W        W11641  11.310  15.195   4.319
47709W        W11642  33.494  11.678  12.016
47710W        W11643  31.402  44.009   3.284
47711W        W11644  36.574  11.814   9.966
47712W        W11645  35.597  40.857   1.354
47713W        W11646  31.625   2.274   4.792
47714W        W11647  34.539  30.479  12.522
47715W        W11648  41.896   9.750  10.562
47716W        W11649  31.058  35.413  14.998
47717W        W11650  25.215  16.580  11.936
47718W        W11651   1.735  16.125   1.247
47719W        W11652  43.374   1.892  13.391
47720W        W11653  15.621  10.204  12.035
47721W        W11654  19.157  37.397  14.471
47722W        W11655  30.461   0.325  12.847
47723W        W11656  32.564  17.153   1.445
47724W        W11657   8.290  40.497   3.774
47725W        W11658  25.992  25.713  11.909
47726W        W11659  38.897  16.248   2.222
47727W        W11660  15.300  31.009   0.770
47728W        W11661  22.999  22.506   4.225
47729W        W11662  20.565  43.890  14.293
47730W        W11663  19.180  30.160   0.910
47731W        W11664  24.563  39.396  10.510
47732W        W11665  18.687   3.813   1.260
47733W        W11666   9.835   1.285  12.499
47734W        W11667  29.484   9.703   3.675
47735W        W11668  34.959   6.215  12.481
47736W        W11669   4.364  23.036   1.830
47737W        W11670   3.867   0.887   0.746
47738W        W11671  12.757  21.027   2.239
47739W        W11672  13.728  26.064  13.362
47740W        W11673  30.116  27.020   2.845
47741W        W11674   9.245   6.844  10.963
47742W        W11675  26.195  18.192  11.027
47743W        W11676  19.041   0.303   2.885
47744W        W11677  40.922  33.065   2.675
47745W        W11678  15.674   5.813   1.843
47746W        W11679  24.482  36.555  11.416
47747W        W11680   3.369   1.446   1.788
47748W        W11681  24.125  43.395  10.084
47749W        W11682   2.468  12.268  10.490
47750W        W11683   7.739   1.774  10.443
47751W        W11684  21.064  14.751   2.820
47752W        W11685   5.910  32.073   4.328
47753W        W11686  15.153  28.513   4.773
47754W        W11687  20.116  31.628   3.314
47755W        W11688  36.899  11.142   2.255
47756W        W11689  14.666   5.864   1.861
47757W        W11690  39.885  34.428   0.847
47758W        W11691  42.405  39.506  10.023
47759W        W11692   3.922  20.593  11.930
47760W        W11693  22.115  16.278  10.497
47761W        W11694  38.407  10.798  14.327
47762W        W11695  16.199  32.049   0.801
47763W        W11696  30.912  37.440  11.977
47764W        W11697  15.310  12.780  10.899
47765W        W11698  44.282   4.802   3.804
47766W        W11699  16.623  21.261   0.907
47767W        W11700  31.501  25.624   4.278
47768W        W11701  38.351  18.182  12.977
47769W        W11702  44.825  26.573   0.323
47770W        W11703  32.073   7.738  12.036
47771W        W11704  34.030  44.453  14.832
47772W        W11705  21.237  34.419   1.316
47773W        W11706   7.876  23.593   3.305
47774W        W11707  27.635  13.624   0.285
47775W        W11708  34.942  23.041  12.965
47776W        W11709  25.473  44.288  14.032
47777W        W11710  42.924   9.768  12.487
47778W        W11711  36.482  28.463   0.917
47779W        W11712  19.236  11.130   3.340
47780W        W11713  22.679   7.198  14.916
47781W        W11714  27.118   3.772   2.730
47782W        W11715  13.182  16.624   4.814
47783W        W11716  12.817  39.373   4.661
47784W        W11717  23.566  20.038   4.682
47785W        W11718  38.438  24.664  12.046
47786W        W11719  17.661  28.603  13.896
47787W        W11720  35.024  17.111   3.306
47788W        W11721  34.397   3.783  13.027
47789W        W11722  44.411   8.285   0.829
47790W        W11723  36.418  22.197  13.339
47791W        W11724   0.281  11.252   2.365
47792W        W11725  16.582  11.136  11.043
47793W        W11726  27.193  26.171  12.340
47794W        W11727  33.017  38.067  10.446
47795W        W11728  38.448  13.682  12.467
47796W        W11729   5.808  21.169   2.788
47797W        W11730  28.117  39.479  11.395
47798W        W11731  21.695  19.777   1.364
47799W        W11732  28.480  14.242  10.956
47800W        W11733   7.329  31.983   3.665
47801W        W11734  37.868  31.405  14.364
47802W        W11735  44.406  33.985  12.921
47803W        W11736  35.062  18.297   2.378
47804W        W11737  10.861  44.914  11.505
47805W        W11738  12.212  41.341  14.504
47806W        W11739  25.103  14.682   3.675
47807W        W11740  17.799   1.451  14.834
47808W        W11741  15.317  15.689   3.151
47809W        W11742  31.016  42.990   4.119
47810W        W11743  32.885  37.946   2.320
47811W        W11744  31.498   5.390   2.348
47812W        W11745  40.490  34.523   3.654
47813W        W11746   1.284   4.270   0.395
47814W        W11747  38.878   5.897   3.639
47815W        W11748   5.724  12.327   4.774
47816W        W11749  25.992  13.177  14.448
47817W        W11750  32.947   3.440   0.840
47818W        W11751  32.391  12.142  13.902
47819W        W11752  31.114  27.458  14.979
47820W        W11753  22.520   7.702   1.705
47821W        W11754  43.315  17.701  13.967
47822W        W11755  32.547  36.448   3.168
47823W        W11756  26.616  30.587  14.404
47824W        W11757  26.476  41.988   4.810
47825W        W11758  19.107  42.861  10.506
47826W        W11759  37.018  38.057   4.233
47827W        W11760  37.957  36.552  10.599
47828W        W11761  21.123  44.900  14.963
47829W        W11762  20.260  42.399   3.236
47830W        W11763  32.626  25.616   3.173
47831W        W11764  18.259   1.366  14.972
47832W        W11765  21.018   2.422   0.388
47833W        W11766   3.232  40.306  10.439
47834W        W11767   3.811   3.882   4.637
47835W        W11768  13.335  31.948  12.491
47836W        W11769  42.988   5.217  10.525
47837W        W11770   0.760  40.465   3.670
47838W        W11771  33.387  15.302   1.835
47839W        W11772   3.401   9.833   2.878
47840W        W11773  21.053  33.947   1.241
47841W        W11774  19.164  21.548   0.818
47842W        W11775  44.001  32.523  14.929
47843W        W11776  20.148  23.689  10.097
47844W        W11777  17.781  29.630  14.929
47845W        W11778  20.583  23.231  10.953
47846W        W11779  44.484   2.840   2.344
47847W        W11780  14.736  19.165   3.339
47848W        W11781  31.978  41.973  13.053
47849W        W11782  17.733  26.053  11.544
47850W        W11783  36.496  25.710  13.523
47851W        W11784  34.543   9.349   3.340
47852W        W11785  29.995  16.756  12.972
47853W        W11786  27.180  10.235  10.451
47854W        W11787  31.582  22.082   3.381
47855W        W11788  40.828  30.138   2.367
47856W        W11789  17.690  33.577  10.499
47857W        W11790  15.103  23.007   0.852
47858W        W11791  22.198  29.092   9.975
47859W        W11792   2.354  38.351  10.520
47860W        W11793  11.331   5.839  10.451
47861W        W11794  21.152  13.164   1.231
47862W        W11795  23.239   9.698  13.020
47863W        W11796  42.322  31.622  11.388
47864W        W11797  38.447   0.844  12.433
47865W        W11798  12.787   7.752   5.188
47866W        W11799  44.339  35.467   1.802
47867W        W11800  44.276  42.988   0.426
47868W        W11801  26.634   4.289   4.715
47869W        W11802  12.135   2.839  13.428
47870W        W11803  34.885  20.751   0.915
47871W        W11804  22.037  28.596   5.150
47872W        W11805  39.852  28.437   1.812
47873W        W11806   4.805   8.781  11.038
47874W        W11807   1.826   2.888   4.718
47875W        W11808   9.332  23.534   3.749
47876W        W11809  32.415  15.124   1.702
47877W        W11810  10.368  26.055   3.678
47878W        W11811  28.023   7.717  13.034
47879W        W11812  29.108  18.661  14.306
47880W        W11813  37.464  32.995  11.458
47881W        W11814  20.743   8.378  10.532
47882W        W11815   1.399  39.918  12.556
47883W        W11816  22.519   4.905   0.308
47884W        W11817  38.938  27.515   1.324
47885W        W11818  40.033   3.442   4.149
47886W        W11819  32.025  41.526   2.846
47887W        W11820  31.975  40.975  12.572
47888W        W11821  42.909   0.975  14.486
47889W        W11822   5.210  19.170  14.869
47890W        W11823  35.097  36.029   1.228
47891W        W11824   1.385  20.114   1.695
47892W        W11825  28.127   4.300  11.934
47893W        W11826  33.905   4.213   4.342
47894W        W11827  21.175  31.405   3.688
47895W        W11828  24.121  36.393   4.624
47896W        W11829  43.010   7.225   1.301
47897W        W11830  33.061   8.886  12.056
47898W        W11831  10.864  17.291   2.759
47899W        W11832   8.297  32.498   3.305
47900W        W11833  37.867  11.722   4.318
47901W        W11834  34.023  14.630   0.777
47902W        W11835  16.803  29.465   3.384
47903W        W11836  33.412  14.792  12.018
47904W        W11837  33.944  31.072   3.690
47905W        W11838   3.386  36.588   1.363
47906W        W11839  22.742   9.860   3.815
47907W        W11840  44.987  24.184  13.372
47908W        W11841  31.541   2.865   2.270
47909W        W11842  32.938  10.224   3.825
47910W        W11843  39.338  33.451   4.712
47911W        W11844  17.187  26.576   0.845
47912W        W11845   4.755  38.545  12.563
47913W        W11846  17.684  28.177  14.772
47914W        W11847  21.080  17.101   1.357
47915W        W11848  19.215  44.335   2.828
47916W        W11849   0.262  31.111  14.496
47917W        W11850  10.149  35.515   1.718
47918W        W11851  33.552  42.931   1.393
47919W        W11852  16.202   9.289   2.876
47920W        W11853  25.156  22.178   0.754
47921W        W11854   9.718   3.459   2.225
47922W        W11855  34.401  42.883   2.708
47923W        W11856  24.045  33.518   5.134
47924W        W11857   8.886   4.355   4.635
47925W        W11858  26.646  16.726  10.995
47926W        W11859  29.176  24.143  11.006
47927W        W11860  28.537  16.780  11.925
47928W        W11861  26.574   1.824  14.375
47929W        W11862   5.768  43.004   2.843
47930W        W11863  10.663  16.792   2.318
47931W        W11864  27.176  38.366   1.856
47932W        W11865   3.933  16.660  14.768
47933W        W11866  28.965  42.364  10.953
47934W        W11867  32.986  32.039   0.890
47935W        W11868  15.706   7.380   3.183
47936W        W11869  16.570  33.579  11.077
47937W        W11870   6.774  30.439  14.900
47938W        W11871  41.028  13.774   1.392
47939W        W11872  11.268  37.887  13.859
47940W        W11873  26.703  34.606   1.373
47941W        W11874  20.085   0.449  12.357
47942W        W11875   8.721  37.011  12.390
47943W        W11876  41.514  37.019   2.701
47944W        W11877  38.953  36.910  12.853
47945W        W11878  41.995  29.491   1.417
47946W        W11879  22.156   4.340  11.990
47947W        W11880  18.710  21.217   1.702
47948W        W11881   6.422  12.796  10.443
47949W        W11882  16.283   2.727  11.433
47950W        W11883  34.418  40.542   0.463
47951W        W11884  31.600  25.601  11.436
47952W        W11885  14.620  17.726  11.591
47953W        W11886  29.938  12.781  10.986
47954W        W11887  34.378  42.868   0.952
47955W        W11888   8.829   7.230  11.101
47956W        W11889  29.114  36.043  12.013
47957W        W11890   3.246  35.863  10.144
47958W        W11891   5.279  22.113  14.956
47959W        W11892  25.032  22.698   2.238
47960W        W11893  17.641  39.550  12.022
47961W        W11894  30.517  31.111  14.383
47962W        W11895  33.612  37.459  14.798
47963W        W11896  13.237  11.183  11.598
47964W        W11897   8.829  39.930  12.880
47965W        W11898  20.222  37.565   9.658
47966W        W11899  32.930   2.760  11.506
47967W        W11900   9.859   5.277  11.549
47968W        W11901  27.652  24.573  14.831
47969W        W11902   4.703  19.703  10.498
47970W        W11903  41.984  25.111   5.172
47971W        W11904  15.205  34.094   2.236
47972W        W11905   2.877   1.291  10.462
47973W        W11906  41.360  25.128  13.853
47974W        W11907   4.859   0.352   0.338
47975W        W11908  40.392   2.746   4.816
47976W        W11909   9.755   4.821  14.398
47977W        W11910  28.988  14.677   0.893
47978W        W11911  10.829  28.184  11.519
47979W        W11912  14.748  38.017  13.365
47980W        W11913  23.576  20.652  10.900
47981W        W11914  22.643  23.646  13.963
47982W        W11915  41.840  42.802   3.708
47983W        W11916  17.716   1.850  10.939
47984W        W11917   7.381  10.843   1.402
47985W        W11918   5.818  12.797   0.464
47986W        W11919   0.293  43.011   2.881
47987W        W11920  41.510  27.087   0.314
47988W        W11921  40.830  32.546  12.364
47989W        W11922  23.175  22.699  12.837
47990W        W11923  41.940  33.988  13.832
47991W        W11924  27.143  27.611  10.919
47992W        W11925   6.901  32.547   0.949
47993W        W11926  10.296  41.322   4.817
47994W        W11927  21.172  34.931   0.367
47995W        W11928  10.345  20.098  11.476
47996W        W11929  31.116   2.266   0.861
47997W        W11930  23.180  43.874   0.807
47998W        W11931  15.298  30.429   1.292
47999W        W11932  21.614  35.422   1.764
48000W        W11933  43.845  13.629   3.168
48001W        W11934  10.820  38.031  11.907
48002W        W11935  10.179  23.208   0.935
48003W        W11936  16.713  43.799  13.851
48004W        W11937  38.866   5.730   4.718
48005W        W11938   9.827  10.207   3.282
48006W        W11939  30.560   4.832  12.422
48007W        W11940  31.968  34.533  11.462
48008W        W11941  40.928   8.200   1.266
48009W        W11942  26.534  11.240   5.312
48010W        W11943  23.538  34.980  14.373
48011W        W11944   2.788  16.612  12.909
48012W        W11945  16.809  19.140   2.880
48013W        W11946  29.067  22.135  11.108
48014W        W11947  34.431  11.657  11.473
48015W        W11948  28.528  43.830  14.374
48016W        W11949   2.270  43.799  11.505
48017W        W11950  17.147  21.223  10.519
48018W        W11951  10.641   4.809  11.073
48019W        W11952  22.604  44.368   1.857
48020W        W11953  29.576  20.144  12.912
48021W        W11954  17.101  25.032   3.340
48022W        W11955  29.064   1.279   3.837
48023W        W11956  21.203  24.651  11.607
48024W        W11957  44.982  42.321  13.307
48025W        W11958   2.828  21.194  12.435
48026W        W11959  22.129   6.384  14.801
48027W        W11960  42.463  40.928  12.033
48028W        W11961  41.318  20.197  13.475
48029W        W11962  30.000   0.954  11.952
48030W        W11963  36.489  39.558  12.474
48031W        W11964  17.747   7.784   0.396
48032W        W11965  30.006  23.616  12.432
48033W        W11966  15.649  36.023  12.826
48034W        W11967  10.149  39.815  14.956
48035W        W11968  14.628  33.607  12.437
48036W        W11969  42.816  38.854  12.513
48037W        W11970  13.792  43.008  14.869
48038W        W11971  13.666   5.204  12.574
48039W        W11972  40.452  37.428   1.433
48040W        W11973  32.001  33.034   3.782
48041W        W11974   2.408  31.077  12.831
48042W        W11975  31.042  19.638   0.880
48043W        W11976  29.104  21.677  14.278
48044W        W11977  29.474  29.069   1.330
48045W        W11978   5.885   9.323  11.033
48046W        W11979   8.853  18.292   3.309
48047W        W11980  20.065   8.880  12.530
48048W        W11981  44.922  40.452   0.325
48049W        W11982   3.223  39.423   3.213
48050W        W11983  33.395  18.744  14.307
48051W        W11984  17.164  22.061   3.379
48052W        W11985   8.228   4.736  12.565
48053W        W11986  12.173  38.452   0.893
48054W        W11987  23.007  44.764   2.892
48055W        W11988  44.772  39.015   2.299
48056W        W11989  30.909  37.413   2.776
48057W        W11990  20.522  23.507  13.412
48058W        W11991  29.625   4.450  10.594
48059W        W11992   7.215   0.763  13.401
48060W        W11993  36.458  39.016   1.807
48061W        W11994  34.425  10.699   0.325
48062W        W11995  10.243  37.004   4.633
48063W        W11996   4.238  14.199   3.787
48064W        W11997  13.665   6.816   2.265
48065W        W11998  16.655  43.392   3.706
48066W        W11999  42.311  41.898   0.369
48067W        W12000  29.590  16.608  11.435
48068W        W12001  17.230  11.681  10.051
48069W        W12002   3.367  24.711  13.332
48070W        W12003  14.185   0.412   0.460
48071W        W12004  15.658   6.788   2.844
48072W        W12005  25.994  19.667   0.418
48073W        W12006  43.443  28.076  10.572
48074W        W12007   5.802  35.000  13.404
48075W        W12008  33.483  33.895   4.618
48076W        W12009   0.972   5.871  12.896
48077W        W12010  39.363  41.340  10.611
48078W        W12011  36.362  23.618   0.468
48079W        W12012   7.275  34.432  12.361
48080W        W12013  36.851  41.328  10.446
48081W        W12014  39.045  11.757  11.453
48082W        W12015  25.092   5.697   0.732
48083W        W12016  33.422  40.029   0.274
48084W        W12017  17.285  27.194   2.278
48085W        W12018  38.376  38.877  14.996
48086W        W12019   4.876   2.786   3.644
48087W        W12020   3.283  30.049  13.340
48088W        W12021  37.348  42.482  14.946
48089W        W12022  23.004  24.973   0.448
48090W        W12023  17.245  29.460  12.861
48091W        W12024  10.785  33.065  13.348
48092W        W12025  22.638  35.037  11.605
48093W        W12026  12.187   4.308  14.879
48094W        W12027  17.593  10.140   3.199
48095W        W12028  22.153  20.262   2.418
48096W        W12029   2.962  10.726   3.732
48097W        W12030   9.804   8.339   2.682
48098W        W12031  18.703  17.780   0.956
48099W        W12032  20.766   2.735   1.695
48100W        W12033  11.712  24.214   3.634
48101W        W12034  40.920  27.647   1.935
48102W        W12035   8.865  13.831  11.410
48103W        W12036  34.921  31.135   1.707
48104W        W12037  23.579  29.582  13.389
48105W        W12038  15.093   9.723  10.471
48106W        W12039  39.975  36.407  11.397
48107W        W12040  37.397  30.544   2.693
48108W        W12041  42.807  27.449  10.970
48109W        W12042  14.148   8.861  11.922
48110W        W12043  41.471  16.189  14.008
48111W        W12044  17.083  20.568   4.730
48112W        W12045  13.221   5.276  14.508
48113W        W12046   7.712  18.199   5.222
48114W        W12047  32.115  38.938  13.027
48115W        W12048  27.451  29.547   4.779
48116W        W12049  19.212  29.964  13.330
48117W        W12050  22.165  25.173   4.701
48118W        W12051  42.444   9.746  12.480
48119W        W12052   7.295  32.458   4.796
48120W        W12053  26.160  31.138  14.514
48121W        W12054  13.704   6.200  14.295
48122W        W12055  41.942  23.203  10.412
48123W        W12056  39.029  32.037   3.205
48124W        W12057  17.791  28.932   4.175
48125W        W12058  22.060  13.749  12.049
48126W        W12059  12.354  37.047   3.247
48127W        W12060  27.636  43.346  12.492
48128W        W12061  20.193  27.180  11.899
48129W        W12062   6.790  10.158   1.315
48130W        W12063   5.423  31.638  12.960
48131W        W12064  14.116  14.712   4.725
48132W        W12065  10.873  39.813   3.266
48133W        W12066  28.036  44.879   3.375
48134W        W12067  34.100  41.334   4.820
48135W        W12068  23.720   5.262   0.307
48136W        W12069  24.993   8.229  10.919
48137W        W12070  43.964  38.034   0.930
48138W        W12071  13.756  31.124  12.483
48139W        W12072  22.027  41.024  12.841
48140W        W12073  14.675   0.821   1.846
48141W        W12074   7.281  29.021  14.305
48142W        W12075  16.735  25.021  13.035
48143W        W12076   7.271  13.663   0.253
48144W        W12077  13.830  28.535   2.787
48145W        W12078  31.491  40.460   4.265
48146W        W12079  33.904   1.928  12.955
48147W        W12080  27.131  22.668  11.385
48148W        W12081  18.603  25.035  13.942
48149W        W12082  27.561  14.197  14.808
48150W        W12083   3.352  15.140   5.200
48151W        W12084  11.254  16.301  14.928
48152W        W12085  10.218  24.638  12.535
48153W        W12086  35.442  34.495  10.562
48154W        W12087  25.119  35.599   3.155
48155W        W12088  14.225  16.074  14.863
48156W        W12089   7.854  35.884   0.797
48157W        W12090  25.145   5.690   3.695
48158W        W12091  42.473  32.011  11.550
48159W        W12092  16.203  15.824   3.188
48160W        W12093  39.922   4.415   2.742
48161W        W12094   0.372  42.310   1.263
48162W        W12095  12.157  19.269  13.875
48163W        W12096  34.531  22.088   2.894
48164W        W12097  39.898   6.758  11.606
48165W        W12098  42.446   4.894   2.223
48166W        W12099  31.541  23.995  11.570
48167W        W12100  15.806  18.223   1.318
48168W        W12101  17.241   7.772   0.778
48169W        W12102  43.444  18.215  11.517
48170W        W12103  44.000   1.738   3.244
48171W        W12104   6.357   3.797   3.748
48172W        W12105   4.880  44.302  12.070
48173W        W12106  19.065  10.363  12.861
48174W        W12107  44.998  25.063  12.476
48175W        W12108  33.513  27.998  10.449
48176W        W12109  42.921  16.263  11.949
48177W        W12110   9.379  35.543  13.484
48178W        W12111   2.872  12.812  12.894
48179W        W12112  23.561  33.094   4.340
48180W        W12113  25.704  37.074   0.333
48181W        W12114  21.611  15.173   2.747
48182W        W12115  43.945  29.468   2.900
48183W        W12116  38.407  20.158   2.700
48184W        W12117   2.883  22.697  13.800
48185W        W12118  38.510  35.388  12.349
48186W        W12119  24.542  37.378   2.311
48187W        W12120   5.386  35.096  10.616
48188W        W12121  10.710  39.897  13.448
48189W        W12122  20.548  10.808  14.366
48190W        W12123  34.529  38.346  13.815
48191W        W12124   1.260  17.647  11.886
48192W        W12125  36.002  18.232  12.397
48193W        W12126  21.059   4.235   4.286
48194W        W12127  36.385  23.652  10.913
48195W        W12128   3.377  40.512  14.991
48196W        W12129  39.335   8.659   1.440
48197W        W12130  40.326  41.411  10.639
48198W        W12131  26.538  32.438   1.412
48199W        W12132  21.553   7.902   0.412
48200W        W12133  28.164  30.020   3.694
48201W        W12134  38.546   3.918  12.375
48202W        W12135   3.880  39.918  13.911
48203W        W12136  38.830  44.783  14.886
48204W        W12137  38.356  11.816  13.415
48205W        W12138  35.884  23.604   1.240
48206W        W12139  22.131  18.670   4.836
48207W        W12140  11.801  18.699   4.316
48208W        W12141  43.361  33.403   3.306
48209W        W12142  10.785   8.808  10.472
48210W        W12143  39.809  34.380  11.530
48211W        W12144  22.070  39.508  11.493
48212W        W12145  17.161  44.486   1.332
48213W        W12146  30.620   6.186  12.383
48214W        W12147   4.814  37.560  12.834
48215W        W12148  25.001  13.284   3.743
48216W        W12149  16.230  43.333   0.440
48217W        W12150  39.536   1.301  10.899
48218W        W12151  19.618   6.256   1.436
48219W        W12152  17.776  27.656   3.636
48220W        W12153  34.396  23.574  14.406
48221W        W12154  38.959  41.873   5.164
48222W        W12155  40.865  43.869   0.245
48223W        W12156  18.558  42.403   3.850
48224W        W12157  20.110  42.395  12.429
48225W        W12158  13.133  24.168  10.636
48226W        W12159  13.711  36.566  14.006
48227W        W12160  37.077  13.336   3.316
48228W        W12161  39.322   0.413   3.679
48229W        W12162  11.746  31.987  14.971
48230W        W12163   0.919  44.801  13.003
48231W        W12164  33.068   3.243   0.350
48232W        W12165   7.291  42.963   1.859
48233W        W12166  35.924  16.649  14.330
48234W        W12167  34.091  25.111  14.857
48235W        W12168  15.283   4.342   3.676
48236W        W12169  26.462   4.919  11.863
48237W        W12170  42.927  39.006  13.548
48238W        W12171  12.647  19.775   1.727
48239W        W12172   5.931  42.453   4.786
48240W        W12173  15.610  32.075   4.265
48241W        W12174  27.962  19.092  14.472
48242W        W12175  17.573  41.510   4.795
48243W        W12176  25.974   8.885   2.817
48244W        W12177  21.141   9.223   2.662
48245W        W12178   0.883  20.052   2.191
48246W        W12179   7.324  30.105   4.217
48247W        W12180  44.307  36.484  13.947
48248W        W12181   9.784  32.097  12.459
48249W        W12182  12.153  13.320  14.290
48250W        W12183  23.510  12.116   4.290
48251W        W12184   9.772  36.461   2.705
48252W        W12185  13.784  23.613   4.272
48253W        W12186  11.344  26.585   4.824
48254W        W12187   7.323  29.118   1.322
48255W        W12188  38.921  40.377  14.325
48256W        W12189  40.371  44.006   2.339
48257W        W12190  29.014  42.843   2.762
48258W        W12191  35.081   0.839   1.327
48259W        W12192   9.235   7.248  13.866
48260W        W12193  38.980  43.335   3.193
48261W        W12194   8.311  15.812  13.448
48262W        W12195  37.886   7.174   4.291
48263W        W12196   9.723  33.995   4.606
48264W        W12197   6.362  42.411   4.121
48265W        W12198  33.102  35.462  14.944
48266W        W12199  22.060  37.491   2.221
48267W        W12200  22.105  39.403   1.762
48268W        W12201  11.151  31.532   2.314
48269W        W12202  16.216  19.568   5.586
48270W        W12203  15.137  39.968   3.751
48271W        W12204  23.094   2.946   4.791
48272W        W12205   0.393   1.845  14.885
48273W        W12206   2.249  42.498  14.455
48274W        W12207  26.963   6.789   0.367
48275W        W12208  25.559  10.874   2.897
48276W        W12209   2.263   1.241  13.840
48277W        W12210   3.718  34.575   2.417
48278W        W12211  10.802   0.265  11.583
48279W        W12212  25.100  16.614  11.090
48280W        W12213   4.258  35.902  11.857
48281W        W12214  23.656  32.619   4.730
48282W        W12215  25.657  27.686   0.465
48283W        W12216  28.154  12.654  10.915
48284W        W12217  28.976  41.428   1.766
48285W        W12218   6.285  37.572   1.776
48286W        W12219  38.953  17.278  13.029
48287W        W12220  32.041  12.613   3.346
48288W        W12221  40.928  26.061  10.420
48289W        W12222  44.408  26.102  13.449
48290W        W12223  39.411  35.052  11.935
48291W        W12224  43.765  34.925   2.234
48292W        W12225  43.471   9.161  10.626
48293W        W12226   8.659  39.923  13.835
48294W        W12227  40.547  17.753   1.811
48295W        W12228  25.204   1.960   2.287
48296W        W12229  39.855  38.854  11.864
48297W        W12230  31.955  41.515   3.636
48298W        W12231   0.486  12.352  12.036
48299W        W12232  32.075  26.544  10.529
48300W        W12233  14.104  37.468  14.338
48301W        W12234  25.627  10.656  14.842
48302W        W12235  10.146  24.488   4.224
48303W        W12236  29.508  22.580  13.507
48304W        W12237   2.825  19.179  12.849
48305W        W12238  16.193  31.021   1.871
48306W        W12239  35.581  42.957  12.481
48307W        W12240  11.270  23.078  11.403
48308W        W12241   3.428  33.909   1.697
48309W        W12242  19.063  34.600   3.869
48310W        W12243  17.564  36.388   2.398
48311W        W12244   5.880  26.000   0.398
48312W        W12245  17.175  39.503  14.001
48313W        W12246  36.484  30.517   4.281
48314W        W12247  42.863   3.933   2.284
48315W        W12248  34.985  27.628  13.851
48316W        W12249  21.516  36.425  13.847
48317W        W12250  21.211   0.295  12.021
48318W        W12251  10.768  26.526  14.948
48319W        W12252  28.091  20.241  12.851
48320W        W12253  19.065   8.213   1.343
48321W        W12254   9.383  11.820   2.209
48322W        W12255   7.205  12.722   4.323
48323W        W12256  27.092  22.622   4.262
48324W        W12257  26.172  35.040   3.148
48325W        W12258  27.112  36.093   5.304
48326W        W12259  31.531  31.591   1.874
48327W        W12260   1.362  42.009   2.839
48328W        W12261  40.875  43.015   4.223
48329W        W12262  29.596   6.315  14.969
48330W        W12263  35.480  23.208   2.338
48331W        W12264  27.582  18.204  12.507
48332W        W12265  21.089   8.233   3.384
48333W        W12266   9.737  32.608   3.682
48334W        W12267  22.033   6.774  14.318
48335W        W12268  35.949  16.579   1.897
48336W        W12269  31.620  31.958  11.570
48337W        W12270  32.063  34.539   3.842
48338W        W12271  10.718  13.711  14.963
48339W        W12272  37.033  39.494  14.908
48340W        W12273  26.653  42.519  12.534
48341W        W12274  36.452  44.865   1.713
48342W        W12275  33.386   7.710  14.796
48343W        W12276  34.012  37.001  14.998
48344W        W12277   0.839   4.334   1.326
48345W        W12278   7.844  18.161  11.888
48346W        W12279  32.457  15.186  14.834
48347W        W12280  19.672  22.180   3.742
48348W        W12281  40.455  37.581  12.419
48349W        W12282  21.167  39.394   4.351
48350W        W12283   4.895  42.943   3.762
48351W        W12284  42.962  44.503   1.769
48352W        W12285   5.925  27.060   3.782
48353W        W12286  11.806  15.123  14.376
48354W        W12287   3.763  36.471  13.928
48355W        W12288   4.397   7.248   0.829
48356W        W12289   6.388  17.096   2.781
48357W        W12290  18.666   9.651   4.824
48358W        W12291  39.478   3.435  12.844
48359W        W12292  14.713   6.862  12.528
48360W        W12293  28.547  43.493  10.552
48361W        W12294  12.817  35.468  10.424
48362W        W12295  44.330  24.581  12.350
48363W        W12296   4.344  15.192   2.901
48364W        W12297   7.334  12.136  11.890
48365W        W12298   1.399  29.641  14.775
48366W        W12299  15.228   9.384   2.852
48367W        W12300  25.598   1.770  10.912
48368W        W12301   9.717   2.396  10.973
48369W        W12302  28.962  39.811   3.353
48370W        W12303  33.498  36.003  11.429
48371W        W12304  33.971   7.672   2.348
48372W        W12305   0.979  42.875  12.904
48373W        W12306  25.474  29.953  11.601
48374W        W12307   5.281  36.851   2.777
48375W        W12308   4.722  13.755  11.376
48376W        W12309  32.518  42.803  12.038
48377W        W12310  30.474  22.052  14.841
48378W        W12311  39.038  35.041   4.765
48379W        W12312  22.725   4.270  10.493
48380W        W12313  10.181  39.521  13.858
48381W        W12314  44.917   2.282   0.415
48382W        W12315  39.982  17.292  14.778
48383W        W12316  14.160   2.850   1.872
48384W        W12317  36.509   7.361   3.854
48385W        W12318  37.040   5.862  12.092
48386W        W12319  20.238  16.793  12.911
48387W        W12320  31.065  33.600  10.116
48388W        W12321  28.092  27.142  10.891
48389W        W12322  19.717  27.953   4.201
48390W        W12323  32.041   1.839  10.063
48391W        W12324  31.058  24.688   0.405
48392W        W12325  26.629   0.784  10.585
48393W        W12326  11.245  25.487   1.914
48394W        W12327  21.634  24.117   1.896
48395W        W12328  32.563  37.386  12.096
48396W        W12329  36.505  26.953  10.887
48397W        W12330   0.949   1.394   4.717
48398W        W12331   5.785  32.613  10.448
48399W        W12332   8.689  23.200   4.816
48400W        W12333  13.170  24.616   3.692
48401W        W12334   2.365  15.599   0.437
48402W        W12335  42.359   7.374   4.252
48403W        W12336  28.486  41.865   1.348
48404W        W12337  43.456  34.046   2.788
48405W        W12338  42.954  25.552  14.996
48406W        W12339   1.402  43.015   3.333
48407W        W12340  12.732  26.093  12.501
48408W        W12341  25.609  40.518  14.868
48409W        W12342  11.150  36.860   3.741
48410W        W12343  12.171   8.227  14.296
48411W        W12344  41.921  42.996   0.933
48412W        W12345  13.703  23.008   2.674
48413W        W12346   8.870  32.577  12.395
48414W        W12347  16.254  13.126  14.008
48415W        W12348   6.280  33.412   1.425
48416W        W12349  18.718  35.100  12.494
48417W        W12350  16.206  13.302  11.889
48418W        W12351   0.447  23.566  11.506
48419W        W12352   3.274  13.143   3.352
48420W        W12353  31.615  11.340   0.775
48421W        W12354  10.714  11.340  10.536
48422W        W12355   9.205  21.254   1.740
48423W        W12356  30.158   4.702   4.166
48424W        W12357  23.238  40.998   2.717
48425W        W12358  41.293   2.444  12.479
48426W        W12359  42.833  41.872  13.812
48427W        W12360  34.412  27.141   4.640
48428W        W12361  17.237   9.170   3.214
48429W        W12362   4.939  43.864  12.409
48430W        W12363  31.491  36.984  13.964
48431W        W12364  17.104  21.580   2.274
48432W        W12365   0.973  17.589  10.576
48433W        W12366  26.520  30.481  10.944
48434W        W12367  35.108  23.234  13.844
48435W        W12368   6.707  19.194  14.456
48436W        W12369  41.321  16.128  14.438
48437W        W12370   6.694  24.674   0.430
48438W        W12371   3.809  14.159  14.821
48439W        W12372  30.533  22.617  14.875
48440W        W12373  14.219   2.747  12.834
48441W        W12374  12.806   7.803   0.248
48442W        W12375  38.830  31.462  13.533
48443W        W12376  35.981   0.481   3.309
48444W        W12377  28.643  11.252  12.577
48445W        W12378  21.583  28.645  13.487
48446W        W12379  39.380  14.142   3.164
48447W        W12380  16.110  28.550   0.342
48448W        W12381  42.883  23.113  11.009
48449W        W12382   5.309  35.931   4.626
48450W        W12383  20.190  15.295   4.693
48451W        W12384  19.192  24.701   1.834
48452W        W12385  12.314  41.357   0.335
48453W        W12386  19.068  33.505   2.690
48454W        W12387  32.583  18.662   4.716
48455W        W12388  27.086  26.154  11.954
48456W        W12389  14.830  31.529  14.293
48457W        W12390   3.738  39.858   2.842
48458W        W12391  28.102  21.020   4.250
48459W        W12392   0.745  18.070   3.252
48460W        W12393  33.382  13.680   4.618
48461W        W12394  21.225   9.879   0.378
48462W        W12395  30.544  18.079   1.779
48463W        W12396   7.699  24.069   1.447
48464W        W12397  13.651  17.795  12.981
48465W        W12398  30.633   1.418   1.284
48466W        W12399  43.503   4.210  10.500
48467W        W12400  41.538  19.203   0.324
48468W        W12401  12.733  13.718   1.418
48469W        W12402  19.750  17.238  14.322
48470W        W12403  30.162  38.057   0.817
48471W        W12404  37.863  43.871   2.201
48472W        W12405  40.534  37.548   0.376
48473W        W12406   8.812   0.394   4.141
48474W        W12407  40.371   2.754   1.317
48475W        W12408  10.736   2.771   4.143
48476W        W12409  16.700  35.889   1.863
48477W        W12410  22.595  18.130   2.837
48478W        W12411  24.616  17.085   0.791
48479W        W12412  37.885  15.625  12.572
48480W        W12413   3.794  27.612  13.504
48481W        W12414  25.672  28.489  14.469
48482W        W12415   1.457  31.139   4.168
48483W        W12416  33.105  19.276   4.294
48484W        W12417  37.867   5.416  10.531
48485W        W12418  38.068  23.500  14.465
48486W        W12419  27.091  39.382  13.907
48487W        W12420  36.502  37.939  10.945
48488W        W12421  25.591  28.593   3.385
48489W        W12422  15.617  13.303   2.685
48490W        W12423  25.078  40.956  13.346
48491W        W12424   6.783   5.253  11.396
48492W        W12425  32.991   7.849   1.354
48493W        W12426  41.872   4.292   1.833
48494W        W12427  31.119  25.480   2.798
48495W        W12428  38.899   6.916   3.719
48496W        W12429  25.655  33.429  13.866
48497W        W12430   2.880  20.599   3.170
48498W        W12431  31.943  13.276   1.928
48499W        W12432  11.269  20.649   4.823
48500W        W12433   0.396  19.738   2.286
48501W        W12434  12.186   8.350  12.893
48502W        W12435  28.544  37.576   2.237
48503W        W12436  15.795  16.206  12.906
48504W        W12437   4.398   7.253  12.375
48505W        W12438  25.121  28.044  13.520
48506W        W12439  28.061   9.257  11.431
48507W        W12440  41.814  40.440  12.386
48508W        W12441   7.846   8.705   0.332
48509W        W12442   1.756  10.261   3.354
48510W        W12443  38.325  38.863  14.463
48511W        W12444  24.096  28.490  14.486
48512W        W12445  28.636  37.362  11.505
48513W        W12446  31.539  14.181   4.780
48514W        W12447  18.673  37.967  12.540
48515W        W12448   0.392  29.658  10.473
48516W        W12449  37.441  35.374   3.156
48517W        W12450   4.767   6.853   1.253
48518W        W12451  32.436  21.025   0.931
48519W        W12452  21.523   6.867  10.404
48520W        W12453  19.192  37.906  10.531
48521W        W12454   2.422  14.809   0.394
48522W        W12455  25.169  41.344   1.257
48523W        W12456  17.667  44.929  11.096
48524W        W12457  16.313  43.004   2.257
48525W        W12458   3.794  40.036  12.013
48526W        W12459  14.147  24.486  14.312
48527W        W12460  25.130  35.029  12.987
48528W        W12461  40.387  22.114  12.060
48529W        W12462  32.633  37.393  13.999
48530W        W12463  44.824   1.439  12.050
48531W        W12464  22.107  43.901   1.741
48532W        W12465  38.992   3.414   3.855
48533W        W12466  37.442  30.658   1.754
48534W        W12467  36.084  37.573  13.492
48535W        W12468  11.678  43.952  14.833
48536W        W12469  11.660  35.920   3.370
48537W        W12470  10.252  16.176  14.371
48538W        W12471  11.252  17.718  14.472
48539W        W12472  40.885   6.288  11.078
48540W        W12473  21.125  34.869   1.707
48541W        W12474  14.095  41.889  14.298
48542W        W12475  43.964  25.616  14.828
48543W        W12476  20.724   2.306   4.345
48544W        W12477  12.707   1.346   4.640
48545W        W12478   5.792  18.093   4.208
48546W        W12479  35.560   6.427  13.814
48547W        W12480  21.704  23.113  13.029
48548W        W12481  21.513  32.580  11.516
48549W        W12482  39.829  18.766   3.317
48550W        W12483  27.995  13.182   2.388
48551W        W12484  35.526  13.824  12.550
48552W        W12485  13.178   1.811   4.204
48553W        W12486  32.989  24.200  13.946
48554W        W12487  39.475  42.815  14.326
48555W        W12488   0.919  22.629  11.088
48556W        W12489   6.253  27.943   2.787
48557W        W12490  21.590  29.022  13.968
48558W        W12491  34.571  25.548   0.266
48559W        W12492  24.002  29.634   2.394
48560W        W12493   2.247  14.634   4.837
48561W        W12494   7.906  42.803  14.383
48562W        W12495  42.818  36.408   5.238
48563W        W12496   6.321   3.822   1.709
48564W        W12497   4.304  34.606  11.881
48565W        W12498  30.512  13.744  11.959
48566W        W12499  43.964  43.790  14.292
48567W        W12500  32.122  22.051   4.316
48568W        W12501  17.208   2.857  13.451
48569W        W12502  27.984   9.163  13.845
48570W        W12503  27.196  42.305   2.790
48571W        W12504  17.733   6.258  12.906
48572W        W12505  19.267  29.156  12.386
48573W        W12506   0.347   8.178  11.937
48574W        W12507  24.574  10.222  14.016
48575W        W12508   4.911  13.352  12.506
48576W        W12509  21.216   2.813  14.452
48577W        W12510  29.667  37.352  14.810
48578W        W12511  13.313  29.055   3.800
48579W        W12512  23.676  23.107  13.804
48580W        W12513  24.686  12.840  11.025
48581W        W12514  39.983  23.237  13.412
48582W        W12515  43.356  29.597   4.165
48583W        W12516  12.684  11.660   3.781
48584W        W12517  32.048  41.929  13.799
48585W        W12518  18.735  39.409   5.234
48586W        W12519  14.719  38.519   4.206
48587W        W12520  36.489  30.518  13.438
48588W        W12521   6.404  27.062  10.121
48589W        W12522  35.373  21.591  12.414
48590W        W12523  39.916  18.204  13.462
48591W        W12524  23.082  16.199  10.562
48592W        W12525  41.939  10.367   1.261
48593W        W12526  42.784  38.534   3.770
48594W        W12527  24.221  14.162  12.515
48595W        W12528  35.399   1.889   0.443
48596W        W12529  22.083  28.093   1.821
48597W        W12530   4.699  38.523   4.832
48598W        W12531   2.464  31.608  10.593
48599W        W12532   2.355   3.245  10.102
48600W        W12533  38.372  43.811   4.247
48601W        W12534  22.242  42.485   2.211
48602W        W12535  15.662  14.239  12.457
48603W        W12536  40.927  14.826   0.906
48604W        W12537  25.533  37.413   2.795
48605W        W12538  24.599   5.923  10.549
48606W        W12539  18.288  18.621  12.992
48607W        W12540   0.987   0.320   1.763
48608W        W12541  34.381  21.140  11.102
48609W        W12542  19.163  30.974  11.951
48610W        W12543  19.128  21.557   3.652
48611W        W12544   8.765  16.676   3.321
48612W        W12545  30.482  25.663   4.653
48613W        W12546  17.601  11.279   2.338
48614W        W12547  29.620  23.576   4.215
48615W        W12548  27.537   5.335   1.227
48616W        W12549  36.957   7.183   1.328
48617W        W12550  35.923  36.463   3.777
48618W        W12551  37.928   1.912   4.323
48619W        W12552   8.876  34.430  13.931
48620W        W12553  18.052  38.058   1.720
48621W        W12554  10.348  28.120  12.523
48622W        W12555  32.980  22.531  12.965
48623W        W12556  23.124  29.993  14.343
48624W        W12557  44.328   9.235   2.822
48625W        W12558  17.232  33.474   1.732
48626W        W12559  12.689  30.144  14.967
48627W        W12560  43.964  14.643   3.247
48628W        W12561  25.066  15.182   2.194
48629W        W12562   9.318  44.872  14.790
48630W        W12563  44.439  34.885   2.890
48631W        W12564  15.640  38.040   2.214
48632W        W12565  27.187  13.654  11.019
48633W        W12566   3.868  39.882   1.895
48634W        W12567  15.766   2.754   1.441
48635W        W12568   2.930  24.028   2.353
48636W        W12569   7.362  12.834  12.352
48637W        W12570  40.437  37.031  10.061
48638W        W12571   5.810  36.417  11.100
48639W        W12572  29.500  15.700  14.407
48640W        W12573  41.959  31.422  13.799
48641W        W12574  21.201  24.713   3.269
48642W        W12575   8.210  33.527  12.392
48643W        W12576  22.061   6.346   2.405
48644W        W12577  41.788  11.274  13.956
48645W        W12578  37.985  30.619   4.626
48646W        W12579  30.008  25.496   4.306
48647W        W12580  20.259   8.805   0.396
48648W        W12581  17.596  39.913  10.097
48649W        W12582  26.544  27.973   5.216
48650W        W12583   1.872   1.885  12.507
48651W        W12584  17.148  14.230   2.326
48652W        W12585  26.033  44.906  14.006
48653W        W12586  39.472  32.915   1.244
48654W        W12587  25.475  39.404  11.395
48655W        W12588   4.268  27.954   2.328
48656W        W12589  31.135  34.515   3.759
48657W        W12590  10.713  33.543  11.560
48658W        W12591  41.022  38.831  14.906
48659W        W12592  17.217  44.414  13.407
48660W        W12593  26.483  42.806   0.389
48661W        W12594  26.680  20.681  10.995
48662W        W12595  32.940  21.613  14.020
48663W        W12596  23.637  40.456   0.271
48664W        W12597   8.324  15.174  13.410
48665W        W12598  36.905  12.723  14.418
48666W        W12599   3.277  30.535  14.850
48667W        W12600  42.014   6.922   3.821
48668W        W12601  33.597  24.090   3.800
48669W        W12602   9.385  35.964  11.543
48670W        W12603  30.527   2.728   4.618
48671W        W12604  27.652  18.207   0.408
48672W        W12605   8.734   5.309   1.828
48673W        W12606  23.074  15.619   1.698
48674W        W12607  15.173  22.522   0.930
48675W        W12608  30.429  16.198  12.040
48676W        W12609  29.967   2.791   1.436
48677W        W12610  29.175  17.214   0.892
48678W        W12611  13.661  41.409  11.403
48679W        W12612  39.471  29.958  13.503
48680W        W12613  39.414   4.880   1.442
48681W        W12614  38.456  41.955  10.495
48682W        W12615  20.696  18.609   0.790
48683W        W12616  27.101  40.357   1.286
48684W        W12617  16.753  41.334   5.223
48685W        W12618  21.167   4.845   2.209
48686W        W12619  21.551   5.314   4.306
48687W        W12620  20.165   0.912   0.929
48688W        W12621  38.949   4.828   4.237
48689W        W12622   6.690  33.922  11.605
48690W        W12623  31.616  23.725   2.419
48691W        W12624  42.332   3.934   3.159
48692W        W12625   6.372  44.279   3.367
48693W        W12626   0.314  32.054   3.342
48694W        W12627  34.946  13.724  14.289
48695W        W12628  41.793  21.741  14.380
48696W        W12629  19.165  33.961   3.688
48697W        W12630   8.782  27.446  11.607
48698W        W12631  34.520   1.325  12.538
48699W        W12632  30.464  32.443  13.977
48700W        W12633  13.810   3.379  12.961
48701W        W12634  25.063  18.715   1.839
48702W        W12635  26.961  11.246   3.334
48703W        W12636   8.734  40.429   4.280
48704W        W12637  31.590  14.795   3.231
48705W        W12638  43.974  18.209   4.609
48706W        W12639  15.300  18.570  14.018
48707W        W12640  32.412  24.631  10.527
48708W        W12641  39.384  36.003   2.846
48709W        W12642  35.494  29.608  14.425
48710W        W12643  28.674  27.573  14.991
48711W        W12644  40.436  26.610   3.253
48712W        W12645  24.533  19.533   2.269
48713W        W12646  15.141  11.833   2.300
48714W        W12647  16.668  39.417  12.374
48715W        W12648  36.375  27.496  14.020
48716W        W12649  10.245  22.151   0.267
48717W        W12650  43.766  38.480   0.939
48718W        W12651  23.988  40.408  11.467
48719W        W12652  34.421   4.821   3.213
48720W        W12653  38.395  38.369   3.330
48721W        W12654  12.164   8.331  11.110
48722W        W12655  32.137  33.589   2.862
48723W        W12656  17.267  21.158   4.253
48724W        W12657   1.253  41.789   4.123
48725W        W12658  40.957  28.487  11.439
48726W        W12659  21.066  16.179  13.383
48727W        W12660  44.373  17.195   3.205
48728W        W12661  23.667   5.720   3.778
48729W        W12662  42.421  23.646  14.338
48730W        W12663  29.535  26.170   0.760
48731W        W12664  37.863  14.594   4.275
48732W        W12665   5.420  15.222   4.727
48733W        W12666   9.311  42.837  14.308
48734W        W12667  43.898  38.913  13.044
48735W        W12668   8.832  41.884  11.407
48736W        W12669  22.524  38.560  13.535
48737W        W12670  29.440   8.875  11.055
48738W        W12671  10.860  24.579  11.112
48739W        W12672  19.570  44.822  12.890
48740W        W12673  16.667  11.157  14.957
48741W        W12674   8.307   1.269   2.674
48742W        W12675   0.395   0.879  13.942
48743W        W12676  12.246  20.666  13.898
48744W        W12677   8.777  12.299  12.427
48745W        W12678   6.261   3.302  13.493
48746W        W12679  42.873   6.796  14.405
48747W        W12680  19.611  12.621  11.033
48748W        W12681   4.750   9.256  13.022
48749W        W12682  34.447  17.558   0.964
48750W        W12683  43.360  16.692   1.329
48751W        W12684   8.741  40.462  12.022
48752W        W12685  16.191  37.929  13.385
48753W        W12686   9.151  27.949   3.353
48754W        W12687   9.651  11.210   1.406
48755W        W12688  29.157  42.943   0.322
48756W        W12689  19.741  29.954  11.891
48757W        W12690  40.461  36.086   0.351
48758W        W12691  39.983  41.453  10.516
48759W        W12692  24.157  41.455  13.379
48760W        W12693  17.064  23.684   3.793
48761W        W12694   4.371   0.920   4.731
48762W        W12695   1.810  44.274  10.972
48763W        W12696  30.462  43.463   2.362
48764W        W12697  30.656  39.341  10.532
48765W        W12698  33.013  26.586  13.362
48766W        W12699   4.295  29.532   4.643
48767W        W12700   7.748  10.777   1.357
48768W        W12701  31.500  20.151  11.384
48769W        W12702  26.696  36.388   3.823
48770W        W12703  35.995  41.944  13.455
48771W        W12704  32.977  25.146   4.167
48772W        W12705  29.122  43.925  11.099
48773W        W12706  14.163   3.812   2.415
48774W        W12707  20.610   5.727  14.793
48775W        W12708  15.633  36.877   0.774
48776W        W12709  30.460  35.448   0.276
48777W        W12710  11.787  14.315   3.766
48778W        W12711  33.028  28.454   1.723
48779W        W12712  19.140  23.549   0.278
48780W        W12713  14.193   5.758   1.774
48781W        W12714   0.400  33.019   1.765
48782W        W12715   4.348  29.047  10.570
48783W        W12716  40.472  17.087   9.975
48784W        W12717   0.310  10.206  11.919
48785W        W12718   0.961   8.270   0.817
48786W        W12719  16.168  36.922   0.278
48787W        W12720  41.988  43.410  12.947
48788W        W12721   1.864  17.280   3.718
48789W        W12722  27.180   0.384   4.745
48790W        W12723  40.876  42.008  13.488
48791W        W12724  13.222  35.057   2.368
48792W        W12725   7.382  21.573  14.385
48793W        W12726  20.540  32.992   1.930
48794W        W12727  22.681  33.044   1.770
48795W        W12728  12.178   1.879  10.948
48796W        W12729   7.834   6.210   4.260
48797W        W12730  23.204  29.052  11.494
48798W        W12731  15.272  15.135   2.830
48799W        W12732  28.165  30.932   0.863
48800W        W12733   3.456  11.136   4.178
48801W        W12734  38.951   0.384  13.036
48802W        W12735  35.481  20.035  12.358
48803W        W12736  21.618   3.431   0.900
48804W        W12737  13.689  36.912   2.823
48805W        W12738  23.028   7.345   1.254
48806W        W12739   1.944  12.130  12.996
48807W        W12740  25.671  37.493  14.896
48808W        W12741   8.172  20.664  11.381
48809W        W12742  24.508  33.608   0.258
48810W        W12743  12.280  13.684   1.876
48811W        W12744   0.308  43.444   4.814
48812W        W12745  42.828  34.989   2.349
48813W        W12746  14.592   8.663   9.963
48814W        W12747   5.830  31.607  10.486
48815W        W12748   5.296  10.341   4.598
48816W        W12749  19.668  42.022  12.425
48817W        W12750  16.087  26.545  10.615
48818W        W12751  42.794  38.928   3.692
48819W        W12752   5.316  34.564   2.812
48820W        W12753  23.565  31.963  14.385
48821W        W12754  18.208  41.377  14.883
48822W        W12755  20.272  19.536   4.831
48823W        W12756  22.641  17.644  13.486
48824W        W12757   2.922   1.954   3.787
48825W        W12758  34.557  44.470  13.948
48826W        W12759  12.137  28.453  10.616
48827W        W12760  16.254   1.447   0.938
48828W        W12761   7.834  24.684  11.598
48829W        W12762  32.517  12.175   3.303
48830W        W12763  29.495  17.262   0.482
48831W        W12764  36.068  24.093  12.518
48832W        W12765  19.243  37.335  14.869
48833W        W12766   8.390  17.199  11.371
48834W        W12767  34.088  35.602   3.780
48835W        W12768  17.144   1.417   3.149
48836W        W12769  40.510  44.456   5.291
48837W        W12770   3.334  37.343  12.897
48838W        W12771  17.683  10.810   2.701
48839W        W12772  29.437  44.765   2.364
48840W        W12773   3.452  38.934  12.578
48841W        W12774  15.309   7.847   0.269
48842W        W12775   7.288   1.904   2.236
48843W        W12776   9.212  28.566   0.834
48844W        W12777  11.751  25.081  11.518
48845W        W12778  28.531   5.882   4.217
48846W        W12779  38.531  35.387  13.843
48847W        W12780  44.296   7.818  14.828
48848W        W12781  36.480   4.711  10.021
48849W        W12782   5.279  41.365  10.427
48850W        W12783  15.088  18.091  14.339
48851W        W12784  27.495  13.144  11.073
48852W        W12785  27.093   4.379   2.695
48853W        W12786  22.531   6.327   0.727
48854W        W12787  38.883  21.558  11.394
48855W        W12788  22.011  10.665   0.788
48856W        W12789  10.253   4.221  13.985
48857W        W12790   5.246   4.732   0.410
48858W        W12791  27.601   6.804  11.552
48859W        W12792  19.109  26.522  12.475
48860W        W12793  13.167  31.531   4.312
48861W        W12794  27.691  21.562  14.852
48862W        W12795  40.387  24.997   3.279
48863W        W12796  25.054  27.959  13.906
48864W        W12797  21.729   4.373   3.222
48865W        W12798   6.356   9.765   2.247
48866W        W12799  14.709  16.804   1.894
48867W        W12800  42.920  28.068  11.404
48868W        W12801  34.092  28.572  10.599
48869W        W12802  21.058   1.867   0.826
48870W        W12803  28.143   6.213   0.326
48871W        W12804  31.124  29.637   3.701
48872W        W12805  18.230  32.975   1.804
48873W        W12806  18.053  12.825  12.092
48874W        W12807  38.465   7.729   2.717
48875W        W12808  16.113  38.446  12.899
48876W        W12809   0.464   5.836  12.420
48877W        W12810  43.948  19.547   3.645
48878W        W12811  33.049  14.592  10.571
48879W        W12812  12.748   0.828  14.384
48880W        W12813   3.332  16.074  11.989
48881W        W12814   2.295  42.451  14.013
48882W        W12815  20.695  20.064  11.952
48883W        W12816   5.308  21.574  11.561
48884W        W12817  20.065  33.504  13.463
48885W        W12818  12.850  20.757   1.799
48886W        W12819  18.593  40.971   5.210
48887W        W12820  34.059  14.648   0.387
48888W        W12821  33.599  42.476  10.510
48889W        W12822  36.888  20.546   4.810
48890W        W12823   7.262  17.799   1.873
48891W        W12824  44.265   6.316   0.873
48892W        W12825  26.585  28.061   2.351
48893W        W12826  28.582  42.419  14.410
48894W        W12827  18.586  30.428  13.000
48895W        W12828  36.585  10.232   0.865
48896W        W12829  32.118  41.418  11.052
48897W        W12830  14.687  11.197   1.249
48898W        W12831   3.373  27.599  14.495
48899W        W12832  19.640  33.532   1.716
48900W        W12833  16.800  36.579   5.242
48901W        W12834   5.363  22.050   2.782
48902W        W12835  28.136  12.667  13.063
48903W        W12836  18.217  38.994  14.499
48904W        W12837   2.896  16.598   4.137
48905W        W12838  14.186  41.445   2.724
48906W        W12839   5.723  11.690  12.839
48907W        W12840  32.014  34.368  14.376
48908W        W12841  37.482   0.986   2.342
48909W        W12842   5.765   7.303   2.833
48910W        W12843  13.145  33.380   5.294
48911W        W12844  12.705  29.126  11.022
48912W        W12845  12.348   4.825  10.890
48913W        W12846  12.650  29.169   2.722
48914W        W12847  22.168  17.252   0.750
48915W        W12848  30.154  37.876   1.298
48916W        W12849  28.605  36.510   2.358
48917W        W12850  14.674  10.361   9.926
48918W        W12851  23.606  24.083   2.678
48919W        W12852  20.576  20.072  13.005
48920W        W12853  26.541  25.056  12.978
48921W        W12854  26.645  14.177   0.953
48922W        W12855  36.915   9.233   1.883
48923W        W12856  43.408  44.995  11.386
48924W        W12857  37.905  10.678   3.816
48925W        W12858  44.402  13.796  10.956
48926W        W12859  16.647  20.148   3.379
48927W        W12860  28.515   4.749  14.285
48928W        W12861  36.087   5.874  11.086
48929W        W12862   1.859  34.983  13.886
48930W        W12863  21.570   8.725   4.630
48931W        W12864   3.405  11.759   2.727
48932W        W12865  27.659  17.650   2.730
48933W        W12866   2.942  16.276   3.717
48934W        W12867   0.805  10.729  10.957
48935W        W12868  23.662  17.737   2.859
48936W        W12869  33.973  41.300   3.282
48937W        W12870  31.917  17.798  13.384
48938W        W12871  42.794  29.961   0.877
48939W        W12872   5.312  18.103   4.306
48940W        W12873  12.663  37.014  12.475
48941W        W12874   1.866  35.583   3.732
48942W        W12875  35.879  29.094  13.864
48943W        W12876   3.425   6.875  14.833
48944W        W12877  10.182  13.771  14.881
48945W        W12878  37.358  35.045  14.981
48946W        W12879   8.298  43.018  14.768
48947W        W12880  15.111  22.106  10.964
48948W        W12881  43.009  20.769   0.905
48949W        W12882   7.235  31.998   4.800
48950W        W12883   0.864  18.173   1.900
48951W        W12884  17.645  23.651   2.832
48952W        W12885   7.241   6.348   3.276
48953W        W12886  14.746  12.213  10.414
48954W        W12887  37.845  11.648  14.016
48955W        W12888   7.891   1.737  14.805
48956W        W12889  10.297  26.193   5.285
48957W        W12890   4.847   4.850   0.375
48958W        W12891   6.361  44.420  14.478
48959W        W12892  10.298  12.246  14.908
48960W        W12893   9.292  16.698  12.831
48961W        W12894  13.336  12.630   3.784
48962W        W12895  36.403   9.216   0.248
48963W        W12896  17.567  20.584  12.492
48964W        W12897  10.374  42.516  11.479
48965W        W12898  43.443  42.321   4.282
48966W        W12899  32.893  40.923  13.351
48967W        W12900   9.806  41.017   4.167
48968W        W12901  23.080  24.632   3.334
48969W        W12902  13.259  26.104   4.222
48970W        W12903  15.596  36.876   2.671
48971W        W12904  32.968  43.915  10.993
48972W        W12905   6.727  43.397  11.047
48973W        W12906  20.073  28.506   4.832
48974W        W12907  24.212  18.753  10.927
48975W        W12908  27.592  38.927   3.790
48976W        W12909  34.869   6.391   3.828
48977W        W12910  34.966   2.306  14.363
48978W        W12911  10.301  42.910   1.334
48979W        W12912  44.947  39.531   5.685
48980W        W12913   3.819  25.473  13.526
48981W        W12914   7.738  13.261   1.860
48982W        W12915  21.075  29.457   5.185
48983W        W12916  21.163  24.207   5.135
48984W        W12917  36.089  38.444   1.921
48985W        W12918  20.692   1.426  12.072
48986W        W12919   5.365  20.623   3.731
48987W        W12920  37.855  40.014   3.640
48988W        W12921   1.451  31.636   1.751
48989W        W12922  40.356   1.276  14.020
48990W        W12923  34.893  36.021  12.826
48991W        W12924  22.166  38.446   4.126
48992W        W12925   1.812   1.851  14.772
48993W        W12926  21.660  26.016  13.524
48994W        W12927  30.558  38.971   0.796
48995W        W12928  25.559  42.457   1.841
48996W        W12929  39.868  36.928   4.636
48997W        W12930   4.367  19.087   3.171
48998W        W12931  26.677  20.574  12.080
48999W        W12932  23.503  26.977  10.519
49000W        W12933  39.980  31.932  10.531
49001W        W12934  26.656  25.530   3.754
49002W        W12935  23.658  18.135  10.618
49003W        W12936  13.147  15.083   2.360
49004W        W12937  25.216  36.092   2.849
49005W        W12938  22.549   6.321  14.764
49006W        W12939  24.215  33.950  12.010
49007W        W12940   2.304   6.210   4.223
49008W        W12941  11.263  38.011   1.341
49009W        W12942   1.940  40.415  14.495
49010W        W12943  20.248  10.728   0.957
49011W        W12944  34.955  26.528   3.197
49012W        W12945  12.642  35.939  14.390
49013W        W12946  41.354   5.735  14.811
49014W        W12947  38.872  14.287  14.447
49015W        W12948  39.952  11.224   4.203
49016W        W12949  14.306   1.907  11.981
49017W        W12950  24.118   8.386   1.902
49018W        W12951  10.764  36.064   2.263
49019W        W12952  35.053  16.718   3.235
49020W        W12953   2.307   6.232  11.382
49021W        W12954  13.333  29.030   0.746
49022W        W12955   3.795  19.754  13.462
49023W        W12956  18.745  43.820   4.304
49024W        W12957  32.433  43.937  11.981
49025W        W12958  16.708  19.599  14.000
49026W        W12959  18.190   0.946  13.967
49027W        W12960  31.645   0.311   1.854
49028W        W12961  15.210  17.226   2.884
49029W        W12962   9.712   5.839  13.954
49030W        W12963  27.095  26.182   2.899
49031W        W12964   1.877  30.073  10.971
49032W        W12965  31.005  43.815  14.462
49033W        W12966  44.763  34.560   4.697
49034W        W12967  25.473  41.459  12.913
49035W        W12968  17.106   7.197   2.222
49036W        W12969  20.557   6.263  12.488
49037W        W12970   7.839  39.450   1.354
49038W        W12971  11.271   1.898  10.500
49039W        W12972   2.309  43.416   3.745
49040W        W12973  14.309  19.118  11.408
49041W        W12974   5.247  15.209  11.036
49042W        W12975   1.750  28.063  11.974
49043W        W12976  21.183  12.225   2.193
49044W        W12977  13.637   8.782   1.816
49045W        W12978  26.030  19.206  11.477
49046W        W12979  39.815   2.434   3.289
49047W        W12980  38.849   0.260   3.675
49048W        W12981  22.617   4.260  13.370
49049W        W12982  32.420   5.360   4.322
49050W        W12983  42.794   4.854   1.873
49051W        W12984  26.990  22.236  13.868
49052W        W12985  30.092   6.355   0.741
49053W        W12986  35.445  36.981   0.369
49054W        W12987  37.834   4.310   3.371
49055W        W12988  28.620  39.412  13.867
49056W        W12989  39.897  30.127   2.225
49057W        W12990   1.314  13.224   2.335
49058W        W12991  36.526  21.549   0.345
49059W        W12992   0.479  41.323   3.836
49060W        W12993  24.015  30.915  11.025
49061W        W12994   4.244   6.253  11.925
49062W        W12995  42.413   4.352  14.424
49063W        W12996  29.660  19.566  13.972
49064W        W12997   5.754  30.954  11.004
49065W        W12998  12.642   0.481   1.230
49066W        W12999  13.339  11.757  14.801
49067W        W13000  30.483  20.714  12.020
49068W        W13001  21.618  43.349   3.156
49069W        W13002  18.287  36.008  14.405
49070W        W13003  38.516  43.322  11.047
49071W        W13004  37.371  34.118   4.712
49072W        W13005  43.395  15.668   4.325
49073W        W13006  22.180  31.404   3.638
49074W        W13007  23.557  43.466  14.906
49075W        W13008  16.616  29.968   0.882
49076W        W13009   2.834  35.537   1.385
49077W        W13010  32.025   0.458  11.120
49078W        W13011  32.488  22.025   2.704
49079W        W13012  44.880  16.206  12.418
49080W        W13013  36.544   2.247   0.930
49081W        W13014  22.540  24.617  13.334
49082W        W13015  21.199  22.109  14.766
49083W        W13016  16.241   9.284  11.548
49084W        W13017  36.537  43.427   3.846
49085W        W13018   1.428   1.323  10.587
49086W        W13019  13.755   0.390  12.977
49087W        W13020  16.765  44.832  11.031
49088W        W13021   6.378  33.898   0.895
49089W        W13022   5.377  44.364  10.997
49090W        W13023  34.950  38.896  12.995
49091W        W13024  32.599   2.433   0.316
49092W        W13025  24.026  43.387   1.224
49093W        W13026  18.560   8.203  10.443
49094W        W13027  21.531  32.019  13.938
49095W        W13028  32.431  32.932   3.820
49096W        W13029  39.859   3.790   1.857
49097W        W13030  32.058  34.920  12.873
49098W        W13031  35.509  23.582  13.002
49099W        W13032  17.584   9.172  11.856
49100W        W13033  35.074  18.595  13.793
49101W        W13034  19.259  19.577   4.234
49102W        W13035  18.059  37.522  14.347
49103W        W13036  41.501   7.795   4.281
49104W        W13037  18.200  19.639  12.006
49105W        W13038  32.945  42.889  14.433
49106W        W13039  40.797  33.992  14.762
49107W        W13040  31.554   5.725   2.326
49108W        W13041   2.856  41.823  12.979
49109W        W13042  19.115   9.261  10.456
49110W        W13043  43.976  28.465   3.358
49111W        W13044  33.029   0.343   0.964
49112W        W13045  37.867   6.412   0.794
49113W        W13046  22.030  27.638   0.321
49114W        W13047   8.811  44.804  10.486
49115W        W13048  28.471  43.297   1.448
49116W        W13049  14.111   9.809  14.390
49117W        W13050   5.256  27.691   0.940
49118W        W13051   6.803  10.738  10.427
49119W        W13052  18.551  23.551  12.501
49120W        W13053   0.768  36.997  10.521
49121W        W13054  33.386  10.161   0.321
49122W        W13055   2.950  29.441   4.763
49123W        W13056  24.132  14.802   0.363
49124W        W13057  15.751  26.640   4.629
49125W        W13058  23.067  16.074  11.964
49126W        W13059  34.896  37.541  12.909
49127W        W13060  27.596  36.087   2.817
49128W        W13061  23.597   7.398   4.739
49129W        W13062   8.839   4.415   1.280
49130W        W13063  32.060   6.199  14.308
49131W        W13064  29.078   3.903   0.297
49132W        W13065  36.948  20.749   3.239
49133W        W13066  21.210  37.373   3.160
49134W        W13067  20.539  13.818  11.557
49135W        W13068  41.888   3.280  13.056
49136W        W13069  34.415  23.703  11.443
49137W        W13070   2.856  31.445  13.548
49138W        W13071  18.194  13.225  14.882
49139W        W13072  44.361  28.103  11.016
49140W        W13073  20.257   3.910   0.868
49141W        W13074  28.079  14.658   2.189
49142W        W13075   4.728  42.300   1.833
49143W        W13076  26.478   3.445   4.219
49144W        W13077  21.539  11.702   2.866
49145W        W13078   6.899   5.437  14.374
49146W        W13079  41.500  21.622   2.826
49147W        W13080   6.399  37.574  13.335
49148W        W13081  42.415  14.778   2.765
49149W        W13082  37.056  10.655  11.022
49150W        W13083  10.226  32.114   2.671
49151W        W13084  29.988  42.474   2.185
49152W        W13085  30.960   7.240  10.604
49153W        W13086   7.777  10.183  14.351
49154W        W13087  21.075  32.064   2.747
49155W        W13088  32.514  11.206   3.781
49156W        W13089  41.951   6.808  12.391
49157W        W13090  15.193  20.046   2.747
49158W        W13091  21.532  37.887   2.318
49159W        W13092   3.755  14.709   3.852
49160W        W13093   6.226  27.100  14.446
49161W        W13094  19.215   0.278  13.944
49162W        W13095  18.776  26.163  10.533
49163W        W13096  36.039  41.334  10.610
49164W        W13097   8.786  43.785   2.856
49165W        W13098  36.592  14.205   0.809
49166W        W13099  31.942  40.978  12.889
49167W        W13100  26.008  10.348   0.920
49168W        W13101  17.161  42.516   4.243
49169W        W13102   7.194  20.734  11.430
49170W        W13103  17.652  19.619   1.808
49171W        W13104  33.118  39.512   4.766
49172W        W13105   9.384  12.695   2.178
49173W        W13106  10.352  33.624  13.530
49174W        W13107  35.942  43.964   4.753
49175W        W13108  22.008  11.693   2.389
49176W        W13109   2.875  33.542   1.365
49177W        W13110   8.792  44.959  11.929
49178W        W13111  32.548  32.972  14.894
49179W        W13112  23.714  38.002   3.835
49180W        W13113   7.383  14.139   0.920
49181W        W13114  25.068   6.698  13.793
49182W        W13115  26.020  37.990  14.995
49183W        W13116  43.827  34.460   3.813
49184W        W13117   9.346  10.794   0.413
49185W        W13118  32.142   1.976  14.997
49186W        W13119  42.346   1.457   2.848
49187W        W13120  43.418   0.261  12.906
49188W        W13121  33.577  24.572  11.931
49189W        W13122  13.663  18.295  11.034
49190W        W13123  17.622  21.031  11.083
49191W        W13124  32.069  38.979   3.704
49192W        W13125  33.472  26.662  12.387
49193W        W13126   9.260  16.585   0.935
49194W        W13127  26.975  16.800  11.506
49195W        W13128  23.500   0.265  11.015
49196W        W13129  43.295  21.584   4.723
49197W        W13130  39.526  13.644   4.716
49198W        W13131   7.757   7.764   2.199
49199W        W13132  20.735  42.010  13.389
49200W        W13133   7.233  36.981  14.990
49201W        W13134  26.963  24.992   4.126
49202W        W13135  43.471   9.727   0.887
49203W        W13136  13.726   2.908  12.985
49204W        W13137  21.750  37.912  12.025
49205W        W13138  36.871  34.546  14.474
49206W        W13139   9.198  40.942  10.434
49207W        W13140   0.922  12.839   2.890
49208W        W13141   6.808  36.416   0.754
49209W        W13142  16.220   7.244  11.444
49210W        W13143  14.605  14.647  14.399
49211W        W13144  15.237  23.199   4.784
49212W        W13145  13.191  23.240   4.129
49213W        W13146  39.319  35.860  14.028
49214W        W13147  11.227  39.925  14.995
49215W        W13148   7.404  26.694   5.291
49216W        W13149  11.859  29.545   1.903
49217W        W13150  40.992  21.134  12.881
49218W        W13151  28.018  29.091  11.394
49219W        W13152  26.456  27.565  12.949
49220W        W13153  17.678  29.090  11.979
49221W        W13154  43.891  15.645   2.365
49222W        W13155   5.313   6.784   4.818
49223W        W13156  12.613  39.353  10.988
49224W        W13157   9.724  36.450  12.047
49225W        W13158  32.479  38.903   2.868
49226W        W13159   3.909  22.527  12.843
49227W        W13160  17.264  15.596  14.898
49228W        W13161  12.725  23.600  14.803
49229W        W13162   5.763  41.478   2.741
49230W        W13163   2.344  24.994  13.318
49231W        W13164  26.526  11.143  14.821
49232W        W13165  43.437   0.374  13.324
49233W        W13166   9.179  27.650   1.416
49234W        W13167  41.024  15.295   1.259
49235W        W13168  37.844   0.252  10.419
49236W        W13169  21.248  43.781  11.053
49237W        W13170  37.562  33.583   3.258
49238W        W13171   7.210  43.848   0.351
49239W        W13172  27.591  27.470  14.900
49240W        W13173  20.270  15.583   3.240
49241W        W13174  32.461  10.368   3.252
49242W        W13175  40.359  30.517  13.988
49243W        W13176  43.367   2.303   4.118
49244W        W13177  17.215  23.555  11.049
49245W        W13178   9.381  41.939  12.463
49246W        W13179  26.483  13.177  11.126
49247W        W13180  42.508  37.412   2.870
49248W        W13181  15.164  20.217  13.545
49249W        W13182   3.307  40.956   1.748
49250W        W13183  40.901  29.052  14.405
49251W        W13184  17.163  15.659  11.421
49252W        W13185  37.440  18.734  14.875
49253W        W13186   0.432   5.714  12.992
49254W        W13187   5.748  33.437  11.425
49255W        W13188  10.667  30.558  11.028
49256W        W13189   4.338   2.334   1.763
49257W        W13190  29.081  26.200   3.336
49258W        W13191  16.194  33.570  13.321
49259W        W13192  12.739  26.052   1.398
49260W        W13193   3.743  16.710  11.949
49261W        W13194  12.851   2.943  11.386
49262W        W13195  24.694  34.472  11.424
49263W        W13196   7.718  23.729   0.747
49264W        W13197   2.439  24.714   1.722
49265W        W13198   3.940  23.241   2.218
49266W        W13199  18.277  41.033   9.519
49267W        W13200  25.532  17.673  14.427
49268W        W13201  34.539  37.559  13.473
49269W        W13202  44.416  19.603  12.475
49270W        W13203  14.338  38.953   2.876
49271W        W13204  11.709  30.420  12.577
49272W        W13205  27.640   6.269   4.770
49273W        W13206   4.730   8.847  13.001
49274W        W13207   6.857  30.957   0.316
49275W        W13208   3.416  34.398   3.841
49276W        W13209  22.634   6.191   1.833
49277W        W13210  30.942   1.894   3.245
49278W        W13211   7.209   5.289  13.931
49279W        W13212   0.486  14.778  14.456
49280W        W13213  42.864  37.519   2.215
49281W        W13214  15.629   6.853  14.859
49282W        W13215   3.736  17.085   2.409
49283W        W13216  32.023  21.216  12.846
49284W        W13217  39.445  39.885   0.395
49285W        W13218  38.449   8.825   1.931
49286W        W13219  11.250  35.410   2.781
49287W        W13220  43.313  30.584   2.814
49288W        W13221  32.060  10.354   1.725
49289W        W13222  12.179  32.505  10.603
49290W        W13223  35.040   4.931  14.453
49291W        W13224  20.202  41.918   0.890
49292W        W13225  29.442  11.720   3.223
49293W        W13226  18.612  12.849  14.819
49294W        W13227   6.771   3.728   2.866
49295W        W13228   3.895  10.288   4.819
49296W        W13229  18.782  14.589   2.674
49297W        W13230   6.387  22.592  11.555
49298W        W13231  18.119  31.145   0.280
49299W        W13232  30.918  42.512   4.660
49300W        W13233  42.376  13.760   3.208
49301W        W13234  11.742  28.551   3.252
49302W        W13235  14.753  34.021  13.833
49303W        W13236  12.615  40.848  12.929
49304W        W13237   1.878  30.972  12.464
49305W        W13238  10.804  10.381   4.196
49306W        W13239  13.204   1.305  14.828
49307W        W13240  27.942  44.938   5.716
49308W        W13241  12.216   5.781   9.449
49309W        W13242  23.117   3.234  14.451
49310W        W13243  20.586  29.023   1.824
49311W        W13244  19.039  43.945   4.281
49312W        W13245  35.473  24.072   2.868
49313W        W13246   8.360  23.050  12.479
49314W        W13247  17.650  37.436   5.732
49315W        W13248  11.680  14.595   1.228
49316W        W13249  39.827  29.634   2.314
49317W        W13250   4.857  40.380   1.260
49318W        W13251  20.579  27.944  10.949
49319W        W13252  34.930  14.748   3.218
49320W        W13253  31.501  19.690  13.489
49321W        W13254  20.739  43.904   3.776
49322W        W13255  11.159   9.711  14.369
49323W        W13256   9.775  36.382  10.412
49324W        W13257  14.131  14.783   1.914
49325W        W13258  22.532  11.768   4.234
49326W        W13259   7.811  21.128  10.628
49327W        W13260  18.631   5.365  13.989
49328W        W13261  11.248  35.086  13.053
49329W        W13262   2.914  34.987  13.944
49330W        W13263  26.694  19.145   4.818
49331W        W13264   9.735   7.173   2.900
49332W        W13265   6.741  41.307  13.393
49333W        W13266  43.983  28.668  13.026
49334W        W13267  17.306  10.818   4.664
49335W        W13268  37.836  31.450   1.387
49336W        W13269  14.816  32.983   0.909
49337W        W13270  41.291  12.340   4.180
49338W        W13271  44.804   6.836  14.408
49339W        W13272  10.674  11.726  10.550
49340W        W13273  41.320   0.433   4.246
49341W        W13274   5.712   0.939   4.613
49342W        W13275  23.576  19.134  14.760
49343W        W13276  23.652  11.330   1.843
49344W        W13277   1.950   5.299  12.057
49345W        W13278  14.726  28.002  10.593
49346W        W13279  42.515  35.416   4.294
49347W        W13280  17.678  12.321   0.340
49348W        W13281  39.819  26.100   1.792
49349W        W13282  27.123  44.428   3.223
49350W        W13283   9.882  24.122  10.117
49351W        W13284  11.653  34.476  12.363
49352W        W13285  41.526  14.241  12.365
49353W        W13286  20.719  28.167   5.119
49354W        W13287  22.159   9.709   1.278
49355W        W13288  28.626  25.501  10.484
49356W        W13289  20.729  18.231  15.000
49357W        W13290  32.936  25.648   0.959
49358W        W13291  14.129  37.504   3.654
49359W        W13292   1.423   6.713   0.746
49360W        W13293  41.485   9.362  10.460
49361W        W13294  10.738  42.782  12.563
49362W        W13295  10.343  31.633   2.876
49363W        W13296  21.661  16.136   0.424
49364W        W13297  20.551   6.862  13.843
49365W        W13298  26.131  26.980   4.712
49366W        W13299  16.756   9.731   1.260
49367W        W13300  43.286  23.020  14.465
49368W        W13301  24.152   4.784  12.030
49369W        W13302   8.814  25.047   4.333
49370W        W13303  27.180  19.058  14.503
49371W        W13304  40.845  29.619  14.809
49372W        W13305  22.723  18.587   0.437
49373W        W13306   4.933  41.845  10.560
49374W        W13307   7.672   7.858  13.331
49375W        W13308  33.579  40.983  13.474
49376W        W13309  16.791   1.354  10.983
49377W        W13310   7.709  26.587  10.094
49378W        W13311   9.749  28.947   2.769
49379W        W13312  35.907  28.481   1.920
49380W        W13313  15.729  11.851  14.297
49381W        W13314  16.195  25.690   4.217
49382W        W13315  33.450   7.819   2.395
49383W        W13316  41.013  35.577  11.573
49384W        W13317   1.483  33.083   1.834
49385W        W13318  39.348  40.499   3.290
49386W        W13319   3.847  26.078   0.434
49387W        W13320   1.247   3.812   0.439
49388W        W13321  41.901   4.436   3.814
49389W        W13322  35.009  41.355   2.390
49390W        W13323  16.085  17.257  13.961
49391W        W13324   4.835  19.189  10.597
49392W        W13325   7.361  20.765   0.844
49393W        W13326  28.043  19.596  10.528
49394W        W13327  17.596  34.497   3.747
49395W        W13328  38.419  10.784  12.371
49396W        W13329  26.632  29.047   2.242
49397W        W13330   8.796  33.977   2.352
49398W        W13331  22.699   5.342   1.825
49399W        W13332  39.544  42.489   4.266
49400W        W13333   6.398   5.305   0.771
49401W        W13334   5.363  32.904  14.326
49402W        W13335   4.729  24.175   3.349
49403W        W13336   2.896  34.459   4.760
49404W        W13337  37.026  11.344  12.429
49405W        W13338  30.068  13.624   4.290
49406W        W13339  24.694  19.679   4.322
49407W        W13340  13.709   5.877  11.600
49408W        W13341  18.745  16.666   1.242
49409W        W13342  38.457  30.970   4.695
49410W        W13343  20.538  37.409  13.465
49411W        W13344   6.294  36.981   3.247
49412W        W13345   3.730   7.310   0.400
49413W        W13346  16.732  10.364   2.738
49414W        W13347  30.908  27.033   0.432
49415W        W13348  30.450   9.848  10.953
49416W        W13349  28.020  29.027  10.551
49417W        W13350  32.636  29.075  14.933
49418W        W13351   2.943  19.167  12.009
49419W        W13352   0.285  20.551   4.187
49420W        W13353   5.409  27.197   9.639
49421W        W13354   1.286  36.535  13.003
49422W        W13355   4.745   8.349   1.403
49423W        W13356   5.226   4.205  14.407
49424W        W13357  29.632  14.286  14.829
49425W        W13358  18.200   2.405  11.560
49426W        W13359   8.350   2.296   2.753
49427W        W13360  12.306  36.980   0.907
49428W        W13361  32.472   7.718  13.524
49429W        W13362   9.378  25.615   1.894
49430W        W13363  40.946  39.870  13.860
49431W        W13364  33.620  36.003   1.749
49432W        W13365   2.855  12.827  14.513
49433W        W13366  38.887   9.244  12.485
49434W        W13367  22.609  23.732   1.843
49435W        W13368  35.878  12.221  13.458
49436W        W13369  28.651  25.023  14.429
49437W        W13370  38.957  34.120   2.849
49438W        W13371  12.637  23.675   2.224
49439W        W13372  39.923  12.212  13.351
49440W        W13373  28.184   9.226   1.740
49441W        W13374  15.144   7.697  14.831
49442W        W13375   9.822   2.826  12.412
49443W        W13376  40.330  28.468  14.887
49444W        W13377  42.503   4.417   2.274
49445W        W13378  13.699  38.538  14.815
49446W        W13379   6.905  34.611  13.904
49447W        W13380   4.754  14.693   0.284
49448W        W13381   5.301   9.785   1.857
49449W        W13382  10.358  20.600  11.027
49450W        W13383   1.958   3.722   3.174
49451W        W13384  21.142  38.345  14.760
49452W        W13385  13.642  33.876   1.380
49453W        W13386  37.560  28.022   0.422
49454W        W13387  33.405  20.030  12.354
49455W        W13388  39.346  24.189   1.313
49456W        W13389  40.960  25.034   0.403
49457W        W13390  36.982  40.049   1.306
49458W        W13391  40.959  24.612  13.541
49459W        W13392   8.701  27.116   3.713
49460W        W13393  33.042  43.864   4.136
49461W        W13394  10.745  19.039   4.746
49462W        W13395  20.711  37.842   0.810
49463W        W13396  28.634   2.368   2.251
49464W        W13397  44.379   4.926   0.399
49465W        W13398  22.735  14.273   0.438
49466W        W13399  12.822  41.529   3.640
49467W        W13400  41.830  24.172   1.230
49468W        W13401  29.919  29.048  14.281
49469W        W13402  36.014  12.343  12.389
49470W        W13403  11.767   2.826   1.308
49471W        W13404  16.777  28.117  11.522
49472W        W13405  39.500   5.282   1.785
49473W        W13406   7.205  29.602   1.407
49474W        W13407  17.726   4.698   1.845
49475W        W13408  12.312  34.401   3.303
49476W        W13409  39.512  31.127  12.377
49477W        W13410  30.628  35.053   2.775
49478W        W13411  24.027  33.469   2.298
49479W        W13412  43.320  14.760   1.840
49480W        W13413  36.413   9.296   3.225
49481W        W13414  36.872  32.128  14.309
49482W        W13415  20.540  11.820   2.369
49483W        W13416  40.542  40.883  13.313
49484W        W13417   9.758  39.395  12.838
49485W        W13418   8.711  12.839  14.827
49486W        W13419  14.168  44.416   4.173
49487W        W13420  39.832  36.087  14.419
49488W        W13421  37.559  30.931  11.581
49489W        W13422  32.015  20.531  11.382
49490W        W13423  32.628  42.814   0.898
49491W        W13424  27.682  39.015  12.071
49492W        W13425  15.318  23.160   1.263
49493W        W13426  10.803   0.784  11.386
49494W        W13427  14.757  34.908   4.239
49495W        W13428  18.743  13.222  14.838
49496W        W13429   5.196  15.125  12.558
49497W        W13430   7.901  27.088   4.181
49498W        W13431  18.108  27.602  11.954
49499W        W13432  34.045  33.411  11.526
49500W        W13433  22.605  21.162  12.479
49501W        W13434  21.675  12.340   2.688
49502W        W13435  43.778  38.853  12.090
49503W        W13436  33.052  21.140  12.528
49504W        W13437   2.950   5.699   3.630
49505W        W13438   1.755   9.657  12.075
49506W        W13439  22.608  14.125  12.553
49507W        W13440   6.216  10.682  13.525
49508W        W13441  17.182  14.594   3.224
49509W        W13442  26.118   6.372   0.952
49510W        W13443   2.244  16.709   3.737
49511W        W13444  13.339  13.624  13.846
49512W        W13445  22.612  44.325   0.742
49513W        W13446  33.487  34.525   1.719
49514W        W13447  28.538   7.184  12.488
49515W        W13448  10.752  34.416   1.745
49516W        W13449  13.656   2.450   2.217
49517W        W13450  23.990   7.346   0.929
49518W        W13451  36.090  39.991  12.923
49519W        W13452   1.321  11.732   3.701
49520W        W13453  11.253  24.191  14.318
49521W        W13454  17.613  32.890   2.767
49522W        W13455  23.193   8.845   2.219
49523W        W13456  44.400   1.823   2.366
49524W        W13457  26.050  16.277   0.268
49525W        W13458   3.835  38.864  14.822
49526W        W13459  22.016  39.515  10.994
49527W        W13460   5.201  39.403   1.248
49528W        W13461   5.304  37.405   4.124
49529W        W13462   8.163  19.260  11.958
49530W        W13463  23.022  27.635  10.425
49531W        W13464   7.747  14.317  12.996
49532W        W13465   6.308  12.167   4.309
49533W        W13466  25.584  31.122  10.931
49534W        W13467   1.293  13.716   4.824
49535W        W13468  38.924  25.988  12.829
49536W        W13469   7.258  14.333   0.407
49537W        W13470   5.322  22.158   4.173
49538W        W13471  24.012  14.141   2.265
49539W        W13472   9.670  11.213   2.808
49540W        W13473  31.147  40.045   2.377
49541W        W13474  14.106  20.689   1.355
49542W        W13475  11.306   3.840   1.233
49543W        W13476  14.110   6.749   3.746
49544W        W13477  21.151  14.313   0.891
49545W        W13478  44.935  19.269   1.828
49546W        W13479  18.262  43.800   1.442
49547W        W13480  20.589  25.491   0.786
49548W        W13481  34.571  38.372  11.115
49549W        W13482   0.896  15.287  11.493
49550W        W13483  32.626  28.075   1.440
49551W        W13484  11.829  33.883   0.409
49552W        W13485  32.571   1.733   0.459
49553W        W13486  29.514   0.767   2.291
49554W        W13487  10.756  34.478  14.501
49555W        W13488  13.139  38.064   1.324
49556W        W13489  31.899   8.800  13.308
49557W        W13490  42.458  32.962  12.950
49558W        W13491  12.809  42.032   3.314
49559W        W13492  12.616  43.349  14.491
49560W        W13493  31.081   3.393   1.287
49561W        W13494  33.574  36.351   3.342
49562W        W13495  20.033  10.178  13.435
49563W        W13496   1.966  42.456   1.839
49564W        W13497  12.145  19.078  10.986
49565W        W13498  40.401  13.681  14.897
49566W        W13499   6.733  36.410   3.227
49567W        W13500  43.781  29.022   0.344
49568W        W13501  43.857  15.245  11.565
49569W        W13502  33.024  31.154  10.571
49570W        W13503  23.230   9.661  10.125
49571W        W13504  37.844  24.715   4.132
49572W        W13505  38.970  12.615   0.250
49573W        W13506  21.069  22.520  10.965
49574W        W13507  17.138  34.060  13.454
49575W        W13508  11.229   6.757   4.813
49576W        W13509  30.091  10.255   3.730
49577W        W13510   8.240  13.160   0.827
49578W        W13511  30.125  16.790   1.923
49579W        W13512  30.983  31.488  14.778
49580W        W13513  35.877  32.138  13.373
49581W        W13514  18.758   0.894   2.364
49582W        W13515  11.636  44.272  13.394
49583W        W13516  41.920   9.855  13.449
49584W        W13517  16.114  40.492   1.395
49585W        W13518  25.632  18.627   3.826
49586W        W13519  40.893  33.451  11.388
49587W        W13520  20.674   2.403  12.080
49588W        W13521  44.307   8.398   0.269
49589W        W13522  13.287  28.452   2.732
49590W        W13523   3.937  10.212  12.066
49591W        W13524  29.609   0.838   2.675
49592W        W13525  14.215  38.970  14.911
49593W        W13526  14.136  28.028   0.395
49594W        W13527  29.658  44.887  10.135
49595W        W13528  37.537  21.023   4.165
49596W        W13529  42.934  38.348  10.971
49597W        W13530   3.925  33.935   2.411
49598W        W13531  28.180  35.458  13.850
49599W        W13532  27.500  13.214  11.878
49600W        W13533  22.096  20.749  10.507
49601W        W13534  29.987  28.061  14.815
49602W        W13535  22.080  24.068   3.158
49603W        W13536  20.119  42.934  14.477
49604W        W13537  41.491  31.927  14.469
49605W        W13538  15.611  31.122   1.922
49606W        W13539   5.214   0.278  10.514
49607W        W13540  34.534  11.346  11.048
49608W        W13541  25.559  40.004   2.705
49609W        W13542  26.051  32.917   3.655
49610W        W13543   7.859  42.952   0.286
49611W        W13544   2.771  25.145  13.939
49612W        W13545   5.259   7.225  14.420
49613W        W13546   9.184  33.904  12.505
49614W        W13547  21.254   0.307   1.379
49615W        W13548  19.718  16.125   2.715
49616W        W13549  19.214  30.145   4.699
49617W        W13550   1.909   7.215   0.340
49618W        W13551  38.870  11.350   2.417
49619W        W13552  38.960  39.465  11.547
49620W        W13553   4.725  17.758  12.921
49621W        W13554  26.462  23.061   1.842
49622W        W13555  27.040  41.438   4.649
49623W        W13556   6.417  20.200  11.072
49624W        W13557  13.695  20.608  14.824
49625W        W13558  29.071  35.413  13.503
49626W        W13559  31.977  44.405  14.894
49627W        W13560  26.517  41.995   5.135
49628W        W13561  34.039   1.262   3.284
49629W        W13562  13.308   5.249   4.698
49630W        W13563  44.922  44.495  11.930
49631W        W13564   3.248  32.599   1.772
49632W        W13565  21.180  12.293  10.041
49633W        W13566   9.733  43.836   1.222
49634W        W13567  39.383   0.437   2.381
49635W        W13568  24.123  44.797   1.396
49636W        W13569   5.691   6.881  12.072
49637W        W13570   2.901  12.714  11.380
49638W        W13571  25.030  23.595  14.868
49639W        W13572  15.086   6.274  10.409
49640W        W13573  36.511  25.159  12.366
49641W        W13574  37.436  25.509  14.761
49642W        W13575  44.407  19.562   2.370
49643W        W13576  18.732  16.685  11.862
49644W        W13577  23.593  30.077   1.751
49645W        W13578  38.073  24.980  12.064
49646W        W13579   3.345  30.940  11.122
49647W        W13580  32.430  40.480   3.649
49648W        W13581  19.615  19.664  12.860
49649W        W13582  21.221  15.768  14.953
49650W        W13583  25.074  43.393   5.205
49651W        W13584  41.921  43.932  11.065
49652W        W13585  35.474   0.407  12.063
49653W        W13586  41.396  37.954   3.641
49654W        W13587  19.567  38.556  13.928
49655W        W13588   2.244  23.143  14.507
49656W        W13589  36.354   0.768  14.828
49657W        W13590  40.485  24.988  10.091
49658W        W13591  35.037  38.433   4.744
49659W        W13592  41.042   8.324   2.766
49660W        W13593  43.911   9.863  12.960
49661W        W13594  39.546   9.155   3.361
49662W        W13595   1.963  19.545   4.831
49663W        W13596  13.691  14.276  13.526
49664W        W13597   0.924  30.603  11.096
49665W        W13598  24.996  11.263   1.789
49666W        W13599  14.193   2.444   4.610
49667W        W13600  44.770  32.510  10.549
49668W        W13601   7.366  28.559  13.794
49669W        W13602  33.114  15.632   0.750
49670W        W13603   4.738   6.819  13.472
49671W        W13604  44.346  22.580  14.771
49672W        W13605  41.299  14.707   2.726
49673W        W13606   4.294  43.951  12.084
49674W        W13607  42.841   2.945   2.662
49675W        W13608  37.976  22.665   0.905
49676W        W13609  29.074  24.023   3.805
49677W        W13610  23.717   0.272   4.779
49678W        W13611  28.613  43.947   4.219
49679W        W13612  16.653  11.178  11.479
49680W        W13613  44.331  17.225  12.908
49681W        W13614  15.226  10.272  13.842
49682W        W13615   4.234   2.313   3.709
49683W        W13616  13.207  19.689  12.967
49684W        W13617  10.223  42.440  14.884
49685W        W13618   8.727   9.784   4.256
49686W        W13619  23.548   6.789  13.483
49687W        W13620  24.635   9.378   2.802
49688W        W13621   4.741  38.427  14.463
49689W        W13622  33.520  36.586   3.753
49690W        W13623  41.424  32.560  14.355
49691W        W13624  17.097  44.000   3.383
49692W        W13625  43.777  38.487   1.228
49693W        W13626  29.953  22.049  11.467
49694W        W13627   9.180  39.922  14.312
49695W        W13628  42.435  42.286  10.425
49696W        W13629   8.184  23.490  14.995
49697W        W13630  12.758  24.628  10.898
49698W        W13631  27.186  14.235  10.418
49699W        W13632  13.162  20.600   1.766
49700W        W13633  20.068  30.120   0.334
49701W        W13634  32.969   1.913   1.845
49702W        W13635  39.404  23.600   4.145
49703W        W13636  25.530  19.616   0.460
49704W        W13637  36.915  10.875  14.966
49705W        W13638  44.927  43.978  14.760
49706W        W13639  25.130  41.369   2.299
49707W        W13640  15.161  10.356  13.331
49708W        W13641  27.691  31.622   1.784
49709W        W13642   8.724   9.282  12.516
49710W        W13643   1.337   5.427  10.641
49711W        W13644  33.481   0.333   4.266
49712W        W13645   6.315  35.999  10.095
49713W        W13646  28.078   2.278   5.277
49714W        W13647  14.659  38.456  10.986
49715W        W13648  23.999   6.786  14.812
49716W        W13649  31.556   3.385   3.344
49717W        W13650  34.443  33.988  10.913
49718W        W13651  13.713  12.231   2.719
49719W        W13652  36.928  22.092  14.487
49720W        W13653  38.066  36.423  14.791
49721W        W13654  29.030  11.200  13.409
49722W        W13655  36.411   4.927  13.930
49723W        W13656  17.604  17.741   1.415
49724W        W13657  32.038  40.489  13.852
49725W        W13658  15.294  31.545  14.014
49726W        W13659   5.750  33.445   1.715
49727W        W13660  36.468  35.548  13.876
49728W        W13661  25.057   8.836   2.709
49729W        W13662   6.853  20.246   2.247
49730W        W13663  19.601  21.090   1.354
49731W        W13664   5.305  43.925  11.402
49732W        W13665  23.715  21.584  12.575
49733W        W13666  34.502  42.902   3.326
49734W        W13667  40.472  29.155   1.714
49735W        W13668  24.991  20.150   0.427
49736W        W13669  28.968  30.428  12.521
49737W        W13670  24.202  33.104  14.459
49738W        W13671  20.684  43.782   1.908
49739W        W13672  33.540  44.800   4.125
49740W        W13673  17.687   8.391  10.995
49741W        W13674  43.013  13.342   2.687
49742W        W13675  18.167  39.388   2.364
49743W        W13676  13.179  21.512  14.439
49744W        W13677   9.256   9.206  14.347
49745W        W13678  22.548   0.954  12.521
49746W        W13679  36.945  34.547  11.078
49747W        W13680  10.660  35.435   3.747
49748W        W13681  21.064   5.421   1.844
49749W        W13682  41.524  42.490  14.424
49750W        W13683  21.681  21.538  10.424
49751W        W13684  24.722  26.960  11.965
49752W        W13685  28.120  10.845  11.876
49753W        W13686  28.674  33.082  14.513
49754W        W13687  20.176  24.987  13.846
49755W        W13688  21.561   7.700  13.350
49756W        W13689   8.727   0.795   3.349
49757W        W13690  14.697  10.234  10.922
49758W        W13691  40.324  38.821   1.220
49759W        W13692  22.636  41.372  13.498
49760W        W13693   7.748  39.554  11.415
49761W        W13694  13.667  23.999   0.417
49762W        W13695  20.051  41.485   0.447
49763W        W13696  17.695  20.092   3.719
49764W        W13697   9.886  27.591  11.384
49765W        W13698   4.279  27.692   3.824
49766W        W13699   1.378  24.691  12.895
49767W        W13700  13.646  12.789   0.445
49768W        W13701  28.582  24.006   1.307
49769W        W13702  44.474  34.028  12.095
49770W        W13703  43.501  26.194   4.129
49771W        W13704  25.982  30.569  14.295
49772W        W13705  23.088   0.886   3.710
49773W        W13706  39.029  15.781  14.979
49774W        W13707  23.521  19.536   4.653
49775W        W13708  43.331   2.885   3.811
49776W        W13709   4.785   8.671  14.404
49777W        W13710  20.633  19.662   3.304
49778W        W13711  36.500  38.936  11.398
49779W        W13712   2.298   1.318   3.233
49780W        W13713  36.427   8.789   0.463
49781W        W13714  40.382  25.068  11.934
49782W        W13715   7.245   7.338   0.476
49783W        W13716  29.574   3.885   2.393
49784W        W13717  29.951  15.578   4.207
49785W        W13718   8.667   1.470   3.819
49786W        W13719  25.553  27.571   1.283
49787W        W13720  43.490  12.226   2.411
49788W        W13721   0.915  24.578   2.706
49789W        W13722  34.877  40.873  12.869
49790W        W13723  23.687   5.237  12.097
49791W        W13724  42.312   3.841  11.439
49792W        W13725  21.744  28.547   1.338
49793W        W13726  38.075   9.308   3.816
49794W        W13727  17.131  42.875   0.951
49795W        W13728  36.542  28.605  13.028
49796W        W13729  29.046  34.538   3.856
49797W        W13730  28.159  13.299   2.687
49798W        W13731  43.369  20.735   0.744
49799W        W13732  13.642  15.631  10.911
49800W        W13733  40.373  35.578   3.688
49801W        W13734  37.936  11.727  14.400
49802W        W13735   7.235  32.430  11.940
49803W        W13736  21.194   8.725   0.953
49804W        W13737  20.621  12.751  11.976
49805W        W13738   2.751  21.237  14.417
49806W        W13739  31.090  36.002   1.298
49807W        W13740   5.893  29.512  12.551
49808W        W13741  18.567  41.523   0.850
49809W        W13742  15.147  30.020   0.455
49810W        W13743  41.831  40.806   0.909
49811W        W13744  20.181  11.285  11.045
49812W        W13745   7.363  44.986  10.922
49813W        W13746  12.624  15.139   4.203
49814W        W13747  40.913  21.704  10.596
49815W        W13748   7.736  27.519  13.014
49816W        W13749  13.188   1.344   1.302
49817W        W13750  26.561   1.312   0.817
49818W        W13751  10.848  31.510  12.045
49819W        W13752  17.285  15.729   4.141
49820W        W13753   5.323   3.437   2.346
49821W        W13754  36.511  28.642  10.988
49822W        W13755  23.199  29.056  14.326
49823W        W13756  19.241   5.341   0.841
49824W        W13757  41.924  39.513  13.820
49825W        W13758  37.066  39.493  11.519
49826W        W13759  32.408  35.531   1.825
49827W        W13760   5.735  26.549   1.337
49828W        W13761  21.662  26.113   3.776
49829W        W13762  21.659  44.501   2.741
49830W        W13763  16.315   3.945  10.615
49831W        W13764  28.632  36.411   2.759
49832W        W13765  28.946  35.400  14.315
49833W        W13766  34.461  41.982  13.970
49834W        W13767  29.598  44.809   4.839
49835W        W13768  14.765  25.975   1.775
49836W        W13769   5.227  31.593  13.965
49837W        W13770  14.653  29.593  13.500
49838W        W13771   6.739  10.138  14.294
49839W        W13772  40.526   4.821   1.821
49840W        W13773  13.719  42.517   3.730
49841W        W13774  19.655  21.062  12.417
49842W        W13775  11.260  31.579   4.607
49843W        W13776  24.528  28.102  14.780
49844W        W13777   0.969   0.975   1.436
49845W        W13778  38.958  35.431   0.312
49846W        W13779   2.884  28.446  14.374
49847W        W13780  15.716   5.271  14.416
49848W        W13781  36.535  22.627   3.282
49849W        W13782  14.250   4.209   3.241
49850W        W13783  20.053  39.985   3.759
49851W        W13784  25.535  31.992   3.636
49852W        W13785  20.209  28.565   1.225
49853W        W13786   8.233  23.153   1.350
49854W        W13787   9.770   9.705   2.712
49855W        W13788   1.334  42.289   1.259
49856W        W13789  24.685  16.293  11.937
49857W        W13790  23.994  10.285  10.904
49858W        W13791  19.711  12.232   2.739
49859W        W13792  39.376   4.390   2.320
49860W        W13793  27.604  37.057  13.803
49861W        W13794  16.763  26.204  11.107
49862W        W13795  41.910  38.399   3.280
49863W        W13796   0.271  38.909   0.800
49864W        W13797  11.234   3.908  12.022
49865W        W13798   7.842  37.844   0.316
49866W        W13799  22.643   3.450   4.303
49867W        W13800  18.058  11.306  12.871
49868W        W13801  41.298  30.419  12.060
49869W        W13802  44.783  43.849   0.763
49870W        W13803   1.248  35.454   4.810
49871W        W13804  25.615  30.920  12.928
49872W        W13805  37.346  12.851   9.955
49873W        W13806  24.677  35.451  12.053
49874W        W13807  42.814  13.276   2.296
49875W        W13808  39.004  19.122   2.732
49876W        W13809  15.821   4.822   1.908
49877W        W13810  41.895   1.905   2.350
49878W        W13811  41.995  40.005   1.294
49879W        W13812   5.283  19.178   3.721
49880W        W13813  18.728   9.300  11.556
49881W        W13814  24.678  38.985  11.928
49882W        W13815   0.951   3.356   2.709
49883W        W13816  34.461   8.244   2.865
49884W        W13817  32.481  32.898  11.524
49885W        W13818  30.104  28.950   1.412
49886W        W13819  16.720   8.356   2.680
49887W        W13820   3.843  35.407   0.399
49888W        W13821  14.815  39.478   2.382
49889W        W13822  10.338  13.635  11.457
49890W        W13823  34.912  18.665   4.224
49891W        W13824  25.655  12.643   4.831
49892W        W13825  18.181   3.386  14.845
49893W        W13826  33.000  34.527  13.424
49894W        W13827   5.769  43.405   1.229
49895W        W13828   7.890  21.540  14.852
49896W        W13829  35.861  37.485   2.886
49897W        W13830   4.315  26.152  10.623
49898W        W13831  19.161  36.357   4.141
49899W        W13832  42.404  40.523  11.957
49900W        W13833  42.811  27.574   3.784
49901W        W13834  12.808  18.058  11.009
49902W        W13835  33.601  32.616   0.468
49903W        W13836  29.486  34.373  11.118
49904W        W13837  39.432   6.811   2.895
49905W        W13838  11.278   6.406  14.833
49906W        W13839  19.629  12.800   3.751
49907W        W13840  15.717   9.346  13.896
49908W        W13841  26.108  34.970  13.443
49909W        W13842  40.326   0.262   3.336
49910W        W13843   1.915   9.227   4.252
49911W        W13844  35.883   1.960  11.015
49912W        W13845  17.121  13.283  14.468
49913W        W13846   0.893  34.558   3.377
49914W        W13847  21.651  25.520   0.880
49915W        W13848  33.078  21.167  12.848
49916W        W13849  10.339  42.839   3.157
49917W        W13850   6.358  22.581   3.677
49918W        W13851   4.826  24.615   0.304
49919W        W13852   0.975   2.789  13.909
49920W        W13853  11.670  20.654  13.449
49921W        W13854  34.431   6.793  12.052
49922W        W13855  25.526  40.538  10.905
49923W        W13856   3.814  23.620  12.471
49924W        W13857   5.840  13.237   2.672
49925W        W13858  31.582  40.840  11.427
49926W        W13859   9.291   4.765  14.312
49927W        W13860  11.724   4.779   1.303
49928W        W13861  20.044  41.796  12.575
49929W        W13862   1.786   2.826  11.035
49930W        W13863   6.393   0.435   1.290
49931W        W13864  10.138  37.460   0.793
49932W        W13865   1.303   3.885  13.878
49933W        W13866  35.015  42.478   2.894
49934W        W13867  20.162  10.845  10.620
49935W        W13868  30.990  42.425   3.847
49936W        W13869   8.895  21.608  10.517
49937W        W13870  17.583  38.446  10.969
49938W        W13871  18.280   2.844  11.045
49939W        W13872  25.997  11.761  10.992
49940W        W13873  14.320  19.671  11.575
49941W        W13874   6.252  12.297   2.889
49942W        W13875   2.269  28.581  14.292
49943W        W13876   4.733  27.048   0.436
49944W        W13877  13.122  17.559   1.319
49945W        W13878  17.305  21.612  13.046
49946W        W13879  18.263  18.142  10.571
49947W        W13880  12.661  42.526   2.828
49948W        W13881  18.663  18.272   2.338
49949W        W13882  20.696  17.687   2.684
49950W        W13883  33.436  10.237   1.314
49951W        W13884  18.096  14.291  13.031
49952W        W13885  33.032  24.587  10.959
49953W        W13886   1.402  25.626  13.358
49954W        W13887  34.962  35.577  14.383
49955W        W13888  28.526  41.323   2.294
49956W        W13889  21.072  40.903  14.497
49957W        W13890  14.812  42.858   1.903
49958W        W13891  41.321  42.324  12.898
49959W        W13892   4.871   3.947   2.399
49960W        W13893  25.010   8.183   4.245
49961W        W13894  24.716  18.059   0.745
49962W        W13895  11.646  26.519   0.309
49963W        W13896  12.669  31.941   2.186
49964W        W13897  36.890  26.605  10.628
49965W        W13898  21.647  34.543   2.780
49966W        W13899  14.732  27.688  11.942
49967W        W13900  35.914  37.568  14.768
49968W        W13901   5.293  32.492   0.898
49969W        W13902  17.783  37.444  12.960
49970W        W13903   1.472   1.302   3.751
49971W        W13904   5.198   6.678  12.409
49972W        W13905  26.157  23.512   1.413
49973W        W13906  39.404  18.144   3.866
49974W        W13907  44.423  10.775  10.915
49975W        W13908  15.813  12.271  12.051
49976W        W13909  21.699   0.855   3.343
49977W        W13910  31.144   8.747   0.363
49978W        W13911  36.945  30.922   3.327
49979W        W13912  37.420  18.065  11.906
49980W        W13913   2.803   6.233  14.484
49981W        W13914  22.078   2.351   4.639
49982W        W13915  14.679  26.102   3.382
49983W        W13916  21.705  36.863  12.380
49984W        W13917   1.942  23.610  14.911
49985W        W13918  40.853  10.649   1.924
49986W        W13919   5.789   4.720   3.187
49987W        W13920  15.823  31.056  10.634
49988W        W13921  11.648  34.898  13.319
49989W        W13922  33.619  12.325   3.809
49990W        W13923   2.862  24.214   0.778
49991W        W13924  21.629  30.057  12.995
49992W        W13925  31.491  35.361   3.344
49993W        W13926  33.979  23.085   4.805
49994W        W13927  28.106   4.751   0.328
49995W        W13928  10.715   4.854  14.487
49996W        W13929  43.822  33.452   2.261
49997W        W13930  42.965   5.193   2.343
49998W        W13931  21.579  13.630   1.897
49999W        W13932  28.594   5.231  12.507
50000W        W13933  21.063  10.672   3.660
50001W        W13934  16.586  37.451   3.745
50002W        W13935  33.497  37.015  13.892
50003W        W13936   2.464  36.363  12.977
50004W        W13937   1.320  16.575  13.391
50005W        W13938  31.940  31.465  13.498
50006W        W13939  25.665  23.197   1.777
50007W        W13940  25.693  38.473   4.605
50008W        W13941  41.023  37.484  12.544
50009W        W13942  14.603   4.877   9.473
50010W        W13943  43.871  36.881   0.729
50011W        W13944  26.000  36.410   1.786
50012W        W13945  22.152  25.535   1.282
50013W        W13946   9.272  20.107  11.106
50014W        W13947   9.818  22.538  13.805
50015W        W13948  27.139   7.720  14.775
50016W        W13949  37.399  34.054   1.750
50017W        W13950   6.359  22.015   3.293
50018W        W13951  37.576  21.745  11.382
50019W        W13952  16.650  10.819   3.283
50020W        W13953  22.547  30.605   5.189
50021W        W13954  44.855  36.991  14.340
50022W        W13955   3.453   1.303  10.414
50023W        W13956  30.598  23.121  12.080
50024W        W13957   1.753  23.239  13.885
50025W        W13958   5.196  33.453  13.927
50026W        W13959  44.002  40.999   0.327
50027W        W13960  21.545  42.012   3.309
50028W        W13961  22.514   6.722   0.440
50029W        W13962  21.055  23.524  14.335
50030W        W13963  36.903  10.276  11.514
50031W        W13964  30.011  37.070   0.249
50032W        W13965  31.115  41.296  11.610
50033W        W13966  42.383   0.266  13.023
50034W        W13967  17.647   2.926  14.791
50035W        W13968  18.782  36.020   0.356
50036W        W13969  13.288  28.171  10.142
50037W        W13970   7.317  32.974  13.878
50038W        W13971  12.628  41.863   3.779
50039W        W13972  27.949  26.598   0.967
50040W        W13973  11.249   7.718   3.663
50041W        W13974  28.513  32.430  11.556
50042W        W13975  44.910  43.804  11.481
50043W        W13976   0.300   9.705   3.272
50044W        W13977  32.446   0.785  14.789
50045W        W13978  11.859  32.045  13.508
50046W        W13979   7.238  29.439   3.661
50047W        W13980  41.482  30.000  10.524
50048W        W13981   4.421  23.550   1.274
50049W        W13982   8.867  41.465  14.020
50050W        W13983  23.224  18.757  13.404
50051W        W13984   1.896  39.942   1.808
50052W        W13985  28.511  15.668  13.469
50053W        W13986  26.960   6.815   4.159
50054W        W13987  42.354  28.445  12.837
50055W        W13988   8.707  28.562  10.586
50056W        W13989  38.906  14.217   0.468
50057W        W13990  18.707  31.585  13.032
50058W        W13991  44.781   7.912   0.884
50059W        W13992  22.645   0.350  13.010
50060W        W13993   7.369  19.105  11.461
50061W        W13994   2.724  27.670   0.359
50062W        W13995   8.279   1.428  14.949
50063W        W13996  26.614   3.355  13.817
50064W        W13997  19.090  29.457   5.753
50065W        W13998  33.576  35.548  11.471
50066W        W13999  44.390  12.225  14.404
50067W        W14000   5.796  19.228  11.466
50068W        W14001  10.267  35.453   4.753
50069W        W14002   4.298  42.512   3.637
50070W        W14003  38.965  25.166  10.420
50071W        W14004  32.023   0.255   4.294
50072W        W14005  37.565  14.631   5.206
50073W        W14006  26.972  42.908  13.517
50074W        W14007   8.808   3.825  12.051
50075W        W14008  24.199  19.738   3.288
50076W        W14009  21.069  36.042   1.841
50077W        W14010  27.994   3.811  12.025
50078W        W14011   0.928  30.640   4.218
50079W        W14012  38.364   0.316   1.406
50080W        W14013  14.101  43.456  11.899
50081W        W14014   0.973   1.298   0.449
50082W        W14015  22.015  34.405  13.052
50083W        W14016   2.759   1.943  14.472
50084W        W14017  38.854  11.297   1.371
50085W        W14018   8.689  31.429  10.966
50086W        W14019   9.783   0.335  11.440
50087W        W14020  30.092  31.492   0.445
50088W        W14021  24.069  26.191   1.292
50089W        W14022   1.812  20.702  13.899
50090W        W14023  15.762  14.769  10.510
50091W        W14024  14.286  27.975  14.364
50092W        W14025   8.161  17.189  12.532
50093W        W14026  36.368   3.746   0.829
50094W        W14027  10.671  20.744   2.839
50095W        W14028  39.994  14.317   2.216
50096W        W14029  42.283  34.602  10.920
50097W        W14030  25.200  24.620   2.275
50098W        W14031  21.665  23.993   3.780
50099W        W14032  38.070   7.741   0.375
50100W        W14033  18.086  24.698   3.345
50101W        W14034  10.186  26.522  12.541
50102W        W14035  40.536  20.746  14.948
50103W        W14036  31.150   6.891   3.726
50104W        W14037  29.507  21.117   3.365
50105W        W14038  30.553  25.978   2.774
50106W        W14039   9.886  25.477   1.334
50107W        W14040  12.313  12.786  11.864
50108W        W14041   9.693   4.925   1.272
50109W        W14042   8.857   3.224  11.921
50110W        W14043  25.090   0.291   1.819
50111W        W14044  38.517  11.635   0.326
50112W        W14045  20.671  16.623  11.038
50113W        W14046   2.233  36.539  14.877
50114W        W14047  26.638  13.338   2.803
50115W        W14048  37.928  29.653   2.182
50116W        W14049  11.783  27.164   0.480
50117W        W14050  39.031  19.706   1.428
50118W        W14051  32.452   1.941  11.597
50119W        W14052  29.512  26.024   1.714
50120W        W14053  34.998  17.271  10.494
50121W        W14054   7.716  16.240   3.712
50122W        W14055  36.878  10.149   0.423
50123W        W14056  35.548  10.656  14.301
50124W        W14057  13.685   5.764   4.264
50125W        W14058  15.628  28.045  11.993
50126W        W14059   8.210  37.478  12.941
50127W        W14060  40.360   2.810   1.735
50128W        W14061  43.463  30.466  14.815
50129W        W14062  14.128  24.657   1.436
50130W        W14063  19.067  41.945  13.309
50131W        W14064  25.056  16.613   2.855
50132W        W14065  15.102   9.729   2.305
50133W        W14066  28.106  34.996   2.829
50134W        W14067  24.024  28.141   0.299
50135W        W14068  36.543  42.526   1.773
50136W        W14069  18.731  30.095  11.998
50137W        W14070  31.608   3.738   2.263
50138W        W14071  38.427  26.179   1.422
50139W        W14072   2.882  36.460   0.911
50140W        W14073  28.444  36.577  12.837
50141W        W14074  25.602  44.766   5.565
50142W        W14075  26.600   8.223  11.418
50143W        W14076  37.965  25.516   1.929
50144W        W14077  20.149  21.699  11.006
50145W        W14078  10.681  44.274   3.189
50146W        W14079  33.022   3.884   1.342
50147W        W14080  10.300  20.746  12.417
50148W        W14081  11.685  36.856  10.899
50149W        W14082  25.589  13.799   3.685
50150W        W14083  33.941  42.365   2.793
50151W        W14084  20.069  43.858   0.360
50152W        W14085  12.678   9.746  13.917
50153W        W14086  12.298  42.998   4.759
50154W        W14087  10.270  33.421  13.051
50155W        W14088  40.804  28.528  13.893
50156W        W14089  35.435  33.622  10.988
50157W        W14090   7.375  33.911  14.513
50158W        W14091  24.646  28.969  10.643
50159W        W14092  31.920  36.033   0.245
50160W        W14093  35.100   2.870   0.455
50161W        W14094  18.234  21.566  14.488
50162W        W14095   4.345  10.149  10.634
50163W        W14096  35.535   8.784  14.778
50164W        W14097   3.442  15.722   0.780
50165W        W14098  29.123  10.690  13.875
50166W        W14099  39.333  23.535  10.629
50167W        W14100  33.575  11.658   5.138
50168W        W14101   7.300  17.687   0.294
50169W        W14102  29.667  33.998  14.376
50170W        W14103  13.279  24.690   1.218
50171W        W14104  26.564  19.174   3.285
50172W        W14105  31.431  40.961   3.233
50173W        W14106  28.589  23.096  14.809
50174W        W14107   6.193  31.615   0.247
50175W        W14108  22.630  44.381   2.791
50176W        W14109  10.159   5.891  14.867
50177W        W14110  19.205  43.952   1.241
50178W        W14111  29.488  35.094   4.809
50179W        W14112  20.528  37.529   2.321
50180W        W14113   3.891  12.138  10.155
50181W        W14114  14.114  29.165  12.577
50182W        W14115  22.654   7.758   2.394
50183W        W14116  36.525   1.328   1.733
50184W        W14117  40.522  24.050   0.280
50185W        W14118  13.137   2.884   2.756
50186W        W14119  22.225  26.171   3.324
50187W        W14120   4.943   4.229   2.308
50188W        W14121  15.098  18.671  14.876
50189W        W14122  24.071  26.562  12.088
50190W        W14123  27.624   1.767   5.648
50191W        W14124   4.254  44.414   2.764
50192W        W14125  24.975  22.243   0.356
50193W        W14126  29.431  40.026  12.969
50194W        W14127   5.210  43.437   0.304
50195W        W14128   3.404  29.144  13.429
50196W        W14129  11.806  29.467  13.544
50197W        W14130  43.836  16.123  14.812
50198W        W14131  20.055   1.467   4.219
50199W        W14132  12.708  24.985   2.186
50200W        W14133  25.006  30.961   4.209
50201W        W14134  33.495  34.480  10.607
50202W        W14135  11.191  14.618   1.296
50203W        W14136  38.506  41.353  14.429
50204W        W14137  10.713  35.067   0.370
50205W        W14138  15.675   0.863   0.858
50206W        W14139  44.815  32.061  14.025
50207W        W14140  29.146  36.917   0.965
50208W        W14141   2.844  24.226  12.057
50209W        W14142  35.449  13.729  10.471
50210W        W14143  41.513  31.109   2.881
50211W        W14144  21.692  14.590  10.906
50212W        W14145   0.842  37.935   5.170
50213W        W14146   4.806  18.282  12.853
50214W        W14147  25.980  26.036  12.496
50215W        W14148  19.217  17.291  12.998
50216W        W14149   5.197  44.791   2.843
50217W        W14150  40.025  39.811  14.501
50218W        W14151  14.227   5.921   3.632
50219W        W14152  13.693  44.956   1.248
50220W        W14153  12.654  34.482   0.361
50221W        W14154  39.472  18.065  13.986
50222W        W14155  21.254  28.559  12.886
50223W        W14156  10.235  29.636  12.866
50224W        W14157  22.603  21.639  10.913
50225W        W14158  29.513  22.198  14.372
50226W        W14159  16.176  16.123  11.574
50227W        W14160  34.877  35.491   3.227
50228W        W14161   8.329  27.006  10.994
50229W        W14162  35.539  26.660  14.832
50230W        W14163  43.457  38.000  13.308
50231W        W14164  28.005  21.756  11.892
50232W        W14165   6.859   5.916  14.479
50233W        W14166  30.910  39.839   0.771
50234W        W14167   0.360  35.416   1.304
50235W        W14168  26.530  26.074   4.322
50236W        W14169   5.724  16.173   0.414
50237W        W14170  32.591  25.038  12.874
50238W        W14171  19.095  43.972   1.934
50239W        W14172  20.139   9.232  10.598
50240W        W14173  21.261  19.144   4.614
50241W        W14174  31.981  43.432  11.388
50242W        W14175  19.270  36.847   3.277
50243W        W14176   4.270   1.448  10.525
50244W        W14177  31.027   7.380   0.348
50245W        W14178  36.405  14.214   2.231
50246W        W14179  37.861   9.878  13.943
50247W        W14180  40.408  10.367   3.680
50248W        W14181  41.465   7.797  11.450
50249W        W14182  37.896  28.094  12.983
50250W        W14183  21.703   9.844  12.894
50251W        W14184  32.987   4.330   2.691
50252W        W14185   6.823   3.352   0.251
50253W        W14186  12.298  38.351   0.339
50254W        W14187   5.870  30.524   0.894
50255W        W14188  23.108  13.742  11.000
50256W        W14189  35.003   1.928   2.316
50257W        W14190  32.492  10.787   1.280
50258W        W14191   8.240  12.707   4.221
50259W        W14192  10.141   4.423  12.899
50260W        W14193  34.028   2.277  13.053
50261W        W14194  30.155  18.700   0.873
50262W        W14195  26.690  13.166   5.090
50263W        W14196   7.845  27.030   0.792
50264W        W14197  27.178  16.672  12.020
50265W        W14198  22.154  38.356  10.918
50266W        W14199  44.763  16.145   1.360
50267W        W14200  13.291   7.826  13.951
50268W        W14201  23.497  24.144  14.969
50269W        W14202  12.342  42.423   4.691
50270W        W14203   2.273  16.225   0.921
50271W        W14204  35.603  32.953   1.314
50272W        W14205  16.173   8.246  11.525
50273W        W14206  39.461   7.873  10.921
50274W        W14207  16.198  41.986   3.701
50275W        W14208  16.288  25.622   1.777
50276W        W14209   4.800  26.666   4.667
50277W        W14210  27.507  19.715  14.899
50278W        W14211  21.085   4.292   1.782
50279W        W14212  23.064  28.651  13.440
50280W        W14213  35.456   1.245   4.247
50281W        W14214  13.698  41.342   3.166
50282W        W14215  28.550  39.539   2.198
50283W        W14216  15.108  27.652  12.406
50284W        W14217   1.861  42.305   4.242
50285W        W14218  16.711   3.441   4.147
50286W        W14219  19.245  40.041  10.587
50287W        W14220   4.897  28.977   4.697
50288W        W14221   1.266  41.512   1.866
50289W        W14222  42.885   2.808  13.062
50290W        W14223  33.577  15.264   2.280
50291W        W14224   1.360   2.324  13.536
50292W        W14225   8.385  42.901   4.349
50293W        W14226  15.712  16.192  10.640
50294W        W14227  32.007  43.479   0.384
50295W        W14228  11.183  38.909  12.913
50296W        W14229  28.985  24.051  10.497
50297W        W14230  29.023   5.273   0.845
50298W        W14231   8.809  37.433  12.883
50299W        W14232  28.018  11.148   3.298
50300W        W14233  31.447  26.512   1.840
50301W        W14234   3.279  18.749  12.367
50302W        W14235  37.016  36.897  13.872
50303W        W14236  17.674  41.357  14.978
50304W        W14237   9.703  35.857   4.249
50305W        W14238   0.346  19.050  10.608
50306W        W14239  17.731  30.037  14.872
50307W        W14240  41.373  25.996   0.763
50308W        W14241  11.821   5.325  14.445
50309W        W14242  39.898  21.635   2.754
50310W        W14243  13.197   7.351  11.397
50311W        W14244  31.127   4.296   3.282
50312W        W14245   3.838  43.398  14.451
50313W        W14246  12.666  12.683  14.020
50314W        W14247  39.319  34.600  14.923
50315W        W14248  42.877  36.488   5.596
50316W        W14249   5.362  35.417  11.087
50317W        W14250  18.682  32.518   3.168
50318W        W14251  20.595  16.626   5.190
50319W        W14252  31.105  33.059   3.306
50320W        W14253  36.036  35.042   3.286
50321W        W14254  21.091  15.166   4.116
50322W        W14255  41.334  10.180   3.837
50323W        W14256  32.065   6.362   0.846
50324W        W14257   7.858  15.656   3.369
50325W        W14258   3.295  33.530  13.436
50326W        W14259  14.750  34.468  11.125
50327W        W14260   9.694  27.055  10.610
50328W        W14261  19.638   3.358  12.029
50329W        W14262   2.236   7.215  12.472
50330W        W14263  28.122   9.799   4.311
50331W        W14264  41.939   7.863  12.888
50332W        W14265  38.965  17.244  14.793
50333W        W14266   7.270  11.652  13.897
50334W        W14267  31.973   9.855  14.487
50335W        W14268   6.220  22.051  10.560
50336W        W14269   7.280   0.780  12.028
50337W        W14270  26.079  18.265  13.935
50338W        W14271  21.529  42.498  10.566
50339W        W14272  12.345  43.941   2.699
50340W        W14273  43.906  41.881   1.934
50341W        W14274  38.058   6.335  14.329
50342W        W14275   2.863  16.309   0.942
50343W        W14276  43.402   6.255  11.118
50344W        W14277  28.128  33.965  10.487
50345W        W14278  20.702  21.559   4.198
50346W        W14279  39.367  20.162   0.912
50347W        W14280  37.532  11.669   2.304
50348W        W14281  13.779  36.370   0.941
50349W        W14282  18.239   6.707   4.597
50350W        W14283  28.545  30.935  10.616
50351W        W14284  25.174  15.248   1.420
50352W        W14285  14.320  18.579  12.082
50353W        W14286  33.559  14.314  10.428
50354W        W14287  21.746  30.156  11.937
50355W        W14288  30.016   6.872  14.838
50356W        W14289  31.644  31.981  13.421
50357W        W14290  23.097  23.110   1.283
50358W        W14291  17.265  36.943  11.090
50359W        W14292  29.955  34.611   1.421
50360W        W14293  43.868  10.865   0.310
50361W        W14294  34.017  33.434  11.045
50362W        W14295  35.385  42.885   3.837
50363W        W14296  27.676  27.115   4.213
50364W        W14297  26.181  39.809  13.042
50365W        W14298   3.375  35.563  10.439
50366W        W14299  38.963  21.154   4.680
50367W        W14300  16.132  22.592  10.929
50368W        W14301  40.003  14.749  14.364
50369W        W14302  10.193   3.414   2.672
50370W        W14303   7.255  31.134  13.995
50371W        W14304   0.937   1.382  10.460
50372W        W14305  16.147  33.433  10.511
50373W        W14306  29.487  11.304   1.894
50374W        W14307  15.155   6.882   0.886
50375W        W14308   8.685  11.325   3.679
50376W        W14309  43.482  37.856   3.343
50377W        W14310  23.669  35.882   1.919
50378W        W14311  10.831  37.906  13.487
50379W        W14312  19.712  10.264  13.882
50380W        W14313  38.826  41.002   3.668
50381W        W14314  39.044  34.877  14.792
50382W        W14315   4.427   9.231  14.354
50383W        W14316  36.060  26.519  13.523
50384W        W14317  40.821  10.217  10.936
50385W        W14318  22.741   6.818  14.297
50386W        W14319  28.121  34.534  11.406
50387W        W14320  40.917  23.000   2.751
50388W        W14321  25.964   5.846   2.848
50389W        W14322  22.641  17.300  10.106
50390W        W14323   5.841  41.533   4.246
50391W        W14324  36.015  41.905   3.850
50392W        W14325  15.669  43.838   2.846
50393W        W14326   5.404  38.551  13.502
50394W        W14327   4.236  32.478  10.987
50395W        W14328   6.875  11.291  13.484
50396W        W14329  39.958  19.198  11.414
50397W        W14330   1.868  11.680   0.835
50398W        W14331  42.442  34.908  12.929
50399W        W14332  18.588  16.630   3.277
50400W        W14333   0.325  36.894   0.375
50401W        W14334  13.115  13.322   2.386
50402W        W14335  17.719   0.370  12.878
50403W        W14336  36.511  17.062  10.431
50404W        W14337   7.344  32.030   0.300
50405W        W14338  37.495  42.381  12.892
50406W        W14339  22.722  37.455  11.375
50407W        W14340   7.679  31.956   0.432
50408W        W14341  37.410   9.682   0.838
50409W        W14342  16.130   2.273   4.153
50410W        W14343  13.292  38.490  11.059
50411W        W14344  10.305  17.274   1.822
50412W        W14345  27.492  18.719  13.371
50413W        W14346  33.919  21.758   0.421
50414W        W14347  23.178  22.669  14.430
50415W        W14348  10.306  16.754  13.032
50416W        W14349  19.653  16.734   1.399
50417W        W14350  15.787  26.116  12.400
50418W        W14351  24.646  22.159  14.020
50419W        W14352  32.100  28.982   5.252
50420W        W14353  18.138  38.366  11.113
50421W        W14354  33.936  39.485   1.371
50422W        W14355  22.203  24.590  14.759
50423W        W14356  22.696  14.802  13.838
50424W        W14357  42.805  37.918  11.866
50425W        W14358  11.246   0.401   1.389
50426W        W14359  39.882  11.776  13.412
50427W        W14360  31.644  37.540   1.233
50428W        W14361   9.343  30.949  13.828
50429W        W14362  42.948  28.501  11.037
50430W        W14363  39.968  15.727   3.278
50431W        W14364   8.698  41.313  11.535
50432W        W14365  38.926  13.344   2.393
50433W        W14366   9.684  15.273   4.633
50434W        W14367  27.123   0.785  10.980
50435W        W14368   9.253  32.051   9.945
50436W        W14369  38.850  20.120  10.918
50437W        W14370   6.393  28.055   2.315
50438W        W14371  16.639  25.684   0.352
50439W        W14372   7.793  34.993  11.989
50440W        W14373  44.365  16.714  10.904
50441W        W14374   4.928  17.266  11.459
50442W        W14375  39.926  35.994  11.426
50443W        W14376  17.607  41.837  11.977
50444W        W14377  11.744  13.129   4.740
50445W        W14378  39.896   8.705   3.219
50446W        W14379  31.119  29.048  14.864
50447W        W14380   6.681   9.747  11.117
50448W        W14381  18.070  24.026  10.991
50449W        W14382  23.215  14.306   2.804
50450W        W14383  27.147  26.026  10.409
50451W        W14384   7.176  38.498   4.175
50452W        W14385   6.770  16.740  10.641
50453W        W14386  28.940  26.523  14.879
50454W        W14387  11.175   3.278  11.876
50455W        W14388  21.715   6.233  13.795
50456W        W14389  41.926  25.984   3.161
50457W        W14390  27.136   6.716   2.814
50458W        W14391   4.300  40.360  14.962
50459W        W14392  44.314  11.283   4.772
50460W        W14393  21.098   8.280  11.552
50461W        W14394  18.587   9.839   0.395
50462W        W14395  10.335  30.559  10.481
50463W        W14396  23.040  26.685   3.340
50464W        W14397  34.944  11.167  14.323
50465W        W14398  11.259   5.913  13.915
50466W        W14399  44.860  31.439   3.151
50467W        W14400  18.595  12.214  10.938
50468W        W14401  26.695  10.153  10.009
50469W        W14402  23.555  31.898   2.191
50470W        W14403   7.889  20.685  13.031
50471W        W14404  33.998  26.619  12.904
50472W        W14405  39.842  22.129  14.504
50473W        W14406  30.067  42.292   4.118
50474W        W14407  32.104  29.521  10.483
50475W        W14408  12.809   0.297  14.922
50476W        W14409  26.587  10.302   2.198
50477W        W14410   2.758   2.388  14.024
50478W        W14411  34.987  17.288   4.131
50479W        W14412  25.090   0.274   3.380
50480W        W14413  20.110  30.121  13.863
50481W        W14414  18.253  17.203  13.823
50482W        W14415  31.592  16.624   1.400
50483W        W14416  34.462  40.822  12.957
50484W        W14417  13.123   7.760   1.871
50485W        W14418  30.553  18.109   0.410
50486W        W14419  33.121  13.618  13.813
50487W        W14420  37.403  12.740   3.712
50488W        W14421  40.420  28.949  14.388
50489W        W14422  12.167  44.318  12.021
50490W        W14423  44.933  15.289   1.393
50491W        W14424  41.329  44.927   4.310
50492W        W14425  25.487   8.880  13.491
50493W        W14426  23.675  44.312  13.335
50494W        W14427  41.486  14.633   4.233
50495W        W14428  37.538  26.652   0.858
50496W        W14429  30.611  43.473   3.286
50497W        W14430   5.321  43.020   3.753
50498W        W14431   2.908  29.977  14.981
50499W        W14432  13.706  21.222   1.340
50500W        W14433  30.991  31.975  11.453
50501W        W14434  32.437  25.963  10.444
50502W        W14435  11.690  32.899  12.073
50503W        W14436  36.886  26.082  12.516
50504W        W14437  37.542  36.508  14.467
50505W        W14438  17.754  11.181  10.532
50506W        W14439  30.070   3.883  14.415
50507W        W14440  37.381  26.021   0.250
50508W        W14441  39.442  28.033  11.030
50509W        W14442  25.617  29.534  11.860
50510W        W14443  15.155   6.855  11.522
50511W        W14444  18.238  20.249   2.265
50512W        W14445   0.441  39.905   2.840
50513W        W14446   6.231  26.503   2.822
50514W        W14447  12.793  39.895  13.945
50515W        W14448  34.922  33.001   3.316
50516W        W14449   8.309  21.646   1.747
50517W        W14450  15.292  39.868   0.887
50518W        W14451  31.444  32.888   3.303
50519W        W14452  10.190  40.048   1.347
50520W        W14453   8.789  32.440   0.814
50521W        W14454  33.933  30.977  13.307
50522W        W14455  22.095  36.461   3.146
50523W        W14456  35.464   2.379   0.748
50524W        W14457  19.711  39.877   1.406
50525W        W14458   4.298  34.040   1.346
50526W        W14459  19.262  20.244  11.415
50527W        W14460  33.955  15.232  14.361
50528W        W14461  23.681  16.641   4.743
50529W        W14462  16.106  15.732  11.903
50530W        W14463  22.625  31.516   2.263
50531W        W14464  29.596   3.910   0.922
50532W        W14465  21.640  21.550   2.353
50533W        W14466  36.910  18.700   0.438
50534W        W14467  17.744  15.320  13.887
50535W        W14468  16.726  11.777   2.247
50536W        W14469  27.188  44.782  11.477
50537W        W14470   6.731  23.172   1.294
50538W        W14471  36.088  35.531  11.419
50539W        W14472   7.746   1.248  14.835
50540W        W14473  37.374   8.835   2.760
50541W        W14474   2.786  28.056  12.439
50542W        W14475  24.017  11.693   1.868
50543W        W14476  16.253  12.205  13.925
50544W        W14477  15.138   2.272   3.210
50545W        W14478  36.369  34.074  12.488
50546W        W14479  26.178   2.432   4.247
50547W        W14480  40.844  12.785   1.789
50548W        W14481  41.517  39.457  10.639
50549W        W14482  12.345  11.205  12.422
50550W        W14483  28.581  29.112   4.676
50551W        W14484   5.371   2.950  10.589
50552W        W14485  37.078   8.719   1.418
50553W        W14486  37.385  11.192   1.826
50554W        W14487   2.243  28.090  10.938
50555W        W14488  36.043  11.826  14.794
50556W        W14489  42.435   9.267  11.914
50557W        W14490  10.696  24.526  14.506
50558W        W14491  17.211  27.181   1.414
50559W        W14492  37.980  38.433   1.722
50560W        W14493  21.710   1.859   1.243
50561W        W14494  32.513  39.485  11.010
50562W        W14495  24.553  34.939   4.207
50563W        W14496  44.898   0.957  10.527
50564W        W14497   0.848  16.156  13.912
50565W        W14498  14.715  28.441  10.490
50566W        W14499  18.704  14.626   1.694
50567W        W14500  15.610  28.517  14.813
50568W        W14501  25.705  30.936  14.349
50569W        W14502  34.866  14.636  14.338
50570W        W14503  25.192  43.864  13.518
50571W        W14504  30.451   9.223  12.427
50572W        W14505  29.959  34.562  12.469
50573W        W14506  40.822   9.873   4.274
50574W        W14507  41.891  24.575   4.783
50575W        W14508  18.248  16.574   4.606
50576W        W14509   9.376   5.404   9.667
50577W        W14510  11.739  13.787   1.897
50578W        W14511   4.284  28.544  11.938
50579W        W14512  21.757  24.172  14.275
50580W        W14513  25.063  29.083   3.311
50581W        W14514  15.804  22.740   4.157
50582W        W14515   8.406  16.669   3.341
50583W        W14516  44.775   0.932   1.829
50584W        W14517   6.300  35.019  12.577
50585W        W14518  11.313   1.404  11.860
50586W        W14519  40.364  31.923   2.366
50587W        W14520   4.796   0.766   4.350
50588W        W14521   8.358  29.533  11.438
50589W        W14522  32.025  15.720   9.935
50590W        W14523  18.050  37.517   4.301
50591W        W14524  36.450  28.070   2.266
50592W        W14525   1.964  40.927   0.389
50593W        W14526  30.916  21.210   1.896
50594W        W14527   7.807  30.562  14.009
50595W        W14528  18.607  16.088   0.741
50596W        W14529  40.400  15.194  13.795
50597W        W14530   9.183  33.612  14.299
50598W        W14531  24.085  43.928  11.526
50599W        W14532   4.225  35.988   1.393
50600W        W14533  12.767  14.783  12.375
50601W        W14534  32.458  34.948  11.602
50602W        W14535  17.249  15.797  12.948
50603W        W14536  31.479   2.342   0.256
50604W        W14537  38.959  15.295   4.729
50605W        W14538   1.962  31.439   3.330
50606W        W14539  36.402  17.635   3.687
50607W        W14540   8.396  38.905   4.751
50608W        W14541  32.532  38.371  14.018
50609W        W14542  16.220  19.047  14.803
50610W        W14543   2.883   6.421   4.122
50611W        W14544  22.676   2.358  13.537
50612W        W14545   6.330  36.421   3.687
50613W        W14546  36.958  20.597   4.256
50614W        W14547  11.278  17.160   4.251
50615W        W14548  11.148  23.064  13.950
50616W        W14549  23.544   2.915   3.348
50617W        W14550  11.230  20.128  14.019
50618W        W14551   0.819  41.490   0.955
50619W        W14552  39.551  22.091   2.217
50620W        W14553   9.230  11.803  11.571
50621W        W14554  16.762  21.210  10.072
50622W        W14555  18.057  40.982   1.877
50623W        W14556  30.958  32.968  13.797
50624W        W14557  43.942  37.518   1.418
50625W        W14558  17.191  32.042   2.290
50626W        W14559  32.494  18.097   3.312
50627W        W14560  18.639  42.898   5.145
50628W        W14561  33.526  15.327   3.382
50629W        W14562  23.556  34.508  12.428
50630W        W14563   8.240  44.426   2.674
50631W        W14564  19.257  12.701   0.260
50632W        W14565  31.083  17.636  13.041
50633W        W14566  10.791   9.779   3.842
50634W        W14567  43.879  24.991   3.151
50635W        W14568  37.541  18.208  14.026
50636W        W14569  10.255  14.131  13.469
50637W        W14570  25.991  13.182   4.658
50638W        W14571  23.691  43.999  10.637
50639W        W14572  19.250  31.470   4.207
50640W        W14573  15.730  40.483  10.461
50641W        W14574  30.002  41.418  13.944
50642W        W14575  15.706  34.884  10.896
50643W        W14576   4.832  21.733  11.515
50644W        W14577   0.355  26.482  10.957
50645W        W14578  23.169  37.407  13.501
50646W        W14579   4.892  18.700  14.829
50647W        W14580  29.008  39.501   1.409
50648W        W14581  20.248  33.536   4.667
50649W        W14582  20.734  37.438  14.465
50650W        W14583   4.745  39.354   2.223
50651W        W14584  42.008  34.535   1.786
50652W        W14585  11.690  39.531   4.211
50653W        W14586   4.223  41.022  14.296
50654W        W14587   5.400  10.769   2.228
50655W        W14588  42.414  39.516  11.993
50656W        W14589   8.375  42.402   2.304
50657W        W14590  29.020   1.741   0.774
50658W        W14591  35.889   7.809   5.156
50659W        W14592  32.507   3.953   1.290
50660W        W14593  40.442  21.755   0.780
50661W        W14594   5.266  26.697   3.748
50662W        W14595  38.942  11.351  10.428
50663W        W14596  24.705  36.015   4.169
50664W        W14597  12.326  40.357  14.343
50665W        W14598  36.428  44.424  12.046
50666W        W14599  43.446  23.579  10.483
50667W        W14600  32.076  23.587  14.027
50668W        W14601  13.765  31.075   1.865
50669W        W14602   8.297  42.449   1.706
50670W        W14603  14.679  15.224   0.373
50671W        W14604  21.090  24.004   3.294
50672W        W14605  25.495  26.630   3.280
50673W        W14606  23.589  37.543  14.382
50674W        W14607  10.153   9.210  12.979
50675W        W14608  32.515   1.784   4.256
50676W        W14609  27.530  23.109  13.035
50677W        W14610  18.680  31.598   4.748
50678W        W14611  11.266  24.638  14.484
50679W        W14612  40.935  20.590  10.567
50680W        W14613  23.112   2.867   1.333
50681W        W14614  16.318  27.684   0.364
50682W        W14615   8.873  11.847   2.267
50683W        W14616  32.946  39.002  12.004
50684W        W14617  21.243  21.531   2.213
50685W        W14618  23.674  20.248   3.783
50686W        W14619  13.290  20.221  14.936
50687W        W14620  19.174  40.507  11.585
50688W        W14621  27.175  10.258  14.977
50689W        W14622  40.334  44.834  12.048
50690W        W14623  22.743  21.720   1.722
50691W        W14624  39.530  13.319   2.239
50692W        W14625  27.542  23.141   2.670
50693W        W14626  11.626  25.577  12.993
50694W        W14627  35.499  26.686   2.193
50695W        W14628  28.006  29.454   4.605
50696W        W14629  34.557  40.375   3.632
50697W        W14630  20.698  24.162   0.949
50698W        W14631  36.404  15.195   4.142
50699W        W14632  32.455   7.700  13.018
50700W        W14633  41.386  43.322   0.448
50701W        W14634  31.007  17.254   3.847
50702W        W14635  14.589  13.242  13.314
50703W        W14636  13.724  12.673  11.575
50704W        W14637  11.357   8.187  10.413
50705W        W14638  24.725  34.962  11.956
50706W        W14639  34.380   4.903  14.943
50707W        W14640  10.641  39.876  14.765
50708W        W14641  41.526  28.992  10.889
50709W        W14642  36.039  32.996   0.872
50710W        W14643  29.655  35.032  11.061
50711W        W14644  43.887   5.734  10.501
50712W        W14645   6.262  26.048   2.336
50713W        W14646  18.275  20.251   3.829
50714W        W14647  43.369  17.252   4.680
50715W        W14648  36.540  11.262  14.505
50716W        W14649  35.407  43.910  13.977
50717W        W14650  13.170  12.282  13.424
50718W        W14651  31.495  33.455   4.796
50719W        W14652  42.341  31.943   0.926
50720W        W14653   0.931  11.712  10.063
50721W        W14654  13.784  33.410  13.375
50722W        W14655   0.934  18.739   1.221
50723W        W14656  31.627  29.447   4.791
50724W        W14657  15.669  15.087   1.308
50725W        W14658   5.391  41.933   0.483
50726W        W14659  23.644  32.978  12.014
50727W        W14660  21.017  12.674  13.519
50728W        W14661  12.623  33.539  12.081
50729W        W14662  22.627  44.357   4.630
50730W        W14663  22.053  12.211   4.270
50731W        W14664  39.377  21.048  11.059
50732W        W14665   4.390  10.195  13.313
50733W        W14666  37.873   9.747   2.381
50734W        W14667  13.322   5.204  11.026
50735W        W14668  38.558  16.657  11.434
50736W        W14669  39.486  19.221   0.450
50737W        W14670  28.597  29.974  13.377
50738W        W14671   5.223   6.182   5.246
50739W        W14672  16.274   8.306  12.014
50740W        W14673  16.792  30.958   0.442
50741W        W14674   3.713   7.190  14.971
50742W        W14675  13.700  40.534  10.925
50743W        W14676  31.008  44.923   0.412
50744W        W14677  14.590   2.270   4.318
50745W        W14678   0.472  37.505   2.383
50746W        W14679  25.141   0.476  11.592
50747W        W14680  33.511   8.833  11.565
50748W        W14681   5.733  34.037  10.481
50749W        W14682  28.045   6.854  10.593
50750W        W14683  12.175  23.550  13.798
50751W        W14684  36.397  44.446   5.169
50752W        W14685   3.943  16.664  13.472
50753W        W14686   9.796  22.741   3.271
50754W        W14687  39.819   7.216  14.877
50755W        W14688  38.439  42.922  14.994
50756W        W14689  23.194  34.938  14.779
50757W        W14690  16.247  22.212  14.915
50758W        W14691   9.276  39.017  13.894
50759W        W14692  30.142  30.615  13.957
50760W        W14693   5.840  42.289  13.439
50761W        W14694  40.489  44.390   2.806
50762W        W14695  33.109  11.285  11.530
50763W        W14696  13.733  28.064  12.038
50764W        W14697  28.523   2.798   1.292
50765W        W14698  34.028  20.725  12.989
50766W        W14699  38.534   8.299   4.145
50767W        W14700   8.843  25.601  12.839
50768W        W14701  31.962  27.161   4.118
50769W        W14702  33.915  38.037  14.842
50770W        W14703  33.593  43.389   0.364
50771W        W14704   4.776  35.401  11.048
50772W        W14705   2.740  37.515  10.548
50773W        W14706   4.305   7.755  10.550
50774W        W14707  13.197  38.826  12.391
50775W        W14708   8.284  11.855  12.844
50776W        W14709  35.502  19.554  13.467
50777W        W14710   9.356  26.625  10.594
50778W        W14711  12.312   2.776   1.837
50779W        W14712  33.534  30.029   2.697
50780W        W14713  41.929  13.636  14.512
50781W        W14714   2.906  38.017   0.943
50782W        W14715  20.647  13.277   4.801
50783W        W14716  41.455  21.049  12.052
50784W        W14717  12.340  16.588   0.923
50785W        W14718   7.696  30.062  10.946
50786W        W14719  13.639   3.357   0.451
50787W        W14720  21.633  32.104  13.435
50788W        W14721   5.751  21.711   0.425
50789W        W14722   9.248  37.378   2.277
50790W        W14723  25.488  38.472  12.388
50791W        W14724  18.184  18.100  12.945
50792W        W14725  29.464  43.448  14.297
50793W        W14726  34.028   0.413   1.800
50794W        W14727  16.689  12.285  14.424
50795W        W14728  34.070  22.676   4.158
50796W        W14729  10.381  36.573  10.939
50797W        W14730  44.372  29.950   2.312
50798W        W14731  26.076  38.346   1.817
50799W        W14732  40.037  29.921  14.467
50800W        W14733  23.144  29.447   0.476
50801W        W14734  36.408   9.833   1.212
50802W        W14735  26.684  40.999  11.903
50803W        W14736   0.857  39.511   1.765
50804W        W14737  12.840  23.733  11.093
50805W        W14738   2.411   4.820   3.383
50806W        W14739   4.323  28.067  12.563
50807W        W14740  35.055  34.105   3.201
50808W        W14741  20.550  15.668  11.441
50809W        W14742  24.074  35.585   1.356
50810W        W14743  19.210  37.473   2.415
50811W        W14744  18.791  26.961   1.797
50812W        W14745   8.743  14.331  12.010
50813W        W14746  17.653  30.528  11.924
50814W        W14747  34.960  21.033   5.229
50815W        W14748  22.219  23.048   4.602
50816W        W14749  23.639  34.419   2.738
50817W        W14750   3.283  30.997  12.897
50818W        W14751  44.394   1.757  11.599
50819W        W14752  10.815   4.799   0.459
50820W        W14753  21.714   2.761  11.870
50821W        W14754  35.374  18.747  11.412
50822W        W14755  15.327  12.757   0.378
50823W        W14756  18.759   2.352  13.893
50824W        W14757  33.588  22.591   2.344
50825W        W14758  40.886  34.111  10.482
50826W        W14759  10.284   0.867   3.194
50827W        W14760  33.562  25.987  12.002
50828W        W14761  23.212  37.565   4.820
50829W        W14762  31.896   0.481   0.447
50830W        W14763  36.955   2.848   2.218
50831W        W14764  15.778  41.939   0.384
50832W        W14765  14.194  10.684   2.859
50833W        W14766  15.690  44.869   1.395
50834W        W14767  32.966   5.222  11.471
50835W        W14768  34.060  11.796  13.497
50836W        W14769  38.542   6.295   3.210
50837W        W14770  27.471  41.961  12.843
50838W        W14771  30.452  18.609   0.369
50839W        W14772  26.019  11.129  14.281
50840W        W14773   0.432  35.982  14.974
50841W        W14774  24.224  32.898   0.910
50842W        W14775   1.906  22.700   2.823
50843W        W14776  38.564  33.904  14.306
50844W        W14777  27.173  21.725   3.278
50845W        W14778  33.020   2.821  10.415
50846W        W14779  30.027  42.887   1.830
50847W        W14780   1.451  20.714   1.290
50848W        W14781   9.678  39.920  13.392
50849W        W14782  40.471  29.491   3.296
50850W        W14783  26.698   8.782  14.003
50851W        W14784  31.480  40.035   1.781
50852W        W14785  38.350  38.887   0.803
50853W        W14786   4.428  14.812  11.998
50854W        W14787  18.683  42.926  12.406
50855W        W14788  32.407  36.947   4.196
50856W        W14789  23.596  26.686  13.393
50857W        W14790  38.014   6.796   2.343
50858W        W14791   9.692  21.612  10.618
50859W        W14792  28.965   8.759   4.338
50860W        W14793  13.664  43.320  11.945
50861W        W14794   8.745  34.113   4.163
50862W        W14795  12.237  41.917   1.399
50863W        W14796  28.945  13.767   2.217
50864W        W14797  10.687   7.313   0.817
50865W        W14798  17.214   6.894  13.519
50866W        W14799  21.251   7.707   2.829
50867W        W14800  13.637  21.137  11.884
50868W        W14801  12.625  23.689   4.649
50869W        W14802  23.566   4.721  11.115
50870W        W14803   8.835  36.976  13.437
50871W        W14804  26.051  40.416   3.317
50872W        W14805  28.045   0.913   0.803
50873W        W14806  32.896  26.951  13.946
50874W        W14807  40.844  23.177  13.984
50875W        W14808  44.465  39.819  14.325
50876W        W14809  14.632  29.519  10.623
50877W        W14810  38.887  23.576  12.000
50878W        W14811  24.594  33.603  14.274
50879W        W14812  21.610  18.567  11.957
50880W        W14813  13.270  44.449   3.819
50881W        W14814  16.078  15.131  14.932
50882W        W14815  36.059  15.809   4.114
50883W        W14816  35.909  34.962  12.435
50884W        W14817  28.058  33.973   4.669
50885W        W14818  34.471   5.287  14.788
50886W        W14819   2.840  32.988  13.503
50887W        W14820   7.410   8.211   0.310
50888W        W14821  38.992  10.164  14.411
50889W        W14822  42.935  12.289  12.908
50890W        W14823  19.578  11.746   0.787
50891W        W14824   5.231  28.577   0.844
50892W        W14825  43.315  22.660   4.762
50893W        W14826   7.278  28.027  14.502
50894W        W14827  34.059  29.122   1.879
50895W        W14828   1.895   7.676  14.478
50896W        W14829  15.716  21.145  11.113
50897W        W14830   6.800   6.718   3.248
50898W        W14831  12.212   1.941   2.210
50899W        W14832  10.850  11.262  11.002
50900W        W14833  11.683  22.615  13.049
50901W        W14834  24.164   2.430  14.404
50902W        W14835  12.320  44.877  13.326
50903W        W14836  18.639  21.151   3.219
50904W        W14837   9.271  39.475   3.724
50905W        W14838  19.104  25.155  13.928
50906W        W14839  15.273  18.564   1.379
50907W        W14840   5.738  31.565  12.944
50908W        W14841  40.972  16.075  13.518
50909W        W14842  12.237  15.810  13.014
50910W        W14843  20.757  33.621  13.024
50911W        W14844  26.084  35.059  13.965
50912W        W14845  31.017   7.675  14.341
50913W        W14846  42.788  43.986   1.218
50914W        W14847  15.248  35.506   3.374
50915W        W14848  44.367  15.133  13.959
50916W        W14849  10.741  44.362  14.415
50917W        W14850  43.349  22.529  12.091
50918W        W14851  18.733  19.204  10.056
50919W        W14852  43.869  11.835  10.935
50920W        W14853   0.800  26.091   2.842
50921W        W14854  42.877   0.982  11.598
50922W        W14855  14.744   0.370   3.865
50923W        W14856   9.246  10.359  12.902
50924W        W14857  24.062  29.121  14.779
50925W        W14858   2.377  28.985   1.795
50926W        W14859  15.669  28.967  10.578
50927W        W14860  41.829  21.067  12.968
50928W        W14861   5.199  18.273   0.426
50929W        W14862  37.382  33.554   0.841
50930W        W14863   7.321  28.072  11.857
50931W        W14864   1.754  37.484   4.156
50932W        W14865  31.937  32.568   0.357
50933W        W14866  33.040  15.244   2.667
50934W        W14867  26.668  22.190  12.847
50935W        W14868  37.929  37.477   0.382
50936W        W14869  40.317  28.158  10.634
50937W        W14870  20.227   5.730  10.574
50938W        W14871  41.990  19.074  11.021
50939W        W14872   6.269  13.614   2.291
50940W        W14873  20.664  14.172  14.026
50941W        W14874  30.986  25.582   3.208
50942W        W14875  26.657  27.098  11.037
50943W        W14876   9.310  27.030  11.556
50944W        W14877  11.239  20.082  13.307
50945W        W14878  16.230  22.532  12.825
50946W        W14879  15.285   8.801  12.079
50947W        W14880  15.231  23.644  10.570
50948W        W14881  20.151   8.745  12.866
50949W        W14882   5.411  11.696   0.744
50950W        W14883  25.706  22.133  12.355
50951W        W14884   8.329  43.496  10.955
50952W        W14885  11.271  10.263  13.955
50953W        W14886  41.002  27.084  12.492
50954W        W14887  12.849  40.510  13.955
50955W        W14888  25.656  42.973  12.987
50956W        W14889  16.661  36.487   2.198
50957W        W14890   0.483  10.200  10.497
50958W        W14891  33.599  43.909  10.959
50959W        W14892   8.189  37.547   2.203
50960W        W14893   2.787  21.669   3.376
50961W        W14894  19.203  43.313   2.280
50962W        W14895  29.587  36.004  12.361
50963W        W14896  39.972  33.504   0.415
50964W        W14897  44.320  10.143   5.205
50965W        W14898  37.890  43.898   3.284
50966W        W14899  32.514  21.205   2.289
50967W        W14900   2.768  38.377  13.307
50968W        W14901  37.925   9.386  11.598
50969W        W14902   4.423  39.021  12.856
50970W        W14903  25.102   1.974   0.357
50971W        W14904  39.427  44.933   1.239
50972W        W14905  21.049  11.754   5.288
50973W        W14906  44.886  37.987  11.071
50974W        W14907  32.012  39.314   1.299
50975W        W14908  41.380  11.852  13.863
50976W        W14909  35.089   9.751   4.607
50977W        W14910  23.667   0.786   0.757
50978W        W14911  13.738  40.389   2.234
50979W        W14912  24.652   6.812   3.349
50980W        W14913  28.525  28.517   4.700
50981W        W14914  11.209  28.017  10.585
50982W        W14915  32.088   7.694  14.295
50983W        W14916  20.209  12.199  11.551
50984W        W14917  21.127  13.300   4.168
50985W        W14918   2.295   9.385  14.820
50986W        W14919  14.276  40.816  11.397
50987W        W14920  40.541  28.011   3.775
50988W        W14921   4.224  15.738   2.250
50989W        W14922  44.771  12.731   0.792
50990W        W14923   6.183  32.989   2.204
50991W        W14924  17.218  16.135  12.451
50992W        W14925  11.729  11.634   2.887
50993W        W14926  25.969  11.308   1.821
50994W        W14927  22.649  17.695  11.058
50995W        W14928  24.579   6.257   0.812
50996W        W14929  12.688  43.891   1.323
50997W        W14930  35.593  31.938   2.218
50998W        W14931  32.072   0.385   9.941
50999W        W14932  18.281  41.435   4.126
51000W        W14933  41.337  23.113   4.307
51001W        W14934  41.921  42.954   9.963
51002W        W14935  18.748   2.294  10.511
51003W        W14936   8.369  41.391   2.365
51004W        W14937  42.345  37.346  13.834
51005W        W14938  24.140  17.630   1.814
51006W        W14939  41.336  17.562  14.377
51007W        W14940  44.298  27.551   2.832
51008W        W14941  39.055  23.556  14.404
51009W        W14942   2.772  10.814   0.402
51010W        W14943  32.999   3.852   4.620
51011W        W14944  28.985  13.749   4.328
51012W        W14945  40.428  28.179  10.074
51013W        W14946  43.775  26.000  13.945
51014W        W14947  15.131  32.394   4.693
51015W        W14948   9.817   6.904  13.793
51016W        W14949  32.558  34.932   3.286
51017W        W14950  35.560   9.788   4.618
51018W        W14951  23.240  11.758  11.402
51019W        W14952  15.097  19.588  13.815
51020W        W14953  19.130  26.098  12.929
51021W        W14954   8.678  39.523  11.887
51022W        W14955  31.935  30.961   4.253
51023W        W14956  37.938  22.241  13.438
51024W        W14957  24.100  38.396  12.043
51025W        W14958   0.302  36.035   2.666
51026W        W14959  44.905  10.648  14.810
51027W        W14960  30.578   9.840   0.403
51028W        W14961  21.731  28.038  14.326
51029W        W14962  14.151  20.730  12.512
51030W        W14963  18.677  20.050  14.996
51031W        W14964  16.710   7.729  14.000
51032W        W14965  19.246  36.486  10.009
51033W        W14966  25.677  15.265  14.031
51034W        W14967  34.875  13.834   0.869
51035W        W14968  33.498  37.397   4.681
51036W        W14969  29.511   6.863  14.790
51037W        W14970  12.670  25.085  12.016
51038W        W14971  25.984  19.285   0.903
51039W        W14972   8.211  28.099  13.003
51040W        W14973  18.641  25.631  14.909
51041W        W14974   4.344   4.316   5.237
51042W        W14975  17.590  41.467  10.531
51043W        W14976  22.165  33.452   3.378
51044W        W14977   2.360   0.288   2.324
51045W        W14978  40.983   9.266  13.420
51046W        W14979  36.071  13.783  11.004
51047W        W14980  17.651  24.211  11.095
51048W        W14981   8.798  34.930  12.577
51049W        W14982  14.119  14.217   0.290
51050W        W14983  44.365   9.822   5.107
51051W        W14984  29.630   9.834  11.113
51052W        W14985  25.191  26.541   4.253
51053W        W14986   4.372  41.335   4.287
51054W        W14987  24.659  29.460  11.017
51055W        W14988  31.624  13.631  12.037
51056W        W14989   2.469   0.288   0.288
51057W        W14990  22.018  37.484  11.994
51058W        W14991  17.732   2.305   1.266
51059W        W14992  12.807  21.671   1.316
51060W        W14993   0.456  30.926  11.376
51061W        W14994  32.012  34.504   2.868
51062W        W14995  38.501  38.066  11.379
51063W        W14996  14.102  17.086  13.953
51064W        W14997  24.708  18.111  11.603
51065W        W14998  32.554  41.484  12.520
51066W        W14999  35.892   1.259   3.267
51067W        W15000   8.681  27.116  12.382
51068W        W15001  15.730   3.710  14.897
51069W        W15002  10.660  39.020   4.191
51070W        W15003   1.430  41.489   2.835
51071W        W15004  42.874  35.456   5.121
51072W        W15005  36.845   7.765   2.808
51073W        W15006  12.731  11.738  12.403
51074W        W15007   3.872  42.457   3.185
51075W        W15008  16.255   2.836  12.022
51076W        W15009  19.694   1.349   3.865
51077W        W15010  16.158  16.572  14.917
51078W        W15011  10.775  21.070   1.755
51079W        W15012   0.842  36.027   4.219
51080W        W15013  10.255  23.618  14.476
51081W        W15014  43.443  36.063  13.030
51082W        W15015  32.029  24.084  10.625
51083W        W15016  20.255  17.696   1.759
51084W        W15017  37.058  34.923  14.430
51085W        W15018  33.597  25.048  13.493
51086W        W15019   3.815   3.413   4.650
51087W        W15020   5.854  37.929  12.379
51088W        W15021  27.682  16.679   3.738
51089W        W15022  17.660  42.309  13.969
51090W        W15023  28.054   2.836   0.345
51091W        W15024  28.075  36.355  12.006
51092W        W15025   5.745  21.525   2.883
51093W        W15026  43.398  42.855   4.317
51094W        W15027   2.886  42.463  12.968
51095W        W15028  14.173   0.947   1.336
51096W        W15029   0.469  15.279   4.651
51097W        W15030   0.401  40.517   2.348
51098W        W15031  13.692  15.723  12.964
51099W        W15032  16.636   8.192   3.637
51100W        W15033  36.870  29.607   2.749
51101W        W15034  14.161  38.486  10.623
51102W        W15035   1.770  41.483   2.372
51103W        W15036  13.838  20.632  13.046
51104W        W15037  21.138  13.148   2.298
51105W        W15038  42.390  10.675   2.191
51106W        W15039  39.539   1.261   2.343
51107W        W15040  20.617  19.080   3.260
51108W        W15041  30.557  22.623   4.338
51109W        W15042  20.723   6.389   0.295
51110W        W15043  14.326  44.279   3.218
51111W        W15044  13.216  20.219   2.266
51112W        W15045  41.496  26.637   3.641
51113W        W15046  22.034  14.737  10.482
51114W        W15047  34.990  32.490  11.962
51115W        W15048  21.694  17.744   0.443
51116W        W15049  35.890  42.485  14.775
51117W        W15050  10.331   8.807  10.066
51118W        W15051  14.675  39.517  10.083
51119W        W15052   6.706  18.146   3.670
51120W        W15053  37.474  33.466  12.429
51121W        W15054  29.014  43.332   5.239
51122W        W15055  19.734   9.308   0.781
51123W        W15056   3.716  34.391  14.961
51124W        W15057  42.778  17.794   2.361
51125W        W15058  36.348  19.168  13.030
51126W        W15059  30.918  29.541   4.154
51127W        W15060   1.946  31.449  11.451
51128W        W15061  33.511  40.806   2.211
51129W        W15062  33.992  20.111   4.259
51130W        W15063  33.940  19.672  14.987
51131W        W15064  43.460  32.613  13.899
51132W        W15065  24.624  10.211   1.861
51133W        W15066  43.770  18.716   1.431
51134W        W15067   4.248  23.662  12.940
51135W        W15068  39.516   5.751  13.339
51136W        W15069  31.070  30.587  13.983
51137W        W15070  10.683  25.601   4.291
51138W        W15071  10.254  32.555  14.820
51139W        W15072  38.993  33.030  14.413
51140W        W15073   5.751  23.174  14.372
51141W        W15074  20.109  20.202  12.896
51142W        W15075  41.444  43.314   4.301
51143W        W15076  35.982  20.094  10.596
51144W        W15077   4.761  12.277  14.358
51145W        W15078  33.977  33.990   2.293
51146W        W15079  28.159  22.681   0.835
51147W        W15080  31.535  15.162   2.776
51148W        W15081  32.551  28.019  10.988
51149W        W15082  26.623  44.977   9.451
51150W        W15083  44.326   1.375   3.229
51151W        W15084  26.027  23.116  14.789
51152W        W15085  34.472   0.861  14.429
51153W        W15086  25.566  41.390  11.961
51154W        W15087  28.180  29.595   2.812
51155W        W15088   8.901  24.482  13.321
51156W        W15089   7.393  23.993  14.338
51157W        W15090  24.599   5.372  12.393
51158W        W15091   8.824   7.751  14.851
51159W        W15092  10.180  23.532   0.270
51160W        W15093   3.824  36.369  12.491
51161W        W15094  42.821  15.730   3.287
51162W        W15095  40.934  21.160   2.716
51163W        W15096  42.801  23.667   4.139
51164W        W15097  16.638  26.060   3.212
51165W        W15098  24.061  24.717   1.854
51166W        W15099   7.761  30.559  14.446
51167W        W15100   4.825  14.198  14.362
51168W        W15101  32.003   9.188  13.412
51169W        W15102  35.999  36.001   3.859
51170W        W15103  34.459   0.305  12.963
51171W        W15104  41.794  43.893   4.317
51172W        W15105  28.572  14.144   1.329
51173W        W15106  43.498   0.306  10.966
51174W        W15107  43.273  21.183   3.242
51175W        W15108   2.282  13.141   0.726
51176W        W15109  27.485   3.423  10.508
51177W        W15110   2.899  27.049  13.955
51178W        W15111  10.154  11.208  13.797
51179W        W15112  42.028  17.729   4.751
51180W        W15113  23.159  38.836   0.335
51181W        W15114  35.041  19.275   3.724
51182W        W15115   8.264  24.676   0.480
51183W        W15116  39.876   9.872   2.253
51184W        W15117   7.895   2.346   2.190
51185W        W15118  24.054   8.209  12.962
51186W        W15119  38.373  30.158   4.140
51187W        W15120  10.769  32.520   3.748
51188W        W15121  15.595  18.138   5.723
51189W        W15122   9.660  42.971  14.796
51190W        W15123  18.649  13.625  11.592
51191W        W15124  25.052   3.316   1.294
51192W        W15125  34.577  37.010   1.878
51193W        W15126  34.116  37.978  13.544
51194W        W15127  43.491  18.141   1.413
51195W        W15128  16.713  22.554   3.727
51196W        W15129  23.665  41.492  14.476
51197W        W15130   2.916   9.669  14.995
51198W        W15131   3.352  19.087   4.794
51199W        W15132  37.965  26.522  12.396
51200W        W15133   1.469   4.414  11.480
51201W        W15134  34.389   8.891   3.640
51202W        W15135  11.151  34.382   2.287
51203W        W15136  11.130   4.942  13.443
51204W        W15137  16.708  15.662   1.904
51205W        W15138   9.709  34.429  11.978
51206W        W15139  32.060  42.940  11.437
51207W        W15140  18.083  15.085  13.878
51208W        W15141  40.994  30.091   3.769
51209W        W15142  21.624  10.832  12.489
51210W        W15143   7.789  24.029  12.035
51211W        W15144  21.513  17.715   1.373
51212W        W15145  37.890   3.254  12.365
51213W        W15146  18.244   2.742   3.156
51214W        W15147  17.574  34.384  13.913
51215W        W15148  33.390  20.065  13.913
51216W        W15149  19.637  20.188   1.396
51217W        W15150   7.221  13.734  11.902
51218W        W15151   3.231   8.817   3.727
51219W        W15152   8.217  40.407   1.741
51220W        W15153  11.136  41.869   1.219
51221W        W15154  29.021  41.399  10.530
51222W        W15155   3.247  37.002  13.977
51223W        W15156  32.441  35.530  14.844
51224W        W15157   2.832   0.927  14.817
51225W        W15158  31.644  43.945  12.919
51226W        W15159  15.327  15.646  10.429
51227W        W15160  15.651  33.994   1.282
51228W        W15161  21.187  12.301   5.101
51229W        W15162   0.859   0.295  11.522
51230W        W15163  12.288  24.151   3.235
51231W        W15164  18.072  19.640  11.378
51232W        W15165  19.255  31.442  14.327
51233W        W15166  11.715   8.820  13.030
51234W        W15167  24.687  43.891   4.320
51235W        W15168  15.201  15.803   2.803
51236W        W15169   7.667  37.912  12.519
51237W        W15170  13.278  44.976   0.734
51238W        W15171  29.045  15.774   2.361
51239W        W15172  36.545  36.579  13.983
51240W        W15173  27.121  42.297   5.271
51241W        W15174  16.798  29.134   3.657
51242W        W15175  30.599  28.680  13.482
51243W        W15176  12.149  13.155   1.438
51244W        W15177   2.449  33.579   1.375
51245W        W15178  14.651   0.320   1.910
51246W        W15179  25.218  16.597   0.480
51247W        W15180   3.395  40.810  12.823
51248W        W15181  11.865  27.130   4.810
51249W        W15182  22.552  13.755  11.422
51250W        W15183  13.257  22.591   1.740
51251W        W15184  34.954   4.857  13.909
51252W        W15185   2.760  27.530  13.916
51253W        W15186  26.665   0.418  11.948
51254W        W15187  42.440  33.968   0.419
51255W        W15188  15.611   3.775   4.702
51256W        W15189  11.625  21.075  14.813
51257W        W15190  43.999  21.017  13.499
51258W        W15191   5.406   2.803   3.698
51259W        W15192   6.421   0.395  14.873
51260W        W15193  10.161  19.244   4.744
51261W        W15194   7.184  44.886   3.640
51262W        W15195   1.899   4.374   4.778
51263W        W15196  22.636  27.968   3.684
51264W        W15197  16.620  35.553  12.941
51265W        W15198  41.376  44.910  13.357
51266W        W15199  11.782  12.200   3.372
51267W        W15200  17.176  32.068   9.982
51268W        W15201  44.982  30.629  12.487
51269W        W15202  27.138  38.463   3.147
51270W        W15203  37.516  37.467   1.443
51271W        W15204  30.618   6.850  11.497
51272W        W15205  30.964  14.266   4.293
51273W        W15206  43.497  10.671  12.049
51274W        W15207  27.161  28.625   0.910
51275W        W15208   7.821   0.493  14.003
51276W        W15209  12.176  35.903  13.357
51277W        W15210  40.030   6.840   0.936
51278W        W15211  13.173  30.542   1.901
51279W        W15212  26.087  42.283  10.020
51280W        W15213   4.333  35.543   3.302
51281W        W15214  11.264   2.456  12.012
51282W        W15215   4.422   1.849   3.847
51283W        W15216  28.520  38.448   1.826
51284W        W15217   6.717   1.898   5.652
51285W        W15218  42.805  16.179  13.895
51286W        W15219  14.189   8.162   2.419
51287W        W15220   3.925   3.807   3.148
51288W        W15221  22.251   8.280   2.419
51289W        W15222  23.111  17.248   0.964
51290W        W15223  34.881  17.752   0.857
51291W        W15224  17.605  43.478   0.439
51292W        W15225  31.960  34.064  10.569
51293W        W15226  44.006  11.239  14.362
51294W        W15227  24.492   1.735  10.984
51295W        W15228  11.326  33.477   2.803
51296W        W15229  37.435   6.363   0.868
51297W        W15230   2.377  13.668  13.983
51298W        W15231  11.236  30.964  13.005
51299W        W15232  28.013  24.102   0.897
51300W        W15233  18.252  38.458  14.387
51301W        W15234  43.898  29.515  14.503
51302W        W15235   6.378  43.410  13.854
51303W        W15236  40.035  33.390   0.796
51304W        W15237   8.756   1.333   1.863
51305W        W15238  13.260  31.629  11.411
51306W        W15239   0.271   1.811   1.306
51307W        W15240   2.259  19.571  13.970
51308W        W15241   6.216  16.292   0.834
51309W        W15242  21.077   4.733   5.127
51310W        W15243   3.247   6.709  11.515
51311W        W15244   5.387  18.629   3.682
51312W        W15245  28.554  18.175   3.189
51313W        W15246   1.746  11.360  11.495
51314W        W15247  12.855   9.315  13.440
51315W        W15248  40.846   0.958   3.870
51316W        W15249   0.887  12.228   4.132
51317W        W15250  40.822   4.852   0.775
51318W        W15251   0.752  11.285  13.846
51319W        W15252  23.235  31.421  12.412
51320W        W15253  25.167  29.592   0.477
51321W        W15254  33.611  25.611  11.111
51322W        W15255  32.071   9.245   3.187
51323W        W15256   8.283   5.228  13.043
51324W        W15257  39.944   3.921  11.122
51325W        W15258  21.251   0.924   5.220
51326W        W15259  16.234  24.023   0.885
51327W        W15260  22.143   7.308   4.292
51328W        W15261  44.844  23.036   3.859
51329W        W15262  21.097  27.050   3.284
51330W        W15263  28.677  21.153   0.353
51331W        W15264  22.686  21.179  11.551
51332W        W15265  17.572  19.145   4.186
51333W        W15266  31.964  33.072   2.309
51334W        W15267  27.605  22.085   1.249
51335W        W15268   7.866  18.560   4.229
51336W        W15269  11.327  33.556  13.946
51337W        W15270  27.170   3.229  11.959
51338W        W15271  24.620  16.701  13.920
51339W        W15272  30.031  35.526  13.848
51340W        W15273  10.330  17.165  13.815
51341W        W15274  20.729  43.862   2.750
51342W        W15275  11.715   2.729   3.660
51343W        W15276   8.167  22.162  12.432
51344W        W15277  14.765  30.588   3.169
51345W        W15278  28.949  38.508  13.353
51346W        W15279   6.350  10.194  13.973
51347W        W15280  17.288  41.041  12.940
51348W        W15281  41.532  23.576   4.748
51349W        W15282   9.303   0.923  12.838
51350W        W15283   0.313  16.681   4.625
51351W        W15284  20.075  43.895  13.060
51352W        W15285  39.822  38.469   4.253
51353W        W15286   1.414  24.103  13.890
51354W        W15287   1.828  20.037  13.989
51355W        W15288  27.182   1.302  11.534
51356W        W15289  40.303  11.322  14.331
51357W        W15290   5.284  13.734   1.902
51358W        W15291   1.854  13.204  11.560
51359W        W15292  27.480   4.365   0.782
51360W        W15293  44.308  41.826   4.325
51361W        W15294  19.238  20.682   4.836
51362W        W15295  41.788  19.568   2.893
51363W        W15296  38.942  39.875  12.984
51364W        W15297  35.516  11.213   3.273
51365W        W15298  23.725  30.589  11.376
51366W        W15299  43.833   4.879   2.200
51367W        W15300   0.477   6.331  13.944
51368W        W15301   9.281  29.486  11.608
51369W        W15302  28.079  25.606  11.452
51370W        W15303  29.124  15.289  13.043
51371W        W15304  41.819  21.174   9.968
51372W        W15305  39.013  35.017  10.948
51373W        W15306  19.653  16.644   3.832
51374W        W15307  35.383  14.233  12.493
51375W        W15308   2.786  37.924  10.559
51376W        W15309  36.433  11.671   3.865
51377W        W15310  42.986  27.556  14.501
51378W        W15311   2.959  14.308   1.908
51379W        W15312   4.216  21.192  11.373
51380W        W15313  20.592  17.080  10.061
51381W        W15314  13.186  19.749  14.766
51382W        W15315  15.205   3.735   1.739
51383W        W15316  10.261   6.382  11.415
51384W        W15317  37.000  11.331  13.819
51385W        W15318  42.427   1.278  13.961
51386W        W15319  27.969  12.242   1.226
51387W        W15320   4.746  24.203  11.373
51388W        W15321  11.834  14.794  11.056
51389W        W15322  26.501  40.454  13.405
51390W        W15323   2.864  42.864   1.838
51391W        W15324  40.005  35.364   0.830
51392W        W15325   3.729  15.729  11.010
51393W        W15326  38.373  27.069  10.941
51394W        W15327   8.883  36.986   1.706
51395W        W15328  26.037  30.036  14.860
51396W        W15329  37.558  38.516   3.764
51397W        W15330  11.663   0.756   5.257
51398W        W15331  41.353  19.255   4.302
51399W        W15332  44.914  11.346  14.423
51400W        W15333   3.341  21.660   1.383
51401W        W15334  28.081  15.593   3.829
51402W        W15335  11.847  19.139  12.042
51403W        W15336  43.427  16.762  10.996
51404W        W15337   1.797  38.025  12.410
51405W        W15338  39.332  26.200   4.643
51406W        W15339   6.767  19.679  11.586
51407W        W15340   1.761   4.383   1.857
51408W        W15341  34.936  43.940   0.351
51409W        W15342  23.637  40.883  13.512
51410W        W15343  27.627   5.854  14.795
51411W        W15344  38.837   2.447   4.792
51412W        W15345  29.931   5.842   2.729
51413W        W15346  44.334   3.906  14.283
51414W        W15347  23.042   9.808   2.716
51415W        W15348   4.368  16.163   1.215
51416W        W15349  12.268   9.326   0.847
51417W        W15350  18.141  24.588   1.777
51418W        W15351  22.659  34.025   3.379
51419W        W15352  44.903  33.429   4.346
51420W        W15353  34.582  19.123  14.021
51421W        W15354  39.500  23.186  11.538
51422W        W15355  21.176   3.918  11.382
51423W        W15356  29.646  24.661  14.450
51424W        W15357   3.923  20.600  14.388
51425W        W15358   4.762  12.700  13.402
51426W        W15359  27.688  36.023   0.928
51427W        W15360  22.239  24.085  14.304
51428W        W15361  30.478   4.263   0.453
51429W        W15362   8.718  38.020   2.695
51430W        W15363  10.301  41.933  12.023
51431W        W15364   7.413  39.467  14.880
51432W        W15365  24.215  34.987  13.536
51433W        W15366  19.654   4.704   2.273
51434W        W15367  10.306   3.413  13.874
51435W        W15368  39.945  16.194   3.852
51436W        W15369  11.364  28.534  13.025
51437W        W15370   7.755  32.032   1.368
51438W        W15371  17.669  16.095  13.535
51439W        W15372   6.354  11.811  13.036
51440W        W15373  11.269   5.262   2.315
51441W        W15374  36.096   0.967   4.602
51442W        W15375  16.665  13.838   1.774
51443W        W15376   3.809  23.160  10.527
51444W        W15377  37.482  43.291   0.278
51445W        W15378  15.254  14.826   2.211
51446W        W15379   0.825  40.868   2.828
51447W        W15380  27.094  22.596   1.216
51448W        W15381  32.974  16.710   4.265
51449W        W15382  16.779  39.991  11.425
51450W        W15383   4.334   5.861   2.822
51451W        W15384  17.210  24.599   1.399
51452W        W15385  27.121  42.514   4.117
51453W        W15386  20.739  14.268  14.933
51454W        W15387  42.836  25.582   1.868
51455W        W15388  15.812  19.653   1.324
51456W        W15389  20.671  41.993  12.907
51457W        W15390  40.983   9.691   2.287
51458W        W15391  23.072  36.499  11.091
51459W        W15392  34.431  10.169   2.322
51460W        W15393  41.818  40.811   3.854
51461W        W15394   3.750  41.509   0.838
51462W        W15395  31.588   8.286  14.021
51463W        W15396  35.539  31.021  12.482
51464W        W15397  42.804  22.703  11.995
51465W        W15398  42.031  26.967  12.037
51466W        W15399  38.432  15.805   2.829
51467W        W15400  21.673  25.087   5.309
51468W        W15401  34.922   1.246   1.908
51469W        W15402  11.802  19.750  14.980
51470W        W15403   1.319  18.568   2.718
51471W        W15404   3.243  39.534   0.400
51472W        W15405   2.247   8.176   4.777
51473W        W15406  37.350  17.156  11.870
51474W        W15407  27.141  42.964   2.879
51475W        W15408  17.154   6.795  12.004
51476W        W15409   8.761  34.611  13.525
51477W        W15410  21.614  41.458  13.363
51478W        W15411  37.059  14.704  14.908
51479W        W15412   4.824   5.840  14.901
51480W        W15413  44.263   6.687  14.886
51481W        W15414  20.214  16.222   1.333
51482W        W15415  36.559  44.894   4.234
51483W        W15416  38.965  37.520  12.922
51484W        W15417  38.499  31.973   0.805
51485W        W15418  30.105  10.718  13.950
51486W        W15419   4.436  22.210  11.941
51487W        W15420  31.899   0.806   4.163
51488W        W15421  38.379  35.461  10.628
51489W        W15422   7.191  32.011  12.889
51490W        W15423  16.603  38.461  14.974
51491W        W15424  44.968  15.709   3.673
51492W        W15425  35.538  40.402   2.710
51493W        W15426  10.332  35.370   3.823
51494W        W15427  17.616   2.928  11.886
51495W        W15428   9.259  25.094  11.967
51496W        W15429   3.762  33.531   3.756
51497W        W15430   0.922  35.957   1.743
51498W        W15431  19.130   4.332  13.339
51499W        W15432  11.673  30.446   1.781
51500W        W15433  33.383  21.227   9.992
51501W        W15434  17.191  29.516  10.916
51502W        W15435   4.414   4.422  13.362
51503W        W15436  29.971   0.890   4.694
51504W        W15437  30.083  10.383  14.310
51505W        W15438  32.523  34.934  11.011
51506W        W15439  31.495  22.597   3.706
51507W        W15440  10.703  29.440   3.311
51508W        W15441  21.018  32.011  12.573
51509W        W15442  18.707  21.079  11.102
51510W        W15443   8.304  24.626  13.529
51511W        W15444  44.328  27.464  13.839
51512W        W15445   1.414  12.151   1.862
51513W        W15446   4.438  15.246  10.035
51514W        W15447  36.513  33.931   4.828
51515W        W15448  28.490  22.658   0.743
51516W        W15449  31.417   2.773   4.797
51517W        W15450  40.022  15.111   3.800
51518W        W15451  32.566   2.271  12.572
51519W        W15452   5.749  13.629   4.293
51520W        W15453   9.274  41.016  11.995
51521W        W15454  18.779   3.300  13.848
51522W        W15455  18.790  36.926   4.662
51523W        W15456  14.812  25.003   4.663
51524W        W15457   6.784  12.705  12.873
51525W        W15458   5.813   2.359   9.998
51526W        W15459  11.361  14.626   3.687
51527W        W15460  34.514  29.050  11.526
51528W        W15461  13.834   1.860   0.279
51529W        W15462  10.202  25.608   1.445
51530W        W15463   9.843  12.361  11.541
51531W        W15464  39.871  16.774   2.858
51532W        W15465  17.205  11.138  14.791
51533W        W15466  30.611  12.758   0.797
51534W        W15467  19.771  27.194  14.976
51535W        W15468  15.191  28.118   3.216
51536W        W15469  10.864  31.619   1.862
51537W        W15470  35.100  33.545   2.222
51538W        W15471  34.987  26.684  11.935
51539W        W15472  17.771  19.684  11.991
51540W        W15473  43.275  41.926  14.902
51541W        W15474  16.130  20.625   0.844
51542W        W15475  40.358  30.552  12.343
51543W        W15476  10.144  18.073  10.419
51544W        W15477  15.794  43.817   1.857
51545W        W15478  41.924  44.444   3.665
51546W        W15479   8.236  16.078  10.643
51547W        W15480  24.114  41.325  12.075
51548W        W15481   5.266  44.784   3.302
51549W        W15482  19.277  39.043  11.591
51550W        W15483   7.706  43.765   4.687
51551W        W15484  44.294  43.849  12.367
51552W        W15485  27.510  41.467   3.369
51553W        W15486  44.481   2.901  11.098
51554W        W15487   6.377  34.011  14.794
51555W        W15488   1.808   0.442   0.729
51556W        W15489  27.087   6.301  12.578
51557W        W15490  10.872  40.886  11.428
51558W        W15491   8.834  35.937   1.765
51559W        W15492  21.751  36.092   0.771
51560W        W15493   8.792   4.887   1.769
51561W        W15494   7.723  19.245  12.855
51562W        W15495  11.238  13.796  13.986
51563W        W15496  31.949  30.531   2.714
51564W        W15497   1.751   1.385  14.956
51565W        W15498  42.891  27.125   1.888
51566W        W15499  35.400  28.007  13.381
51567W        W15500  32.467  23.124   2.734
51568W        W15501  18.230   6.898   2.283
51569W        W15502  29.495   5.333   0.429
51570W        W15503  41.295  22.638   0.733
51571W        W15504  12.843  22.235   4.799
51572W        W15505  38.054  27.549   1.348
51573W        W15506  15.171  41.040  13.536
51574W        W15507   1.928  41.003  14.949
51575W        W15508  13.229  35.951   1.331
51576W        W15509  20.566  10.374   2.285
51577W        W15510  23.577   8.823  10.526
51578W        W15511  17.753  31.641  12.505
51579W        W15512  23.041  42.837   2.368
51580W        W15513  35.498  22.675   4.257
51581W        W15514   2.297  32.885   3.282
51582W        W15515   6.853   1.385   1.306
51583W        W15516  20.539  20.075  12.371
51584W        W15517  26.004   7.320   1.865
51585W        W15518  17.206  12.702  12.573
51586W        W15519  25.145   8.213  14.505
51587W        W15520  38.945  19.179   4.727
51588W        W15521   5.380  30.432   5.262
51589W        W15522   8.715  13.346  13.371
51590W        W15523  33.607  29.432  11.543
51591W        W15524   3.882  21.144  10.518
51592W        W15525  28.961   4.207  11.603
51593W        W15526  43.008  24.225   0.409
51594W        W15527   1.372  16.600  12.958
51595W        W15528  22.582   8.197   2.267
51596W        W15529  27.683   7.843   1.924
51597W        W15530  31.085  13.658  14.032
51598W        W15531  14.289  31.600   3.189
51599W        W15532  29.049  10.241   0.751
51600W        W15533  43.963  27.635  13.861
51601W        W15534   8.726  26.170  10.012
51602W        W15535  13.789  31.431  10.513
51603W        W15536   4.759  11.146  13.536
51604W        W15537  17.276  25.635  11.422
51605W        W15538   0.415   4.367  14.372
51606W        W15539  31.052  34.923  11.118
51607W        W15540   8.739   0.452  11.510
51608W        W15541  38.438  14.786  11.610
51609W        W15542   5.799   3.288   0.448
51610W        W15543  19.246  36.370   9.633
51611W        W15544  32.461  31.603   4.613
51612W        W15545  16.123  29.099  14.433
51613W        W15546  23.239   3.952  10.620
51614W        W15547   5.787  11.239  12.912
51615W        W15548  10.245  36.505   2.200
51616W        W15549  27.963  44.879   5.173
51617W        W15550   1.342  36.881   3.315
51618W        W15551  10.729  38.955   0.465
51619W        W15552  18.229  23.220  13.508
51620W        W15553   8.697  31.487   3.833
51621W        W15554  14.220  37.526  11.569
51622W        W15555  17.191  18.624  13.898
51623W        W15556  14.115  14.183   4.714
51624W        W15557  16.188  30.981   0.433
51625W        W15558  26.176   0.967  14.453
51626W        W15559  35.037  39.818  14.497
51627W        W15560  29.603  21.105  14.364
51628W        W15561  29.486   9.686  11.394
51629W        W15562   6.259  41.513   3.818
51630W        W15563   1.799  18.287  12.829
51631W        W15564  24.594  30.567  13.804
51632W        W15565  32.895  28.151   4.239
51633W        W15566  13.277  41.536   2.854
51634W        W15567  32.931  37.380   4.208
51635W        W15568  10.678  32.086   3.864
51636W        W15569   7.765  20.539   4.235
51637W        W15570   5.819  13.255  10.134
51638W        W15571  21.725  17.100   2.239
51639W        W15572  23.213  31.926   2.263
51640W        W15573  11.139   4.371   2.191
51641W        W15574  27.473   8.829  14.910
51642W        W15575  29.977  30.438  11.108
51643W        W15576   1.429  21.524   4.159
51644W        W15577  16.224  25.706  10.437
51645W        W15578  26.547  42.953  14.908
51646W        W15579   9.190  39.353  10.601
51647W        W15580  15.750  24.127   0.856
51648W        W15581  20.573  26.096   4.603
51649W        W15582  18.658  12.766  13.335
51650W        W15583  31.586   4.257  13.504
51651W        W15584   4.271  32.414   4.124
51652W        W15585  44.918  22.517   2.713
51653W        W15586  41.889  21.610   0.869
51654W        W15587   8.861  34.528   1.405
51655W        W15588  37.016  18.269   1.927
51656W        W15589  42.930  23.597  10.527
51657W        W15590  21.709  25.101   1.879
51658W        W15591  43.963  30.632  11.504
51659W        W15592   5.890  36.873  10.926
51660W        W15593  39.491  20.666  10.642
51661W        W15594   9.738  18.633  14.976
51662W        W15595  39.376   5.765  12.387
51663W        W15596   3.940  12.633  10.568
51664W        W15597  33.539  37.857  14.911
51665W        W15598  31.610  13.813  12.513
51666W        W15599  26.584  30.630  10.057
51667W        W15600  38.950  24.541   2.251
51668W        W15601  27.009   1.453  13.945
51669W        W15602  24.490   0.435   4.641
51670W        W15603  29.120  39.842  11.109
51671W        W15604  40.954   4.395   0.267
51672W        W15605  26.485   9.380   2.267
51673W        W15606  25.594  31.035  13.901
51674W        W15607  13.678  27.493  13.838
51675W        W15608  25.003  21.244  11.373
51676W        W15609  36.913  19.646   1.934
51677W        W15610   3.796  31.979   3.377
51678W        W15611  21.204  34.018   4.213
51679W        W15612  35.377  10.203  10.634
51680W        W15613  27.575   0.454   2.884
51681W        W15614  19.081  38.918   2.285
51682W        W15615   8.659  12.686   0.390
51683W        W15616  41.295   4.417   1.353
51684W        W15617  29.946   6.777   0.246
51685W        W15618  13.681  13.129   0.336
51686W        W15619  40.485  36.898  14.438
51687W        W15620  19.217  28.043   4.252
51688W        W15621   7.296  26.066   0.902
51689W        W15622  35.013  24.498   0.451
51690W        W15623  23.547  36.435  14.417
51691W        W15624  43.844   0.329   3.714
51692W        W15625   1.389  20.070  10.598
51693W        W15626   7.702  44.850  13.448
51694W        W15627  30.965  16.132   1.926
51695W        W15628  21.096  28.480  14.504
51696W        W15629  43.516  38.941   0.304
51697W        W15630  24.104  16.799  13.515
51698W        W15631  10.199  12.705  10.957
51699W        W15632  24.984  34.415   4.794
51700W        W15633   6.325  39.552  13.378
51701W        W15634  17.720  43.280  11.477
51702W        W15635  33.528   8.767  11.083
51703W        W15636  31.986  25.661  10.569
51704W        W15637  42.988   4.382  12.404
51705W        W15638  20.184  33.117   1.451
51706W        W15639  27.194  37.356  13.924
51707W        W15640  32.408   6.897  14.282
51708W        W15641  37.978  35.585  11.469
51709W        W15642  30.545  11.690  13.427
51710W        W15643  24.540   3.782  13.053
51711W        W15644  35.499   6.861   2.883
51712W        W15645  41.442  20.652  13.356
51713W        W15646  30.098  31.073   1.450
51714W        W15647  32.028  17.152   0.445
51715W        W15648  30.120  10.379  13.410
51716W        W15649  29.019  18.153  10.909
51717W        W15650  32.019  17.658   4.746
51718W        W15651  36.025  18.631  14.351
51719W        W15652  29.026  28.548   3.657
51720W        W15653  41.306  44.820   3.192
51721W        W15654  20.092  29.526   5.087
51722W        W15655  26.566  29.984   1.409
51723W        W15656  35.092  36.562  10.422
51724W        W15657  17.737  16.675   4.633
51725W        W15658  38.509  12.755  11.600
51726W        W15659  41.404  40.008   1.401
51727W        W15660  19.743   4.929  14.447
51728W        W15661  24.699  31.136  13.983
51729W        W15662  11.631  11.195   3.826
51730W        W15663  34.089   2.753  12.406
51731W        W15664   6.847   0.271   4.723
51732W        W15665  37.983  25.491   1.401
51733W        W15666  28.929  22.053  12.846
51734W        W15667  29.666   3.855  10.575
51735W        W15668  41.409   5.260  13.893
51736W        W15669  11.797  35.865  13.534
51737W        W15670  41.526  43.009  10.498
51738W        W15671  10.793  33.022   0.264
51739W        W15672  30.107  26.689   0.260
51740W        W15673  29.567  44.872   2.867
51741W        W15674  24.181  21.612  11.885
51742W        W15675  37.381  30.973  12.868
51743W        W15676   8.883   7.770   0.354
51744W        W15677  42.313   9.694   3.294
51745W        W15678  31.493  25.175  10.537
51746W        W15679  24.016  29.011  14.329
51747W        W15680  10.327   4.241   4.753
51748W        W15681   2.464  28.660  13.974
51749W        W15682   4.706  16.675   2.741
51750W        W15683   5.207  26.684   2.376
51751W        W15684   5.851  11.721   3.321
51752W        W15685  28.149  33.905  11.467
51753W        W15686  38.414  43.295  13.824
51754W        W15687  12.232  36.016  10.950
51755W        W15688  44.978  24.583   4.351
51756W        W15689  14.278   4.337   1.318
51757W        W15690   2.374  12.611  11.958
51758W        W15691   0.755   1.821  14.318
51759W        W15692   4.910  20.563   1.910
51760W        W15693  24.634  36.589  13.421
51761W        W15694  11.772  42.798   4.738
51762W        W15695   9.184  30.009   0.922
51763W        W15696  40.894  38.407   0.738
51764W        W15697   2.918  17.164   2.257
51765W        W15698  22.656   3.367   0.910
51766W        W15699  38.841  10.696   0.281
51767W        W15700  26.202  13.268   9.930
51768W        W15701   1.248  17.608   4.347
51769W        W15702  21.051  27.528   1.923
51770W        W15703  12.638  29.964   3.692
51771W        W15704  24.979   3.302   2.247
51772W        W15705  22.632   0.848   1.420
51773W        W15706  29.112  31.038  10.984
51774W        W15707  35.571  29.026   3.865
51775W        W15708  17.100  13.700  10.456
51776W        W15709  14.198  26.012   1.856
51777W        W15710  15.669  15.684  14.877
51778W        W15711  27.160  23.076  13.810
51779W        W15712  40.446  33.881   2.360
51780W        W15713   1.964  13.117   4.610
51781W        W15714  36.960   5.700  13.342
51782W        W15715  37.965  39.454  11.078
51783W        W15716  41.292   1.748  14.937
51784W        W15717  24.658  13.831   1.432
51785W        W15718  24.608  34.553   0.804
51786W        W15719  30.638  19.660   0.299
51787W        W15720  36.360   8.746  13.863
51788W        W15721  28.978  27.545  13.315
51789W        W15722   4.258  36.477  11.097
51790W        W15723   8.365  13.218   1.429
51791W        W15724  18.133  10.727   1.789
51792W        W15725  22.167   0.887  12.460
51793W        W15726   9.230  33.442   4.792
51794W        W15727  24.711   7.382   3.339
51795W        W15728  13.298  14.170  11.541
51796W        W15729  36.885  24.061  13.535
51797W        W15730  27.668  44.497   2.333
51798W        W15731   1.769  22.574  11.526
51799W        W15732  42.311  23.101  13.467
51800W        W15733  14.671  38.380   0.936
51801W        W15734  23.662  22.707   3.803
51802W        W15735  31.580  30.986   0.481
51803W        W15736  12.718  37.028   2.354
51804W        W15737  16.186  31.930   4.731
51805W        W15738  22.585  34.981   2.196
51806W        W15739   5.338  36.082   1.856
51807W        W15740  35.106  37.582   2.356
51808W        W15741   7.685   4.926   1.893
51809W        W15742   9.240   3.377  11.081
51810W        W15743  10.770  23.531  10.424
51811W        W15744  40.484  23.648   3.301
51812W        W15745  42.324  11.714   1.859
51813W        W15746   7.189  17.753  10.627
51814W        W15747  32.910  13.320   3.237
51815W        W15748  32.038  23.675  11.416
51816W        W15749  35.053  25.658   3.735
51817W        W15750  40.953  31.898  10.080
51818W        W15751  44.943  11.664  11.468
51819W        W15752  34.408  18.713  14.968
51820W        W15753   1.775  37.926   1.924
51821W        W15754  24.020  37.362   4.806
51822W        W15755  27.157  10.705   0.267
51823W        W15756  30.109  21.726   4.784
51824W        W15757   3.906  25.124   0.756
51825W        W15758   6.351  18.079  10.927
51826W        W15759  36.394  27.963   3.229
51827W        W15760  25.085   9.246  12.895
51828W        W15761  21.120  21.732   2.838
51829W        W15762  20.166  31.024   3.756
51830W        W15763  35.481  32.608  12.870
51831W        W15764   7.396   0.366   3.305
51832W        W15765  14.095  16.094  11.532
51833W        W15766   5.839  23.518  11.393
51834W        W15767  15.245  22.009  14.925
51835W        W15768  17.624  19.101  11.893
51836W        W15769  21.035  37.385  10.590
51837W        W15770  42.928  33.901  11.121
51838W        W15771  24.130  12.303   0.910
51839W        W15772  36.845  25.990   0.733
51840W        W15773  20.203  27.072  12.410
51841W        W15774  14.097  37.842  12.924
51842W        W15775  29.097  10.350   3.323
51843W        W15776  10.349  29.017   4.190
51844W        W15777  15.139  35.483  12.550
51845W        W15778  20.669  29.649   0.925
51846W        W15779   6.210  29.536  10.481
51847W        W15780  34.998  38.005  11.577
51848W        W15781   5.705   9.657  13.959
51849W        W15782   8.404  13.751   1.262
51850W        W15783  16.186   5.867   1.390
51851W        W15784   8.851   3.449  13.413
51852W        W15785  26.615  20.604  13.841
51853W        W15786  15.621  38.032  10.889
51854W        W15787  41.489  16.774  13.501
51855W        W15788  22.511   1.796   0.962
51856W        W15789  43.509   0.985   2.198
51857W        W15790  36.500  28.100  10.626
51858W        W15791  31.142   4.770   4.197
51859W        W15792   1.856  32.472  12.521
51860W        W15793  32.394   7.744   3.708
51861W        W15794   8.816  11.794  11.865
51862W        W15795  34.489  20.669   2.252
51863W        W15796   2.776  14.681  13.440
51864W        W15797  23.645   9.212   5.674
51865W        W15798  36.588  27.109  14.433
51866W        W15799  20.563  15.273   0.916
51867W        W15800   2.950   1.904   2.877
51868W        W15801  22.715   5.414  10.960
51869W        W15802  40.311  37.525   2.876
51870W        W15803  28.943  29.081  11.567
51871W        W15804  39.472   5.814  12.910
51872W        W15805   6.703  18.641   0.276
51873W        W15806  25.543  34.397  14.411
51874W        W15807   6.736  33.111   1.864
51875W        W15808   2.461   4.881  10.929
51876W        W15809   3.451  39.539   0.947
51877W        W15810  34.472  14.330   4.751
51878W        W15811  35.006   7.352   1.339
51879W        W15812  26.703  16.078   0.779
51880W        W15813  28.030  13.846  11.080
51881W        W15814   1.754  43.924  12.095
51882W        W15815  24.592   2.357   0.762
51883W        W15816   9.727   8.807  10.917
51884W        W15817  27.051  31.992  14.807
51885W        W15818  25.013  32.570   4.657
51886W        W15819  36.551  12.828  13.938
51887W        W15820  11.710  11.652   0.303
51888W        W15821  36.527  30.937   2.686
51889W        W15822   4.424  44.947  11.942
51890W        W15823  26.598  19.700  14.006
51891W        W15824   0.435  25.995  12.540
51892W        W15825  16.694  13.170  14.399
51893W        W15826  22.653  19.616  12.358
51894W        W15827  21.225  35.025  12.010
51895W        W15828  10.717  36.535  13.934
51896W        W15829  14.247  36.482   1.714
51897W        W15830  11.721  23.228  12.485
51898W        W15831   8.733   6.810  14.980
51899W        W15832  13.748  34.566  11.390
51900W        W15833  16.666  26.044  14.401
51901W        W15834  32.002   4.868  11.084
51902W        W15835   1.897   6.812   2.700
51903W        W15836  37.865  37.475   4.266
51904W        W15837  10.270  28.092  11.427
51905W        W15838  10.240  16.591  13.881
51906W        W15839  32.480  32.132  10.099
51907W        W15840  33.539   0.770  14.840
51908W        W15841  31.548  21.252   2.863
51909W        W15842  21.704   5.728   1.354
51910W        W15843  39.527  38.935  14.921
51911W        W15844   1.310  30.571  12.823
51912W        W15845  32.042  33.054   1.441
51913W        W15846  24.054  18.079  10.988
51914W        W15847  21.027  10.187   4.611
51915W        W15848  16.123  14.634   1.887
51916W        W15849  40.322   7.756  10.645
51917W        W15850   6.294  11.666   0.307
51918W        W15851  26.468  10.295  13.896
51919W        W15852  30.103  25.636  12.987
51920W        W15853  39.413   2.253  11.120
51921W        W15854  23.595  16.591  13.924
51922W        W15855  17.746  27.661   0.841
51923W        W15856  12.738  40.944  14.496
51924W        W15857   0.268   6.408   1.717
51925W        W15858  33.484  23.124   0.407
51926W        W15859  26.673  44.867   0.281
51927W        W15860   3.403  42.360  10.978
51928W        W15861  19.739  39.492  14.032
51929W        W15862   3.316  32.091   2.344
51930W        W15863  22.531  27.188   2.794
51931W        W15864  18.665  13.231   1.749
51932W        W15865  24.148  12.778   0.301
51933W        W15866  28.007  37.343  14.851
51934W        W15867  22.019  35.884   2.241
51935W        W15868  14.650  34.994   2.668
51936W        W15869   6.381   1.936  14.351
51937W        W15870   1.422  23.188  13.995
51938W        W15871  17.614  42.857   4.724
51939W        W15872  21.038  10.210   4.351
51940W        W15873  27.190   2.318   1.813
51941W        W15874  31.525  12.747   4.263
51942W        W15875  12.139   9.281  14.845
51943W        W15876   1.791  37.060  13.908
51944W        W15877  30.146   4.217  10.618
51945W        W15878  19.160   2.796   0.952
51946W        W15879  41.824  10.374   3.633
51947W        W15880  26.693  36.948   4.296
51948W        W15881   3.408  24.047  10.539
51949W        W15882   4.429  38.073   4.222
51950W        W15883  31.039  10.381   0.383
51951W        W15884  16.570  28.468   1.386
51952W        W15885  25.671  35.542  13.517
51953W        W15886  16.186  30.439  10.538
51954W        W15887  33.001  37.995   1.911
51955W        W15888  28.142  36.544  14.483
51956W        W15889  19.065  44.803  12.877
51957W        W15890  32.491  17.271   3.305
51958W        W15891  41.508  19.164  14.391
51959W        W15892  24.092  18.195  14.844
51960W        W15893  29.024  23.701  12.386
51961W        W15894   7.205  21.058   0.295
51962W        W15895   5.213  42.317  12.536
51963W        W15896   8.210  20.746  13.455
51964W        W15897  17.729  21.059  11.379
51965W        W15898   0.834  39.367  11.939
51966W        W15899  31.459  23.156  14.308
51967W        W15900   3.934  24.521  11.513
51968W        W15901  35.991  29.534  12.432
51969W        W15902  30.098  37.508  11.504
51970W        W15903   4.400  34.418   0.961
51971W        W15904   0.293   1.311   3.761
51972W        W15905  28.675   7.879   1.780
51973W        W15906  43.393  32.075  12.520
51974W        W15907  10.660  38.489   4.821
51975W        W15908   2.846  41.861   4.653
51976W        W15909  31.551   0.346   3.361
51977W        W15910  18.736  36.069  11.441
51978W        W15911  11.815  43.478   0.777
51979W        W15912  27.038  33.500   9.976
51980W        W15913  26.031  32.439   1.333
51981W        W15914  36.914  37.443   1.386
51982W        W15915  22.143  18.241   2.377
51983W        W15916   8.893  12.256   3.215
51984W        W15917  37.443  31.484   4.252
51985W        W15918  17.676  24.610   0.869
51986W        W15919  35.883  18.593   5.210
51987W        W15920  15.269  13.845   3.811
51988W        W15921   6.881  17.304  14.384
51989W        W15922  24.081   2.866  12.996
51990W        W15923  16.219  15.265  13.524
51991W        W15924   9.274   2.322   9.932
51992W        W15925  19.127  24.054  11.467
51993W        W15926  41.826  44.450   0.248
51994W        W15927  32.525  21.736  13.879
51995W        W15928  26.172  13.228   0.393
51996W        W15929  43.410  17.081   2.871
51997W        W15930  25.180  11.745  12.367
51998W        W15931  34.524  11.810   0.292
51999W        W15932   5.391  16.167  11.971
52000W        W15933  14.166   0.452  10.912
52001W        W15934   4.853  20.263  10.603
52002W        W15935  34.869  25.998   0.428
52003W        W15936   7.206  31.916   3.382
52004W        W15937  10.828  37.338   5.280
52005W        W15938  29.972  32.012   0.270
52006W        W15939  38.532  30.977   2.180
52007W        W15940  42.824  17.237  14.466
52008W        W15941  33.523  14.765  12.428
52009W        W15942  35.110  34.900  10.592
52010W        W15943  27.150   0.808   4.656
52011W        W15944  26.196  26.002  11.548
52012W        W15945  44.875   2.319   2.301
52013W        W15946   6.396  42.524   2.294
52014W        W15947   3.922  38.001   1.764
52015W        W15948  27.017   0.787   3.239
52016W        W15949  19.629  37.061   9.977
52017W        W15950  43.459   1.820   0.337
52018W        W15951  40.421  36.433   2.328
52019W        W15952  16.573   8.280   0.924
52020W        W15953  44.803  34.447   2.235
52021W        W15954  32.404  36.962  10.569
52022W        W15955  15.158   7.299   1.419
52023W        W15956  41.452  15.587  13.844
52024W        W15957  29.669   7.734   3.721
52025W        W15958   6.314  31.912   0.792
52026W        W15959  32.428  26.104  13.859
52027W        W15960  42.522   3.440  11.501
52028W        W15961  32.032   3.280  13.942
52029W        W15962  29.448  22.110   3.160
52030W        W15963  11.317  11.762  13.422
52031W        W15964  26.075  44.428  10.889
52032W        W15965   9.297   8.292   4.746
52033W        W15966  23.162  12.287   0.368
52034W        W15967  15.168  36.473  10.971
52035W        W15968  39.371   8.203   1.825
52036W        W15969  27.620  23.048  13.480
52037W        W15970   7.380  14.667   3.676
52038W        W15971  40.417  36.041  12.572
52039W        W15972   8.369  31.007   0.940
52040W        W15973  44.753  23.683  14.454
52041W        W15974  17.613  14.740  10.464
52042W        W15975  30.494  44.335  11.883
52043W        W15976  19.282  21.041  12.360
52044W        W15977   9.849  31.429   1.377
52045W        W15978  33.077  22.214  11.940
52046W        W15979  15.781  38.905   0.338
52047W        W15980   2.926   4.212   1.826
52048W        W15981  25.651  25.011  10.426
52049W        W15982  23.700   8.785   3.323
52050W        W15983  37.533  44.877  12.949
52051W        W15984   1.816  33.450   3.152
52052W        W15985  26.109   8.351  12.389
52053W        W15986  34.053   8.694  11.579
52054W        W15987  24.702  41.361   1.275
52055W        W15988  39.318  29.572  14.032
52056W        W15989   9.159  41.376   0.451
52057W        W15990   6.384   8.219   4.643
52058W        W15991  18.547  26.636  14.515
52059W        W15992  16.612  36.095  13.361
52060W        W15993  43.973  29.117   3.257
52061W        W15994  25.645  12.825  12.969
52062W        W15995  13.143   3.894   0.391
52063W        W15996  17.767  36.978  10.034
52064W        W15997  35.520  37.011  11.065
52065W        W15998  41.013  38.565  11.916
52066W        W15999  41.840  33.617  12.965
52067W        W16000  17.301  14.299   4.303
52068W        W16001  30.084  18.116  11.879
52069W        W16002  21.569  24.711  14.861
52070W        W16003   9.706  31.085  11.882
52071W        W16004  19.700   4.259  12.030
52072W        W16005  31.139  10.774   2.892
52073W        W16006  42.432  32.949   4.706
52074W        W16007   7.877  22.155   5.277
52075W        W16008   9.224  41.386   3.187
52076W        W16009  23.197  22.229   3.686
52077W        W16010  21.565  15.823   2.353
52078W        W16011  22.241  24.653   1.721
52079W        W16012   8.292  14.301   1.723
52080W        W16013  43.869  22.568  11.971
52081W        W16014  32.982  11.127   1.402
52082W        W16015   7.393  36.018   4.281
52083W        W16016  38.825   1.908  10.994
52084W        W16017  32.536   4.423   3.148
52085W        W16018  27.484  44.820   3.640
52086W        W16019  40.908   3.321   2.836
52087W        W16020  21.647  40.942   1.830
52088W        W16021  19.213  36.537   4.609
52089W        W16022  26.496  44.794  12.873
52090W        W16023  31.411  25.478  13.443
52091W        W16024   8.350  13.837  14.868
52092W        W16025  23.666  31.408  14.332
52093W        W16026  16.716  24.181   0.253
52094W        W16027  42.914  33.418  14.297
52095W        W16028  15.246  43.822   0.455
52096W        W16029   2.891  26.594   0.952
52097W        W16030   5.223   3.355   0.937
52098W        W16031  27.501  27.660  12.438
52099W        W16032  24.545  44.806   1.877
52100W        W16033  30.568   9.712  10.622
52101W        W16034  27.147  30.656  10.906
52102W        W16035  42.032  33.407   0.833
52103W        W16036  21.082  11.649   4.261
52104W        W16037  25.694   0.438  10.405
52105W        W16038  25.572  34.080  13.409
52106W        W16039  10.638  19.218   0.395
52107W        W16040  32.041  40.545   0.826
52108W        W16041  23.621  13.820  12.494
52109W        W16042  11.855  32.440   4.165
52110W        W16043  39.809  27.487   2.816
52111W        W16044   2.370  12.733   0.290
52112W        W16045   3.340  44.318  14.950
52113W        W16046  39.332  22.102  13.894
52114W        W16047  30.449  25.483  12.852
52115W        W16048  19.164  21.758  13.442
52116W        W16049  10.250   1.310  14.398
52117W        W16050  11.332   2.390   0.453
52118W        W16051  36.843  36.535  14.319
52119W        W16052  43.407  18.219  11.114
52120W        W16053  19.571  35.380   3.871
52121W        W16054  21.688  42.809  12.375
52122W        W16055  39.903   7.862   3.870
52123W        W16056   2.830  11.356   1.844
52124W        W16057  26.489  32.031   0.422
52125W        W16058  40.347  33.575   3.683
52126W        W16059   3.917  42.883  11.977
52127W        W16060  34.436  19.598   3.193
52128W        W16061  16.776  39.885   2.784
52129W        W16062  27.958  35.526   4.720
52130W        W16063  33.538  31.107  14.973
52131W        W16064  24.573  40.343   2.799
52132W        W16065  34.090  30.152   3.225
52133W        W16066  22.631  27.962  12.345
52134W        W16067  39.874  42.385   1.217
52135W        W16068  22.616  17.707   0.293
52136W        W16069  35.871  29.147  10.904
52137W        W16070   5.276  14.784  12.061
52138W        W16071  17.636  36.019  12.999
52139W        W16072  28.031  25.087  13.428
52140W        W16073  18.152  36.008  12.568
52141W        W16074  21.041  44.291   3.372
52142W        W16075  31.554  12.816   2.196
52143W        W16076  35.517   0.380  12.969
52144W        W16077  35.584   3.236  11.941
52145W        W16078  38.907  36.878  13.999
52146W        W16079  30.456   6.744  14.882
52147W        W16080  32.137  16.568  10.113
52148W        W16081  22.706  34.570   3.786
52149W        W16082  44.348  18.107   0.359
52150W        W16083  41.995  25.574  13.960
52151W        W16084  31.966  14.291  14.508
52152W        W16085  12.787  29.567  11.527
52153W        W16086  44.898  39.406   1.914
52154W        W16087   6.227  39.027  14.908
52155W        W16088  28.602  34.905   0.306
52156W        W16089  32.575  38.507  14.782
52157W        W16090  43.324  40.908   1.745
52158W        W16091  32.111  12.168  14.945
52159W        W16092  20.053   7.185   1.215
52160W        W16093  23.097  18.254   1.770
52161W        W16094  42.452   9.877   2.769
52162W        W16095  30.978  43.389   3.380
52163W        W16096   4.942   8.341   0.734
52164W        W16097  10.722  42.429  11.449
52165W        W16098  27.469   2.774   1.755
52166W        W16099  38.071  18.205   3.850
52167W        W16100  36.924  38.326  11.423
52168W        W16101  35.380  22.662  13.862
52169W        W16102  34.547  20.750  11.528
52170W        W16103  40.988  20.230  10.467
52171W        W16104   1.790  27.151  14.444
52172W        W16105  13.349   4.750   2.315
52173W        W16106  27.655  15.704   0.479
52174W        W16107   0.967  36.920  12.391
52175W        W16108   0.301   3.925   1.898
52176W        W16109  17.166  27.531  13.897
52177W        W16110  41.014  39.008  14.468
52178W        W16111  36.868  25.053  14.767
52179W        W16112  11.743  36.854   2.877
52180W        W16113  21.231  23.196  10.910
52181W        W16114  24.058  34.549  13.029
52182W        W16115  39.442  35.038  10.405
52183W        W16116  39.019  36.892  10.965
52184W        W16117  12.660   2.944  10.421
52185W        W16118  29.454  44.853   5.254
52186W        W16119  26.170  31.129  13.870
52187W        W16120  11.196  15.091   4.747
52188W        W16121   2.345  36.879  10.989
52189W        W16122  39.344   9.663  12.057
52190W        W16123   7.757  33.600   2.723
52191W        W16124   5.828  18.619   3.190
52192W        W16125  35.973  12.737  13.970
52193W        W16126  39.427  16.778   4.754
52194W        W16127  14.656  16.143   4.672
52195W        W16128  18.105  28.018  12.035
52196W        W16129  23.099   9.359  14.362
52197W        W16130   7.839  22.042  10.440
52198W        W16131  37.831   4.361   3.660
52199W        W16132  14.788  41.477  14.448
52200W        W16133   2.381   0.770  12.553
52201W        W16134   9.269  17.225  14.004
52202W        W16135  43.015  27.968   2.806
52203W        W16136  37.965  24.037  13.545
52204W        W16137  38.426  16.260   0.309
52205W        W16138   0.958  44.292  11.024
52206W        W16139   6.757  30.494   2.355
52207W        W16140  35.937  44.843   3.287
52208W        W16141  27.565   2.368  10.966
52209W        W16142  21.061  12.181   4.645
52210W        W16143  31.121  29.958   1.406
52211W        W16144  29.526  35.499   3.819
52212W        W16145  35.441  29.572   3.373
52213W        W16146  30.162  31.009  11.876
52214W        W16147  16.789  31.613  11.916
52215W        W16148  18.232  16.198  12.490
52216W        W16149  34.879  20.240  11.129
52217W        W16150  22.711  17.670  10.419
52218W        W16151  44.270   4.877  14.018
52219W        W16152  16.603   5.360   3.753
52220W        W16153  12.152  20.194  14.943
52221W        W16154   7.786  16.715  13.019
52222W        W16155  16.107   3.920   0.344
52223W        W16156  34.094   6.263  13.997
52224W        W16157  20.704  39.942   0.763
52225W        W16158   7.211  44.489   3.647
52226W        W16159  15.224  10.312  10.572
52227W        W16160  20.104   3.276  12.436
52228W        W16161  19.616   1.742   1.873
52229W        W16162  19.231  11.241   1.847
52230W        W16163  27.186  33.005   3.634
52231W        W16164   5.802  12.356   4.259
52232W        W16165   0.756  41.489  14.389
52233W        W16166  12.165  33.581  11.555
52234W        W16167  25.214   1.748   4.638
52235W        W16168  24.632  18.253  12.903
52236W        W16169  39.879  42.795   3.866
52237W        W16170   5.909  25.988   1.380
52238W        W16171   8.885  25.539   5.145
52239W        W16172  32.001  34.069  11.969
52240W        W16173  32.551  35.991   2.212
52241W        W16174  39.929   2.863  14.816
52242W        W16175  23.558  19.699   1.443
52243W        W16176  36.034   6.240   0.921
52244W        W16177  11.718   0.371   1.802
52245W        W16178  26.146  12.692  14.379
52246W        W16179  35.854  15.783  13.473
52247W        W16180   7.738   1.811   2.804
52248W        W16181   9.700   6.319  11.061
52249W        W16182  43.324  25.664  11.953
52250W        W16183  22.096  41.509   4.271
52251W        W16184  35.859  32.584  14.508
52252W        W16185   4.926  42.940   5.266
52253W        W16186  40.824  13.617   3.383
52254W        W16187  37.544  37.344  13.373
52255W        W16188   4.816  31.412  12.056
52256W        W16189  41.345  29.499  14.881
52257W        W16190  42.006  44.000   0.448
52258W        W16191  18.263  32.921  11.398
52259W        W16192   9.210  15.652   1.906
52260W        W16193  11.288  42.962  10.975
52261W        W16194  32.558   4.247   4.644
52262W        W16195   8.297  15.247   3.240
52263W        W16196  30.495   4.400   1.214
52264W        W16197  41.854  10.263   1.783
52265W        W16198  30.650  13.650  11.523
52266W        W16199  44.363  39.533   4.752
52267W        W16200   2.279   7.846   4.746
52268W        W16201  11.284  34.535  13.992
52269W        W16202  34.981   4.446  10.616
52270W        W16203  26.186  43.853  13.978
52271W        W16204  31.518  32.891  11.971
52272W        W16205   1.964  38.452   2.887
52273W        W16206  22.619  21.677   2.790
52274W        W16207  40.492  31.490   1.297
52275W        W16208  16.100   8.730  14.987
52276W        W16209   3.358  40.007  13.346
52277W        W16210  19.579  41.453  10.928
52278W        W16211  28.161  25.559   4.809
52279W        W16212  41.517  22.083  14.819
52280W        W16213  43.005  35.895  11.432
52281W        W16214  31.555  30.108  12.490
52282W        W16215  41.436  43.994   1.436
52283W        W16216   9.673  44.449   3.229
52284W        W16217  11.732   6.278   3.782
52285W        W16218  29.020  22.615  12.442
52286W        W16219  30.955   9.712  12.838
52287W        W16220  12.840  18.212   3.334
52288W        W16221  11.659   7.178  13.809
52289W        W16222   9.647   8.196   4.722
52290W        W16223   5.374   2.721   0.340
52291W        W16224  17.597  39.983  11.503
52292W        W16225  40.345  14.597   0.837
52293W        W16226   3.869  33.549  12.068
52294W        W16227  30.037  20.639  12.831
52295W        W16228  38.074  21.115   1.886
52296W        W16229   4.875  30.642   2.218
52297W        W16230   9.772  24.480  10.519
52298W        W16231  17.083  32.960  14.443
52299W        W16232  24.502  27.595  14.971
52300W        W16233  16.153  31.941   4.163
52301W        W16234  11.154   7.740   1.285
52302W        W16235   6.786  42.468   4.722
52303W        W16236  26.025  36.898   4.288
52304W        W16237  18.680  15.102  14.485
52305W        W16238   3.385   2.351  13.843
52306W        W16239  14.224  13.759   0.334
52307W        W16240  12.133  23.623  11.979
52308W        W16241  29.955   9.393  14.928
52309W        W16242   3.872  25.989  13.841
52310W        W16243  42.492   9.186  13.474
52311W        W16244  39.349   2.233   4.212
52312W        W16245  30.121  40.344   4.769
52313W        W16246  35.562  42.321  14.864
52314W        W16247   8.281  43.862  12.034
52315W        W16248   9.751   6.221  10.621
52316W        W16249  29.495  14.111   1.415
52317W        W16250   7.412  21.557   0.814
52318W        W16251  44.845   7.409   3.738
52319W        W16252  37.448  28.631   2.375
52320W        W16253  23.683  44.872   3.633
52321W        W16254  29.637  26.630  13.798
52322W        W16255  22.058  37.066  10.603
52323W        W16256  26.156  21.173   2.771
52324W        W16257  22.041  33.577  11.004
52325W        W16258  32.432  16.229  13.877
52326W        W16259  31.119   3.412  14.783
52327W        W16260  40.448  13.650   4.605
52328W        W16261  35.007  36.556  12.466
52329W        W16262  15.584  30.595  11.507
52330W        W16263  17.605  32.929   3.825
52331W        W16264  31.486  43.787   3.837
52332W        W16265  13.122  38.026  14.783
52333W        W16266  17.607  31.098   2.763
52334W        W16267  35.996  21.739  10.544
52335W        W16268  38.447  44.820   3.676
52336W        W16269  43.834  24.077  14.425
52337W        W16270  43.392  42.843  13.886
52338W        W16271  39.845  24.517   3.783
52339W        W16272  39.059   0.961  11.376
52340W        W16273  21.104  18.774   1.701
52341W        W16274  14.746  40.869  13.884
52342W        W16275  17.661   0.942  12.476
52343W        W16276   7.878  43.284  10.891
52344W        W16277  16.084  21.233   2.851
52345W        W16278  28.932  41.457  12.475
52346W        W16279  19.643  11.217   3.798
52347W        W16280   1.733  25.541  10.955
52348W        W16281  25.001   7.902  14.323
52349W        W16282  32.062  18.073   0.838
52350W        W16283   1.453  10.658   0.307
52351W        W16284  36.457  41.423   2.669
52352W        W16285  42.481  31.627   1.748
52353W        W16286  12.809  40.825  12.414
52354W        W16287  26.083   4.425   1.867
52355W        W16288  19.226   5.719   1.733
52356W        W16289  39.521  24.068  14.384
52357W        W16290  16.304   3.715   0.766
52358W        W16291  23.492   0.938   3.226
52359W        W16292  41.411  22.734   5.226
52360W        W16293  44.941  14.105  14.955
52361W        W16294  11.782  19.074  10.524
52362W        W16295  21.133   2.395   3.857
52363W        W16296   0.906  24.637  14.882
52364W        W16297   8.686  27.540   2.248
52365W        W16298  11.834  11.737  11.588
52366W        W16299   7.334  21.209   4.297
52367W        W16300  38.050  22.075   2.706
52368W        W16301  33.464  37.409  12.850
52369W        W16302  36.982  23.009  14.941
52370W        W16303  11.328  30.625  10.936
52371W        W16304  21.186  33.042  11.491
52372W        W16305  31.416  41.039   4.683
52373W        W16306  26.674  20.124  11.474
52374W        W16307  22.208   8.779   2.765
52375W        W16308  42.840   9.181   3.175
52376W        W16309  19.059   7.708   3.647
52377W        W16310  23.128   6.298  10.637
52378W        W16311   5.341  24.973   4.183
52379W        W16312  41.524  25.064   1.913
52380W        W16313   8.705   6.704   0.399
52381W        W16314  23.614  30.485  13.917
52382W        W16315   1.290   0.919  11.946
52383W        W16316   8.856  16.629  14.440
52384W        W16317  21.617  22.679   0.809
52385W        W16318   5.796  21.045  10.908
52386W        W16319  20.044  18.180  14.926
52387W        W16320  16.600  20.656  10.588
52388W        W16321   9.876   1.970   2.347
52389W        W16322  26.471   3.804   0.450
52390W        W16323  28.125  41.372   2.405
52391W        W16324   2.819  15.113  11.935
52392W        W16325  11.684  24.634  14.029
52393W        W16326  24.201  15.192   3.817
52394W        W16327  35.072  43.491   4.763
52395W        W16328   2.226  35.520  14.474
52396W        W16329  38.056   5.221   0.826
52397W        W16330   1.950  11.857  13.529
52398W        W16331  36.557  22.073   1.747
52399W        W16332  27.485  15.171  14.782
52400W        W16333  13.266   2.842  11.607
52401W        W16334   5.869   0.466   0.913
52402W        W16335   4.241  42.954   0.422
52403W        W16336  40.809  44.938   0.915
52404W        W16337  10.278  31.472  12.533
52405W        W16338  43.305  24.580   2.369
52406W        W16339  23.030  44.308   3.756
52407W        W16340  43.292  10.201  14.477
52408W        W16341  24.055   9.821   3.809
52409W        W16342   9.393  42.998   1.320
52410W        W16343  30.476   6.268   1.317
52411W        W16344  23.169  12.761   2.663
52412W        W16345  30.576   8.822   2.868
52413W        W16346  40.018  42.000  12.541
52414W        W16347  23.998   5.399  14.450
52415W        W16348  20.093  21.611   4.230
52416W        W16349   0.300  43.509  14.840
52417W        W16350  37.432   8.265  12.549
52418W        W16351   9.658  34.598   0.331
52419W        W16352  17.296  23.113  12.838
52420W        W16353  38.993  26.072   3.310
52421W        W16354  28.136  38.843   9.998
52422W        W16355  30.475  40.832  12.471
52423W        W16356  24.987  34.095  11.886
52424W        W16357  28.538  25.212   0.731
52425W        W16358  10.216  28.179  13.020
52426W        W16359  11.289  21.166   0.284
52427W        W16360  28.117  13.764  13.536
52428W        W16361  26.020  15.199   3.331
52429W        W16362  26.663  17.703   1.704
52430W        W16363  22.714  12.725   1.229
52431W        W16364  36.527  13.600   0.811
52432W        W16365  16.726  43.876   3.761
52433W        W16366  26.610  42.384  11.856
52434W        W16367  36.035  19.102  12.084
52435W        W16368  43.361  31.084   4.826
52436W        W16369   0.286  17.165  14.858
52437W        W16370  14.770  23.191   0.956
52438W        W16371   6.353   6.751  10.601
52439W        W16372   3.304   9.791  13.833
52440W        W16373  28.072   9.741   3.230
52441W        W16374  29.429   5.301  10.626
52442W        W16375  38.823  21.110  12.424
52443W        W16376  24.031  34.907  11.919
52444W        W16377  19.267  19.702   3.163
52445W        W16378   0.971  26.051  11.938
52446W        W16379  15.629  42.840   4.637
52447W        W16380   1.322  11.176   1.337
52448W        W16381  36.520  42.915  12.523
52449W        W16382   9.223   4.339  13.026
52450W        W16383   1.410  29.093  11.455
52451W        W16384  25.490   0.881  12.578
52452W        W16385  39.945  13.620   2.713
52453W        W16386   6.678  28.613  12.017
52454W        W16387  22.724   2.413  13.915
52455W        W16388   1.785  26.081  12.499
52456W        W16389  24.606  20.177  12.026
52457W        W16390  39.991  25.006   4.770
52458W        W16391  12.321  19.638  11.482
52459W        W16392  17.750  14.683   4.687
52460W        W16393  24.203  35.514  11.609
52461W        W16394   0.926   9.311   2.779
52462W        W16395  16.599  32.412   2.354
52463W        W16396  23.534  14.711  11.498
52464W        W16397  11.743  17.176   5.087
52465W        W16398  32.546  39.455   3.318
52466W        W16399   3.878  18.063  13.942
52467W        W16400  13.638  40.323  11.866
52468W        W16401  40.861  32.027  10.420
52469W        W16402  26.968  18.573  10.605
52470W        W16403  22.190  18.600   2.735
52471W        W16404  41.366  14.824   3.377
52472W        W16405  15.668  25.186  12.477
52473W        W16406  27.989  33.407  11.477
52474W        W16407   2.863  19.777   1.833
52475W        W16408   8.753  15.808   4.813
52476W        W16409  43.842  17.203   2.365
52477W        W16410  28.009  42.852  11.498
52478W        W16411  34.504   7.315  13.317
52479W        W16412  17.168   2.819   2.673
52480W        W16413  16.160   5.899  11.980
52481W        W16414  17.288  21.601   4.263
52482W        W16415  15.295   4.928   5.802
52483W        W16416  28.115   1.880   1.232
52484W        W16417  21.565  27.646  10.113
52485W        W16418   5.812   3.362  13.309
52486W        W16419  10.318  27.622   0.749
52487W        W16420  39.448   5.796   0.311
52488W        W16421   3.806  41.888  14.347
52489W        W16422   5.923  12.299  10.013
52490W        W16423  12.128   2.735  12.887
52491W        W16424   2.919  43.963   1.246
52492W        W16425  31.505  29.557  10.463
52493W        W16426  29.536  30.541   5.189
52494W        W16427   6.253  20.525   0.442
52495W        W16428  18.092   9.287   3.378
52496W        W16429  14.659  30.554   0.919
52497W        W16430  36.419  40.527  11.486
52498W        W16431  10.842  27.596   1.250
52499W        W16432  41.984   9.192  12.500
52500W        W16433  34.444   9.218  11.429
52501W        W16434   9.230  33.035  14.290
52502W        W16435  16.148  41.349  13.866
52503W        W16436   6.690  15.632  11.918
52504W        W16437  18.179  39.431  11.968
52505W        W16438  30.977  16.604   0.916
52506W        W16439  33.533  18.721   1.713
52507W        W16440  39.057  37.030   2.822
52508W        W16441  26.973  37.973  12.373
52509W        W16442  41.365  27.041   3.169
52510W        W16443   0.449   0.852  12.476
52511W        W16444  31.002  31.518  13.969
52512W        W16445  27.514  29.533   2.225
52513W        W16446  17.297   7.796   1.889
52514W        W16447  26.967  14.132   2.352
52515W        W16448  27.102  42.461  13.955
52516W        W16449  39.394  16.186  14.440
52517W        W16450  20.167   8.382   0.913
52518W        W16451  34.375  19.189  12.908
52519W        W16452  42.028  37.392   3.716
52520W        W16453  20.225  29.956  10.038
52521W        W16454  17.252   0.397  14.852
52522W        W16455   2.764  18.785   0.936
52523W        W16456  27.593   2.814   2.312
52524W        W16457  39.856   2.946   4.747
52525W        W16458  43.805  19.719  14.305
52526W        W16459  34.892  36.851  12.545
52527W        W16460  19.195  37.867  14.946
52528W        W16461  26.624  25.022  13.539
52529W        W16462   2.749  37.956   1.390
52530W        W16463  37.542  20.029   3.385
52531W        W16464  38.040  19.181  13.916
52532W        W16465   5.282  12.842   1.364
52533W        W16466  44.461   8.809  12.523
52534W        W16467  10.718  30.502   2.277
52535W        W16468  16.308  36.000   1.312
52536W        W16469  44.504  40.435   5.312
52537W        W16470  28.624  13.757  12.483
52538W        W16471  32.505  28.602   2.214
52539W        W16472   4.888   9.203   0.306
52540W        W16473   4.808  16.175  12.942
52541W        W16474  26.540  12.227   4.193
52542W        W16475  10.220  10.750   3.344
52543W        W16476  42.004  36.484   0.283
52544W        W16477   3.788   7.376  14.498
52545W        W16478   9.723  43.473  14.448
52546W        W16479  36.953  29.156  11.948
52547W        W16480  24.714   5.196  10.487
52548W        W16481  22.582   3.407   3.705
52549W        W16482  43.290  25.036   1.790
52550W        W16483  26.541  38.565   0.341
52551W        W16484  26.698  41.992   9.997
52552W        W16485  24.216  31.921   1.293
52553W        W16486  15.679   6.906  14.011
52554W        W16487   6.257  42.448   1.306
52555W        W16488  13.332  23.005   3.792
52556W        W16489  34.999   3.946  12.535
52557W        W16490  39.061   0.897  13.884
52558W        W16491   5.274   1.340  10.492
52559W        W16492  13.303  28.998   4.837
52560W        W16493  24.151   4.815   5.269
52561W        W16494  14.651  14.788   0.325
52562W        W16495  27.981  34.446   1.876
52563W        W16496  13.304  21.751   4.753
52564W        W16497   1.344  28.558   0.847
52565W        W16498   4.300  14.173  12.934
52566W        W16499  43.283  20.740   3.282
52567W        W16500   6.702  41.869  13.317
52568W        W16501  17.257  29.622   1.896
52569W        W16502  10.190  20.591  13.806
52570W        W16503   6.395   8.856  10.586
52571W        W16504  23.046  24.150   0.468
52572W        W16505   4.217   3.277   1.859
52573W        W16506   1.932  23.694   1.388
52574W        W16507  14.331   8.235  11.589
52575W        W16508  44.462   8.343   1.223
52576W        W16509  24.229  43.270   2.741
52577W        W16510  38.554  39.818   1.409
52578W        W16511   3.926  20.178  12.518
52579W        W16512  16.136   3.385  11.601
52580W        W16513  28.475  34.931  11.071
52581W        W16514  27.163   5.814  12.934
52582W        W16515  24.481  30.936  11.556
52583W        W16516  26.956   8.849  13.497
52584W        W16517  32.457   4.322  11.532
52585W        W16518  12.172  19.246   1.705
52586W        W16519  43.783  27.071   3.818
52587W        W16520  37.863   3.367   1.329
52588W        W16521  18.270  25.530   2.678
52589W        W16522  11.761  29.618   4.327
52590W        W16523  37.954  21.053   2.229
52591W        W16524  44.343  21.052  10.915
52592W        W16525  29.614  12.628   2.687
52593W        W16526  35.077  29.008   4.340
52594W        W16527  31.513  22.723  13.466
52595W        W16528   1.405   0.374   3.861
52596W        W16529  32.406  22.550   2.333
52597W        W16530   4.342  43.896  14.923
52598W        W16531  23.086  39.458   0.400
52599W        W16532   7.694  10.245   3.355
52600W        W16533  42.922  25.600  14.028
52601W        W16534  43.877  39.955   3.313
52602W        W16535  34.384  43.017  10.943
52603W        W16536  24.527  20.729  10.946
52604W        W16537  41.949  19.726   3.199
52605W        W16538   9.349  15.664  10.132
52606W        W16539  21.239   8.802   3.843
52607W        W16540  17.639  31.015  11.037
52608W        W16541   5.279  39.019  12.048
52609W        W16542   3.422  41.523   4.134
52610W        W16543   9.806  21.523  14.470
52611W        W16544   8.690   3.238  11.436
52612W        W16545   5.233  19.550   3.752
52613W        W16546  19.619  33.903  14.286
52614W        W16547   9.235  14.590   2.369
52615W        W16548  33.905  14.294   3.864
52616W        W16549  16.225  34.505   0.823
52617W        W16550  29.518  11.267   4.717
52618W        W16551  34.074  13.777  14.294
52619W        W16552  39.913  29.166   2.688
52620W        W16553  22.161   5.750   2.380
52621W        W16554  43.784  30.039   2.242
52622W        W16555   7.365  28.476   4.290
52623W        W16556  33.440  18.190   9.939
52624W        W16557   0.853  43.380   2.889
52625W        W16558  35.564  38.525   3.642
52626W        W16559   1.776  10.660  12.976
52627W        W16560  10.705  18.568   0.899
52628W        W16561  17.263  43.824   4.166
52629W        W16562  16.589  31.959  11.047
52630W        W16563  38.504  38.073  12.881
52631W        W16564  11.231  30.542  14.496
52632W        W16565  40.854  15.122  13.355
52633W        W16566  39.913  44.777  14.472
52634W        W16567   0.904   8.210   1.269
52635W        W16568  14.188   8.282   3.738
52636W        W16569  28.953   2.441  13.859
52637W        W16570  21.105   0.838   4.130
52638W        W16571  13.106  22.185  13.434
52639W        W16572  37.921   4.258  10.615
52640W        W16573   3.401  35.895   2.692
52641W        W16574  41.350  22.678   2.404
52642W        W16575  37.038  38.465  13.370
52643W        W16576  40.003  15.135  11.965
52644W        W16577  25.035   6.920  14.823
52645W        W16578  35.406  38.537   2.664
52646W        W16579  19.111  17.201  12.421
52647W        W16580  32.457  16.774  10.481
52648W        W16581  13.710  33.523   3.340
52649W        W16582   6.325  44.846   3.748
52650W        W16583   0.263  15.767  10.955
52651W        W16584  27.686  14.208  10.550
52652W        W16585   2.869  40.361   2.747
52653W        W16586  33.606  23.575   3.681
52654W        W16587  34.055  37.472  10.992
52655W        W16588  25.219  34.439  11.073
52656W        W16589  41.844  28.010   2.786
52657W        W16590  16.248  18.604   4.677
52658W        W16591   0.981  39.385  10.460
52659W        W16592   6.315  41.864  10.635
52660W        W16593  10.720  28.963   2.691
52661W        W16594  25.033   5.782  13.351
52662W        W16595  29.603  33.483  12.536
52663W        W16596  28.128  39.997  10.551
52664W        W16597   2.820   7.377  14.510
52665W        W16598   1.845  30.158   1.732
52666W        W16599  36.474  31.144  14.924
52667W        W16600  41.487  25.111  11.966
52668W        W16601  40.965  29.001  14.941
52669W        W16602  10.713  14.790  12.341
52670W        W16603   0.363   8.654   4.730
52671W        W16604  41.952  16.206   2.229
52672W        W16605  43.284  40.331   4.309
52673W        W16606  42.946  29.080  13.538
52674W        W16607  28.982  20.668  13.532
52675W        W16608   2.238  34.601   5.137
52676W        W16609  28.185  27.501  13.325
52677W        W16610   1.801  26.570   3.772
52678W        W16611   3.789   5.911   4.779
52679W        W16612  33.503  32.996  11.855
52680W        W16613  43.847  40.920   4.175
52681W        W16614  26.517  24.657  11.039
52682W        W16615  10.316  25.639   5.150
52683W        W16616  27.601  33.984  13.443
52684W        W16617   8.757  42.918   3.866
52685W        W16618  17.156  22.084   2.752
52686W        W16619  24.143  34.942   0.327
52687W        W16620  28.603  41.995  10.432
52688W        W16621  25.051  37.437   1.915
52689W        W16622  25.562  41.426  13.967
52690W        W16623   6.837  25.678   1.255
52691W        W16624  13.623  11.698   4.251
52692W        W16625   9.879  15.306   2.195
52693W        W16626  28.008  27.500  14.310
52694W        W16627  10.636  24.506   3.250
52695W        W16628   9.288   4.726   4.769
52696W        W16629  39.543  36.948   0.931
52697W        W16630  32.446  10.158   1.831
52698W        W16631  41.885  41.314  12.478
52699W        W16632  12.218  31.066  14.396
52700W        W16633   6.408  19.218  10.572
52701W        W16634  42.305  22.601  13.031
52702W        W16635  21.211  39.469   1.292
52703W        W16636  12.321  37.933   3.701
52704W        W16637  10.261  27.504   3.703
52705W        W16638   0.353  10.865   2.718
52706W        W16639  41.420   0.779  11.491
52707W        W16640  42.281  23.648  12.410
52708W        W16641  36.074   7.801  11.552
52709W        W16642   2.722   0.774   3.665
52710W        W16643  15.721  14.747  14.408
52711W        W16644  23.523  29.518   1.924
52712W        W16645  17.121  44.397  10.150
52713W        W16646  17.154  36.095  10.060
52714W        W16647  29.084   5.231   3.204
52715W        W16648   0.311  17.761   1.359
52716W        W16649  15.649  33.436  11.471
52717W        W16650  22.567  29.100  14.464
52718W        W16651  23.061   7.193   1.917
52719W        W16652  14.769   1.812  10.493
52720W        W16653  13.831  22.747  10.973
52721W        W16654  25.532  24.165   1.823
52722W        W16655  24.019  43.439   4.738
52723W        W16656  44.814   7.884  14.499
52724W        W16657  11.311  44.289   1.309
52725W        W16658  18.253  29.611   0.359
52726W        W16659  26.063  32.615  14.504
52727W        W16660   2.894  13.805  14.305
52728W        W16661  36.472  28.948  13.918
52729W        W16662   1.801  28.580  11.536
52730W        W16663  35.945  33.530  12.350
52731W        W16664  30.423  38.960  13.870
52732W        W16665   3.878  36.887   0.360
52733W        W16666   4.725   7.821   4.654
52734W        W16667  11.733  15.609   0.276
52735W        W16668  20.557  10.636  10.412
52736W        W16669  34.427  18.669  14.360
52737W        W16670  18.727  38.347  11.600
52738W        W16671  43.346  38.469   4.341
52739W        W16672  31.968  14.192  13.326
52740W        W16673  24.496   6.274   0.372
52741W        W16674  29.154  28.953  13.904
52742W        W16675  20.177  13.640   4.124
52743W        W16676  38.896  36.444  13.445
52744W        W16677  41.381  22.247  13.436
52745W        W16678  21.579  42.493  11.062
52746W        W16679   8.879  35.413   4.215
52747W        W16680   0.296  42.874  10.464
52748W        W16681  39.861  34.067   3.821
52749W        W16682   4.931  11.762  11.429
52750W        W16683  38.491  29.490   3.845
52751W        W16684  29.665  10.258  12.042
52752W        W16685   4.869  37.452  14.351
52753W        W16686   4.296  12.740   0.942
52754W        W16687  29.651  37.063  10.455
52755W        W16688  38.403   0.767  11.546
52756W        W16689  16.174   7.411   1.876
52757W        W16690   0.408  18.170  14.347
52758W        W16691  25.506  35.530  10.558
52759W        W16692  32.891  10.699   3.318
52760W        W16693  21.633  32.908  11.562
52761W        W16694  19.559  25.152   3.180
52762W        W16695  21.113  26.680   4.622
52763W        W16696  29.096  27.616  11.500
52764W        W16697  25.095   1.329   1.396
52765W        W16698  32.551  30.432  11.444
52766W        W16699   2.286  16.739   0.381
52767W        W16700   1.813  36.381  10.903
52768W        W16701   7.347   9.212  11.039
52769W        W16702   5.429  25.471  14.771
52770W        W16703  13.673   3.780   0.254
52771W        W16704  21.727  28.184   4.620
52772W        W16705   5.215   5.245   4.700
52773W        W16706   5.771  42.800  14.422
52774W        W16707  26.064  39.552   3.351
52775W        W16708  11.275  31.953  12.508
52776W        W16709   7.842   1.791  11.440
52777W        W16710  12.710  39.837   4.284
52778W        W16711  37.972  17.775   4.674
52779W        W16712   4.414  18.612   1.361
52780W        W16713  17.576  42.459   0.446
52781W        W16714   7.367  40.528  14.356
52782W        W16715  40.336  14.709   3.345
52783W        W16716   1.852  27.184   2.278
52784W        W16717   7.859  39.916  11.422
52785W        W16718  41.342  25.997   1.342
52786W        W16719  34.440  42.890  10.579
52787W        W16720  24.052  43.454   3.716
52788W        W16721  40.839  42.921   3.270
52789W        W16722  24.085  14.746  11.927
52790W        W16723  36.561  42.804  12.061
52791W        W16724  28.607  42.454  12.457
52792W        W16725  16.612  31.602   1.854
52793W        W16726  28.668  13.146  12.910
52794W        W16727  36.580  28.935  13.027
52795W        W16728  19.276   6.202   0.290
52796W        W16729  22.605  12.628  11.453
52797W        W16730  11.682  42.015   1.226
52798W        W16731  19.559   9.767   2.868
52799W        W16732  11.726   5.858   1.363
52800W        W16733   1.877  40.944  13.384
52801W        W16734  25.085  40.054   1.307
52802W        W16735  35.463   7.382  12.458
52803W        W16736  42.008  14.798   4.632
52804W        W16737  17.193  44.764   4.343
52805W        W16738  21.608  17.776   0.878
52806W        W16739  12.292  23.540   1.411
52807W        W16740   4.793  14.681  12.488
52808W        W16741  33.383  19.129  11.022
52809W        W16742  27.007  25.596  10.996
52810W        W16743  27.585  39.934   2.201
52811W        W16744  30.440  26.104   4.803
52812W        W16745  13.249  39.825  12.823
52813W        W16746  30.019  38.848  14.297
52814W        W16747  20.118  35.394   1.698
52815W        W16748   6.391  44.435  10.016
52816W        W16749   6.701  14.791  10.468
52817W        W16750  25.604  25.603  12.890
52818W        W16751   5.743   4.911  11.989
52819W        W16752   2.358  29.624  13.833
52820W        W16753  36.396  18.791   3.773
52821W        W16754  39.908  23.699   3.247
52822W        W16755   3.256  19.552  11.516
52823W        W16756  38.858   9.800   1.856
52824W        W16757  25.601  36.050   4.191
52825W        W16758  43.849  19.237   3.375
52826W        W16759  23.685  43.952   0.469
52827W        W16760   2.448   3.801   0.283
52828W        W16761   0.810   0.357  10.022
52829W        W16762  40.850  40.310  12.399
52830W        W16763   0.298  22.026   3.835
52831W        W16764   4.272  35.071   1.289
52832W        W16765   0.421  24.654   3.684
52833W        W16766  25.972  32.465  13.536
52834W        W16767  43.832  10.381  11.607
52835W        W16768  15.645  30.056  10.475
52836W        W16769   6.378   9.764  12.940
52837W        W16770  27.637  27.571   0.257
52838W        W16771   4.345  40.367   0.464
52839W        W16772  31.600   1.289   3.838
52840W        W16773  24.526   7.861  11.473
52841W        W16774  12.179  32.502  14.967
52842W        W16775  25.528   4.333   1.887
52843W        W16776  21.225  38.566  12.825
52844W        W16777   4.859  35.066  14.279
52845W        W16778   9.790  36.088   0.881
52846W        W16779   4.295  35.414   3.774
52847W        W16780  26.654   6.267  11.596
52848W        W16781  21.539  39.315  12.473
52849W        W16782  16.800  44.772  14.498
52850W        W16783  19.561  40.970   3.823
52851W        W16784  32.416  32.479  11.574
52852W        W16785  10.332  10.746   3.795
52853W        W16786  13.634  35.566   3.655
52854W        W16787   1.879   0.469   1.835
52855W        W16788  26.533  38.367  12.393
52856W        W16789   9.155  16.193   1.297
52857W        W16790  10.784   7.809   4.661
52858W        W16791  27.043  19.209  12.032
52859W        W16792  11.199  43.960   0.330
52860W        W16793  33.980  38.945   2.402
52861W        W16794  32.577  19.747   0.806
52862W        W16795   9.871   1.846   0.246
52863W        W16796   5.762  24.543   1.305
52864W        W16797  24.496  25.668  13.816
52865W        W16798  26.104  30.925   2.264
52866W        W16799  22.212  36.002   0.766
52867W        W16800  26.179  40.337   1.395
52868W        W16801  35.423  27.103  14.980
52869W        W16802  42.913  26.119  14.425
52870W        W16803  25.711  34.894  10.471
52871W        W16804  34.415  16.587  14.031
52872W        W16805   8.830  22.740   2.381
52873W        W16806   2.416  37.866  14.462
52874W        W16807  25.125  24.133  11.451
52875W        W16808  32.936  17.167  12.019
52876W        W16809  37.346  24.482  12.028
52877W        W16810   8.207   7.902   0.425
52878W        W16811  40.532  37.071  13.488
52879W        W16812  12.787  12.620  14.367
52880W        W16813  13.128  10.673  14.473
52881W        W16814  13.709  33.445  14.357
52882W        W16815  25.649  43.009   5.117
52883W        W16816  28.657  37.083   4.220
52884W        W16817   5.900  43.843  11.083
52885W        W16818  27.137  35.366  13.331
52886W        W16819  29.980   6.816  10.467
52887W        W16820  29.439  41.374  14.864
52888W        W16821  41.439  10.272   0.403
52889W        W16822   4.748  24.229   1.804
52890W        W16823  42.865   1.241  14.394
52891W        W16824  17.723   1.933   1.310
52892W        W16825  13.208   1.263   3.654
52893W        W16826  26.609   8.327   0.415
52894W        W16827  15.632  11.205  14.300
52895W        W16828  37.970  42.447  13.443
52896W        W16829  37.877  39.493   2.679
52897W        W16830  16.087   4.362  10.934
52898W        W16831   5.284   1.833   1.319
52899W        W16832   3.927   7.844  12.526
52900W        W16833  40.352  15.150   0.854
52901W        W16834   5.274  12.212   3.860
52902W        W16835  24.716  26.095   3.840
52903W        W16836   5.263  16.235  10.633
52904W        W16837  27.020  18.704  12.383
52905W        W16838  34.970  42.931  12.081
52906W        W16839   4.375  15.585  13.814
52907W        W16840   0.291  16.676  13.401
52908W        W16841  26.093   9.752  14.942
52909W        W16842  44.760   3.455   4.737
52910W        W16843  25.183   1.352  13.823
52911W        W16844   9.885  44.275  10.571
52912W        W16845  26.062   1.963  14.466
52913W        W16846   2.960   0.367   0.387
52914W        W16847  43.817   1.240  13.506
52915W        W16848  26.082  43.341  13.459
52916W        W16849  25.200  22.086   3.801
52917W        W16850  27.130  12.211   0.334
52918W        W16851   0.479  41.511   1.911
52919W        W16852  35.976   4.758   2.681
52920W        W16853  38.426  42.877   2.414
52921W        W16854  28.146   1.908  10.143
52922W        W16855   1.823  40.851  13.795
52923W        W16856  17.707  16.580  11.382
52924W        W16857  12.770  29.138   3.326
52925W        W16858  22.501  15.231  13.054
52926W        W16859  19.059   4.319   2.663
52927W        W16860  22.664  28.102   2.419
52928W        W16861  28.436  39.499   3.377
52929W        W16862  28.654  23.502   4.291
52930W        W16863  27.069   2.267   2.746
52931W        W16864  28.556  37.409  11.913
52932W        W16865  12.617  43.333  11.535
52933W        W16866  35.022  30.514  12.400
52934W        W16867  33.904  39.358   4.206
52935W        W16868  38.459   7.323  11.505
52936W        W16869  39.981   3.338  12.857
52937W        W16870  16.305  10.311  10.474
52938W        W16871  15.627  30.489  10.462
52939W        W16872  37.337  10.304   5.093
52940W        W16873  39.812   2.833  14.370
52941W        W16874  36.049  11.337   4.157
52942W        W16875   2.827  20.139  12.415
52943W        W16876  18.131   6.349  12.565
52944W        W16877  22.608   8.785   0.349
52945W        W16878  40.939  34.442   4.316
52946W        W16879  42.793  27.578   2.779
52947W        W16880  38.473  33.030  13.522
52948W        W16881   5.794  33.547   4.633
52949W        W16882  44.929   0.284   4.162
52950W        W16883  23.011  18.183  11.579
52951W        W16884  13.692  31.490   2.835
52952W        W16885  26.112  15.695   3.646
52953W        W16886  43.397  31.642   2.296
52954W        W16887   4.425   9.752   3.804
52955W        W16888  29.054  30.027  12.359
52956W        W16889  19.626  35.485  10.509
52957W        W16890  23.647   0.794  14.360
52958W        W16891  27.642  36.995  10.940
52959W        W16892  44.415  37.918  12.892
52960W        W16893  14.666  42.309  12.520
52961W        W16894  36.884  36.019  11.072
52962W        W16895   3.375  15.104  14.306
52963W        W16896  32.896  31.004  11.045
52964W        W16897  37.562  20.196   5.271
52965W        W16898  37.930   4.770  14.932
52966W        W16899  21.706  37.892   1.913
52967W        W16900  32.980  15.802   4.203
52968W        W16901  37.505  26.981  14.378
52969W        W16902  38.486  27.136  10.428
52970W        W16903  36.020  32.512  11.899
52971W        W16904  34.492  29.145   2.392
52972W        W16905  43.414  32.578   2.357
52973W        W16906  33.500  11.743   2.207
52974W        W16907  36.929  22.172   1.408
52975W        W16908  33.609  39.843   2.366
52976W        W16909  36.366  19.194  11.913
52977W        W16910   2.882  44.278   3.652
52978W        W16911   4.930   6.259  10.121
52979W        W16912  24.546  21.608  10.642
52980W        W16913   5.766  12.127  12.860
52981W        W16914  16.252  30.578   4.183
52982W        W16915  32.596   4.323  11.112
52983W        W16916  41.422  31.152  14.478
52984W        W16917  28.065   5.875   0.348
52985W        W16918  36.578  13.191   5.150
52986W        W16919   4.848  19.680  10.895
52987W        W16920   8.305  20.035  14.797
52988W        W16921  10.167  17.678   4.797
52989W        W16922  15.124   4.789   3.155
52990W        W16923  23.132  14.197  11.539
52991W        W16924  28.989   7.850   3.272
52992W        W16925  29.068  44.373  12.438
52993W        W16926  29.933  39.964  11.084
52994W        W16927  43.005   4.418   4.615
52995W        W16928  40.920  20.031   4.656
52996W        W16929  23.501   0.895   4.130
52997W        W16930  14.815  13.793  14.425
52998W        W16931  11.841  44.003   1.899
52999W        W16932   5.342  21.716  10.904
53000W        W16933   1.767  23.986   3.282
53001W        W16934  25.698  31.648   0.262
53002W        W16935  22.090   6.724   2.272
53003W        W16936   2.313  14.292   0.393
53004W        W16937  11.799  30.573   0.480
53005W        W16938  30.512  24.014   2.782
53006W        W16939  25.690  26.029  12.473
53007W        W16940  38.336  39.493   2.762
53008W        W16941  22.655   2.353  12.573
53009W        W16942  30.091  14.226   1.735
53010W        W16943  10.161  42.403   4.222
53011W        W16944   5.317  30.628   1.789
53012W        W16945   8.716  16.230   1.856
53013W        W16946  29.442  44.968   0.386
53014W        W16947  20.728  42.446   4.253
53015W        W16948   9.214  26.499  13.362
53016W        W16949  44.986  20.258   0.467
53017W        W16950  31.947   8.290  11.961
53018W        W16951  14.714   5.264  14.311
53019W        W16952  21.643   9.873   4.318
53020W        W16953  24.494  20.167   0.814
53021W        W16954  16.117  23.701  13.819
53022W        W16955   0.293  33.039  10.947
53023W        W16956  17.249   9.149  10.552
53024W        W16957   4.257  44.934   0.786
53025W        W16958  30.925  27.143  13.390
53026W        W16959  21.039  39.027  14.890
53027W        W16960  28.543   3.780  14.906
53028W        W16961  24.019  42.998  13.985
53029W        W16962   8.272  28.017  11.501
53030W        W16963  35.962  14.270   3.219
53031W        W16964  31.973  14.145  11.514
53032W        W16965  36.414   3.298   0.786
53033W        W16966  31.123  15.216  10.528
53034W        W16967  35.384  15.315   4.231
53035W        W16968  29.635  36.463   0.851
53036W        W16969   3.936  31.105   2.390
53037W        W16970  13.692  44.400   4.667
53038W        W16971  32.135  26.639  13.808
53039W        W16972  43.399  10.234  11.026
53040W        W16973   9.166  28.181   3.767
53041W        W16974  35.044   6.806  11.604
53042W        W16975  37.030  26.688  13.963
53043W        W16976  28.619   4.805  10.615
53044W        W16977  27.471   5.379   0.862
53045W        W16978  27.650  38.520   0.270
53046W        W16979  44.315  41.912   1.718
53047W        W16980  11.165  12.294   3.216
53048W        W16981  18.734  15.219   0.480
53049W        W16982  42.869   6.713   0.913
53050W        W16983  41.357  23.142   3.693
53051W        W16984  14.163  23.715  11.505
53052W        W16985   0.389  35.436  13.349
53053W        W16986  33.426   9.316   3.275
53054W        W16987  39.470  22.670   3.833
53055W        W16988  25.500   6.256  10.619
53056W        W16989  28.663  21.064  12.847
53057W        W16990  17.668  22.215  11.959
53058W        W16991  12.756  33.070  12.471
53059W        W16992  27.564  44.364  12.988
53060W        W16993  27.517  21.074   0.483
53061W        W16994   3.326   3.742   3.689
53062W        W16995  26.059  35.581  12.542
53063W        W16996   0.767  28.092   0.367
53064W        W16997  38.399  39.381   4.131
53065W        W16998  16.782  14.315   3.637
53066W        W16999  18.137   0.433   2.268
53067W        W17000  15.634  35.572   0.740
53068W        W17001  21.704  22.147  14.378
53069W        W17002  36.027  21.257   1.244
53070W        W17003  23.148  25.520   1.326
53071W        W17004  33.048  38.012  12.826
53072W        W17005  42.991   2.291  14.380
53073W        W17006  35.388  17.633   3.224
53074W        W17007  39.951  27.189   0.338
53075W        W17008  15.094  30.139   3.346
53076W        W17009  20.059  20.152   0.914
53077W        W17010  17.660  40.833  14.393
53078W        W17011   5.746  35.045  12.883
53079W        W17012  11.127   0.942   2.208
53080W        W17013   5.238   8.782   1.422
53081W        W17014  17.717  26.539   0.327
53082W        W17015  39.443   6.222  14.924
53083W        W17016  25.703  33.556   4.756
53084W        W17017  36.366  42.013  10.915
53085W        W17018  23.497  10.192   2.272
53086W        W17019   6.242  34.051  13.495
53087W        W17020  42.409  11.673  11.990
53088W        W17021   0.760  36.941   4.326
53089W        W17022  37.026  39.392  13.804
53090W        W17023   0.414  32.006   4.647
53091W        W17024  16.600  29.597   2.779
53092W        W17025  20.688  21.178  11.936
53093W        W17026  35.389  32.110  10.503
53094W        W17027  19.252  22.682   1.437
53095W        W17028  43.516  38.463   0.947
53096W        W17029  32.560   8.863   5.246
53097W        W17030  26.557  24.704  13.429
53098W        W17031  43.022  19.255   2.759
53099W        W17032  26.962  43.310  10.892
53100W        W17033  17.062  29.549   4.221
53101W        W17034  41.906  10.284  14.992
53102W        W17035  12.233   2.226  10.632
53103W        W17036  26.621   1.873  10.069
53104W        W17037   3.889  38.447  14.891
53105W        W17038  19.580  32.444  10.480
53106W        W17039  12.759  23.222  12.874
53107W        W17040  42.969  22.996   4.333
53108W        W17041  18.712  36.421  13.391
53109W        W17042  27.187  23.507  14.970
53110W        W17043  23.136  35.948   4.795
53111W        W17044  12.612  28.534   3.245
53112W        W17045  37.536  34.031  13.049
53113W        W17046  34.528  40.855  10.520
53114W        W17047  13.750  31.629  12.972
53115W        W17048  29.160  17.205   1.903
53116W        W17049  44.934  10.678   0.302
53117W        W17050  37.552   1.296   2.805
53118W        W17051   0.464  12.280  14.311
53119W        W17052   3.354  41.336  10.939
53120W        W17053   2.417  13.129  13.838
53121W        W17054  17.231  22.050  13.364
53122W        W17055  23.582  11.690  13.801
53123W        W17056  19.664  34.503   3.328
53124W        W17057  34.494  20.108  11.019
53125W        W17058  38.425  30.497   2.417
53126W        W17059  10.198  41.899   0.829
53127W        W17060  36.877  18.129   2.363
53128W        W17061  20.237  19.061   2.385
53129W        W17062   0.415  37.433   4.809
53130W        W17063   9.289  26.495   5.197
53131W        W17064  23.507  34.491   3.367
53132W        W17065  17.266  23.100  11.100
53133W        W17066  26.487  29.448   3.163
53134W        W17067  28.134  34.384   3.676
53135W        W17068  30.958   0.796  10.434
53136W        W17069  36.062  31.601  13.899
53137W        W17070  40.513  40.859   2.741
53138W        W17071   7.295   2.295  10.977
53139W        W17072  21.225  22.017  13.388
53140W        W17073  33.560  21.099  12.842
53141W        W17074  27.562  33.986   3.246
53142W        W17075  41.468  24.161   2.399
53143W        W17076  35.367  11.755  13.346
53144W        W17077   6.806  31.441   3.285
53145W        W17078   5.720  37.877   0.457
53146W        W17079  16.808   5.877   3.380
53147W        W17080  44.491  18.545   5.234
53148W        W17081  22.630   0.934   0.276
53149W        W17082  33.581   7.710   2.696
53150W        W17083  38.486  34.994   3.188
53151W        W17084  33.020  31.416   1.911
53152W        W17085  38.416   4.818   1.751
53153W        W17086   9.739  25.508  10.408
53154W        W17087  22.617  43.409   1.254
53155W        W17088  41.486  17.257   3.776
53156W        W17089  22.132  33.475  13.860
53157W        W17090  39.323   6.356   1.812
53158W        W17091  30.949  30.566   9.930
53159W        W17092   4.936  38.026  10.559
53160W        W17093   4.920  16.080   0.370
53161W        W17094  11.766  28.476  12.035
53162W        W17095  31.030  11.335  10.004
53163W        W17096  41.025  21.141   3.329
53164W        W17097  29.540   3.713  11.492
53165W        W17098  42.885  14.291  10.513
53166W        W17099   3.752  32.411  12.574
53167W        W17100  40.396  38.859   0.367
53168W        W17101  18.582  34.550  14.966
53169W        W17102  42.440  44.978   1.321
53170W        W17103   7.415  12.676  14.851
53171W        W17104  27.639  44.386   3.341
53172W        W17105   0.796  10.338   4.747
53173W        W17106  35.004   7.308   0.774
53174W        W17107  11.154  30.419   3.631
53175W        W17108  35.939  38.924  12.914
53176W        W17109  25.530  34.562   3.846
53177W        W17110   5.842   6.896  11.510
53178W        W17111   4.770   2.252   2.894
53179W        W17112  37.549  44.335  11.469
53180W        W17113  16.221  29.953  11.459
53181W        W17114   6.248   5.830   3.829
53182W        W17115  42.521   1.264  10.549
53183W        W17116  14.321  12.813   4.631
53184W        W17117  15.588  18.557  10.631
53185W        W17118  35.953  22.720  12.828
53186W        W17119  12.841  34.926  11.893
53187W        W17120  39.843  38.342  14.413
53188W        W17121  14.776  29.432   4.278
53189W        W17122  39.522  32.535  13.355
53190W        W17123  31.082   7.864  13.006
53191W        W17124  11.713   2.720  13.000
53192W        W17125  19.121   7.768  11.454
53193W        W17126  31.632  25.033  11.530
53194W        W17127  15.681  28.035   0.375
53195W        W17128  30.947  22.108  11.025
53196W        W17129  26.195  29.518  14.850
53197W        W17130  43.382  17.261  14.913
53198W        W17131  44.416   0.402  12.027
53199W        W17132   2.730  31.483   4.830
53200W        W17133  41.953  43.957  11.962
53201W        W17134   4.723   5.719   1.796
53202W        W17135  38.912  21.561   1.932
53203W        W17136  10.852  42.985   4.274
53204W        W17137  25.467  25.565   3.318
53205W        W17138  28.644  27.032   4.183
53206W        W17139  14.142   2.957  11.940
53207W        W17140  40.996   9.860  14.432
53208W        W17141  12.853  35.040   0.288
53209W        W17142  25.710  20.130  10.631
53210W        W17143  40.462  37.557  13.455
53211W        W17144   1.357  32.482  12.990
53212W        W17145  10.245  33.393  13.886
53213W        W17146  27.492  26.992  10.553
53214W        W17147   2.418  16.110  10.567
53215W        W17148  10.384  44.278   3.179
53216W        W17149  11.824  40.903  12.347
53217W        W17150  17.199  26.087   3.194
53218W        W17151  10.653  43.429  13.347
53219W        W17152  29.601  37.990   3.871
53220W        W17153   9.186   7.187   9.974
53221W        W17154  27.072  14.238   0.918
53222W        W17155   5.835  20.646  12.556
53223W        W17156  36.018  36.508  14.446
53224W        W17157  14.724  26.589   4.815
53225W        W17158  44.494   1.976   2.697
53226W        W17159  15.600  22.680  10.578
53227W        W17160  16.143   0.484  12.888
53228W        W17161  41.422  20.058   1.252
53229W        W17162  43.280  35.902   1.270
53230W        W17163  11.676  34.612   1.382
53231W        W17164   0.912   7.795   1.435
53232W        W17165  35.872  12.846   3.299
53233W        W17166  31.109   9.726  14.953
53234W        W17167   7.349  27.469   1.266
53235W        W17168  12.643  39.857  11.489
53236W        W17169  31.577  29.067  13.868
53237W        W17170  40.528  13.689   1.413
53238W        W17171  19.768  15.608  11.034
53239W        W17172  22.718  12.246  12.544
53240W        W17173  40.310  36.536   3.190
53241W        W17174  16.708  23.700   3.173
53242W        W17175  16.135  13.639  13.948
53243W        W17176   0.839  16.196   1.243
53244W        W17177  35.888   6.407   4.160
53245W        W17178  26.528  17.738   4.687
53246W        W17179  44.282  41.800   3.869
53247W        W17180  25.167  21.063  11.026
53248W        W17181  41.300  13.121   4.667
53249W        W17182  36.567   1.974  14.295
53250W        W17183  33.951  35.981  12.538
53251W        W17184  23.604  31.900  10.423
53252W        W17185  11.199  36.517  11.077
53253W        W17186  34.611   8.899  11.904
53254W        W17187  28.165  22.573  10.955
53255W        W17188   5.872  12.653  12.445
53256W        W17189  32.442  29.457   3.682
53257W        W17190  39.972  17.790  12.371
53258W        W17191  33.005   1.813   0.819
53259W        W17192   2.884  15.780   1.874
53260W        W17193  23.685  35.046   4.632
53261W        W17194  44.825  39.389  10.026
53262W        W17195  27.671  27.548   1.416
53263W        W17196  42.511  22.571   4.705
53264W        W17197  11.302  33.515  13.342
53265W        W17198  20.589  17.755  11.467
53266W        W17199  30.558  32.607  10.918
53267W        W17200  19.244  10.240   0.878
53268W        W17201  13.321   6.823   9.636
53269W        W17202  34.004  12.356   3.380
53270W        W17203   7.364  32.971   2.300
53271W        W17204   3.235  34.083  13.435
53272W        W17205  29.109  38.026   4.739
53273W        W17206   6.736  36.853  12.926
53274W        W17207  13.243  27.181  14.516
53275W        W17208  38.851  44.797   1.287
53276W        W17209   4.306  38.436   4.806
53277W        W17210  22.629  24.522   1.773
53278W        W17211  38.487  21.660   1.802
53279W        W17212  14.318  24.217   4.270
53280W        W17213  28.125  44.482   0.266
53281W        W17214  17.224  31.483  11.458
53282W        W17215  23.607   9.876   0.840
53283W        W17216   2.282  40.544  14.948
53284W        W17217   3.268  16.704   2.824
53285W        W17218   0.382  27.633  10.590
53286W        W17219  26.684  35.006  14.915
53287W        W17220  36.982  25.218   3.265
53288W        W17221   8.764  28.147   2.404
53289W        W17222  12.777  44.346  10.632
53290W        W17223  19.143   1.955   2.720
53291W        W17224  40.012  36.963   5.669
53292W        W17225  39.831   0.784  14.343
53293W        W17226  24.649  19.686  12.092
53294W        W17227  18.766  13.720   2.226
53295W        W17228  40.829  35.065   1.341
53296W        W17229  32.993  20.562  11.993
53297W        W17230   5.702  35.561   1.777
53298W        W17231  35.476  14.296   0.926
53299W        W17232  33.932  26.039   3.270
53300W        W17233  10.767  29.944   2.700
53301W        W17234  25.160  24.620   1.349
53302W        W17235   4.239  11.715   4.653
53303W        W17236  18.681  44.842   2.413
53304W        W17237  35.930  23.110   4.261
53305W        W17238  44.770  36.094   4.235
53306W        W17239  26.033  31.557   2.183
53307W        W17240  10.857   7.381   2.232
53308W        W17241  42.376  26.081   3.147
53309W        W17242  24.519  34.396  13.404
53310W        W17243   3.246  14.797   0.853
53311W        W17244  30.980  27.497   0.894
53312W        W17245   7.277  28.134  11.562
53313W        W17246   5.314  23.675   1.784
53314W        W17247  24.564   4.941   0.434
53315W        W17248  24.704  20.099  11.028
53316W        W17249   7.328  42.993   2.386
53317W        W17250   7.383  39.398   1.857
53318W        W17251  30.077  25.143  10.468
53319W        W17252  18.093  12.748   3.752
53320W        W17253  37.515  15.087  11.917
53321W        W17254  14.211  14.806   2.336
53322W        W17255  14.757  22.156   0.829
53323W        W17256  17.145  15.634  12.498
53324W        W17257  11.342  26.054  13.829
53325W        W17258   9.187  28.484  13.968
53326W        W17259  12.283  11.861   4.743
53327W        W17260  11.241   0.386  12.373
53328W        W17261  36.948   0.858  13.368
53329W        W17262  27.616  30.057   0.421
53330W        W17263  42.315  40.332  12.544
53331W        W17264  17.283  42.781  11.504
53332W        W17265  22.582  40.452  11.863
53333W        W17266  41.794  25.108   2.768
53334W        W17267   6.252   5.303  11.600
53335W        W17268  37.480  42.863   3.636
53336W        W17269  43.345  38.408   1.747
53337W        W17270   9.783  18.108  12.480
53338W        W17271  36.922  34.417   4.684
53339W        W17272  23.602  10.363   2.803
53340W        W17273  24.541   8.180  12.918
53341W        W17274  24.597   5.308   4.300
53342W        W17275  18.558  33.529   9.968
53343W        W17276  24.029   5.737   0.249
53344W        W17277  34.019  16.154  11.105
53345W        W17278   8.792  15.183  13.855
53346W        W17279  16.590  25.092  11.486
53347W        W17280  11.356   3.928   4.345
53348W        W17281  26.467  18.241   1.790
53349W        W17282  24.678   5.229  14.379
53350W        W17283  26.570  29.560   4.261
53351W        W17284  14.653  10.837  10.441
53352W        W17285  18.211   3.242  13.968
53353W        W17286  11.235   4.317  14.312
53354W        W17287  22.206   4.699   2.677
53355W        W17288  12.842  36.503   4.150
53356W        W17289  37.420  28.511   3.862
53357W        W17290  18.212  15.691   2.355
53358W        W17291  35.481  27.071  10.606
53359W        W17292   5.322  28.136   0.814
53360W        W17293  30.658  24.505   3.797
53361W        W17294  29.503  30.566  13.374
53362W        W17295  44.446  15.147   3.825
53363W        W17296   0.902  23.623   1.917
53364W        W17297  32.468  26.028   4.642
53365W        W17298  15.241   2.332   1.752
53366W        W17299  10.715   3.452   2.369
53367W        W17300   0.352   7.295   2.735
53368W        W17301   0.781   5.817  12.011
53369W        W17302  25.127  33.027  13.806
53370W        W17303  34.526   1.824  13.038
53371W        W17304   1.855   3.375  12.955
53372W        W17305  40.547  40.882   0.854
53373W        W17306   8.666   4.814  10.917
53374W        W17307  33.564  32.972  10.643
53375W        W17308  43.516  19.180   4.713
53376W        W17309  28.611  41.470   4.271
53377W        W17310  12.190  38.486  10.979
53378W        W17311   2.796  19.758  11.387
53379W        W17312  34.392  39.976   0.409
53380W        W17313  11.362  25.063  10.564
53381W        W17314  12.142  25.682   1.292
53382W        W17315  20.147  24.678   0.293
53383W        W17316   4.735  14.635   3.303
53384W        W17317  20.059  19.144  10.961
53385W        W17318  30.627  24.006   1.399
53386W        W17319  37.888   6.736   0.255
53387W        W17320  31.986  29.090  13.372
53388W        W17321  35.399  13.242   4.261
53389W        W17322  22.040  29.629  12.519
53390W        W17323  26.982  24.529   4.301
53391W        W17324  19.148  32.016  14.923
53392W        W17325   5.858   1.840   4.266
53393W        W17326  34.392  32.095   1.405
53394W        W17327  34.989  26.999  12.524
53395W        W17328  22.045  39.815  12.397
53396W        W17329  10.663   9.856  10.958
53397W        W17330   3.928  43.392   1.429
53398W        W17331  27.088  16.786   1.724
53399W        W17332  37.582   0.805   3.791
53400W        W17333  15.147  11.162  10.929
53401W        W17334   3.246  15.801   2.879
53402W        W17335   4.917  29.471   3.636
53403W        W17336   8.191  35.884   1.331
53404W        W17337  25.583  34.931  13.022
53405W        W17338  17.213  25.672  11.094
53406W        W17339  14.696  44.819   3.800
53407W        W17340  22.197   5.228  11.127
53408W        W17341  38.891  44.345  13.526
53409W        W17342  13.129  18.702   4.247
53410W        W17343   0.461  39.874  12.375
53411W        W17344  39.475  15.798   2.393
53412W        W17345  36.846  16.117   4.252
53413W        W17346  14.640  21.526  13.807
53414W        W17347  31.945  29.521  11.901
53415W        W17348  30.913  23.679   0.881
53416W        W17349  11.320   3.256  12.351
53417W        W17350  21.519  40.812   0.273
53418W        W17351  37.476  36.891  12.562
53419W        W17352   3.311   0.301  13.409
53420W        W17353  36.943  13.274  11.895
53421W        W17354  11.802  35.037  10.477
53422W        W17355   7.303  10.686  11.939
53423W        W17356  43.420  10.636  13.836
53424W        W17357  28.437  43.476   9.599
53425W        W17358  28.970  37.397  14.378
53426W        W17359   3.856  17.115   4.644
53427W        W17360  10.820   1.315  11.470
53428W        W17361  29.536  12.297  14.491
53429W        W17362   9.316  18.751  14.380
53430W        W17363  10.289  31.528  13.988
53431W        W17364   7.320   2.941   3.177
53432W        W17365  34.594  42.497   1.436
53433W        W17366  14.113  22.226   1.701
53434W        W17367  33.473  28.938   1.716
53435W        W17368  13.826   8.166   2.295
53436W        W17369   4.276  19.728  10.904
53437W        W17370  43.422  31.508   3.309
53438W        W17371  21.581  35.569  13.960
53439W        W17372  25.588  18.179   4.628
53440W        W17373  31.135   0.422  14.922
53441W        W17374   8.680   3.898   0.956
53442W        W17375  14.789  16.579  11.065
53443W        W17376  16.672  31.550  12.990
53444W        W17377  28.151  25.076   3.148
53445W        W17378  11.687  18.225  11.111
53446W        W17379   5.249   9.714  11.122
53447W        W17380  41.869  30.597  13.544
53448W        W17381   3.219  14.271  14.473
53449W        W17382  11.767  18.292   3.798
53450W        W17383  43.489  12.323   4.635
53451W        W17384  32.056  22.640   3.700
53452W        W17385   4.425  33.460   3.645
53453W        W17386  29.128  10.716  14.394
53454W        W17387  43.842  24.526  12.060
53455W        W17388  14.776  37.842  14.795
53456W        W17389   7.366  19.607   4.275
53457W        W17390  31.466  32.138   4.669
53458W        W17391  20.584  38.074  11.558
53459W        W17392  24.205  28.940   3.787
53460W        W17393  34.407  35.363  11.421
53461W        W17394  12.282  10.702  12.838
53462W        W17395  19.592  32.038  10.041
53463W        W17396  16.808  20.168   1.767
53464W        W17397  20.660  35.933  11.524
53465W        W17398   6.196  29.002   3.690
53466W        W17399   4.856  21.704   1.697
53467W        W17400  26.656  33.035   3.747
53468W        W17401  25.048   2.946  13.846
53469W        W17402   5.851   4.757   3.781
53470W        W17403  15.770  31.432  13.441
53471W        W17404  35.540  10.349   1.308
53472W        W17405  15.273  10.220  12.031
53473W        W17406  39.462  26.480   3.351
53474W        W17407  28.167  11.660   5.081
53475W        W17408  33.066  30.517  10.572
53476W        W17409   4.267  33.122  13.428
53477W        W17410  23.058   1.404   2.833
53478W        W17411  33.062  14.719   1.878
53479W        W17412  40.336   8.710   3.867
53480W        W17413  43.937  41.338   2.890
53481W        W17414  25.627  15.305  10.478
53482W        W17415  25.522  10.201  13.977
53483W        W17416  42.812  11.626   0.405
53484W        W17417   8.309  38.945  14.477
53485W        W17418  10.718  10.800   1.363
53486W        W17419  44.798  14.191  13.997
53487W        W17420  20.676  28.176   3.673
53488W        W17421  26.562   6.747   0.426
53489W        W17422  40.829  19.663  10.528
53490W        W17423  28.541  17.588  11.425
53491W        W17424   0.829  28.064  14.296
53492W        W17425  36.571  27.519   0.804
53493W        W17426  39.852  27.988   0.341
53494W        W17427  38.022  42.948  11.566
53495W        W17428  19.557  25.571   1.907
53496W        W17429   7.853  30.929   4.203
53497W        W17430  41.905  19.586   0.781
53498W        W17431  44.881   5.195  12.566
53499W        W17432  13.600  39.851   0.379
53500W        W17433  26.486  35.498  11.579
53501W        W17434  37.878  36.078  14.333
53502W        W17435  36.444  32.897  14.388
53503W        W17436   0.842  35.865   4.720
53504W        W17437  12.755  38.856  11.026
53505W        W17438  22.067   8.212  10.606
53506W        W17439  27.986  24.553   0.949
53507W        W17440  36.368   6.765  12.082
53508W        W17441  18.236   3.713  12.053
53509W        W17442  21.674  39.384  10.490
53510W        W17443  10.219  37.574   2.323
53511W        W17444   0.890  28.484   3.353
53512W        W17445  34.997  10.710  11.043
53513W        W17446  26.121   1.758   4.266
53514W        W17447  14.788  39.372  14.862
53515W        W17448  42.305  22.742  11.475
53516W        W17449  15.214  11.350   1.286
53517W        W17450  20.064  16.305  11.483
53518W        W17451  38.441  30.430   4.135
53519W        W17452  40.483  32.602  11.059
53520W        W17453  17.280  29.467   4.831
53521W        W17454  22.126  28.508  13.990
53522W        W17455   1.743   2.390   3.636
53523W        W17456  10.249  19.263   1.715
53524W        W17457  22.537  29.174   3.787
53525W        W17458  17.224   7.407   1.343
53526W        W17459   9.258   3.786  11.478
53527W        W17460  15.180  16.103  11.591
53528W        W17461  18.547   4.828  13.046
53529W        W17462  18.294  27.126  14.443
53530W        W17463  40.327   7.244  13.911
53531W        W17464  39.474  14.100   1.253
53532W        W17465  21.125  22.014  14.449
53533W        W17466   7.288  21.594   4.724
53534W        W17467  43.800  23.549  13.920
53535W        W17468  24.127  35.882   2.805
53536W        W17469  22.192  41.957   0.941
53537W        W17470  23.028  37.382  11.859
53538W        W17471   1.762  20.560  14.829
53539W        W17472  30.571  15.129   0.454
53540W        W17473   8.221  18.604   0.436
53541W        W17474  44.885  28.648   4.149
53542W        W17475   3.782   0.347  12.487
53543W        W17476   9.246  40.004  13.052
53544W        W17477  26.553  32.973   2.263
53545W        W17478  30.100  38.858  12.391
53546W        W17479  19.556  22.086   4.237
53547W        W17480   9.863  25.999  14.289
53548W        W17481  42.900  14.747   2.235
53549W        W17482  12.770  18.073  11.870
53550W        W17483  39.333  14.721   4.728
53551W        W17484   1.942  26.208   3.322
53552W        W17485  35.987  33.521   3.370
53553W        W17486   3.884  43.789   1.804
53554W        W17487  12.721  43.794  14.010
53555W        W17488  24.620  12.174  13.064
53556W        W17489  39.360   9.286  14.964
53557W        W17490  40.847  12.763  13.495
53558W        W17491  23.045  30.022   2.777
53559W        W17492   5.851   8.845   3.147
53560W        W17493  40.879  35.008  10.899
53561W        W17494  35.914  25.107   4.310
53562W        W17495  20.248  43.846  11.900
53563W        W17496  24.205  26.586  10.461
53564W        W17497  44.419  30.957   0.776
53565W        W17498   4.264   3.329  13.354
53566W        W17499  25.600   4.400   4.635
53567W        W17500  28.651   6.234   0.379
53568W        W17501  17.666  26.610   4.246
53569W        W17502   6.395  32.933   4.304
53570W        W17503  13.202  42.859   0.482
53571W        W17504  25.651  25.489   0.924
53572W        W17505  15.177  13.324  10.990
53573W        W17506  18.613  36.062  14.415
53574W        W17507  39.403  17.732   2.739
53575W        W17508  26.124  21.154  10.093
53576W        W17509  37.002  35.594   1.726
53577W        W17510  22.212   4.244   4.778
53578W        W17511  33.037  14.712  12.507
53579W        W17512  14.792  10.231   5.088
53580W        W17513  23.112  24.189  11.492
53581W        W17514  16.149  20.643  13.903
53582W        W17515  29.469  42.510  11.422
53583W        W17516   7.697  35.918   4.272
53584W        W17517  35.503   4.878  14.427
53585W        W17518   0.887   9.771  13.326
53586W        W17519  13.205   8.388  14.917
53587W        W17520   1.262  22.022  12.434
53588W        W17521  23.021  28.954  10.472
53589W        W17522   3.778  38.439   2.707
53590W        W17523  31.965  17.191  12.447
53591W        W17524  30.483   7.684  11.863
53592W        W17525  20.247  41.319  12.364
53593W        W17526  36.495  35.935   0.354
53594W        W17527   3.280  14.678   3.193
53595W        W17528  37.862  18.277   1.329
53596W        W17529  29.027  32.457   1.848
53597W        W17530   4.282  29.509   1.283
53598W        W17531  30.108  41.343  12.429
53599W        W17532  41.295   2.762  13.988
53600W        W17533   5.417   6.753  13.463
53601W        W17534  14.724  25.125  10.948
53602W        W17535  42.973  15.185  13.011
53603W        W17536  35.863  14.135  12.077
53604W        W17537  29.078  44.780   0.759
53605W        W17538  38.838  29.117  11.865
53606W        W17539   1.970   8.683  10.644
53607W        W17540  28.152   9.883   0.407
53608W        W17541   5.907  16.164   0.810
53609W        W17542  23.631  23.066  14.981
53610W        W17543  18.683  15.163  12.382
53611W        W17544   7.203  20.055   4.287
53612W        W17545  21.573  25.710   2.349
53613W        W17546  38.936  26.647  14.863
53614W        W17547  26.585  28.011  13.822
53615W        W17548  38.493   9.676   3.787
53616W        W17549  25.507  11.249   4.179
53617W        W17550  26.511  37.387   5.167
53618W        W17551  17.153  37.962  12.479
53619W        W17552  28.173  36.471   0.374
53620W        W17553  36.508  24.663  11.092
53621W        W17554  37.931  20.539   2.341
53622W        W17555  22.010  24.160  10.427
53623W        W17556   9.189   0.395   1.775
53624W        W17557  22.207  36.586   2.898
53625W        W17558  29.931  39.052  12.946
53626W        W17559   5.268   0.954  10.946
53627W        W17560  32.633   9.339  12.824
53628W        W17561  39.450  40.526  11.485
53629W        W17562   5.877  16.210   2.854
53630W        W17563   1.367  32.946   2.187
53631W        W17564  24.191  27.109   2.403
53632W        W17565  44.786  18.654   3.235
53633W        W17566  36.582  43.975  13.844
53634W        W17567   7.257   2.928   2.358
53635W        W17568  27.179  44.989   1.808
53636W        W17569  12.171  20.211  13.059
53637W        W17570  11.325  37.391  11.030
53638W        W17571   6.349  13.727  14.798
53639W        W17572   7.225  22.655   0.851
53640W        W17573  28.631  30.489  12.087
53641W        W17574   0.420  10.344   1.855
53642W        W17575   4.435  10.221   4.203
53643W        W17576   4.830  20.069  11.592
53644W        W17577  24.573  31.438  10.485
53645W        W17578   0.785  39.537   1.424
53646W        W17579  21.038  12.711   2.220
53647W        W17580  14.136  15.207  12.438
53648W        W17581  40.899  11.655  14.364
53649W        W17582  13.228  16.111   3.736
53650W        W17583  38.554  29.575  11.526
53651W        W17584  16.657  17.234   1.222
53652W        W17585  25.508  19.536   2.755
53653W        W17586  26.601   8.362   3.788
53654W        W17587  17.686  35.940   2.722
53655W        W17588  13.106  43.463   3.231
53656W        W17589  28.652   0.329  10.536
53657W        W17590  10.676  35.053  14.867
53658W        W17591  34.918  25.192   5.100
53659W        W17592   5.874   0.433  10.637
53660W        W17593  42.426  29.484  13.476
53661W        W17594  27.526   7.384   0.339
53662W        W17595  39.507  18.108  13.444
53663W        W17596  29.974  20.243   2.838
53664W        W17597  21.512  12.758   3.831
53665W        W17598  43.289   0.328   2.286
53666W        W17599  30.577  30.428  12.935
53667W        W17600  36.462  17.767   1.913
53668W        W17601  11.205  42.874   3.705
53669W        W17602  30.043  16.135  10.888
53670W        W17603  40.940   2.748   4.183
53671W        W17604  24.576  38.042   3.849
53672W        W17605   1.442   4.424   0.812
53673W        W17606  40.484   0.294  13.997
53674W        W17607  39.486  19.711   0.901
53675W        W17608  22.246  16.569  13.807
53676W        W17609   8.325  14.808  12.083
53677W        W17610   6.910  23.041  11.032
53678W        W17611   8.405  43.011   3.348
53679W        W17612   5.799  10.860  13.834
53680W        W17613  12.351  15.670   0.886
53681W        W17614  12.257   1.320   0.434
53682W        W17615  11.750  43.274  12.553
53683W        W17616  32.986  28.948  12.900
53684W        W17617  24.139  18.691   0.753
53685W        W17618  35.899   1.325   1.273
53686W        W17619  24.201  26.046  11.940
53687W        W17620   0.769  33.078  10.979
53688W        W17621  30.951  43.461  11.858
53689W        W17622  12.706  28.046  12.982
53690W        W17623   5.259  20.523  13.012
53691W        W17624  17.597  32.598   1.442
53692W        W17625  17.280   1.802   1.379
53693W        W17626  36.502  15.693   0.857
53694W        W17627  39.928  26.138   4.736
53695W        W17628  18.239   5.235  10.565
53696W        W17629   0.955  11.201   4.147
53697W        W17630  10.734  32.533  12.521
53698W        W17631  23.509  28.466  12.569
53699W        W17632   5.868  17.303   3.210
53700W        W17633  25.468   4.935   1.451
53701W        W17634  13.640  37.899   4.179
53702W        W17635  40.980  23.073   2.306
53703W        W17636  10.363  14.247   4.824
53704W        W17637   9.215  29.544  10.469
53705W        W17638  21.168   4.871   3.631
53706W        W17639  11.259  10.328  14.497
53707W        W17640  34.900  21.106   0.330
53708W        W17641   5.848  26.688  13.419
53709W        W17642  37.995  14.192  13.422
53710W        W17643  38.386  35.596  11.413
53711W        W17644  39.974  34.878  11.885
53712W        W17645  14.138  26.986   2.755
53713W        W17646   7.226  24.712   1.240
53714W        W17647  36.072  37.941   3.355
53715W        W17648  24.024  11.678  14.429
53716W        W17649   5.270  30.457   2.416
53717W        W17650  11.817  26.961  13.933
53718W        W17651  39.851  31.911  12.843
53719W        W17652  17.792   0.477  14.965
53720W        W17653  19.659   7.793  13.006
53721W        W17654  18.247   2.911  13.006
53722W        W17655  28.000  33.516   0.916
53723W        W17656  12.831  43.938   1.768
53724W        W17657  39.935  38.402  12.398
53725W        W17658   0.825  22.694  14.349
53726W        W17659   1.407  20.092  13.038
53727W        W17660  30.432  37.358  12.391
53728W        W17661  12.125  13.123  13.812
53729W        W17662   2.275  43.400   4.311
53730W        W17663   5.778  11.826   0.775
53731W        W17664  22.667   6.302   1.220
53732W        W17665   6.832  36.470  14.782
53733W        W17666  35.549  27.691   0.822
53734W        W17667  36.460  38.454  10.564
53735W        W17668  29.041  25.206   3.218
53736W        W17669  34.522   3.717   1.749
53737W        W17670  21.122   6.207   3.159
53738W        W17671  10.185  24.508   2.860
53739W        W17672  29.938  32.125  14.342
53740W        W17673  14.591  22.717  11.535
53741W        W17674  15.710   4.705  12.034
53742W        W17675   0.380  15.171  10.972
53743W        W17676  38.552  17.266  13.904
53744W        W17677  30.566  11.356   2.390
53745W        W17678  12.780  44.829   4.795
53746W        W17679   5.278  34.976  14.354
53747W        W17680  27.015  14.272   4.330
53748W        W17681  13.768   1.975   2.700
53749W        W17682  34.382   2.847  10.945
53750W        W17683  26.043  18.090   1.446
53751W        W17684  15.745  21.149  13.309
53752W        W17685  16.759  10.308   4.620
53753W        W17686  21.556  22.088   3.273
53754W        W17687   3.339  16.601  11.099
53755W        W17688   0.253  41.799   3.668
53756W        W17689  33.490  37.380  13.490
53757W        W17690   9.656   6.765   1.232
53758W        W17691   5.226  17.658   2.205
53759W        W17692  12.135  27.641   3.248
53760W        W17693  29.552  11.697   4.174
53761W        W17694  10.161  27.054  14.396
53762W        W17695   9.332  30.554   2.741
53763W        W17696  24.546   4.386  12.999
53764W        W17697  38.028  30.459  12.069
53765W        W17698  23.185   7.304   0.821
53766W        W17699  20.054  35.070   0.323
53767W        W17700  11.761   2.359   4.154
53768W        W17701  39.966   6.777  11.110
53769W        W17702  14.212  43.907   1.292
53770W        W17703  16.716  27.573  11.550
53771W        W17704  34.568  17.586   2.750
53772W        W17705  23.233  33.449   0.358
53773W        W17706  28.558  17.677  12.382
53774W        W17707   2.439   9.673  11.905
53775W        W17708   9.333  36.503  14.885
53776W        W17709   7.222  42.316  12.855
53777W        W17710   9.330   3.318   5.211
53778W        W17711  29.514  37.435   4.168
53779W        W17712  13.115  38.072  11.018
53780W        W17713  10.774  14.672   0.335
53781W        W17714  32.096  14.314   0.261
53782W        W17715   8.798  11.745  14.860
53783W        W17716  19.754  29.584  10.639
53784W        W17717   8.237  44.396   3.668
53785W        W17718   9.716  25.179   0.824
53786W        W17719   8.690  33.527  12.548
53787W        W17720  23.675  22.174   0.371
53788W        W17721  42.969  22.194  10.896
53789W        W17722   8.214   1.283  11.372
53790W        W17723  40.916  31.456   4.659
53791W        W17724  28.932  32.466  10.972
53792W        W17725  18.547  29.003  14.900
53793W        W17726   4.788  27.157  10.957
53794W        W17727   4.854  26.119  12.841
53795W        W17728   3.891  34.457  14.363
53796W        W17729  10.196  12.183  11.926
53797W        W17730  29.551  41.998   4.750
53798W        W17731  44.868  11.835   4.727
53799W        W17732  39.987  35.589  13.831
53800W        W17733  33.125  27.045   0.396
53801W        W17734   8.672  15.147   0.856
53802W        W17735  16.224  39.042   0.913
53803W        W17736  11.775  10.293   3.177
53804W        W17737  20.195  43.972   4.272
53805W        W17738  10.658  20.665  10.934
53806W        W17739   8.749  34.954   1.264
53807W        W17740  24.614  44.430   2.688
53808W        W17741  12.310  10.202   0.353
53809W        W17742  29.063  14.113  13.808
53810W        W17743   1.894  42.835  13.002
53811W        W17744  14.262  22.554  13.890
53812W        W17745  38.069  15.656  14.015
53813W        W17746   5.365  37.861   4.620
53814W        W17747  13.648  43.897  11.980
53815W        W17748  25.065   5.856  14.976
53816W        W17749  18.759  26.193   1.408
53817W        W17750  27.547  16.581   1.809
53818W        W17751  40.952  26.001   3.720
53819W        W17752  41.403   8.674  14.316
53820W        W17753  21.080  37.846  12.925
53821W        W17754  24.641   4.428  14.341
53822W        W17755  20.583   8.871   0.909
53823W        W17756  10.708  23.077   0.756
53824W        W17757   0.905  42.950  13.964
53825W        W17758  27.599  20.725  13.001
53826W        W17759  23.598  22.081  11.121
53827W        W17760  15.646  42.296   2.373
53828W        W17761  37.075   3.249  13.016
53829W        W17762  14.773  44.973   4.194
53830W        W17763   2.269  35.043   2.366
53831W        W17764  35.506   3.402  13.050
53832W        W17765  29.067   9.254   0.259
53833W        W17766  41.357  18.134   4.826
53834W        W17767  40.328  21.521   1.735
53835W        W17768  41.824  34.921   1.342
53836W        W17769  40.969  25.522   3.871
53837W        W17770  29.447  26.145  14.771
53838W        W17771   5.931  12.737  12.995
53839W        W17772  33.066   5.193  10.906
53840W        W17773  17.701  28.588   3.235
53841W        W17774  32.899  32.945  11.952
53842W        W17775   7.749   6.253   4.614
53843W        W17776  41.009   0.252  11.121
53844W        W17777   4.232  27.106   4.823
53845W        W17778  22.584  26.173   0.854
53846W        W17779  35.922  17.185  11.894
53847W        W17780  15.291  39.324   3.747
53848W        W17781  38.437  22.702   3.750
53849W        W17782  18.235  43.453  14.315
53850W        W17783  15.154   4.813  14.804
53851W        W17784  34.021  16.742   3.355
53852W        W17785  26.023  19.110   1.285
53853W        W17786  38.564  40.367   0.247
53854W        W17787   3.895  43.919   2.672
53855W        W17788  15.109  11.189   2.800
53856W        W17789  37.883  30.589  12.488
53857W        W17790  35.548  11.361  13.546
53858W        W17791  25.670  44.407  11.439
53859W        W17792  22.056  37.568   3.333
53860W        W17793  40.848  32.099   0.786
53861W        W17794  40.394   7.717  14.275
53862W        W17795   7.898  29.102   2.197
53863W        W17796  42.304  36.096  12.386
53864W        W17797  42.323   2.304  10.519
53865W        W17798  25.541  36.360  13.057
53866W        W17799  42.421  32.050   1.303
53867W        W17800  40.835  41.979  12.580
53868W        W17801  23.208  36.552   3.668
53869W        W17802  27.579  30.160   4.244
53870W        W17803   4.838  13.665   2.382
53871W        W17804  44.364   0.442   5.159
53872W        W17805  12.338  12.223  10.602
53873W        W17806  18.656   3.862  12.852
53874W        W17807  36.557  26.054  14.790
53875W        W17808   3.730  31.578  14.503
53876W        W17809  30.938  27.540  10.503
53877W        W17810  21.688  12.727  13.424
53878W        W17811  18.719  33.380   5.184
53879W        W17812   0.756  19.612  14.390
53880W        W17813  22.568  40.943   3.290
53881W        W17814   0.807  20.174  11.533
53882W        W17815  21.590  26.701  10.064
53883W        W17816   6.699  23.705   2.286
53884W        W17817  25.582  14.674   0.470
53885W        W17818   0.910  43.434   0.894
53886W        W17819  24.043  25.577   1.922
53887W        W17820  29.111  40.887   0.310
53888W        W17821  10.232  19.249  14.892
53889W        W17822  17.121  43.447  13.369
53890W        W17823  39.378  11.756   3.178
53891W        W17824  36.511   2.914   4.271
53892W        W17825   3.910  36.493   1.241
53893W        W17826   5.348  31.032  13.352
53894W        W17827  22.128  44.500  11.068
53895W        W17828  16.111  36.353   3.703
53896W        W17829  38.452  42.419   0.896
53897W        W17830  38.875  20.055  10.551
53898W        W17831  32.010   2.245  13.997
53899W        W17832  35.937  35.463   2.278
53900W        W17833   9.825  33.904   1.814
53901W        W17834  33.469  35.973  12.408
53902W        W17835  43.474  42.317  12.340
53903W        W17836  11.335   7.338   2.699
53904W        W17837  14.168   7.733  10.460
53905W        W17838  13.815   0.459   3.308
53906W        W17839  30.554   2.335   1.324
53907W        W17840  36.850  18.207   2.784
53908W        W17841  20.155  19.099  10.049
53909W        W17842  26.065  37.352  11.514
53910W        W17843  40.803  13.829   3.844
53911W        W17844   1.289  39.509  12.029
53912W        W17845  42.339  34.892  10.491
53913W        W17846  30.448   5.800  11.992
53914W        W17847   5.427  17.639  10.510
53915W        W17848  11.790  42.905  12.005
53916W        W17849  10.747  43.771  14.302
53917W        W17850  34.949  40.799   0.401
53918W        W17851  16.809  21.755   2.797
53919W        W17852   2.384  44.379  12.043
53920W        W17853  42.284   6.393   4.220
53921W        W17854   9.655   1.940   0.764
53922W        W17855   6.742  16.177   9.597
53923W        W17856  10.732   2.285  11.098
53924W        W17857  25.591  41.958   2.700
53925W        W17858  34.003  27.464   3.785
53926W        W17859   5.845  35.872  12.988
53927W        W17860  41.371  14.102   2.755
53928W        W17861   0.427  31.946   0.368
53929W        W17862  15.617  36.943  13.892
53930W        W17863   8.752   2.399  10.081
53931W        W17864  41.348  10.727  11.902
53932W        W17865  37.547  30.974   5.321
53933W        W17866  20.262   4.860  12.556
53934W        W17867  15.155  42.397  10.624
53935W        W17868   9.831   2.793   3.643
53936W        W17869  41.985   7.171  11.458
53937W        W17870  17.229   7.277  12.021
53938W        W17871   8.373  33.425   0.353
53939W        W17872  36.572   1.307   4.677
53940W        W17873   5.770   6.760  13.445
53941W        W17874  18.220  11.289  11.419
53942W        W17875  33.073   2.233   2.843
53943W        W17876  24.718   6.409  13.362
53944W        W17877  26.507  36.861  13.517
53945W        W17878  20.666  34.490   1.319
53946W        W17879  41.463   1.280   0.760
53947W        W17880  14.730  28.098  13.825
53948W        W17881  10.258  12.731  13.982
53949W        W17882  16.731  29.163  10.154
53950W        W17883  36.574  32.612  13.346
53951W        W17884  26.470  17.091  14.006
53952W        W17885  18.694  18.578  11.945
53953W        W17886  40.392  21.632   2.696
53954W        W17887   6.794  11.807  13.052
53955W        W17888  37.903  13.827  10.476
53956W        W17889  11.174  11.630  12.466
53957W        W17890  37.474  20.549  10.613
53958W        W17891   1.330  24.227   2.832
53959W        W17892  35.983  41.885   3.346
53960W        W17893  42.939  29.928   3.818
53961W        W17894   8.853  16.669   4.264
53962W        W17895  27.105  11.692  14.817
53963W        W17896  35.475   3.230   4.304
53964W        W17897  13.614  27.029  12.874
53965W        W17898  28.033   7.189  12.881
53966W        W17899  33.003  36.582   0.456
53967W        W17900   2.733  17.125  10.915
53968W        W17901   5.756  11.304   0.928
53969W        W17902  33.891  18.736  13.973
53970W        W17903   9.362  14.226   4.319
53971W        W17904  20.604  40.017   2.693
53972W        W17905  21.729   8.246  10.476
53973W        W17906  37.470  31.904   4.262
53974W        W17907  31.059  25.050   4.668
53975W        W17908  35.543   9.805   4.283
53976W        W17909  15.285  17.262   5.317
53977W        W17910  27.671   4.423   2.397
53978W        W17911  43.917  16.309  10.979
53979W        W17912  23.644  13.131  14.823
53980W        W17913  38.385  30.157  12.347
53981W        W17914  24.516  17.777   4.346
53982W        W17915  27.579   3.943   2.770
53983W        W17916  31.961  36.493   1.694
53984W        W17917  38.937  18.106   2.734
53985W        W17918  32.483  14.617  13.343
53986W        W17919   6.189   0.746  13.822
53987W        W17920  19.117  43.812  14.934
53988W        W17921  11.754   4.268  13.371
53989W        W17922  40.008  12.806  14.311
53990W        W17923  37.057  11.730   4.790
53991W        W17924   3.392  24.088   2.665
53992W        W17925  13.285   9.253   0.340
53993W        W17926  32.588  20.222  12.009
53994W        W17927  26.006  16.751  11.857
53995W        W17928  40.407   5.856   0.313
53996W        W17929  28.657   0.436   2.245
53997W        W17930  43.427  13.695   1.833
53998W        W17931  10.711  37.830   4.173
53999W        W17932   5.352  16.108   4.280
54000W        W17933  42.408  15.761   1.218
54001W        W17934  30.590  32.444   3.763
54002W        W17935  36.444  26.994   3.317
54003W        W17936  40.473   8.192   2.313
54004W        W17937  26.700  35.857  12.092
54005W        W17938  27.073  38.410  12.992
54006W        W17939  21.638  29.954   0.379
54007W        W17940  36.414  13.841  13.483
54008W        W17941  43.827  31.539  11.861
54009W        W17942  35.950  20.267   2.354
54010W        W17943   2.472  41.421  12.558
54011W        W17944  31.146  16.286  10.494
54012W        W17945   7.674  41.014  14.779
54013W        W17946  11.649   8.755  11.877
54014W        W17947  16.629  21.658   1.442
54015W        W17948  27.186   6.196   4.746
54016W        W17949  29.504  10.754   4.182
54017W        W17950   5.867   7.773  11.926
54018W        W17951  29.943  42.931  14.433
54019W        W17952   2.375  42.875   1.911
54020W        W17953   2.317  41.923  13.323
54021W        W17954  33.441   3.854   2.681
54022W        W17955  41.948  22.722   4.732
54023W        W17956  26.462   4.813   5.091
54024W        W17957  13.812  30.065   0.439
54025W        W17958  18.594  10.269  12.537
54026W        W17959  30.950  33.082  12.388
54027W        W17960  16.147  28.120   3.161
54028W        W17961   9.804   5.700  13.474
54029W        W17962  15.246  41.980   4.681
54030W        W17963  38.963  33.565  13.887
54031W        W17964  20.757  32.509  12.835
54032W        W17965  37.061  37.484   3.648
54033W        W17966  20.249  19.551  12.513
54034W        W17967  44.393  21.696  14.973
54035W        W17968  41.313  21.231  14.839
54036W        W17969  27.486  23.001   1.378
54037W        W17970  25.992  42.994  11.428
54038W        W17971  13.790  27.087  14.507
54039W        W17972  31.054   3.789  13.426
54040W        W17973   9.168  43.498   2.774
54041W        W17974   7.220  26.057   3.302
54042W        W17975  42.308  39.414   2.372
54043W        W17976  29.482  23.224  10.479
54044W        W17977  14.317  35.552   1.291
54045W        W17978  29.091   9.848  11.552
54046W        W17979   6.880  13.824  13.012
54047W        W17980   6.778  11.333   4.630
54048W        W17981  22.125  14.275   2.709
54049W        W17982  25.697  16.086   2.851
54050W        W17983   0.479  41.805  10.534
54051W        W17984  42.844   7.358   2.292
54052W        W17985   4.407   8.766   0.785
54053W        W17986  42.469  10.691  11.114
54054W        W17987   3.761  21.627   4.695
54055W        W17988  28.967   2.738   2.231
54056W        W17989  41.037  13.219  12.852
54057W        W17990   8.892  24.600  11.982
54058W        W17991   0.377  41.380  13.044
54059W        W17992  26.586  36.980   2.678
54060W        W17993  29.056  34.024   1.903
54061W        W17994  17.163   5.789   2.682
54062W        W17995  20.722  28.122   4.312
54063W        W17996  15.641   2.359   3.214
54064W        W17997  44.457  36.036   2.775
54065W        W17998   8.891   0.300  11.012
54066W        W17999  14.174  23.069   3.172
54067W        W18000   8.264  12.675   2.817
54068W        W18001   9.697  16.776   4.265
54069W        W18002  12.841  24.197  13.398
54070W        W18003  24.074   9.342  12.851
54071W        W18004  19.084  36.443  11.025
54072W        W18005  39.047  31.979   2.864
54073W        W18006   4.441  30.632  13.796
54074W        W18007  30.594  16.292   2.861
54075W        W18008  31.131  31.634  11.010
54076W        W18009  25.673   1.777   4.292
54077W        W18010  29.950  26.666   0.807
54078W        W18011  35.924  25.991  14.343
54079W        W18012   4.740  29.147   1.367
54080W        W18013  44.004  21.647   3.273
54081W        W18014   1.801  24.667  11.084
54082W        W18015  32.607  36.401   0.760
54083W        W18016  37.496  32.577   3.871
54084W        W18017   7.800  11.137  11.120
54085W        W18018   7.381  40.546  13.803
54086W        W18019  38.341  13.349  10.919
54087W        W18020   2.762  12.770  13.359
54088W        W18021  20.714  41.313  14.854
54089W        W18022  35.478  26.678  11.417
54090W        W18023   4.367  32.140  13.371
54091W        W18024  21.212  18.175  10.134
54092W        W18025  14.599  15.164   1.777
54093W        W18026  14.753   5.427   1.237
54094W        W18027   9.211  15.578   4.814
54095W        W18028   5.721   2.843  13.064
54096W        W18029  11.232   5.837   2.231
54097W        W18030  17.611   8.661  13.308
54098W        W18031  13.214  11.316   2.280
54099W        W18032   0.846   1.784   0.332
54100W        W18033   1.375   2.257  10.603
54101W        W18034  24.144  10.225   4.339
54102W        W18035  28.610  36.534   4.184
54103W        W18036  21.728  42.897   2.693
54104W        W18037   3.766   5.868  11.393
54105W        W18038  29.592  11.247   2.827
54106W        W18039   5.406  26.602  11.873
54107W        W18040  14.820  34.522   0.248
54108W        W18041  18.775  40.393  11.089
54109W        W18042  36.518  10.148   3.768
54110W        W18043   8.743   8.380   1.764
54111W        W18044  28.138  21.661  10.445
54112W        W18045  11.129  25.081  12.956
54113W        W18046  31.025  30.597   5.300
54114W        W18047  35.427  26.661  13.408
54115W        W18048  41.936  16.177  11.944
54116W        W18049  20.553   3.722   2.196
54117W        W18050  34.099  32.063  13.375
54118W        W18051  19.638   7.296   2.237
54119W        W18052  16.661  22.696  12.415
54120W        W18053   1.419  16.791   1.872
54121W        W18054  39.941  22.162  10.639
54122W        W18055   5.733   1.828  12.538
54123W        W18056  19.586  26.161  12.383
54124W        W18057  10.184  18.750  12.831
54125W        W18058   1.328  27.136   4.732
54126W        W18059   8.753  13.801   0.851
54127W        W18060  26.701  29.169  13.918
54128W        W18061  11.822  18.592  12.453
54129W        W18062   2.258  43.854  12.556
54130W        W18063  34.895  37.950  12.839
54131W        W18064  43.846  16.667   2.800
54132W        W18065   2.875  15.726  14.339
54133W        W18066  44.368  30.539  12.926
54134W        W18067   5.794  44.983   3.811
54135W        W18068  38.982  33.536  11.461
54136W        W18069   8.693   8.344   3.837
54137W        W18070   9.211   2.417  11.440
54138W        W18071   9.278  27.138   4.700
54139W        W18072  15.693   9.708   4.164
54140W        W18073  33.552  38.560   4.237
54141W        W18074  13.126  44.486   2.289
54142W        W18075  15.085  16.109  14.906
54143W        W18076  22.742   7.701   4.791
54144W        W18077   7.381  16.202  11.974
54145W        W18078  22.737  32.507  11.064
54146W        W18079   6.886  25.144  10.942
54147W        W18080   9.709  19.194   4.629
54148W        W18081  32.580  21.753   1.229
54149W        W18082  16.090  32.032   2.341
54150W        W18083  23.008   1.947  12.572
54151W        W18084  17.208  29.976  12.917
54152W        W18085  14.754   4.303   3.245
54153W        W18086   9.151  31.910   0.769
54154W        W18087  40.984  10.239  13.833
54155W        W18088  39.897  19.179   4.173
54156W        W18089  36.078  25.181  12.073
54157W        W18090   8.200  14.217  14.380
54158W        W18091  24.523  14.129   2.714
54159W        W18092  33.952  29.997  10.486
54160W        W18093  33.611  20.250   2.822
54161W        W18094  24.524   7.335   2.744
54162W        W18095  40.475   4.348  12.398
54163W        W18096  34.889  32.410   1.275
54164W        W18097  29.123  28.666   0.740
54165W        W18098  29.931   6.911   1.315
54166W        W18099  42.338  10.231  13.816
54167W        W18100   5.802  28.968   0.947
54168W        W18101  31.082  21.542  11.869
54169W        W18102  20.763  28.051  12.510
54170W        W18103   8.773  25.115  13.536
54171W        W18104  18.052   4.421   2.852
54172W        W18105  27.995   3.873  13.435
54173W        W18106   4.714  10.343   4.789
54174W        W18107   6.305  44.927  12.951
54175W        W18108  25.171   0.304   2.832
54176W        W18109  23.606  14.330   1.294
54177W        W18110  14.241  12.747  13.969
54178W        W18111  37.025  21.588  14.782
54179W        W18112  22.035  18.633  11.906
54180W        W18113  23.005  22.210  10.513
54181W        W18114  35.430  10.802   4.198
54182W        W18115  43.772   8.228  12.420
54183W        W18116   2.321  21.743  13.990
54184W        W18117  36.003  37.472  14.480
54185W        W18118  41.885  32.423  10.437
54186W        W18119  23.984   8.820   0.864
54187W        W18120  23.096  16.758  14.443
54188W        W18121   5.869  25.572   0.453
54189W        W18122  10.282  20.547  14.314
54190W        W18123  32.596  20.077  10.500
54191W        W18124  35.473   9.347  13.816
54192W        W18125   7.896  37.984  13.505
54193W        W18126  44.902  37.922   1.264
54194W        W18127  21.570  19.165   0.356
54195W        W18128  12.847  32.080  14.876
54196W        W18129  35.994  41.976   4.155
54197W        W18130   9.151   5.903   3.194
54198W        W18131   6.824  28.135   3.146
54199W        W18132  23.530  25.170  14.448
54200W        W18133  23.568  13.785   1.211
54201W        W18134  14.178  17.302  14.953
54202W        W18135  43.302  44.467   2.892
54203W        W18136  32.070  18.689   2.898
54204W        W18137  16.312  23.633   1.353
54205W        W18138  32.477  35.018   0.944
54206W        W18139  10.727  38.464  13.918
54207W        W18140  14.800  10.199  13.425
54208W        W18141  33.612  41.320  13.939
54209W        W18142   4.384   8.307   0.375
54210W        W18143   0.382  16.263  10.604
54211W        W18144  44.301  24.114  10.436
54212W        W18145  32.417  21.584  12.905
54213W        W18146  44.435   8.850   1.833
54214W        W18147  39.388  26.581   0.960
54215W        W18148  22.739  30.597  10.487
54216W        W18149   0.977  14.606  14.870
54217W        W18150   5.896  35.962  12.064
54218W        W18151   1.855  14.682  11.985
54219W        W18152   0.339  22.576   2.795
54220W        W18153  27.146  44.830  14.791
54221W        W18154  43.002  25.216  10.050
54222W        W18155  44.402  11.627   3.840
54223W        W18156  23.082  29.492  12.034
54224W        W18157  20.748  13.713  11.914
54225W        W18158  15.221  38.830  13.352
54226W        W18159   2.251   0.466  13.372
54227W        W18160  36.877  25.176   4.237
54228W        W18161   0.426  12.282   2.226
54229W        W18162  28.024  43.457  10.544
54230W        W18163  14.121  11.755   3.294
54231W        W18164  41.504  43.313   1.788
54232W        W18165   2.748  10.159  11.971
54233W        W18166  35.515  44.771   1.219
54234W        W18167  39.040  11.811   2.252
54235W        W18168  42.322  17.116  10.449
54236W        W18169  36.577  30.522   5.231
54237W        W18170  23.009  14.207  10.938
54238W        W18171  30.997  39.540  11.046
54239W        W18172  36.909   4.830  12.445
54240W        W18173  32.396  22.194  12.479
54241W        W18174  37.903   7.719   1.744
54242W        W18175  44.487  31.477  12.077
54243W        W18176   7.210   6.881  10.095
54244W        W18177  10.809  29.018   3.267
54245W        W18178  34.912   8.772  10.961
54246W        W18179  42.438   9.340  10.931
54247W        W18180  37.938   2.812   2.667
54248W        W18181  33.968  28.473   4.337
54249W        W18182  26.516   9.708  14.296
54250W        W18183  18.153  35.105  12.004
54251W        W18184  30.038   8.874   3.205
54252W        W18185  44.787  20.645   3.727
54253W        W18186   5.209   5.269  11.588
54254W        W18187   3.717  12.822   1.721
54255W        W18188  24.227  43.969   2.803
54256W        W18189   5.732   7.906  13.814
54257W        W18190  41.931  21.127  13.964
54258W        W18191   7.404  20.220   2.693
54259W        W18192  23.540  23.227   3.341
54260W        W18193   7.393  40.898  11.968
54261W        W18194  30.054  11.755   2.187
54262W        W18195  22.718  12.849   0.312
54263W        W18196  16.745  16.594  11.481
54264W        W18197   6.245  16.251  12.911
54265W        W18198  15.612  28.010   5.281
54266W        W18199  35.473  40.816  11.076
54267W        W18200   0.939   1.772   2.356
54268W        W18201  28.446  34.974  14.805
54269W        W18202  34.541  39.864   4.677
54270W        W18203   9.808  39.959  14.804
54271W        W18204   4.368  35.984  13.422
54272W        W18205  34.504  33.911   3.856
54273W        W18206  44.441   8.243  10.932
54274W        W18207  31.120  28.470   0.732
54275W        W18208  19.113  18.627  12.495
54276W        W18209  16.770  43.908  11.520
54277W        W18210  19.746  25.172  12.939
54278W        W18211  27.688   0.776   3.384
54279W        W18212  38.554  23.660   2.315
54280W        W18213  15.749   6.194   3.326
54281W        W18214  31.546  21.657   3.644
54282W        W18215  44.386  40.464  11.063
54283W        W18216  24.565  13.259  12.872
54284W        W18217  35.877  30.997  13.923
54285W        W18218  16.600  23.626   3.717
54286W        W18219  16.296  41.343  10.561
54287W        W18220  17.302   7.398  13.868
54288W        W18221  24.999  31.978  13.516
54289W        W18222  43.804  38.370  11.897
54290W        W18223  17.103  14.159   5.260
54291W        W18224  31.104  33.519  11.979
54292W        W18225  26.595  39.831   3.228
54293W        W18226   8.729  43.993   0.377
54294W        W18227  40.008  10.240  12.432
54295W        W18228   0.479   6.917   3.714
54296W        W18229  22.635  42.974  11.088
54297W        W18230  25.061  15.596   4.223
54298W        W18231   8.226   1.331  11.898
54299W        W18232  25.178  43.277   4.199
54300W        W18233  43.497  14.180   2.393
54301W        W18234  31.503  27.149  14.834
54302W        W18235  33.467  38.984  11.568
54303W        W18236  31.914  36.004   2.744
54304W        W18237   7.776  30.470   2.827
54305W        W18238  28.053   8.295  10.584
54306W        W18239  29.923  36.985  11.092
54307W        W18240  28.161  23.997  11.094
54308W        W18241  37.341  12.755  13.502
54309W        W18242   8.776  12.138   0.399
54310W        W18243  25.089  25.501   0.781
54311W        W18244  42.848   9.160   1.298
54312W        W18245  33.579  39.969  10.491
54313W        W18246  23.154   6.201   4.662
54314W        W18247  29.618   2.346   2.678
54315W        W18248  42.815  40.847  11.889
54316W        W18249  20.142  37.017   3.323
54317W        W18250  34.427  40.013   1.721
54318W        W18251  43.274  21.531   4.151
54319W        W18252   0.295   9.687   0.465
54320W        W18253  35.061  17.228  11.567
54321W        W18254  16.106  19.267  11.919
54322W        W18255  25.183  44.845   4.658
54323W        W18256  27.541   8.302   0.726
54324W        W18257  32.628  44.886  14.320
54325W        W18258  14.265  18.625  12.826
54326W        W18259  44.935   0.291  13.815
54327W        W18260  27.593   9.839   3.709
54328W        W18261  40.903   8.749  10.556
54329W        W18262  34.424  20.731  14.863
54330W        W18263  44.385  27.122   3.207
54331W        W18264  35.944  17.161  13.462
54332W        W18265  11.768   2.237   2.743
54333W        W18266  32.446  23.684   0.745
54334W        W18267  25.071  18.547   0.845
54335W        W18268   8.162  16.283   0.842
54336W        W18269  32.454   2.926  11.389
54337W        W18270  43.500  13.268  12.561
54338W        W18271  35.874  16.139  14.998
54339W        W18272   4.874  38.962   3.340
54340W        W18273  21.706  42.883  14.864
54341W        W18274  29.587  13.209   1.273
54342W        W18275   8.787   3.303  13.916
54343W        W18276  21.134   0.263   2.335
54344W        W18277   7.738   5.233   2.770
54345W        W18278  41.305   7.228  13.445
54346W        W18279  42.865  25.084  13.383
54347W        W18280  21.610  43.456  14.003
54348W        W18281  10.191  28.564   0.385
54349W        W18282  17.602  42.290   3.743
54350W        W18283  16.082  27.102  10.560
54351W        W18284  16.213  27.536  13.979
54352W        W18285  12.320  30.549   0.835
54353W        W18286  35.031   2.957   4.169
54354W        W18287  27.668  42.445   3.354
54355W        W18288  26.527  35.045  11.576
54356W        W18289  37.038   8.672  13.936
54357W        W18290  12.144   5.851   1.794
54358W        W18291  17.269  39.014   1.385
54359W        W18292  26.983  27.583   1.404
54360W        W18293  36.906  39.429   1.876
54361W        W18294  34.045  16.127   2.206
54362W        W18295  13.257  24.571  12.850
54363W        W18296  17.204  32.432   2.902
54364W        W18297   3.255  42.928   4.680
54365W        W18298  10.330  37.360   1.757
54366W        W18299  20.673  28.560  13.408
54367W        W18300  37.948  15.229  14.910
54368W        W18301  35.107  24.225   1.774
54369W        W18302  16.580  19.104  13.547
54370W        W18303  27.947  21.194  12.421
54371W        W18304  29.058  33.056  12.504
54372W        W18305  14.161  36.402   0.287
54373W        W18306   3.341  17.129   0.814
54374W        W18307  11.809   0.423   1.284
54375W        W18308   2.452  30.493  10.972
54376W        W18309  31.471   1.297  12.988
54377W        W18310  24.521  26.588   4.332
54378W        W18311  43.991  35.050   3.788
54379W        W18312  15.253  21.178   0.295
54380W        W18313  14.225  24.495  13.393
54381W        W18314  23.026  27.493   3.352
54382W        W18315   3.806  25.672   1.712
54383W        W18316  35.376  18.290   2.213
54384W        W18317  21.236   4.289  11.952
54385W        W18318   2.433  20.088   1.845
54386W        W18319  41.468   8.346   2.352
54387W        W18320  10.828   6.382   2.757
54388W        W18321  12.150  17.769  10.433
54389W        W18322  42.964  17.656  13.934
54390W        W18323  18.147  37.552  11.057
54391W        W18324  21.227  13.683  11.931
54392W        W18325  11.781  16.158  12.441
54393W        W18326  42.526  41.801  11.070
54394W        W18327  34.971  44.415   0.447
54395W        W18328  43.880  32.076  10.041
54396W        W18329   2.721  39.350  12.000
54397W        W18330  22.212  28.554   1.253
54398W        W18331  19.700  23.187   3.734
54399W        W18332  24.574  39.459   1.737
54400W        W18333  29.936   1.818  14.882
54401W        W18334   4.320  15.188  12.343
54402W        W18335  18.605  34.987  10.615
54403W        W18336  39.820  36.929  11.514
54404W        W18337   9.279  28.013  12.047
54405W        W18338  16.765  44.929  13.534
54406W        W18339   6.728  42.414   3.368
54407W        W18340  26.109  11.754  10.443
54408W        W18341  34.499   4.865  13.505
54409W        W18342   5.893  30.550   3.243
54410W        W18343  27.114  31.602   3.702
54411W        W18344  23.001  39.025   1.439
54412W        W18345  10.211  15.613  10.606
54413W        W18346  31.645  13.677  11.530
54414W        W18347  34.000   4.796   4.700
54415W        W18348  37.527  15.590   3.788
54416W        W18349   6.871  32.052  14.025
54417W        W18350   3.443  11.747   4.317
54418W        W18351  20.117  12.708   1.298
54419W        W18352  13.757   0.287   2.887
54420W        W18353  33.893  31.532  11.055
54421W        W18354  11.831  41.921  14.388
54422W        W18355  12.665   0.965  12.940
54423W        W18356  29.953  43.393  13.880
54424W        W18357  27.649   1.373  10.502
54425W        W18358   8.884  24.170  11.373
54426W        W18359  40.483  19.635   3.319
54427W        W18360  16.804  24.502  12.411
54428W        W18361  44.429  13.734  11.439
54429W        W18362   2.261  11.279  10.512
54430W        W18363  33.528   4.406   1.341
54431W        W18364  21.716   6.700   1.750
54432W        W18365  36.906   2.230   2.377
54433W        W18366  12.201  32.978  11.885
54434W        W18367  34.066  11.755   0.956
54435W        W18368   0.914  20.253  12.085
54436W        W18369  39.947   8.892  12.082
54437W        W18370  23.061  34.527   3.826
54438W        W18371  19.705   6.257   2.344
54439W        W18372  16.728  39.847   3.749
54440W        W18373  26.032  35.035   3.786
54441W        W18374   5.926  10.790  11.083
54442W        W18375  42.378   5.358   2.409
54443W        W18376  28.031  24.036  10.636
54444W        W18377   2.740  16.660   3.795
54445W        W18378  35.429  36.395   4.837
54446W        W18379  36.848  20.628  13.941
54447W        W18380   0.346  27.942  14.390
54448W        W18381   0.814  21.575   1.370
54449W        W18382  23.052  26.472  14.344
54450W        W18383  34.575  22.532  13.437
54451W        W18384  26.111  35.523   0.273
54452W        W18385  40.306  11.130  11.938
54453W        W18386  42.026  19.774   4.646
54454W        W18387  43.402   2.775   4.805
54455W        W18388   9.220  14.810  11.906
54456W        W18389  21.029   3.428  10.492
54457W        W18390   1.963  23.535  13.814
54458W        W18391   5.354   0.949  11.374
54459W        W18392  18.059  10.348  14.417
54460W        W18393  17.147  36.063   2.819
54461W        W18394   0.483   8.401  10.419
54462W        W18395  11.780  38.538   1.423
54463W        W18396  13.141   1.335   0.381
54464W        W18397  23.635   7.199   4.335
54465W        W18398  31.998  40.042   1.438
54466W        W18399  20.177   5.416   4.248
54467W        W18400  15.091  43.830   4.275
54468W        W18401  44.292  17.745   1.845
54469W        W18402   0.816   2.765  14.820
54470W        W18403   4.275  28.974  10.982
54471W        W18404  29.048  29.132  14.283
54472W        W18405  39.936  17.701  11.578
54473W        W18406  36.966  24.098  11.458
54474W        W18407  11.679   4.289   0.835
54475W        W18408  22.145  14.163  12.925
54476W        W18409  25.215  33.456  13.942
54477W        W18410   7.804   8.399  14.320
54478W        W18411   5.916  44.389  14.842
54479W        W18412  28.512  43.290   2.265
54480W        W18413  42.341  40.454  13.879
54481W        W18414   5.297  17.250   4.309
54482W        W18415  11.341   9.183   0.458
54483W        W18416  26.581  37.909   0.818
54484W        W18417   8.248  36.534  11.540
54485W        W18418  43.387   7.707   2.238
54486W        W18419   7.258  18.192   0.815
54487W        W18420  15.793  13.799  13.794
54488W        W18421   9.272  32.978   1.742
54489W        W18422  40.878  24.707   3.175
54490W        W18423  43.942  36.376   2.667
54491W        W18424   5.735  37.341   2.292
54492W        W18425  37.084  39.835  11.860
54493W        W18426  13.253  25.100   0.349
54494W        W18427  13.764  25.984  14.013
54495W        W18428  41.981  26.468   3.810
54496W        W18429   7.385  15.748  11.473
54497W        W18430   8.736  43.289   4.149
54498W        W18431  43.883  27.464   3.641
54499W        W18432   8.355  39.835  13.320
54500W        W18433  41.334  15.679  13.479
54501W        W18434  25.003  12.697   4.242
54502W        W18435  12.771  22.716  12.463
54503W        W18436  11.671  14.164  12.558
54504W        W18437  28.627   3.298  11.573
54505W        W18438  19.062  28.042  12.578
54506W        W18439  27.684   5.820   0.279
54507W        W18440  27.515  10.308  14.992
54508W        W18441  27.163  36.073  14.344
54509W        W18442  38.382   1.932   3.263
54510W        W18443  13.268  36.907  12.973
54511W        W18444   2.760  31.943  11.481
54512W        W18445  44.802  10.718  14.315
54513W        W18446  28.560  35.377  13.821
54514W        W18447   9.856   1.340   0.736
54515W        W18448  27.138  20.094  12.915
54516W        W18449  20.099  31.410   1.274
54517W        W18450   4.807  34.610  12.369
54518W        W18451   1.878  24.090  14.371
54519W        W18452  34.022  29.069   0.869
54520W        W18453  21.568  26.096  13.845
54521W        W18454  40.432  16.595   1.921
54522W        W18455  42.312  39.453   4.669
54523W        W18456   8.680  23.542  14.286
54524W        W18457   8.816  33.405   1.331
54525W        W18458  16.097  10.830  14.428
54526W        W18459  22.116  42.999   3.654
54527W        W18460  14.829   7.679  12.998
54528W        W18461  32.987  31.510  12.499
54529W        W18462   5.330   8.792  10.037
54530W        W18463   8.168  12.190  11.973
54531W        W18464  42.369   5.817  11.103
54532W        W18465  37.964  40.947   3.662
54533W        W18466   9.395   4.852   1.320
54534W        W18467  15.725   3.434  11.114
54535W        W18468   9.866  28.182   0.329
54536W        W18469  12.259  26.670   3.280
54537W        W18470  35.916   9.253  14.508
54538W        W18471  20.070  10.635   3.260
54539W        W18472   5.193  11.179  12.075
54540W        W18473  37.470  14.723   2.184
54541W        W18474  11.771   2.300   0.402
54542W        W18475  44.788  10.261   0.449
54543W        W18476   0.462  28.533   1.271
54544W        W18477  13.735  12.663  14.982
54545W        W18478  11.673  21.655   0.427
54546W        W18479  13.798  44.310   2.380
54547W        W18480  38.899  13.751   4.263
54548W        W18481  24.097   2.272  10.506
54549W        W18482  39.904  17.087   1.426
54550W        W18483   1.946  18.681   2.296
54551W        W18484  37.410  33.106   1.229
54552W        W18485  14.704   8.307   3.746
54553W        W18486  30.492  17.651  10.532
54554W        W18487  30.518  43.444   1.401
54555W        W18488  44.436  29.482  12.063
54556W        W18489  40.352  21.199   1.293
54557W        W18490  10.269  12.138   2.723
54558W        W18491  26.661  23.519   2.690
54559W        W18492   9.157  24.176   4.795
54560W        W18493  10.200   7.265  12.952
54561W        W18494  37.011  28.453  12.481
54562W        W18495  12.154  29.637   0.278
54563W        W18496  15.643   8.249   5.293
54564W        W18497  28.092  28.994   0.944
54565W        W18498   1.867  23.670   0.899
54566W        W18499  31.083  21.046  13.918
54567W        W18500  43.354   9.693   3.755
54568W        W18501  31.024  37.529   4.698
54569W        W18502  28.179   2.261   1.805
54570W        W18503  34.110  30.916   0.265
54571W        W18504  18.096  22.698  13.486
54572W        W18505  19.248  44.271   1.252
54573W        W18506  36.954  35.050   1.445
54574W        W18507  27.102   9.766   3.320
54575W        W18508   5.699   6.836   4.119
54576W        W18509  28.652  38.513  13.530
54577W        W18510  17.291  15.200  11.595
54578W        W18511   2.859  20.157   1.741
54579W        W18512  28.615  27.518   0.357
54580W        W18513   9.845  10.384  14.431
54581W        W18514  30.543  34.106  14.343
54582W        W18515   7.223   0.849   0.437
54583W        W18516  33.030   0.352  12.495
54584W        W18517  13.803  17.252   4.634
54585W        W18518  39.030  10.368  14.952
54586W        W18519  16.711  32.559  13.456
54587W        W18520   3.326  18.058   2.724
54588W        W18521  40.023   1.334  11.006
54589W        W18522  41.426  17.140  10.443
54590W        W18523  11.228  43.382   1.747
54591W        W18524   4.768  37.037   5.223
54592W        W18525  32.127  42.282   4.312
54593W        W18526  17.588  13.746   1.413
54594W        W18527   0.401   6.340  14.417
54595W        W18528  40.432  10.751  14.812
54596W        W18529  11.191   8.289   2.419
54597W        W18530  20.768  27.129  13.894
54598W        W18531   6.259   1.804  11.931
54599W        W18532  25.185  29.942   4.343
54600W        W18533  38.467  11.128  13.470
54601W        W18534  17.254  32.963   2.818
54602W        W18535  44.955  26.612  10.065
54603W        W18536  44.271  31.593  11.116
54604W        W18537   3.847  19.223   0.816
54605W        W18538  28.010   6.913  11.899
54606W        W18539   3.709  16.194  13.043
54607W        W18540  28.039   4.904  13.905
54608W        W18541  14.596  27.940   0.938
54609W        W18542  37.986  15.285  11.560
54610W        W18543  44.993  28.001   1.698
54611W        W18544  33.533   0.811  13.968
54612W        W18545  15.683   3.231  13.968
54613W        W18546  14.125  25.017  13.807
54614W        W18547   1.379  31.471   2.298
54615W        W18548  26.606   0.981  11.427
54616W        W18549  12.228  18.705  13.333
54617W        W18550  36.029  43.003  11.062
54618W        W18551  27.502  29.618  11.434
54619W        W18552  43.296  44.988  12.489
54620W        W18553  35.983  34.423  12.930
54621W        W18554  25.534  28.485   0.441
54622W        W18555  22.173  18.640  14.773
54623W        W18556  24.058   8.201   2.215
54624W        W18557  11.269   9.804   1.743
54625W        W18558  13.289  24.023   2.193
54626W        W18559  13.168  22.524   1.270
54627W        W18560  31.105  16.734  11.965
54628W        W18561  21.031   2.331   4.690
54629W        W18562  25.686   3.836  10.514
54630W        W18563  33.923  41.380  10.564
54631W        W18564  39.533  11.789   0.889
54632W        W18565  18.561   9.156  13.412
54633W        W18566   9.839  22.037  14.443
54634W        W18567  18.654  35.497   1.888
54635W        W18568  31.592  40.890   2.346
54636W        W18569  16.663   7.887  13.437
54637W        W18570  16.086  44.301   3.858
54638W        W18571  27.471  25.521  14.306
54639W        W18572  43.896  33.447  13.339
54640W        W18573  26.473  32.614  11.988
54641W        W18574  26.540  43.508   5.300
54642W        W18575   8.825  24.123   0.730
54643W        W18576   1.424  14.107   1.739
54644W        W18577  11.219  40.894  11.454
54645W        W18578  15.721  27.021   2.381
54646W        W18579  44.991  36.391   1.423
54647W        W18580   0.348  26.130  13.884
54648W        W18581  27.197  37.358   1.764
54649W        W18582  37.875   1.880   0.394
54650W        W18583  12.240  19.676   2.792
54651W        W18584  12.628  31.115  12.402
54652W        W18585  39.953  29.456   3.699
54653W        W18586  21.264   7.377  12.017
54654W        W18587  44.460  43.765   5.116
54655W        W18588  42.858  34.010   0.835
54656W        W18589  41.874  43.297   3.170
54657W        W18590  25.469   3.837  14.832
54658W        W18591  17.153   3.835   3.357
54659W        W18592  22.141   8.200   2.883
54660W        W18593  38.880  34.512  10.007
54661W        W18594  29.463  35.085  12.531
54662W        W18595  21.642  14.744   1.811
54663W        W18596  42.445  34.984  13.915
54664W        W18597  17.242  23.172  10.576
54665W        W18598  25.176   5.326   2.187
54666W        W18599  24.490  25.039  11.593
54667W        W18600   5.327  41.876  11.459
54668W        W18601  17.070  44.885  14.978
54669W        W18602  33.563  19.065   4.761
54670W        W18603   4.742  40.959   1.817
54671W        W18604  32.027  20.760  14.779
54672W        W18605  12.658  44.432   1.700
54673W        W18606   0.968   6.267   2.322
54674W        W18607   0.849  37.517   0.832
54675W        W18608   4.935  26.017   0.277
54676W        W18609  44.867  40.414  13.467
54677W        W18610   8.246  12.700   3.164
54678W        W18611  34.546  30.917   1.777
54679W        W18612   9.241  40.403  14.478
54680W        W18613   9.199  30.938  12.397
54681W        W18614  38.999  27.659   1.796
54682W        W18615   3.884  43.431   2.273
54683W        W18616  35.970  20.224   1.898
54684W        W18617  19.611  35.986   0.364
54685W        W18618  31.145  24.156   4.163
54686W        W18619  13.607  17.303  11.013
54687W        W18620  43.463  32.902   3.316
54688W        W18621  31.025  37.932  11.951
54689W        W18622  30.518   3.816  10.892
54690W        W18623  34.582  34.074  14.930
54691W        W18624  31.566  42.504  14.837
54692W        W18625   4.420  23.567  13.832
54693W        W18626  30.934  15.632  11.590
54694W        W18627  10.823  20.262   2.879
54695W        W18628  31.062  24.691  13.054
54696W        W18629  33.022  25.029   0.731
54697W        W18630  11.259   1.875   2.318
54698W        W18631  16.625   8.851   3.223
54699W        W18632  22.025  25.650   3.785
54700W        W18633  15.248  12.836   2.305
54701W        W18634   2.236   4.406  14.026
54702W        W18635  25.583  15.740   0.848
54703W        W18636   7.234  20.172   1.923
54704W        W18637   6.839   8.379  12.847
54705W        W18638  44.001  30.596   2.325
54706W        W18639  18.734  24.001  13.437
54707W        W18640   7.241  26.547  14.384
54708W        W18641  34.981  29.147   3.642
54709W        W18642   9.210  13.838  14.436
54710W        W18643  30.488   5.879   0.450
54711W        W18644  35.943  32.020  14.442
54712W        W18645  12.746  34.035   2.803
54713W        W18646   9.296  20.238  11.373
54714W        W18647  41.478  18.720   0.754
54715W        W18648  30.490  27.467   4.354
54716W        W18649  22.530   9.834   3.324
54717W        W18650   9.271  24.124   4.126
54718W        W18651  21.741  37.983  13.894
54719W        W18652  18.261  39.434  13.008
54720W        W18653   1.974  26.458   4.228
54721W        W18654  16.274  17.612  12.540
54722W        W18655   7.681  30.030  11.524
54723W        W18656  16.736  11.655  10.915
54724W        W18657  12.121  17.279   3.246
54725W        W18658  41.847  37.371  14.282
54726W        W18659   6.359   4.314   0.382
54727W        W18660  15.579  33.565  12.395
54728W        W18661  22.639  34.944  10.957
54729W        W18662  12.739   7.388   2.207
54730W        W18663  38.853  34.918   1.800
54731W        W18664  26.631   7.694   3.817
54732W        W18665   0.312   6.416  14.862
54733W        W18666  26.031  15.674   1.264
54734W        W18667  20.221  12.647   2.675
54735W        W18668  17.208  13.692  11.040
54736W        W18669  38.014  25.508   0.361
54737W        W18670  18.224   5.723  13.853
54738W        W18671  43.996  10.234  14.369
54739W        W18672  18.733   0.984  10.952
54740W        W18673  41.945  33.460  13.936
54741W        W18674  41.042  40.407   0.810
54742W        W18675  44.009  34.109  12.492
54743W        W18676  43.830  24.671  13.341
54744W        W18677  10.875  20.604  12.465
54745W        W18678   6.395  31.964  10.573
54746W        W18679  39.504  12.691   1.742
54747W        W18680   1.937  16.284   3.869
54748W        W18681  27.587  20.766  12.581
54749W        W18682  11.833  35.358  11.990
54750W        W18683  42.952  44.379   3.690
54751W        W18684  42.507  44.501  14.917
54752W        W18685   4.701   1.246   1.849
54753W        W18686  12.352  44.327   2.273
54754W        W18687  33.074  43.450  14.851
54755W        W18688  34.594  12.216  13.846
54756W        W18689  19.223  25.178  14.873
54757W        W18690  43.796  13.166   4.261
54758W        W18691   7.784  31.407  10.528
54759W        W18692  43.009   8.836   1.230
54760W        W18693  26.592   0.343   2.384
54761W        W18694  25.703   6.281   1.807
54762W        W18695  38.861  23.225  11.107
54763W        W18696  32.908  43.359  12.010
54764W        W18697  25.037  10.310   0.826
54765W        W18698  34.055   9.807   3.698
54766W        W18699  29.614  38.021   4.725
54767W        W18700  11.719  13.188  10.974
54768W        W18701  39.377  21.061  13.888
54769W        W18702  21.193  23.024   1.287
54770W        W18703  16.607   1.237   4.226
54771W        W18704  29.590  44.453   4.289
54772W        W18705  37.481  21.165  12.426
54773W        W18706   2.798  35.422  11.002
54774W        W18707  19.758  20.652   4.233
54775W        W18708  16.209   0.810  13.375
54776W        W18709  25.560   8.700  13.046
54777W        W18710   1.961   6.324   1.828
54778W        W18711  37.477  10.751  13.883
54779W        W18712   0.869  39.059   4.714
54780W        W18713   7.829   1.902   2.354
54781W        W18714  22.125  30.074  12.046
54782W        W18715  23.729  13.844   0.312
54783W        W18716  21.656  14.197  11.596
54784W        W18717  17.574  19.078  13.308
54785W        W18718   9.839  36.921  11.491
54786W        W18719  43.460  29.111   4.796
54787W        W18720  32.430  21.085  13.507
54788W        W18721  38.004  15.812   2.847
54789W        W18722   6.855  18.254   3.240
54790W        W18723  32.549  28.065  12.835
54791W        W18724   0.769  10.166  14.374
54792W        W18725  23.547  39.483   0.483
54793W        W18726  21.244  19.266  12.886
54794W        W18727  23.525  44.951  13.988
54795W        W18728  17.200  18.120  12.341
54796W        W18729  26.674  22.063   1.752
54797W        W18730  11.768  39.419  11.950
54798W        W18731  16.591   6.856   1.804
54799W        W18732   1.948   7.359  13.901
54800W        W18733  31.986  27.547   1.318
54801W        W18734   1.388  27.125   2.376
54802W        W18735  21.694   6.396  10.136
54803W        W18736  31.938  29.659   1.729
54804W        W18737  20.265  40.991   3.803
54805W        W18738  30.128  42.325   0.913
54806W        W18739  38.898  24.184  14.861
54807W        W18740  24.646  20.679   0.456
54808W        W18741  23.083  16.580  11.376
54809W        W18742  18.171  31.471  14.899
54810W        W18743  44.810  13.756   1.365
54811W        W18744  44.871  18.711  12.076
54812W        W18745  29.122  42.998   4.676
54813W        W18746  17.141  40.985   2.816
54814W        W18747  33.088  42.419   3.222
54815W        W18748  38.849  10.844   3.340
54816W        W18749  14.703   5.933  12.451
54817W        W18750  32.907  13.113   3.652
54818W        W18751  35.076  36.430   4.226
54819W        W18752   0.464  11.860   4.208
54820W        W18753  43.844  32.570   3.843
54821W        W18754  29.618   6.347   4.820
54822W        W18755  14.724  12.823   3.201
54823W        W18756  39.978  30.462   3.270
54824W        W18757   6.385  32.467   3.320
54825W        W18758   4.786  40.835  12.408
54826W        W18759   7.405   4.798   5.320
54827W        W18760  24.097  39.489   2.232
54828W        W18761   4.720  27.586   4.207
54829W        W18762  28.006  34.894   4.800
54830W        W18763  10.272  20.042  14.952
54831W        W18764  32.404  15.620   9.927
54832W        W18765  20.717  42.454   1.451
54833W        W18766  21.659  21.598   1.913
54834W        W18767  30.930  38.999   3.791
54835W        W18768  33.974  20.071  14.418
54836W        W18769  34.421  32.913   1.296
54837W        W18770  42.962  28.094   1.751
54838W        W18771  43.884  44.371   0.932
54839W        W18772  29.570  41.851  11.466
54840W        W18773  23.698  29.615  13.894
54841W        W18774   1.266  39.874   2.771
54842W        W18775   4.908  43.009   2.307
54843W        W18776   9.168  40.413  12.355
54844W        W18777  27.942  35.431  12.849
54845W        W18778  34.486   1.967   2.277
54846W        W18779  18.283  32.507  13.815
54847W        W18780  34.550  42.511   1.830
54848W        W18781  17.128   0.355  10.925
54849W        W18782  15.611  29.621   1.831
54850W        W18783   5.817  10.276  13.809
54851W        W18784  35.561  12.707  11.914
54852W        W18785  33.580  20.558   2.799
54853W        W18786   5.296  32.631   2.196
54854W        W18787  24.049  26.683  12.923
54855W        W18788  13.206  22.702   0.393
54856W        W18789  12.187  38.531  12.935
54857W        W18790  21.739  15.652  12.060
54858W        W18791  36.911  11.658  14.914
54859W        W18792  39.059   4.343  13.961
54860W        W18793   6.699  21.256  13.336
54861W        W18794  44.320  37.004  13.847
54862W        W18795  28.080  29.520  14.928
54863W        W18796  23.088  18.706   4.759
54864W        W18797  14.602  25.620  11.959
54865W        W18798  30.546  36.068  12.427
54866W        W18799  31.531  28.482  14.284
54867W        W18800  29.072  37.996  13.503
54868W        W18801  18.242  38.029  13.040
54869W        W18802  25.711  34.469   9.934
54870W        W18803  36.060  19.604   1.931
54871W        W18804  41.374  26.643  14.487
54872W        W18805  14.340  10.156   0.814
54873W        W18806  31.424  21.526  14.025
54874W        W18807  14.237  26.023   0.747
54875W        W18808  24.177   3.823  11.063
54876W        W18809  35.381  28.035  10.570
54877W        W18810  25.066  14.833  12.371
54878W        W18811  28.983  29.616   4.303
54879W        W18812  25.213  29.010   2.717
54880W        W18813   5.760  13.826  13.960
54881W        W18814   1.366   3.426   3.639
54882W        W18815  34.435  29.100   0.816
54883W        W18816  25.018  40.870   2.350
54884W        W18817   3.303  28.521  10.535
54885W        W18818   6.355  27.945  11.116
54886W        W18819  25.055  12.165  13.376
54887W        W18820   2.232  43.441  14.954
54888W        W18821  32.948  37.509   3.662
54889W        W18822  12.735  13.135   0.448
54890W        W18823  24.094  26.479   2.873
54891W        W18824  16.606  24.718  14.379
54892W        W18825  20.633   3.248  10.450
54893W        W18826  39.943  24.502   4.149
54894W        W18827  37.438  36.441   1.291
54895W        W18828   3.215  15.127   2.872
54896W        W18829  38.470  38.490  12.030
54897W        W18830  10.815   6.213   2.374
54898W        W18831  40.880   6.750  13.505
54899W        W18832   2.402  32.535  12.442
54900W        W18833  17.664   7.186   0.891
54901W        W18834  32.083   8.823   2.310
54902W        W18835  42.294  23.628  13.965
54903W        W18836  41.523  12.621   1.425
54904W        W18837   2.758  29.475  10.641
54905W        W18838  30.413  11.863  12.861
54906W        W18839  25.531  21.205   0.817
54907W        W18840  14.783   0.883   9.925
54908W        W18841  28.180  13.199   3.660
54909W        W18842  23.551   8.390   0.358
54910W        W18843  12.139   3.380   4.195
54911W        W18844   4.916  16.297  11.044
54912W        W18845  32.465   0.316  13.836
54913W        W18846  17.141  32.983   3.302
54914W        W18847   3.310  13.312   2.744
54915W        W18848  25.585  10.820  13.973
54916W        W18849  35.404  42.334   0.467
54917W        W18850  44.376   2.943  11.898
54918W        W18851  18.779  23.586   3.367
54919W        W18852  31.128  20.226  13.034
54920W        W18853  35.408  21.665  11.032
54921W        W18854  15.209   4.717  10.444
54922W        W18855  43.969  42.333   4.607
54923W        W18856   6.228  44.460   2.803
54924W        W18857   5.279  32.065  10.998
54925W        W18858  33.491   4.324  12.568
54926W        W18859   3.906  26.087   2.270
54927W        W18860  40.878  43.421   4.821
54928W        W18861  21.120  38.330   0.736
54929W        W18862   5.306  26.549  11.450
54930W        W18863  12.769  26.526   1.765
54931W        W18864  22.723   9.689  12.935
54932W        W18865  12.177  30.046  13.313
54933W        W18866  22.204  15.171  13.367
54934W        W18867   7.684  38.003  11.893
54935W        W18868  30.101  12.254  12.911
54936W        W18869  31.405  44.914  13.470
54937W        W18870   0.447  34.492  12.833
54938W        W18871  21.038  25.046  13.344
54939W        W18872  43.514   8.179   1.846
54940W        W18873   3.941  41.362   2.210
54941W        W18874  13.149  14.631  12.387
54942W        W18875   5.822  27.566   3.829
54943W        W18876  41.983  31.601  14.408
54944W        W18877  27.185  24.625  12.524
54945W        W18878   1.417  34.549  11.992
54946W        W18879  14.198  34.993  13.991
54947W        W18880  30.951  44.880   4.610
54948W        W18881  20.737  25.158  14.886
54949W        W18882  15.242  23.181   2.684
54950W        W18883  28.930  39.980   4.669
54951W        W18884  38.351  35.435  13.348
54952W        W18885  39.964  16.079   4.240
54953W        W18886   9.384   0.911  11.401
54954W        W18887  35.943  10.718  12.017
54955W        W18888  20.143  30.603  13.805
54956W        W18889  22.158  39.907   1.756
54957W        W18890  11.825  28.439   4.788
54958W        W18891  17.280   8.249   4.730
54959W        W18892  12.243  25.686  11.476
54960W        W18893  11.217  29.584   2.832
54961W        W18894  42.310   4.838   4.645
54962W        W18895  16.682  11.737  14.338
54963W        W18896  13.225   7.857   3.246
54964W        W18897  17.250  43.828  14.833
54965W        W18898  30.074  43.410   4.750
54966W        W18899  37.407  16.273  12.019
54967W        W18900   9.711  32.446  12.907
54968W        W18901  10.325  42.320   2.863
54969W        W18902   5.802   3.869  12.054
54970W        W18903   4.305  43.513   1.750
54971W        W18904  24.005  22.168  11.077
54972W        W18905  29.158  25.521  11.502
54973W        W18906  31.070   1.889  14.295
54974W        W18907  37.462  21.523  13.909
54975W        W18908   2.301  31.055   1.266
54976W        W18909  37.490  35.953  13.490
54977W        W18910  44.880  34.598  13.968
54978W        W18911  42.517  16.142  11.582
54979W        W18912   2.262  37.447   0.875
54980W        W18913  44.423  36.024   4.803
54981W        W18914  40.020   3.891  14.873
54982W        W18915  11.241  32.494   2.668
54983W        W18916  27.171  41.796   1.432
54984W        W18917  29.622  20.683   1.719
54985W        W18918   1.381  30.532  10.428
54986W        W18919  40.820   0.973  12.506
54987W        W18920  42.819  38.060  11.118
54988W        W18921   5.301  12.775  14.362
54989W        W18922  30.989  16.678  14.879
54990W        W18923  44.333  14.224  12.866
54991W        W18924  14.721  41.999  11.404
54992W        W18925  35.036  25.115  11.968
54993W        W18926  33.952  31.945   0.400
54994W        W18927  25.001  29.133  13.338
54995W        W18928  24.550  37.502  12.543
54996W        W18929  42.398  14.827  11.502
54997W        W18930  24.588  37.415   1.888
54998W        W18931  11.750  43.830   0.263
54999W        W18932  39.926  39.964   3.633
55000W        W18933  38.540   9.708   1.843
55001W        W18934   9.152   7.879  12.875
55002W        W18935  18.700  24.580   0.895
55003W        W18936   0.817   6.408  12.465
55004W        W18937  23.596  30.007   3.742
55005W        W18938  31.919  12.686  11.106
55006W        W18939  33.419  21.138  13.453
55007W        W18940  43.387   9.644   1.770
55008W        W18941  41.889  25.633   0.336
55009W        W18942   7.415  33.876   3.792
55010W        W18943  12.304  24.035  14.012
55011W        W18944  22.108  11.661  14.365
55012W        W18945  36.569  19.087  14.811
55013W        W18946  18.758  23.638   2.410
55014W        W18947  32.573  32.006  11.999
55015W        W18948  22.052   2.857  12.505
55016W        W18949   1.912  29.562  13.482
55017W        W18950  18.728  19.587   3.840
55018W        W18951  13.295  30.070  10.955
55019W        W18952  15.277  10.769   4.778
55020W        W18953  41.489  16.665   0.928
55021W        W18954  18.166  37.082  11.523
55022W        W18955  23.656  38.920   2.348
55023W        W18956   4.382   8.697  14.352
55024W        W18957   5.329  38.834   2.298
55025W        W18958  25.177  10.643  12.842
55026W        W18959  13.709  42.423  14.959
55027W        W18960   5.201  30.141  13.970
55028W        W18961  29.032  26.190   0.302
55029W        W18962  29.034  23.501  13.815
55030W        W18963  40.543  36.455  14.865
55031W        W18964  22.571   5.276  13.846
55032W        W18965   6.366   2.899   5.150
55033W        W18966   5.300   4.341  11.998
55034W        W18967  36.039  28.561   3.326
55035W        W18968  11.194  29.496   0.375
55036W        W18969  40.997   9.363  10.999
55037W        W18970  27.149  13.200   1.734
55038W        W18971  17.243  29.569  14.867
55039W        W18972  22.532  31.970   4.149
55040W        W18973  30.580   6.412  13.044
55041W        W18974  42.502   4.772  12.509
55042W        W18975  34.406   6.423  14.447
55043W        W18976  21.669  10.686  11.512
55044W        W18977  25.138  27.014  10.568
55045W        W18978  38.482  26.046  13.814
55046W        W18979  16.775  16.713   0.364
55047W        W18980  41.294  35.956  13.462
55048W        W18981  14.610  11.349   0.787
55049W        W18982  20.630  20.097   3.339
55050W        W18983  26.476   5.693  11.422
55051W        W18984  40.892  13.660   0.362
55052W        W18985  18.759  41.418  13.479
55053W        W18986  30.141  16.217   3.650
55054W        W18987  20.136   4.848  13.380
55055W        W18988  28.658  10.351  12.040
55056W        W18989   3.754  14.237   0.931
55057W        W18990   8.346  38.374   2.325
55058W        W18991  12.205   2.816  10.635
55059W        W18992   5.792   3.797   0.778
55060W        W18993  39.884  44.924  10.636
55061W        W18994  18.281   7.315  11.885
55062W        W18995  32.003  21.161  11.610
55063W        W18996  27.167   1.811  13.839
55064W        W18997  20.244  12.751   3.862
55065W        W18998  19.619  34.888  10.982
55066W        W18999  27.492  22.566   3.315
55067W        W19000  19.607  18.165  12.570
55068W        W19001  41.908   8.792  13.521
55069W        W19002  39.509  11.793   2.296
55070W        W19003  20.614  22.657  11.584
55071W        W19004  22.092  29.126  13.426
55072W        W19005  22.137  11.277  10.953
55073W        W19006  43.463  24.543   0.326
55074W        W19007  22.733  13.219   1.449
55075W        W19008  21.071  40.487   0.261
55076W        W19009  40.036  44.384  11.969
55077W        W19010  32.086   5.752  13.454
55078W        W19011  13.350  40.996  13.854
55079W        W19012  16.091  33.886  13.797
55080W        W19013  40.845   5.202  14.828
55081W        W19014  36.047  38.407  12.036
55082W        W19015  33.942  37.507   1.424
55083W        W19016  19.700  15.676  13.375
55084W        W19017  18.547  27.503  13.340
55085W        W19018  33.619  42.803  11.422
55086W        W19019  25.081  44.374   3.268
55087W        W19020  22.744  20.249  14.324
55088W        W19021  42.333  44.854   4.681
55089W        W19022  17.128  17.295   1.763
55090W        W19023  25.987  34.001  14.308
55091W        W19024  39.948  28.506  11.880
55092W        W19025   2.954  34.051  13.932
55093W        W19026   9.832   7.798  14.462
55094W        W19027  13.336   2.905  13.827
55095W        W19028  31.937  13.799   1.763
55096W        W19029   3.866  27.516  13.943
55097W        W19030  29.518   4.818  12.533
55098W        W19031  30.576  17.662   2.686
55099W        W19032  40.896  10.364  14.432
55100W        W19033   9.806  38.978  10.414
55101W        W19034  22.147   5.240   0.376
55102W        W19035   4.313  37.523   2.301
55103W        W19036  22.746   1.805  12.503
55104W        W19037  35.454   9.168   0.805
55105W        W19038  37.460   2.453   3.256
55106W        W19039  14.751  19.142  14.349
55107W        W19040  25.152   6.808   0.759
55108W        W19041   1.262   2.731   1.345
55109W        W19042  26.154  22.502   0.965
55110W        W19043  31.131  15.149   4.143
55111W        W19044  27.082   6.696  14.904
55112W        W19045  31.570  27.966   4.791
55113W        W19046  43.298  21.120  11.010
55114W        W19047  36.349   8.287   0.859
55115W        W19048  41.812  24.110  10.568
55116W        W19049  20.743  29.503  11.502
55117W        W19050  36.094  14.265   3.867
55118W        W19051  34.374  12.790  14.908
55119W        W19052   7.370   1.421   0.472
55120W        W19053  35.474  40.915   0.439
55121W        W19054  37.385  44.923  11.517
55122W        W19055  31.022   0.820   3.692
55123W        W19056   0.867  17.800  14.867
55124W        W19057  19.172  44.850   1.744
55125W        W19058  35.076  33.009  14.972
55126W        W19059  37.388  42.867   2.832
55127W        W19060  28.667  41.531  11.923
55128W        W19061  16.630   5.329  12.907
55129W        W19062   9.870  21.173  11.555
55130W        W19063   7.728  40.507   2.191
55131W        W19064  43.007  25.533   4.304
55132W        W19065   2.395  24.582  12.876
55133W        W19066  30.461  36.865  13.933
55134W        W19067   3.359   6.249   1.400
55135W        W19068  14.208  23.646   1.358
55136W        W19069  30.634  12.133  12.348
55137W        W19070   7.171  10.246   2.729
55138W        W19071  35.434  10.258  11.967
55139W        W19072  29.551  25.485   3.180
55140W        W19073  44.794  18.751   1.826
55141W        W19074  17.559  34.909  14.377
55142W        W19075  14.610   7.263   1.225
55143W        W19076   2.375  31.503   0.254
55144W        W19077  24.556  30.447   4.767
55145W        W19078  13.137  34.500   0.350
55146W        W19079  26.989   9.374   3.213
55147W        W19080  32.531  31.132   1.223
55148W        W19081  23.660   2.235   1.242
55149W        W19082  44.799   7.244  13.966
55150W        W19083  39.913   7.405   0.447
55151W        W19084  39.342  19.264   4.730
55152W        W19085  29.942   6.836   3.267
55153W        W19086  31.461   3.751  14.476
55154W        W19087  21.542   8.865  14.934
55155W        W19088  32.107  11.826   0.432
55156W        W19089   5.314   5.699   0.462
55157W        W19090  30.467  10.275  11.855
55158W        W19091   5.829  35.372  13.381
55159W        W19092  28.054  25.137   0.257
55160W        W19093   1.959  14.653   0.957
55161W        W19094  16.120  40.500  12.976
55162W        W19095  19.154  37.862   5.130
55163W        W19096  12.219   7.762  13.041
55164W        W19097  28.122  12.158  13.794
55165W        W19098  33.505  11.842  13.950
55166W        W19099  11.734  44.822   0.967
55167W        W19100  14.158  36.351  12.563
55168W        W19101  30.088  14.702  13.921
55169W        W19102  35.502  16.671   2.327
55170W        W19103  13.783  20.177  11.070
55171W        W19104  33.061  44.398   4.168
55172W        W19105   9.388  15.259  11.513
55173W        W19106   7.336   4.350  10.960
55174W        W19107  31.510  38.499  12.468
55175W        W19108   8.769  26.140  14.886
55176W        W19109  35.968  25.035   1.800
55177W        W19110  24.170  16.163   0.842
55178W        W19111  29.651  16.774  12.377
55179W        W19112  21.101   8.878  14.514
55180W        W19113  27.456   9.684   0.330
55181W        W19114  13.228  36.512  10.411
55182W        W19115  15.724  41.501   3.756
55183W        W19116   1.901  24.071  13.884
55184W        W19117   2.879  34.987   0.460
55185W        W19118  20.533  39.354   3.221
55186W        W19119   5.326  43.484  11.446
55187W        W19120   4.749  34.436   1.389
55188W        W19121  15.745  21.607   4.775
55189W        W19122  14.165  14.754  13.436
55190W        W19123  11.757   6.206  12.459
55191W        W19124  22.186  15.201   1.332
55192W        W19125  16.114  19.759  14.402
55193W        W19126   3.847   0.326   2.217
55194W        W19127  17.209   7.781   2.337
55195W        W19128  40.883  43.990   1.450
55196W        W19129  44.392  31.451  14.289
55197W        W19130   2.770  28.148   2.806
55198W        W19131  29.993  37.937   3.150
55199W        W19132  37.425  20.751  11.975
55200W        W19133  39.465   9.344  13.358
55201W        W19134  22.093  22.009   3.805
55202W        W19135   1.856   3.775  13.310
55203W        W19136  31.950  41.342  11.998
55204W        W19137  11.694  43.270   2.691
55205W        W19138  16.306   0.272  12.069
55206W        W19139  34.378   9.368   2.884
55207W        W19140  26.007  22.512  13.378
55208W        W19141   7.877   5.225   0.482
55209W        W19142  16.574  33.494  14.306
55210W        W19143  33.502  28.063   2.900
55211W        W19144  37.879   7.249  13.437
55212W        W19145  29.519  36.408  13.476
55213W        W19146   0.915  13.730  12.983
55214W        W19147  10.750  11.822  11.448
55215W        W19148   0.989  37.945  12.026
55216W        W19149  27.494  38.856  12.451
55217W        W19150  16.210  16.600  12.910
55218W        W19151  20.671   9.650   4.181
55219W        W19152  20.682  44.390  14.992
55220W        W19153   4.708   9.736   9.934
55221W        W19154  30.070   1.431  14.510
55222W        W19155  12.136  26.604  12.989
55223W        W19156   4.415  19.052   0.817
55224W        W19157  15.228  44.473   0.457
55225W        W19158  23.206  37.007   0.294
55226W        W19159  23.086  39.905  14.448
55227W        W19160  22.652  27.614  14.454
55228W        W19161  31.046  13.243  11.575
55229W        W19162  44.425  34.022   4.689
55230W        W19163  38.838  43.956  11.124
55231W        W19164   8.851   3.769   4.709
55232W        W19165  24.585  42.997  11.409
55233W        W19166  43.773  17.286   1.225
55234W        W19167  26.473  30.067   4.621
55235W        W19168   1.776   7.875  14.776
55236W        W19169  34.006  20.634   3.234
55237W        W19170  23.158  41.818  12.089
55238W        W19171  13.777   8.760  10.508
55239W        W19172  20.228   6.406  10.136
55240W        W19173  28.628  25.014   5.177
55241W        W19174  28.491  30.960  14.292
55242W        W19175   8.403  44.318   4.729
55243W        W19176  15.666  28.982  14.776
55244W        W19177  14.777   7.343  14.412
55245W        W19178  10.288   2.448  13.048
55246W        W19179  12.741  24.193   0.467
55247W        W19180   9.887  23.609  13.825
55248W        W19181  36.418  22.735   1.327
55249W        W19182  37.832  33.053   2.264
55250W        W19183   1.250  37.516  14.901
55251W        W19184  29.653  20.251   2.224
55252W        W19185  37.842  14.638  14.863
55253W        W19186   6.212  44.944   1.370
55254W        W19187  14.118  25.092  13.396
55255W        W19188  28.532   9.223  12.000
55256W        W19189   9.692  29.578  12.339
55257W        W19190  42.869  40.917   3.191
55258W        W19191  40.797   3.351   3.256
55259W        W19192  26.685  36.583   4.659
55260W        W19193  42.417  11.300   3.172
55261W        W19194  25.590  29.530  10.581
55262W        W19195  36.982   4.785   1.227
55263W        W19196   4.875   6.707   2.900
55264W        W19197  42.283  25.087  13.522
55265W        W19198  32.965  22.116  11.107
55266W        W19199  20.580   0.762  12.556
55267W        W19200  13.739  30.050   2.269
55268W        W19201  19.220  16.196   2.242
55269W        W19202  25.113  28.061  12.860
55270W        W19203  17.090  32.521   2.370
55271W        W19204  34.952  27.940   3.708
55272W        W19205  22.146  43.362  10.629
55273W        W19206  25.692   5.816   2.197
55274W        W19207  23.518   9.325   1.861
55275W        W19208   7.249  31.431   0.807
55276W        W19209  14.187  35.590  13.992
55277W        W19210  44.377   8.801   3.252
55278W        W19211  14.321   0.375   0.899
55279W        W19212  24.604   0.441  14.835
55280W        W19213  33.049  28.560   4.615
55281W        W19214  39.026  16.593   3.821
55282W        W19215   9.710  22.609   2.816
55283W        W19216  30.483  21.710   0.347
55284W        W19217  27.044  33.112   0.953
55285W        W19218   9.251  42.413   3.776
55286W        W19219  28.059   7.812   1.367
55287W        W19220   9.333  31.964   5.256
55288W        W19221  32.475   7.305   3.227
55289W        W19222  17.195  23.516   2.877
55290W        W19223  28.520  30.100   0.418
55291W        W19224  39.054  38.837   1.785
55292W        W19225  42.963  10.181  12.999
55293W        W19226  37.036  14.161   1.447
55294W        W19227   6.690  43.292  12.359
55295W        W19228   4.736  11.724  12.512
55296W        W19229  27.588  16.667   2.365
55297W        W19230  38.900  41.869  14.823
55298W        W19231  26.069  30.123   2.674
55299W        W19232  39.899  25.516  12.033
55300W        W19233  19.218  22.996   1.221
55301W        W19234  28.985   9.364   1.269
55302W        W19235  44.871  18.673  14.420
55303W        W19236  15.724  33.464  14.765
55304W        W19237  30.425   8.224   4.758
55305W        W19238  10.719  27.940  14.007
55306W        W19239  33.458   6.361   1.332
55307W        W19240  16.748  41.341   4.683
55308W        W19241   0.772  44.442   1.334
55309W        W19242  26.095  15.102  10.499
55310W        W19243  21.212  20.190   1.356
55311W        W19244  24.613  19.194   4.697
55312W        W19245   7.720   9.240  11.100
55313W        W19246  28.076  23.707  11.420
55314W        W19247  26.134   5.395  14.378
55315W        W19248  27.505   0.295  14.289
55316W        W19249   5.348  27.653   3.815
55317W        W19250  37.451  18.562  13.411
55318W        W19251  39.560  10.280  13.369
55319W        W19252  21.673  18.273   1.352
55320W        W19253  17.166  41.954   4.301
55321W        W19254   6.325  28.062   3.249
55322W        W19255  29.503  37.426   5.180
55323W        W19256  43.509  42.895   2.304
55324W        W19257  24.539   9.675   9.673
55325W        W19258  27.062  17.737  14.874
55326W        W19259  11.181  17.155  11.532
55327W        W19260   3.248  36.044   4.282
55328W        W19261  27.067  23.224  12.874
55329W        W19262  10.277   1.937   4.747
55330W        W19263   6.207   2.290  11.547
55331W        W19264  27.461  10.632  11.992
55332W        W19265  35.952  13.842  14.770
55333W        W19266  26.980  26.087   4.287
55334W        W19267  30.036   9.654  12.514
55335W        W19268  26.046  38.026   2.302
55336W        W19269  16.807  43.337   4.258
55337W        W19270  29.453  40.405   3.810
55338W        W19271  28.549  14.825   1.723
55339W        W19272  28.537  11.310   4.143
55340W        W19273  10.678  26.602   4.184
55341W        W19274  24.644  17.716  11.025
55342W        W19275  30.081  32.925   4.787
55343W        W19276  44.972  34.979   3.764
55344W        W19277  20.120  25.674  10.994
55345W        W19278  18.771   3.864  13.366
55346W        W19279  25.214  26.147   1.752
55347W        W19280   3.318  34.038  10.485
55348W        W19281  44.871   4.726  13.874
55349W        W19282   3.760  34.584   4.148
55350W        W19283   1.292   1.270   2.394
55351W        W19284  41.935   2.846   1.926
55352W        W19285   1.261  39.530   0.813
55353W        W19286  43.377  13.712   0.317
55354W        W19287  25.653  29.066  12.379
55355W        W19288  42.515  43.382  12.939
55356W        W19289  15.785   5.833   2.756
55357W        W19290   7.868  30.132   1.706
55358W        W19291  28.051  44.433  13.829
55359W        W19292  40.867  11.181  13.876
55360W        W19293  21.091  39.919   1.270
55361W        W19294  34.002   4.793   3.691
55362W        W19295  43.998   6.337   0.914
55363W        W19296  35.055  23.117   1.233
55364W        W19297  27.078  34.593   3.288
55365W        W19298  28.949  38.569   1.274
55366W        W19299  20.638  28.069   2.183
55367W        W19300  14.736  20.185   0.264
55368W        W19301  30.415   8.291   2.306
55369W        W19302  34.612  39.990   1.211
55370W        W19303  23.727  15.321   0.846
55371W        W19304  40.895  10.290   2.197
55372W        W19305   3.891   9.306  14.860
55373W        W19306  11.157   8.655  13.450
55374W        W19307  11.368   2.445   2.785
55375W        W19308  39.382  36.871  11.490
55376W        W19309  20.232  19.562   2.837
55377W        W19310  33.492   3.766  13.879
55378W        W19311  40.906   6.404  13.546
55379W        W19312  27.010  34.375   4.146
55380W        W19313  37.974  33.558  11.929
55381W        W19314  12.789   0.846   2.868
55382W        W19315  12.703  16.724   0.282
55383W        W19316   7.734  44.456   1.786
55384W        W19317   0.365  27.115   4.333
55385W        W19318  41.444  43.447  14.369
55386W        W19319  41.375  19.630   1.443
55387W        W19320   2.234   0.441  13.876
55388W        W19321  12.854  24.989   4.140
55389W        W19322  41.486  18.261   0.250
55390W        W19323  32.392  10.239   2.318
55391W        W19324  15.172   9.365   3.814
55392W        W19325   0.458  21.582   2.243
55393W        W19326  23.195   4.860  13.329
55394W        W19327  41.002  27.112   4.700
55395W        W19328   2.939   1.960  12.532
55396W        W19329  29.503  11.218   1.432
55397W        W19330  27.072   4.418  13.377
55398W        W19331  23.125  15.689   0.330
55399W        W19332  29.631  35.094  13.534
55400W        W19333  43.826  34.898   1.873
55401W        W19334  26.485  42.510   4.181
55402W        W19335   4.395  12.731  13.860
55403W        W19336  35.005  19.239  12.068
55404W        W19337  21.132  17.257   2.328
55405W        W19338  14.807  25.027   3.756
55406W        W19339  32.490   7.823   0.872
55407W        W19340  10.763  43.285  10.459
55408W        W19341  36.527  19.594  13.310
55409W        W19342  10.178  17.092  13.540
55410W        W19343   2.333   4.756   3.678
55411W        W19344  38.567   5.333   1.371
55412W        W19345  10.175  26.000  11.971
55413W        W19346  42.915  22.549   2.371
55414W        W19347   7.243  40.388   3.821
55415W        W19348   7.711  13.664   0.943
55416W        W19349  35.490  21.096  12.892
55417W        W19350  21.168   0.300   4.627
55418W        W19351  26.479  24.721   1.700
55419W        W19352  36.910  11.134   1.246
55420W        W19353  28.573   1.878  10.460
55421W        W19354   9.323  10.779  11.599
55422W        W19355  44.000  37.501  12.031
55423W        W19356  22.662  37.920  12.447
55424W        W19357  36.016  21.222  14.027
55425W        W19358  21.599  21.021  10.560
55426W        W19359  42.454  38.413   1.907
55427W        W19360  14.671  36.968  14.866
55428W        W19361   0.407  12.334  13.495
55429W        W19362  34.373  10.376  11.081
55430W        W19363   7.805  28.449  11.042
55431W        W19364  28.516   4.335   4.297
55432W        W19365  44.963  24.046   0.451
55433W        W19366  39.042  19.633  10.145
55434W        W19367  31.505   4.940   3.345
55435W        W19368  21.565   3.782   1.213
55436W        W19369   1.767  37.544  12.375
55437W        W19370  32.572  21.719  14.413
55438W        W19371   2.869  43.904   4.721
55439W        W19372  44.794   1.385   2.742
55440W        W19373  32.906   4.764   1.389
55441W        W19374  35.107  16.086  11.536
55442W        W19375   5.202  35.406   1.912
55443W        W19376   6.312   5.805   2.839
55444W        W19377   3.904  31.114  12.413
55445W        W19378  18.077  18.578   0.804
55446W        W19379   0.254  31.478  12.351
55447W        W19380   8.855  15.199  11.994
55448W        W19381  41.408  21.517   4.156
55449W        W19382  28.045  26.094   3.734
55450W        W19383  38.438  24.624   2.405
55451W        W19384  18.770   1.356  14.871
55452W        W19385  33.073  18.580  13.923
55453W        W19386   2.850  42.887   2.355
55454W        W19387  10.676   9.206  11.049
55455W        W19388   2.879   5.775   0.771
55456W        W19389  34.892   0.848   3.635
55457W        W19390  33.084  37.399  12.040
55458W        W19391  34.522  28.018  10.480
55459W        W19392  17.245  18.639  11.382
55460W        W19393   5.854  32.494   0.451
55461W        W19394   8.674  33.582  10.490
55462W        W19395  29.570   6.395   1.294
55463W        W19396  11.652   0.791  13.021
55464W        W19397  30.479  20.253   0.755
55465W        W19398  27.545  11.371  12.091
55466W        W19399  18.213  37.470   1.746
55467W        W19400  31.051  13.203   1.764
55468W        W19401  40.376  39.331   0.924
55469W        W19402  17.592  18.195   3.736
55470W        W19403  32.137  11.743  11.025
55471W        W19404  13.760  38.432   4.243
55472W        W19405  37.547  34.990   3.326
55473W        W19406  21.059  36.576  14.433
55474W        W19407   0.431   9.761   1.421
55475W        W19408  15.624  27.195   5.162
55476W        W19409  42.379  33.879   4.299
55477W        W19410  26.181  44.457  11.397
55478W        W19411  32.624  34.558  11.475
55479W        W19412  28.478   8.247  11.613
55480W        W19413   6.894   2.787   1.432
55481W        W19414  22.183  36.070   1.700
55482W        W19415   0.747  35.599  12.482
55483W        W19416  38.570  30.596   0.907
55484W        W19417  15.766  21.575   0.853
55485W        W19418  43.001   3.292  13.442
55486W        W19419  38.006  24.224  10.611
55487W        W19420  36.850  28.957   3.280
55488W        W19421  28.148   5.394   2.677
55489W        W19422  35.486   4.853  10.914
55490W        W19423  17.230  13.694   4.781
55491W        W19424  16.785  44.497  12.378
55492W        W19425  33.076   9.740  13.791
55493W        W19426  41.831   9.829  10.999
55494W        W19427   5.797  41.949   0.816
55495W        W19428   1.273   0.462   2.813
55496W        W19429   6.906  22.644  11.590
55497W        W19430  33.878  12.284  14.823
55498W        W19431   7.899  15.814   2.320
55499W        W19432   8.827  36.530   2.738
55500W        W19433   5.332  44.813   2.334
55501W        W19434  23.548  17.789   3.310
55502W        W19435  10.192  17.066   5.194
55503W        W19436  13.603  40.992  13.991
55504W        W19437  20.649  37.478   3.276
55505W        W19438  29.146  32.474  14.288
55506W        W19439  27.477  14.138   2.314
55507W        W19440  31.912  10.277  12.493
55508W        W19441  25.171   4.266  14.475
55509W        W19442  42.875  44.762  13.026
55510W        W19443  32.931  29.968   2.407
55511W        W19444   4.742  43.484   3.220
55512W        W19445  43.863  26.989   2.324
55513W        W19446   8.252  32.915   1.306
55514W        W19447  16.218  34.483   3.833
55515W        W19448  13.345  42.912   3.363
55516W        W19449  29.921  32.447   0.835
55517W        W19450  25.105  43.818   2.402
55518W        W19451  28.000   0.928  14.359
55519W        W19452  34.501  15.256  13.534
55520W        W19453  34.931  24.111   0.458
55521W        W19454  43.766  26.668  13.393
55522W        W19455  19.182  28.960  13.828
55523W        W19456  26.972  29.040  14.344
55524W        W19457  15.197  20.116  11.570
55525W        W19458  38.365  42.439  13.890
55526W        W19459  14.631  32.623   1.850
55527W        W19460  32.904  37.445   1.237
55528W        W19461  35.501   8.240   4.147
55529W        W19462   7.256   8.854  10.510
55530W        W19463  35.079  22.180   2.780
55531W        W19464  23.025  34.006   1.446
55532W        W19465   7.754  37.511  10.139
55533W        W19466  20.248  24.637  13.463
55534W        W19467   3.857   6.815  14.424
55535W        W19468   1.240   5.709  10.989
55536W        W19469   0.827  43.842   2.696
55537W        W19470  38.328  31.057  14.300
55538W        W19471  15.179  15.598   0.353
55539W        W19472   3.264  27.960  13.918
55540W        W19473  34.415  18.278  14.468
55541W        W19474   4.922   1.751  12.828
55542W        W19475   4.789  41.863   0.410
55543W        W19476  43.455   9.278   3.247
55544W        W19477  13.233  26.164  11.564
55545W        W19478   4.834  12.813  14.793
55546W        W19479   3.422  25.643  14.406
55547W        W19480  27.476  21.027  12.398
55548W        W19481  24.209  17.092  12.363
55549W        W19482  37.365  35.376   2.336
55550W        W19483  35.869  12.720  11.877
55551W        W19484  25.027  34.957   3.383
55552W        W19485  38.076   5.826   4.834
55553W        W19486  22.696  13.309  11.045
55554W        W19487  22.734  40.475  10.498
55555W        W19488  34.068  29.469   3.163
55556W        W19489  21.163  42.312  12.510
55557W        W19490  43.514  41.003   4.207
55558W        W19491  29.084  36.508  13.014
55559W        W19492  24.498   1.264   9.969
55560W        W19493   0.350   8.319  13.049
55561W        W19494  37.936  43.843  13.835
55562W        W19495  36.432  20.262  11.496
55563W        W19496   9.872  28.100  12.386
55564W        W19497  11.256   2.942  14.764
55565W        W19498   3.847  28.579  10.561
55566W        W19499  30.974  25.996  14.845
55567W        W19500   4.360  30.525   0.789
55568W        W19501  18.745   0.950   4.157
55569W        W19502  10.775  24.047   2.780
55570W        W19503  42.913  10.247  10.464
55571W        W19504  36.992   6.338   4.680
55572W        W19505   1.236   8.892   1.745
55573W        W19506  35.570  42.439   3.244
55574W        W19507  29.474   7.181   5.285
55575W        W19508  40.831  10.203  11.393
55576W        W19509  27.605  30.934   0.386
55577W        W19510  25.216  19.547   2.401
55578W        W19511   6.268  22.235   2.861
55579W        W19512  30.108  13.724   1.407
55580W        W19513   6.735  44.979  12.900
55581W        W19514  31.144  14.675   4.689
55582W        W19515  20.714  20.607  13.915
55583W        W19516   8.373  28.437  13.460
55584W        W19517  32.498  19.114   3.323
55585W        W19518  11.224  21.229  13.498
55586W        W19519  35.088   8.716  12.350
55587W        W19520  37.456  18.097  10.635
55588W        W19521  22.159  13.350  14.975
55589W        W19522  39.342  40.930   0.377
55590W        W19523   2.794  20.703   3.758
55591W        W19524  39.354   1.866   3.341
55592W        W19525  17.294  21.676  10.471
55593W        W19526  17.217  44.771   2.326
55594W        W19527  31.453   3.288   0.738
55595W        W19528  35.860   8.753   3.862
55596W        W19529  21.554  22.713   4.754
55597W        W19530  29.487  17.687   3.156
55598W        W19531  33.437  11.815   3.180
55599W        W19532  44.392  21.645  11.094
55600W        W19533  27.181  15.665  11.119
55601W        W19534  36.534   5.285  13.435
55602W        W19535  44.493  14.688   2.398
55603W        W19536  27.599   4.810   3.206
55604W        W19537   6.399  31.957   2.819
55605W        W19538  32.987  16.627  14.849
55606W        W19539  14.831  41.493   0.945
55607W        W19540  30.530   6.846   1.713
55608W        W19541  22.049   4.329  12.969
55609W        W19542  34.005  17.194   2.746
55610W        W19543  23.218  15.123  12.402
55611W        W19544   2.921  42.474  14.488
55612W        W19545  31.054   2.416   1.858
55613W        W19546  19.229  19.571   1.378
55614W        W19547   9.346  30.125   4.167
55615W        W19548  32.532  44.927  12.458
55616W        W19549  15.649   0.906   1.925
55617W        W19550   1.254  27.504   2.808
55618W        W19551  16.648   1.842   0.779
55619W        W19552  34.081   5.915   0.406
55620W        W19553   3.711   9.151  12.899
55621W        W19554  38.041  22.667  12.903
55622W        W19555  42.950  18.243  11.888
55623W        W19556  33.537  35.603   0.253
55624W        W19557  21.173  40.489   4.693
55625W        W19558  21.668   4.281  11.465
55626W        W19559  35.007  11.243  12.491
55627W        W19560   4.863  15.150  13.308
55628W        W19561  20.098  24.009   3.239
55629W        W19562  41.362  38.466  12.505
55630W        W19563  37.004   2.372   2.801
55631W        W19564   5.426  34.054   4.730
55632W        W19565  10.643  35.460   4.680
55633W        W19566  40.905  18.193   3.385
55634W        W19567   2.902  42.516  10.952
55635W        W19568   6.725  13.150  13.961
55636W        W19569  33.496  32.004  11.921
55637W        W19570  13.679  22.250  11.867
55638W        W19571  38.369  33.594  12.443
55639W        W19572  38.939   9.368   4.650
55640W        W19573   9.689  12.120  13.518
55641W        W19574  30.080  14.267   4.645
55642W        W19575  39.005   2.742   1.887
55643W        W19576  14.173   5.228  13.033
55644W        W19577  32.993   9.663   2.736
55645W        W19578  21.683  42.938   2.408
55646W        W19579  25.040   3.861  12.539
55647W        W19580   5.820  27.467   1.848
55648W        W19581   4.797  26.093   5.292
55649W        W19582  35.109  36.898   2.286
55650W        W19583  31.472  12.341  12.520
55651W        W19584  37.398  21.692  14.504
55652W        W19585  25.193   2.826  14.916
55653W        W19586  31.601  13.308   0.906
55654W        W19587   2.291  34.105   1.804
55655W        W19588  19.046  16.796  13.846
55656W        W19589   2.261  32.064  14.855
55657W        W19590  44.444  40.825   4.747
55658W        W19591  16.231  21.606  11.992
55659W        W19592  30.571  20.559  12.391
55660W        W19593   9.779  28.942   1.212
55661W        W19594  15.191  23.671   4.294
55662W        W19595   5.371   2.811  12.852
55663W        W19596  18.284  28.088   1.303
55664W        W19597  40.419  18.720  10.637
55665W        W19598  24.489   1.477  14.457
55666W        W19599  32.508  29.558   1.750
55667W        W19600   3.368   7.891   2.298
55668W        W19601  29.049  22.085   4.126
55669W        W19602   8.242  12.138   2.809
55670W        W19603  24.702  30.551  10.910
55671W        W19604  23.234  43.347   3.707
55672W        W19605  13.820  25.665  11.434
55673W        W19606  13.631   0.939  14.454
55674W        W19607  21.053  23.551   0.280
55675W        W19608  21.082  31.985  14.781
55676W        W19609  27.037   4.264  11.565
55677W        W19610  32.527   7.728  10.920
55678W        W19611   4.302  20.738   4.817
55679W        W19612  18.714   6.753  13.351
55680W        W19613  24.670  42.011  11.513
55681W        W19614  25.168  42.335  11.950
55682W        W19615  27.516  36.907  14.996
55683W        W19616   6.387  38.969   0.850
55684W        W19617  15.708   0.280  12.919
55685W        W19618   4.791   2.896  10.526
55686W        W19619  40.014  42.944  13.525
55687W        W19620  18.105  34.019  12.064
55688W        W19621  11.198  24.673  14.793
55689W        W19622  30.931  30.475  13.432
55690W        W19623  21.150  13.275   0.442
55691W        W19624  18.131  21.546  12.468
55692W        W19625  17.101  25.055  14.437
55693W        W19626  12.711  32.446  11.452
55694W        W19627  34.934  12.253   0.746
55695W        W19628   1.917   5.248  14.861
55696W        W19629  16.316  24.641  11.114
55697W        W19630   2.957  30.994   0.772
55698W        W19631  44.835   4.714  12.826
55699W        W19632   4.313  16.196  13.847
55700W        W19633  34.500  39.959  12.578
55701W        W19634  23.563  36.435   0.374
55702W        W19635  17.635   1.393  10.580
55703W        W19636  26.010  40.469   4.606
55704W        W19637  12.823   6.417   2.735
55705W        W19638  12.628  26.189   1.698
55706W        W19639  26.654  13.632  12.402
55707W        W19640  23.490  19.758  11.988
55708W        W19641  26.998  12.796  14.771
55709W        W19642  44.801  22.581   2.384
55710W        W19643  28.673  24.677   1.427
55711W        W19644  26.588   9.698  12.878
55712W        W19645   2.773  21.131   2.870
55713W        W19646  37.358   6.679   0.950
55714W        W19647  29.164   0.778  12.404
55715W        W19648   6.325   2.271  11.007
55716W        W19649  36.929  32.075  11.875
55717W        W19650  27.633  16.772   1.441
55718W        W19651  43.873  25.597  10.482
55719W        W19652  31.089  41.390   0.321
55720W        W19653  36.925  44.931  10.593
55721W        W19654   1.953  26.071  13.823
55722W        W19655  21.073   0.813  10.435
55723W        W19656  11.788  44.469   3.378
55724W        W19657  13.346  16.180  11.967
55725W        W19658  39.007  28.638  10.568
55726W        W19659  35.906   8.254  14.892
55727W        W19660  26.633   1.434   9.953
55728W        W19661  17.139  39.413  14.463
55729W        W19662  40.323  36.000   3.787
55730W        W19663   9.660  21.133  12.412
55731W        W19664  22.035   8.817  14.358
55732W        W19665  42.984  35.896  13.490
55733W        W19666  28.981  29.960  13.442
55734W        W19667  14.249  39.052   1.895
55735W        W19668  37.966  41.425  13.391
55736W        W19669  38.428  29.939  10.644
55737W        W19670   2.820   8.856   3.629
55738W        W19671  11.287  22.010   0.435
55739W        W19672  31.990  11.835   2.364
55740W        W19673  14.716  34.468  13.969
55741W        W19674   8.375  25.622   0.848
55742W        W19675  23.576  22.239   3.796
55743W        W19676  19.673  44.410  14.440
55744W        W19677  12.136  21.102  11.447
55745W        W19678  13.141  40.524   0.783
55746W        W19679   5.855   7.322   3.738
55747W        W19680   0.750  22.023   3.770
55748W        W19681  15.117  37.847  10.406
55749W        W19682  34.406  30.450   3.266
55750W        W19683  15.785  30.101   4.147
55751W        W19684  15.689  40.933   0.466
55752W        W19685  36.415   5.366  11.883
55753W        W19686  26.096   7.319   2.349
55754W        W19687   3.452   6.738   4.307
55755W        W19688  33.486  42.843  14.486
55756W        W19689  31.645  30.471  10.898
55757W        W19690  20.192   7.677  10.565
55758W        W19691   0.319  12.792   1.418
55759W        W19692  17.278  31.959   3.859
55760W        W19693   9.794  17.091   3.729
55761W        W19694  28.016  26.107  14.863
55762W        W19695  29.525  13.121  14.275
55763W        W19696   2.234  23.239  14.812
55764W        W19697  34.530  23.517   2.810
55765W        W19698  18.780  10.664   1.293
55766W        W19699  41.836  21.229  12.365
55767W        W19700  35.456  27.482   3.224
55768W        W19701  34.521  16.279  14.880
55769W        W19702  44.791  30.648   5.312
55770W        W19703  29.517  41.895  12.033
55771W        W19704  20.542  20.265   2.874
55772W        W19705  28.555   5.337   1.902
55773W        W19706  32.581  30.488   9.989
55774W        W19707  22.057  19.746   0.302
55775W        W19708  35.014  24.096  10.477
55776W        W19709   1.751  44.425   0.268
55777W        W19710  28.172  27.041   1.772
55778W        W19711   8.237  25.002  12.464
55779W        W19712  11.733  24.180  14.995
55780W        W19713  34.932  39.047  12.462
55781W        W19714  28.596   3.225   3.662
55782W        W19715  38.024   4.766  12.860
55783W        W19716  35.908  29.657  14.322
55784W        W19717   3.398   3.817  14.328
55785W        W19718  23.132  10.257  12.397
55786W        W19719  13.837  29.023  11.407
55787W        W19720  44.399  37.348   3.742
55788W        W19721  21.063  23.197  14.026
55789W        W19722  33.579  34.381   0.441
55790W        W19723  19.738  36.578  14.905
55791W        W19724  23.069   1.346   0.458
55792W        W19725  25.626   4.293  14.980
55793W        W19726  44.465  17.634  12.916
55794W        W19727  16.122  19.184  14.415
55795W        W19728   9.712   8.330   1.213
55796W        W19729  18.760  23.072   1.311
55797W        W19730  25.626   8.798   2.851
55798W        W19731  10.375   9.336   0.244
55799W        W19732  22.070  22.551  14.287
55800W        W19733  32.488  13.170   3.377
55801W        W19734   1.916  29.021   0.446
55802W        W19735  30.977  41.479  10.452
55803W        W19736  12.701  38.042   4.613
55804W        W19737  11.210   4.280   0.370
55805W        W19738  11.703  29.483  14.885
55806W        W19739  37.061  11.628  12.056
55807W        W19740  10.175  22.209   2.376
55808W        W19741  40.872  21.229  11.020
55809W        W19742  31.435   7.866  12.912
55810W        W19743  17.660  32.035   1.858
55811W        W19744  29.170  32.391  13.546
55812W        W19745   5.719  29.579  14.964
55813W        W19746   5.772  38.913  14.032
55814W        W19747  14.122  20.548  13.429
55815W        W19748  22.633   5.819  13.997
55816W        W19749  41.826  21.677  13.982
55817W        W19750  20.214   9.377  12.036
55818W        W19751  22.558  34.072  10.572
55819W        W19752  40.919  20.689   4.765
55820W        W19753  44.902  37.953  14.279
55821W        W19754  26.639  43.925   1.393
55822W        W19755  29.662   7.903  13.803
55823W        W19756  30.573  19.719  11.058
55824W        W19757  37.354  33.401  11.081
55825W        W19758  27.086  18.129   3.379
55826W        W19759   0.360   9.225   3.643
55827W        W19760  12.803   9.283   1.725
55828W        W19761   8.191  24.015   2.897
55829W        W19762  33.888  18.117  11.394
55830W        W19763  39.425  18.620  12.953
55831W        W19764  16.756  31.980  14.932
55832W        W19765  35.961  21.158   0.831
55833W        W19766  20.632  34.954  12.362
55834W        W19767  28.140  18.169   0.394
55835W        W19768  33.606  34.057   1.338
55836W        W19769   6.758  24.162   2.693
55837W        W19770  18.736  11.178  11.470
55838W        W19771  38.381  41.340  14.920
55839W        W19772  15.696   5.737  14.798
55840W        W19773  33.541  15.125   2.699
55841W        W19774  44.459  26.971  11.581
55842W        W19775  32.473  25.985   4.264
55843W        W19776  29.018  16.092  13.853
55844W        W19777  32.082   2.273   1.245
55845W        W19778  36.519  30.090   2.723
55846W        W19779  25.576  10.210  14.364
55847W        W19780  37.071  32.604   0.828
55848W        W19781   6.366  24.584   3.819
55849W        W19782  27.654  40.004  10.516
55850W        W19783  17.111   8.270  13.416
55851W        W19784  26.464  11.213   2.697
55852W        W19785  37.023  10.263  11.983
55853W        W19786  42.409  18.667  11.505
55854W        W19787   8.882   5.404  10.083
55855W        W19788  20.614  30.110  12.091
55856W        W19789   6.879  10.176   1.793
55857W        W19790  31.612  43.329  13.518
55858W        W19791  33.485   0.895   2.748
55859W        W19792  25.501  15.781   4.773
55860W        W19793  21.550  12.271  13.440
55861W        W19794  23.095  25.207   3.644
55862W        W19795  24.552  13.732  12.940
55863W        W19796   0.464  11.258   0.351
55864W        W19797  43.824  14.211  11.857
55865W        W19798  32.976  35.359  12.409
55866W        W19799  30.518  25.054   3.693
55867W        W19800  44.952   7.331   5.191
55868W        W19801  10.336  37.504  14.891
55869W        W19802   2.760  37.574   0.330
55870W        W19803  38.874  29.068  11.577
55871W        W19804   9.786  14.799  13.056
55872W        W19805  26.052  44.000  11.435
55873W        W19806  16.090   1.971   4.661
55874W        W19807  41.965   5.205  12.569
55875W        W19808   2.280  33.471  10.596
55876W        W19809   6.220   8.830   1.274
55877W        W19810  24.637  41.013  11.414
55878W        W19811  30.412  29.598  14.900
55879W        W19812  37.069  42.472  13.417
55880W        W19813  22.625  15.693  13.827
55881W        W19814  32.475  27.945  11.910
55882W        W19815  36.371  36.900  13.441
55883W        W19816  28.178  26.456  12.405
55884W        W19817  15.219  34.470   0.757
55885W        W19818  13.617  38.968  10.637
55886W        W19819  37.538  14.267   1.214
55887W        W19820  16.636   9.700   2.231
55888W        W19821  30.111  17.586   1.222
55889W        W19822  43.921  36.495  12.514
55890W        W19823  42.019  42.812   0.323
55891W        W19824  31.594  38.010   2.764
55892W        W19825  38.356  32.019   2.896
55893W        W19826   5.853  15.092   0.785
55894W        W19827  24.482  26.092   2.231
55895W        W19828  14.200  30.104   4.335
55896W        W19829  42.405  11.700   2.392
55897W        W19830   9.186   8.813   3.366
55898W        W19831  29.000  32.898   2.286
55899W        W19832  40.421  15.662  10.475
55900W        W19833   9.310  35.406   2.852
55901W        W19834  18.585  13.769   4.802
55902W        W19835  19.552  13.324  14.980
55903W        W19836  20.221  25.515   9.933
55904W        W19837  10.219  21.537   2.295
55905W        W19838  31.522   9.838  10.460
55906W        W19839   5.193  43.271  14.511
55907W        W19840  16.233  16.137   2.385
55908W        W19841   7.872  44.338   3.870
55909W        W19842  43.849  14.773   4.804
55910W        W19843  24.124  32.595   3.158
55911W        W19844  29.164  35.950   0.269
55912W        W19845  31.025  27.154  14.956
55913W        W19846  22.633  43.395  10.463
55914W        W19847  41.366  25.153  14.475
55915W        W19848  42.393  24.659   4.233
55916W        W19849  39.493   7.872   4.742
55917W        W19850   9.698  16.591   3.805
55918W        W19851  23.156  40.968   3.214
55919W        W19852  41.423  37.446   2.726
55920W        W19853  11.280  24.040  13.857
55921W        W19854  26.625  36.932  11.523
55922W        W19855  36.570  29.086   2.224
55923W        W19856  31.631  17.624  13.808
55924W        W19857  13.648  32.962  13.992
55925W        W19858   6.916  26.168   4.625
55926W        W19859  40.936  35.107  10.611
55927W        W19860  29.660  18.249   3.633
55928W        W19861  31.978  41.416   9.991
55929W        W19862  23.098  16.662   2.335
55930W        W19863   4.928   6.377  13.871
55931W        W19864   4.728   3.425   5.086
55932W        W19865   3.795  37.068   2.756
55933W        W19866   2.796  23.705   3.281
55934W        W19867  43.288  33.019  12.920
55935W        W19868  41.956  29.469   2.179
55936W        W19869   9.759  17.611   0.931
55937W        W19870  33.424  43.914   2.195
55938W        W19871  13.350  29.978   4.228
55939W        W19872  33.130  27.137   4.216
55940W        W19873   3.433   8.353   0.940
55941W        W19874   8.338  28.532   2.724
55942W        W19875   1.788  25.646  14.340
55943W        W19876  25.581  19.544  11.494
55944W        W19877   3.277  32.582   2.763
55945W        W19878  10.183   0.805  13.332
55946W        W19879  32.121   0.330   3.152
55947W        W19880  38.459  26.585   9.984
55948W        W19881  25.055  15.735   2.200
55949W        W19882  29.919  24.543  10.411
55950W        W19883  17.729  42.509   4.707
55951W        W19884  12.704  33.579   2.770
55952W        W19885  10.218  18.223   0.882
55953W        W19886  23.521  10.307   3.172
55954W        W19887  41.851  21.640  13.519
55955W        W19888   5.806  38.379   1.229
55956W        W19889  35.551   7.184  11.371
55957W        W19890  17.116   0.380   0.909
55958W        W19891  38.897  29.098  14.933
55959W        W19892  25.509   4.885   3.780
55960W        W19893  28.092  32.082  14.813
55961W        W19894  33.883  30.018  12.385
55962W        W19895  20.658  21.137  12.915
55963W        W19896  26.194  28.679  12.993
55964W        W19897  12.163  33.126   0.375
55965W        W19898   4.340  31.070   4.681
55966W        W19899  37.536   6.743   3.294
55967W        W19900   8.267  20.749   1.394
55968W        W19901   5.423   7.853   0.876
55969W        W19902  35.852  15.760   4.771
55970W        W19903  37.411  10.198   4.680
55971W        W19904  40.035  17.227   2.380
55972W        W19905  36.355   6.729   2.211
55973W        W19906  29.481   4.332  11.113
55974W        W19907  29.517  14.303  12.402
55975W        W19908  34.440  19.746   2.219
55976W        W19909  35.375  16.139  10.907
55977W        W19910  20.058  23.019  13.396
55978W        W19911  26.956  18.782  14.019
55979W        W19912  37.865   4.699   3.331
55980W        W19913  26.083  35.976  11.858
55981W        W19914  31.024   0.757   3.340
55982W        W19915   1.937  15.117   1.417
55983W        W19916  21.195   3.719   4.271
55984W        W19917  22.659  42.928  13.830
55985W        W19918  21.162  12.748   3.807
55986W        W19919   8.891  16.777   4.704
55987W        W19920  17.234  30.469   1.758
55988W        W19921  36.478   4.377  14.449
55989W        W19922   9.890  21.599  11.008
55990W        W19923  10.194  40.410   2.864
55991W        W19924  42.805   8.285   4.282
55992W        W19925  27.963  16.312   2.346
55993W        W19926  43.953  43.898  10.461
55994W        W19927  35.431  21.092  11.052
55995W        W19928   4.240  30.082   1.846
55996W        W19929  40.999  26.133  11.534
55997W        W19930  37.427  18.277   2.775
55998W        W19931  32.092  17.688  13.883
55999W        W19932  19.247  34.899  11.033
56000W        W19933  23.138  19.545  12.857
56001W        W19934  24.585  35.604   3.343
56002W        W19935  42.409  43.827  10.438
56003W        W19936  27.148   6.222  10.906
56004W        W19937   1.971  40.544   2.853
56005W        W19938  20.222  42.412   0.416
56006W        W19939   5.200  18.148   2.783
56007W        W19940  20.740  11.645  14.307
56008W        W19941  38.934   1.954  12.829
56009W        W19942  41.854  13.620  12.867
56010W        W19943  39.962  27.592   4.700
56011W        W19944  18.606  14.140  10.434
56012W        W19945  38.921  44.260  12.990
56013W        W19946   5.284   9.655   2.776
56014W        W19947   1.406  39.498  13.939
56015W        W19948   6.802  35.054   4.761
56016W        W19949   0.404   4.943  12.545
56017W        W19950   2.422  32.104  10.141
56018W        W19951  40.826  43.861  13.062
56019W        W19952  40.805  33.601   0.372
56020W        W19953  33.446  13.286  12.057
56021W        W19954  28.023  14.098   4.131
56022W        W19955  44.487  39.906  10.953
56023W        W19956  12.333  24.674  11.501
56024W        W19957  35.953  39.062  12.459
56025W        W19958  31.073   6.365  11.939
56026W        W19959  40.511   9.264   0.333
56027W        W19960  19.084  30.501  13.358
56028W        W19961  28.093  30.649  12.907
56029W        W19962  30.051  19.562   3.646
56030W        W19963   6.365  10.348   5.204
56031W        W19964  22.129   3.360   2.668
56032W        W19965  20.653   3.772  11.500
56033W        W19966  20.567   1.247  14.487
56034W        W19967   0.902   5.701  10.963
56035W        W19968  39.543  22.720  12.915
56036W        W19969  17.195  22.117  11.122
56037W        W19970  38.387  15.244  11.489
56038W        W19971  30.969  29.521  13.483
56039W        W19972  22.658  12.296  12.917
56040W        W19973  15.323  32.486   0.414
56041W        W19974  42.858  15.726   5.081
56042W        W19975  17.561  31.460   4.836
56043W        W19976  14.095  30.952   2.758
56044W        W19977  33.621  28.011  14.950
56045W        W19978  24.683  16.575   4.679
56046W        W19979  30.003   3.724  11.584
56047W        W19980  15.722  26.683   2.744
56048W        W19981   0.829   5.763   4.190
56049W        W19982  11.727   2.381  12.563
56050W        W19983  16.773  10.743  10.419
56051W        W19984   1.353  12.325  10.419
56052W        W19985   5.397  29.455  13.981
56053W        W19986  25.513   1.854  14.806
56054W        W19987  10.236  12.758  14.929
56055W        W19988  44.275  33.022  13.035
56056W        W19989  32.063  30.953   2.411
56057W        W19990  30.110  19.587   2.836
56058W        W19991   2.228  18.108  12.902
56059W        W19992   6.341  38.546  13.514
56060W        W19993  10.371  37.892  11.589
56061W        W19994  29.962  27.527   4.634
56062W        W19995  18.210  20.693  12.462
56063W        W19996   4.863  22.564   0.887
56064W        W19997  15.131  18.603  14.303
56065W        W19998  29.126  20.234   3.727
56066W        W19999  44.958  27.105   1.844
56067W        W20000   8.723  16.302  11.474
56068W        W20001  15.156  42.332   0.441
56069W        W20002  32.106  28.129  14.801
56070W        W20003  18.093   8.803   3.249
56071W        W20004   1.816  14.281   0.407
56072W        W20005  21.592  15.135   1.442
56073W        W20006  34.890  19.215  14.827
56074W        W20007  15.679  44.901   1.755
56075W        W20008  34.614   2.723   4.611
56076W        W20009   4.750  36.547   1.881
56077W        W20010  16.614   9.687  12.441
56078W        W20011  34.019  19.560   1.873
56079W        W20012  41.912  36.015   4.250
56080W        W20013  12.334  18.077  10.557
56081W        W20014  10.168  35.882  11.553
56082W        W20015  21.577   3.760  11.912
56083W        W20016  23.650  28.578  12.834
56084W        W20017   6.379   5.721   1.264
56085W        W20018  16.084  32.087  12.891
56086W        W20019   9.806  13.802  10.584
56087W        W20020   3.774  13.604  12.991
56088W        W20021  35.464   3.846  14.790
56089W        W20022   4.212  15.730   3.348
56090W        W20023  21.657   1.476   3.648
56091W        W20024  27.633  44.956   3.208
56092W        W20025  42.884  26.189  14.863
56093W        W20026  10.162  39.011   2.832
56094W        W20027   4.253  24.069   3.676
56095W        W20028   4.887  25.609  12.962
56096W        W20029  13.254  33.062  11.561
56097W        W20030  12.617  42.915  13.021
56098W        W20031  28.475   7.896  10.984
56099W        W20032  38.863  28.502  12.853
56100W        W20033  42.964  39.811  12.340
56101W        W20034   4.411  13.225  12.356
56102W        W20035  23.730  19.106   0.479
56103W        W20036   7.361  18.785  10.569
56104W        W20037  33.938  15.306   1.892
56105W        W20038  32.532  30.592   2.688
56106W        W20039  37.944  43.363   1.891
56107W        W20040  41.886  41.887  10.529
56108W        W20041   6.349  42.962  10.948
56109W        W20042   9.807  36.874  12.926
56110W        W20043  13.829  19.146  14.806
56111W        W20044  11.327  19.599   3.320
56112W        W20045  11.365   0.401   1.851
56113W        W20046  40.849  36.494   2.687
56114W        W20047  15.673  11.800   0.938
56115W        W20048  18.622  26.177   5.162
56116W        W20049   8.403  36.905  14.487
56117W        W20050  36.507  18.614   4.349
56118W        W20051  33.433   5.879   5.233
56119W        W20052  18.788  26.092   5.639
56120W        W20053  36.435  13.138  14.810
56121W        W20054  12.760  16.655  13.445
56122W        W20055  35.048  25.617   0.928
56123W        W20056  12.245   2.392  13.423
56124W        W20057  19.746  28.946   5.722
56125W        W20058   4.791  28.059   5.239
56126W        W20059   1.437  18.620  14.353
56127W        W20060  26.970  41.833   0.463
56128W        W20061  16.239  32.523   2.301
56129W        W20062  36.082  28.601  12.462
56130W        W20063   1.909  30.919  13.974
56131W        W20064  36.487   3.431  13.408
56132W        W20065  31.918  24.224  13.849
56133W        W20066   1.377  39.366  10.538
56134W        W20067  13.830  22.198  14.419
56135W        W20068  36.892  19.078  13.319
56136W        W20069  26.573  37.007   2.332
56137W        W20070  20.261   9.801  10.937
56138W        W20071  21.052  19.273  11.995
56139W        W20072  39.010   0.900  13.389
56140W        W20073  37.356  43.361   3.829
56141W        W20074  10.844  11.197   4.597
56142W        W20075  26.979  40.868  11.977
56143W        W20076  19.739   9.233   2.879
56144W        W20077  41.401  12.674   2.406
56145W        W20078  24.587  40.023  13.443
56146W        W20079  25.688  33.904  11.980
56147W        W20080  22.065  28.492   2.821
56148W        W20081  30.990  34.493  14.374
56149W        W20082  24.617  26.491   5.213
56150W        W20083  22.649  12.280   0.461
56151W        W20084  24.128   9.686   9.965
56152W        W20085  24.183   7.171  11.877
56153W        W20086  20.195   3.730  10.545
56154W        W20087  43.789  16.095  13.316
56155W        W20088  10.347   0.842  10.982
56156W        W20089  21.666  37.990  12.532
56157W        W20090  34.091   4.288   1.878
56158W        W20091  19.163   3.446  10.584
56159W        W20092  38.404  21.597  13.988
56160W        W20093   1.361  28.939   0.815
56161W        W20094  43.856   7.854  14.859
56162W        W20095  16.235  23.019  13.508
56163W        W20096  28.673  27.617   3.669
56164W        W20097  28.155  11.182  10.997
56165W        W20098   4.929   8.898   3.285
56166W        W20099  41.469  12.754  12.554
56167W        W20100  16.588  28.109   3.332
56168W        W20101  17.649   4.364  14.351
56169W        W20102  14.615  28.546   3.192
56170W        W20103  38.852  21.604  10.541
56171W        W20104  25.584  40.466   2.416
56172W        W20105  24.574  19.166   1.294
56173W        W20106  19.070  17.699   0.295
56174W        W20107  17.123  16.238   3.321
56175W        W20108  29.005  12.220  10.451
56176W        W20109  21.661  23.632  14.414
56177W        W20110  28.076   5.376   1.746
56178W        W20111  42.496  34.400   4.775
56179W        W20112  16.196  38.523   3.665
56180W        W20113  41.885  35.430  10.028
56181W        W20114  37.548  28.021   1.381
56182W        W20115  12.675  22.134  14.893
56183W        W20116   6.847  32.002  14.999
56184W        W20117   4.808  23.236  14.903
56185W        W20118  33.877  27.139   3.299
56186W        W20119  36.090  22.572   3.280
56187W        W20120  34.095   8.273  14.499
56188W        W20121   7.769  33.432   0.937
56189W        W20122  39.038  44.261   5.258
56190W        W20123  14.165  10.290   0.347
56191W        W20124  42.412  44.447   3.357
56192W        W20125  24.099   9.762  12.345
56193W        W20126  36.879   8.843   3.797
56194W        W20127   5.366   0.857   2.859
56195W        W20128  14.106   0.899  10.424
56196W        W20129  25.092  22.505  11.584
56197W        W20130  40.825  31.133  13.443
56198W        W20131  36.850   1.947   1.291
56199W        W20132  36.387  17.590  10.909
56200W        W20133  30.053  22.628   4.261
56201W        W20134  38.496  31.132   3.841
56202W        W20135  42.939  16.274  12.956
56203W        W20136  31.976  31.608  14.770
56204W        W20137  37.571  43.345  14.313
56205W        W20138  10.319  44.826   4.322
56206W        W20139  40.499  43.926   1.935
56207W        W20140  38.565  23.165  10.978
56208W        W20141  29.005  11.232   2.358
56209W        W20142   3.753  12.679   4.160
56210W        W20143  42.785   1.437   0.753
56211W        W20144  37.468  13.230   1.735
56212W        W20145  36.068   1.806   3.244
56213W        W20146  14.211   8.753   0.429
56214W        W20147  38.839  18.174   4.627
56215W        W20148  22.517  27.673   1.831
56216W        W20149  41.889   0.355   3.337
56217W        W20150   1.333  13.131  13.974
56218W        W20151   1.916  37.409  12.908
56219W        W20152  35.962  11.840  13.334
56220W        W20153   8.237  10.841   4.694
56221W        W20154  12.834  41.321  12.342
56222W        W20155  25.983  19.626  13.524
56223W        W20156  31.150  10.831   0.329
56224W        W20157  37.897  17.742   3.276
56225W        W20158  10.373  36.396   0.421
56226W        W20159   0.913  21.040  13.990
56227W        W20160  30.628  10.248   2.893
56228W        W20161  32.396  14.669   1.317
56229W        W20162   6.310  22.552  14.320
56230W        W20163  23.106  43.431   4.131
56231W        W20164  27.561  42.324   0.832
56232W        W20165  18.706   4.400   0.349
56233W        W20166  12.264   5.736  13.028
56234W        W20167  27.502  12.143   2.790
56235W        W20168  26.137   6.775  13.470
56236W        W20169  17.080  39.920   4.813
56237W        W20170  24.129  31.058   1.317
56238W        W20171   4.257   0.967   0.401
56239W        W20172  44.924  22.660  12.927
56240W        W20173  40.053  15.704   0.820
56241W        W20174  27.538  34.595  14.316
56242W        W20175  19.176  24.217  14.435
56243W        W20176  43.389  32.536  13.312
56244W        W20177  35.068   3.302   1.309
56245W        W20178   1.896   1.339  12.445
56246W        W20179  24.670   1.299  12.954
56247W        W20180  32.999  12.354  10.892
56248W        W20181   3.362  27.448  13.485
56249W        W20182  18.051  28.525   3.374
56250W        W20183  15.583   9.670  11.436
56251W        W20184  29.622  24.707   3.739
56252W        W20185  19.679  44.791  13.504
56253W        W20186  37.010  32.035  13.833
56254W        W20187  29.456  19.698   4.748
56255W        W20188  44.782  10.766   3.340
56256W        W20189  24.023  36.984   2.281
56257W        W20190  38.392  17.768   3.374
56258W        W20191  41.532  25.476  10.631
56259W        W20192  18.629  28.185  14.462
56260W        W20193  43.911  27.187  11.385
56261W        W20194  22.103   6.408   1.705
56262W        W20195  14.221  37.521   5.233
56263W        W20196  12.293   5.314   2.817
56264W        W20197  32.482   4.257   0.835
56265W        W20198   2.776  18.069   4.192
56266W        W20199  28.654   8.739  14.801
56267W        W20200  43.360  43.448   0.414
56268W        W20201  26.592  35.040  13.025
56269W        W20202  36.433   6.389  11.410
56270W        W20203  24.206  34.572   2.292
56271W        W20204  22.114  17.744  13.840
56272W        W20205   5.394  14.152   4.335
56273W        W20206  23.228   8.197   2.807
56274W        W20207  44.837  29.959  14.935
56275W        W20208  39.378  30.094  12.836
56276W        W20209  43.422  12.133  10.903
56277W        W20210  22.632  21.691  12.354
56278W        W20211  44.312  41.443  14.323
56279W        W20212  42.962  18.293   2.896
56280W        W20213  17.672  23.040  13.544
56281W        W20214  20.262   3.907   1.360
56282W        W20215   8.821   2.357   0.837
56283W        W20216  15.144   5.693  13.870
56284W        W20217  40.986  33.978   2.274
56285W        W20218  36.373  37.534  13.007
56286W        W20219  11.350  30.924   1.415
56287W        W20220  13.719  29.115   3.201
56288W        W20221  12.762  31.003   4.642
56289W        W20222  39.001  13.328   0.947
56290W        W20223   0.266  30.430  14.503
56291W        W20224  16.566  28.524  13.868
56292W        W20225   1.368  16.121  12.865
56293W        W20226  22.627  13.729  11.063
56294W        W20227  17.165  44.888   3.631
56295W        W20228  32.614  42.876   3.372
56296W        W20229   0.917  36.470  10.500
56297W        W20230  41.515   0.909   3.167
56298W        W20231  39.856  36.925   3.649
56299W        W20232  15.682   1.793  13.508
56300W        W20233  35.456   7.815   3.852
56301W        W20234  43.870  35.854   3.266
56302W        W20235   0.268  28.571  12.937
56303W        W20236  29.096  39.468   1.847
56304W        W20237  25.152  42.335   0.935
56305W        W20238   2.781   0.369   1.219
56306W        W20239  33.510  41.901   1.376
56307W        W20240  26.578  25.596   4.159
56308W        W20241  19.709  21.019  10.934
56309W        W20242   7.415   7.383   0.728
56310W        W20243   8.355  10.246  13.481
56311W        W20244   6.854  31.434  14.760
56312W        W20245   3.445  25.622   1.368
56313W        W20246  25.993  29.454  12.408
56314W        W20247  16.755   0.452  14.342
56315W        W20248  28.458   4.361  11.916
56316W        W20249  31.934  39.482   2.881
56317W        W20250  26.045  12.218   3.324
56318W        W20251   9.216   3.277  11.400
56319W        W20252  19.711   4.737  10.410
56320W        W20253   4.940   2.938   1.764
56321W        W20254   5.315  25.474  14.359
56322W        W20255  37.484  11.333  14.488
56323W        W20256  13.840  23.085   3.861
56324W        W20257   5.406   1.744  14.772
56325W        W20258  14.714  31.153  11.511
56326W        W20259  39.915   1.269   2.261
56327W        W20260   8.829   3.317   0.908
56328W        W20261   4.787  33.507   2.260
56329W        W20262  39.880  27.972  11.373
56330W        W20263  31.601  20.653  10.941
56331W        W20264  14.105   3.266  14.416
56332W        W20265  32.497  29.986  10.592
56333W        W20266  30.996   8.821  12.957
56334W        W20267  32.622   5.714   4.733
56335W        W20268  14.219  36.066  11.497
56336W        W20269  42.445  35.390  11.416
56337W        W20270  40.330  33.028  12.356
56338W        W20271   0.901  12.617   3.776
56339W        W20272  42.822  41.940  11.964
56340W        W20273  20.548  33.516  14.965
56341W        W20274   6.806  37.535   2.706
56342W        W20275  30.132  22.049  13.398
56343W        W20276   4.857   8.238  14.456
56344W        W20277  17.274  15.748  10.407
56345W        W20278  26.125  39.429  10.520
56346W        W20279   5.797  30.452   4.121
56347W        W20280  19.126   8.191   3.317
56348W        W20281  18.790  41.814  14.959
56349W        W20282  37.557  34.495   3.649
56350W        W20283   6.337  23.570   1.757
56351W        W20284  20.569  38.548  10.535
56352W        W20285  32.917  16.799   0.415
56353W        W20286  43.418  35.507   5.686
56354W        W20287  36.054  36.854   2.301
56355W        W20288   7.851   2.359  10.977
56356W        W20289  39.031   9.326   0.734
56357W        W20290  28.580  40.014  11.457
56358W        W20291   4.779  40.401  12.474
56359W        W20292  37.085  23.058  10.500
56360W        W20293  30.520  22.046   4.330
56361W        W20294   6.769  21.710  14.837
56362W        W20295  36.954  34.047   4.729
56363W        W20296  35.098  21.103   1.794
56364W        W20297  42.878  20.045   1.794
56365W        W20298  34.599  35.499   3.793
56366W        W20299   4.715  42.401   3.350
56367W        W20300  29.003  35.105  11.378
56368W        W20301  19.260  12.348  10.903
56369W        W20302  12.693  38.522  11.528
56370W        W20303  22.137  14.144   1.791
56371W        W20304  12.852  11.181   0.416
56372W        W20305   9.362  14.673  12.366
56373W        W20306  24.191  10.147   0.410
56374W        W20307   1.252  44.010  10.643
56375W        W20308  26.702   4.380   0.759
56376W        W20309  13.236  35.581  11.129
56377W        W20310   8.244   1.263   4.206
56378W        W20311   8.169  17.288   1.303
56379W        W20312  38.038   4.928   0.890
56380W        W20313   0.791  26.109   2.370
56381W        W20314  21.517  36.986   2.800
56382W        W20315   4.750   0.785  13.801
56383W        W20316  11.819  37.893  12.446
56384W        W20317  18.195  12.696  10.615
56385W        W20318  20.674  41.819   0.391
56386W        W20319  36.023  37.410   4.140
56387W        W20320  28.459  42.930  12.372
56388W        W20321  20.198  36.026  12.931
56389W        W20322  10.824  11.191  11.452
56390W        W20323  34.459  37.053  14.914
56391W        W20324  39.500  14.778  10.532
56392W        W20325   1.261   5.244  14.316
56393W        W20326  40.435  42.481   2.381
56394W        W20327  43.503   7.844  13.345
56395W        W20328   3.354  31.499   1.895
56396W        W20329  21.613  30.573   5.281
56397W        W20330   9.382  19.048  10.903
56398W        W20331  39.373  43.808  12.863
56399W        W20332  15.667  21.189   5.286
56400W        W20333   1.778   3.378  14.276
56401W        W20334  34.009   0.866   3.271
56402W        W20335  15.305   9.697   4.123
56403W        W20336  22.592  29.609  14.439
56404W        W20337  24.583  40.846   3.318
56405W        W20338  14.808  44.893   2.673
56406W        W20339  37.067   2.331  13.343
56407W        W20340  34.602   1.341   3.360
56408W        W20341  18.276  38.448  11.501
56409W        W20342   2.271  32.526  10.615
56410W        W20343  42.935  24.657   1.227
56411W        W20344  11.694  38.858   1.746
56412W        W20345  42.986  34.028   1.752
56413W        W20346  33.046  32.988  13.019
56414W        W20347  12.684   6.755   1.304
56415W        W20348   1.381  17.255   3.252
56416W        W20349   6.227  18.554   3.263
56417W        W20350  36.063  28.180   3.262
56418W        W20351  28.569  23.728   2.242
56419W        W20352  40.840  13.239   4.647
56420W        W20353   6.266   0.308  12.490
56421W        W20354  39.440  21.528   3.767
56422W        W20355  14.178  33.919   3.331
56423W        W20356  23.167   2.813  11.544
56424W        W20357  10.838  32.630  13.327
56425W        W20358  22.537  20.650  13.952
56426W        W20359  11.761   1.259  11.550
56427W        W20360  28.583  11.746   3.650
56428W        W20361   1.893  28.586   3.379
56429W        W20362  40.936  22.631   0.480
56430W        W20363   9.676   7.882   3.352
56431W        W20364  39.410   2.894  13.059
56432W        W20365   4.308   4.920  11.111
56433W        W20366  30.509  44.496  11.124
56434W        W20367  27.121  14.233  13.315
56435W        W20368  33.597  39.530  14.514
56436W        W20369  21.257  26.686   3.385
56437W        W20370  16.192  21.132   3.865
56438W        W20371   3.927   9.246   4.232
56439W        W20372  12.309  27.152   2.720
56440W        W20373  14.747   2.888   4.135
56441W        W20374  11.249   8.405  13.500
56442W        W20375   3.780   2.437  13.353
56443W        W20376  15.671  15.806  12.843
56444W        W20377   0.872   6.220  11.428
56445W        W20378  25.613  24.068  11.436
56446W        W20379  12.688  22.557   2.841
56447W        W20380  32.062  18.620   1.273
56448W        W20381   3.912  44.800  12.556
56449W        W20382  42.321  31.469  11.001
56450W        W20383  31.491  32.021  14.844
56451W        W20384   4.900  12.300   2.196
56452W        W20385  22.085  22.206  13.981
56453W        W20386  22.115  32.449   3.235
56454W        W20387  43.384  43.843   2.791
56455W        W20388  34.892  10.817   1.273
56456W        W20389  44.855  41.421   2.265
56457W        W20390  27.065  31.982   4.266
56458W        W20391  42.784  15.286   3.341
56459W        W20392  31.981  25.049  13.978
56460W        W20393  38.060  39.521   1.424
56461W        W20394  41.839  34.559   4.280
56462W        W20395  37.364  36.842  11.078
56463W        W20396   1.786  37.008   0.324
56464W        W20397  14.639  39.452   3.780
56465W        W20398  24.170  35.368   1.718
56466W        W20399  10.720  30.012   3.280
56467W        W20400  26.193   4.212  10.904
56468W        W20401  30.098  44.878   4.335
56469W        W20402  41.926   3.417  14.000
56470W        W20403  41.423  42.508   3.328
56471W        W20404  43.014   5.344   0.960
56472W        W20405  15.805  30.978   3.381
56473W        W20406  38.422  20.613   3.154
56474W        W20407  22.706  28.590   4.699
56475W        W20408  19.240  16.805   3.185
56476W        W20409  13.263  22.017   2.775
56477W        W20410  33.596   0.936   2.347
56478W        W20411  14.830  12.264  13.411
56479W        W20412   1.850  16.258  12.993
56480W        W20413  15.636  38.352  11.537
56481W        W20414   1.761  21.069   4.784
56482W        W20415  31.965  42.302   0.965
56483W        W20416  31.944  28.988   4.126
56484W        W20417  17.163  39.480  13.391
56485W        W20418  42.409  44.348   2.377
56486W        W20419   4.899  43.895   1.716
56487W        W20420  36.574  38.461  11.432
56488W        W20421  21.633  33.921  10.629
56489W        W20422  20.760  23.165   3.854
56490W        W20423   9.236   9.308  12.976
56491W        W20424  40.909  35.449  10.091
56492W        W20425  17.068   4.885  10.439
56493W        W20426  21.224  41.980   4.747
56494W        W20427   1.372  35.054   4.790
56495W        W20428  19.566  39.909  14.815
56496W        W20429   9.368  40.827  14.887
56497W        W20430  29.022  39.367  10.404
56498W        W20431  31.093  36.433  14.298
56499W        W20432  11.756   5.696  14.865
56500W        W20433  20.708  18.292   5.210
56501W        W20434  27.525   1.862   9.670
56502W        W20435   3.850  32.047  10.951
56503W        W20436  12.302   7.750   5.113
56504W        W20437  36.409  21.098   0.834
56505W        W20438  39.997   4.263  10.519
56506W        W20439  32.551  42.350   1.931
56507W        W20440  38.038  21.134  10.474
56508W        W20441  44.298  43.915  13.337
56509W        W20442  16.092  10.709   0.402
56510W        W20443  32.936  43.769  12.035
56511W        W20444  20.055  24.128  12.435
56512W        W20445   2.911  42.466  11.924
56513W        W20446  20.092  23.024   2.399
56514W        W20447  42.008  34.938   0.313
56515W        W20448  33.087  19.051   0.762
56516W        W20449   6.724  12.219  14.303
56517W        W20450  17.232  29.444  10.559
56518W        W20451  35.408   7.174   0.909
56519W        W20452  31.432  41.815  14.406
56520W        W20453  39.937   0.862  13.936
56521W        W20454  40.823  40.842   1.868
56522W        W20455  16.665  15.145   2.850
56523W        W20456  23.635  31.944  14.897
56524W        W20457   8.734   3.457   3.856
56525W        W20458  34.399  39.921   0.947
56526W        W20459  29.583  40.321   2.861
56527W        W20460  36.955  26.679  11.005
56528W        W20461  16.285   0.284  14.413
56529W        W20462  29.077  22.614   1.374
56530W        W20463   2.228  42.807   0.468
56531W        W20464  43.436  32.980  13.998
56532W        W20465  38.420  25.588   0.315
56533W        W20466   8.383   6.278   2.879
56534W        W20467  22.163  42.332   3.328
56535W        W20468  40.318  34.411  14.958
56536W        W20469  37.042  25.168   0.349
56537W        W20470  22.203  24.666   1.267
56538W        W20471  29.138  43.767  14.432
56539W        W20472  34.400  31.129   0.955
56540W        W20473  38.013  26.506  13.995
56541W        W20474  40.338   4.249   3.301
56542W        W20475  15.758  44.284   3.749
56543W        W20476   0.874  12.790   4.246
56544W        W20477  13.744  14.127   4.687
56545W        W20478  22.196  43.773  10.453
56546W        W20479  42.982  10.745   2.819
56547W        W20480  18.735   2.321  11.106
56548W        W20481  38.384   0.976   1.858
56549W        W20482   1.443  15.758  13.834
56550W        W20483  28.599  19.651  10.480
56551W        W20484   1.378  32.436  14.381
56552W        W20485  16.635  34.567  10.935
56553W        W20486  10.845  37.523   1.373
56554W        W20487  27.127   2.330  12.394
56555W        W20488  11.622  38.886   0.439
56556W        W20489  33.396  31.118   3.227
56557W        W20490  30.491   4.701  14.782
56558W        W20491  15.746  23.665  11.519
56559W        W20492  18.642  15.683  11.989
56560W        W20493   7.764   7.718  10.893
56561W        W20494  43.371   4.861   3.763
56562W        W20495  43.996  21.683   3.862
56563W        W20496   4.704  39.056   4.187
56564W        W20497  22.529  38.547   0.347
56565W        W20498  40.484  17.643  13.910
56566W        W20499   0.841  32.971   1.737
56567W        W20500  14.616  32.070   4.138
56568W        W20501  15.194  20.232   4.275
56569W        W20502  36.504   9.675  11.539
56570W        W20503  16.628   4.765   9.937
56571W        W20504  14.257   4.799   0.913
56572W        W20505   5.208  35.592  14.850
56573W        W20506  43.337  18.640  11.528
56574W        W20507  24.642  35.083   0.808
56575W        W20508  33.968  36.906   0.381
56576W        W20509  19.721  44.997   0.464
56577W        W20510  24.651  10.202   1.302
56578W        W20511  38.954  22.745   3.849
56579W        W20512  31.900   5.202  13.406
56580W        W20513  20.523  26.051  11.120
56581W        W20514  12.155  11.676  12.055
56582W        W20515   1.850  44.822   1.353
56583W        W20516  15.284   8.810   4.246
56584W        W20517   1.779  10.671  11.094
56585W        W20518  34.989  33.579   1.386
56586W        W20519  10.218  35.997   9.950
56587W        W20520  44.907  17.064  11.612
56588W        W20521  23.512  21.252  14.822
56589W        W20522  18.745  11.330  14.896
56590W        W20523   2.891  36.877  12.041
56591W        W20524  27.455  37.473  11.612
56592W        W20525  44.473   8.659  12.853
56593W        W20526   9.689  42.021   0.292
56594W        W20527  23.128   1.833  10.894
56595W        W20528  35.086  38.885  10.416
56596W        W20529  27.947  33.526  12.937
56597W        W20530   4.439  19.727  14.764
56598W        W20531   5.853  18.280   1.226
56599W        W20532  22.008  41.916   1.914
56600W        W20533   5.860   7.769   4.288
56601W        W20534  39.502   0.783   2.386
56602W        W20535  17.264  10.208   4.331
56603W        W20536  29.103  28.478  10.645
56604W        W20537  40.419   8.686  10.025
56605W        W20538  44.833  29.036   0.761
56606W        W20539  25.643  30.568  10.574
56607W        W20540  35.416   9.737  10.582
56608W        W20541   8.387  11.343  13.412
56609W        W20542  13.729  41.831   3.712
56610W        W20543  15.599  40.942   1.234
56611W        W20544  34.411   0.276   0.321
56612W        W20545  24.583  33.521   2.799
56613W        W20546  40.455  26.623  11.386
56614W        W20547  31.975  40.856  11.373
56615W        W20548  19.548   0.749  11.449
56616W        W20549  18.670  33.071  14.409
56617W        W20550  43.371  18.760  14.352
56618W        W20551   3.361  25.201   3.782
56619W        W20552  40.833   5.808  12.564
56620W        W20553  36.526  35.474  12.947
56621W        W20554  15.737  14.254  10.510
56622W        W20555  17.738  20.153   4.762
56623W        W20556  42.900   4.728  14.292
56624W        W20557  43.006  43.002   2.288
56625W        W20558  22.524  42.287  11.575
56626W        W20559  20.579   1.285   4.179
56627W        W20560   3.804  30.031   0.300
56628W        W20561  15.312  21.126  13.387
56629W        W20562  19.106  34.106  13.988
56630W        W20563   9.327   0.449  14.934
56631W        W20564  16.788   0.426  11.481
56632W        W20565  43.271  11.257  11.428
56633W        W20566   8.752  36.503   5.135
56634W        W20567   9.236  32.112   0.388
56635W        W20568  39.357  12.353  13.485
56636W        W20569  17.733   8.369   0.363
56637W        W20570   5.357  43.832   0.484
56638W        W20571  17.111  14.609   2.235
56639W        W20572  28.936  38.065  11.966
56640W        W20573   0.253   6.680  10.629
56641W        W20574  22.667  44.921   3.683
56642W        W20575   9.210   7.691  13.935
56643W        W20576  20.139  26.182  10.410
56644W        W20577   6.231  40.511   0.311
56645W        W20578  22.519  13.676   2.336
56646W        W20579  38.509  22.625  11.601
56647W        W20580  36.024  35.927   0.923
56648W        W20581  22.615   8.280   3.271
56649W        W20582  19.728  24.215   1.832
56650W        W20583  22.720  29.091   9.944
56651W        W20584  22.085   2.780  11.860
56652W        W20585  12.149   5.366  14.781
56653W        W20586  19.076   4.246   0.769
56654W        W20587  36.844  36.571  13.446
56655W        W20588  44.282  26.465  10.645
56656W        W20589   8.829  34.022  10.568
56657W        W20590   0.942  20.565  12.570
56658W        W20591  24.220  44.424   0.884
56659W        W20592  29.481  25.135   0.270
56660W        W20593  19.283  34.389   1.365
56661W        W20594  10.778  24.619  12.967
56662W        W20595  25.994   1.786  10.638
56663W        W20596   0.887  36.391  11.399
56664W        W20597  31.010  30.161   4.287
56665W        W20598  13.670  33.407  12.837
56666W        W20599   6.714  40.436   2.694
56667W        W20600  33.921  18.618  11.050
56668W        W20601  24.698  25.193   3.836
56669W        W20602  39.018   9.264   1.697
56670W        W20603  41.972   9.342   3.834
56671W        W20604   8.889  11.702   3.226
56672W        W20605  20.062  28.476  14.425
56673W        W20606  26.553  13.208   4.795
56674W        W20607  26.148  33.558  12.510
56675W        W20608   2.456  15.612  12.021
56676W        W20609   5.860   0.830  14.477
56677W        W20610   6.854   0.750   4.236
56678W        W20611  36.546  18.661   1.218
56679W        W20612  30.050  41.965   3.273
56680W        W20613   2.312  13.827   3.180
56681W        W20614  37.058  20.533   1.436
56682W        W20615  15.767  10.378   0.462
56683W        W20616  16.115  11.152  11.555
56684W        W20617   4.321   1.922  10.428
56685W        W20618  13.212  13.751  12.509
56686W        W20619  13.286  30.466   2.759
56687W        W20620   0.892  32.577   4.199
56688W        W20621  36.353   3.230  10.410
56689W        W20622  42.860  29.963   2.380
56690W        W20623   5.193  38.075   3.304
56691W        W20624  37.395  40.365  12.941
56692W        W20625  24.706   1.313   3.848
56693W        W20626  39.837  40.326   3.215
56694W        W20627   8.788   5.815  13.501
56695W        W20628  13.184  10.673   3.832
56696W        W20629  29.452  14.734   0.953
56697W        W20630   9.719   1.821  12.070
56698W        W20631  42.997  29.586   0.790
56699W        W20632   5.748   1.271   4.140
56700W        W20633  44.977  29.954   2.841
56701W        W20634  34.934  22.562   5.224
56702W        W20635  29.926  41.367   0.852
56703W        W20636  25.091   8.829   4.663
56704W        W20637  27.481  14.795   2.277
56705W        W20638  42.368  11.201  11.579
56706W        W20639  21.697   2.837  14.845
56707W        W20640   7.289   1.326  11.089
56708W        W20641  27.560  34.962   0.795
56709W        W20642  16.221  27.178  11.905
56710W        W20643  28.157  28.012  13.930
56711W        W20644  34.389  10.721  13.905
56712W        W20645  30.466  11.724   3.857
56713W        W20646  24.657  33.105   1.382
56714W        W20647  25.659  18.621  11.977
56715W        W20648  16.302  14.218   1.411
56716W        W20649   2.341  13.273  12.537
56717W        W20650  20.709  44.940  11.112
56718W        W20651  26.094  13.674  13.316
56719W        W20652  44.417  17.107  11.858
56720W        W20653   0.403   7.882   1.733
56721W        W20654  25.027  34.390   3.840
56722W        W20655  14.325  23.495   2.295
56723W        W20656   5.779  22.059   3.205
56724W        W20657  42.421  26.533   0.903
56725W        W20658  20.603   5.345   0.276
56726W        W20659   3.871  30.451   1.264
56727W        W20660  15.118   7.777   5.717
56728W        W20661  28.530  21.159   2.763
56729W        W20662  34.587  15.303   3.370
56730W        W20663  30.010   9.840  12.877
56731W        W20664  37.504  11.860   3.386
56732W        W20665  10.698  19.127  12.347
56733W        W20666   7.680  14.208   2.665
56734W        W20667  17.280  11.352   2.210
56735W        W20668  40.017  19.098   2.336
56736W        W20669  41.878  39.867   3.819
56737W        W20670  43.958  14.816  13.449
56738W        W20671  41.322   1.476  12.403
56739W        W20672  41.522  16.632   1.742
56740W        W20673  14.781  11.182   1.720
56741W        W20674   0.411  32.444  12.033
56742W        W20675   9.227  11.789   5.104
56743W        W20676  14.688   2.282   1.779
56744W        W20677  33.406  14.237   3.148
56745W        W20678   8.824   4.256   2.851
56746W        W20679  34.542  29.498  12.970
56747W        W20680   3.226  30.137   4.242
56748W        W20681  38.056  28.442  12.887
56749W        W20682  32.415  24.201   0.341
56750W        W20683  10.183  23.051   4.647
56751W        W20684  22.212  18.114  12.075
56752W        W20685  41.498  20.527  10.892
56753W        W20686  12.241  28.161  12.077
56754W        W20687  18.100   6.818  10.595
56755W        W20688  42.312  26.538  10.509
56756W        W20689  11.149  16.688  12.479
56757W        W20690  24.028  37.883   2.375
56758W        W20691   5.356  35.066   4.241
56759W        W20692  36.058  19.720  13.959
56760W        W20693   8.281   9.793   3.821
56761W        W20694   6.866  19.210  14.914
56762W        W20695  32.468  13.335   2.247
56763W        W20696  37.507  22.513   1.245
56764W        W20697  14.127   5.912  13.991
56765W        W20698  34.371   0.296  14.433
56766W        W20699  13.712  16.092   3.161
56767W        W20700   1.340  40.343   1.775
56768W        W20701   8.900  21.705   0.402
56769W        W20702  26.119   9.265   4.352
56770W        W20703  21.224  32.418   1.297
56771W        W20704  34.870  11.630  13.515
56772W        W20705   1.879   8.225  10.527
56773W        W20706  25.214  16.151   0.869
56774W        W20707  26.993  19.569   1.326
56775W        W20708  35.862  22.023  12.002
56776W        W20709  25.709  37.544   1.249
56777W        W20710  25.011  39.063  14.383
56778W        W20711   2.324   2.942  11.110
56779W        W20712   4.236  35.036  10.620
56780W        W20713  22.704  42.309  14.515
56781W        W20714  25.588  38.440  12.963
56782W        W20715  35.081  34.575  10.144
56783W        W20716  19.579  30.071  14.377
56784W        W20717  14.682  26.996   4.118
56785W        W20718   8.343  13.650   4.170
56786W        W20719  18.285  43.983   1.751
56787W        W20720  12.849  35.917  13.975
56788W        W20721  44.359  10.370  14.298
56789W        W20722   1.940   1.780   2.802
56790W        W20723  28.002  24.148  12.836
56791W        W20724  34.874  31.999   4.338
56792W        W20725  11.788  33.462   3.328
56793W        W20726  11.725  10.252   2.328
56794W        W20727  19.739  26.205   9.677
56795W        W20728  14.627  24.091  14.812
56796W        W20729  37.534  17.595  13.881
56797W        W20730  10.643   7.269   1.217
56798W        W20731  18.658   2.273  14.764
56799W        W20732  24.108  15.109   4.633
56800W        W20733  15.177   9.759  13.357
56801W        W20734  10.343   9.332  14.308
56802W        W20735   4.752  44.358   9.952
56803W        W20736   8.669  40.941  10.488
56804W        W20737  17.783  41.474  13.807
56805W        W20738   9.347  32.006  11.084
56806W        W20739   3.283  20.168  14.872
56807W        W20740  19.737   0.427  11.962
56808W        W20741   8.193  34.479  14.807
56809W        W20742   1.830  42.863  12.031
56810W        W20743   9.814  23.609   1.830
56811W        W20744  15.821  43.375  13.338
56812W        W20745  28.553   1.905   2.754
56813W        W20746   3.406  23.000   3.180
56814W        W20747  43.905  16.597   3.163
56815W        W20748  22.054  34.552   0.837
56816W        W20749  11.267  25.090   3.284
56817W        W20750  14.640   6.420   1.893
56818W        W20751  27.114  24.054   3.386
56819W        W20752  33.081  12.157   4.290
56820W        W20753  27.554  13.750  11.091
56821W        W20754  29.140  12.834   4.646
56822W        W20755  10.702   9.196   4.696
56823W        W20756  35.449  41.963   0.915
56824W        W20757  44.388  23.226   3.737
56825W        W20758  31.960  19.758   3.734
56826W        W20759  22.229  36.916   0.849
56827W        W20760  17.204  30.511  14.470
56828W        W20761  34.075  36.557   4.836
56829W        W20762  23.646  39.322   1.736
56830W        W20763   2.962  11.261   0.841
56831W        W20764  32.075  18.185   1.433
56832W        W20765  38.383   0.407   4.609
56833W        W20766  11.256  24.556   0.379
56834W        W20767  32.494  24.225  10.500
56835W        W20768  22.694  28.512  11.890
56836W        W20769   8.304  13.690  13.802
56837W        W20770  30.023  16.713  13.354
56838W        W20771  25.530  25.631  13.357
56839W        W20772  27.485  31.451  13.922
56840W        W20773  15.780  27.031  13.419
56841W        W20774  42.472  34.056   3.274
56842W        W20775  17.247  41.336  13.846
56843W        W20776  15.795  26.486   1.353
56844W        W20777   9.268  33.893  11.914
56845W        W20778  44.477   5.718  14.446
56846W        W20779  18.613  26.951  11.574
56847W        W20780  34.532  20.630   1.823
56848W        W20781   3.848  11.362  13.868
56849W        W20782   8.318  39.487  14.443
56850W        W20783  41.315  36.856   3.848
56851W        W20784  43.273   9.363   3.637
56852W        W20785  21.208  21.261  12.499
56853W        W20786  11.648  22.525  13.438
56854W        W20787   1.472  18.137  10.889
56855W        W20788  29.552   0.815  12.958
56856W        W20789  44.867   6.185  11.507
56857W        W20790  13.829  27.990   3.247
56858W        W20791  24.192  22.588   3.211
56859W        W20792  23.190  35.048   2.809
56860W        W20793   1.473  19.780  13.317
56861W        W20794  31.108   0.305  13.386
56862W        W20795  38.943  36.380  13.830
56863W        W20796  17.785  40.447   5.707
56864W        W20797  21.231  37.524  10.912
56865W        W20798  28.966  37.064  13.357
56866W        W20799  12.244   8.769  14.908
56867W        W20800  44.996  38.055  14.988
56868W        W20801  22.561   9.817   2.410
56869W        W20802  19.252  35.993   2.765
56870W        W20803  42.940  31.431   1.754
56871W        W20804  12.180  33.888  13.904
56872W        W20805   3.436  40.455   3.849
56873W        W20806  23.066  14.142  13.373
56874W        W20807  40.315  30.089  14.500
56875W        W20808  41.396  23.030  14.275
56876W        W20809  14.238  29.005   4.215
56877W        W20810  37.412  15.679  13.548
56878W        W20811  15.640  29.029  11.886
56879W        W20812   0.746  21.020  11.991
56880W        W20813   9.215  22.055  11.981
56881W        W20814  13.331  17.064  10.628
56882W        W20815   5.904  43.866   2.256
56883W        W20816  13.177  30.148   1.346
56884W        W20817   9.741  43.448   2.835
56885W        W20818  17.774  38.992   1.743
56886W        W20819  39.974  13.299  10.503
56887W        W20820  34.965  36.558   0.269
56888W        W20821  35.565   7.247   2.849
56889W        W20822  25.501   9.790   1.451
56890W        W20823  16.272  11.169  10.645
56891W        W20824  36.399  37.430   1.715
56892W        W20825  35.925  42.934   2.383
56893W        W20826  29.001  36.062  14.360
56894W        W20827  34.517   0.781   4.127
56895W        W20828  12.728  20.758   1.226
56896W        W20829  23.670  20.125  13.355
56897W        W20830  34.001  36.041   1.737
56898W        W20831  24.655  12.750   0.333
56899W        W20832   0.270  17.299  11.117
56900W        W20833  31.107  43.467  10.508
56901W        W20834  12.737  27.025   4.732
56902W        W20835  15.088  23.724  12.029
56903W        W20836   0.277  27.553   3.665
56904W        W20837  20.709  26.493  13.047
56905W        W20838  15.282  42.882   0.836
56906W        W20839  39.462  18.630   1.885
56907W        W20840   7.296   5.822  14.799
56908W        W20841  14.630  10.808   2.744
56909W        W20842   4.740  26.180  11.940
56910W        W20843  27.589  14.758  13.850
56911W        W20844  12.646  26.629   1.416
56912W        W20845  14.817  36.449   1.748
56913W        W20846  14.666  23.586  14.849
56914W        W20847  40.489  19.670   5.298
56915W        W20848  39.894  33.462   4.180
56916W        W20849  44.933  25.148  11.077
56917W        W20850  40.035   0.449   0.941
56918W        W20851  39.978   0.267  12.928
56919W        W20852   3.908  25.594   3.856
56920W        W20853  15.628  34.387   2.207
56921W        W20854  30.477   3.763   1.279
56922W        W20855  24.000   0.457  14.882
56923W        W20856  11.221  29.497   1.895
56924W        W20857  15.791   8.708   2.887
56925W        W20858  27.995  27.958  10.913
56926W        W20859   2.253  25.176   2.830
56927W        W20860  37.541  28.085  11.546
56928W        W20861  44.859   4.228   1.416
56929W        W20862  32.945  30.121  13.947
56930W        W20863  10.814  26.120   4.777
56931W        W20864   9.810  25.679   5.611
56932W        W20865   6.417  10.154  12.428
56933W        W20866  33.934  38.885   3.777
56934W        W20867  38.354   4.250  12.885
56935W        W20868  16.191  27.455   4.831
56936W        W20869  33.944  20.086   3.193
56937W        W20870  16.740  42.382  12.942
56938W        W20871   9.270  36.058   3.836
56939W        W20872   7.690  44.432   1.430
56940W        W20873  10.251  19.551  14.858
56941W        W20874  16.209  21.572   2.812
56942W        W20875  23.490   2.430  11.570
56943W        W20876   5.243   6.681   1.281
56944W        W20877  21.598  20.599   3.746
56945W        W20878  14.226   7.321  13.311
56946W        W20879  19.081  44.858   3.294
56947W        W20880  15.624   5.732  12.981
56948W        W20881  25.147  19.728   3.320
56949W        W20882  12.792   4.388  14.282
56950W        W20883   6.311  20.112   2.737
56951W        W20884  13.290  10.719   0.313
56952W        W20885  34.573  21.137   3.725
56953W        W20886   7.774  14.778   4.117
56954W        W20887  30.004  15.313   4.790
56955W        W20888  36.485   0.307  11.041
56956W        W20889   5.204  17.688   2.785
56957W        W20890   7.681  18.281   0.429
56958W        W20891  21.531  41.347   3.630
56959W        W20892  19.096  41.480   0.730
56960W        W20893  36.902   5.420  13.449
56961W        W20894  28.101  42.301  14.475
56962W        W20895   0.458   8.276   0.914
56963W        W20896  24.628  30.455   1.873
56964W        W20897  23.070  21.515  12.488
56965W        W20898  44.339  43.019  12.927
56966W        W20899  15.752  10.165  12.377
56967W        W20900  24.134  22.689   5.204
56968W        W20901  10.706  14.724   3.202
56969W        W20902   7.242  41.325  12.374
56970W        W20903  16.599   1.746   2.204
56971W        W20904  12.219  14.761  10.895
56972W        W20905   8.233  23.021   3.708
56973W        W20906  20.537  42.441   3.718
56974W        W20907  42.857  34.884  12.858
56975W        W20908  23.545  40.840  14.479
56976W        W20909  35.379  18.163  14.996
56977W        W20910   3.360  33.388   4.156
56978W        W20911  34.120  21.020   1.323
56979W        W20912  21.061  15.710   4.207
56980W        W20913   4.742   0.424  13.468
56981W        W20914  34.891  35.581   4.599
56982W        W20915   0.308  41.874  13.821
56983W        W20916  41.453  10.780  12.546
56984W        W20917  21.570  34.517  12.887
56985W        W20918  21.647  32.513   4.190
56986W        W20919  28.175  38.417   2.896
56987W        W20920   3.216   4.805  13.966
56988W        W20921   8.769  32.502   4.292
56989W        W20922  19.071  44.408   4.208
56990W        W20923  35.502  31.499  11.575
56991W        W20924  20.213  20.590  11.994
56992W        W20925   4.898  32.633  12.058
56993W        W20926   3.300  36.072  13.321
56994W        W20927  39.413  35.963   0.870
56995W        W20928   2.237  36.061   2.220
56996W        W20929   8.657  35.368  12.845
56997W        W20930  29.577  25.210  10.002
56998W        W20931  31.449  17.210  12.856
56999W        W20932  20.571   7.410   1.792
57000W        W20933  42.421  27.662   2.692
57001W        W20934  15.095  16.123   1.277
57002W        W20935  29.938  44.412   1.844
57003W        W20936  31.494  24.485   2.789
57004W        W20937  33.412  43.807   4.722
57005W        W20938  36.578   7.230  13.869
57006W        W20939  35.479   0.843  12.435
57007W        W20940   9.252   3.290  13.327
57008W        W20941  17.305   5.707  13.894
57009W        W20942  32.128  27.112  10.945
57010W        W20943  33.908  35.502  14.933
57011W        W20944  19.229  21.549  13.061
57012W        W20945   4.718  21.727  10.920
57013W        W20946  43.992  10.866  11.923
57014W        W20947  21.021  39.516   3.674
57015W        W20948  19.590  37.852  10.466
57016W        W20949  20.038  33.881   4.668
57017W        W20950  31.133  11.764  11.906
57018W        W20951  36.952   1.265  11.372
57019W        W20952  25.628  13.184   0.412
57020W        W20953  28.493  28.012  11.007
57021W        W20954  26.056  20.233  12.013
57022W        W20955   5.875   1.254  11.892
57023W        W20956  19.183   7.260   1.860
57024W        W20957  35.853  32.591   4.228
57025W        W20958  32.025  11.751   0.818
57026W        W20959  43.918  26.956  10.980
57027W        W20960  40.526   3.329  13.346
57028W        W20961  21.684   8.334  11.559
57029W        W20962  17.124  36.419  11.437
57030W        W20963  25.700   3.217   2.681
57031W        W20964  17.231  10.807  11.885
57032W        W20965   0.988  21.221   1.768
57033W        W20966  11.135  13.304  10.972
57034W        W20967  11.368  12.835   0.428
57035W        W20968   4.868  18.198   3.707
57036W        W20969  17.753   3.343   1.733
57037W        W20970  17.250  41.012  14.782
57038W        W20971  26.605   5.388   0.309
57039W        W20972   5.873  42.914  12.514
57040W        W20973   0.954  16.734  10.092
57041W        W20974  41.807   8.859  10.635
57042W        W20975  38.382  41.358   0.379
57043W        W20976  33.095  17.297   1.908
57044W        W20977  39.953  43.487   1.708
57045W        W20978  41.042   1.848  13.877
57046W        W20979  20.746  39.870   3.179
57047W        W20980  15.645  38.002   3.678
57048W        W20981  22.558  13.158   5.153
57049W        W20982  23.581  19.695  13.958
57050W        W20983  39.551  36.348  13.414
57051W        W20984   8.726  10.199  10.460
57052W        W20985  15.196   8.351  14.820
57053W        W20986   4.736  21.571   5.117
57054W        W20987  15.612  21.207  12.414
57055W        W20988  12.338   6.295  14.999
57056W        W20989  23.565   9.656  11.410
57057W        W20990  30.502  28.077  10.529
57058W        W20991  43.962  33.876   0.906
57059W        W20992  29.503  38.959  13.448
57060W        W20993   6.186  22.173   0.473
57061W        W20994  11.776  22.111   1.699
57062W        W20995  39.948  40.988  14.401
57063W        W20996  35.098  29.032  12.845
57064W        W20997  30.641  31.013   3.231
57065W        W20998  14.156  17.064  11.881
57066W        W20999   7.756  15.608  10.479
57067W        W21000  20.608  38.906   2.698
57068W        W21001   2.299  39.369   3.342
57069W        W21002   4.886  21.252  14.460
57070W        W21003   6.814   3.414  12.460
57071W        W21004   1.874  43.453   3.697
57072W        W21005  30.532  12.704   3.799
57073W        W21006  28.045  13.645   3.706
57074W        W21007   9.252  29.964   1.751
57075W        W21008  29.112  30.647  11.880
57076W        W21009  39.455   4.704  11.607
57077W        W21010  18.670  30.977  12.964
57078W        W21011  27.944   3.782   3.185
57079W        W21012  25.181  32.483   1.423
57080W        W21013  41.984  10.244   2.677
57081W        W21014  19.641  34.985   1.355
57082W        W21015  31.428  42.339   3.154
57083W        W21016  39.500  29.044   1.898
57084W        W21017  31.059  25.038   2.787
57085W        W21018   4.299  20.617   3.186
57086W        W21019  31.402  21.712   4.146
57087W        W21020  24.138  11.856  14.998
57088W        W21021  39.425  21.545  14.405
57089W        W21022  40.925  40.028   2.400
57090W        W21023  13.664  29.475   1.868
57091W        W21024  29.620  38.978  14.401
57092W        W21025  24.499   5.371   3.638
57093W        W21026  18.090   8.861   3.701
57094W        W21027  37.492  11.249  12.831
57095W        W21028  38.074   6.359  10.933
57096W        W21029   2.356  21.039   2.794
57097W        W21030   6.299  18.198  11.862
57098W        W21031  32.631  32.041  13.478
57099W        W21032   9.664  35.059   2.373
57100W        W21033  44.394   9.658   4.208
57101W        W21034  44.446   9.372  13.872
57102W        W21035  10.829  10.354  11.996
57103W        W21036  27.517  34.590   4.680
57104W        W21037  41.825  29.957  14.916
57105W        W21038  24.004  38.478  12.923
57106W        W21039  12.254  15.625  14.480
57107W        W21040   4.704  41.494  11.576
57108W        W21041  22.043  28.989  11.612
57109W        W21042  42.326  17.079  11.924
57110W        W21043  39.064  36.940   2.181
57111W        W21044  13.235  33.542   3.238
57112W        W21045  17.127  38.890  12.374
57113W        W21046  41.317  37.001   2.193
57114W        W21047   5.766   6.297  12.877
57115W        W21048   0.476  20.650   0.857
57116W        W21049  15.104   4.734   1.238
57117W        W21050   4.265  21.107   0.828
57118W        W21051  19.093   2.243  14.874
57119W        W21052   4.371  16.694   4.328
57120W        W21053  12.773  19.696   4.296
57121W        W21054  24.655   0.362  14.342
57122W        W21055  18.596  20.590   9.954
57123W        W21056  17.597  23.691  11.029
57124W        W21057   4.860   9.714  12.954
57125W        W21058   6.905  43.020   4.649
57126W        W21059  18.136   4.927   9.954
57127W        W21060  24.148  18.637  12.364
57128W        W21061  10.783  18.560   4.225
57129W        W21062  26.661  31.477  12.372
57130W        W21063   7.331  37.403   3.720
57131W        W21064  23.589  28.036  11.539
57132W        W21065  19.205  21.603  11.897
57133W        W21066  24.497  27.148   4.287
57134W        W21067  42.428  18.180   4.758
57135W        W21068  41.949   6.320  11.879
57136W        W21069  18.107  13.306  13.461
57137W        W21070   3.771  43.934  13.362
57138W        W21071   3.459  39.882  14.316
57139W        W21072  27.526  14.336   0.834
57140W        W21073   2.805  30.087   2.258
57141W        W21074  37.981  17.712  12.544
57142W        W21075  29.997  42.006   2.767
57143W        W21076  23.991  15.583   1.836
57144W        W21077  10.665  37.450   3.334
57145W        W21078  10.860  42.824  11.101
57146W        W21079   9.334  42.825  10.123
57147W        W21080  10.849  36.451  12.871
57148W        W21081   2.412  36.421  10.968
57149W        W21082   7.379   9.728   4.215
57150W        W21083  38.888  36.584   1.231
57151W        W21084  39.837  21.720   0.913
57152W        W21085  12.809  14.660   3.694
57153W        W21086  17.275   0.430   4.157
57154W        W21087  15.245  39.350  10.990
57155W        W21088  15.102  30.923  12.863
57156W        W21089  23.138  17.174  14.427
57157W        W21090  19.549  41.538  14.931
57158W        W21091  26.012   0.415  12.950
57159W        W21092  29.619  15.222  11.052
57160W        W21093   5.215  44.382   4.763
57161W        W21094  14.217   0.863  11.568
57162W        W21095  39.866   9.793  12.911
57163W        W21096  30.512   3.834  13.471
57164W        W21097   4.931  10.280  10.452
57165W        W21098  13.339  42.456   4.229
57166W        W21099  22.130  23.140   2.757
57167W        W21100  20.540  34.008  11.923
57168W        W21101  15.769  10.770  12.452
57169W        W21102  24.618   6.788   4.703
57170W        W21103  12.808   8.369  13.310
57171W        W21104  41.896  43.440   1.750
57172W        W21105  26.067  36.504  11.003
57173W        W21106   9.888   0.969   3.229
57174W        W21107  34.056   6.685  14.372
57175W        W21108  39.845   7.350  11.584
57176W        W21109  31.645  26.608   2.690
57177W        W21110  31.111  16.812  14.280
57178W        W21111  23.709   2.452   3.811
57179W        W21112  34.393  14.116  14.426
57180W        W21113  37.456  11.356  11.932
57181W        W21114  18.196  26.525  13.385
57182W        W21115  12.358  44.923  14.440
57183W        W21116   9.300   9.768   3.350
57184W        W21117  28.617   3.440  13.403
57185W        W21118  44.313  12.361  14.770
57186W        W21119  37.992   5.792  13.412
57187W        W21120  30.993  16.648   3.386
57188W        W21121  36.554  39.316  10.466
57189W        W21122  13.820  42.337   1.824
57190W        W21123  44.308  13.673  14.847
57191W        W21124   4.405  37.898  11.016
57192W        W21125  20.049  39.333   9.531
57193W        W21126  41.318  17.561  11.589
57194W        W21127   5.778   3.440   1.248
57195W        W21128  18.648  42.867   3.795
57196W        W21129  29.569  26.113  11.003
57197W        W21130  34.985  21.203  12.494
57198W        W21131  35.417  43.476   0.925
57199W        W21132   4.700  28.566  13.972
57200W        W21133  30.527  13.687  10.446
57201W        W21134  33.447  33.615  12.440
57202W        W21135  34.931  30.124   1.367
57203W        W21136  23.024   5.197   4.348
57204W        W21137  22.023  24.538  12.999
57205W        W21138  21.688  20.086   2.797
57206W        W21139   9.265  15.280  12.395
57207W        W21140  25.965  40.340  11.400
57208W        W21141  16.146  43.908   1.746
57209W        W21142   2.238  20.719  13.420
57210W        W21143  29.079  21.691   3.714
57211W        W21144  27.668  13.747   2.891
57212W        W21145  42.395  18.275  12.847
57213W        W21146  23.043  41.478   3.795
57214W        W21147  10.375  36.548   4.349
57215W        W21148  26.004  23.527  13.397
57216W        W21149  22.170  44.417   1.791
57217W        W21150  12.720   5.888   0.466
57218W        W21151  19.273   7.413   4.182
57219W        W21152  21.125   4.367   3.210
57220W        W21153  34.394  24.116  11.958
57221W        W21154  20.092  24.714  14.497
57222W        W21155   8.280  32.886  13.923
57223W        W21156  39.897  30.099   4.683
57224W        W21157  12.650  17.624  13.854
57225W        W21158  44.361   9.332  12.898
57226W        W21159  23.987  44.340   9.999
57227W        W21160  40.927  27.996  12.826
57228W        W21161  13.119   1.896   1.900
57229W        W21162  44.327  40.385   2.761
57230W        W21163  12.129   3.258   3.727
57231W        W21164  15.203   1.333  12.051
57232W        W21165  15.715  28.483  13.350
57233W        W21166   0.964  36.067   3.732
57234W        W21167  32.433  30.040  12.950
57235W        W21168  44.358  19.064   0.295
57236W        W21169  18.141  21.628  13.937
57237W        W21170  17.171  20.046   4.766
57238W        W21171  27.494  11.205  13.874
57239W        W21172  44.945  25.971   2.182
57240W        W21173  33.439  27.606  12.838
57241W        W21174  39.394  17.259  13.813
57242W        W21175   1.775  16.198  11.548
57243W        W21176  22.602  18.573  14.371
57244W        W21177  30.078  34.993  13.441
57245W        W21178   4.343  32.994   4.346
57246W        W21179  19.612  24.993  11.541
57247W        W21180  44.792  17.205   0.916
57248W        W21181  19.115  34.598  14.512
57249W        W21182   0.459  30.947  11.912
57250W        W21183  11.630  29.528  12.026
57251W        W21184   4.365  25.186  10.935
57252W        W21185  28.067   4.243   4.614
57253W        W21186   4.772  10.764   0.278
57254W        W21187  39.460  32.445  10.613
57255W        W21188  43.284  31.599   4.284
57256W        W21189  32.402  27.175  11.579
57257W        W21190   3.283   7.295   3.148
57258W        W21191   6.842   9.695   4.738
57259W        W21192  27.027  38.438  11.402
57260W        W21193  20.601  35.582  14.881
57261W        W21194   6.704   6.834  12.568
57262W        W21195  16.318  35.960   0.929
57263W        W21196  37.935  13.703  13.012
57264W        W21197   8.668  44.928   0.403
57265W        W21198  41.883  21.218   3.763
57266W        W21199  33.614   0.446   0.857
57267W        W21200  33.881   5.816  11.024
57268W        W21201  37.993  25.691   2.342
57269W        W21202  13.699  25.671  11.944
57270W        W21203  17.646  33.956  13.871
57271W        W21204  33.107  10.203  11.379
57272W        W21205  26.541  42.330  13.962
57273W        W21206   9.866   8.891   4.257
57274W        W21207  16.794  41.527  12.825
57275W        W21208   7.675  26.105  14.797
57276W        W21209  21.670  42.919   4.733
57277W        W21210   1.467  40.377   0.876
57278W        W21211  42.013   0.466  14.474
57279W        W21212  29.163  37.476  12.547
57280W        W21213  37.429  15.751   5.113
57281W        W21214   3.229  42.779  14.287
57282W        W21215   0.880  12.305  13.415
57283W        W21216  35.010  19.659   4.213
57284W        W21217  19.699  27.691  11.976
57285W        W21218  39.840  30.917   3.642
57286W        W21219  12.142   1.389   2.870
57287W        W21220  10.147  34.551  13.533
57288W        W21221  26.104  42.892   9.547
57289W        W21222  31.063  34.104  11.404
57290W        W21223   4.259   6.329   1.385
57291W        W21224  16.123  39.032  11.964
57292W        W21225   1.263  28.107  13.548
57293W        W21226  10.789  35.907  14.895
57294W        W21227  35.573  13.185   3.249
57295W        W21228   0.926  17.119   0.803
57296W        W21229   6.723  24.009  13.333
57297W        W21230  42.335  30.120  12.021
57298W        W21231  22.618   0.249   1.722
57299W        W21232  28.019   6.762  11.488
57300W        W21233  15.749  21.718  12.081
57301W        W21234  30.140  18.214  14.399
57302W        W21235  26.666   5.338   2.846
57303W        W21236   6.381  17.779   4.299
57304W        W21237  41.404   6.881   2.843
57305W        W21238   5.376  37.034  10.500
57306W        W21239  14.329   5.824   0.442
57307W        W21240   7.192  16.088  13.988
57308W        W21241  28.008  10.835   4.799
57309W        W21242  11.150  30.982   0.282
57310W        W21243  27.527   2.401  14.954
57311W        W21244  31.476  17.657  10.929
57312W        W21245  35.398  12.319   1.428
57313W        W21246  33.526   5.282  14.464
57314W        W21247  14.203  33.944  14.832
57315W        W21248  29.015  19.777   5.088
57316W        W21249   7.672  15.291   1.708
57317W        W21250  27.464  20.059   4.643
57318W        W21251  23.003  16.650  11.934
57319W        W21252  13.753   8.316   4.300
57320W        W21253   8.824  31.124   2.837
57321W        W21254  25.968   6.706   4.614
57322W        W21255  29.471  12.692  13.837
57323W        W21256  43.779  26.552   2.724
57324W        W21257  40.387  21.523  14.437
57325W        W21258  41.315  29.638  13.340
57326W        W21259  23.678  38.400  11.901
57327W        W21260  27.581  10.202   1.416
57328W        W21261  44.846  25.562  13.428
57329W        W21262  34.575  28.455   3.280
57330W        W21263  19.149   4.866   0.323
57331W        W21264  12.817   4.878  11.966
57332W        W21265  33.988  41.435   3.676
57333W        W21266  23.606   5.900   2.704
57334W        W21267  10.659  27.050  13.520
57335W        W21268  23.194  16.129   0.414
57336W        W21269  13.705  15.676  10.594
57337W        W21270  11.685   5.792   2.321
57338W        W21271  16.681   9.378   5.300
57339W        W21272  18.141   4.437  14.335
57340W        W21273  18.726   9.260   4.353
57341W        W21274  13.194  13.219  10.899
57342W        W21275  17.182  30.072  13.850
57343W        W21276  11.327  34.998  14.885
57344W        W21277  10.841   5.290   1.813
57345W        W21278  13.716   7.188   2.850
57346W        W21279  12.634  34.087  11.454
57347W        W21280  43.873  44.941   4.707
57348W        W21281  32.623  30.990   0.294
57349W        W21282   8.756  43.768  13.885
57350W        W21283  25.592  18.179  10.637
57351W        W21284  21.753   7.883   1.236
57352W        W21285  21.672  15.739  13.419
57353W        W21286  26.979   7.240  13.007
57354W        W21287  16.192  31.903  14.443
57355W        W21288  31.570  42.924  12.091
57356W        W21289  41.319  33.975   0.419
57357W        W21290   6.398  29.944  13.962
57358W        W21291  26.035  22.699   3.362
57359W        W21292  20.612  31.425   3.770
57360W        W21293  20.651  36.923   3.762
57361W        W21294  31.070  18.249  11.950
57362W        W21295  23.123  17.159   3.292
57363W        W21296  11.789  23.623  10.474
57364W        W21297  38.845  29.086   9.991
57365W        W21298  18.734  21.671   0.843
57366W        W21299  18.249  16.576   3.167
57367W        W21300  16.099  30.647   5.307
57368W        W21301  33.024  24.009   1.352
57369W        W21302  13.110   8.187   1.320
57370W        W21303  22.006  39.506  13.020
57371W        W21304   4.754   4.401   3.741
57372W        W21305   0.355  18.196   4.803
57373W        W21306  40.327  23.033   0.440
57374W        W21307   3.882   1.894  12.546
57375W        W21308   6.340  16.172   4.311
57376W        W21309   2.314  34.437   2.286
57377W        W21310  37.833  34.541   0.888
57378W        W21311  28.448  23.629   0.308
57379W        W21312  10.173  42.523   1.392
57380W        W21313  35.360  22.502  10.523
57381W        W21314  21.181  12.322   2.804
57382W        W21315  24.567  37.346  13.365
57383W        W21316  38.021   5.689  10.431
57384W        W21317  11.865  39.881   4.204
57385W        W21318  37.564  15.601   4.338
57386W        W21319  38.948   7.323   2.338
57387W        W21320  40.833   8.705   2.746
57388W        W21321   9.349  35.425   4.733
57389W        W21322  34.561   3.368  11.940
57390W        W21323   1.327  11.139   4.337
57391W        W21324  28.147  24.110   3.716
57392W        W21325  33.941  38.821   4.153
57393W        W21326   0.289  28.167   3.665
57394W        W21327   8.247  16.796   0.920
57395W        W21328  31.646  21.136  14.435
57396W        W21329  41.813  17.252  14.366
57397W        W21330   2.432  27.498   4.688
57398W        W21331  28.014  17.704  12.056
57399W        W21332  19.738  39.959   4.682
57400W        W21333   3.344  17.192  11.924
57401W        W21334  23.679  40.050   0.286
57402W        W21335  16.757   6.846  11.022
57403W        W21336  32.908  40.536  13.062
57404W        W21337  37.027  33.412   2.281
57405W        W21338  23.077  40.377  12.484
57406W        W21339  18.166  23.550  14.785
57407W        W21340   4.265   8.662   2.697
57408W        W21341   3.887   2.433   4.295
57409W        W21342  35.476   8.371   3.168
57410W        W21343  18.126  22.513   0.248
57411W        W21344  43.484  39.833   4.295
57412W        W21345  29.957  15.204  14.856
57413W        W21346  38.387  32.896   2.727
57414W        W21347   3.786  43.448  10.914
57415W        W21348   8.296  11.236   3.723
57416W        W21349   1.381  26.980  13.828
57417W        W21350   0.902  40.035  13.922
57418W        W21351  22.525  41.883  10.524
57419W        W21352  11.241  34.951   4.155
57420W        W21353  26.055  37.876   1.821
57421W        W21354  39.357  26.685   0.270
57422W        W21355   6.213  22.996  14.826
57423W        W21356   4.374  10.383  11.916
57424W        W21357   2.890   2.802   2.809
57425W        W21358  28.458  26.643   1.873
57426W        W21359  26.517  40.361  12.951
57427W        W21360  10.161  14.781  14.358
57428W        W21361  18.248  22.058  10.909
57429W        W21362  30.990  31.459  14.492
57430W        W21363  31.930  43.877  14.959
57431W        W21364  38.826  28.537  14.413
57432W        W21365  20.599  42.807   0.917
57433W        W21366  17.645  29.084  14.977
57434W        W21367  15.823   1.265  13.505
57435W        W21368  41.923   0.808   2.247
57436W        W21369  20.238   8.359  11.969
57437W        W21370  15.744  13.146  12.056
57438W        W21371  14.189  31.525   4.221
57439W        W21372  10.344  37.983   1.242
57440W        W21373   5.700   1.939  10.989
57441W        W21374  21.696  11.231   4.270
57442W        W21375  11.789  27.579   0.915
57443W        W21376  38.833   9.327   3.723
57444W        W21377  25.712  32.900   3.668
57445W        W21378  30.513  40.337   1.311
57446W        W21379   8.874  19.762   2.346
57447W        W21380  31.088  28.456   3.358
57448W        W21381  39.976  40.529  14.847
57449W        W21382  11.694  35.959   4.317
57450W        W21383  16.753  13.843  12.559
57451W        W21384  18.641   8.382   1.823
57452W        W21385  37.040  32.122   3.233
57453W        W21386  38.919  12.237   3.698
57454W        W21387  30.999  37.427   3.867
57455W        W21388  21.148  34.072  12.830
57456W        W21389   0.762  41.385  12.838
57457W        W21390  13.262  22.106  12.885
57458W        W21391   7.204  10.230   1.838
57459W        W21392   8.261   5.742  10.568
57460W        W21393  16.094  16.804   1.254
57461W        W21394   0.424   4.745  10.515
57462W        W21395  27.126  20.732  12.896
57463W        W21396  11.176  34.890   2.354
57464W        W21397  14.700   7.399   0.815
57465W        W21398  26.577   3.371  14.510
57466W        W21399  26.700  13.645   3.324
57467W        W21400  21.605   6.781   0.760
57468W        W21401  34.577   9.763   3.337
57469W        W21402  22.125  42.895  14.331
57470W        W21403  36.071   7.300   3.316
57471W        W21404  17.689   6.747  12.444
57472W        W21405  43.391  15.090  10.579
57473W        W21406  35.026  16.570   2.853
57474W        W21407  32.568  30.037   3.375
57475W        W21408  29.016   0.394   2.315
57476W        W21409   8.277  42.344   3.368
57477W        W21410   1.324  43.458  12.436
57478W        W21411   6.889   6.227   2.249
57479W        W21412  44.402  24.152  11.041
57480W        W21413  35.449  31.480  12.096
57481W        W21414  34.476   6.313  11.484
57482W        W21415  32.915   5.376   0.430
57483W        W21416  28.604   7.173   3.200
57484W        W21417  13.262  13.713  14.907
57485W        W21418  25.611  18.664   0.901
57486W        W21419  22.064  33.973   3.725
57487W        W21420  25.000  35.601   3.671
57488W        W21421  17.587  41.464  14.495
57489W        W21422   6.376  31.612   2.415
57490W        W21423   9.359   5.220   1.423
57491W        W21424  24.699  22.152   1.444
57492W        W21425  25.166  33.997   2.306
57493W        W21426   8.674  33.972   1.394
57494W        W21427  10.831  32.439   1.867
57495W        W21428  40.504  36.917  11.937
57496W        W21429  33.892  12.751   2.666
57497W        W21430  27.493  27.646   2.218
57498W        W21431  31.978  17.221  11.588
57499W        W21432  37.038  31.039   2.728
57500W        W21433  42.396  29.971   2.362
57501W        W21434  15.620  37.514  13.847
57502W        W21435   0.415  34.112  11.398
57503W        W21436  27.449  37.340  12.930
57504W        W21437  40.316   4.333  12.029
57505W        W21438  36.947  25.679   4.284
57506W        W21439   2.728  30.997  11.530
57507W        W21440   1.755  28.527  12.904
57508W        W21441  25.147   9.377  13.539
57509W        W21442  41.374   6.383  12.442
57510W        W21443   7.850   4.423   3.252
57511W        W21444  40.359  19.750  13.826
57512W        W21445  13.280  32.054  11.566
57513W        W21446  11.222  37.364   1.844
57514W        W21447  33.927  27.159   0.287
57515W        W21448  43.322  17.231  13.438
57516W        W21449  16.160  23.551  12.896
57517W        W21450  15.726  30.075  12.379
57518W        W21451  21.675  25.523  14.489
57519W        W21452  24.608  26.665  10.964
57520W        W21453   3.839  26.656  13.842
57521W        W21454  40.432   2.370  13.978
57522W        W21455  12.763  13.816  11.451
57523W        W21456   2.946  37.422  14.969
57524W        W21457  19.139  26.044  14.348
57525W        W21458  17.753   9.857  11.126
57526W        W21459  25.047   8.786  10.109
57527W        W21460  18.194   8.828  12.447
57528W        W21461  18.169  10.174  11.546
57529W        W21462  37.950  22.169  12.033
57530W        W21463  23.718  22.741  13.851
57531W        W21464  25.613  36.841  13.444
57532W        W21465  44.891  14.214  13.515
57533W        W21466  39.357   2.943   0.776
57534W        W21467  23.073  23.657   0.435
57535W        W21468  26.655  20.167  11.958
57536W        W21469  39.551   1.780   1.263
57537W        W21470  31.617  41.805  12.061
57538W        W21471  28.103  22.014  12.573
57539W        W21472  15.271  36.890   2.665
57540W        W21473  28.551   2.437   1.711
57541W        W21474  10.374  22.631  12.975
57542W        W21475  38.973   6.699   4.279
57543W        W21476  15.231  39.410  14.394
57544W        W21477  20.747  19.584   3.677
57545W        W21478   8.183   0.838   2.825
57546W        W21479   2.285  13.144   1.771
57547W        W21480  13.608   0.920   1.354
57548W        W21481  22.559  10.661  13.490
57549W        W21482   7.760   4.361   3.635
57550W        W21483  43.849   3.794  14.809
57551W        W21484  22.026  20.583   0.418
57552W        W21485  14.175  22.588   0.749
57553W        W21486  11.267   2.463   3.283
57554W        W21487  19.173  21.241  14.942
57555W        W21488  22.538  14.336  13.942
57556W        W21489   1.479  28.123  12.491
57557W        W21490  39.333  34.934   0.318
57558W        W21491  11.254   5.900  12.091
57559W        W21492  44.404   4.884  12.970
57560W        W21493  35.416  35.004  11.487
57561W        W21494  30.013  41.942   0.341
57562W        W21495  15.718  29.437  12.070
57563W        W21496   7.352  44.861  11.568
57564W        W21497  30.436   3.291  14.844
57565W        W21498  16.306   5.897  11.435
57566W        W21499   7.718   0.746  14.379
57567W        W21500  42.323   1.247   0.308
57568W        W21501  38.445   3.892   4.195
57569W        W21502  29.121  42.372  13.488
57570W        W21503   3.332  39.459  13.337
57571W        W21504   7.755  32.108  10.920
57572W        W21505  12.228  44.822   2.346
57573W        W21506   6.750  19.144   1.872
57574W        W21507  28.527  31.417   3.667
57575W        W21508  44.488  35.375  14.867
57576W        W21509   9.734   8.763   2.892
57577W        W21510   9.656  21.568  13.505
57578W        W21511  41.854  12.354  12.438
57579W        W21512  19.580  10.356   3.275
57580W        W21513  28.025  39.540   1.817
57581W        W21514  10.327  43.962  11.944
57582W        W21515  16.713  24.641  14.890
57583W        W21516  42.939  37.552  11.460
57584W        W21517   8.192  38.068   2.786
57585W        W21518  25.197  15.757   1.750
57586W        W21519  18.744   0.927  12.922
57587W        W21520  10.140  43.477  11.578
57588W        W21521  32.072   0.747   0.271
57589W        W21522  14.202   3.729   3.287
57590W        W21523  22.664  19.652  10.002
57591W        W21524  14.217   2.897   3.317
57592W        W21525  12.736  23.984  14.453
57593W        W21526   4.844  31.896  11.113
57594W        W21527  25.500  44.863  10.922
57595W        W21528  11.660   1.755  10.039
57596W        W21529  33.562  37.008   0.345
57597W        W21530  42.886  35.929  13.829
57598W        W21531  29.499  15.694   1.889
57599W        W21532  29.122  29.603  14.841
57600W        W21533  13.291   8.686  10.482
57601W        W21534  20.223  35.927  14.032
57602W        W21535  42.285  13.804  12.450
57603W        W21536  26.570  33.106  13.946
57604W        W21537   1.412  33.392  11.904
57605W        W21538  27.153   9.175   4.290
57606W        W21539   7.803  25.604  14.332
57607W        W21540   1.794  36.401   4.177
57608W        W21541  15.587  30.925  14.354
57609W        W21542  21.602   8.176  14.314
57610W        W21543  15.747  37.503  14.910
57611W        W21544  32.038  28.503   2.681
57612W        W21545   6.377  26.087   3.659
57613W        W21546  40.389  25.076  10.640
57614W        W21547   1.765  43.934   2.291
57615W        W21548  19.220  40.950  14.890
57616W        W21549  22.609  40.824   0.848
57617W        W21550   1.253  35.105  14.935
57618W        W21551  37.864  16.611   3.229
57619W        W21552  23.558  44.794   0.966
57620W        W21553   8.279  40.411   0.884
57621W        W21554  26.026  36.379   4.321
57622W        W21555  42.494  20.754   3.338
57623W        W21556  14.813  24.148   4.641
57624W        W21557  30.471  17.186   0.753
57625W        W21558  23.720  41.030  14.960
57626W        W21559  33.577  16.272   0.408
57627W        W21560  40.312  18.182   2.282
57628W        W21561  19.280  26.990  10.542
57629W        W21562   8.390  34.583   1.695
57630W        W21563   6.713   4.447   1.432
57631W        W21564  35.980  41.012  14.827
57632W        W21565   1.787  38.968   2.863
57633W        W21566  18.760   8.704   3.780
57634W        W21567  40.505  34.554   4.828
57635W        W21568  20.576  39.419  12.970
57636W        W21569   6.428  23.592  11.915
57637W        W21570  15.611  35.010   5.165
57638W        W21571  40.520  33.480  13.471
57639W        W21572  22.225  44.477  10.053
57640W        W21573   7.685  20.116   2.360
57641W        W21574   6.335  16.655   2.786
57642W        W21575  11.691   6.317   2.801
57643W        W21576  39.893  27.621  10.599
57644W        W21577  14.764  30.037   4.648
57645W        W21578  24.223   7.841  11.029
57646W        W21579  31.453  19.740   4.736
57647W        W21580  28.119  18.682   2.664
57648W        W21581  19.699  30.601  11.980
57649W        W21582  32.019  19.208  11.035
57650W        W21583  29.963  44.284   1.262
57651W        W21584  34.597   5.925   0.264
57652W        W21585  29.472  41.456   0.345
57653W        W21586   4.738   8.297  11.471
57654W        W21587  30.974  11.338   1.800
57655W        W21588  32.107  14.629   1.872
57656W        W21589  29.563  35.578  13.529
57657W        W21590  25.557  26.561  14.780
57658W        W21591  18.166  18.223  11.453
57659W        W21592  18.646  13.181   4.129
57660W        W21593   4.420  43.280  13.927
57661W        W21594  38.023  21.572   1.703
57662W        W21595  40.487  10.857  11.108
57663W        W21596  22.548   1.463  11.561
57664W        W21597  11.630  28.144  13.527
57665W        W21598  43.406  19.681   2.814
57666W        W21599  25.651  10.644  14.392
57667W        W21600  35.553   6.852  13.432
57668W        W21601  19.128  23.223   0.358
57669W        W21602  42.013  12.176   1.805
57670W        W21603  25.556  11.711  12.453
57671W        W21604  21.198  29.007   2.822
57672W        W21605  44.872  36.571  14.395
57673W        W21606   5.880  41.886   0.334
57674W        W21607  44.472   5.434   1.742
57675W        W21608  43.320  11.696  11.907
57676W        W21609  43.807  33.002  13.419
57677W        W21610   9.788  17.238  14.437
57678W        W21611  17.722  23.029  10.952
57679W        W21612  24.537  10.637  14.857
57680W        W21613  28.561  19.179  14.804
57681W        W21614  38.365  42.284  11.424
57682W        W21615  32.530  11.758  11.927
57683W        W21616   3.788  29.135  12.037
57684W        W21617  31.466   0.446   2.788
57685W        W21618  17.697  20.090   5.631
57686W        W21619  17.075  36.894   1.895
57687W        W21620  14.711  36.038  12.547
57688W        W21621  18.255  43.881   0.312
57689W        W21622  15.086  13.262  12.006
57690W        W21623  38.073   5.303   4.341
57691W        W21624  18.073  25.017  12.475
57692W        W21625  31.425   2.910   1.762
57693W        W21626  21.684  20.123   1.899
57694W        W21627  35.869  20.574   2.403
57695W        W21628  14.641   1.439  12.500
57696W        W21629  15.208   6.224  14.829
57697W        W21630  10.169   5.723   3.864
57698W        W21631   4.342  16.175  10.482
57699W        W21632  11.322  28.028  11.433
57700W        W21633  36.061  19.144  12.850
57701W        W21634  20.556  10.276  11.570
57702W        W21635   6.714  21.514  11.585
57703W        W21636  27.608  27.649  10.450
57704W        W21637  41.426   6.783   3.741
57705W        W21638  16.676  14.796  13.445
57706W        W21639  33.881  11.275   3.199
57707W        W21640   3.712  42.523  14.381
57708W        W21641  29.513  21.091   0.350
57709W        W21642  16.253  36.372   3.216
57710W        W21643  36.550   9.318  14.292
57711W        W21644  17.292  22.237  14.440
57712W        W21645   2.462  33.396  12.833
57713W        W21646  37.373  43.976   0.911
57714W        W21647  37.530  42.466   2.356
57715W        W21648  41.961  12.349  14.813
57716W        W21649   9.643   5.744   1.367
57717W        W21650  15.604  22.193   3.190
57718W        W21651   5.702  37.508  12.896
57719W        W21652  43.315   3.785  11.880
57720W        W21653   3.288  37.520   3.835
57721W        W21654  27.009  15.819  12.455
57722W        W21655  26.511  11.709   3.328
57723W        W21656   2.724   4.925  13.502
57724W        W21657  43.996  11.175   1.747
57725W        W21658  12.187  31.565   2.813
57726W        W21659  10.319  21.596  11.384
57727W        W21660   7.389  37.414   1.335
57728W        W21661  10.731   4.329   2.685
57729W        W21662  37.365  33.919   1.445
57730W        W21663  11.788   9.708  13.005
57731W        W21664  31.953   1.787  11.447
57732W        W21665   1.816   7.866   1.856
57733W        W21666   3.382  28.566  14.820
57734W        W21667  13.769   5.788   9.957
57735W        W21668   8.216  21.543  12.401
57736W        W21669  33.078  21.260  14.921
57737W        W21670  41.299   4.939  13.891
57738W        W21671  30.462  43.829  13.033
57739W        W21672   3.821  43.346   3.638
57740W        W21673  36.030  31.494  13.541
57741W        W21674  25.171  39.522  11.958
57742W        W21675  37.947  37.427  13.407
57743W        W21676  22.060   2.399   0.965
57744W        W21677  11.667  19.262   2.223
57745W        W21678   4.373   6.336   3.272
57746W        W21679   1.477  40.428  13.901
57747W        W21680  29.425  20.669  11.989
57748W        W21681  20.062  38.504   4.809
57749W        W21682  14.832  31.125   3.783
57750W        W21683  21.716  21.256  14.843
57751W        W21684  12.261  32.017  14.873
57752W        W21685  38.822  17.299  14.396
57753W        W21686   4.383  42.478  11.050
57754W        W21687  17.215  23.666  14.020
57755W        W21688  15.760  16.229  11.974
57756W        W21689   3.428  10.797   3.805
57757W        W21690   8.308   8.755  11.403
57758W        W21691  29.532  13.741   0.339
57759W        W21692  38.498   8.169   4.650
57760W        W21693  27.118  35.560  12.944
57761W        W21694   2.296   3.811  12.460
57762W        W21695   1.921  29.429   1.852
57763W        W21696  31.061  17.567   3.643
57764W        W21697  18.590  11.854   5.150
57765W        W21698  40.972  24.107  11.880
57766W        W21699   8.345  17.148  13.379
57767W        W21700  20.061  28.097  12.494
57768W        W21701  36.377  24.109   2.416
57769W        W21702  11.848  35.397   0.343
57770W        W21703  28.972  36.893   1.792
57771W        W21704  32.637  15.176  11.089
57772W        W21705  21.050   8.355  14.011
57773W        W21706  39.960  41.375   2.228
57774W        W21707  22.578  25.046  11.121
57775W        W21708  14.113   4.832  14.836
57776W        W21709  21.213  30.606  13.970
57777W        W21710  39.381  31.951   9.920
57778W        W21711   1.267  31.612   4.799
57779W        W21712  28.438  44.859  12.897
57780W        W21713   4.302  16.767  11.376
57781W        W21714  28.669  40.800  11.603
57782W        W21715  14.209  34.968  14.510
57783W        W21716  12.694   8.806  10.425
57784W        W21717  32.423  30.453  14.279
57785W        W21718  14.287  19.274   4.706
57786W        W21719  39.035  20.750   3.231
57787W        W21720   0.269  12.305   3.225
57788W        W21721  39.930  24.512   3.260
57789W        W21722   1.411  30.049   4.643
57790W        W21723  26.625   1.438   5.211
57791W        W21724  32.599   4.270   2.713
57792W        W21725  33.068  27.634   4.239
57793W        W21726  11.339  32.962   2.283
57794W        W21727  42.776  27.486   2.418
57795W        W21728  27.972  26.114  14.307
57796W        W21729  36.592   7.839   3.780
57797W        W21730   8.692  33.450  13.519
57798W        W21731  16.129   0.795   4.782
57799W        W21732  41.520  28.662  14.490
57800W        W21733  33.992  22.552   4.760
57801W        W21734  14.694  27.641   1.723
57802W        W21735   1.396  25.041   5.291
57803W        W21736  31.452  26.628   0.849
57804W        W21737  11.859  12.748   0.338
57805W        W21738   9.348   2.412  11.886
57806W        W21739  14.738  30.569  11.863
57807W        W21740  22.110  44.300  14.335
57808W        W21741  40.307  21.166   1.934
57809W        W21742  27.142  20.130   1.829
57810W        W21743  30.122  43.814  14.283
57811W        W21744  21.723   3.454  12.361
57812W        W21745   3.258  11.318  11.441
57813W        W21746  33.019  27.556  10.629
57814W        W21747  16.779  40.524   4.246
57815W        W21748  17.790  34.427  12.461
57816W        W21749   9.163  40.971  12.481
57817W        W21750  40.416  34.902  10.039
57818W        W21751  11.141  39.903   3.281
57819W        W21752  37.460  43.411  10.506
57820W        W21753  17.225  32.543   0.309
57821W        W21754  42.352  22.029  13.347
57822W        W21755  38.926  22.546  14.443
57823W        W21756   4.432  22.113  10.969
57824W        W21757  22.740  26.969   1.743
57825W        W21758  14.824  27.510   2.852
57826W        W21759  16.791  29.922   2.726
57827W        W21760  10.309  36.970  13.311
57828W        W21761  22.723  22.532   3.847
57829W        W21762  12.696  33.613  13.415
57830W        W21763  15.649   3.894  13.035
57831W        W21764  36.591   9.367   2.418
57832W        W21765   1.950  30.161   4.161
57833W        W21766   9.178   1.443   2.397
57834W        W21767  33.921  19.710   3.367
57835W        W21768   1.430  13.666   9.475
57836W        W21769  15.243   4.304   3.194
57837W        W21770   0.389  31.053   1.236
57838W        W21771  43.504  33.440   3.642
57839W        W21772   1.795  25.125   4.663
57840W        W21773  38.376  22.160  13.444
57841W        W21774   4.715  43.306  12.345
57842W        W21775  12.340  25.971  10.891
57843W        W21776  31.507  44.365  11.479
57844W        W21777  39.436  30.462  10.577
57845W        W21778  24.712  20.096   3.667
57846W        W21779  27.625  24.677   3.355
57847W        W21780  30.587  26.998   3.326
57848W        W21781  40.012  32.129  14.358
57849W        W21782  10.713  28.614   1.292
57850W        W21783  26.515   6.320  14.292
57851W        W21784  33.101   4.395   3.749
57852W        W21785   5.770  14.294   3.729
57853W        W21786   9.164  36.442  12.568
57854W        W21787  38.940  18.081  13.365
57855W        W21788  43.795  12.281   3.208
57856W        W21789   7.833  15.255   1.364
57857W        W21790  44.835  44.997  14.317
57858W        W21791  31.072  35.389  11.954
57859W        W21792  26.628  44.373  11.995
57860W        W21793   2.319   1.295  10.580
57861W        W21794  13.162  25.700  12.064
57862W        W21795   4.714  31.056   1.306
57863W        W21796  29.937  13.707  11.512
57864W        W21797  17.581  25.628  14.378
57865W        W21798  13.793   9.221  10.932
57866W        W21799   2.433  23.142   4.798
57867W        W21800  11.286  34.965  13.462
57868W        W21801  36.995  40.946   4.656
57869W        W21802  37.922  22.166  14.941
57870W        W21803  16.672  36.093  10.006
57871W        W21804  25.106  26.659  14.511
57872W        W21805   8.793  44.423   4.323
57873W        W21806   9.384  17.129   3.260
57874W        W21807  15.690  20.529   4.133
57875W        W21808   2.966   4.897   4.292
57876W        W21809   6.792  14.320  13.461
57877W        W21810   9.788   9.353   2.341
57878W        W21811   0.860   1.965   3.273
57879W        W21812  24.087  33.547   0.352
57880W        W21813  10.292  38.344  10.545
57881W        W21814  33.058  26.116   3.240
57882W        W21815   9.887  17.093  10.949
57883W        W21816  18.707   1.432   2.379
57884W        W21817  36.481  21.625  11.994
57885W        W21818  20.577  24.535  11.518
57886W        W21819  28.518  39.929   3.804
57887W        W21820  32.550   7.278  14.308
57888W        W21821  19.069  34.577   4.628
57889W        W21822  21.020  43.479  13.794
57890W        W21823   5.712  30.646  14.806
57891W        W21824  38.883  44.388   2.829
57892W        W21825  31.948  18.608  12.876
57893W        W21826  25.205   8.855  14.924
57894W        W21827  23.607  13.782  11.600
57895W        W21828  15.631   1.291   1.349
57896W        W21829  10.164  19.097   2.281
57897W        W21830  26.679  29.609  12.571
57898W        W21831   2.907  36.508  13.064
57899W        W21832  20.674   3.867  12.862
57900W        W21833  37.867  12.844  10.506
57901W        W21834  28.107  42.489   0.761
57902W        W21835  25.049  20.091   2.222
57903W        W21836   9.664  14.337   4.720
57904W        W21837  10.279  27.614   4.246
57905W        W21838  17.079   8.700   0.915
57906W        W21839  17.289  33.621  13.322
57907W        W21840  14.120  33.534  11.086
57908W        W21841  23.065  24.123  14.959
57909W        W21842  32.929   0.914  10.495
57910W        W21843  39.964  19.743   2.386
57911W        W21844  25.979  32.927  12.461
57912W        W21845   1.790   1.324  14.397
57913W        W21846  13.160  12.323   0.302
57914W        W21847  21.686  39.898  14.328
57915W        W21848  28.669   5.753   3.173
57916W        W21849  26.683   6.335   4.779
57917W        W21850  38.064  21.570   2.337
57918W        W21851  10.727  40.522   0.757
57919W        W21852   5.326   8.836  12.917
57920W        W21853  42.011   4.247   4.683
57921W        W21854  15.120   3.381  14.440
57922W        W21855   1.755  11.737  13.028
57923W        W21856   3.788  16.657   1.829
57924W        W21857  13.777  29.129   1.880
57925W        W21858  34.378  36.456  14.442
57926W        W21859  21.243  43.283   5.145
57927W        W21860  36.853  31.923   1.382
57928W        W21861   5.406  26.063   3.773
57929W        W21862  21.707   6.730   2.805
57930W        W21863  27.530  12.243   4.786
57931W        W21864  36.420   1.473  13.064
57932W        W21865  12.752  40.314  14.511
57933W        W21866   7.759   8.376  11.118
57934W        W21867   8.347  20.664   2.721
57935W        W21868  20.073  37.901   3.651
57936W        W21869  37.388  18.672   2.197
57937W        W21870  13.318  42.014   2.400
57938W        W21871  24.482  28.499   2.765
57939W        W21872  27.015  44.407   0.920
57940W        W21873  39.851  41.386   4.151
57941W        W21874  15.751  37.393   4.773
57942W        W21875  25.064  15.201  13.811
57943W        W21876  18.671  10.320  11.388
57944W        W21877  12.802   6.298  13.986
57945W        W21878  17.570  19.654   3.713
57946W        W21879  36.534  42.457  14.989
57947W        W21880  17.246  40.538   2.699
57948W        W21881  13.226  27.077  11.018
57949W        W21882  36.376  33.944  14.388
57950W        W21883  14.702  20.045  14.319
57951W        W21884  31.910  44.825  11.613
57952W        W21885  42.026  26.090   0.925
57953W        W21886  41.961  28.121  10.630
57954W        W21887   8.235  34.607  12.408
57955W        W21888  27.605  26.696  14.304
57956W        W21889  28.598  31.503  12.512
57957W        W21890  33.509  16.302   0.934
57958W        W21891   8.390  26.194  12.001
57959W        W21892   6.257  27.108   3.657
57960W        W21893  23.639   2.327   0.851
57961W        W21894  18.657  14.834   3.763
57962W        W21895  28.179  12.232  12.447
57963W        W21896  41.445  26.164   0.358
57964W        W21897  42.782  19.553   2.807
57965W        W21898  39.997  16.595   4.263
57966W        W21899  35.916  15.261  11.391
57967W        W21900  24.190  28.502  12.873
57968W        W21901  21.198  32.542  14.017
57969W        W21902  35.864  10.148   9.966
57970W        W21903  13.271   5.736   0.899
57971W        W21904  34.533  12.688   1.410
57972W        W21905  20.189   7.887   3.869
57973W        W21906  44.503  30.655   4.809
57974W        W21907   2.913   1.430   3.194
57975W        W21908  14.161  12.214   4.156
57976W        W21909  27.058  30.573   5.156
57977W        W21910   8.791   1.801   9.636
57978W        W21911  25.494   9.194   0.837
57979W        W21912  44.867  10.334  13.486
57980W        W21913  33.380  26.690   3.188
57981W        W21914  26.081   8.854  11.539
57982W        W21915  37.961  42.913   1.401
57983W        W21916  14.718  22.678  12.889
57984W        W21917  22.202   8.886   4.206
57985W        W21918  14.827  27.539   0.748
57986W        W21919  29.458  23.009   3.295
57987W        W21920   7.271  26.688   9.550
57988W        W21921  32.443  42.492  10.640
57989W        W21922  36.469  10.653  12.080
57990W        W21923  10.148  10.699   4.295
57991W        W21924   6.733  28.087  14.797
57992W        W21925  41.819  31.918   3.280
57993W        W21926  30.613  18.076   3.812
57994W        W21927   2.862  26.990   3.635
57995W        W21928  41.950  42.932  12.573
57996W        W21929   3.342   2.841   0.759
57997W        W21930  11.262  40.842   3.208
57998W        W21931  28.158  34.554  10.127
57999W        W21932  18.595  31.051  12.072
58000W        W21933  15.740  13.204   4.261
58001W        W21934  26.083  35.378  13.547
58002W        W21935  42.808  29.478   0.337
58003W        W21936  20.074   3.748  14.881
58004W        W21937  40.349   1.741   1.820
58005W        W21938  43.297  44.438   0.867
58006W        W21939  16.742  10.719   1.789
58007W        W21940   2.885  35.591   1.798
58008W        W21941   4.822  31.439  14.337
58009W        W21942  25.507  26.541   4.161
58010W        W21943  27.656  27.556  14.020
58011W        W21944  37.530  32.568   1.445
58012W        W21945  38.388  23.517   0.406
58013W        W21946  17.625  22.688  14.291
58014W        W21947   5.353  27.494   0.381
58015W        W21948   4.802  31.530   3.360
58016W        W21949  22.029   7.394   3.749
58017W        W21950  13.797  18.740  12.943
58018W        W21951   6.750  37.570   4.349
58019W        W21952  30.450  19.145   4.761
58020W        W21953  16.113  36.459  11.396
58021W        W21954  30.524  25.536   1.905
58022W        W21955  16.313   5.332  13.796
58023W        W21956  14.305   8.240   1.933
58024W        W21957  15.702  19.143  11.124
58025W        W21958  25.667  44.401   3.845
58026W        W21959  37.420  44.335  12.519
58027W        W21960   7.223  30.020   4.731
58028W        W21961  13.803  22.578  13.823
58029W        W21962  20.655  13.700  13.315
58030W        W21963  16.086  39.469  14.418
58031W        W21964  41.499  33.441   1.809
58032W        W21965  36.063   3.786   0.312
58033W        W21966  44.797  11.247  11.580
58034W        W21967  41.390  40.477   1.273
58035W        W21968  24.616  14.757  13.344
58036W        W21969  17.773  10.732  14.402
58037W        W21970  42.476   7.278  10.628
58038W        W21971  25.495  15.170   2.285
58039W        W21972   8.187  28.497   2.180
58040W        W21973  29.927  30.579   3.689
58041W        W21974   8.274  31.645  14.024
58042W        W21975  41.865  16.652  12.998
58043W        W21976  34.936  24.482  12.900
58044W        W21977   6.855  39.367   2.287
58045W        W21978  21.586   8.355  13.909
58046W        W21979   6.286   2.267  13.005
58047W        W21980  21.672  39.550  13.054
58048W        W21981  26.463  37.462  14.962
58049W        W21982  38.387   0.744  13.008
58050W        W21983  20.749  20.722   1.217
58051W        W21984   1.786  27.162  14.901
58052W        W21985  15.611   0.833  12.044
58053W        W21986  10.757  34.873  13.399
58054W        W21987   1.885  13.127   0.423
58055W        W21988   0.390  20.591  12.980
58056W        W21989   4.730  34.976   2.795
58057W        W21990  14.296  15.706   3.650
58058W        W21991  30.048  35.941   3.247
58059W        W21992  36.051  24.664   3.634
58060W        W21993   0.275  26.016  13.527
58061W        W21994  29.489  26.148   2.890
58062W        W21995  26.554  37.456   2.774
58063W        W21996  17.697   1.765   4.315
58064W        W21997  23.541  21.682   4.610
58065W        W21998  20.691  14.661   3.250
58066W        W21999  21.114  23.210  12.024
58067W        W22000  42.821  38.895   2.837
58068W        W22001  41.824  26.701  14.021
58069W        W22002  18.212  39.973   1.865
58070W        W22003  44.288   2.292  12.506
58071W        W22004  24.017  26.173  12.462
58072W        W22005  20.095  39.824  10.136
58073W        W22006   5.774  14.762  13.940
58074W        W22007  44.354  21.529  12.360
58075W        W22008  15.734  37.978  14.859
58076W        W22009  34.458  18.669  10.591
58077W        W22010  16.567  27.943   0.829
58078W        W22011  11.345   9.749   0.299
58079W        W22012  18.123  18.072  11.041
58080W        W22013  21.069  15.130  14.468
58081W        W22014   9.651  30.601  11.076
58082W        W22015  17.234  13.747  11.555
58083W        W22016  11.164  13.845  11.505
58084W        W22017  13.194  21.161   1.769
58085W        W22018  44.320  12.761   1.853
58086W        W22019  10.208   4.763  14.455
58087W        W22020  11.647  35.435  14.426
58088W        W22021  26.179  10.751   0.783
58089W        W22022  30.516  19.210  11.889
58090W        W22023  41.324  21.695   1.244
58091W        W22024  44.455  41.356   3.675
58092W        W22025  39.993  28.033   4.318
58093W        W22026  19.780  43.463  14.958
58094W        W22027  19.277  23.068  14.358
58095W        W22028  24.210  26.549   2.307
58096W        W22029  26.482  14.701  10.493
58097W        W22030  15.146  11.698  11.086
58098W        W22031  13.299  36.489  11.988
58099W        W22032  14.136  25.663   0.894
58100W        W22033  32.437  37.086   0.932
58101W        W22034  26.523  18.681  14.454
58102W        W22035   8.900  26.683   1.881
58103W        W22036   5.851  37.967  11.997
58104W        W22037  40.826  36.875   4.733
58105W        W22038  22.131  21.066   0.334
58106W        W22039  43.487  11.132  13.968
58107W        W22040  31.062  39.329   2.351
58108W        W22041  21.214   2.260   3.247
58109W        W22042  41.453   6.198  12.010
58110W        W22043  38.978  42.376   3.791
58111W        W22044   5.781  35.080  14.761
58112W        W22045   8.886  20.670  12.853
58113W        W22046  43.920  42.372  12.535
58114W        W22047  31.406   8.827  13.424
58115W        W22048  43.457  32.533  12.907
58116W        W22049   3.310  27.001   2.856
58117W        W22050  42.947  21.194   1.930
58118W        W22051  44.913  42.374   2.278
58119W        W22052  16.313  27.556   0.758
58120W        W22053  27.676  29.543   4.257
58121W        W22054   9.769   3.928   2.377
58122W        W22055  39.050  34.585   1.309
58123W        W22056  25.084  24.984   4.687
58124W        W22057  42.359  17.264  13.356
58125W        W22058  29.526  23.172   2.759
58126W        W22059  41.814  20.248   3.781
58127W        W22060  17.188  22.654   1.808
58128W        W22061   7.873  17.194  12.831
58129W        W22062   1.794  11.648  11.426
58130W        W22063  27.978  35.389   2.197
58131W        W22064   2.836  42.782   0.887
58132W        W22065  17.778  34.098  11.384
58133W        W22066  33.092  24.231   2.226
58134W        W22067   6.293  18.688   0.729
58135W        W22068  31.040  32.904   4.703
58136W        W22069  38.378  21.181  13.874
58137W        W22070   5.242  43.284   2.731
58138W        W22071   6.918   7.716  12.823
58139W        W22072   6.273  35.580   2.782
58140W        W22073   6.392  42.026  13.958
58141W        W22074  41.813   8.791   4.731
58142W        W22075   1.823   5.220   0.336
58143W        W22076   5.746   5.203  11.017
58144W        W22077  27.053  14.727   3.224
58145W        W22078  11.802  37.394   9.947
58146W        W22079  44.950  15.248  11.441
58147W        W22080  42.813  23.661  12.066
58148W        W22081  25.632  13.219  11.006
58149W        W22082  26.535  43.509  12.570
58150W        W22083   8.827   8.709   1.313
58151W        W22084  43.417  40.958  10.555
58152W        W22085  11.293  26.529  11.598
58153W        W22086  40.931  24.991  13.324
58154W        W22087  19.710  16.223   0.407
58155W        W22088  37.061  13.666  14.009
58156W        W22089  31.110  30.635   0.862
58157W        W22090  28.058   6.269   3.358
58158W        W22091  38.891   4.447   2.244
58159W        W22092   7.827   3.920  11.520
58160W        W22093   8.736  32.632  12.900
58161W        W22094  10.811  12.297  12.055
58162W        W22095  41.957   3.226   0.826
58163W        W22096  32.885  38.528  14.023
58164W        W22097  24.694  13.633   3.869
58165W        W22098  42.419  36.016  11.559
58166W        W22099  30.566  32.906   1.829
58167W        W22100  11.622  24.168   1.329
58168W        W22101   3.354  30.102  12.438
58169W        W22102  12.675  43.437   0.826
58170W        W22103  41.511  12.789   3.663
58171W        W22104   6.683  20.124   2.870
58172W        W22105  19.257  41.927   0.905
58173W        W22106  21.615  23.526   4.231
58174W        W22107  14.136   4.855  11.576
58175W        W22108  28.058   5.324  13.534
58176W        W22109  35.103  22.208   1.751
58177W        W22110   0.754  44.929  13.972
58178W        W22111  36.366  11.635  12.965
58179W        W22112  38.002  42.345   4.142
58180W        W22113  29.031  16.634   3.218
58181W        W22114  28.038  35.909  10.904
58182W        W22115   7.676  19.554   3.814
58183W        W22116  16.103  41.008  12.577
58184W        W22117  17.682   1.749  11.601
58185W        W22118  14.174  42.447   0.938
58186W        W22119  32.566   9.239   1.326
58187W        W22120  28.559  31.611  10.976
58188W        W22121  28.932  34.525  12.550
58189W        W22122  16.084  22.178   0.297
58190W        W22123  36.350  39.351  11.955
58191W        W22124  33.426  22.511  11.887
58192W        W22125   4.304  40.037   2.839
58193W        W22126  28.679  31.018  13.421
58194W        W22127   2.248  44.812   4.710
58195W        W22128  23.027  27.097  12.003
58196W        W22129  42.997  24.991   3.385
58197W        W22130  39.413  22.083   3.861
58198W        W22131  21.045  34.383  12.577
58199W        W22132  39.937  37.465  12.907
58200W        W22133  31.583  38.383  13.527
58201W        W22134  34.456  11.840  11.939
58202W        W22135  36.527  41.939   3.321
58203W        W22136  15.270   2.834  13.994
58204W        W22137   6.867  21.073   4.612
58205W        W22138  35.915   7.779  13.341
58206W        W22139  36.932  25.977  14.478
58207W        W22140  39.507  10.294  13.909
58208W        W22141  26.149  23.045  11.076
58209W        W22142  22.516  24.106  13.849
58210W        W22143   0.954  11.652   4.692
58211W        W22144  40.528  42.878   4.697
58212W        W22145   6.835  34.588  11.441
58213W        W22146  17.782  13.666   1.834
58214W        W22147  13.600  18.131  12.406
58215W        W22148   5.839   4.793   0.269
58216W        W22149  33.525  41.972  11.059
58217W        W22150  22.070  12.241   3.376
58218W        W22151  10.210  15.132  12.443
58219W        W22152  31.044  41.015  11.534
58220W        W22153  12.646   3.257   4.806
58221W        W22154  28.517   5.293   0.287
58222W        W22155  43.846  22.665  11.490
58223W        W22156  40.908  40.336   1.876
58224W        W22157  11.840   6.189  14.434
58225W        W22158  44.970  13.735  10.900
58226W        W22159   2.913  27.464   4.234
58227W        W22160  26.180  35.503  11.916
58228W        W22161  40.528  12.657   2.785
58229W        W22162  17.198  11.222  11.402
58230W        W22163  39.319  23.683  10.995
58231W        W22164  28.488  16.806   0.889
58232W        W22165  10.163  28.660   3.677
58233W        W22166  21.095   4.712   2.755
58234W        W22167  13.651  34.476  12.463
58235W        W22168  31.453   2.336   0.936
58236W        W22169  27.139  12.769   0.249
58237W        W22170  36.451  29.441   3.836
58238W        W22171  20.037  29.058  10.559
58239W        W22172  41.019  27.048  10.973
58240W        W22173  39.816  21.198   1.315
58241W        W22174  24.204  44.480   1.798
58242W        W22175  40.520  15.708  14.797
58243W        W22176  20.256  24.095  11.453
58244W        W22177   3.835  40.388  11.898
58245W        W22178  31.059  13.349   3.812
58246W        W22179  16.724  11.697  13.321
58247W        W22180   4.442  44.786  12.340
58248W        W22181  28.509  21.601  10.903
58249W        W22182  40.346  16.720   0.329
58250W        W22183  15.620  16.732  11.030
58251W        W22184  28.504  21.648   3.791
58252W        W22185  31.603  38.367  13.879
58253W        W22186   5.874   4.909  13.354
58254W        W22187  40.493  16.243   2.761
58255W        W22188  30.470   6.390   2.309
58256W        W22189  33.875  43.858   2.836
58257W        W22190   6.887  35.978  14.280
58258W        W22191  27.959  17.755  11.094
58259W        W22192  26.023  21.143   3.677
58260W        W22193  23.575  14.782  13.351
58261W        W22194  43.919  11.734  14.308
58262W        W22195   3.434   5.283  14.913
58263W        W22196  27.583   5.417   4.625
58264W        W22197  13.843   6.229  14.839
58265W        W22198  39.506  43.482  14.404
58266W        W22199  35.031  33.953   2.357
58267W        W22200  42.423   7.825   3.745
58268W        W22201   5.253  43.277  11.105
58269W        W22202   3.438   5.918  12.447
58270W        W22203  44.413  31.614   3.806
58271W        W22204  39.901   6.268  10.541
58272W        W22205  13.314  32.897  11.068
58273W        W22206  24.073  38.426   3.634
58274W        W22207  20.232  33.619   1.294
58275W        W22208  21.236   2.769   4.230
58276W        W22209  15.660  16.163   3.630
58277W        W22210  41.828  20.164  13.990
58278W        W22211  28.561  35.446  14.510
58279W        W22212  19.279  17.174   1.778
58280W        W22213  41.880  11.852  10.533
58281W        W22214  34.901  42.442  12.369
58282W        W22215   2.397  41.000   3.849
58283W        W22216  25.551  11.678   2.385
58284W        W22217   3.270  44.448   3.823
58285W        W22218  10.806   5.898  11.488
58286W        W22219  23.231   5.194  12.374
58287W        W22220  27.611  19.210  10.454
58288W        W22221   5.307  29.630   1.887
58289W        W22222  33.009   4.857   0.285
58290W        W22223  32.494   5.877   4.189
58291W        W22224   8.225  24.214   4.330
58292W        W22225  38.996  27.169   3.784
58293W        W22226  36.354  21.117   4.774
58294W        W22227  23.548   5.435   3.693
58295W        W22228  36.380  12.254   3.373
58296W        W22229   4.760   0.901  12.512
58297W        W22230   9.158   0.295  14.294
58298W        W22231  24.990  35.396   2.782
58299W        W22232  40.876  36.470   0.790
58300W        W22233  22.531  14.154   4.726
58301W        W22234   7.265  14.782   3.284
58302W        W22235  42.329  42.884   4.157
58303W        W22236  44.350   8.875   2.326
58304W        W22237  35.457  14.133   2.385
58305W        W22238  35.579  26.603   1.419
58306W        W22239  10.686  24.988   2.766
58307W        W22240  18.565   1.335   4.131
58308W        W22241   3.725  26.956  14.874
58309W        W22242  25.091  24.230  12.482
58310W        W22243  16.281  31.567  11.946
58311W        W22244  24.665  23.994   4.133
58312W        W22245  30.932   8.805  13.417
58313W        W22246  43.963   5.760  11.513
58314W        W22247   3.844   4.364   3.155
58315W        W22248  14.146  14.284  11.466
58316W        W22249  14.822  22.644   1.934
58317W        W22250  40.433  23.146  10.479
58318W        W22251   6.379  23.659  14.384
58319W        W22252  31.958   6.746  12.479
58320W        W22253  11.747  41.519  11.002
58321W        W22254  23.092  24.070  10.411
58322W        W22255   0.927  22.019  11.410
58323W        W22256   8.824  34.436   1.737
58324W        W22257   0.280  30.620   4.170
58325W        W22258  19.268  18.643  11.391
58326W        W22259   1.418  10.641   2.849
58327W        W22260  13.158  41.327   2.277
58328W        W22261  27.527   7.725  13.949
58329W        W22262  42.369  32.538   2.757
58330W        W22263  30.621  11.238   2.814
58331W        W22264  36.941   0.321   2.786
58332W        W22265  22.733   2.813  14.294
58333W        W22266  11.797  35.399  13.911
58334W        W22267  29.487  34.114   3.347
58335W        W22268  23.120  17.291  13.819
58336W        W22269  36.463  28.490  11.495
58337W        W22270  33.020  21.190  13.885
58338W        W22271  43.824   2.815   2.325
58339W        W22272   6.903  14.142   1.753
58340W        W22273  18.195  18.729  12.358
58341W        W22274  11.698   3.441   5.120
58342W        W22275  28.672  14.783  14.422
58343W        W22276  20.667  31.055  11.951
58344W        W22277  18.296  21.169   2.756
58345W        W22278  39.465   2.435  12.548
58346W        W22279  34.023  22.532   3.253
58347W        W22280  37.445   6.413   2.415
58348W        W22281  27.058  10.771  11.892
58349W        W22282  27.943  19.709   2.671
58350W        W22283  29.581   8.406   1.875
58351W        W22284  26.502  21.664  12.842
58352W        W22285  18.717  24.068   0.745
58353W        W22286  36.408  30.960   0.476
58354W        W22287  39.922  13.779  11.527
58355W        W22288   0.391  42.337   3.357
58356W        W22289  10.295  21.525   1.386
58357W        W22290   6.747  20.082   1.356
58358W        W22291  19.055  32.965  10.910
58359W        W22292   1.429  20.659   3.325
58360W        W22293  30.099  21.548   1.787
58361W        W22294  32.082  23.085  11.453
58362W        W22295  38.074   3.410   5.124
58363W        W22296  39.448  41.305  14.030
58364W        W22297   9.198  41.378  13.000
58365W        W22298  35.466   1.367  12.890
58366W        W22299  27.170  28.162  12.444
58367W        W22300  19.066   9.770   1.836
58368W        W22301  16.306  37.000   2.709
58369W        W22302  22.094  44.986   2.260
58370W        W22303   0.775  34.467   1.784
58371W        W22304  10.353   6.856   2.279
58372W        W22305  30.103  13.740   0.939
58373W        W22306  21.687  38.915   2.780
58374W        W22307  35.054  35.964  12.384
58375W        W22308   5.864  28.679  12.379
58376W        W22309   3.417  29.488   0.922
58377W        W22310  39.878  42.943   1.284
58378W        W22311  23.056  23.559  13.463
58379W        W22312   6.350   2.859  11.890
58380W        W22313   8.743  27.481  10.134
58381W        W22314   5.871  43.932   1.844
58382W        W22315   9.687  41.383  13.984
58383W        W22316   7.810  21.193   1.242
58384W        W22317   2.359   8.316   3.320
58385W        W22318  10.741  33.466  11.901
58386W        W22319  37.990  27.078   3.728
58387W        W22320  35.940  18.272  12.963
58388W        W22321  26.653  36.050  11.086
58389W        W22322  34.556  26.482   1.753
58390W        W22323   9.777  26.541   4.731
58391W        W22324  13.634  33.421   0.266
58392W        W22325  25.519  18.216  10.899
58393W        W22326  44.890   2.721  11.940
58394W        W22327   8.804  24.040   2.751
58395W        W22328   9.304  28.623  11.864
58396W        W22329  32.424  38.515   0.819
58397W        W22330  31.404   4.207  14.021
58398W        W22331   7.297  18.136   3.703
58399W        W22332  21.244  31.570  10.412
58400W        W22333   8.765  35.910   4.729
58401W        W22334  41.510   9.300  13.481
58402W        W22335   2.951  43.848  13.908
58403W        W22336  13.242   7.215  12.915
58404W        W22337  10.697   4.345   4.692
58405W        W22338  27.990   3.909  11.377
58406W        W22339  37.495  37.930   3.848
58407W        W22340  37.490  37.967  11.061
58408W        W22341  15.268  25.709  11.607
58409W        W22342  11.648   5.821  13.503
58410W        W22343   5.315   3.853  14.328
58411W        W22344   4.281  25.522   9.450
58412W        W22345  28.077   7.230  13.354
58413W        W22346  14.147  36.525  13.345
58414W        W22347  42.811  28.611   4.249
58415W        W22348  23.653  14.139  11.046
58416W        W22349   4.337   5.368   0.818
58417W        W22350  16.681   8.201  14.879
58418W        W22351  26.996  21.037  12.957
58419W        W22352  42.419  29.936   3.721
58420W        W22353  16.761  13.337  14.811
58421W        W22354   0.280  30.058   0.257
58422W        W22355  16.686  11.688  11.437
58423W        W22356  12.853   2.730   1.316
58424W        W22357   1.853  17.298  14.427
58425W        W22358  24.172  10.299   9.951
58426W        W22359  20.561  42.835   3.754
58427W        W22360  43.322  32.121   3.213
58428W        W22361  28.503  28.136  13.823
58429W        W22362  32.926  18.058  11.487
58430W        W22363  37.082  39.897   3.682
58431W        W22364  22.044   6.321   1.270
58432W        W22365  28.486  12.290   4.669
58433W        W22366  27.118  26.547  11.095
58434W        W22367  40.492  38.462   2.797
58435W        W22368  36.066  36.884  12.988
58436W        W22369  10.818  41.845   2.272
58437W        W22370  39.961  36.076   0.301
58438W        W22371  18.201  28.533   2.346
58439W        W22372  40.962  26.607   5.122
58440W        W22373   6.280  12.189   0.935
58441W        W22374  43.995  44.887   2.269
58442W        W22375   1.811  15.795   1.924
58443W        W22376  44.965  32.906   4.214
58444W        W22377   2.239  15.106   0.472
58445W        W22378   5.340  38.913   3.190
58446W        W22379  33.084   9.714  10.954
58447W        W22380  17.765   0.440  12.016
58448W        W22381  20.138  40.355   1.707
58449W        W22382  44.855  18.177  11.563
58450W        W22383  27.039   3.771   1.344
58451W        W22384  12.756   2.350  11.119
58452W        W22385  25.610  18.137   3.155
58453W        W22386   4.818  21.732  11.971
58454W        W22387   6.352  41.514   0.380
58455W        W22388  42.311   5.434   4.604
58456W        W22389  31.468  28.447   1.895
58457W        W22390   9.736  32.055  11.951
58458W        W22391  16.587  15.283  11.571
58459W        W22392  19.116   4.422   0.314
58460W        W22393  33.490   0.848   3.763
58461W        W22394  15.139  18.555  11.925
58462W        W22395  20.176  18.673   4.214
58463W        W22396  28.071  12.855   2.739
58464W        W22397  22.522  17.775  14.001
58465W        W22398  25.170  17.102  11.603
58466W        W22399  38.855  30.981   2.733
58467W        W22400  35.362  23.726   1.298
58468W        W22401  27.097  21.212  11.434
58469W        W22402  24.704  40.395   0.786
58470W        W22403   2.742  29.567  11.085
58471W        W22404  12.258   7.797   1.361
58472W        W22405  22.569  33.992   4.320
58473W        W22406   0.294  29.945   4.675
58474W        W22407  14.325  27.473   0.314
58475W        W22408  11.163  34.466  12.857
58476W        W22409  11.668  25.061   2.827
58477W        W22410   6.732  19.565   2.765
58478W        W22411  11.772  33.075  12.373
58479W        W22412  22.020  34.997  14.408
58480W        W22413   8.845  28.655   1.259
58481W        W22414  31.118  23.563   1.345
58482W        W22415  37.868  18.708   0.332
58483W        W22416  24.653  11.857   3.680
58484W        W22417  36.496  28.142   2.768
58485W        W22418  36.480  42.906   3.803
58486W        W22419   4.772  25.696  13.919
58487W        W22420   9.787  33.606   2.806
58488W        W22421  10.813   6.805  11.062
58489W        W22422  14.248  10.667   1.772
58490W        W22423  34.407  41.853   3.749
58491W        W22424  39.811  38.837  11.585
58492W        W22425  42.338  42.978  12.002
58493W        W22426  44.406  23.520  14.410
58494W        W22427  17.216   4.830  14.029
58495W        W22428  25.984   4.340   4.749
58496W        W22429  29.107   1.746  13.990
58497W        W22430  25.478  43.996   1.694
58498W        W22431  33.964   0.931  10.593
58499W        W22432  27.052  16.707   0.253
58500W        W22433  40.978  35.978   0.754
58501W        W22434  25.176  32.005  12.471
58502W        W22435  42.826  43.475  12.045
58503W        W22436   6.882  44.918  10.420
58504W        W22437  33.489  13.785   2.707
58505W        W22438   8.869  19.248   3.719
58506W        W22439   0.488  12.709   2.190
58507W        W22440  43.391  41.918   3.328
58508W        W22441  35.001  41.873  12.976
58509W        W22442  30.474  12.247   3.147
58510W        W22443  16.296  16.697  12.486
58511W        W22444  20.182   9.242   1.400
58512W        W22445  25.090   5.886   2.274
58513W        W22446  18.706  40.812   4.318
58514W        W22447  12.801  24.216  10.534
58515W        W22448  20.238   8.254  11.078
58516W        W22449  10.664  41.325   5.270
58517W        W22450   9.710  21.522   4.805
58518W        W22451  28.018  31.961  12.930
58519W        W22452  24.684  13.733  11.931
58520W        W22453   7.711  31.620   2.370
58521W        W22454   9.209  35.952   0.747
58522W        W22455   7.199  15.263  14.969
58523W        W22456  32.887  12.190  14.774
58524W        W22457  27.011  26.144  10.918
58525W        W22458  44.326  28.065   5.224
58526W        W22459  23.495  44.486  11.940
58527W        W22460   3.923  33.023  13.003
58528W        W22461  41.332  21.743  12.074
58529W        W22462  13.695  39.540  10.892
58530W        W22463  18.253  17.612   4.726
58531W        W22464  42.947  33.069  13.464
58532W        W22465  36.456  10.301   5.146
58533W        W22466  39.544  30.938   4.308
58534W        W22467  26.548  43.470   9.979
58535W        W22468  18.174   6.811  14.320
58536W        W22469  41.848  39.826  10.451
58537W        W22470  12.293  23.005  11.127
58538W        W22471  44.761  26.046   1.230
58539W        W22472  39.560  15.204  11.010
58540W        W22473  43.430  19.145   2.181
58541W        W22474  19.627  18.789   0.754
58542W        W22475  32.408  29.052  11.926
58543W        W22476  22.708  11.178   2.765
58544W        W22477  14.116  17.235  11.515
58545W        W22478  18.737  18.176  14.833
58546W        W22479  12.150   4.386   1.830
58547W        W22480  14.638  39.010  14.853
58548W        W22481   3.403  10.868   1.408
58549W        W22482  27.664   9.202   1.408
58550W        W22483  30.163  21.029   1.826
58551W        W22484  44.349  40.815  14.893
58552W        W22485  29.624  12.674   1.275
58553W        W22486  39.466   1.329   2.783
58554W        W22487  21.038  29.950  13.041
58555W        W22488  41.332  13.609   4.738
58556W        W22489  22.551  14.624  11.866
58557W        W22490   1.773  30.097  13.014
58558W        W22491  26.531  36.966  12.902
58559W        W22492   1.440  11.200  12.021
58560W        W22493   9.845  22.688   0.469
58561W        W22494  27.691  38.991   2.862
58562W        W22495   4.314  44.891   4.633
58563W        W22496  18.233  40.942  13.437
58564W        W22497  21.130  12.236   1.238
58565W        W22498  31.127   6.904   2.705
58566W        W22499  37.958  13.737   0.347
58567W        W22500  36.441  38.825   2.178
58568W        W22501   6.780  20.529   1.418
58569W        W22502  20.686  24.621  12.864
58570W        W22503   5.700   1.893  11.573
58571W        W22504   3.787  30.106  14.824
58572W        W22505  31.961  36.418   2.819
58573W        W22506   9.249   5.690  13.805
58574W        W22507  28.651  43.829   3.294
58575W        W22508  15.779  39.454  11.909
58576W        W22509  12.297  36.020   2.776
58577W        W22510  25.125  37.866   1.311
58578W        W22511   4.901  19.743  13.981
58579W        W22512  30.914  27.967  13.914
58580W        W22513  41.963  28.590   0.329
58581W        W22514  32.600  33.119   2.318
58582W        W22515  26.180   6.694  11.879
58583W        W22516   1.938  13.277   2.814
58584W        W22517  26.620  27.516   4.348
58585W        W22518  37.386  17.778  11.100
58586W        W22519  21.654  26.090  14.957
58587W        W22520   7.402  19.255   2.844
58588W        W22521  15.180  20.258   0.764
58589W        W22522  33.575  13.156   1.344
58590W        W22523  27.990  15.732   4.826
58591W        W22524  16.783  38.840   1.284
58592W        W22525  30.162   1.441   4.787
58593W        W22526  28.979   0.465  12.000
58594W        W22527   4.412   0.286  13.454
58595W        W22528  34.560  16.785   1.816
58596W        W22529  30.457   7.839  13.802
58597W        W22530  40.463  42.422  10.608
58598W        W22531  21.145   9.161  14.973
58599W        W22532  26.702   2.393   5.754
58600W        W22533   2.274   5.833   2.184
58601W        W22534  41.362  25.092   2.891
58602W        W22535   4.275  43.381   4.135
58603W        W22536   9.253  14.319  10.419
58604W        W22537  15.291   1.884  11.118
58605W        W22538  21.041   0.289  14.426
58606W        W22539   2.841  20.212  11.950
58607W        W22540  10.824  36.583   2.881
58608W        W22541   6.205  41.467   3.255
58609W        W22542  33.038  10.749  14.028
58610W        W22543  31.524   7.391  14.305
58611W        W22544  13.812  26.526  10.138
58612W        W22545  12.300  33.449   2.285
58613W        W22546  29.101  10.141  14.025
58614W        W22547   7.360   1.376  12.888
58615W        W22548   0.319  35.413   0.900
58616W        W22549  31.545  44.289   2.764
58617W        W22550  21.513  14.658   0.284
58618W        W22551  44.953  33.934   4.624
58619W        W22552  18.142   6.910  11.010
58620W        W22553   1.276   3.889   1.367
58621W        W22554  32.555   9.811  14.834
58622W        W22555  15.621  35.569  14.504
58623W        W22556  36.892  25.166  12.450
58624W        W22557  14.175  26.585  14.308
58625W        W22558  29.077   4.305  10.991
58626W        W22559  42.961  36.982  12.860
58627W        W22560  21.549  41.419  11.883
58628W        W22561  15.822  17.705  10.051
58629W        W22562  18.558  12.849   0.410
58630W        W22563   9.863   6.232  13.411
58631W        W22564   1.446  11.223   3.659
58632W        W22565  29.028  44.457  13.434
58633W        W22566  29.632  18.165  11.003
58634W        W22567  10.849   3.370   1.910
58635W        W22568  25.498  36.449   1.297
58636W        W22569  32.442   7.196  13.906
58637W        W22570   2.286  44.931  14.979
58638W        W22571   2.942  43.376   4.764
58639W        W22572  38.452   6.904  11.477
58640W        W22573  35.411  39.474  10.893
58641W        W22574  42.407  18.717   3.203
58642W        W22575  36.094  38.997   5.181
58643W        W22576  10.742  17.731  10.533
58644W        W22577  11.627   1.444  10.930
58645W        W22578  39.468  16.314   2.690
58646W        W22579  10.705  31.486  13.019
58647W        W22580   1.393  16.694   1.415
58648W        W22581  39.888  39.531  14.002
58649W        W22582   9.165  30.141   2.267
58650W        W22583  26.006  36.877  13.941
58651W        W22584  19.259  18.248  11.941
58652W        W22585  18.242   9.704  14.939
58653W        W22586   8.337  27.623  11.582
58654W        W22587  24.978  19.658   0.304
58655W        W22588  38.530  37.859  13.897
58656W        W22589  14.793  25.071   5.200
58657W        W22590  23.201  29.925  14.859
58658W        W22591  41.527   9.705   0.936
58659W        W22592   8.161  30.443  11.000
58660W        W22593  11.194  29.155  14.943
58661W        W22594   9.383   4.798   1.862
58662W        W22595   3.328  38.870  14.296
58663W        W22596   7.777  20.125  10.618
58664W        W22597  15.189  26.495   3.287
58665W        W22598  19.051  18.669   3.636
58666W        W22599  44.350   3.940  12.339
58667W        W22600   7.672  39.316   1.791
58668W        W22601  14.323  37.881   1.411
58669W        W22602   1.900  34.397  13.034
58670W        W22603  36.405  29.069  14.813
58671W        W22604  28.539  24.202  12.570
58672W        W22605  31.608  28.489  14.774
58673W        W22606  15.089  23.128  11.965
58674W        W22607  17.202  20.574   3.817
58675W        W22608  29.949   8.271   1.224
58676W        W22609  33.469  42.871  10.099
58677W        W22610   3.300  38.989   2.332
58678W        W22611  41.347  28.561  14.995
58679W        W22612  17.114  16.158  14.812
58680W        W22613  10.258   3.931  14.320
58681W        W22614  15.161   4.904   4.116
58682W        W22615  35.557  30.506   2.822
58683W        W22616  35.882   4.439  14.310
58684W        W22617  30.635  22.574   0.870
58685W        W22618   8.682  24.037   0.399
58686W        W22619  34.409  11.266  13.913
58687W        W22620   5.914  10.742  10.625
58688W        W22621  39.402  39.946  12.343
58689W        W22622  31.607  31.622   4.213
58690W        W22623  33.396  11.164   1.276
58691W        W22624   4.439  40.414   2.833
58692W        W22625  14.662   0.971   4.800
58693W        W22626  29.448   8.676  12.844
58694W        W22627  23.657  39.910   0.803
58695W        W22628  37.408  31.515  10.958
58696W        W22629   9.766   2.259  14.782
58697W        W22630  35.087  28.504  10.467
58698W        W22631  25.028  22.544   0.812
58699W        W22632  19.762  37.401   3.857
58700W        W22633  43.421  19.106   3.253
58701W        W22634  43.343  15.192  14.993
58702W        W22635  14.589  30.934   2.670
58703W        W22636  14.185   0.872  14.938
58704W        W22637  34.054  22.589  10.524
58705W        W22638   2.427  29.079  14.400
58706W        W22639  28.142  22.713  11.509
58707W        W22640  20.264   5.732   3.743
58708W        W22641  33.429   4.397   2.357
58709W        W22642  38.894  36.471   0.285
58710W        W22643  10.670   2.230  12.017
58711W        W22644  42.423  43.419   3.818
58712W        W22645  19.108  26.615  10.973
58713W        W22646  10.340  26.984   0.732
58714W        W22647  37.499  34.571   0.775
58715W        W22648   1.254   7.239  12.954
58716W        W22649  28.637  18.670  10.899
58717W        W22650  12.350  20.255  13.435
58718W        W22651  23.540  32.888  12.341
58719W        W22652  25.068  17.683  12.850
58720W        W22653  20.653  11.306   0.900
58721W        W22654  42.818  43.772   2.726
58722W        W22655  14.108  22.668  14.303
58723W        W22656  33.417   7.800   0.298
58724W        W22657  21.628  19.674  14.399
58725W        W22658  37.488  12.821   0.290
58726W        W22659  41.866  28.088  14.385
58727W        W22660  27.004  27.471   4.175
58728W        W22661  12.165  42.395   3.191
58729W        W22662  17.203  31.920   3.290
58730W        W22663  24.536  30.981  12.993
58731W        W22664  14.111  26.515  12.396
58732W        W22665  22.076  21.742  12.972
58733W        W22666  44.454  41.448   3.343
58734W        W22667   8.702  28.117  11.987
58735W        W22668  33.399  14.822  13.871
58736W        W22669   2.377  33.383  10.888
58737W        W22670  15.094  14.259  13.949
58738W        W22671  20.595  22.576   2.255
58739W        W22672  37.028  25.670  14.505
58740W        W22673  36.487  38.056   2.217
58741W        W22674   2.354   8.770   5.180
58742W        W22675  42.810  24.004  13.346
58743W        W22676  15.326  25.146   2.830
58744W        W22677   4.241  38.989  13.378
58745W        W22678   5.919  34.419   4.203
58746W        W22679  39.932   0.967  13.500
58747W        W22680  24.139  29.125  10.519
58748W        W22681   6.425  39.362  11.584
58749W        W22682  15.322  11.189  13.035
58750W        W22683  43.495  34.544  13.540
58751W        W22684  41.010  43.356   1.921
58752W        W22685   2.785  34.870  11.475
58753W        W22686  21.135  34.042  14.926
58754W        W22687  27.472  12.616   1.862
58755W        W22688   4.755  36.969  14.879
58756W        W22689   1.946  10.311   1.427
58757W        W22690  13.244   3.802   4.653
58758W        W22691  30.082  11.362   2.270
58759W        W22692  32.128  15.154  12.513
58760W        W22693  42.482   8.717  10.407
58761W        W22694  34.917  15.243   2.780
58762W        W22695  32.586   6.771  14.864
58763W        W22696  36.868   2.794  11.987
58764W        W22697   2.302  44.876  11.096
58765W        W22698  36.940  19.604  14.424
58766W        W22699  19.646   8.357  14.500
58767W        W22700   1.784  28.967  14.971
58768W        W22701  33.971  26.004  11.495
58769W        W22702  42.833  12.614   2.345
58770W        W22703   3.821  17.183  12.988
58771W        W22704  17.710  21.040  14.422
58772W        W22705  31.941  41.998   3.725
58773W        W22706   9.651  23.093   3.808
58774W        W22707  39.366  20.161   4.649
58775W        W22708  16.803  15.695  14.934
58776W        W22709   0.967  12.635  13.897
58777W        W22710   7.336   9.649   1.277
58778W        W22711  18.235  41.490   0.870
58779W        W22712  44.324  34.001   4.191
58780W        W22713  24.617  24.059   1.816
58781W        W22714   5.375  31.919   1.887
58782W        W22715   1.954  21.556  11.519
58783W        W22716  15.087  24.579  12.927
58784W        W22717  18.116  41.926   0.373
58785W        W22718  21.750  39.023  13.539
58786W        W22719   7.908   1.941   0.758
58787W        W22720  28.162  41.866  10.964
58788W        W22721   8.331  14.336  10.587
58789W        W22722  39.436  31.531   4.717
58790W        W22723  18.275   1.336  13.825
58791W        W22724  35.965   9.646  11.520
58792W        W22725  41.956  23.559   4.729
58793W        W22726  39.896  15.244   2.777
58794W        W22727  41.890  35.883  13.976
58795W        W22728  21.543  27.502  10.409
58796W        W22729  34.109  20.702   0.337
58797W        W22730  17.563   2.333  12.418
58798W        W22731  41.380  18.296   1.422
58799W        W22732  12.149  44.901   3.785
58800W        W22733  41.346  13.666  10.515
58801W        W22734  26.582  24.681   2.703
58802W        W22735  15.804  33.455  10.613
58803W        W22736  15.317  24.129  11.606
58804W        W22737  44.924  27.025  14.020
58805W        W22738  43.807  32.426  12.875
58806W        W22739  34.884  19.553   4.611
58807W        W22740  17.228  43.386   4.346
58808W        W22741  44.985  27.192   4.162
58809W        W22742  29.046  42.446  10.418
58810W        W22743   4.824  20.691  12.026
58811W        W22744  36.572   6.680  12.448
58812W        W22745  44.797  11.839  12.464
58813W        W22746  31.939  37.060   4.253
58814W        W22747   6.759  42.956   2.823
58815W        W22748   8.717  23.594  11.604
58816W        W22749  41.848  38.442  13.049
58817W        W22750  20.066  44.817  13.315
58818W        W22751  41.836  30.610  12.430
58819W        W22752   6.859  21.611   2.272
58820W        W22753  23.502  16.621  10.422
58821W        W22754   2.777   7.843  14.795
58822W        W22755  16.258   1.879  13.039
58823W        W22756  35.410  36.936   1.934
58824W        W22757  36.477  34.926   1.226
58825W        W22758  21.558   5.759  12.026
58826W        W22759   2.255   8.862  11.597
58827W        W22760  40.500  13.131  14.509
58828W        W22761  33.104   2.337   0.749
58829W        W22762   4.383  32.020  11.439
58830W        W22763  31.459  29.956  11.442
58831W        W22764  40.549  32.547   2.320
58832W        W22765  34.872  31.999  11.940
58833W        W22766  41.956  11.636   0.863
58834W        W22767  15.764  13.743   2.664
58835W        W22768  17.132  31.022  14.870
58836W        W22769  20.601  17.188   0.291
58837W        W22770   0.939  31.969   1.782
58838W        W22771  31.593   1.858   1.412
58839W        W22772  23.029   4.369   0.736
58840W        W22773  27.495  32.514  11.522
58841W        W22774  31.420  23.713  12.902
58842W        W22775  41.291  19.690   4.140
58843W        W22776  14.137   3.896  12.032
58844W        W22777   8.328   9.301   2.750
58845W        W22778  12.845   7.361   4.701
58846W        W22779  38.455  29.122  10.628
58847W        W22780  28.998  21.078   1.930
58848W        W22781  20.072   1.291   4.798
58849W        W22782  17.137  37.971   4.225
58850W        W22783   8.247  31.537   3.251
58851W        W22784  16.118  19.189   2.808
58852W        W22785  34.876  30.965   1.398
58853W        W22786  43.963  24.184   3.310
58854W        W22787   8.395   3.769  11.401
58855W        W22788  41.431   1.963  11.538
58856W        W22789  28.066  33.503   2.312
58857W        W22790  14.593  14.749   1.278
58858W        W22791  14.236  40.382  13.451
58859W        W22792  20.198   3.850   4.343
58860W        W22793  18.672  12.218  12.966
58861W        W22794   1.950  17.617   3.645
58862W        W22795  23.567  34.925  13.503
58863W        W22796   2.944  19.043   4.745
58864W        W22797  16.683  43.278   2.686
58865W        W22798   7.334   3.427  13.823
58866W        W22799  11.285  23.524  14.991
58867W        W22800  23.229  32.487  10.926
58868W        W22801  23.590  11.865  13.421
58869W        W22802   2.411  38.401  14.440
58870W        W22803  34.057  17.073  10.925
58871W        W22804  26.957  17.150   4.823
58872W        W22805  22.522  17.636   1.853
58873W        W22806  27.014  19.127  10.928
58874W        W22807  12.306  43.950  12.427
58875W        W22808   4.409  10.285  13.960
58876W        W22809  36.537   2.328   4.322
58877W        W22810  24.150   4.214   0.806
58878W        W22811  10.879  22.673  14.925
58879W        W22812  43.881  37.443   1.782
58880W        W22813  20.606  43.335  10.464
58881W        W22814   2.888  26.481   3.772
58882W        W22815  42.975  38.871  14.972
58883W        W22816  12.631  17.113   1.211
58884W        W22817  29.589  24.519  12.525
58885W        W22818  26.177   7.906   1.797
58886W        W22819  14.193  32.886   4.325
58887W        W22820  24.203  15.104  14.486
58888W        W22821  40.958   9.297  14.865
58889W        W22822   7.738   9.778   3.383
58890W        W22823  22.525  21.046   1.855
58891W        W22824   0.350   5.882  11.463
58892W        W22825  29.623  18.559   1.351
58893W        W22826   2.741  21.135   3.259
58894W        W22827  37.446  10.710  13.374
58895W        W22828  10.196  43.333   2.724
58896W        W22829  17.202  39.498   4.290
58897W        W22830  33.032  35.908  13.823
58898W        W22831   4.939  12.188   4.289
58899W        W22832  41.410  15.760  14.410
58900W        W22833   9.378  29.657   0.819
58901W        W22834  11.171  15.084  12.568
58902W        W22835  18.776  24.695   1.709
58903W        W22836   2.356  21.247  13.376
58904W        W22837  11.161  18.553   2.730
58905W        W22838   6.301  25.078  11.500
58906W        W22839  33.565   7.882  13.948
58907W        W22840  10.138   2.903  14.992
58908W        W22841  11.137   8.771  11.587
58909W        W22842   7.746  39.472   3.185
58910W        W22843  36.431  17.115   2.887
58911W        W22844  26.165  18.232  14.455
58912W        W22845  28.666  39.365  12.411
58913W        W22846   1.367  38.413  10.898
58914W        W22847   4.438  42.386   4.176
58915W        W22848  12.619  15.287   0.819
58916W        W22849   7.761  22.224  11.937
58917W        W22850  44.813  23.626  10.970
58918W        W22851   3.319  29.981  14.451
58919W        W22852  26.012  12.287  14.979
58920W        W22853   1.731  34.568   2.865
58921W        W22854  40.886   1.877  10.416
58922W        W22855  41.358  18.553  11.043
58923W        W22856  40.031  32.422   1.932
58924W        W22857  26.023   9.343   2.309
58925W        W22858  39.491  18.194   3.311
58926W        W22859   0.284  18.172   4.145
58927W        W22860  40.925  26.480  13.445
58928W        W22861  26.700  30.918   3.665
58929W        W22862  13.288   1.425   2.313
58930W        W22863  14.621  42.031  14.015
58931W        W22864  37.524   4.403   4.709
58932W        W22865  31.901  36.384  13.376
58933W        W22866   6.364  15.780   4.693
58934W        W22867  23.205  28.073   3.271
58935W        W22868  31.014  11.840  10.951
58936W        W22869  12.350  36.906  12.511
58937W        W22870   0.420  11.748  10.631
58938W        W22871  19.146  23.180   2.895
58939W        W22872   9.861  14.833   1.790
58940W        W22873  18.700  41.920   3.864
58941W        W22874  14.595  30.934  12.345
58942W        W22875  40.370  15.086  14.276
58943W        W22876   6.340  25.137   1.702
58944W        W22877  17.578  37.967  14.455
58945W        W22878   7.809  43.022  11.494
58946W        W22879  42.990  12.711  10.082
58947W        W22880  23.583  41.438   0.826
58948W        W22881   1.280  32.903   1.432
58949W        W22882  29.613  30.132   2.669
58950W        W22883  28.459   6.239  13.521
58951W        W22884  38.907  16.155  13.982
58952W        W22885  35.593  22.633   0.753
58953W        W22886  15.604  21.183  11.570
58954W        W22887  43.785   3.898  13.463
58955W        W22888   0.890  42.795   0.272
58956W        W22889  18.672  17.757  14.952
58957W        W22890  24.986  40.372   4.249
58958W        W22891  22.638  20.623  14.963
58959W        W22892  19.569  43.883   1.721
58960W        W22893  34.050  31.925   4.750
58961W        W22894  11.337  15.306  14.367
58962W        W22895   0.761  33.570   3.773
58963W        W22896  30.474  18.278   2.248
58964W        W22897  23.133  30.006   1.363
58965W        W22898  23.188  12.193  10.456
58966W        W22899   8.766  18.269   2.888
58967W        W22900   7.712  26.540  10.616
58968W        W22901  35.991   6.344   3.735
58969W        W22902  16.294   2.448  13.812
58970W        W22903  36.401  38.356   4.255
58971W        W22904  25.979  32.064  12.418
58972W        W22905  13.252   4.395   4.651
58973W        W22906  18.296  12.167   0.943
58974W        W22907  37.047  38.846   2.898
58975W        W22908  23.514  38.400   4.300
58976W        W22909  33.948  39.449  14.285
58977W        W22910  28.478   1.763   1.298
58978W        W22911  25.158   2.280  13.436
58979W        W22912   7.910  19.662   2.836
58980W        W22913  29.126  42.817  13.007
58981W        W22914  25.707  42.801   4.720
58982W        W22915  22.220  29.945  13.822
58983W        W22916  21.033  22.132   0.257
58984W        W22917  40.024  17.275  14.486
58985W        W22918  41.920   1.930  14.286
58986W        W22919  32.545  39.360   1.763
58987W        W22920  13.176  17.171   0.751
58988W        W22921  32.094  44.405  11.117
58989W        W22922  22.618  27.092  12.385
58990W        W22923  24.149   9.182   5.185
58991W        W22924  33.078  40.803   3.176
58992W        W22925   8.173  11.762  14.298
58993W        W22926  11.800   4.786  14.770
58994W        W22927  27.190  21.588   0.748
58995W        W22928  18.570  18.686   3.338
58996W        W22929   3.816  20.719   1.258
58997W        W22930  42.803  17.105   3.289
58998W        W22931   5.198  24.504   3.247
58999W        W22932  37.390   5.404  14.473
59000W        W22933  32.597  36.007   3.839
59001W        W22934   1.333  24.206  14.806
59002W        W22935   9.171  37.044   3.320
59003W        W22936  23.053   7.246   0.273
59004W        W22937  25.043  25.134  13.892
59005W        W22938  41.334  29.595   4.612
59006W        W22939  21.720  37.941  14.845
59007W        W22940  29.602  25.181  13.938
59008W        W22941  26.060  31.593   1.353
59009W        W22942  25.064  30.598  11.562
59010W        W22943  35.856  19.072  11.477
59011W        W22944  43.903   2.401  11.473
59012W        W22945   5.313   2.456   4.252
59013W        W22946  44.781  21.182  13.898
59014W        W22947  18.166  23.023  12.829
59015W        W22948  23.687  16.694  14.305
59016W        W22949  24.222  12.670   2.394
59017W        W22950  15.130  42.845  13.388
59018W        W22951  20.191  20.525   2.370
59019W        W22952  32.571  27.090   2.745
59020W        W22953  12.239  32.105  13.399
59021W        W22954  31.636  15.215  13.982
59022W        W22955  12.148  28.595  11.046
59023W        W22956  14.133  37.472  13.807
59024W        W22957  30.446  26.665  13.419
59025W        W22958  10.878  17.591   3.687
59026W        W22959   9.811  26.993  12.831
59027W        W22960  19.751  12.801  11.984
59028W        W22961   1.366  17.158   1.291
59029W        W22962  29.635   3.799   1.742
59030W        W22963  39.421  30.949   3.150
59031W        W22964  39.381  38.048  13.004
59032W        W22965   1.444  20.756   1.759
59033W        W22966  11.191  39.900   0.945
59034W        W22967  12.853  15.655  12.487
59035W        W22968   8.795  20.564  12.372
59036W        W22969  30.054   5.369  13.803
59037W        W22970  13.770  34.051  11.089
59038W        W22971  38.514  39.324  10.556
59039W        W22972  23.534  21.750  14.957
59040W        W22973  32.493  11.697   4.628
59041W        W22974  12.611   2.895   2.892
59042W        W22975  16.147  33.107  13.956
59043W        W22976  39.956  34.457  11.990
59044W        W22977  34.931  18.294  13.006
59045W        W22978  36.517   0.334   1.765
59046W        W22979  11.225  12.249  14.500
59047W        W22980  10.807  10.649  13.432
59048W        W22981  26.616  31.525  11.002
59049W        W22982  17.117   0.285   1.405
59050W        W22983   3.823  32.591   3.300
59051W        W22984  13.702  38.833   2.289
59052W        W22985  12.835  35.467   0.781
59053W        W22986  32.424  42.977  11.468
59054W        W22987  13.737   0.987  11.394
59055W        W22988  15.685  27.007   0.423
59056W        W22989   5.928  19.139   2.262
59057W        W22990   3.743  20.673   0.267
59058W        W22991  32.608  35.465  12.518
59059W        W22992  36.097   8.803   3.183
59060W        W22993  11.132   8.161  13.036
59061W        W22994   4.448  37.902   2.859
59062W        W22995  30.591  40.947   1.224
59063W        W22996  15.325  34.961  10.420
59064W        W22997  21.223  35.592   4.686
59065W        W22998   3.738  24.011   1.260
59066W        W22999  16.273  14.784  11.419
59067W        W23000  13.331  41.406  11.000
59068W        W23001  11.747   7.310   2.886
59069W        W23002  40.424   6.371  11.018
59070W        W23003   1.914   3.753  12.951
59071W        W23004  19.589  29.664   2.307
59072W        W23005  40.895   5.264  13.382
59073W        W23006   9.388  22.043  13.397
59074W        W23007  33.555  13.209  12.545
59075W        W23008  32.095  19.049  13.421
59076W        W23009  20.040  14.696   3.370
59077W        W23010  34.054  35.461  11.102
59078W        W23011   4.713  30.534   1.288
59079W        W23012  42.456  37.022   0.891
59080W        W23013   4.444   1.322   1.276
59081W        W23014  36.049  28.061  13.374
59082W        W23015  16.709  21.590   2.306
59083W        W23016  19.649   3.266   0.418
59084W        W23017  19.671  27.969   5.263
59085W        W23018  24.593  35.983  11.856
59086W        W23019  21.052  17.673  12.379
59087W        W23020  40.411  15.315   0.329
59088W        W23021  43.294  24.622   0.954
59089W        W23022   4.758  30.049  11.580
59090W        W23023  30.936  17.253   2.722
59091W        W23024  24.218  11.817  11.039
59092W        W23025  38.563  35.480   2.221
59093W        W23026  35.038  37.467   0.397
59094W        W23027  14.698   4.266  11.125
59095W        W23028   4.318  25.134   0.332
59096W        W23029   4.793   9.654   3.863
59097W        W23030  15.789   4.867   4.228
59098W        W23031  36.432  41.483   2.403
59099W        W23032   5.378  17.757   0.431
59100W        W23033  38.346  40.433   2.828
59101W        W23034  30.112  15.698  10.463
59102W        W23035  24.585  39.944   3.275
59103W        W23036  31.485  37.967   3.268
59104W        W23037  40.344  31.108  14.761
59105W        W23038  26.958  23.569   1.932
59106W        W23039  40.540   2.445   3.364
59107W        W23040   2.747   1.272  11.933
59108W        W23041   6.378  16.772   1.374
59109W        W23042   6.255   1.300  10.492
59110W        W23043  39.968  30.024  11.921
59111W        W23044   4.752  33.416   0.347
59112W        W23045  20.599  23.555   0.261
59113W        W23046  12.252  15.662   2.186
59114W        W23047  19.632  10.155  12.965
59115W        W23048  44.455   6.374   1.316
59116W        W23049  10.278  21.188  13.382
59117W        W23050  13.260  30.555   5.130
59118W        W23051  20.682  27.081   3.158
59119W        W23052  19.563  33.467  10.643
59120W        W23053  17.593  44.410   0.439
59121W        W23054  44.286  27.111   4.658
59122W        W23055   0.403  32.008   2.740
59123W        W23056  26.636  26.504  11.473
59124W        W23057  38.561   5.260  14.975
59125W        W23058  11.342  33.443  12.377
59126W        W23059  17.136   5.372  11.461
59127W        W23060  26.549  25.132  14.485
59128W        W23061  41.836  12.147  11.875
59129W        W23062  16.139  31.072  14.998
59130W        W23063  31.899   8.823   3.776
59131W        W23064  22.673  36.045   3.804
59132W        W23065  15.088  31.989  13.535
59133W        W23066  24.218  28.617  13.824
59134W        W23067  19.208  30.070   5.217
59135W        W23068  37.358  11.176  11.406
59136W        W23069   6.701  32.938  13.423
59137W        W23070  40.035   5.737   2.322
59138W        W23071  17.092  22.547   0.264
59139W        W23072  24.105  30.163   2.254
59140W        W23073  31.078   3.395  12.911
59141W        W23074   5.926  11.371  14.817
59142W        W23075  44.006  13.199  12.430
59143W        W23076  13.246  30.527   0.902
59144W        W23077  21.518  15.257   4.720
59145W        W23078  11.646  25.120   0.458
59146W        W23079   9.778  32.116   0.933
59147W        W23080  40.853   2.823  14.780
59148W        W23081  23.706  35.388  12.461
59149W        W23082  37.468  28.016  10.467
59150W        W23083  26.966  42.939   2.366
59151W        W23084  20.058  40.538  10.027
59152W        W23085  25.674  34.498   3.350
59153W        W23086  27.679  35.365   1.361
59154W        W23087   7.213   8.397  13.411
59155W        W23088  44.796  36.859  13.470
59156W        W23089  42.319  25.632   0.742
59157W        W23090  25.116  29.169  10.458
59158W        W23091  12.362  27.563  14.325
59159W        W23092   1.471  31.646   3.645
59160W        W23093   5.437   2.305  11.588
59161W        W23094  26.065  33.604  13.934
59162W        W23095  19.666   0.420   1.309
59163W        W23096  15.299  36.945   0.861
59164W        W23097  18.164  12.683  11.382
59165W        W23098  41.297  38.560   1.907
59166W        W23099  11.795  22.236  10.580
59167W        W23100   9.198  19.039  12.547
59168W        W23101  18.066  13.751  13.006
59169W        W23102   0.308   6.885   0.370
59170W        W23103  39.332  27.999   1.925
59171W        W23104   7.710  33.438  12.958
59172W        W23105  33.461  16.175   4.192
59173W        W23106  44.357  37.429  14.960
59174W        W23107  41.933   2.283   1.448
59175W        W23108  16.228   9.306   4.719
59176W        W23109  12.116  39.842  14.295
59177W        W23110  11.770  44.397   2.893
59178W        W23111   9.663  19.061  14.838
59179W        W23112   2.801  40.426   0.797
59180W        W23113  24.604  37.052  13.062
59181W        W23114  10.349  20.589   1.380
59182W        W23115   4.289  23.148   4.152
59183W        W23116   2.270   5.351  13.846
59184W        W23117  13.818  37.393  13.794
59185W        W23118  19.733  36.090  12.859
59186W        W23119   4.450  15.132  11.079
59187W        W23120  40.923  14.644  14.513
59188W        W23121  12.833   5.411  13.946
59189W        W23122  25.075   2.769   4.723
59190W        W23123  30.578  21.598   2.807
59191W        W23124  32.988   0.949   2.691
59192W        W23125  19.560  41.382  12.393
59193W        W23126  32.039  16.620  11.885
59194W        W23127   1.867  13.658  11.119
59195W        W23128  15.306   6.779   0.319
59196W        W23129  37.989  26.642  14.312
59197W        W23130  31.484  19.551   0.292
59198W        W23131  10.742  42.478  10.522
59199W        W23132  33.406   8.822  10.612
59200W        W23133  39.351  18.252  14.361
59201W        W23134  37.004  31.521  11.600
59202W        W23135  30.521   7.789   2.260
59203W        W23136  36.427  16.751   2.788
59204W        W23137  29.164  43.444   3.286
59205W        W23138  19.243  19.260   3.835
59206W        W23139  25.665   0.849  12.965
59207W        W23140  36.591  23.239  13.536
59208W        W23141   2.264  15.130   3.656
59209W        W23142  43.372   9.176   4.806
59210W        W23143  22.613  33.082  12.478
59211W        W23144  32.133  30.087  11.891
59212W        W23145  30.981  35.496  12.936
59213W        W23146  31.545  27.495   1.750
59214W        W23147  41.913   7.388  11.885
59215W        W23148  12.768  16.739   4.611
59216W        W23149  20.532   0.960   0.436
59217W        W23150  38.075  40.876   0.254
59218W        W23151  17.627  29.046   1.351
59219W        W23152  32.037  27.951   3.256
59220W        W23153  21.717  19.084   4.756
59221W        W23154  25.624  21.653  14.936
59222W        W23155  27.489  44.867  12.445
59223W        W23156  15.310  38.882   5.794
59224W        W23157   3.761  27.957   4.230
59225W        W23158  12.687   7.854  12.550
59226W        W23159  39.046  23.129  13.918
59227W        W23160  40.306  28.171  10.904
59228W        W23161  43.824  25.208   1.762
59229W        W23162  30.556  23.163   0.833
59230W        W23163  20.066  21.609   4.672
59231W        W23164  18.135  30.072   3.173
59232W        W23165  14.276  21.249  12.943
59233W        W23166  22.514   9.374   3.645
59234W        W23167  30.037   0.412   1.405
59235W        W23168  12.257  24.976   1.315
59236W        W23169   9.847  27.458   2.317
59237W        W23170  43.425  19.611   1.784
59238W        W23171  28.154   7.759  13.518
59239W        W23172  15.177  12.264  11.417
59240W        W23173  24.568  12.766  10.495
59241W        W23174  38.533  20.702   4.339
59242W        W23175   0.782   3.938   4.825
59243W        W23176  18.634  30.126  13.341
59244W        W23177  42.411  30.639  12.857
59245W        W23178  38.952  25.612   4.611
59246W        W23179   5.734  28.056   3.208
59247W        W23180  24.485  20.180   1.826
59248W        W23181  35.486  32.476  14.332
59249W        W23182  25.515  36.921   3.272
59250W        W23183  37.870  18.269  12.515
59251W        W23184   8.874   3.948   4.261
59252W        W23185   1.266   0.816  13.911
59253W        W23186  29.515  34.371  10.624
59254W        W23187  23.045  24.488   3.776
59255W        W23188  41.522  13.705   3.667
59256W        W23189  36.582  43.865  10.555
59257W        W23190   9.291   3.860   0.767
59258W        W23191  34.991  43.285   2.788
59259W        W23192   4.788   1.733   0.820
59260W        W23193   1.390  44.411   2.179
59261W        W23194  22.198  29.472  13.844
59262W        W23195  19.600  24.534   4.177
59263W        W23196   8.386  30.994  13.894
59264W        W23197  30.534   1.972   3.654
59265W        W23198  39.808  43.823  13.907
59266W        W23199  41.927  26.702   2.898
59267W        W23200  19.224  19.243  10.902
59268W        W23201  41.786  18.563  14.466
59269W        W23202  20.063  10.822   0.328
59270W        W23203  26.642  40.548  14.949
59271W        W23204   4.821  23.638   2.416
59272W        W23205  39.454  43.875  11.888
59273W        W23206  43.811   2.864  11.511
59274W        W23207  30.951  23.609   3.251
59275W        W23208  36.005  23.240   4.723
59276W        W23209  19.747   4.749  11.474
59277W        W23210  12.632  16.775   2.676
59278W        W23211  12.848   1.853  14.926
59279W        W23212  21.616  41.984  10.953
59280W        W23213  28.144  19.589  12.554
59281W        W23214  14.301  33.004   1.268
59282W        W23215  36.957   1.476   3.287
59283W        W23216  10.865  32.023  14.006
59284W        W23217   9.370   6.886   3.827
59285W        W23218  33.122  27.679  11.549
59286W        W23219  42.924   3.427   5.240
59287W        W23220   7.744  13.135  14.023
59288W        W23221  21.057  26.039   4.744
59289W        W23222  17.225  43.797   2.243
59290W        W23223  30.610  13.106  14.397
59291W        W23224  30.120   5.819  14.329
59292W        W23225  31.606  25.987   2.288
59293W        W23226  30.620   6.696   0.873
59294W        W23227  14.281  34.443   2.780
59295W        W23228  19.558  41.495  12.873
59296W        W23229   8.660  11.677  14.453
59297W        W23230   8.785  25.688   1.331
59298W        W23231  24.026   5.832  13.436
59299W        W23232   5.711   8.863  12.022
59300W        W23233   0.971  29.976   3.294
59301W        W23234   6.230  38.337   0.825
59302W        W23235  17.692  30.440  13.444
59303W        W23236  20.573   6.393   2.861
59304W        W23237  41.302  11.336  10.450
59305W        W23238   0.985   0.794  12.032
59306W        W23239   3.282  12.133   0.431
59307W        W23240  15.612  32.083   2.211
59308W        W23241   6.253  35.966  12.026
59309W        W23242  44.303  32.401   0.822
59310W        W23243  10.649   5.350   1.446
59311W        W23244  36.529  25.713   0.892
59312W        W23245  44.442   4.324  10.547
59313W        W23246  17.227  34.544  13.480
59314W        W23247   8.666  35.453   1.362
59315W        W23248  39.362  34.529   2.705
59316W        W23249  15.282   5.235  14.333
59317W        W23250  28.532  24.063   4.738
59318W        W23251  15.608  27.474  14.878
59319W        W23252   3.353  19.635   0.244
59320W        W23253  22.651  26.968   2.286
59321W        W23254  40.505  28.166   1.731
59322W        W23255  42.880  31.083   1.894
59323W        W23256  36.942  33.894  12.942
59324W        W23257  33.938  14.731  13.506
59325W        W23258  25.629  11.688  13.344
59326W        W23259  16.734   2.357  14.404
59327W        W23260  11.273   9.276  13.455
59328W        W23261   0.265  28.460   2.779
59329W        W23262  31.111  42.357   1.698
59330W        W23263   0.430  37.038   9.962
59331W        W23264  42.910  36.978   0.471
59332W        W23265  41.518  19.077   1.213
59333W        W23266  16.164  22.214  11.490
59334W        W23267  35.392  25.706   0.819
59335W        W23268  21.711   1.891   0.288
59336W        W23269  12.808  22.675   1.848
59337W        W23270   5.906   8.800  12.824
59338W        W23271  15.320  23.568  11.040
59339W        W23272   3.303  44.425   5.159
59340W        W23273   2.416   0.257   3.694
59341W        W23274  29.993  44.921  10.996
59342W        W23275  14.097  35.950  12.413
59343W        W23276  34.991   2.727  13.476
59344W        W23277  26.062  31.458  11.574
59345W        W23278  34.046  39.390  12.527
59346W        W23279  28.144  21.230   5.234
59347W        W23280  38.376  27.018   4.825
59348W        W23281  28.933  30.651   3.203
59349W        W23282  27.044  16.149  12.365
59350W        W23283  34.023  26.994  10.915
59351W        W23284   5.255  43.423   1.818
59352W        W23285  15.814  21.061   0.797
59353W        W23286   6.754   6.349  13.512
59354W        W23287   4.325  43.815   3.860
59355W        W23288   7.738  31.101  14.941
59356W        W23289  21.028  26.141  12.942
59357W        W23290  14.248  19.108   1.922
59358W        W23291  15.114   3.895   3.369
59359W        W23292  29.582  25.522   1.301
59360W        W23293  20.730  26.205  13.466
59361W        W23294  23.513  18.643  11.490
59362W        W23295  28.670  14.744   3.670
59363W        W23296  39.887  13.345  11.982
59364W        W23297  34.381  41.509  14.799
59365W        W23298  36.523   4.335   3.273
59366W        W23299  22.146  36.386   1.288
59367W        W23300  13.157  32.042   3.201
59368W        W23301  24.015   7.288  13.368
59369W        W23302   6.769  12.665  13.862
59370W        W23303   4.814  26.513   2.785
59371W        W23304  21.240  40.877   4.800
59372W        W23305  30.460  41.507   2.204
59373W        W23306  44.778  21.021  11.546
59374W        W23307  30.918  38.917  10.632
59375W        W23308  41.518  40.797  10.564
59376W        W23309  26.521   4.207  13.530
59377W        W23310   3.772   5.423  13.455
59378W        W23311  35.103  35.891   4.786
59379W        W23312  41.027   7.301   1.341
59380W        W23313  31.449  24.607  11.556
59381W        W23314   5.817   1.899  13.975
59382W        W23315  23.216  21.095   3.315
59383W        W23316  43.353  21.100  14.912
59384W        W23317  13.278  43.332   0.468
59385W        W23318   8.227  37.383   3.210
59386W        W23319   2.886  10.785  11.912
59387W        W23320  22.641  39.541   0.782
59388W        W23321  30.508  38.435   2.338
59389W        W23322  44.005   3.808   0.932
59390W        W23323   1.775  12.285   3.719
59391W        W23324  25.003  27.021   3.685
59392W        W23325   4.378  35.378   1.793
59393W        W23326   6.323  33.897  12.077
59394W        W23327  36.882  31.004  10.408
59395W        W23328  26.184  39.473  10.967
59396W        W23329  43.418  22.524  12.496
59397W        W23330   8.841  32.023  11.918
59398W        W23331  37.975   0.960  14.995
59399W        W23332  14.719   0.423  12.944
59400W        W23333  25.534   0.452   2.227
59401W        W23334  41.358  25.539   4.256
59402W        W23335  23.212  13.648   0.892
59403W        W23336   6.919  22.668   4.233
59404W        W23337  26.557  26.692  14.779
59405W        W23338  16.164   8.312  13.338
59406W        W23339  10.307   4.835  12.830
59407W        W23340  14.339  29.593   0.258
59408W        W23341  23.515  10.839   2.812
59409W        W23342  12.251  38.844   1.772
59410W        W23343  40.976  36.860   0.392
59411W        W23344  31.056  41.303  11.128
59412W        W23345  43.447  32.976   1.399
59413W        W23346   5.302   8.322   4.338
59414W        W23347  19.223  41.839  12.522
59415W        W23348  33.025   8.683  12.408
59416W        W23349  11.729  43.467   3.238
59417W        W23350  19.648   4.787   5.175
59418W        W23351  38.841   7.413  14.314
59419W        W23352   6.424  43.286  10.009
59420W        W23353  27.463   2.916  10.486
59421W        W23354  16.607  15.641   4.643
59422W        W23355   6.726  40.811  14.359
59423W        W23356  42.994  24.553   3.202
59424W        W23357   9.851  14.823  10.495
59425W        W23358  12.701  11.752   4.701
59426W        W23359   9.652  30.655   3.724
59427W        W23360  28.985  41.967  11.515
59428W        W23361  44.864  40.532   0.735
59429W        W23362  14.099  32.123   0.416
59430W        W23363  23.077  29.481  14.892
59431W        W23364   7.417  39.885  12.085
59432W        W23365   1.742  37.569  14.773
59433W        W23366  29.938  42.924  14.774
59434W        W23367  18.175   2.232   1.228
59435W        W23368   2.362   1.892   3.361
59436W        W23369  10.280   1.397   1.286
59437W        W23370  10.348  38.017   0.767
59438W        W23371  44.936  18.286  11.959
59439W        W23372  27.469  41.313   2.784
59440W        W23373  25.625  38.918  11.496
59441W        W23374  44.910   5.745   2.191
59442W        W23375   6.776  18.170   2.842
59443W        W23376  24.089  13.801   2.260
59444W        W23377  29.053  32.030   5.261
59445W        W23378   0.335  24.493  14.784
59446W        W23379  35.537  24.579   3.834
59447W        W23380   5.238  43.893  13.008
59448W        W23381  35.380  35.568  10.535
59449W        W23382  15.212  23.184   4.240
59450W        W23383  32.580   8.210  12.495
59451W        W23384  34.483  10.655   4.299
59452W        W23385   3.914  29.093   3.146
59453W        W23386  31.578  27.058  14.431
59454W        W23387  30.991  35.028  12.480
59455W        W23388  35.368  36.021  14.420
59456W        W23389   1.915   7.306  12.033
59457W        W23390  26.173  23.048  11.540
59458W        W23391  31.560  39.552   4.183
59459W        W23392  10.239   7.793  13.863
59460W        W23393  14.156  43.309   0.341
59461W        W23394  11.343  35.392  11.115
59462W        W23395   1.276  28.077  11.886
59463W        W23396   4.833  25.146  14.386
59464W        W23397  26.209  42.875   1.234
59465W        W23398   4.741  26.461   1.883
59466W        W23399  13.231   9.867   4.702
59467W        W23400  34.953   5.923   4.131
59468W        W23401  32.399  39.497   0.319
59469W        W23402  44.485  39.851  14.911
59470W        W23403  40.847  11.173  14.448
59471W        W23404   5.824  43.924   3.667
59472W        W23405  20.682  19.542  13.933
59473W        W23406  43.446  37.465   4.141
59474W        W23407   8.855  23.214   0.897
59475W        W23408  16.169  22.059  14.027
59476W        W23409  31.945  17.651  12.971
59477W        W23410  30.433  11.702   5.228
59478W        W23411  23.646  24.572   2.217
59479W        W23412  13.749  28.929   4.784
59480W        W23413  42.944  40.330   1.275
59481W        W23414  42.442  22.107  12.409
59482W        W23415   5.928  27.945   2.782
59483W        W23416   4.375  25.698  12.420
59484W        W23417   2.868  11.817   3.225
59485W        W23418  13.697  38.460  12.470
59486W        W23419  41.417   8.208  12.496
59487W        W23420  20.265  22.232  11.089
59488W        W23421  20.651  39.477  13.418
59489W        W23422  24.529   9.749   2.265
59490W        W23423  25.999  44.379  11.959
59491W        W23424  32.078  13.828  13.894
59492W        W23425  14.732  35.586  14.904
59493W        W23426  16.788  44.937   2.184
59494W        W23427  41.487   5.779   2.287
59495W        W23428  25.214  42.894   2.354
59496W        W23429  25.211  39.393   0.928
59497W        W23430   6.732  22.173   4.741
59498W        W23431   7.810  17.297  12.355
59499W        W23432  15.319  34.894  12.994
59500W        W23433   2.251  39.534   4.673
59501W        W23434   5.422  14.723  13.943
59502W        W23435  15.788  44.916  14.443
59503W        W23436   2.284  22.737  13.792
59504W        W23437  13.832  32.025   1.352
59505W        W23438  44.972  27.590   0.946
59506W        W23439   2.266  28.493  12.488
59507W        W23440  26.701  26.554  12.539
59508W        W23441   8.361  28.503  14.423
59509W        W23442  38.437  40.849  10.949
59510W        W23443  36.414  26.483   0.934
59511W        W23444  18.561  19.235  14.972
59512W        W23445  19.157  28.954   2.368
59513W        W23446   4.711   1.244   0.311
59514W        W23447  39.884  37.056   4.113
59515W        W23448  43.808  44.907   2.768
59516W        W23449  25.615   5.841   1.319
59517W        W23450  38.337  25.149   2.768
59518W        W23451  14.193   3.795  10.634
59519W        W23452  41.868  29.535   3.222
59520W        W23453  39.407  40.913  12.984
59521W        W23454   5.691  29.011   1.306
59522W        W23455  37.080  18.661  11.611
59523W        W23456  33.101  10.773  12.925
59524W        W23457  13.232  35.059   4.156
59525W        W23458   9.292  14.332  12.095
59526W        W23459  30.497   5.439   2.678
59527W        W23460  31.467  30.594  12.873
59528W        W23461  32.897  22.053  13.331
59529W        W23462  22.722  24.098   1.389
59530W        W23463  28.057  42.479  12.404
59531W        W23464   3.888  23.543   4.631
59532W        W23465  32.084  26.566  14.438
59533W        W23466   4.415   9.365  11.534
59534W        W23467  16.664   9.766  11.938
59535W        W23468  28.559  23.989  13.528
59536W        W23469  44.770  20.622  10.445
59537W        W23470  42.965  21.216   4.133
59538W        W23471  17.724  16.121  13.012
59539W        W23472  44.356  44.755   4.196
59540W        W23473  23.527  33.048   2.774
59541W        W23474   9.244  29.471  11.103
59542W        W23475  20.684  26.595   3.792
59543W        W23476  44.899   2.921   4.207
59544W        W23477  30.486  27.992   1.324
59545W        W23478   4.332  31.471  12.070
59546W        W23479  34.459  10.322   1.389
59547W        W23480  31.484  33.448  13.940
59548W        W23481  28.558  32.078   2.419
59549W        W23482   2.240  17.300   3.748
59550W        W23483   0.963  42.464   2.885
59551W        W23484  22.187  44.263  13.418
59552W        W23485  12.184   8.730  13.430
59553W        W23486  20.750   5.809  13.337
59554W        W23487  32.976  41.403  11.969
59555W        W23488  35.907  29.659   3.821
59556W        W23489  24.681  18.548  10.890
59557W        W23490  38.340   0.359   1.838
59558W        W23491  18.092   3.729   0.375
59559W        W23492  23.589   7.190  12.879
59560W        W23493   5.789  34.086   2.827
59561W        W23494  19.717  40.893  11.535
59562W        W23495  41.398  38.948  11.968
59563W        W23496  40.357  30.634  11.414
59564W        W23497  28.956  18.155  10.606
59565W        W23498   2.423  27.538  14.345
59566W        W23499  39.513  36.374   2.390
59567W        W23500  26.155  13.213   2.353
59568W        W23501  17.758  30.606   3.860
59569W        W23502  11.226  36.936   2.253
59570W        W23503  22.702  22.541  11.454
59571W        W23504   7.256  12.361   0.315
59572W        W23505  11.730  38.408   2.689
59573W        W23506  34.083   8.189  13.307
59574W        W23507   8.853  21.706   3.763
59575W        W23508   4.261  32.634  13.523
59576W        W23509   8.358  13.219   2.776
59577W        W23510  22.054   5.394   3.356
59578W        W23511  40.440  41.452  11.941
59579W        W23512  29.963  40.548   1.895
59580W        W23513  14.299  28.640  14.983
59581W        W23514  17.177  13.237   1.825
59582W        W23515   6.785  33.999   3.362
59583W        W23516  38.820   4.786  14.947
59584W        W23517  16.658  44.327  11.074
59585W        W23518  35.578  27.980   1.915
59586W        W23519  43.278  19.760   1.361
59587W        W23520  17.676  10.176  11.495
59588W        W23521   9.171  37.417  12.833
59589W        W23522  33.623  42.488  14.026
59590W        W23523  43.276  43.363  14.020
59591W        W23524  17.646   8.287   2.314
59592W        W23525  21.685   0.812   0.375
59593W        W23526  40.838  32.559   1.429
59594W        W23527  14.679  43.870   2.211
59595W        W23528  26.203  38.006   3.153
59596W        W23529   2.288  32.914   2.204
59597W        W23530  17.708  40.053   4.808
59598W        W23531   6.822  37.087  14.812
59599W        W23532  29.475  31.450   4.350
59600W        W23533  30.455  19.615   0.850
59601W        W23534  33.031  24.047  11.051
59602W        W23535  18.567  30.978   2.786
59603W        W23536  18.664   8.710  11.071
59604W        W23537   5.249  31.548  13.543
59605W        W23538  24.701  12.845  12.029
59606W        W23539  26.644  27.041  13.052
59607W        W23540  21.188  23.181   4.252
59608W        W23541   8.180  22.733  13.815
59609W        W23542  33.488  36.363  11.402
59610W        W23543  18.262  43.000  12.056
59611W        W23544  30.142  27.562  14.785
59612W        W23545  25.078  18.179   0.922
59613W        W23546   4.843  19.572  11.486
59614W        W23547  44.377  38.957  10.540
59615W        W23548   8.792   0.773  13.346
59616W        W23549  19.066  25.480   0.299
59617W        W23550  14.724  22.571   3.197
59618W        W23551  20.743  32.137   5.256
59619W        W23552  26.631  14.335   1.327
59620W        W23553  40.470  23.559  12.877
59621W        W23554  14.710   0.485   0.763
59622W        W23555  16.581  30.937  14.513
59623W        W23556  16.657  40.374  12.049
59624W        W23557  21.634  43.946  14.845
59625W        W23558  36.529  39.461   3.348
59626W        W23559  14.602  41.964  12.914
59627W        W23560  42.400  10.335   3.774
59628W        W23561  33.426  44.384   4.745
59629W        W23562  22.120  21.034   3.667
59630W        W23563  26.064  32.103  11.489
59631W        W23564  15.580   1.447   3.353
59632W        W23565  37.490   9.801  13.819
59633W        W23566  40.410  16.635  13.994
59634W        W23567  30.024  37.529   2.212
59635W        W23568  34.948   8.362  10.972
59636W        W23569  11.720  33.436  11.102
59637W        W23570  31.927  24.636   3.273
59638W        W23571  42.502  15.690   4.763
59639W        W23572  11.165   1.475  12.478
59640W        W23573  12.640  35.898  10.637
59641W        W23574  25.475  16.568  12.956
59642W        W23575  36.494  28.031  11.909
59643W        W23576  29.026  20.746  14.807
59644W        W23577  17.200  11.174   3.283
59645W        W23578  14.225  24.098  10.975
59646W        W23579   8.285  39.344   1.896
59647W        W23580  40.368  41.386   9.996
59648W        W23581  39.390  14.200  11.585
59649W        W23582   1.482  21.089   0.817
59650W        W23583   2.401  27.018   1.765
59651W        W23584  38.444   0.878  10.473
59652W        W23585  20.726  32.599   2.373
59653W        W23586  22.693   7.669  12.081
59654W        W23587  17.098  37.005   2.743
59655W        W23588   3.883  21.150  14.335
59656W        W23589  16.090   9.297  14.821
59657W        W23590  39.936   9.353   2.265
59658W        W23591  11.214  42.366  13.819
59659W        W23592  12.205  32.012   3.230
59660W        W23593  30.483  24.151  14.848
59661W        W23594   5.777  25.637   1.230
59662W        W23595  12.856  15.252   1.356
59663W        W23596  22.568   9.860  11.598
59664W        W23597  13.796   9.383   5.115
59665W        W23598  38.885  39.920  11.087
59666W        W23599   2.840  21.697  13.542
59667W        W23600  25.666   6.880   2.849
59668W        W23601  36.529   5.821  14.966
59669W        W23602  35.450   7.705  11.600
59670W        W23603  24.229  13.690  13.519
59671W        W23604  35.947  22.108   1.347
59672W        W23605  11.658  24.521  14.401
59673W        W23606  27.453   5.378  12.485
59674W        W23607  29.930  35.018   1.445
59675W        W23608  11.177  28.104   3.743
59676W        W23609   2.766  14.736   9.443
59677W        W23610  39.534  43.806  10.998
59678W        W23611  44.813   3.279   3.292
59679W        W23612  15.251  24.640   1.288
59680W        W23613   7.367  25.148   0.283
59681W        W23614  11.653  43.895  11.989
59682W        W23615   3.398  40.041   1.792
59683W        W23616   9.854  10.215   2.225
59684W        W23617  34.071   4.279  11.995
59685W        W23618  35.567  36.953   2.192
59686W        W23619   0.859  40.479   2.750
59687W        W23620   7.194  24.987   0.899
59688W        W23621  27.097  25.218   1.706
59689W        W23622  30.511  24.144  14.393
59690W        W23623  12.615  42.818   0.391
59691W        W23624   3.899  40.320   0.909
59692W        W23625  38.462   4.371  14.355
59693W        W23626  19.177  19.699   0.861
59694W        W23627  20.755  33.892   3.215
59695W        W23628  19.649  13.780   0.853
59696W        W23629  13.238  21.141   2.313
59697W        W23630  19.612  27.061  10.926
59698W        W23631  11.187  40.377   3.733
59699W        W23632   1.463   9.852   1.718
59700W        W23633  29.079  39.314   4.598
59701W        W23634  17.580  10.838  13.986
59702W        W23635   6.891  32.603  10.505
59703W        W23636  39.036  33.919   9.927
59704W        W23637  31.953  18.121   2.389
59705W        W23638  35.037  42.849  11.606
59706W        W23639   3.376  10.259   5.265
59707W        W23640  34.004   0.876   2.692
59708W        W23641  21.598   9.292  12.443
59709W        W23642  20.656  32.107  13.894
59710W        W23643  24.655  35.071   0.386
59711W        W23644   1.441   2.883  14.029
59712W        W23645  34.968  32.562  13.409
59713W        W23646  22.020  32.574   1.808
59714W        W23647  20.081  42.833   1.927
59715W        W23648  10.715  17.233  13.454
59716W        W23649  41.459  29.153  13.888
59717W        W23650  10.680   1.767   4.799
59718W        W23651  27.149  33.981   1.394
59719W        W23652  33.901  39.379  13.980
59720W        W23653  39.025   4.311   1.905
59721W        W23654  34.481   2.724  11.433
59722W        W23655  25.088  33.102  12.569
59723W        W23656   5.423  26.166   0.951
59724W        W23657  36.557   8.161  12.899
59725W        W23658  39.314   7.263  10.473
59726W        W23659   9.154   2.343  13.795
59727W        W23660  31.947   6.765  13.820
59728W        W23661  18.676   3.379   3.750
59729W        W23662  21.128  41.955  14.827
59730W        W23663  41.923  24.222   0.786
59731W        W23664  24.578  41.786   3.787
59732W        W23665  30.003  32.130  13.024
59733W        W23666  16.157  28.083  11.561
59734W        W23667   7.668  38.368   4.254
59735W        W23668  31.108  21.212   2.220
59736W        W23669  24.533  18.763  12.516
59737W        W23670  27.064  18.065   0.270
59738W        W23671  10.713  23.552   1.708
59739W        W23672  36.999  16.278  11.947
59740W        W23673   1.261  28.100  14.312
59741W        W23674  26.502  22.713   0.421
59742W        W23675  28.107  19.764  13.856
59743W        W23676  33.400  34.919   3.343
59744W        W23677  32.120  22.622  13.904
59745W        W23678  18.120  42.985   4.252
59746W        W23679  24.008  42.810   2.385
59747W        W23680  40.968  31.077  11.463
59748W        W23681  23.720  42.520   3.774
59749W        W23682   1.428  37.353  10.902
59750W        W23683  20.745   0.476  12.072
59751W        W23684  22.234  11.654   3.172
59752W        W23685  25.480   5.747  11.046
59753W        W23686  24.609  43.373   3.174
59754W        W23687   2.723   5.811   1.836
59755W        W23688  28.500  41.470   1.441
59756W        W23689   8.210  12.750  11.473
59757W        W23690   8.275   5.259   4.768
59758W        W23691  33.412  27.148   0.924
59759W        W23692   7.302  18.710   4.145
59760W        W23693  30.569  16.115  11.612
59761W        W23694  30.477  42.352  14.780
59762W        W23695   8.848   5.854  14.322
59763W        W23696  38.009  20.042  10.413
59764W        W23697   3.843  42.367   4.270
59765W        W23698  13.833  17.643   3.641
59766W        W23699  27.472   8.834   2.248
59767W        W23700   3.246   0.832  14.979
59768W        W23701  21.192  34.927   4.317
59769W        W23702  44.275  34.021  13.404
59770W        W23703  28.136  14.123  10.543
59771W        W23704  26.021  37.061   0.403
59772W        W23705  14.223  15.128   2.197
59773W        W23706  25.549   4.904   3.258
59774W        W23707   3.321  43.513   4.816
59775W        W23708   8.732  30.475  12.381
59776W        W23709  20.272  30.646  13.464
59777W        W23710  11.140  44.782  12.059
59778W        W23711  27.171  38.444   4.162
59779W        W23712   7.707  10.198  12.048
59780W        W23713  14.821  23.084  13.355
59781W        W23714  17.570   4.755   3.147
59782W        W23715  14.317  28.949   3.840
59783W        W23716  16.617  41.920   3.325
59784W        W23717   3.426   6.370  12.018
59785W        W23718  13.645   3.334   2.246
59786W        W23719   8.241   9.804   2.350
59787W        W23720  40.425  35.530  10.967
59788W        W23721  14.647  30.051   4.129
59789W        W23722   5.236  34.403  12.380
59790W        W23723  28.062  34.474  13.419
59791W        W23724  32.104  25.173  10.908
59792W        W23725  29.081   8.160   4.779
59793W        W23726   9.162  40.414   2.299
59794W        W23727  42.862  38.554   4.295
59795W        W23728  28.964  30.065  13.903
59796W        W23729  43.927  12.625   0.829
59797W        W23730  13.835   0.908  10.945
59798W        W23731   5.893  42.819   2.220
59799W        W23732  24.725  44.432   2.326
59800W        W23733  13.107  23.049  13.462
59801W        W23734  39.022  17.144   5.296
59802W        W23735  39.826   4.270   1.734
59803W        W23736  26.484  17.244  14.824
59804W        W23737   7.211  20.083   4.639
59805W        W23738  22.599  11.625  12.481
59806W        W23739  44.359  24.979  14.949
59807W        W23740   1.302  41.796  11.902
59808W        W23741   9.154   5.373   2.704
59809W        W23742  37.986  32.548   4.126
59810W        W23743  32.078  11.156  10.060
59811W        W23744   9.735  44.415  12.980
59812W        W23745  37.869  26.016  14.377
59813W        W23746  44.393   8.325   2.791
59814W        W23747  16.253   5.427   3.826
59815W        W23748   2.883  10.195   4.773
59816W        W23749   3.780  37.355  14.288
59817W        W23750  44.829  43.492  13.429
59818W        W23751  32.072   7.868  13.063
59819W        W23752  22.686  13.335  13.791
59820W        W23753  10.774  16.673   1.212
59821W        W23754  28.534   7.885  12.905
59822W        W23755  26.662  41.915   3.772
59823W        W23756  40.963  12.312  11.860
59824W        W23757  30.518  41.449   2.849
59825W        W23758  11.128  40.047   4.745
59826W        W23759  20.190  24.495   5.639
59827W        W23760  21.054  23.609  13.826
59828W        W23761  39.512  16.152  12.549
59829W        W23762  43.312  37.494   1.793
59830W        W23763  44.815  35.406   0.406
59831W        W23764  22.578  40.454  12.477
59832W        W23765   2.405   2.326   1.353
59833W        W23766  26.480  39.384   0.727
59834W        W23767   4.916  13.667  14.503
59835W        W23768   7.400  31.001   0.808
59836W        W23769   4.864  41.815  14.850
59837W        W23770   5.320  31.104  11.532
59838W        W23771   5.406  19.084   3.276
59839W        W23772  27.664  26.059   4.352
59840W        W23773  35.535  29.638   1.780
59841W        W23774  17.614  31.525   2.822
59842W        W23775  11.819  29.984   2.705
59843W        W23776  25.014  18.582  11.533
59844W        W23777  26.031  16.626   0.777
59845W        W23778  34.076  40.955  13.368
59846W        W23779   6.274  42.900   0.243
59847W        W23780  37.509  23.509  13.833
59848W        W23781   0.830  16.127  13.493
59849W        W23782  39.915  41.039  14.864
59850W        W23783  43.475  42.850  14.300
59851W        W23784  37.910  32.635  11.118
59852W        W23785   0.846  26.584  12.031
59853W        W23786  34.559   6.810   2.893
59854W        W23787  21.741   9.644   1.351
59855W        W23788  25.212   7.334   1.819
59856W        W23789   2.734   0.919  12.548
59857W        W23790  33.040  21.635  10.931
59858W        W23791  10.696  32.129   1.381
59859W        W23792  32.944  35.980  13.042
59860W        W23793  13.818  31.575   4.819
59861W        W23794  34.420   9.356   3.841
59862W        W23795  30.573  34.507  12.030
59863W        W23796  26.021   9.646   2.740
59864W        W23797  41.296  39.408  12.060
59865W        W23798   8.167  43.807  10.560
59866W        W23799  43.303   1.263  11.479
59867W        W23800  27.140   1.443  14.305
59868W        W23801  36.845  20.253  12.040
59869W        W23802  31.434  39.529   2.719
59870W        W23803  26.115  25.566   2.210
59871W        W23804  21.110  44.964  11.442
59872W        W23805  29.461  25.116   2.687
59873W        W23806  36.033  10.368  11.971
59874W        W23807   8.834  30.957   0.272
59875W        W23808   3.874  31.641   0.930
59876W        W23809  39.015  29.663   4.828
59877W        W23810   7.326  38.892   0.474
59878W        W23811  39.411  13.710  11.408
59879W        W23812   5.782  26.487  14.338
59880W        W23813  43.309  42.935  11.943
59881W        W23814  19.232  16.270  10.898
59882W        W23815  23.224  26.497   1.701
59883W        W23816  29.036   2.284   4.132
59884W        W23817  35.438  39.336  10.454
59885W        W23818  18.572   9.299  12.915
59886W        W23819   8.768  18.726  10.999
59887W        W23820  16.279  39.431  14.968
59888W        W23821  10.355  29.520  13.501
59889W        W23822  28.459  44.759   0.764
59890W        W23823  28.030   6.823  13.355
59891W        W23824  30.984   5.717  14.817
59892W        W23825  10.646  27.171   2.418
59893W        W23826   7.898   7.221   0.314
59894W        W23827   4.824  37.927  14.955
59895W        W23828  15.176  24.675  14.919
59896W        W23829  28.085  37.003  14.479
59897W        W23830  41.377   3.449   4.718
59898W        W23831  14.671  39.371   9.553
59899W        W23832   5.789  32.602  11.471
59900W        W23833   5.891  27.639   0.942
59901W        W23834  28.511  33.501  12.854
59902W        W23835  21.252  28.054  12.520
59903W        W23836  43.334  30.017  13.430
59904W        W23837  18.790  27.160  12.484
59905W        W23838   2.832   1.746  13.328
59906W        W23839   4.287   0.862  14.861
59907W        W23840  39.842   1.428  13.811
59908W        W23841  24.527   7.688  14.356
59909W        W23842  10.238  12.764  12.943
59910W        W23843  10.316  17.128   1.313
59911W        W23844  43.327  34.052  14.961
59912W        W23845  18.092  11.860   2.767
59913W        W23846   4.888  22.227   1.448
59914W        W23847  26.095  28.991  11.951
59915W        W23848  39.463  27.522  13.461
59916W        W23849  23.120  32.908   3.329
59917W        W23850  43.915  42.525   0.906
59918W        W23851  37.878  29.033   4.318
59919W        W23852   5.391  14.787   2.333
59920W        W23853  25.202   7.193  12.022
59921W        W23854  41.482  24.503  13.348
59922W        W23855  10.733   9.205  10.572
59923W        W23856  44.311  22.153   2.237
59924W        W23857  43.360  33.007   0.342
59925W        W23858  30.916  35.466   4.290
59926W        W23859   4.223  42.785   2.764
59927W        W23860   6.261  35.003   1.334
59928W        W23861  13.797  34.083   2.208
59929W        W23862  10.676  37.836  12.879
59930W        W23863  21.642  35.079   2.268
59931W        W23864   0.454   0.326   3.239
59932W        W23865  11.226  17.645   3.201
59933W        W23866  22.677   4.900  10.435
59934W        W23867   8.787  43.828   4.739
59935W        W23868  10.159  15.204   1.911
59936W        W23869  25.477  33.434   1.359
59937W        W23870  26.096  30.593   3.292
59938W        W23871  17.651  14.713  12.998
59939W        W23872  36.438   7.901  14.337
59940W        W23873  35.357  20.161  10.902
59941W        W23874  17.173  30.022   4.200
59942W        W23875  12.654   1.372   0.810
59943W        W23876   3.404  24.547   1.773
59944W        W23877  36.590  33.422   1.776
59945W        W23878   3.862  27.555  11.871
59946W        W23879  41.004   5.765  13.400
59947W        W23880  28.615  34.962   2.256
59948W        W23881  32.514  22.209   4.820
59949W        W23882  11.183  43.288  10.987
59950W        W23883  19.561   6.713  11.939
59951W        W23884   2.782  16.589  10.490
59952W        W23885  26.970  41.450   5.312
59953W        W23886  32.102   8.328  13.886
59954W        W23887   6.862  14.182   5.144
59955W        W23888  42.875  37.971   1.865
59956W        W23889   4.247  29.993  13.005
59957W        W23890   7.247  36.418   3.387
59958W        W23891  36.506  22.192  12.563
59959W        W23892  33.438  27.476   0.874
59960W        W23893  32.919  28.491   0.952
59961W        W23894  13.670  13.252  10.637
59962W        W23895  34.487  22.169   0.406
59963W        W23896  17.170   3.441   0.358
59964W        W23897  44.268  25.610  12.067
59965W        W23898  41.893  32.533   0.247
59966W        W23899   9.368  12.360   2.282
59967W        W23900  41.389  28.049  11.606
59968W        W23901  12.197  41.836   4.644
59969W        W23902   4.380  28.654   1.882
59970W        W23903   7.681  30.119   3.703
59971W        W23904  44.846   7.849  14.948
59972W        W23905   3.836  29.569  14.405
59973W        W23906  24.015  27.975   4.245
59974W        W23907  17.066  41.322  14.961
59975W        W23908  11.764  41.887  12.568
59976W        W23909   5.346  20.592   4.327
59977W        W23910  13.168  12.167  13.015
59978W        W23911  40.515  18.167   4.127
59979W        W23912  38.010  20.702  13.908
59980W        W23913  43.946  13.827  12.374
59981W        W23914  18.255  21.733   3.718
59982W        W23915   7.751   6.824  14.403
59983W        W23916  35.886  43.921   0.929
59984W        W23917  23.582  28.598  11.069
59985W        W23918  35.592  31.978  13.904
59986W        W23919  42.881  32.430   4.351
59987W        W23920   4.256   9.302   3.199
59988W        W23921   1.319   8.715  11.028
59989W        W23922  40.959  36.579   1.744
59990W        W23923   4.349  10.231  14.902
59991W        W23924  36.888  23.028  12.551
59992W        W23925  35.443  17.263   1.709
59993W        W23926  40.043   1.765   4.665
59994W        W23927  35.860  38.366   4.616
59995W        W23928   8.374  43.335   0.355
59996W        W23929  38.903  32.908   0.951
59997W        W23930  29.445  41.500  11.560
59998W        W23931  13.162  25.578  12.469
59999W        W23932  20.605  25.039   0.465
60000W        W23933  26.981  34.056   4.152
60001W        W23934   8.306  41.431  11.436
60002W        W23935  10.879  39.379  11.025
60003W        W23936  13.213   9.684  12.928
60004W        W23937  17.716   7.799   3.362
60005W        W23938  27.007  11.233  10.635
60006W        W23939  30.477  39.453  11.864
60007W        W23940  30.562   4.901   4.137
60008W        W23941  44.828  27.592   0.435
60009W        W23942  10.774  22.175   2.849
60010W        W23943  21.563  39.384   2.253
60011W        W23944  21.229  40.339   4.281
60012W        W23945  14.208  41.952   1.746
60013W        W23946  15.653  43.339   0.360
60014W        W23947  32.558   7.292   0.457
60015W        W23948  10.147  33.404  10.453
60016W        W23949   0.426  19.260  14.870
60017W        W23950   6.226  16.260  10.632
60018W        W23951   2.297  38.982   3.160
60019W        W23952  43.825  24.137  12.540
60020W        W23953  21.097  23.574   5.272
60021W        W23954   1.279  36.870  12.850
60022W        W23955  39.898  29.552   4.804
60023W        W23956  35.946  33.076   0.361
60024W        W23957  16.674   3.796  10.550
60025W        W23958  23.130  20.584   4.608
60026W        W23959  29.010  26.080  13.398
60027W        W23960  41.309  42.292  13.918
60028W        W23961   4.767   1.379   3.267
60029W        W23962  18.219   9.830   3.330
60030W        W23963  13.654  11.724   1.833
60031W        W23964  26.513  16.764   4.144
60032W        W23965  30.097  33.879  14.382
60033W        W23966  42.368   2.868   2.346
60034W        W23967  32.078  33.424   4.606
60035W        W23968   4.863  17.697   4.220
60036W        W23969  21.619  35.553  10.596
60037W        W23970  11.751  44.421   2.344
60038W        W23971  19.550  16.214  12.063
60039W        W23972   8.371  19.703  11.498
60040W        W23973  35.027  36.867  14.494
60041W        W23974   8.389  42.415  13.002
60042W        W23975   9.371  40.866   4.744
60043W        W23976  34.959  33.419   5.295
60044W        W23977  32.082  40.506  13.435
60045W        W23978   8.836  37.367   0.384
60046W        W23979  12.235   2.744   1.282
60047W        W23980   6.246   4.932  14.445
60048W        W23981  36.864  19.196  10.965
60049W        W23982  30.961  44.881   1.798
60050W        W23983  38.057  35.602   3.690
60051W        W23984  35.891  44.488  14.898
60052W        W23985  38.821  21.675   0.874
60053W        W23986  31.087  22.727   2.885
60054W        W23987  27.997  27.457  10.143
60055W        W23988  15.095  14.695  14.759
60056W        W23989  38.055  16.288   2.873
60057W        W23990  14.692  20.635  10.935
60058W        W23991  32.131  24.025   2.326
60059W        W23992  38.458  17.688  12.502
60060W        W23993  20.711  11.144  14.772
60061W        W23994  27.969   3.411  11.872
60062W        W23995   4.800  10.296   2.225
60063W        W23996  19.169  29.561   9.942
60064W        W23997  43.447   8.667   1.320
60065W        W23998  18.557  11.734  10.104
60066W        W23999  33.419  29.460   0.368
60067W        W24000   2.428  14.299   3.814
60068W        W24001  25.003  16.200   2.279
60069W        W24002  14.265  35.901  12.850
60070W        W24003   4.807  37.966   1.449
60071W        W24004   5.787  39.535  11.011
60072W        W24005   6.403  35.928  14.760
60073W        W24006  14.761  31.061  14.927
60074W        W24007  17.688  13.205  12.998
60075W        W24008  34.094  23.660  14.011
60076W        W24009  36.943  32.533   4.202
60077W        W24010  44.487  10.724   2.384
60078W        W24011  12.189  10.677  11.463
60079W        W24012  23.635   1.350  13.992
60080W        W24013  19.648   6.677  14.500
60081W        W24014  34.098  33.559   1.228
60082W        W24015  44.883  12.351   2.695
60083W        W24016  22.186  24.666   3.655
60084W        W24017   5.762  20.763   2.816
60085W        W24018  24.134   8.162   4.321
60086W        W24019  28.582  26.175   0.370
60087W        W24020   1.745  32.400  11.887
60088W        W24021   1.445  26.489  13.052
60089W        W24022   8.263  40.489  12.825
60090W        W24023   8.723  22.618   5.256
60091W        W24024  31.903  27.647   2.402
60092W        W24025  42.526  12.811   3.195
60093W        W24026  27.521  18.650  11.947
60094W        W24027   2.463   8.216   4.142
60095W        W24028  21.640  44.479  11.932
60096W        W24029  21.533  40.819   1.267
60097W        W24030   8.390   3.854   1.788
60098W        W24031  40.459  19.067  13.054
60099W        W24032  24.594  31.094   0.422
60100W        W24033   9.754  37.888   0.771
60101W        W24034  12.150  31.495   4.694
60102W        W24035  16.650  27.563  14.471
60103W        W24036  22.680  14.274  10.547
60104W        W24037  38.867  35.585  14.955
60105W        W24038   3.933  23.710  14.820
60106W        W24039   1.430  24.518  14.963
60107W        W24040  29.578  21.623   3.242
60108W        W24041  30.510  31.594  12.572
60109W        W24042   8.811  10.327  10.955
60110W        W24043  37.412  18.746   1.801
60111W        W24044  23.202  37.054  13.060
60112W        W24045  25.474  33.607   3.785
60113W        W24046  43.820  25.647   3.666
60114W        W24047  42.783  12.694   3.762
60115W        W24048   1.810   4.835   0.461
60116W        W24049   1.467  39.047   2.361
60117W        W24050   3.265  15.719   1.816
60118W        W24051  44.980  14.303   2.414
60119W        W24052  13.235  19.680  14.464
60120W        W24053  26.164   6.237   0.407
60121W        W24054  35.878  27.461  12.394
60122W        W24055  28.177   2.886  11.065
60123W        W24056  19.598  36.589  10.542
60124W        W24057  25.616  38.469   2.818
60125W        W24058  39.321  37.471   2.794
60126W        W24059  28.950  28.545  13.394
60127W        W24060  29.579  42.831   4.690
60128W        W24061   5.849  12.705   5.313
60129W        W24062  42.414  11.189  12.016
60130W        W24063  21.741  30.056  11.534
60131W        W24064  23.625  30.586   2.301
60132W        W24065  14.217  34.104  12.921
60133W        W24066  30.577   0.790  11.584
60134W        W24067  13.641  24.046  14.819
60135W        W24068  15.633  34.972  13.917
60136W        W24069  38.927  40.978  13.987
60137W        W24070  22.090  38.837   2.759
60138W        W24071  41.966  42.992   4.345
60139W        W24072  27.585  35.472  14.862
60140W        W24073  38.065   7.709  11.008
60141W        W24074  22.163  27.496  14.386
60142W        W24075  27.195  42.443   2.333
60143W        W24076  25.970  34.412  13.955
60144W        W24077  12.622  38.569   4.278
60145W        W24078   5.764   7.256  13.994
60146W        W24079  12.726  44.006  11.468
60147W        W24080  19.210  28.501  13.005
60148W        W24081  25.527  35.034  13.512
60149W        W24082  28.614   6.918  14.759
60150W        W24083  14.657  31.061   0.829
60151W        W24084  17.283   2.941  13.852
60152W        W24085   8.287  27.459   1.244
60153W        W24086  39.457  33.415   2.812
60154W        W24087  17.067  24.631  13.909
60155W        W24088  12.686  21.552  11.460
60156W        W24089  34.435  13.689  12.529
60157W        W24090  30.939  15.253  12.879
60158W        W24091  16.197  16.169   3.174
60159W        W24092  42.871  34.608   4.258
60160W        W24093   1.838  34.017   4.756
60161W        W24094   3.909  20.570  13.810
60162W        W24095  30.132   7.303   4.782
60163W        W24096   4.778  28.163   0.962
60164W        W24097  20.681   4.280  10.464
60165W        W24098  26.982   8.274   2.863
60166W        W24099  29.027  23.162  13.345
60167W        W24100  36.044  33.884  14.279
60168W        W24101  38.566   2.815   2.311
60169W        W24102  11.699  31.538  12.577
60170W        W24103  31.987   7.223  11.994
60171W        W24104  13.171  37.549   0.775
60172W        W24105   5.224  22.110  12.491
60173W        W24106  14.730  40.395   4.271
60174W        W24107  20.645   0.766  11.076
60175W        W24108  14.725   2.357  14.984
60176W        W24109  42.033   0.854  11.057
60177W        W24110  33.486  21.067  14.462
60178W        W24111  27.592  23.169  10.972
60179W        W24112  32.094  43.279  13.985
60180W        W24113  13.615  39.048   0.454
60181W        W24114  12.856   8.262   0.958
60182W        W24115  15.182  11.731  11.417
60183W        W24116  33.007  26.181  11.014
60184W        W24117  19.052  11.184  11.921
60185W        W24118  19.774  31.915  14.405
60186W        W24119  25.524  17.607   0.301
60187W        W24120  38.357   1.350   2.733
60188W        W24121  42.857  32.557  13.465
60189W        W24122  41.948   7.687  11.913
60190W        W24123  16.792  26.187   1.393
60191W        W24124  42.021  44.981  14.470
60192W        W24125   8.900  16.237   1.215
60193W        W24126  21.184  30.604   2.827
60194W        W24127  24.514  14.756  14.904
60195W        W24128  33.980  11.275  12.997
60196W        W24129  35.521   9.888   1.344
60197W        W24130  28.930  15.175   1.284
60198W        W24131  23.151  38.548   2.364
60199W        W24132  26.567  41.377   2.381
60200W        W24133  28.084  23.596  12.867
60201W        W24134  18.071  24.580   4.224
60202W        W24135  30.469  20.730  10.954
60203W        W24136  28.171   9.665  12.018
60204W        W24137  22.719  39.861  14.975
60205W        W24138   3.805  24.511  13.030
60206W        W24139  37.991   9.706  14.330
60207W        W24140  25.480  32.949   2.244
60208W        W24141  13.671  39.485  11.916
60209W        W24142  12.759  13.193  12.533
60210W        W24143  27.597  24.202  13.829
60211W        W24144  23.702  32.436  14.345
60212W        W24145  42.500  23.229   1.251
60213W        W24146  10.155  38.369  11.480
60214W        W24147   2.383  14.103   1.446
60215W        W24148  29.509  22.134   4.647
60216W        W24149  26.190   2.960   0.818
60217W        W24150  19.136  14.692   1.211
60218W        W24151   3.745  25.553  11.372
60219W        W24152  15.183  25.690  10.548
60220W        W24153  11.261  26.182  13.417
60221W        W24154  10.202  37.396   0.472
60222W        W24155  43.446  22.111  13.975
60223W        W24156  40.797   8.824   1.305
60224W        W24157  36.497  35.403  11.454
60225W        W24158  31.072  18.262   3.237
60226W        W24159  30.946   5.790  14.476
60227W        W24160  30.033  43.443   3.784
60228W        W24161  18.082  10.355  10.524
60229W        W24162  26.062  42.479   3.149
60230W        W24163  16.148   4.901  13.814
60231W        W24164  24.135  39.992  10.419
60232W        W24165  26.167  16.294  13.329
60233W        W24166  34.006  34.056   4.305
60234W        W24167   0.932  34.885  14.784
60235W        W24168  14.215  17.193   0.807
60236W        W24169   1.870  27.110  11.926
60237W        W24170  26.970  33.101  12.902
60238W        W24171  22.156  37.448  10.888
60239W        W24172  27.608   7.671   0.266
60240W        W24173   3.395  23.043   1.433
60241W        W24174  13.252  23.531  10.550
60242W        W24175  15.179   4.344  12.378
60243W        W24176   1.871   1.942  13.462
60244W        W24177  17.702   5.747  14.449
60245W        W24178  17.177  44.857   1.753
60246W        W24179  26.465  22.504   0.737
60247W        W24180  11.158  38.536  13.328
60248W        W24181  15.306   4.711  14.005
60249W        W24182  16.304  12.655   1.318
60250W        W24183  18.645  24.698  12.551
60251W        W24184  22.202   3.387   4.728
60252W        W24185   4.942  29.621  13.473
60253W        W24186  43.001  16.671   0.833
60254W        W24187  28.618   8.205  10.907
60255W        W24188  11.812  17.222   1.266
60256W        W24189   3.820  21.084   1.861
60257W        W24190  10.867   0.350  10.615
60258W        W24191  24.603  35.474  12.531
60259W        W24192  15.757  36.955   3.766
60260W        W24193  17.130  32.961  12.046
60261W        W24194  21.157  38.494   1.696
60262W        W24195  32.096  21.085   3.228
60263W        W24196   6.268   6.400  13.936
60264W        W24197  33.546  32.963   9.984
60265W        W24198  30.996  13.786  11.001
60266W        W24199  30.533   8.224  11.956
60267W        W24200  13.719  30.637  13.873
60268W        W24201  40.985  44.399  12.480
60269W        W24202  23.095  24.165   3.319
60270W        W24203  18.191  10.163  11.864
60271W        W24204   3.271  21.517   4.321
60272W        W24205  20.661  28.058   9.445
60273W        W24206  11.748  18.058  12.959
60274W        W24207   4.814  34.117   1.719
60275W        W24208  40.467  36.415  13.941
60276W        W24209  11.759  11.682   2.238
60277W        W24210   2.237  10.210   2.273
60278W        W24211  22.081  11.239  12.544
60279W        W24212  18.756  11.285   4.670
60280W        W24213  44.464  29.056  13.405
60281W        W24214  15.809   6.712   2.314
60282W        W24215   9.808  44.405   2.289
60283W        W24216   2.826   1.790  12.825
60284W        W24217  25.020  44.847  13.912
60285W        W24218   8.203  19.641   1.357
60286W        W24219  31.107  20.564   0.738
60287W        W24220  17.219  36.405   0.827
60288W        W24221   4.893  13.758  12.885
60289W        W24222  24.118  39.964   4.227
60290W        W24223  40.990  29.957  12.916
60291W        W24224  21.714   7.325   4.207
60292W        W24225   7.317   5.908   3.376
60293W        W24226  19.703  28.562   4.643
60294W        W24227  14.750  13.756  12.361
60295W        W24228  37.482  17.178   0.413
60296W        W24229  29.607  42.987  10.158
60297W        W24230  30.026  30.928  12.966
60298W        W24231  13.779  42.892   4.188
60299W        W24232  29.592  23.703  11.963
60300W        W24233  39.859  40.868   3.705
60301W        W24234  21.634   8.877   2.805
60302W        W24235  22.205  38.018   0.372
60303W        W24236   8.272  15.769   3.198
60304W        W24237  44.845  10.316   4.124
60305W        W24238   6.867  27.649   3.731
60306W        W24239  38.437   7.173   2.296
60307W        W24240  38.935  32.905   0.278
60308W        W24241   4.350   2.871  14.764
60309W        W24242   6.712  22.525  12.532
60310W        W24243   3.348  21.201  10.108
60311W        W24244  40.498  36.898   1.789
60312W        W24245  11.723  19.737   1.408
60313W        W24246  31.012  21.127   0.445
60314W        W24247  28.491  17.261  13.029
60315W        W24248  12.187  16.175   3.333
60316W        W24249  26.647  29.646  11.389
60317W        W24250   9.205  11.222  13.957
60318W        W24251   1.862  10.779   1.872
60319W        W24252  24.117  10.805   2.183
60320W        W24253  14.217  37.012   2.805
60321W        W24254  35.922  38.505  10.617
60322W        W24255   8.838  33.084   1.745
60323W        W24256  32.435   1.950  11.129
60324W        W24257  40.323  18.748  12.523
60325W        W24258  40.967  35.100  14.423
60326W        W24259  26.599  23.736   1.915
60327W        W24260   5.765  23.721  12.415
60328W        W24261  40.030   5.843  12.986
60329W        W24262  20.088   2.836   0.272
60330W        W24263  37.080  24.654   4.313
60331W        W24264  18.191   7.824  14.381
60332W        W24265  33.052  31.035  13.319
60333W        W24266  25.057   8.172   2.340
60334W        W24267  39.505  14.286  12.095
60335W        W24268   2.338  23.180   1.790
60336W        W24269  21.213   7.706  13.977
60337W        W24270   2.867  34.995  14.325
60338W        W24271  20.665   5.338  13.526
60339W        W24272  35.588  21.141   4.707
60340W        W24273  17.752  16.257   1.289
60341W        W24274  30.519  14.604  10.486
60342W        W24275  10.757  42.483   0.798
60343W        W24276  41.960  25.621  12.360
60344W        W24277  32.984   7.724   4.321
60345W        W24278  25.087  28.531   1.884
60346W        W24279  21.575   1.965  13.435
60347W        W24280   8.394  17.723  10.479
60348W        W24281  38.978  43.321  14.438
60349W        W24282  39.526   2.920  11.392
60350W        W24283  34.480  37.404  11.037
60351W        W24284   2.375  38.562  12.085
60352W        W24285   5.762  29.087  14.416
60353W        W24286   1.238   7.842  14.814
60354W        W24287  17.087  26.114  14.355
60355W        W24288  12.159  11.727  11.060
60356W        W24289   1.952  43.343  13.806
60357W        W24290  43.929   8.787  14.957
60358W        W24291  26.628   4.926  13.362
60359W        W24292  41.871  44.398   4.791
60360W        W24293  17.778   6.726  13.461
60361W        W24294  28.071  37.958   4.781
60362W        W24295  16.641  25.642   2.400
60363W        W24296   8.187  20.037   4.602
60364W        W24297  13.612   8.785  11.540
60365W        W24298  42.990   0.323  11.862
60366W        W24299  20.232  35.076  13.465
60367W        W24300  17.135  28.997  14.976
60368W        W24301  41.847  10.764  12.916
60369W        W24302  14.689  23.011   4.151
60370W        W24303  12.658  37.979   3.276
60371W        W24304  42.005   6.298  14.929
60372W        W24305  24.691  26.079  13.853
60373W        W24306  24.176  24.571  10.548
60374W        W24307  35.925  44.990   2.762
60375W        W24308  19.662   9.679   1.793
60376W        W24309   1.414   3.840  14.419
60377W        W24310  26.677  41.814  12.479
60378W        W24311  20.081  29.155  12.532
60379W        W24312  43.980  26.578  11.556
60380W        W24313  28.181   1.335  13.866
60381W        W24314  14.211  36.920   3.757
60382W        W24315  11.652  24.115  13.062
60383W        W24316  33.458  43.801   3.374
60384W        W24317  36.489  15.309   3.300
60385W        W24318  19.569  39.857  11.954
60386W        W24319  35.975  22.073   2.737
60387W        W24320  11.821   5.274  10.954
60388W        W24321  41.981  19.775  12.380
60389W        W24322  14.270   0.436   2.370
60390W        W24323  30.099   3.928  14.996
60391W        W24324   7.179  22.153   5.726
60392W        W24325  10.694  43.416   0.271
60393W        W24326  38.466  30.555   0.376
60394W        W24327   6.687   5.877  14.873
60395W        W24328  12.837  36.998   4.611
60396W        W24329  38.403  29.487  11.920
60397W        W24330  15.188   3.760  13.036
60398W        W24331  16.086  26.464   0.269
60399W        W24332  18.097  40.009  10.472
60400W        W24333   6.428  44.345  10.952
60401W        W24334  27.067  30.421   0.448
60402W        W24335  13.747  32.043  14.399
60403W        W24336   2.788  38.008   1.854
60404W        W24337  28.006  34.582   0.253
60405W        W24338   3.443  18.120  11.070
60406W        W24339  40.892  22.222  14.992
60407W        W24340  30.948  20.134  13.396
60408W        W24341   8.787  15.669  10.975
60409W        W24342  10.315  25.565  11.921
60410W        W24343   4.248  39.315  14.862
60411W        W24344  38.892  27.497  11.919
60412W        W24345  23.643  22.597  11.951
60413W        W24346  15.734  32.072   0.840
60414W        W24347  22.506  35.473   0.322
60415W        W24348  38.933  22.200   3.708
60416W        W24349   7.234   2.370  14.961
60417W        W24350  29.007  20.257  14.817
60418W        W24351  43.440  34.586   4.672
60419W        W24352  34.531  28.089  13.992
60420W        W24353  40.810  33.429   0.916
60421W        W24354  26.587   2.843   4.739
60422W        W24355  34.498  43.945   1.722
60423W        W24356  18.114   9.378  13.330
60424W        W24357  42.943  43.504  10.409
60425W        W24358  34.957  32.901  10.467
60426W        W24359  33.413  22.050  13.353
60427W        W24360  17.280   5.815   1.740
60428W        W24361   1.262   4.435   3.386
60429W        W24362  29.050   9.229   1.720
60430W        W24363  18.138  42.852   3.674
60431W        W24364  38.906  14.735   0.349
60432W        W24365  19.677  29.982   0.393
60433W        W24366  22.645  30.129  11.431
60434W        W24367   2.398  20.131  13.469
60435W        W24368  21.140  17.221  14.012
60436W        W24369  39.040  24.633   3.184
60437W        W24370  24.133  29.918   4.644
60438W        W24371  11.806  31.056   3.739
60439W        W24372   9.701   3.246  13.511
60440W        W24373  11.247  40.362  13.350
60441W        W24374   3.723  42.886   3.243
60442W        W24375   3.328  39.810  10.106
60443W        W24376  29.154  18.070  11.902
60444W        W24377  25.153   2.462   3.360
60445W        W24378   0.299  35.024  14.847
60446W        W24379  38.858  28.488  13.848
60447W        W24380  44.847  12.843   3.270
60448W        W24381  14.105  25.619   5.275
60449W        W24382   2.808  27.175  11.537
60450W        W24383  19.719  23.088  12.349
60451W        W24384   1.918  39.319   3.211
60452W        W24385  17.634   4.793  10.457
60453W        W24386  17.686   0.898  14.864
60454W        W24387  21.224  28.159  14.376
60455W        W24388  33.896  17.128  11.606
60456W        W24389  24.527  29.667  11.895
60457W        W24390  33.486  32.598   1.908
60458W        W24391  44.259  29.522   1.917
60459W        W24392  40.429  32.478   0.291
60460W        W24393  42.975   2.858  10.590
60461W        W24394  10.695  32.891   4.732
60462W        W24395   1.925  36.857  11.071
60463W        W24396   1.796   4.814   4.715
60464W        W24397  31.415  40.518   4.680
60465W        W24398  41.429  18.557   2.741
60466W        W24399   6.684  29.110   4.724
60467W        W24400  37.925  37.058  10.620
60468W        W24401   8.751  37.886   1.301
60469W        W24402   5.837  25.626  14.468
60470W        W24403  39.877   4.767   1.304
60471W        W24404   3.431  27.042  14.391
60472W        W24405  12.116  19.221   4.266
60473W        W24406  15.721  36.095   3.248
60474W        W24407  12.821  36.980  11.010
60475W        W24408  35.576  41.809   0.336
60476W        W24409  32.067  11.682  10.540
60477W        W24410  25.712  23.720  10.419
60478W        W24411  19.625  22.532  13.802
60479W        W24412  33.422  25.689   2.295
60480W        W24413   0.284  22.163   4.273
60481W        W24414   1.733  29.493  11.375
60482W        W24415  12.735   1.792  11.875
60483W        W24416   5.705  19.262   1.414
60484W        W24417  43.806   7.358   4.299
60485W        W24418  31.966  42.295  11.009
60486W        W24419  37.054  39.535  12.879
60487W        W24420  13.718  35.465   0.871
60488W        W24421   3.332  13.724   2.269
60489W        W24422  20.641   8.885   4.217
60490W        W24423   7.235  38.540   2.286
60491W        W24424  40.315   2.336   0.728
60492W        W24425  24.979   2.269  10.566
60493W        W24426  21.100   6.394   1.229
60494W        W24427  27.623  21.164  13.548
60495W        W24428  23.656  36.494  11.095
60496W        W24429  44.415   2.447   4.674
60497W        W24430  22.591  35.940  10.455
60498W        W24431  34.448  10.362   4.652
60499W        W24432  44.876  29.168  12.531
60500W        W24433  16.654  41.947   2.209
60501W        W24434   7.361  22.688   5.139
60502W        W24435   0.351   8.190  11.025
60503W        W24436  12.264  35.531  13.888
60504W        W24437  34.918  32.022  12.409
60505W        W24438  37.535  16.681   3.804
60506W        W24439  24.550  42.400  10.110
60507W        W24440  21.715  31.935  10.469
60508W        W24441  42.416  17.198   0.890
60509W        W24442  19.117  25.193   1.871
60510W        W24443  17.160  24.121  11.509
60511W        W24444  22.630  29.668   1.376
60512W        W24445   2.300  28.024  11.484
60513W        W24446  13.180  18.615  11.454
60514W        W24447  10.872  27.073   3.665
60515W        W24448  28.457   4.711  11.400
60516W        W24449  10.845  40.967  10.616
60517W        W24450   2.271  30.449  13.011
60518W        W24451  20.580   8.277   3.230
60519W        W24452   9.331  17.145  10.544
60520W        W24453  37.449  10.198  10.524
60521W        W24454  35.947  34.865   4.221
60522W        W24455  10.220   6.360  12.422
60523W        W24456   4.912  14.110  12.424
60524W        W24457   3.768  41.021  14.502
60525W        W24458  42.029  17.613   0.783
60526W        W24459   6.337   3.742  10.617
60527W        W24460  22.138  23.665  10.893
60528W        W24461  33.578  23.517  12.023
60529W        W24462  38.056   3.933  14.463
60530W        W24463   2.464  15.294   0.843
60531W        W24464  13.634   5.859  14.367
60532W        W24465   9.352  21.115  14.773
60533W        W24466  18.580  24.580  14.952
60534W        W24467  24.190  33.542   2.680
60535W        W24468  37.993  26.958   2.851
60536W        W24469   1.888  26.143   1.282
60537W        W24470  28.056  17.637  10.485
60538W        W24471   0.349  14.247  11.882
60539W        W24472  19.677  32.936   4.819
60540W        W24473  26.969  31.149   2.740
60541W        W24474  35.970  29.589  13.055
60542W        W24475   1.363  12.179   4.668
60543W        W24476  34.380  21.223   3.220
60544W        W24477  31.525  28.566   2.270
60545W        W24478  37.399  23.718  10.150
60546W        W24479   7.235  21.133  14.978
60547W        W24480  26.010  26.597   0.846
60548W        W24481  39.497   7.236   3.356
60549W        W24482  19.238  14.667  14.814
60550W        W24483   0.402  37.944  13.999
60551W        W24484  14.272  14.607   4.337
60552W        W24485   7.234  44.845   4.612
60553W        W24486   6.267  38.440   1.406
60554W        W24487  44.868  40.357  14.488
60555W        W24488  34.451  11.828   4.754
60556W        W24489  23.693  35.450   2.208
60557W        W24490  28.110  38.526   0.914
60558W        W24491   2.769  21.691   4.288
60559W        W24492   5.882  23.535   1.800
60560W        W24493  37.532  44.982  10.432
60561W        W24494  35.054  19.617  10.622
60562W        W24495  37.063  40.460  13.347
60563W        W24496  10.267  30.004   1.274
60564W        W24497  42.458  21.117   1.890
60565W        W24498  21.055  31.028  14.510
60566W        W24499  11.144  29.016  11.392
60567W        W24500  19.624  24.624   1.407
60568W        W24501  16.768  16.266  12.470
60569W        W24502  28.637  33.537  13.901
60570W        W24503  30.519  35.088   0.750
60571W        W24504  12.670  35.975   0.452
60572W        W24505   8.161  44.813   1.348
60573W        W24506  11.765  27.647  13.418
60574W        W24507  43.370  13.692   3.207
60575W        W24508  15.616  22.070   1.390
60576W        W24509  39.980  31.506  11.533
60577W        W24510  22.139  23.627  10.615
60578W        W24511   0.311  24.510   0.858
60579W        W24512  32.074  37.993   0.933
60580W        W24513  13.672  35.543  12.838
60581W        W24514  19.231  42.896  12.394
60582W        W24515  41.422  32.129   4.764
60583W        W24516   9.719   2.243  13.950
60584W        W24517  32.971  41.395  14.980
60585W        W24518  21.644  42.941  12.984
60586W        W24519   7.301  36.939   3.670
60587W        W24520  10.321  31.447  11.948
60588W        W24521  40.975  29.630   3.686
60589W        W24522  13.797  28.573   0.480
60590W        W24523   5.748   4.939   1.296
60591W        W24524  41.496  32.608  12.002
60592W        W24525   3.812  37.071  11.893
60593W        W24526  41.808  13.257  13.860
60594W        W24527  17.767  24.989  11.428
60595W        W24528  15.159  40.918   1.870
60596W        W24529  21.061  43.889   1.307
60597W        W24530   3.446  13.780  11.102
60598W        W24531  29.538   5.910  12.082
60599W        W24532  36.469  28.668  14.367
60600W        W24533  35.450  34.994   1.784
60601W        W24534  36.396  10.646  13.495
60602W        W24535  33.390  28.592  12.537
60603W        W24536  33.957   8.354   2.882
60604W        W24537   2.357  25.050  14.284
60605W        W24538   9.889  17.647   3.860
60606W        W24539  28.599  19.701  11.450
60607W        W24540  31.627  32.398  12.403
60608W        W24541  35.532   5.815   2.826
60609W        W24542  36.874   4.284  11.471
60610W        W24543  41.511  43.438  10.507
60611W        W24544  38.952  12.719  14.412
60612W        W24545   9.187  25.963  10.555
60613W        W24546  38.009   0.806  10.089
60614W        W24547  44.483   9.841  11.977
60615W        W24548  34.372  36.864   2.282
60616W        W24549  16.810  34.003  10.513
60617W        W24550  21.689  36.464   4.710
60618W        W24551  38.012  34.064  10.421
60619W        W24552  22.620  23.730   2.293
60620W        W24553  32.564  15.229  13.470
60621W        W24554  19.137  37.973   2.801
60622W        W24555  19.166   2.766   0.290
60623W        W24556  11.862  40.386   4.116
60624W        W24557  25.530   1.872   0.311
60625W        W24558   2.725  14.133   2.700
60626W        W24559   8.362  26.696   0.939
60627W        W24560  39.439  19.724   2.715
60628W        W24561  28.636  40.026  14.971
60629W        W24562  14.130  13.622   0.878
60630W        W24563   6.359  20.757  14.922
60631W        W24564  10.759  16.679  13.047
60632W        W24565  19.736   6.299  10.580
60633W        W24566  21.528  10.140  11.123
60634W        W24567  11.764  37.032   0.297
60635W        W24568  36.889  22.529   0.739
60636W        W24569   9.746   6.377   1.436
60637W        W24570  26.534   3.725   0.938
60638W        W24571  22.711  36.465   1.401
60639W        W24572  41.881   6.792  13.030
60640W        W24573  25.560  27.496   3.334
60641W        W24574  29.995   7.784  11.927
60642W        W24575   4.398  40.471  14.396
60643W        W24576  35.576  25.469  14.293
60644W        W24577  36.444  33.402  14.462
60645W        W24578  21.045  10.723  14.332
60646W        W24579   5.316  40.053   4.730
60647W        W24580  18.683  20.251   3.354
60648W        W24581   6.363  30.644  14.779
60649W        W24582  26.662  42.986   5.571
60650W        W24583  33.596  37.337  14.375
60651W        W24584  34.394  38.374  11.372
60652W        W24585   9.272  22.083  14.388
60653W        W24586  17.633  22.148  11.558
60654W        W24587  32.435  12.172  10.598
60655W        W24588  39.817  14.236  10.945
60656W        W24589  12.329  20.540   3.719
60657W        W24590  41.917  41.293   1.420
60658W        W24591  40.002  18.266  12.352
60659W        W24592   1.798   2.345  13.369
60660W        W24593  21.135  30.448   3.693
60661W        W24594  27.109  13.182  11.982
60662W        W24595  30.467  29.925   1.806
60663W        W24596  33.619  32.603   2.804
60664W        W24597   8.359  24.189  10.025
60665W        W24598  14.636   2.721  10.547
60666W        W24599  19.154  18.086  13.386
60667W        W24600  25.634  37.965   3.832
60668W        W24601  33.440  24.591   4.351
60669W        W24602  35.042   3.867   2.342
60670W        W24603  17.628  13.688   0.391
60671W        W24604  13.184  26.670   5.111
60672W        W24605  34.008   6.415   0.776
60673W        W24606  20.615  18.788   4.838
60674W        W24607   5.383  44.464  12.054
60675W        W24608  20.123   3.383  13.020
60676W        W24609   6.892   4.224  12.484
60677W        W24610  38.418  18.569   2.300
60678W        W24611  34.940   6.192  14.472
60679W        W24612   9.694  13.748   0.757
60680W        W24613  15.118  44.798  14.769
60681W        W24614  14.775  38.987   0.385
60682W        W24615   6.305  41.979  11.508
60683W        W24616  30.084  25.522  12.075
60684W        W24617   9.245  24.086  10.160
60685W        W24618  36.887   8.839   0.743
60686W        W24619   6.837  30.957   4.668
60687W        W24620  44.813   5.829  13.910
60688W        W24621  25.619   2.401   2.847
60689W        W24622  39.363   3.324   4.802
60690W        W24623  19.636   1.948  11.519
60691W        W24624  21.245  22.711   0.805
60692W        W24625  13.676   3.817  13.957
60693W        W24626  27.612  32.932  10.570
60694W        W24627  19.721   1.899   2.331
60695W        W24628  26.686  36.037   1.218
60696W        W24629  20.726  44.795  10.557
60697W        W24630  39.855  30.644  11.602
60698W        W24631  11.234  41.884   3.725
60699W        W24632  23.168  29.495  13.992
60700W        W24633  19.232   7.900  14.888
60701W        W24634  35.588  37.417   1.917
60702W        W24635  42.415  25.537  14.431
60703W        W24636  33.103  14.692  13.485
60704W        W24637   7.299  25.537  13.933
60705W        W24638  10.225   1.824   1.714
60706W        W24639  36.494  31.913   9.995
60707W        W24640  31.141  36.509  11.018
60708W        W24641   9.821  11.344  11.408
60709W        W24642  10.784  38.907  11.390
60710W        W24643  37.526  36.528   2.409
60711W        W24644   5.933  10.791   4.770
60712W        W24645  35.435  15.152  11.073
60713W        W24646  27.153  28.670   3.672
60714W        W24647  24.690   4.843   3.152
60715W        W24648   9.243  31.062  11.954
60716W        W24649   6.774  28.519   2.747
60717W        W24650  12.246  43.008  12.522
60718W        W24651   7.666  14.632   3.292
60719W        W24652  44.281  10.760  10.577
60720W        W24653  18.190  29.020   4.664
60721W        W24654   6.801   0.841  14.848
60722W        W24655  21.535   3.385  14.348
60723W        W24656  23.569   7.335   2.878
60724W        W24657  32.983  21.019   4.145
60725W        W24658  21.163  20.102   3.162
60726W        W24659   8.274  23.223  10.894
60727W        W24660  33.041  26.094   4.355
60728W        W24661  41.892  32.507  13.392
60729W        W24662  16.235  28.087  12.859
60730W        W24663   6.793  17.616  12.352
60731W        W24664   2.900  11.217  13.025
60732W        W24665  18.252   0.769  13.058
60733W        W24666  42.979  21.624   1.328
60734W        W24667  10.782  28.439   3.182
60735W        W24668  11.283  17.654   1.400
60736W        W24669  21.623   0.898   0.922
60737W        W24670  27.458   5.796  10.958
60738W        W24671  32.436  14.734   3.208
60739W        W24672  23.129  10.156   1.774
60740W        W24673  25.531  34.006   1.238
60741W        W24674   4.741  27.513  13.837
60742W        W24675  24.071  30.952   2.255
60743W        W24676  13.145   5.271   4.211
60744W        W24677  12.752   4.782   0.448
60745W        W24678   6.910  29.488   4.221
60746W        W24679  41.473  43.016   2.318
60747W        W24680  20.246  28.090  13.444
60748W        W24681   1.914  11.718   4.723
60749W        W24682   0.979  33.065  11.611
60750W        W24683  18.552  28.475   4.636
60751W        W24684  30.624  20.755   0.423
60752W        W24685  36.009   9.706  11.048
60753W        W24686   4.420  11.342   0.424
60754W        W24687  12.649   2.753  14.941
60755W        W24688  35.058  26.967  13.331
60756W        W24689  14.181  10.295  10.455
60757W        W24690  35.538   2.854  11.427
60758W        W24691  15.726  23.644   0.909
60759W        W24692   5.199  37.877  11.394
60760W        W24693  29.628  38.522  12.496
60761W        W24694   2.440  32.494   3.308
60762W        W24695   0.835  24.039  10.558
60763W        W24696   5.930  11.318  11.862
60764W        W24697  13.342  13.705  11.533
60765W        W24698  28.553  19.741  12.854
60766W        W24699   2.299  27.637   2.730
60767W        W24700  25.968  12.133   4.148
60768W        W24701  24.723  38.390   1.768
60769W        W24702   4.399   4.884  11.381
60770W        W24703  31.948  17.798  12.519
60771W        W24704  35.581   6.716  11.984
60772W        W24705  23.189  15.188  13.862
60773W        W24706   6.889   6.272  14.789
60774W        W24707  16.762  16.679  12.480
60775W        W24708  12.834   1.748  12.454
60776W        W24709  23.135  29.457   1.806
60777W        W24710  21.513  33.968  13.427
60778W        W24711  24.574  25.540   4.628
60779W        W24712  29.002  20.170  10.609
60780W        W24713  27.590  12.122   0.288
60781W        W24714  22.244  34.971   3.358
60782W        W24715  29.472  25.475  13.378
60783W        W24716  31.981  30.910  14.823
60784W        W24717  24.602   5.299  11.899
60785W        W24718  29.528  15.732   2.331
60786W        W24719  17.117   1.878  14.499
60787W        W24720  35.031   7.202  11.382
60788W        W24721  33.577  43.898   4.339
60789W        W24722  23.150  10.159  13.930
60790W        W24723  24.594  34.374  11.871
60791W        W24724  27.993  29.976   4.775
60792W        W24725  37.009   4.771   2.873
60793W        W24726  13.804  28.544   3.826
60794W        W24727  37.035  33.548  14.007
60795W        W24728   6.715  10.161   3.191
60796W        W24729  20.544  20.100  11.048
60797W        W24730  33.479  40.034  14.294
60798W        W24731  20.242  35.107   0.752
60799W        W24732  13.192   5.881  10.905
60800W        W24733  24.667  44.274  11.972
60801W        W24734  14.182   0.857   0.302
60802W        W24735  20.677  25.042   1.894
60803W        W24736  28.174   7.698   3.828
60804W        W24737   8.735   9.785  11.610
60805W        W24738  20.106  25.553   2.221
60806W        W24739  33.049   4.808   0.850
60807W        W24740  23.715  28.931   0.727
60808W        W24741  23.196   0.428   3.647
60809W        W24742  30.035  33.958  12.982
60810W        W24743  22.181  15.722  10.422
60811W        W24744  35.489  12.644  10.559
60812W        W24745   4.864   3.270   2.888
60813W        W24746  31.598  42.927   2.214
60814W        W24747   2.323  11.260   4.332
60815W        W24748  18.577  15.642   3.697
60816W        W24749  38.423   9.373  13.792
60817W        W24750  30.505  17.081   4.147
60818W        W24751  30.554  34.392  10.920
60819W        W24752  31.109  11.368  13.314
60820W        W24753  26.107  30.012  12.970
60821W        W24754  32.449  42.840  14.775
60822W        W24755  10.174   2.251  10.634
60823W        W24756  38.058  23.714  13.944
60824W        W24757   8.831  14.792   5.232
60825W        W24758  26.507  28.044  11.954
60826W        W24759  41.532  11.640   0.910
60827W        W24760  12.167  27.663   1.716
60828W        W24761  34.023  15.607   2.331
60829W        W24762  43.961  32.924  14.360
60830W        W24763  15.202  31.139   3.651
60831W        W24764   3.338  23.664   0.246
60832W        W24765  11.256  24.989   0.436
60833W        W24766  30.656  38.895  13.468
60834W        W24767   7.777  24.501  14.028
60835W        W24768  34.863  33.451   0.431
60836W        W24769  23.199   9.722   0.877
60837W        W24770  41.939  44.943  14.868
60838W        W24771  18.165  19.177  11.070
60839W        W24772  18.274  15.177   0.260
60840W        W24773  14.730  30.102  13.414
60841W        W24774  38.494  19.667   0.889
60842W        W24775  12.737  43.881   4.151
60843W        W24776  14.785  15.147   3.378
60844W        W24777  33.889  18.587  14.277
60845W        W24778  35.008  27.186   3.856
60846W        W24779  38.470  42.420  12.355
60847W        W24780   8.300  41.346   3.355
60848W        W24781  38.470  23.089  12.558
60849W        W24782  38.066   6.788  12.548
60850W        W24783  41.827  44.435  11.560
60851W        W24784  28.499  42.799   1.239
60852W        W24785  42.483  28.940   0.777
60853W        W24786  22.541   5.364   4.656
60854W        W24787  20.064  42.951   0.480
60855W        W24788  38.438  20.581  14.910
60856W        W24789  12.163  27.531  11.860
60857W        W24790   6.355   8.833  14.817
60858W        W24791  43.373  22.121   3.687
60859W        W24792  29.443  37.048   1.835
60860W        W24793   0.382  22.679   0.470
60861W        W24794   8.900  32.993   1.315
60862W        W24795  40.936  28.577   2.720
60863W        W24796   0.906  35.506  12.842
60864W        W24797  10.859  18.067  11.021
60865W        W24798  40.464   2.935  14.462
60866W        W24799   4.767  44.299   2.778
60867W        W24800  15.155  10.784  13.967
60868W        W24801  43.943   0.449   1.726
60869W        W24802  27.623  28.507   1.415
60870W        W24803  36.029   1.397   3.843
60871W        W24804  16.216  43.470  10.532
60872W        W24805   0.983  32.585  10.404
60873W        W24806  39.369  22.578  10.994
60874W        W24807  26.680  18.695  13.974
60875W        W24808  26.614  33.045  12.062
60876W        W24809  17.662  24.020   1.721
60877W        W24810  13.328  32.952  13.994
60878W        W24811  33.402   7.828  11.399
60879W        W24812  14.766  35.427  12.057
60880W        W24813  24.110  37.902  12.486
60881W        W24814  37.025  26.954  12.014
60882W        W24815  17.577   0.254   2.307
60883W        W24816  15.695   6.677  12.563
60884W        W24817  28.607  21.726   4.146
60885W        W24818  18.108   5.353  11.501
60886W        W24819  32.576  15.581   1.746
60887W        W24820  28.956  24.582   2.703
60888W        W24821   5.899  21.151  12.548
60889W        W24822   4.331  31.587  14.847
60890W        W24823  32.573  12.685   0.910
60891W        W24824   2.294  33.617   0.321
60892W        W24825   4.790  26.144   3.165
60893W        W24826  25.117  15.311  12.967
60894W        W24827   0.425  19.078  13.844
60895W        W24828  14.818  19.545   2.314
60896W        W24829  15.138  12.137  12.020
60897W        W24830   2.929  16.183  11.434
60898W        W24831  40.814  19.163   4.294
60899W        W24832  20.560  21.636  13.371
60900W        W24833  32.501  32.484   3.684
60901W        W24834   9.792  10.268  12.825
60902W        W24835  39.912   3.758  13.804
60903W        W24836   6.731  25.552   5.731
60904W        W24837  38.530  30.462  14.316
60905W        W24838   2.947   4.863  12.959
60906W        W24839   1.900   6.684  12.912
60907W        W24840   1.356  24.595   3.219
60908W        W24841  24.142   2.771   3.747
60909W        W24842  19.716  41.825  10.580
60910W        W24843  29.534   7.216  10.449
60911W        W24844   1.959   4.316  13.373
60912W        W24845  42.458  22.709   2.752
60913W        W24846  11.863  39.536  14.435
60914W        W24847   4.365  23.491   2.291
60915W        W24848  33.620   8.692   3.780
60916W        W24849  35.946  13.253   4.693
60917W        W24850  27.100   5.841  13.360
60918W        W24851  31.060  42.833  13.023
60919W        W24852  43.381  19.187   3.839
60920W        W24853   9.278  19.215   1.410
60921W        W24854  19.623  16.154  12.971
60922W        W24855  37.565  30.528   3.831
60923W        W24856  11.137   1.978  13.476
60924W        W24857  24.053  26.530   3.752
60925W        W24858  13.812   3.949   1.231
60926W        W24859   0.377  31.467   2.267
60927W        W24860   9.279  37.569   4.169
60928W        W24861  33.509  40.542  11.074
60929W        W24862  14.593   6.416   3.309
60930W        W24863  27.685  20.689  14.343
60931W        W24864  17.163  35.970   1.843
60932W        W24865  23.159  20.127   3.647
60933W        W24866   6.415  31.976  10.109
60934W        W24867  25.546  34.521  13.017
60935W        W24868  39.386  39.039  10.977
60936W        W24869   9.164   1.921  10.458
60937W        W24870  11.800  36.455   0.749
60938W        W24871   8.314  15.653  10.084
60939W        W24872   2.799  21.607   2.204
60940W        W24873  17.277  43.460   0.477
60941W        W24874  19.639  28.547   0.407
60942W        W24875  30.921   5.696  12.474
60943W        W24876  11.840  13.801   4.714
60944W        W24877  28.454  31.572  11.890
60945W        W24878   1.971  36.503   2.761
60946W        W24879  19.259  36.505   3.689
60947W        W24880  13.835  21.239   5.172
60948W        W24881  31.475  35.507   0.354
60949W        W24882  14.099   0.456   2.781
60950W        W24883  43.955  19.568   1.740
60951W        W24884   1.253  10.742  12.344
60952W        W24885  24.213  44.926   4.696
60953W        W24886  10.277  15.128   4.287
60954W        W24887  12.141  16.696  12.409
60955W        W24888  43.005  35.884   9.477
60956W        W24889  31.120   9.842   4.161
60957W        W24890  35.553  34.493   2.685
60958W        W24891  11.671   1.393   2.301
60959W        W24892  22.183  31.925  12.961
60960W        W24893  15.142  31.429  11.022
60961W        W24894   8.346   8.360  12.525
60962W        W24895   0.986  41.946   4.650
60963W        W24896  14.618   4.317  13.518
60964W        W24897  11.186  14.622  11.904
60965W        W24898  33.945  18.613  14.893
60966W        W24899  30.659  36.386  11.104
60967W        W24900  14.248  35.395  14.375
60968W        W24901  39.432   2.444  12.015
60969W        W24902  27.967  18.252   2.211
60970W        W24903  44.354  10.749  12.423
60971W        W24904  14.660  22.655  11.124
60972W        W24905  29.151  33.615   1.338
60973W        W24906  38.449  30.505  13.446
60974W        W24907   8.368   7.792   3.762
60975W        W24908  10.871   2.449  14.909
60976W        W24909   2.741  11.257   4.145
60977W        W24910  15.257  27.570   0.409
60978W        W24911  13.132  41.470   0.339
60979W        W24912  33.998  40.944  14.467
60980W        W24913  43.826   3.358   4.712
60981W        W24914  26.659   6.849   2.298
60982W        W24915  27.600  44.358  12.509
60983W        W24916   4.404  26.524   2.811
60984W        W24917  25.120  22.189   2.761
60985W        W24918  29.458  42.020   4.349
60986W        W24919  27.142  33.950   4.765
60987W        W24920  41.451  30.606  11.021
60988W        W24921   6.406  34.033  12.842
60989W        W24922  13.763  13.306   1.241
60990W        W24923  24.119  13.759   2.799
60991W        W24924  20.094  19.243   2.802
60992W        W24925  18.094   7.393   3.205
60993W        W24926  42.917  14.227   3.183
60994W        W24927  36.494   1.917   3.831
60995W        W24928  14.249  14.165  13.993
60996W        W24929  12.675  43.940  10.572
60997W        W24930   0.447  19.187   0.856
60998W        W24931  15.733  26.140  13.918
60999W        W24932  43.885  11.849  11.407
61000W        W24933  31.412  30.118  14.365
61001W        W24934  12.180  13.280   4.793
61002W        W24935  14.151  21.263  11.015
61003W        W24936   3.922  15.195   0.325
61004W        W24937  22.007  30.598  13.329
61005W        W24938   3.343  44.266  10.487
61006W        W24939  37.050   6.689  11.857
61007W        W24940  37.413  39.837  12.012
61008W        W24941  17.676  18.587   3.188
61009W        W24942  30.523  36.395   5.302
61010W        W24943  32.001   8.713   0.930
61011W        W24944  43.379   4.856   4.302
61012W        W24945  25.682  36.993   1.444
61013W        W24946   7.392  17.208   0.897
61014W        W24947  38.887  42.004   4.122
61015W        W24948  40.330   6.729  12.989
61016W        W24949  24.155  38.846   5.323
61017W        W24950  30.978  14.314   0.259
61018W        W24951   8.826  36.538   1.362
61019W        W24952  14.110  37.054  10.432
61020W        W24953  28.040  41.903   2.190
61021W        W24954  36.897   0.983  13.903
61022W        W24955  16.207  23.991   4.698
61023W        W24956  20.054  20.068   4.744
61024W        W24957  32.918  26.643   0.329
61025W        W24958  39.538  21.017   4.118
61026W        W24959  12.265   7.882  12.570
61027W        W24960  35.395   3.808   4.782
61028W        W24961  17.091  42.820   4.286
61029W        W24962  25.214  25.590  12.067
61030W        W24963   3.867   0.903   2.801
61031W        W24964  27.950  32.443   4.654
61032W        W24965   3.402   7.738  11.474
61033W        W24966   1.952  17.299  11.397
61034W        W24967  19.130  14.701   1.883
61035W        W24968  15.256  42.393   1.279
61036W        W24969  25.700  11.795  14.924
61037W        W24970  39.991   1.964   2.324
61038W        W24971  13.701  33.985  12.976
61039W        W24972  37.457   7.276  12.547
61040W        W24973   7.787  38.033  10.487
61041W        W24974  38.848  11.749  14.882
61042W        W24975  35.457   0.923  10.636
61043W        W24976   6.743  11.836   0.451
61044W        W24977  32.056  28.522   3.250
61045W        W24978  33.576  43.798   0.456
61046W        W24979  13.839  11.808   2.249
61047W        W24980  17.169  39.846   2.871
61048W        W24981   8.380  15.206  13.995
61049W        W24982   7.357  29.984   1.837
61050W        W24983  11.828  15.677   1.243
61051W        W24984   7.283  26.190  13.840
61052W        W24985   0.785   2.258   3.675
61053W        W24986  22.548   6.819   1.309
61054W        W24987  25.140  28.678   4.156
61055W        W24988   0.986  20.181   3.779
61056W        W24989  11.144  12.736   1.909
61057W        W24990  28.109  29.148   4.792
61058W        W24991  22.521   6.427  12.371
61059W        W24992  11.765   5.434  13.430
61060W        W24993  42.018  36.565   4.352
61061W        W24994  11.808  26.634   0.938
61062W        W24995  29.946  11.320   0.806
61063W        W24996   0.401   2.737   3.698
61064W        W24997  31.031  34.014   0.326
61065W        W24998  13.249  18.665   3.293
61066W        W24999  38.018   9.188  10.971
61067W        W25000   1.957  37.968   4.340
61068W        W25001   5.289  33.010   3.192
61069W        W25002  11.237  42.000   2.242
61070W        W25003  13.634  36.007   1.296
61071W        W25004   1.791  32.017  12.970
61072W        W25005   1.401  35.014   1.421
61073W        W25006  20.763  11.183  10.952
61074W        W25007  39.958  21.162  11.950
61075W        W25008  40.946  12.719  13.922
61076W        W25009   0.436  21.514  11.996
61077W        W25010   6.822  40.393   0.413
61078W        W25011  30.085  38.877  11.051
61079W        W25012  12.839  32.995   4.162
61080W        W25013  36.532   1.946  11.020
61081W        W25014  28.594   8.389   0.730
61082W        W25015  15.726   4.814   1.387
61083W        W25016  41.516  28.600   1.772
61084W        W25017  33.906  22.156  10.443
61085W        W25018  38.032   1.297   0.404
61086W        W25019  11.641  32.507   0.929
61087W        W25020  19.056  11.824  11.044
61088W        W25021  36.451  28.489   3.338
61089W        W25022  35.041   6.418  13.803
61090W        W25023  31.108  29.546  11.088
61091W        W25024   6.779  12.180   2.893
61092W        W25025  39.991  43.293   4.817
61093W        W25026  26.030  21.174  11.461
61094W        W25027  25.556   2.366   0.821
61095W        W25028  44.808  33.453   4.618
61096W        W25029   1.381  26.187   4.243
61097W        W25030   4.743   5.204   3.736
61098W        W25031  19.715   8.301  11.427
61099W        W25032  14.156  22.009   3.811
61100W        W25033  33.069  28.675   4.336
61101W        W25034  19.776  10.733   1.393
61102W        W25035  12.854  12.850  10.608
61103W        W25036  39.858   7.710   4.270
61104W        W25037  13.314   9.327  14.284
61105W        W25038  23.216  36.886   2.217
61106W        W25039  16.771  21.641   3.759
61107W        W25040  13.649   5.837   5.143
61108W        W25041  24.091  24.156   0.409
61109W        W25042  13.766  34.916  12.032
61110W        W25043   2.460  31.955  11.377
61111W        W25044  27.181  30.413  11.457
61112W        W25045  27.150  19.733   4.153
61113W        W25046  36.398   5.379   2.324
61114W        W25047  36.999  34.015   3.652
61115W        W25048   6.891  17.233  10.954
61116W        W25049  19.051  10.790  11.478
61117W        W25050  40.510   5.735  11.612
61118W        W25051   6.901  14.132  11.010
61119W        W25052  33.563  23.030  14.846
61120W        W25053  42.430  16.219  13.394
61121W        W25054  10.176   8.302  14.889
61122W        W25055  22.736  30.543   4.350
61123W        W25056   6.357  30.040   4.248
61124W        W25057  14.135  28.553   0.849
61125W        W25058  37.019  35.588  11.577
61126W        W25059  24.104  21.655  12.522
61127W        W25060  32.131  16.813   1.346
61128W        W25061  28.013   8.344   2.733
61129W        W25062  25.525  18.163  11.406
61130W        W25063  35.961  11.627   3.857
61131W        W25064  42.408  40.428  12.958
61132W        W25065   6.911  20.267   0.737
61133W        W25066  33.488   3.942   2.350
61134W        W25067  33.481   1.798  12.548
61135W        W25068  43.447  25.569   0.307
61136W        W25069   6.306  14.599  11.078
61137W        W25070  40.039  28.459   4.228
61138W        W25071   2.920  17.770   4.335
61139W        W25072  11.651  14.699  13.838
61140W        W25073  39.431  35.992  13.509
61141W        W25074  11.335   8.760  10.633
61142W        W25075  23.682  41.822   2.738
61143W        W25076  14.700   1.973  14.906
61144W        W25077  10.222  38.034   3.733
61145W        W25078  18.187  18.127  12.417
61146W        W25079  20.613   9.701  14.967
61147W        W25080  19.103  28.597   1.407
61148W        W25081   4.386  19.618   4.687
61149W        W25082   5.371  25.652   4.817
61150W        W25083  36.554   5.279  13.956
61151W        W25084   1.951  13.641  12.093
61152W        W25085  29.175  13.640   0.404
61153W        W25086  32.097  33.604  12.401
61154W        W25087  14.740  26.086   2.243
61155W        W25088  44.499  20.751  10.558
61156W        W25089   2.262  29.086   1.347
61157W        W25090  27.066  15.695   2.197
61158W        W25091  24.146   7.205  14.999
61159W        W25092  26.487  38.860   5.180
61160W        W25093  32.594  34.409   2.394
61161W        W25094   1.821  21.098  13.499
61162W        W25095  21.223  15.212   0.825
61163W        W25096  15.266  33.043  14.017
61164W        W25097  12.343  15.748   0.451
61165W        W25098  38.828  10.870  12.556
61166W        W25099  26.477  42.975   3.703
61167W        W25100   4.720   3.427   3.380
61168W        W25101   7.237  19.281  11.856
61169W        W25102  28.581  20.720  11.535
61170W        W25103  31.911  38.929  13.926
61171W        W25104  18.622  43.947  12.949
61172W        W25105  18.726  41.935  10.604
61173W        W25106   8.233  39.385   3.813
61174W        W25107  13.645  17.275   2.304
61175W        W25108  25.678  32.008  10.972
61176W        W25109  25.693  11.292  13.439
61177W        W25110  20.199   4.378  11.947
61178W        W25111  19.217  11.640  14.979
61179W        W25112   9.807  16.281  14.411
61180W        W25113  31.526   6.290   4.320
61181W        W25114  23.024   6.739   3.382
61182W        W25115  11.277  41.381  10.996
61183W        W25116   8.700  42.018  11.979
61184W        W25117  41.385  36.867   1.309
61185W        W25118   5.397  26.502   2.854
61186W        W25119   5.430   2.230   1.707
61187W        W25120   2.226  22.500  13.415
61188W        W25121  39.064  41.427   0.914
61189W        W25122  17.064  13.325  13.893
61190W        W25123  36.561  34.533  13.370
61191W        W25124  19.752  18.693  10.991
61192W        W25125  26.632  41.449   0.776
61193W        W25126   8.214  32.499  13.976
61194W        W25127  20.143  26.684   3.256
61195W        W25128  44.862  36.879   4.806
61196W        W25129  41.801   2.318  13.361
61197W        W25130  34.566  35.578  11.064
61198W        W25131  38.036   2.467   4.185
61199W        W25132  11.154  35.362  14.853
61200W        W25133  21.028  31.092   4.284
61201W        W25134  19.773  44.413   0.745
61202W        W25135  39.951  25.714   0.433
61203W        W25136  23.184  26.053  13.534
61204W        W25137   0.808  34.543   3.770
61205W        W25138  35.928  15.220  10.599
61206W        W25139   0.365  19.577  14.464
61207W        W25140   9.370  20.268   1.267
61208W        W25141  39.313   0.945   1.920
61209W        W25142  18.654  15.272   1.836
61210W        W25143  19.579  26.572   3.832
61211W        W25144  13.778  25.184  13.532
61212W        W25145  44.483  11.225   2.797
61213W        W25146  26.565   9.722   3.735
61214W        W25147  20.160  17.610   3.757
61215W        W25148  21.725  19.647   3.866
61216W        W25149   2.366  39.033  12.029
61217W        W25150   0.981  26.630  10.917
61218W        W25151   4.212  22.117   3.638
61219W        W25152   4.739  19.070   2.793
61220W        W25153   2.835  36.470   4.120
61221W        W25154  32.551   3.256   1.732
61222W        W25155   6.209  43.986  11.117
61223W        W25156  18.581  30.979  12.471
61224W        W25157  42.499   7.771   1.445
61225W        W25158   1.381  41.977  10.590
61226W        W25159  26.997  36.434  14.376
61227W        W25160   5.930  31.968   9.921
61228W        W25161  19.596  17.712  14.370
61229W        W25162  20.569  27.490  13.010
61230W        W25163  15.297  29.924  14.458
61231W        W25164  15.151  41.508  10.413
61232W        W25165  14.698   3.924   5.143
61233W        W25166  27.174  37.034  12.868
61234W        W25167  24.518   6.740   0.252
61235W        W25168  31.084   6.400   1.827
61236W        W25169  15.257  13.202  10.523
61237W        W25170  20.705  33.499  14.010
61238W        W25171  17.632  32.574  14.306
61239W        W25172  20.175   4.886   2.223
61240W        W25173   3.919  10.167  10.999
61241W        W25174   2.811  29.136   3.348
61242W        W25175   4.813  24.192  12.833
61243W        W25176  43.432  28.488  12.015
61244W        W25177  43.401  17.671  11.474
61245W        W25178  20.070  18.545   0.426
61246W        W25179  31.450  35.014   2.236
61247W        W25180  20.759   0.407  14.963
61248W        W25181  34.009  20.643  14.365
61249W        W25182  33.612  26.497  13.815
61250W        W25183   1.826  34.905  11.467
61251W        W25184  19.667  21.194   3.275
61252W        W25185  16.269  30.010   1.841
61253W        W25186   7.412  12.832   4.728
61254W        W25187  11.351  20.083   2.701
61255W        W25188   5.399   7.334   0.810
61256W        W25189  38.363  32.622   0.473
61257W        W25190  23.601  33.626   3.861
61258W        W25191  24.484  27.189   2.797
61259W        W25192  37.985  16.217   1.413
61260W        W25193  30.583   2.428   3.865
61261W        W25194  24.152  26.121   4.295
61262W        W25195  28.110   5.200   3.345
61263W        W25196  25.647  27.490   1.907
61264W        W25197  43.837  27.564  14.836
61265W        W25198  43.868   2.793  12.558
61266W        W25199  14.835  42.779  11.562
61267W        W25200  36.581  33.895   1.903
61268W        W25201  10.737  14.283  14.363
61269W        W25202   4.891  32.404   3.373
61270W        W25203  15.675  41.325   0.734
61271W        W25204  19.651   6.427   3.361
61272W        W25205  24.217  15.177   2.371
61273W        W25206  26.001  30.615   3.644
61274W        W25207  42.437  21.726   2.757
61275W        W25208  13.121  23.206  12.084
61276W        W25209   5.926  24.697  13.308
61277W        W25210  39.971  42.390   3.332
61278W        W25211  24.202  18.217   1.383
61279W        W25212  44.759   1.381   3.651
61280W        W25213  31.048  13.672   1.340
61281W        W25214   8.718  31.633  13.543
61282W        W25215  39.437  26.557  14.822
61283W        W25216  23.611  42.524   9.659
61284W        W25217  37.040   6.809   2.344
61285W        W25218  39.480   0.273   0.957
61286W        W25219  34.994  11.863   4.203
61287W        W25220   5.865  44.470   2.193
61288W        W25221  41.836   8.346   3.358
61289W        W25222   7.279   8.254  11.480
61290W        W25223  41.519  18.180  13.061
61291W        W25224  29.068  16.159  11.890
61292W        W25225  38.019   9.355  12.393
61293W        W25226  31.068  10.731   3.176
61294W        W25227  15.230  40.484   2.216
61295W        W25228  12.681  17.201  11.405
61296W        W25229  13.192  15.185   0.318
61297W        W25230  23.678   8.173   4.345
61298W        W25231  38.874   6.185  11.087
61299W        W25232  14.776  20.766  10.412
61300W        W25233   7.718  34.519  11.534
61301W        W25234   0.752  18.544   4.715
61302W        W25235  35.492  14.781  14.367
61303W        W25236  11.331  33.438   0.412
61304W        W25237   3.892   1.853  14.869
61305W        W25238  12.847  20.691  10.927
61306W        W25239  30.421  27.577  13.390
61307W        W25240  38.362  17.677   0.314
61308W        W25241  31.485  20.170  12.576
61309W        W25242  15.255  23.115   2.248
61310W        W25243   5.379  42.903  14.312
61311W        W25244  13.760  19.201   0.308
61312W        W25245   7.345  29.430   4.166
61313W        W25246  10.288  22.227   3.650
61314W        W25247  25.066  13.331   5.776
61315W        W25248  19.217  31.641  10.435
61316W        W25249  17.258  24.714   4.153
61317W        W25250   0.877  25.201  14.829
61318W        W25251  25.593  38.946  12.019
61319W        W25252  25.003  36.584  14.881
61320W        W25253  15.724  18.706  14.515
61321W        W25254  44.777  15.653  10.939
61322W        W25255   7.814  11.792   4.745
61323W        W25256  31.061  20.688   4.771
61324W        W25257   8.366   7.854   1.249
61325W        W25258  40.950  44.822   3.738
61326W        W25259   5.432  38.844   4.306
61327W        W25260   4.266  29.145   1.857
61328W        W25261  26.549  36.465   5.116
61329W        W25262  24.562  32.391   3.368
61330W        W25263  25.996  27.614   0.473
61331W        W25264  28.650  12.766  13.374
61332W        W25265  37.343  43.350   0.810
61333W        W25266   9.829  38.504  11.373
61334W        W25267  25.172  29.631  11.587
61335W        W25268  15.755  16.158   4.161
61336W        W25269  12.688  13.301  13.485
61337W        W25270  35.514   6.804   3.325
61338W        W25271  15.816  15.277   0.342
61339W        W25272  24.564   7.316   1.234
61340W        W25273   9.757  43.401  13.523
61341W        W25274  16.265  44.956   3.234
61342W        W25275  29.077  22.171  13.972
61343W        W25276  22.603  28.084   4.597
61344W        W25277  11.736   9.821   3.272
61345W        W25278  26.697  14.165   0.481
61346W        W25279  41.979   9.234   2.406
61347W        W25280  22.246  31.017   4.798
61348W        W25281  40.988   0.493   2.360
61349W        W25282  40.857  17.253   4.695
61350W        W25283  20.610   0.942   4.308
61351W        W25284  38.024  11.192  10.632
61352W        W25285  36.351  27.620   3.346
61353W        W25286  16.302   1.955   4.309
61354W        W25287  40.984  11.158  11.870
61355W        W25288  44.938  17.704  14.372
61356W        W25289   7.778  44.266   0.872
61357W        W25290  21.616  12.150   9.447
61358W        W25291  17.577  36.561   0.272
61359W        W25292  38.560  10.320   0.253
61360W        W25293   9.312  25.631  14.392
61361W        W25294   7.837  39.338  14.466
61362W        W25295  38.530  11.742  14.966
61363W        W25296  10.330  22.169  14.511
61364W        W25297  25.156  33.071  14.405
61365W        W25298  22.664  34.536   2.786
61366W        W25299   8.709  32.966  11.401
61367W        W25300  20.595   2.369  10.445
61368W        W25301  11.192  23.664   2.319
61369W        W25302  28.014  14.310  10.042
61370W        W25303  37.014  31.054   0.480
61371W        W25304  15.328  35.444   0.878
61372W        W25305  18.748  12.672  10.000
61373W        W25306   0.969  10.138   3.723
61374W        W25307  43.358  38.959   1.719
61375W        W25308  30.130  37.038   4.627
61376W        W25309  23.017   5.772  14.483
61377W        W25310   8.172  38.403  10.594
61378W        W25311  14.635   7.756   5.133
61379W        W25312  17.205  28.956  10.071
61380W        W25313  25.504   2.897   4.692
61381W        W25314  35.529  38.857   2.374
61382W        W25315  30.507  12.708  10.512
61383W        W25316   6.351  24.102   2.687
61384W        W25317  36.584  33.945   4.345
61385W        W25318   3.905  34.431   1.212
61386W        W25319   4.325  21.703  12.449
61387W        W25320  22.033   2.268   2.732
61388W        W25321  31.472  43.278  11.399
61389W        W25322  37.935   3.382  14.987
61390W        W25323  15.644  43.512   1.814
61391W        W25324  15.303  29.159   3.779
61392W        W25325  34.097  11.772   0.413
61393W        W25326   8.738  20.147  12.480
61394W        W25327  11.309  11.819  14.496
61395W        W25328  20.052  36.930   9.518
61396W        W25329  41.403  25.122  13.316
61397W        W25330  24.573   8.855   0.290
61398W        W25331   6.849  27.181   0.842
61399W        W25332  16.617  11.193   2.401
61400W        W25333  35.457   7.239   1.890
61401W        W25334  18.748  44.913  11.121
61402W        W25335  41.486  31.408  10.904
61403W        W25336  23.988  17.567  10.550
61404W        W25337  25.618   4.241  13.361
61405W        W25338  24.111  27.183   1.712
61406W        W25339  26.470   2.946  13.322
61407W        W25340  31.140  29.600   4.797
61408W        W25341  24.655  28.631  10.576
61409W        W25342   8.855  18.623   0.451
61410W        W25343  29.104   1.445  10.636
61411W        W25344  44.941  41.385  12.510
61412W        W25345  38.493  32.888  11.561
61413W        W25346  22.547  35.458  10.517
61414W        W25347  39.358  15.583  14.960
61415W        W25348   7.289  42.478  12.459
61416W        W25349  38.474  42.996  11.098
61417W        W25350  29.522  16.280   4.727
61418W        W25351  33.410  36.456   1.874
61419W        W25352  26.039   7.679  11.048
61420W        W25353  13.137  25.634   1.296
61421W        W25354  22.517  24.033   1.896
61422W        W25355  34.091  42.974  11.407
61423W        W25356  18.647  32.541  13.907
61424W        W25357  43.472  30.014   2.372
61425W        W25358  29.074  40.469   4.184
61426W        W25359   4.790  24.495  13.852
61427W        W25360  22.016  34.542   1.863
61428W        W25361   3.220  31.910   1.696
61429W        W25362  21.522  40.541   1.293
61430W        W25363  18.578  38.930   1.317
61431W        W25364  14.649  43.467   3.681
61432W        W25365  26.610  12.331  10.994
61433W        W25366  35.864  21.557  13.310
61434W        W25367  32.464  41.005  11.442
61435W        W25368  40.821  44.327  13.483
61436W        W25369  39.364   2.744  12.089
61437W        W25370  28.545   6.853  12.505
61438W        W25371   2.847   8.779   1.935
61439W        W25372  32.126  36.997   3.287
61440W        W25373  22.059  20.145   1.826
61441W        W25374  42.376  16.177  12.996
61442W        W25375   1.738  24.522   1.808
61443W        W25376  21.548  44.765   1.873
61444W        W25377   6.207  26.177   3.368
61445W        W25378   2.960  43.871  10.593
61446W        W25379   6.826  18.074   1.437
61447W        W25380   7.879  43.959  12.514
61448W        W25381  42.340  43.881  10.938
61449W        W25382  20.763   4.922   2.182
61450W        W25383  42.853  37.022   4.326
61451W        W25384  29.051  28.004   3.165
61452W        W25385  43.929   8.304   4.125
61453W        W25386  10.359  13.799   2.717
61454W        W25387  14.731  33.516   5.242
61455W        W25388  38.042   8.825  14.369
61456W        W25389   3.270  32.418  13.514
61457W        W25390   5.390   8.300   1.255
61458W        W25391  10.319   1.763   1.346
61459W        W25392   5.414  14.308  11.373
61460W        W25393  30.605  29.037   1.239
61461W        W25394  21.134   0.937   2.271
61462W        W25395  28.666  41.338   0.436
61463W        W25396   5.898  41.363  14.783
61464W        W25397  34.942   7.715   4.614
61465W        W25398  32.088  19.199   1.392
61466W        W25399  11.128  27.460  12.407
61467W        W25400  43.858   6.809  11.082
61468W        W25401  32.559   3.376  11.400
61469W        W25402  13.114   1.291  14.024
61470W        W25403   4.893  43.911   4.793
61471W        W25404  26.038   6.922  12.544
61472W        W25405  35.963   9.728  12.450
61473W        W25406  11.830  43.341  14.306
61474W        W25407  37.424  28.435   4.776
61475W        W25408  37.032  24.161  11.953
61476W        W25409   3.884  31.959  14.810
61477W        W25410  36.891   0.855   1.827
61478W        W25411  10.255  21.756   4.679
61479W        W25412  34.585  32.086   2.419
61480W        W25413  11.211   1.350  11.428
61481W        W25414  17.576  30.473   3.278
61482W        W25415  20.145   0.259   3.817
61483W        W25416  41.483  20.523   2.304
61484W        W25417  29.067  41.834  12.908
61485W        W25418  22.640   7.269   3.178
61486W        W25419  38.934  26.979  10.565
61487W        W25420  22.652  18.174  14.793
61488W        W25421   4.827  17.630  14.363
61489W        W25422  21.036  33.876   3.765
61490W        W25423  18.256  18.656   2.405
61491W        W25424  41.970  13.200  12.404
61492W        W25425  20.109   9.164   2.726
61493W        W25426  38.451  13.602   0.911
61494W        W25427  18.718   4.708   0.438
61495W        W25428   3.745  34.434  13.480
61496W        W25429  16.583  43.786   1.819
61497W        W25430  19.633  30.010   4.648
61498W        W25431   3.445  15.287  12.406
61499W        W25432  28.031  13.277  13.058
61500W        W25433   1.428  10.635   2.302
61501W        W25434  21.050  22.686  12.506
61502W        W25435  19.139  31.501   0.887
61503W        W25436   9.839  31.460   2.773
61504W        W25437  17.561   4.849  11.014
61505W        W25438   4.787  42.827   1.315
61506W        W25439  33.479  26.632   4.601
61507W        W25440   1.368  37.027  11.068
61508W        W25441  42.830  12.645   4.115
61509W        W25442  18.142  19.747  14.308
61510W        W25443  34.529  16.687   2.873
61511W        W25444  40.850   2.866  13.425
61512W        W25445  10.674  13.605  12.382
61513W        W25446  27.550  36.942   0.242
61514W        W25447   6.749  39.397   3.830
61515W        W25448  17.683  28.016   3.768
61516W        W25449  40.979  24.686   4.622
61517W        W25450  43.494   6.401   3.244
61518W        W25451  26.491  29.427   0.894
61519W        W25452  12.272  16.296   0.761
61520W        W25453  16.130  25.714  12.916
61521W        W25454   1.286  41.501   0.797
61522W        W25455  31.090  24.135   0.748
61523W        W25456  34.983  40.015   4.624
61524W        W25457  33.971  41.381  11.604
61525W        W25458  25.048  17.270   0.453
61526W        W25459  34.059   0.487  14.964
61527W        W25460  13.634  21.736  12.510
61528W        W25461  13.304  31.611   4.688
61529W        W25462  25.629  25.046   3.768
61530W        W25463  18.119  36.479  11.533
61531W        W25464  40.825  39.348   5.218
61532W        W25465  25.588  33.912  12.386
61533W        W25466  12.300  29.988  10.987
61534W        W25467  29.043  35.524  11.063
61535W        W25468   2.897  11.323  14.326
61536W        W25469  20.543  35.444  12.355
61537W        W25470  14.106  22.201  10.407
61538W        W25471  15.162   6.184  11.380
61539W        W25472  20.749   9.242   3.323
61540W        W25473   5.864  24.665  14.286
61541W        W25474  18.234  13.722  14.357
61542W        W25475  26.580   0.800  12.553
61543W        W25476   1.828  36.518  13.935
61544W        W25477  10.323  41.996   9.952
61545W        W25478  41.988  33.012   0.431
61546W        W25479   8.233   3.249   0.938
61547W        W25480  30.098  21.598   4.159
61548W        W25481  26.007  15.740  13.502
61549W        W25482  37.480  44.875  12.502
61550W        W25483  43.406  19.108  12.959
61551W        W25484   7.694  18.176  12.838
61552W        W25485  22.548  37.041   4.686
61553W        W25486   2.438  41.473   3.697
61554W        W25487  44.946   1.242  14.865
61555W        W25488  30.927  26.199  12.421
61556W        W25489  21.517  17.564   1.805
61557W        W25490  19.626  22.110  11.473
61558W        W25491  10.703  39.342  12.960
61559W        W25492  35.558   6.690   0.858
61560W        W25493  20.703  36.982   2.875
61561W        W25494   6.901   1.834  11.434
61562W        W25495  16.583  31.469  14.768
61563W        W25496  16.157  35.376  14.457
61564W        W25497  41.869   5.383   2.321
61565W        W25498  27.594  28.031  10.902
61566W        W25499  20.166  37.364  12.967
61567W        W25500  13.837  28.607   1.791
61568W        W25501  31.049  25.013  10.124
61569W        W25502  44.754  19.060   2.863
61570W        W25503  38.866   5.215  10.149
61571W        W25504  28.932  26.966  14.924
61572W        W25505  42.441  10.140  13.415
61573W        W25506   9.246  27.638   4.344
61574W        W25507   5.795  34.968   4.302
61575W        W25508   1.810  10.637  13.945
61576W        W25509  30.625  25.132   2.824
61577W        W25510  33.604  29.133   4.761
61578W        W25511   2.243   1.971  12.935
61579W        W25512  13.248  32.470   2.752
61580W        W25513  25.585  20.275   0.483
61581W        W25514  29.070  27.464   0.937
61582W        W25515  42.809  22.571   3.334
61583W        W25516  12.176  37.572  12.425
61584W        W25517  15.189  11.846   2.688
61585W        W25518  20.104  22.214   2.896
61586W        W25519  38.366  18.574  13.540
61587W        W25520   8.405   8.373  11.025
61588W        W25521  17.069   2.392  11.031
61589W        W25522   3.400  17.106   4.794
61590W        W25523  21.134  13.188  12.830
61591W        W25524  38.407  16.607   4.338
61592W        W25525  34.011  23.618   0.839
61593W        W25526  23.719  39.375   4.838
61594W        W25527  24.224  26.571  14.363
61595W        W25528  22.694  43.444  14.029
61596W        W25529  16.280  35.008   2.690
61597W        W25530   0.860   3.259  12.838
61598W        W25531  23.572  28.016   1.893
61599W        W25532   1.274  38.008  10.962
61600W        W25533  13.241  20.558  12.037
61601W        W25534  15.209   0.987   1.906
61602W        W25535  35.474  34.374   0.913
61603W        W25536   2.724  20.212  13.041
61604W        W25537   0.347  13.107   2.682
61605W        W25538  43.482  25.587   2.225
61606W        W25539  14.717  29.447   3.351
61607W        W25540  32.021  29.133  12.350
61608W        W25541  16.620  21.696   4.186
61609W        W25542  27.658  42.941   0.836
61610W        W25543  11.213   5.341   3.704
61611W        W25544  19.085  39.996  13.373
61612W        W25545   4.881  15.670   2.356
61613W        W25546  10.867  31.984  11.386
61614W        W25547  43.292   0.766  13.355
61615W        W25548   5.817  15.761   1.929
61616W        W25549  27.650   8.245  11.560
61617W        W25550  31.056  41.918  12.050
61618W        W25551  24.010  13.317   4.811
61619W        W25552  26.612  19.256  11.945
61620W        W25553  17.082  36.459   4.828
61621W        W25554  37.924   4.776  11.888
61622W        W25555   6.773   7.840   2.283
61623W        W25556  42.856  40.431   2.351
61624W        W25557  22.098  12.716   0.965
61625W        W25558   2.725  39.389  12.872
61626W        W25559   7.238  16.164  12.428
61627W        W25560  23.176  44.947  12.416
61628W        W25561  18.609  44.838  12.518
61629W        W25562  34.095  36.956  13.839
61630W        W25563  26.556  23.713   4.639
61631W        W25564  34.947  14.099   2.815
61632W        W25565   2.300  33.460   3.221
61633W        W25566  43.973   6.274  14.318
61634W        W25567  30.450   5.753  12.987
61635W        W25568  38.906  17.262   1.773
61636W        W25569  16.100  26.164  10.589
61637W        W25570  27.513  43.936   3.281
61638W        W25571  36.012  14.599  12.060
61639W        W25572  20.170   6.391  11.540
61640W        W25573  13.798  28.636  14.853
61641W        W25574   0.953  16.752   4.769
61642W        W25575  25.627   3.254  12.504
61643W        W25576  41.899   1.976   9.962
61644W        W25577  41.481  15.123   2.857
61645W        W25578  36.549  19.205   2.780
61646W        W25579  10.187  26.482  12.067
61647W        W25580  14.811  22.094  10.524
61648W        W25581  36.513  37.063   1.252
61649W        W25582   4.781  12.140  12.576
61650W        W25583  44.929  17.596  13.898
61651W        W25584  32.136  25.538   2.712
61652W        W25585  29.091  21.248  13.876
61653W        W25586  16.255  10.218  14.391
61654W        W25587   7.387  16.780   0.729
61655W        W25588  43.330  19.751   4.296
61656W        W25589   7.198  18.259  14.950
61657W        W25590  21.684  37.574  11.551
61658W        W25591  21.665  34.607  10.602
61659W        W25592   2.853   2.340  12.058
61660W        W25593  42.869  44.432   2.246
61661W        W25594  26.690  15.698  12.047
61662W        W25595  33.470  33.546  13.878
61663W        W25596  19.572  43.328  13.859
61664W        W25597  22.712  25.041   1.238
61665W        W25598  11.127  33.918   3.821
61666W        W25599  23.533  14.315   2.340
61667W        W25600   6.358  26.577  13.349
61668W        W25601  29.475  17.563   2.375
61669W        W25602   5.281  41.475   2.833
61670W        W25603   6.846  27.464  13.529
61671W        W25604  38.515  16.780  14.469
61672W        W25605   0.448   8.357  13.792
61673W        W25606  32.924  24.003  13.382
61674W        W25607   9.267  10.692   1.825
61675W        W25608  33.898   9.787   1.861
61676W        W25609   9.195  19.712   4.654
61677W        W25610   4.771  24.593   5.190
61678W        W25611  40.360  26.154  14.366
61679W        W25612   5.927  35.000  12.374
61680W        W25613  11.827   7.727  10.460
61681W        W25614   4.385  17.270   3.751
61682W        W25615   3.726   8.815  13.377
61683W        W25616  29.014  42.009  14.427
61684W        W25617   5.412  39.984  14.024
61685W        W25618  18.580  28.121   0.939
61686W        W25619  20.590  28.543  11.997
61687W        W25620   8.392   3.736  11.028
61688W        W25621  40.921   3.286   1.357
61689W        W25622   9.745  35.092   1.249
61690W        W25623  10.328  32.566   2.302
61691W        W25624  15.759  24.204  13.416
61692W        W25625  40.314  21.107  11.407
61693W        W25626  20.124  18.755   9.928
61694W        W25627  24.036  22.699   9.976
61695W        W25628  38.399   4.407  11.571
61696W        W25629  32.893  17.091  12.564
61697W        W25630   4.288  15.322  12.020
61698W        W25631  10.200  29.000  14.468
61699W        W25632  35.432  40.364  14.422
61700W        W25633   1.347   9.214   2.267
61701W        W25634  12.146  14.810   1.910
61702W        W25635   3.358   8.872   1.434
61703W        W25636   3.413  21.210   3.644
61704W        W25637  31.992   1.403  14.817
61705W        W25638  38.004   8.335   3.652
61706W        W25639  14.709  16.232  11.577
61707W        W25640  12.748   7.709   4.809
61708W        W25641  23.530   9.748   2.182
61709W        W25642  20.106  30.984  10.604
61710W        W25643  23.507  39.531   4.169
61711W        W25644  44.758   0.328  11.953
61712W        W25645  11.283  18.245   1.706
61713W        W25646  23.051  14.609   2.220
61714W        W25647  29.650  10.736  14.473
61715W        W25648  28.062  22.627  10.405
61716W        W25649   7.205  31.410  13.496
61717W        W25650  40.511  12.632   5.246
61718W        W25651  12.149   7.670  14.465
61719W        W25652  10.639  15.242  13.011
61720W        W25653  40.956  42.874  12.019
61721W        W25654  20.600  32.502  14.296
61722W        W25655   6.190  28.473  10.901
61723W        W25656  31.152  26.528   1.390
61724W        W25657  44.893   8.806   0.759
61725W        W25658  38.975  40.935   4.186
61726W        W25659  43.789  27.948  11.876
61727W        W25660  40.518  42.913   3.251
61728W        W25661   1.792   3.359   4.211
61729W        W25662  16.790  20.142  10.158
61730W        W25663  26.174  31.094   0.790
61731W        W25664   9.245  34.004  14.304
61732W        W25665  16.318  12.150  10.989
61733W        W25666   9.854  31.125   1.923
61734W        W25667  13.744   0.330   0.420
61735W        W25668  42.434  39.552   1.429
61736W        W25669  21.596  17.232  12.427
61737W        W25670  22.247   1.353  14.331
61738W        W25671  42.942   6.853  12.568
61739W        W25672   4.261  28.570  12.969
61740W        W25673  37.846  28.471   0.806
61741W        W25674  11.748  23.984  13.462
61742W        W25675  24.182  42.380  11.394
61743W        W25676  16.262  29.143   3.322
61744W        W25677  16.104  29.482  10.951
61745W        W25678   7.870  40.874  10.529
61746W        W25679  43.291  29.473  10.902
61747W        W25680  44.857  29.007  14.794
61748W        W25681   9.773  31.980   1.748
61749W        W25682  19.643  27.019  12.952
61750W        W25683  13.345  11.693  10.050
61751W        W25684  37.851  42.475   1.304
61752W        W25685  16.129  15.797  13.527
61753W        W25686  15.670   2.908   0.257
61754W        W25687  30.444  11.659   2.189
61755W        W25688  42.505  15.142  14.963
61756W        W25689  11.323  27.598   3.712
61757W        W25690  18.197   6.363   3.354
61758W        W25691  39.939   9.279   2.807
61759W        W25692  39.822  26.205   4.335
61760W        W25693  14.804   4.407  10.527
61761W        W25694  19.162  16.106  11.876
61762W        W25695  23.029   8.350   3.805
61763W        W25696  10.754   6.764  14.309
61764W        W25697  31.001   9.273   4.279
61765W        W25698  29.165  21.188  14.340
61766W        W25699   9.691   0.884   1.877
61767W        W25700  23.228  20.156  11.545
61768W        W25701  35.465  44.979  14.435
61769W        W25702  41.449  29.644  13.822
61770W        W25703  36.935  34.443   3.710
61771W        W25704   9.346  36.419   1.231
61772W        W25705  42.969  13.727  14.817
61773W        W25706   6.900  12.729  10.482
61774W        W25707   1.302  35.574   3.687
61775W        W25708  33.493  31.416   4.301
61776W        W25709  34.379   4.806  11.607
61777W        W25710  39.402  10.193  14.867
61778W        W25711  33.504  30.647  12.467
61779W        W25712  35.108  33.549  12.062
61780W        W25713  37.374  24.558   3.269
61781W        W25714   4.445  17.718  11.382
61782W        W25715  32.112  32.594   4.663
61783W        W25716   8.746  29.051  12.896
61784W        W25717  40.902  29.117  11.873
61785W        W25718  15.743  26.154   0.918
61786W        W25719  11.673  19.541   5.300
61787W        W25720   2.950   3.231  10.904
61788W        W25721  30.650  26.115  12.576
61789W        W25722   3.414  11.278   3.370
61790W        W25723  44.330  17.185   3.766
61791W        W25724   0.388   8.357   1.305
61792W        W25725  41.299  36.421   3.842
61793W        W25726   0.953  35.934  12.522
61794W        W25727  44.327   3.385  14.296
61795W        W25728   6.374  10.702   1.365
61796W        W25729  33.874  39.417   3.797
61797W        W25730  29.025   7.878  10.957
61798W        W25731   1.927  20.168  10.514
61799W        W25732  23.505   6.921  14.367
61800W        W25733   4.389   7.883   0.939
61801W        W25734  24.493  38.518   0.362
61802W        W25735  14.596  30.045  11.425
61803W        W25736  38.945  34.552  12.432
61804W        W25737  36.906  24.212  10.617
61805W        W25738  32.114  43.330   2.833
61806W        W25739  25.048  21.119  14.830
61807W        W25740  23.162   0.467  12.908
61808W        W25741   5.228   2.376  10.617
61809W        W25742  11.821  21.662   4.703
61810W        W25743  18.669  21.124  14.316
61811W        W25744  44.313  22.040   2.714
61812W        W25745  22.722  41.965  11.115
61813W        W25746   3.816  27.957  12.066
61814W        W25747  37.462  32.632   4.260
61815W        W25748  14.629  17.175  10.613
61816W        W25749  28.656  11.146  11.954
61817W        W25750  40.310  23.199  13.503
61818W        W25751   1.394  32.131   4.662
61819W        W25752  28.950  40.809  14.802
61820W        W25753  34.517  24.005   1.702
61821W        W25754   3.768   5.372  10.548
61822W        W25755  24.536  14.248  14.952
61823W        W25756  25.545  20.758  11.970
61824W        W25757  34.465  38.074  14.912
61825W        W25758   8.693  13.267   0.410
61826W        W25759   6.292  31.068   4.699
61827W        W25760  20.107  39.489  14.764
61828W        W25761   7.340  11.153   0.891
61829W        W25762  11.793  30.921  10.898
61830W        W25763  19.695  34.027  12.931
61831W        W25764   4.742   7.785  14.862
61832W        W25765  25.058  40.379  11.961
61833W        W25766   3.824  14.614   1.838
61834W        W25767  40.803  36.970   2.417
61835W        W25768  17.252  42.432  12.880
61836W        W25769   2.471  15.674  11.466
61837W        W25770  19.271  24.975  10.034
61838W        W25771  13.666   6.765   3.782
61839W        W25772  29.557  26.608  10.634
61840W        W25773  21.181  23.175  13.492
61841W        W25774  43.485  34.604   0.458
61842W        W25775   0.832  38.868   5.088
61843W        W25776  30.455  27.082  10.955
61844W        W25777  25.200  14.129   2.293
61845W        W25778  41.995  18.231   3.668
61846W        W25779  29.447  27.684   2.317
61847W        W25780  31.952  27.988  10.995
61848W        W25781  32.053   1.336  11.966
61849W        W25782  19.542  40.992  14.924
61850W        W25783  28.579  31.499   0.949
61851W        W25784   5.902   2.762   2.870
61852W        W25785   9.354  42.786   3.743
61853W        W25786  25.555   8.719   0.296
61854W        W25787  17.716   3.805  14.940
61855W        W25788  33.929  27.979  14.836
61856W        W25789  39.952  26.473   5.224
61857W        W25790  18.598  28.178   2.751
61858W        W25791  27.183  27.593   0.401
61859W        W25792  32.918   1.478  11.933
61860W        W25793  30.029  32.102   0.773
61861W        W25794  42.513   3.926   1.827
61862W        W25795  26.684  17.252  11.486
61863W        W25796  25.116   9.151   3.256
61864W        W25797  35.549  27.482   2.881
61865W        W25798  32.940  34.992  13.447
61866W        W25799   4.857   2.431   3.358
61867W        W25800  41.390  35.456  13.335
61868W        W25801  41.027  14.205  13.358
61869W        W25802  25.579   0.882  13.417
61870W        W25803  33.408   9.772   1.259
61871W        W25804   7.204   6.797   3.359
61872W        W25805  27.144  42.976  13.880
61873W        W25806  23.992  10.148   5.152
61874W        W25807  38.349   4.252  13.473
61875W        W25808   8.211   5.875   4.823
61876W        W25809  28.596   4.752  13.329
61877W        W25810  32.416   0.797  14.017
61878W        W25811  31.973  44.856   0.242
61879W        W25812  17.194  23.001   3.217
61880W        W25813  30.021   9.803  10.964
61881W        W25814  27.599   8.301  11.005
61882W        W25815  39.455  36.019   1.840
61883W        W25816  13.141  23.068  10.413
61884W        W25817  40.488  14.284  11.060
61885W        W25818  19.159  43.504   3.768
61886W        W25819  27.590  37.971  12.058
61887W        W25820  35.012  32.000   3.328
61888W        W25821   6.409  36.559  13.472
61889W        W25822   9.185  40.321   4.253
61890W        W25823  38.408  15.628   4.354
61891W        W25824   5.702  34.045   4.833
61892W        W25825  14.267   3.775   1.821
61893W        W25826  20.233  14.143   4.281
61894W        W25827  37.977  17.117   3.769
61895W        W25828  12.644  43.016  13.307
61896W        W25829  39.050   0.935  12.570
61897W        W25830  19.125  18.622   1.420
61898W        W25831  19.220  39.818   4.709
61899W        W25832  41.903  25.585   2.419
61900W        W25833  11.329   0.277  10.415
61901W        W25834   7.831  28.653   2.320
61902W        W25835  12.239  30.458  12.467
61903W        W25836   2.929  28.581   0.922
61904W        W25837  20.269   1.423   1.301
61905W        W25838  40.055  24.105  12.037
61906W        W25839  26.638  35.852  12.474
61907W        W25840  25.085  14.594  14.807
61908W        W25841  19.677  38.060  11.391
61909W        W25842   2.392  37.989   4.310
61910W        W25843  38.389   1.776  14.816
61911W        W25844  42.010  40.881   1.367
61912W        W25845  29.920  35.572  13.354
61913W        W25846  42.460  38.407  12.047
61914W        W25847  25.644  36.891   4.669
61915W        W25848  28.436  10.704  11.522
61916W        W25849  37.878  19.156   3.646
61917W        W25850  24.179  37.556  11.915
61918W        W25851   9.730   9.830  12.395
61919W        W25852  23.119  11.800  10.031
61920W        W25853  14.717  36.508  10.619
61921W        W25854   2.931  38.965   0.274
61922W        W25855  38.358   2.826  13.022
61923W        W25856  33.960  24.655  13.993
61924W        W25857  43.326   9.729   2.231
61925W        W25858  30.602  27.175  12.367
61926W        W25859   3.808   5.235   1.310
61927W        W25860  15.182   6.768   4.217
61928W        W25861  25.191  36.916  14.377
61929W        W25862  35.381  29.107  12.065
61930W        W25863  37.059   2.762  10.467
61931W        W25864  23.136   6.732   1.740
61932W        W25865  34.473   9.233  14.794
61933W        W25866  27.505  16.783  14.364
61934W        W25867  43.339  14.315  10.527
61935W        W25868  28.600   6.711   1.330
61936W        W25869   0.809  30.523  12.350
61937W        W25870   1.756  23.073   1.911
61938W        W25871  10.250   9.312  10.965
61939W        W25872  43.478  38.920  14.848
61940W        W25873  25.181  19.256   4.747
61941W        W25874  11.767  40.963   4.285
61942W        W25875  37.354  34.012   2.228
61943W        W25876  20.158   6.322   1.774
61944W        W25877  12.337  24.141   4.820
61945W        W25878  15.246  10.676  10.963
61946W        W25879  36.437  42.427   2.681
61947W        W25880  12.194  29.554  14.302
61948W        W25881  29.022  36.513  10.602
61949W        W25882  35.076  17.241  14.294
61950W        W25883  30.509  35.053  13.491
61951W        W25884  31.495  35.397   2.792
61952W        W25885  28.568   6.720  13.526
61953W        W25886  11.714  22.638   2.731
61954W        W25887  23.498   8.842   0.273
61955W        W25888  27.539   6.241   1.406
61956W        W25889  22.516  43.920   0.432
61957W        W25890  20.182  13.203  14.960
61958W        W25891  44.361  13.770   3.843
61959W        W25892  17.237  38.385   3.369
61960W        W25893   5.308   7.755   4.722
61961W        W25894  27.076   5.210  11.097
61962W        W25895  35.521   4.744   4.244
61963W        W25896  16.636  10.809  13.488
61964W        W25897  22.157  36.979   1.784
61965W        W25898  31.602  31.033  14.001
61966W        W25899   3.868  12.152   1.742
61967W        W25900  28.504  16.240  10.581
61968W        W25901  36.575   6.208   3.754
61969W        W25902  31.117  10.302  12.068
61970W        W25903  30.014   0.456  13.879
61971W        W25904  40.911   1.268   2.226
61972W        W25905   8.233  11.256  10.449
61973W        W25906  40.429   2.800  12.536
61974W        W25907  15.136   4.364   1.874
61975W        W25908  32.448  30.442   4.723
61976W        W25909  19.067  31.033  10.511
61977W        W25910  34.479   5.427   2.182
61978W        W25911  43.274  27.165  10.496
61979W        W25912  44.504  19.276  14.906
61980W        W25913  32.888  41.825  10.482
61981W        W25914  13.195   7.771   3.739
61982W        W25915  20.538  24.135  13.891
61983W        W25916  33.567  10.724   2.824
61984W        W25917  40.451  24.564  10.445
61985W        W25918   6.399  15.611   2.257
61986W        W25919  42.451  14.291   4.207
61987W        W25920   0.871  28.082   3.737
61988W        W25921  23.617  27.515  12.340
61989W        W25922  35.887  33.538   0.317
61990W        W25923  18.111  17.624   3.784
61991W        W25924  10.323  38.057   2.205
61992W        W25925  17.676  36.543   9.926
61993W        W25926  36.847   4.902   3.799
61994W        W25927   7.716   9.388  10.535
61995W        W25928  40.539   4.801   4.170
61996W        W25929  39.368   8.673  14.352
61997W        W25930   1.303  23.216   4.712
61998W        W25931  17.280  33.043  13.399
61999W        W25932  11.180   2.758  11.583
62000W        W25933  14.286   4.368  11.596
62001W        W25934  10.839  19.275  11.466
62002W        W25935  38.935  31.493   4.343
62003W        W25936  10.781  17.216   2.230
62004W        W25937  31.461  42.414   4.331
62005W        W25938  16.180   0.357   4.276
62006W        W25939  15.162  42.427  11.040
62007W        W25940  20.601  44.465  13.846
62008W        W25941  16.309  24.208  14.421
62009W        W25942  23.534  15.234   1.701
62010W        W25943  13.644  33.504   3.774
62011W        W25944  22.611  21.225   3.675
62012W        W25945   8.260  28.158   4.670
62013W        W25946  14.808  27.984  13.452
62014W        W25947   2.347  31.028   0.759
62015W        W25948   9.372  30.078   2.759
62016W        W25949   2.855  38.002   0.322
62017W        W25950   0.431  15.175   1.392
62018W        W25951  40.350  36.931  13.815
62019W        W25952  29.499  32.916  10.934
62020W        W25953  21.136  19.210  14.393
62021W        W25954  13.265  36.519  12.449
62022W        W25955  12.668  28.546  14.294
62023W        W25956  25.998  18.751   1.388
62024W        W25957  17.614  11.732  11.872
62025W        W25958  44.976   9.848   4.670
62026W        W25959  26.136  17.696   3.246
62027W        W25960   7.187  14.811  10.623
62028W        W25961   1.300   8.372  11.003
62029W        W25962   9.383  31.976   4.599
62030W        W25963  28.119  26.676  11.601
62031W        W25964  39.972  36.437   0.942
62032W        W25965  19.096  40.468   2.786
62033W        W25966   7.404  18.245   4.317
62034W        W25967  41.331  41.493   0.960
62035W        W25968  42.477  38.452  13.012
62036W        W25969  29.607  18.181   0.473
62037W        W25970  22.096  31.133   3.244
62038W        W25971   4.763  34.609  10.129
62039W        W25972  23.525  31.616  11.498
62040W        W25973  26.626  21.138   3.765
62041W        W25974  21.644  25.707  14.817
62042W        W25975   5.817  39.350  12.568
62043W        W25976  35.881  39.858   4.175
62044W        W25977   2.781  24.528   4.196
62045W        W25978  32.527   5.910  11.467
62046W        W25979   9.181   1.886  11.864
62047W        W25980  32.128  12.779   2.842
62048W        W25981  19.163  26.990   2.825
62049W        W25982  31.469   2.935  13.371
62050W        W25983  26.502  40.326   2.419
62051W        W25984  38.842   7.331  13.821
62052W        W25985  42.015  39.478   0.874
62053W        W25986  41.845  24.480   4.164
62054W        W25987   0.971   5.771  13.370
62055W        W25988  19.686  14.823  13.843
62056W        W25989   1.348  44.978  10.554
62057W        W25990  40.024  10.807  10.404
62058W        W25991  39.916  25.713   2.708
62059W        W25992   6.381  11.696  12.511
62060W        W25993   0.750  14.200  10.454
62061W        W25994  30.938  26.178   1.310
62062W        W25995  26.138  27.095  13.925
62063W        W25996  44.400  42.527   1.749
62064W        W25997  44.314  39.953  11.409
62065W        W25998  33.969   0.946   3.851
62066W        W25999  24.996  20.624   0.825
62067W        W26000  14.813   4.363   0.939
62068W        W26001  39.956  21.174   2.685
62069W        W26002  18.694  40.019   1.236
62070W        W26003   9.387  20.128  11.930
62071W        W26004   9.647  10.659   2.271
62072W        W26005  21.668  25.059  14.845
62073W        W26006  14.669  14.116   3.783
62074W        W26007   9.152  38.943   4.778
62075W        W26008  36.386  18.106  13.352
62076W        W26009  21.669  20.554   3.275
62077W        W26010  21.174  10.201   2.809
62078W        W26011  28.580  22.141  12.877
62079W        W26012  44.266  12.738   4.794
62080W        W26013   4.342  17.088   3.189
62081W        W26014  40.832  11.334   3.270
62082W        W26015  19.237   3.893  14.999
62083W        W26016   5.252  37.574  12.013
62084W        W26017   7.210  26.558   2.662
62085W        W26018  42.409  12.157   1.359
62086W        W26019   4.257   9.767  12.833
62087W        W26020  33.097  16.597   2.843
62088W        W26021  43.346  41.450   2.898
62089W        W26022  28.516  22.040  11.404
62090W        W26023  22.054  30.571   3.201
62091W        W26024  35.995  43.871  12.352
62092W        W26025  14.198  40.852   1.221
62093W        W26026  12.754   4.841   3.156
62094W        W26027  40.450  39.550  11.966
62095W        W26028  44.979  19.265   4.833
62096W        W26029  36.958  34.056  11.084
62097W        W26030  44.414  28.084  12.547
62098W        W26031  34.572   6.197  14.876
62099W        W26032  21.154  24.006  14.836
62100W        W26033  25.130  27.502   4.269
62101W        W26034   8.742  37.342  13.877
62102W        W26035   9.815  22.075   1.716
62103W        W26036  16.194   7.722   0.399
62104W        W26037  34.965  13.167   3.782
62105W        W26038  43.431  31.045   1.933
62106W        W26039   6.227   0.394  10.427
62107W        W26040  33.419  27.189  11.963
62108W        W26041  38.954  19.693   1.897
62109W        W26042   7.373  10.146   4.142
62110W        W26043  34.505  35.099   4.752
62111W        W26044  14.159   9.831  12.958
62112W        W26045  39.457   1.401   0.865
62113W        W26046  24.985   1.897   2.668
62114W        W26047  31.044  33.942  13.044
62115W        W26048  16.272  28.624  10.538
62116W        W26049  31.935   4.937  14.866
62117W        W26050   4.801  20.126  14.760
62118W        W26051  33.573  20.194   2.383
62119W        W26052  31.922   7.762  14.965
62120W        W26053  40.479  25.513  13.366
62121W        W26054  34.101  42.996  10.984
62122W        W26055  31.932  11.348  13.376
62123W        W26056  22.720  30.997  11.065
62124W        W26057  30.060  44.338  12.094
62125W        W26058  34.404  34.090   0.878
62126W        W26059  24.548   5.733   0.306
62127W        W26060  37.874  34.051  12.832
62128W        W26061  20.048  11.307  14.997
62129W        W26062  44.781  22.580   3.679
62130W        W26063  15.102   1.786   0.743
62131W        W26064   2.944  27.577   4.695
62132W        W26065  40.509   9.381  12.527
62133W        W26066  14.687  41.454  12.020
62134W        W26067  31.923   1.782   1.256
62135W        W26068  17.189   0.989  11.384
62136W        W26069  37.509   7.326  11.010
62137W        W26070  28.103   8.899   3.841
62138W        W26071   8.353  18.281  14.456
62139W        W26072   2.869  30.588   4.175
62140W        W26073  13.259  44.915  11.556
62141W        W26074  33.495  34.601  11.964
62142W        W26075   4.239   0.757  14.357
62143W        W26076  19.148  27.119  13.792
62144W        W26077  39.333   1.869   0.920
62145W        W26078  33.043   3.399  13.982
62146W        W26079  29.040  32.393  12.530
62147W        W26080   3.828  15.270   1.757
62148W        W26081  13.202  32.142   5.251
62149W        W26082  28.094   1.414  12.955
62150W        W26083  12.136  16.740   2.378
62151W        W26084  30.018  39.546   4.237
62152W        W26085  27.466  41.415  10.900
62153W        W26086  24.590  39.001   4.655
62154W        W26087  42.336  32.117   4.353
62155W        W26088  18.707  26.503   4.283
62156W        W26089   9.256   8.726  10.130
62157W        W26090  10.760  15.086  13.988
62158W        W26091  37.974  39.841  13.859
62159W        W26092  23.587  29.547  11.034
62160W        W26093   4.277  34.533  14.825
62161W        W26094  43.930  16.222  11.526
62162W        W26095  17.232   7.733  12.988
62163W        W26096   2.378   8.714  13.946
62164W        W26097  18.174  12.289   1.272
62165W        W26098  11.795  33.516   1.363
62166W        W26099  12.307  41.786  11.504
62167W        W26100  44.475  44.993  12.992
62168W        W26101  21.719  40.447   0.731
62169W        W26102   7.808  15.154  14.770
62170W        W26103  27.477  23.489   3.652
62171W        W26104  14.749  43.974  13.904
62172W        W26105   1.247  25.053   2.230
62173W        W26106  26.033  24.229   1.275
62174W        W26107   2.267  19.106  13.998
62175W        W26108  44.953  13.331  10.440
62176W        W26109  22.642  39.007  10.586
62177W        W26110  26.540  31.066  14.387
62178W        W26111  44.827   9.658   0.333
62179W        W26112  32.052  25.217   0.444
62180W        W26113  18.621  36.048  11.900
62181W        W26114  20.077  29.980   1.717
62182W        W26115   4.435  30.571   2.768
62183W        W26116  38.566  32.493  13.910
62184W        W26117  28.110  36.386   2.197
62185W        W26118   2.948   0.955  13.341
62186W        W26119   4.300  44.833  11.031
62187W        W26120  28.018  34.105   3.709
62188W        W26121  10.365   1.781   2.235
62189W        W26122   1.365  22.623   4.244
62190W        W26123  29.101  23.541   4.114
62191W        W26124  43.436  11.154  12.490
62192W        W26125  39.541   7.199  12.041
62193W        W26126  30.037  13.241  14.884
62194W        W26127  31.565  39.862   1.306
62195W        W26128  20.049  16.095  13.425
62196W        W26129   7.211  25.600   1.879
62197W        W26130  43.356  27.619  12.523
62198W        W26131  10.161   0.484   4.301
62199W        W26132  22.569   8.714  13.792
62200W        W26133  11.790  17.134  12.342
62201W        W26134   5.925   1.237  13.506
62202W        W26135  21.150   2.361   0.933
62203W        W26136  25.116  40.952  12.410
62204W        W26137  23.615  24.029   4.154
62205W        W26138   6.415  21.253  10.021
62206W        W26139  38.410  34.082   1.752
62207W        W26140  36.434  20.172   0.898
62208W        W26141   6.344  44.412   0.475
62209W        W26142  14.295  29.490  12.543
62210W        W26143  43.783  41.389   0.859
62211W        W26144   9.180  33.512  12.354
62212W        W26145  42.430  17.125   2.182
62213W        W26146  32.943  31.137  13.977
62214W        W26147  43.474  12.638   2.323
62215W        W26148  38.520  44.763  12.551
62216W        W26149  26.983  27.122  14.826
62217W        W26150  18.184  14.672   3.356
62218W        W26151  39.444  38.548  12.356
62219W        W26152  23.160  30.434   2.297
62220W        W26153  30.469  17.642  14.309
62221W        W26154  11.370   9.667   2.370
62222W        W26155  32.417  40.306  14.380
62223W        W26156   2.928   3.432   2.748
62224W        W26157   5.320  10.240  11.908
62225W        W26158  41.972  14.675   0.736
62226W        W26159  21.177  22.240   4.782
62227W        W26160  31.096   8.694  11.094
62228W        W26161   9.337  26.536   3.315
62229W        W26162  25.150  30.968   5.123
62230W        W26163  31.618   6.778  13.843
62231W        W26164  43.859  37.353  12.984
62232W        W26165  25.152  35.059   0.960
62233W        W26166  35.929  37.040   1.227
62234W        W26167  43.935   3.228  10.575
62235W        W26168  22.614  16.115  11.902
62236W        W26169  43.946  25.096   1.294
62237W        W26170  33.900  36.433  13.442
62238W        W26171  18.103  27.539  14.911
62239W        W26172  18.726  19.145  11.516
62240W        W26173  39.545  39.331   3.662
62241W        W26174  18.069  44.782  10.425
62242W        W26175  28.664  30.123   1.282
62243W        W26176  35.887   5.304  13.919
62244W        W26177  32.063   6.300  12.936
62245W        W26178  43.294  11.139   4.603
62246W        W26179  37.963  12.198  11.013
62247W        W26180   4.296   1.372  11.441
62248W        W26181  43.857  17.067   1.821
62249W        W26182  24.027  23.542   0.244
62250W        W26183   4.776  41.378   1.823
62251W        W26184  24.513  21.524  13.006
62252W        W26185   3.746  36.435   2.324
62253W        W26186  44.854  42.472   1.932
62254W        W26187   2.842  18.288  13.825
62255W        W26188  40.431   2.326  11.553
62256W        W26189  27.494  44.903  11.956
62257W        W26190   9.196  14.703   4.256
62258W        W26191  11.787   5.784  11.998
62259W        W26192  10.159  22.617  11.508
62260W        W26193   2.844  25.017  12.843
62261W        W26194   2.745   3.917   3.695
62262W        W26195  22.055  26.570   5.311
62263W        W26196  16.573  22.629  10.951
62264W        W26197  15.651  12.283  10.910
62265W        W26198   2.782  20.185   1.400
62266W        W26199  21.635  14.188   0.925
62267W        W26200  24.158   5.220   3.251
62268W        W26201  43.908  19.150  13.025
62269W        W26202   3.327  37.059   1.278
62270W        W26203   8.821  23.097  11.931
62271W        W26204  22.174   3.438   4.273
62272W        W26205  14.191  36.485   5.263
62273W        W26206  13.313  43.976  10.566
62274W        W26207  21.528  37.407  10.957
62275W        W26208  30.038  17.092  13.544
62276W        W26209   2.347   4.748  10.405
62277W        W26210  44.927  17.592   0.353
62278W        W26211   6.868  17.685   0.338
62279W        W26212   1.333  35.989   0.961
62280W        W26213  28.122  23.679   1.237
62281W        W26214  27.620  42.906   4.741
62282W        W26215   0.795   7.175   2.663
62283W        W26216  18.203   3.219   2.802
62284W        W26217  26.562  23.208  14.325
62285W        W26218  10.337  27.165   4.732
62286W        W26219  15.746  11.361  13.473
62287W        W26220  29.440  23.987   1.274
62288W        W26221   1.465   9.661   0.427
62289W        W26222  27.121   8.695   0.938
62290W        W26223  23.498  29.939   0.335
62291W        W26224   8.859  30.954  14.934
62292W        W26225   3.867  13.812   3.272
62293W        W26226  12.615  38.445  11.027
62294W        W26227  23.665  28.017  13.937
62295W        W26228  21.709   8.824   2.280
62296W        W26229  39.315  13.252  14.329
62297W        W26230  17.620  23.630   0.471
62298W        W26231  40.399  31.146   3.686
62299W        W26232  37.901  14.741  12.978
62300W        W26233   5.333   2.810   3.151
62301W        W26234   9.377  27.493  10.890
62302W        W26235   3.307  37.024   2.392
62303W        W26236  10.849  27.649  12.085
62304W        W26237  19.060  41.818  13.956
62305W        W26238   6.787  23.501   5.658
62306W        W26239  37.910  44.363  12.447
62307W        W26240  25.193  16.110   1.791
62308W        W26241  31.055  34.019  12.532
62309W        W26242   4.915  24.000   2.273
62310W        W26243  24.167  15.586   3.852
62311W        W26244  20.144   2.954  10.901
62312W        W26245  10.285  26.070  14.894
62313W        W26246   2.881  22.177  12.351
62314W        W26247  21.672   8.380   0.296
62315W        W26248  43.467  37.385  14.432
62316W        W26249   3.786  28.076   3.152
62317W        W26250   2.282  37.499  10.432
62318W        W26251  28.004  36.986  12.827
62319W        W26252  24.183  33.560  10.038
62320W        W26253  23.026  29.629   2.847
62321W        W26254  13.117   2.286  11.058
62322W        W26255   3.846  31.454   1.802
62323W        W26256  11.826  44.010  12.527
62324W        W26257   4.316  13.763   2.763
62325W        W26258  43.949  41.005   4.725
62326W        W26259   2.853  36.078  10.437
62327W        W26260  32.584  28.439  10.583
62328W        W26261  38.830  33.064  13.046
62329W        W26262  28.554  42.489  12.921
62330W        W26263   2.784  12.772   3.862
62331W        W26264  13.808  42.809  13.820
62332W        W26265  41.291  26.996  11.081
62333W        W26266   3.817  17.233   3.740
62334W        W26267  16.216  44.953  13.950
62335W        W26268  40.977   4.236   3.710
62336W        W26269  37.518  24.534   1.352
62337W        W26270  39.439  28.070  12.441
62338W        W26271  33.398  39.437   0.889
62339W        W26272   1.766  22.615   2.327
62340W        W26273  25.146  39.390   1.739
62341W        W26274  23.594  31.581  12.488
62342W        W26275  36.019  38.983   2.728
62343W        W26276  20.152  39.519   3.257
62344W        W26277  26.552  14.661  12.538
62345W        W26278  17.786  23.662  12.558
62346W        W26279  31.638  36.389   1.239
62347W        W26280  23.052  26.024   2.741
62348W        W26281  27.005   2.272  12.094
62349W        W26282  12.704  28.663  10.498
62350W        W26283   6.897  43.974  13.840
62351W        W26284  13.804  17.764  10.445
62352W        W26285  30.480  43.509  11.518
62353W        W26286  41.391  32.006   3.333
62354W        W26287   2.870  14.176  13.969
62355W        W26288   2.921  32.885  14.303
62356W        W26289   3.770  11.343   3.824
62357W        W26290  43.836  13.678  11.404
62358W        W26291   2.358   3.217  10.464
62359W        W26292   3.782   5.304   3.219
62360W        W26293   8.813  17.254   0.874
62361W        W26294  22.249  19.645  10.467
62362W        W26295  19.047  41.308  12.536
62363W        W26296  40.330  32.021   1.812
62364W        W26297  40.428  20.197  10.464
62365W        W26298  11.773  41.887   0.448
62366W        W26299  34.407  27.504   2.752
62367W        W26300  14.213   5.426   2.391
62368W        W26301  35.445  33.418   2.249
62369W        W26302   8.330  44.390   1.828
62370W        W26303   8.181  42.004  11.049
62371W        W26304  12.281   1.848   3.306
62372W        W26305  40.813  26.621  11.522
62373W        W26306   6.197  19.184   0.861
62374W        W26307  34.102  19.655  13.325
62375W        W26308  24.627  12.158  11.460
62376W        W26309  22.145  16.282   2.239
62377W        W26310   0.300  44.329  13.466
62378W        W26311   0.360  27.955   0.395
62379W        W26312  38.546   5.752  14.344
62380W        W26313   7.908  12.754  10.101
62381W        W26314   8.667  25.215   2.236
62382W        W26315  33.624  34.001  11.008
62383W        W26316  36.460  30.467  14.389
62384W        W26317  33.581  15.621  13.348
62385W        W26318  16.770  17.786   2.277
62386W        W26319  19.696   2.451   4.188
62387W        W26320  44.437  28.178   4.312
62388W        W26321  26.678  18.116   4.629
62389W        W26322  27.071  44.794   5.767
62390W        W26323  41.465  37.389  13.881
62391W        W26324  43.924   3.445   4.129
62392W        W26325  12.232  41.922  12.832
62393W        W26326  11.725  41.308   1.888
62394W        W26327  35.910   5.359  13.466
62395W        W26328  28.565  42.371   3.695
62396W        W26329   2.291  32.937  11.481
62397W        W26330  37.563  41.842   3.700
62398W        W26331  42.780  28.036  14.992
62399W        W26332  12.190  42.393  14.768
62400W        W26333  10.320   3.395  14.817
62401W        W26334  18.554  27.003   0.858
62402W        W26335  30.493  30.433   1.420
62403W        W26336   0.295   5.244  13.542
62404W        W26337  37.995  42.486   2.664
62405W        W26338  38.558   0.936   0.359
62406W        W26339   3.325  19.666  10.145
62407W        W26340   4.710   7.233   3.860
62408W        W26341  27.028  16.683  13.440
62409W        W26342  28.527  26.569   4.157
62410W        W26343  43.931  40.319   4.720
62411W        W26344  26.692  16.078  12.562
62412W        W26345  13.210  41.923  11.891
62413W        W26346  30.930  33.945   4.247
62414W        W26347  31.610  39.443  12.989
62415W        W26348   7.351  41.536   1.820
62416W        W26349   5.400   2.390   2.868
62417W        W26350   2.288  38.846   2.282
62418W        W26351   8.204  32.001   1.737
62419W        W26352  19.130   2.464   2.261
62420W        W26353   7.841  41.909  14.507
62421W        W26354  15.254  20.085  12.872
62422W        W26355   4.294  10.266   3.311
62423W        W26356   4.817  35.060   1.217
62424W        W26357  22.244  37.536   1.698
62425W        W26358  18.683  44.901  14.856
62426W        W26359  33.437  42.455   3.771
62427W        W26360  11.651  43.859  13.351
62428W        W26361  18.085  28.621  12.351
62429W        W26362  19.048  15.813   1.316
62430W        W26363  11.756  27.491   2.876
62431W        W26364  26.457   4.721  12.885
62432W        W26365  26.469  34.400  11.062
62433W        W26366  20.233  19.279   3.690
62434W        W26367   1.948  23.125  11.543
62435W        W26368  30.515  35.474  13.492
62436W        W26369  43.016  27.001  13.450
62437W        W26370  41.487   5.279   2.790
62438W        W26371  32.960  30.505   2.418
62439W        W26372  11.840  38.067  13.815
62440W        W26373  15.766   8.257  13.792
62441W        W26374  19.605   7.308   0.790
62442W        W26375  35.955   3.244   4.343
62443W        W26376  24.522  40.867   1.930
62444W        W26377  37.391   6.920  14.312
62445W        W26378  19.117  20.200  12.916
62446W        W26379  29.119  40.519   0.811
62447W        W26380  30.936  12.624   2.795
62448W        W26381  17.214  23.135   0.956
62449W        W26382   2.730   6.680  11.470
62450W        W26383  30.923  15.177  12.000
62451W        W26384   9.335  36.493   3.669
62452W        W26385  34.405  26.039  11.000
62453W        W26386  39.409  24.202  10.938
62454W        W26387  19.763   2.812   3.704
62455W        W26388  23.228  24.141   3.689
62456W        W26389  28.982  33.109  11.514
62457W        W26390  23.631  31.009   2.408
62458W        W26391   5.197  18.145  12.464
62459W        W26392  16.149   0.267   2.875
62460W        W26393  12.185  23.602  14.909
62461W        W26394  13.120   3.745  12.909
62462W        W26395  20.214  14.167   2.679
62463W        W26396  28.012   3.321   3.375
62464W        W26397  42.523  28.436   1.878
62465W        W26398  39.390  12.684  12.512
62466W        W26399  14.249  37.085   1.756
62467W        W26400  29.536  42.343   2.301
62468W        W26401  36.967  40.509  14.835
62469W        W26402  15.622  44.498   1.880
62470W        W26403  33.585  42.872   4.289
62471W        W26404  10.360   7.675   1.901
62472W        W26405  37.453  26.991   3.785
62473W        W26406   0.485  13.118   4.131
62474W        W26407  36.043  24.186   4.613
62475W        W26408  21.605  42.447  13.417
62476W        W26409  35.986  22.577   0.949
62477W        W26410  37.570   4.858  10.532
62478W        W26411  21.162  33.034   2.365
62479W        W26412   2.841  35.591  14.498
62480W        W26413  15.619  32.103   2.835
62481W        W26414  43.390  22.692  10.107
62482W        W26415  34.081  11.799   3.354
62483W        W26416   9.301  28.462  11.005
62484W        W26417  15.268   9.671   4.646
62485W        W26418   7.723  39.029  13.893
62486W        W26419  27.010  35.596  12.034
62487W        W26420   7.722  14.097   1.261
62488W        W26421  28.142   5.800  11.538
62489W        W26422   3.782  26.006   1.368
62490W        W26423  33.086   4.360  11.392
62491W        W26424  10.257  21.727   4.117
62492W        W26425   9.683  38.464   3.797
62493W        W26426  18.116  20.570   1.394
62494W        W26427  35.388   2.852   4.722
62495W        W26428  43.928  35.957   4.641
62496W        W26429  40.464  42.438  12.836
62497W        W26430  32.479   8.205  12.879
62498W        W26431   9.765  13.223  11.006
62499W        W26432  30.054  22.553   3.226
62500W        W26433  38.954  14.166  11.117
62501W        W26434  44.905   0.343   1.694
62502W        W26435  39.555  12.344   1.795
62503W        W26436   3.791  29.091  12.855
62504W        W26437  44.918   6.410  12.987
62505W        W26438  24.547  20.613   3.741
62506W        W26439   1.284  32.506   4.238
62507W        W26440  16.312   9.341   4.183
62508W        W26441  10.857  13.767   2.290
62509W        W26442  37.940  30.972   3.702
62510W        W26443  37.871  23.061   3.202
62511W        W26444  19.219  33.393   1.799
62512W        W26445  26.599  26.692   4.812
62513W        W26446   9.238  11.363   1.832
62514W        W26447  36.896  12.181   2.346
62515W        W26448  18.787  18.654   4.253
62516W        W26449  30.089  11.816  13.903
62517W        W26450  19.578  39.891   2.770
62518W        W26451  28.454   8.803   2.391
62519W        W26452  15.089   2.434   4.765
62520W        W26453  12.814   1.952   0.261
62521W        W26454  33.904   7.686  11.058
62522W        W26455  12.798  17.766   1.247
62523W        W26456  14.791  39.995   2.723
62524W        W26457  44.501  31.566   0.387
62525W        W26458  16.669  16.209  14.792
62526W        W26459   0.825  25.030  10.915
62527W        W26460  17.725   7.696  13.027
62528W        W26461  31.469  38.961  13.012
62529W        W26462  35.554  30.100  14.293
62530W        W26463  10.742   8.361   2.203
62531W        W26464   8.659  30.141   0.336
62532W        W26465  26.555  23.580   0.823
62533W        W26466  16.738  33.008   2.742
62534W        W26467  40.955  36.001   3.645
62535W        W26468  27.626   3.733   0.358
62536W        W26469  42.488  43.513   1.264
62537W        W26470  30.577  33.621   3.677
62538W        W26471  10.316  11.814   1.800
62539W        W26472   6.193  36.584  11.894
62540W        W26473  37.009  31.597   1.392
62541W        W26474  29.053   9.844  10.465
62542W        W26475  14.142  18.146   4.274
62543W        W26476  26.163  29.169  14.775
62544W        W26477   9.824  25.120  14.837
62545W        W26478  37.443  27.487   0.730
62546W        W26479  31.407  36.486  14.345
62547W        W26480  14.823  32.470  13.932
62548W        W26481  11.630  38.030  12.049
62549W        W26482   7.864  14.737   0.840
62550W        W26483  13.207  18.162   3.746
62551W        W26484  25.130   8.879  13.536
62552W        W26485   7.795   6.403   1.822
62553W        W26486   3.766  42.406   0.450
62554W        W26487  28.128  20.098   1.794
62555W        W26488  27.094  41.530   2.418
62556W        W26489  19.113  35.100  13.841
62557W        W26490   0.304  15.192  12.941
62558W        W26491  41.845  42.480   2.686
62559W        W26492  24.097   6.804   4.182
62560W        W26493  18.586  40.841  13.478
62561W        W26494  38.922  44.783   0.353
62562W        W26495   3.304  31.596  13.390
62563W        W26496  29.163   1.757   3.236
62564W        W26497  26.475  29.975  11.949
62565W        W26498  27.611   7.910  11.076
62566W        W26499  15.121  39.446  13.021
62567W        W26500  34.902  11.768  10.995
62568W        W26501  31.110  10.818   1.852
62569W        W26502  32.592  28.065   3.293
62570W        W26503  37.430  30.527  12.954
62571W        W26504  22.649   8.696   4.225
62572W        W26505  10.274   2.779   3.767
62573W        W26506  12.362  23.230  14.470
62574W        W26507  37.362  40.395  14.478
62575W        W26508   6.242  13.122  11.516
62576W        W26509  26.570   3.458  14.838
62577W        W26510  20.148  14.239  10.143
62578W        W26511   1.888  27.689  11.065
62579W        W26512  42.817   3.852   4.709
62580W        W26513   4.416  24.674  14.437
62581W        W26514  30.484  29.076  11.548
62582W        W26515  27.011  18.091  11.947
62583W        W26516   6.189  21.664  11.377
62584W        W26517   5.342  27.987   3.838
62585W        W26518  31.542  33.501   2.711
62586W        W26519   7.858  35.465  13.910
62587W        W26520  21.155  28.016   0.332
62588W        W26521  42.995   4.433  14.370
62589W        W26522  26.534  36.061   1.739
62590W        W26523   3.804  22.085  13.871
62591W        W26524   4.933  10.184  13.543
62592W        W26525  40.404  20.251   3.834
62593W        W26526   0.778  10.843   0.456
62594W        W26527  10.682   7.690  10.476
62595W        W26528  27.034  13.787   4.727
62596W        W26529  38.436   2.266   1.857
62597W        W26530  40.813  22.028   3.327
62598W        W26531  41.951   2.443   4.237
62599W        W26532   7.371  39.843   4.342
62600W        W26533  25.601   7.358  12.419
62601W        W26534  42.786   3.420  10.013
62602W        W26535   0.489  33.881   2.186
62603W        W26536  27.482  19.183   3.634
62604W        W26537  19.646  32.925  13.866
62605W        W26538  12.713  24.543  13.020
62606W        W26539  18.698   7.776   2.774
62607W        W26540  34.044  21.603   2.190
62608W        W26541  25.623  41.309   3.813
62609W        W26542  22.134  34.120   2.704
62610W        W26543   4.762   7.319   0.386
62611W        W26544   7.269   1.896   2.722
62612W        W26545   3.376  38.942  14.973
62613W        W26546  22.018  19.677  14.979
62614W        W26547   6.902  21.575   2.712
62615W        W26548  35.422  41.939   2.797
62616W        W26549  24.042  30.094  11.128
62617W        W26550  30.927  40.015   0.255
62618W        W26551  27.985  36.369  12.429
62619W        W26552  36.383  37.517   5.240
62620W        W26553   7.276  36.577   1.744
62621W        W26554  18.186  11.828  14.307
62622W        W26555  35.910  29.026  10.486
62623W        W26556  19.778  26.954   2.666
62624W        W26557  33.458  21.258   1.772
62625W        W26558  27.538  36.926  13.449
62626W        W26559  44.779  44.839   4.174
62627W        W26560  15.232  34.093   4.804
62628W        W26561  19.657   1.879  14.814
62629W        W26562  27.016  27.463  14.455
62630W        W26563  21.517  17.129   4.684
62631W        W26564   4.867   9.272   2.298
62632W        W26565  42.947  12.805  10.951
62633W        W26566  18.268   9.676   2.288
62634W        W26567  28.546  34.499  11.613
62635W        W26568  43.940   9.226  12.404
62636W        W26569   6.819  22.034   2.847
62637W        W26570  40.463  13.145  12.577
62638W        W26571  31.592  16.093  12.548
62639W        W26572  18.713  26.033   4.824
62640W        W26573  15.725   9.195   4.288
62641W        W26574  29.483  31.493   0.465
62642W        W26575  42.972  38.388   2.291
62643W        W26576  36.076  28.529  14.417
62644W        W26577   0.835  25.179   3.177
62645W        W26578  41.413  39.534  14.322
62646W        W26579  26.105  15.107   2.740
62647W        W26580  34.446   7.823   4.655
62648W        W26581  19.194   4.403   1.417
62649W        W26582  38.473  21.687  13.025
62650W        W26583  32.495  17.293  14.437
62651W        W26584  38.953  40.952  11.403
62652W        W26585  32.969  24.215  14.319
62653W        W26586   7.666   4.238  12.961
62654W        W26587  19.273  18.179  13.018
62655W        W26588  33.617  39.051  11.066
62656W        W26589  31.118  23.594   4.741
62657W        W26590  38.498   3.790  14.832
62658W        W26591   0.987   2.437  14.393
62659W        W26592  43.985  22.083   4.748
62660W        W26593  39.946  42.469   2.896
62661W        W26594   4.780  38.541  10.979
62662W        W26595   4.337  18.296  10.918
62663W        W26596  29.587  32.018   1.713
62664W        W26597  43.373  23.241  14.945
62665W        W26598  37.075  17.795  12.375
62666W        W26599  25.485  25.110  14.430
62667W        W26600  37.926  25.177  11.481
62668W        W26601  31.410  12.284   1.712
62669W        W26602  31.455  27.148  14.018
62670W        W26603  33.397  30.115   1.384
62671W        W26604   3.751  29.958   2.267
62672W        W26605   3.408  30.118  12.960
62673W        W26606  10.782  23.507   2.230
62674W        W26607  21.218  27.498  12.433
62675W        W26608  31.103  35.961  10.530
62676W        W26609  37.077  37.542   1.886
62677W        W26610  22.179  32.492   2.752
62678W        W26611  26.043   9.748   5.198
62679W        W26612  40.832  32.605  10.480
62680W        W26613  34.892  20.253  14.410
62681W        W26614  41.816  39.896   4.252
62682W        W26615   6.697  16.207   9.998
62683W        W26616   5.849  12.648  11.891
62684W        W26617  20.121   4.395   0.418
62685W        W26618  15.087  16.592   1.214
62686W        W26619  41.340  31.993  14.811
62687W        W26620  38.069  44.466  14.979
62688W        W26621  19.105  37.859  14.385
62689W        W26622  19.737  23.139  12.889
62690W        W26623  16.230  36.545   0.845
62691W        W26624   4.363  24.032   2.320
62692W        W26625  20.544  33.086  12.854
62693W        W26626  15.739   6.356   2.733
62694W        W26627  32.948  27.588  12.866
62695W        W26628   6.851  27.677  10.920
62696W        W26629  35.400  30.542   4.251
62697W        W26630   7.769  12.214   2.675
62698W        W26631  32.394  25.135  11.570
62699W        W26632   7.700  23.146   4.344
62700W        W26633  23.724  17.689   4.323
62701W        W26634  34.021  16.657   2.243
62702W        W26635   3.427  43.918  13.950
62703W        W26636  20.759  36.518  12.490
62704W        W26637  41.962  13.798   3.279
62705W        W26638  21.586  24.554   0.909
62706W        W26639  23.098  18.645   3.790
62707W        W26640  25.535  30.159  12.471
62708W        W26641  15.278  22.169   0.481
62709W        W26642   5.690  44.900  13.477
62710W        W26643   6.340  44.343   1.915
62711W        W26644  39.447  25.016   2.765
62712W        W26645  15.746  44.293   5.187
62713W        W26646  15.193   3.307   3.765
62714W        W26647   1.782  11.195  13.932
62715W        W26648  13.199   6.244  12.062
62716W        W26649  22.595  39.815  13.427
62717W        W26650  40.920  14.239   4.318
62718W        W26651  25.621  44.893  13.000
62719W        W26652  38.052  12.630  13.435
62720W        W26653  44.476  29.537   3.154
62721W        W26654  26.662  13.838   2.735
62722W        W26655   4.330  42.439  13.823
62723W        W26656  22.706  11.694  14.433
62724W        W26657  29.435  33.518  13.338
62725W        W26658  33.595  13.669  14.923
62726W        W26659   7.835  12.728   3.867
62727W        W26660  36.848  11.241  10.408
62728W        W26661  14.123  22.247   2.220
62729W        W26662   6.362  38.400  11.855
62730W        W26663  44.842   5.834   3.259
62731W        W26664  40.940   9.679   3.246
62732W        W26665  11.822  16.104   3.264
62733W        W26666  42.335  12.646  14.845
62734W        W26667  44.916  29.511  11.561
62735W        W26668  39.006  16.639   0.805
62736W        W26669  22.185  38.515  12.568
62737W        W26670  35.562  42.019  14.464
62738W        W26671  20.641   2.861   0.471
62739W        W26672   7.264   4.323   0.424
62740W        W26673   8.340  18.062   3.638
62741W        W26674  38.532   5.299   2.844
62742W        W26675  10.256   5.312  10.428
62743W        W26676   5.304  23.715  14.022
62744W        W26677  31.898  33.621   0.959
62745W        W26678   3.306  36.572   2.309
62746W        W26679  33.940  13.282   1.706
62747W        W26680   8.835  32.930  13.820
62748W        W26681   3.249   4.220  12.477
62749W        W26682   0.952  40.996   1.249
62750W        W26683  24.568  27.651  11.897
62751W        W26684  20.209  20.642  13.840
62752W        W26685  33.562  11.193  13.812
62753W        W26686  37.943   7.768   1.220
62754W        W26687  10.806  33.896   3.229
62755W        W26688  10.153  41.450  14.389
62756W        W26689   2.246  12.236   4.128
62757W        W26690   9.157  34.578   4.341
62758W        W26691  18.204  43.349   0.959
62759W        W26692   0.921  14.135   2.378
62760W        W26693  13.737  21.540  13.397
62761W        W26694  22.107  14.141   2.292
62762W        W26695  27.670  16.299   3.665
62763W        W26696   0.466  21.631   4.298
62764W        W26697  10.218  34.422   2.237
62765W        W26698  10.681  31.624  14.858
62766W        W26699  37.868  30.964  14.851
62767W        W26700  31.600  29.054  10.938
62768W        W26701  27.153  14.128  14.817
62769W        W26702   4.878   6.256   4.284
62770W        W26703  12.666  43.493   0.288
62771W        W26704  31.450  25.087  14.932
62772W        W26705  11.700  41.929  12.990
62773W        W26706  35.520  37.524   3.664
62774W        W26707  23.652  44.454   0.739
62775W        W26708  39.527  14.769   1.728
62776W        W26709  31.592  29.591  14.966
62777W        W26710  21.209   5.690  10.511
62778W        W26711  16.587  33.411  14.842
62779W        W26712   8.853  34.868   3.864
62780W        W26713  24.218  33.943   2.275
62781W        W26714  24.706   8.751   2.865
62782W        W26715  35.928  43.442  14.360
62783W        W26716  19.705  37.390  14.351
62784W        W26717  23.515  41.409   0.426
62785W        W26718  15.107   0.384  14.494
62786W        W26719  16.641  32.971  10.446
62787W        W26720  26.470  39.473  11.953
62788W        W26721  19.232  12.639   2.710
62789W        W26722  38.962  23.504  11.546
62790W        W26723  43.315  36.024   2.678
62791W        W26724  35.555  17.764  11.456
62792W        W26725  28.042  37.377   0.822
62793W        W26726  14.324  37.835  13.498
62794W        W26727  35.527   4.292  12.932
62795W        W26728  25.483  34.995   4.652
62796W        W26729  31.903  34.978   2.301
62797W        W26730   3.800  16.148  14.358
62798W        W26731  33.596  29.092  10.572
62799W        W26732  41.342  32.428   3.214
62800W        W26733   9.808  20.715  12.431
62801W        W26734  26.569  28.659   4.137
62802W        W26735  40.448  19.733   2.686
62803W        W26736  16.127  23.179  14.491
62804W        W26737  33.569   9.676  10.472
62805W        W26738   6.392  11.665  14.494
62806W        W26739  22.651  26.498   0.815
62807W        W26740  13.295   5.270   2.240
62808W        W26741  29.163   2.832  11.546
62809W        W26742  14.179  38.400   3.684
62810W        W26743  26.518  15.615  13.005
62811W        W26744  31.931  23.087  14.027
62812W        W26745  39.449  44.339   0.837
62813W        W26746  34.947  33.926  11.939
62814W        W26747  21.213   5.241   3.679
62815W        W26748  42.825  28.065   0.858
62816W        W26749  20.617   0.980  12.047
62817W        W26750  25.476  10.824  12.462
62818W        W26751   3.399  19.713  12.921
62819W        W26752  15.809  36.522  12.488
62820W        W26753  36.071  15.597  10.606
62821W        W26754  41.523  34.083   2.302
62822W        W26755   5.434  11.684  12.047
62823W        W26756   6.684  41.529  12.562
62824W        W26757  13.725  15.214  14.865
62825W        W26758  31.995  11.270  12.839
62826W        W26759  30.945  36.045   9.936
62827W        W26760  36.848  14.814   3.199
62828W        W26761  11.297  43.445  12.024
62829W        W26762  13.704   8.310  13.913
62830W        W26763  32.414  29.989  11.982
62831W        W26764  43.808  36.407  14.303
62832W        W26765  42.959  10.184   1.281
62833W        W26766  15.167   7.882   4.831
62834W        W26767  37.390   9.375   3.314
62835W        W26768  37.352  14.252  12.392
62836W        W26769  21.188  39.005   3.212
62837W        W26770  39.487   9.776  14.276
62838W        W26771  15.745  42.809   1.783
62839W        W26772  30.091  35.854   1.424
62840W        W26773  25.027  28.671   0.944
62841W        W26774   0.848  18.261  10.014
62842W        W26775   3.262  10.312  10.023
62843W        W26776  24.167  27.606   1.408
62844W        W26777   2.823  21.732  10.634
62845W        W26778   5.222  39.938   4.274
62846W        W26779  17.679  43.940  11.053
62847W        W26780  19.674  22.196  10.501
62848W        W26781   1.778  41.425  13.790
62849W        W26782  40.799  14.301   2.378
62850W        W26783  23.082  38.979  10.451
62851W        W26784  40.314  17.253  12.439
62852W        W26785  26.574   3.811   1.752
62853W        W26786  20.038  16.244  10.048
62854W        W26787  36.359  28.135  11.101
62855W        W26788  40.033  25.967   3.673
62856W        W26789  13.677  34.457  13.309
62857W        W26790  41.041  32.502   4.773
62858W        W26791  12.244  14.223  13.395
62859W        W26792  42.322  11.209   0.896
62860W        W26793  33.037  19.735   1.301
62861W        W26794  27.146  10.149   3.316
62862W        W26795  28.012   1.386  14.956
62863W        W26796   3.288  39.893  11.523
62864W        W26797  16.075   6.767   3.830
62865W        W26798  28.620  21.591  12.421
62866W        W26799  16.694   5.407  10.503
62867W        W26800  12.789  13.671  12.540
62868W        W26801  36.587  25.494   3.661
62869W        W26802  24.017   7.308   1.897
62870W        W26803  16.266  16.133   2.805
62871W        W26804   4.403  33.587   1.697
62872W        W26805  23.550   4.800   4.335
62873W        W26806   0.802  38.327  14.488
62874W        W26807  44.430  13.714   4.158
62875W        W26808  34.506  41.487  12.339
62876W        W26809  32.119  31.499  11.951
62877W        W26810   6.350  12.341   5.239
62878W        W26811   0.856  28.596   0.414
62879W        W26812  14.133  26.676   1.714
62880W        W26813  40.895  18.087  14.961
62881W        W26814  29.098  28.934   0.816
62882W        W26815  21.207  30.493   4.248
62883W        W26816   1.382   4.814  14.832
62884W        W26817  29.567  34.478  13.387
62885W        W26818  44.336  30.457   3.711
62886W        W26819  22.157  13.666   4.249
62887W        W26820  43.270  33.456   1.366
62888W        W26821  29.039  37.999   3.871
62889W        W26822  42.973  14.667   4.185
62890W        W26823  11.713   3.386   0.279
62891W        W26824  30.578   0.460  10.493
62892W        W26825  39.030  35.542   3.659
62893W        W26826  37.842  18.098   2.380
62894W        W26827  20.651  17.713  10.591
62895W        W26828   4.226  14.728  13.940
62896W        W26829  18.162   1.335   0.410
62897W        W26830  18.251   7.267   0.297
62898W        W26831  20.549  15.172   3.337
62899W        W26832  17.265   0.985  12.949
62900W        W26833   0.461   5.784   2.729
62901W        W26834  16.749  39.810   1.927
62902W        W26835   6.777  38.544   4.202
62903W        W26836  41.300  18.258  10.605
62904W        W26837  10.636  15.297  11.424
62905W        W26838  27.018  28.990   0.384
62906W        W26839  26.127   5.699  14.380
62907W        W26840  21.071   7.396  13.393
62908W        W26841  28.102  31.125   2.367
62909W        W26842  31.513  33.989  12.420
62910W        W26843  13.255   6.335  12.574
62911W        W26844  36.517  37.031  10.992
62912W        W26845  33.517  14.297   1.416
62913W        W26846  13.139  36.976  11.046
62914W        W26847  13.833  19.144  10.476
62915W        W26848  25.046  37.954  12.374
62916W        W26849  17.097  11.236  14.475
62917W        W26850  30.544  38.865   4.795
62918W        W26851  43.289  31.130   3.797
62919W        W26852  21.678  29.615  13.906
62920W        W26853   2.891   2.449  12.393
62921W        W26854  10.859  43.852   1.256
62922W        W26855  42.972   1.402   0.413
62923W        W26856  25.032  26.647   2.232
62924W        W26857  16.662  26.995   0.282
62925W        W26858   6.856  36.477   2.224
62926W        W26859  41.312  44.801   4.713
62927W        W26860   7.730  41.344   0.758
62928W        W26861  35.094  26.517  10.619
62929W        W26862   9.211  18.106  12.432
62930W        W26863  37.495  28.043  13.931
62931W        W26864  23.156  40.037   1.237
62932W        W26865  43.380  25.031  13.422
62933W        W26866  40.509  18.091  10.418
62934W        W26867  30.013  35.391  14.889
62935W        W26868  41.457   4.886  12.023
62936W        W26869   3.396   2.912  10.451
62937W        W26870   7.338  20.721  14.402
62938W        W26871  15.796  36.974   4.294
62939W        W26872  13.794  32.984   3.295
62940W        W26873  22.505  17.175   5.159
62941W        W26874  34.043  16.746   0.454
62942W        W26875  18.656   3.217   4.741
62943W        W26876  25.517   3.425  10.618
62944W        W26877  37.573  33.498   3.777
62945W        W26878  37.067  44.270  10.617
62946W        W26879  16.677  37.458  12.549
62947W        W26880  43.428  24.138  11.051
62948W        W26881   8.241  31.566  11.478
62949W        W26882  32.581  41.330   4.757
62950W        W26883  44.490  31.567   1.356
62951W        W26884  27.571   9.802   1.765
62952W        W26885   0.336  42.791   1.910
62953W        W26886  35.604   5.752   0.275
62954W        W26887  37.869  17.250   1.307
62955W        W26888   4.335  33.967  14.791
62956W        W26889  18.171   7.252   2.237
62957W        W26890  21.046  30.123  14.469
62958W        W26891   4.203  14.300  10.979
62959W        W26892  38.517   7.257  11.111
62960W        W26893  16.223  12.338  12.515
62961W        W26894  31.031  38.412   1.898
62962W        W26895  16.772  16.619   4.280
62963W        W26896  20.140  30.592  12.000
62964W        W26897   1.341   0.906   4.603
62965W        W26898  17.730  43.816  12.558
62966W        W26899  28.128  34.097  12.011
62967W        W26900  44.958  20.095   2.711
62968W        W26901   2.766   7.791   2.258
62969W        W26902   1.426   3.724  13.347
62970W        W26903  40.967  15.147   1.796
62971W        W26904  30.029  10.216   0.873
62972W        W26905  43.970   6.250   0.303
62973W        W26906  20.116  38.498   0.813
62974W        W26907  12.782  22.204   1.794
62975W        W26908  12.617   6.762  11.094
62976W        W26909  26.051  29.987  10.590
62977W        W26910   1.894  22.063  12.557
62978W        W26911  19.243  18.272   3.377
62979W        W26912  17.103   6.894   0.780
62980W        W26913   4.301   7.788   2.419
62981W        W26914  32.428  32.605   1.800
62982W        W26915   1.444  21.757   0.431
62983W        W26916   4.374  26.040   2.246
62984W        W26917  31.547  21.666  11.897
62985W        W26918  42.338  30.110   1.220
62986W        W26919  26.645  17.647  12.486
62987W        W26920  16.710   7.879  14.474
62988W        W26921  10.190   8.883   4.329
62989W        W26922  10.694   4.727   3.202
62990W        W26923  41.857   6.266   3.323
62991W        W26924   5.903   2.285  12.885
62992W        W26925  25.044  22.516   0.473
62993W        W26926  39.551  20.602   1.424
62994W        W26927  26.509  42.009   2.792
62995W        W26928  23.654  30.917  12.987
62996W        W26929  13.639   8.215  11.966
62997W        W26930  19.043  31.500   2.402
62998W        W26931   0.357   6.697   1.710
62999W        W26932  26.072  34.009  10.516
63000W        W26933  43.853  32.029   3.304
63001W        W26934  11.671  41.994  12.094
63002W        W26935   7.174   9.819   0.755
63003W        W26936  13.767  41.001  10.617
63004W        W26937  42.323  38.330  13.515
63005W        W26938   9.790  19.127   1.789
63006W        W26939   1.387  28.507  12.347
63007W        W26940   4.450  15.114   4.764
63008W        W26941  26.110  41.412  10.919
63009W        W26942  39.314   7.334  12.545
63010W        W26943  40.344  15.585  10.003
63011W        W26944  39.399  42.393  10.578
63012W        W26945  29.993   3.373  11.045
63013W        W26946  26.073  21.084   3.335
63014W        W26947  18.740  26.103   9.957
63015W        W26948  38.435  31.434   3.315
63016W        W26949  33.428   1.356  11.595
63017W        W26950  36.862   7.733   3.775
63018W        W26951  25.706  29.009  13.490
63019W        W26952  35.371   5.356   2.787
63020W        W26953  20.606   7.402   4.311
63021W        W26954  24.149  37.891  12.888
63022W        W26955  32.436  14.192   4.612
63023W        W26956  29.946  17.123   4.342
63024W        W26957   7.359  34.591  11.939
63025W        W26958  10.647  44.435   2.268
63026W        W26959  44.850   4.858  13.489
63027W        W26960  38.407  22.010   2.292
63028W        W26961   8.800   2.852   2.885
63029W        W26962  20.542  44.933  14.325
63030W        W26963  18.618  39.989  11.517
63031W        W26964   1.328  41.367   0.248
63032W        W26965  37.855  25.059   5.276
63033W        W26966  15.242  35.484  10.644
63034W        W26967   6.221  37.966   2.203
63035W        W26968  10.718  31.034  12.429
63036W        W26969   5.404  31.020   4.653
63037W        W26970   0.399  30.971   2.408
63038W        W26971   5.430   0.488   4.276
63039W        W26972  18.084  41.522   2.391
63040W        W26973  13.279   5.438  13.042
63041W        W26974  29.651  11.863  14.817
63042W        W26975   2.944  36.467   1.881
63043W        W26976  21.162  39.905  11.540
63044W        W26977  39.915  32.495  13.889
63045W        W26978  23.526  12.714  11.092
63046W        W26979  22.079   0.919  10.511
63047W        W26980  39.993   3.458  10.626
63048W        W26981  21.111  34.471   0.892
63049W        W26982  35.452  40.492   1.878
63050W        W26983   5.386  15.275  11.914
63051W        W26984  14.212  13.221   4.600
63052W        W26985  28.151  35.956   3.685
63053W        W26986   8.807   7.236   3.345
63054W        W26987  37.850   7.398   4.705
63055W        W26988  29.090  11.136  11.594
63056W        W26989   4.296  31.971  14.406
63057W        W26990  21.754  19.709   4.661
63058W        W26991   7.241  14.146   2.765
63059W        W26992  39.969  27.042  14.306
63060W        W26993  28.517  25.707   2.853
63061W        W26994  32.956  23.020   4.649
63062W        W26995  41.844  25.590   1.892
63063W        W26996  24.030  29.154  13.476
63064W        W26997   6.914  41.914  13.885
63065W        W26998   4.775   8.278   3.710
63066W        W26999   9.345  31.549   4.769
63067W        W27000   8.896  12.846  11.883
63068W        W27001   5.313  33.517  11.083
63069W        W27002  13.625  31.942  13.799
63070W        W27003   5.416  15.801   2.785
63071W        W27004   9.167  15.204   4.833
63072W        W27005   3.285  12.739  10.622
63073W        W27006  24.512  16.779  14.318
63074W        W27007   1.330   6.776  14.475
63075W        W27008  41.935  40.424  10.416
63076W        W27009  32.516  38.971   3.753
63077W        W27010  30.974   8.853   0.937
63078W        W27011  13.250   6.420   9.541
63079W        W27012  21.123  30.624  14.794
63080W        W27013  44.444  29.020  11.924
63081W        W27014  29.964   2.880   4.695
63082W        W27015  23.538  16.709   3.251
63083W        W27016  19.153  42.861  13.394
63084W        W27017  18.768  11.807  12.947
63085W        W27018  40.529   8.253  14.318
63086W        W27019  15.585  41.805  14.327
63087W        W27020   5.784  32.104   0.859
63088W        W27021  13.819  37.507   0.897
63089W        W27022   2.422  16.584   1.818
63090W        W27023  18.100  11.829  11.893
63091W        W27024  40.340  30.038   2.784
63092W        W27025  36.987  12.325   1.916
63093W        W27026  16.600   4.444   4.346
63094W        W27027  22.556  29.607   1.811
63095W        W27028  23.165   5.775  12.900
63096W        W27029  35.557   1.902   2.342
63097W        W27030  13.144   7.873   2.301
63098W        W27031  19.113  37.979   1.452
63099W        W27032  42.925  31.952   4.266
63100W        W27033   4.411  33.014  11.469
63101W        W27034   8.361  17.660   3.705
63102W        W27035  30.433  35.516  12.029
63103W        W27036  43.481  25.531  11.128
63104W        W27037  28.991  35.427  11.877
63105W        W27038  28.122   5.720  14.993
63106W        W27039  20.143  29.471   4.277
63107W        W27040  35.519  16.259   2.383
63108W        W27041  14.774  21.172  11.483
63109W        W27042  44.868  32.969  11.063
63110W        W27043   3.724  26.206  13.006
63111W        W27044  25.170  10.287  13.437
63112W        W27045   8.233  39.065  14.011
63113W        W27046  27.641   7.835   4.272
63114W        W27047  22.531  28.651   5.260
63115W        W27048  30.590  15.741   2.228
63116W        W27049  28.101   6.231  14.792
63117W        W27050  27.979   9.236  14.497
63118W        W27051  25.699   7.796  14.373
63119W        W27052  11.677  22.015  13.989
63120W        W27053  31.636  32.111  13.933
63121W        W27054  31.974  12.855   2.299
63122W        W27055  26.572  13.623  14.915
63123W        W27056  26.640  30.483  11.527
63124W        W27057  16.294  43.405   2.683
63125W        W27058  24.556  36.913   2.319
63126W        W27059  10.750  10.293   3.182
63127W        W27060  18.646  26.105  13.376
63128W        W27061   2.875  17.656  10.475
63129W        W27062  29.151  31.489  12.513
63130W        W27063  18.604   0.912   1.736
63131W        W27064  25.000  23.188  11.533
63132W        W27065   4.735   5.880   4.208
63133W        W27066  17.175  30.995  11.032
63134W        W27067   6.746  20.191  14.367
63135W        W27068  24.157  32.140  13.845
63136W        W27069  33.620  15.148  10.959
63137W        W27070  13.738   9.678   3.794
63138W        W27071   4.879  30.053  14.959
63139W        W27072   0.919   9.885  11.097
63140W        W27073  18.192  43.305   0.365
63141W        W27074  22.735  33.084  10.469
63142W        W27075  10.634  18.191   2.339
63143W        W27076  13.757   9.209   0.370
63144W        W27077  22.681  43.315  10.895
63145W        W27078  40.515   9.880  14.420
63146W        W27079   6.804  12.338   1.823
63147W        W27080  23.606  16.584   2.772
63148W        W27081  21.646  37.495   4.181
63149W        W27082  37.904   2.297  12.411
63150W        W27083  39.995  28.586   0.800
63151W        W27084  38.866  36.913  14.775
63152W        W27085  32.526  40.986   1.918
63153W        W27086  30.501  22.726   2.392
63154W        W27087  12.318   7.376  14.943
63155W        W27088  15.809  20.718   1.224
63156W        W27089  32.888  37.938   4.256
63157W        W27090  19.776   5.834  12.995
63158W        W27091  12.194   2.256   1.357
63159W        W27092  33.875  17.615  14.930
63160W        W27093   8.792  23.678   1.697
63161W        W27094  11.368  43.469  14.805
63162W        W27095  13.292  14.641   4.716
63163W        W27096   9.365  33.924  10.604
63164W        W27097  42.434  36.935   4.336
63165W        W27098  44.462   4.941   4.688
63166W        W27099  37.399  24.128  12.989
63167W        W27100  12.359  18.570  14.807
63168W        W27101  38.020  34.509  14.825
63169W        W27102  20.275  33.514   2.277
63170W        W27103  13.258  22.014  14.423
63171W        W27104  41.346   4.362  12.038
63172W        W27105  17.196  12.721  11.055
63173W        W27106  13.671  16.235   2.309
63174W        W27107  37.985  32.926   0.409
63175W        W27108  12.690  32.889   0.447
63176W        W27109  41.373   6.774  12.436
63177W        W27110  35.533   7.807  14.811
63178W        W27111  32.403  10.242  10.001
63179W        W27112  16.630  40.895   4.351
63180W        W27113  41.992  10.338  14.382
63181W        W27114   9.277  23.590  12.982
63182W        W27115  15.627  19.189  12.558
63183W        W27116  32.476  13.617   2.797
63184W        W27117  11.760   4.389   1.380
63185W        W27118  36.397  40.992   0.458
63186W        W27119   9.793  14.651   4.710
63187W        W27120  18.078  18.564  11.415
63188W        W27121  24.187  44.816   3.733
63189W        W27122  17.780   5.400  12.886
63190W        W27123  26.531   1.807   3.262
63191W        W27124  20.105   6.271  12.900
63192W        W27125  38.532  36.940  10.988
63193W        W27126   2.235  34.936  11.590
63194W        W27127  22.186  34.970   0.316
63195W        W27128   4.743  13.291   3.313
63196W        W27129  16.160  11.769  14.344
63197W        W27130  23.201   3.909  13.483
63198W        W27131  12.157  19.778  14.468
63199W        W27132   4.932  23.007  11.534
63200W        W27133  26.624  21.133  14.936
63201W        W27134  15.281  12.133   2.286
63202W        W27135  29.485  24.518   3.220
63203W        W27136  43.343  10.310   3.805
63204W        W27137   4.944  15.108   0.312
63205W        W27138  29.956  13.194  13.400
63206W        W27139  29.628  33.902  13.410
63207W        W27140  24.190  14.236  11.858
63208W        W27141  33.517  37.576  10.096
63209W        W27142   3.357  37.409   2.407
63210W        W27143  10.827  42.287   3.331
63211W        W27144   3.327  28.999   4.688
63212W        W27145  20.740  29.586  12.547
63213W        W27146  36.962   7.773  13.012
63214W        W27147  37.075   3.342   3.304
63215W        W27148  29.051   4.354  13.308
63216W        W27149  12.271  23.672   3.250
63217W        W27150  18.646  20.629  14.401
63218W        W27151   6.909  28.580   2.361
63219W        W27152   4.223   0.464   0.841
63220W        W27153   1.264  36.074  13.994
63221W        W27154   3.295   6.296  10.003
63222W        W27155  22.564  41.349   1.427
63223W        W27156  20.091  17.185   2.675
63224W        W27157  31.918  23.163   4.202
63225W        W27158  12.698  10.353   2.903
63226W        W27159  40.323  39.485   4.770
63227W        W27160  35.918  32.987  13.801
63228W        W27161   5.196  41.348   0.323
63229W        W27162  20.549   0.865  13.938
63230W        W27163  23.577  23.545   2.846
63231W        W27164  18.772  11.828   4.264
63232W        W27165  26.996   3.342   4.146
63233W        W27166  24.557  39.997   1.433
63234W        W27167  26.065   5.751   0.870
63235W        W27168  35.010  10.658   0.281
63236W        W27169   9.754   0.865   2.785
63237W        W27170   3.758  35.020   1.278
63238W        W27171   4.297  38.394  14.818
63239W        W27172  39.429  15.604  10.954
63240W        W27173  22.662  27.497   1.302
63241W        W27174   1.837   4.219   2.304
63242W        W27175  14.283   2.422  12.064
63243W        W27176  25.622  18.738   1.443
63244W        W27177  16.651   3.401   2.387
63245W        W27178   2.798  30.160   1.306
63246W        W27179  41.359  20.175   0.814
63247W        W27180   6.825   5.200   5.654
63248W        W27181  40.888  13.228   4.158
63249W        W27182  26.965  17.721   4.791
63250W        W27183  17.797  29.430   1.877
63251W        W27184  41.860  30.997   3.770
63252W        W27185  14.156   7.672   0.958
63253W        W27186  10.817  38.344   3.732
63254W        W27187  22.131   8.205  10.983
63255W        W27188  28.586   9.324   1.403
63256W        W27189  16.291   4.369   1.877
63257W        W27190  38.478  20.750  13.040
63258W        W27191  44.949  39.439   2.879
63259W        W27192  35.991  44.010   0.415
63260W        W27193  20.099  38.412  13.368
63261W        W27194   6.766  25.217  14.779
63262W        W27195   1.356  23.707   0.307
63263W        W27196  23.005   8.394  12.491
63264W        W27197   4.397  17.197   4.659
63265W        W27198   0.902   4.323   4.315
63266W        W27199  44.312  19.282   4.835
63267W        W27200  28.485  10.743   0.754
63268W        W27201  17.657  19.089   2.890
63269W        W27202  35.862  25.562   2.787
63270W        W27203   2.901  26.649   0.465
63271W        W27204  34.374   2.243   3.167
63272W        W27205  12.778   8.264   4.735
63273W        W27206  36.935   0.309  11.991
63274W        W27207  10.305   7.188   9.940
63275W        W27208  29.578   1.252   2.319
63276W        W27209   0.283  29.966   1.713
63277W        W27210   5.363  35.588   4.702
63278W        W27211  13.722  42.939  12.899
63279W        W27212  17.307  10.171  11.068
63280W        W27213   2.951  17.757   1.352
63281W        W27214   5.199   9.859  11.545
63282W        W27215  17.666  20.767   0.393
63283W        W27216  28.151  14.634  11.501
63284W        W27217  10.872  12.334   1.868
63285W        W27218  21.541   8.783  13.854
63286W        W27219  33.564  23.169   2.894
63287W        W27220   5.910  40.412  11.949
63288W        W27221  31.571  29.990  12.950
63289W        W27222  24.612  28.492   0.405
63290W        W27223   8.686  32.571   3.789
63291W        W27224  12.223  37.354  10.625
63292W        W27225  14.329  25.114   2.827
63293W        W27226   3.401   2.725   0.377
63294W        W27227  36.392  40.902  13.951
63295W        W27228   8.200  28.455   4.620
63296W        W27229  11.723   2.929   3.370
63297W        W27230  33.010  22.695  14.401
63298W        W27231  37.863  11.134   0.275
63299W        W27232  17.256  37.871   1.878
63300W        W27233   9.858   0.302   2.220
63301W        W27234  36.096  15.714  11.047
63302W        W27235  24.535  24.483   0.897
63303W        W27236  39.874  33.080  11.570
63304W        W27237  21.692   0.775  12.445
63305W        W27238  11.835   7.835  12.859
63306W        W27239   2.814  35.396  13.434
63307W        W27240  32.473  35.471  13.343
63308W        W27241  14.750  42.829  13.433
63309W        W27242   9.388   4.791  14.939
63310W        W27243  13.768  12.186   0.342
63311W        W27244  15.596  37.390   5.226
63312W        W27245  23.641  25.095   1.263
63313W        W27246   8.792  36.929  10.985
63314W        W27247  30.633   0.956   3.818
63315W        W27248  30.129  32.033  12.404
63316W        W27249  12.670  16.102  14.275
63317W        W27250  30.578  17.173  14.443
63318W        W27251   0.742  21.233   4.315
63319W        W27252  33.113  44.957   1.366
63320W        W27253  32.108   6.881   4.281
63321W        W27254   9.743  20.635   3.340
63322W        W27255  40.434  16.717  12.452
63323W        W27256  39.559  25.129   3.647
63324W        W27257  13.606  20.592   4.177
63325W        W27258  35.975  21.022  10.416
63326W        W27259  41.019  28.062   4.128
63327W        W27260  27.055   7.396   0.252
63328W        W27261  18.726   7.691   3.256
63329W        W27262  23.640  36.556  13.840
63330W        W27263   0.367   2.396   0.828
63331W        W27264  15.731  24.137   3.715
63332W        W27265  19.076  12.682  10.492
63333W        W27266  18.614   5.422  10.467
63334W        W27267  28.158  38.927   2.355
63335W        W27268  41.985  29.511  11.944
63336W        W27269  31.430  14.100   2.729
63337W        W27270  27.054  22.242  11.564
63338W        W27271  29.534  35.008   0.751
63339W        W27272  14.616  28.152   3.684
63340W        W27273   6.245   0.486   3.654
63341W        W27274  25.696  12.697  10.642
63342W        W27275   4.307  13.199   4.758
63343W        W27276   7.352   7.240  12.066
63344W        W27277  43.324  24.515  12.988
63345W        W27278   7.823  22.684  11.862
63346W        W27279   6.804  26.669   2.740
63347W        W27280  12.758  40.434   1.934
63348W        W27281   4.343   1.916   1.330
63349W        W27282   3.287   6.827  11.871
63350W        W27283  39.392  12.663   4.697
63351W        W27284   1.913  31.078   1.757
63352W        W27285  28.985  41.502   4.732
63353W        W27286   5.362   6.916  11.434
63354W        W27287  37.957  29.620   4.648
63355W        W27288  19.572  16.229   5.097
63356W        W27289  28.993  28.946  12.027
63357W        W27290  26.027  16.627   2.234
63358W        W27291   0.775   0.955   0.280
63359W        W27292  38.969  26.659  12.988
63360W        W27293  16.213  20.546  10.905
63361W        W27294  32.079  29.144  10.955
63362W        W27295  32.903  28.498  13.896
63363W        W27296  41.481  35.528   0.426
63364W        W27297  38.494   6.356  11.502
63365W        W27298   9.236  27.957  14.294
63366W        W27299  15.207   9.160  11.546
63367W        W27300  35.970  23.703   0.831
63368W        W27301   0.459   9.394   3.336
63369W        W27302  17.127  19.051  12.432
63370W        W27303  35.011  20.040   3.784
63371W        W27304  19.643   3.830  14.865
63372W        W27305  12.284  25.487  11.875
63373W        W27306   9.662  30.536   1.347
63374W        W27307   6.829   8.850   3.158
63375W        W27308  39.814  15.646   2.201
63376W        W27309  29.552  22.175  11.559
63377W        W27310   4.401  14.739  11.594
63378W        W27311  41.460  30.649   0.314
63379W        W27312  15.165  13.726  14.463
63380W        W27313  17.237  27.637   3.758
63381W        W27314   4.424  22.653  13.371
63382W        W27315  21.246   9.190  11.592
63383W        W27316   0.764  42.015   0.481
63384W        W27317  25.189   6.885   3.257
63385W        W27318   0.773  19.637   3.215
63386W        W27319  10.245  32.413  13.041
63387W        W27320  26.639  35.445  10.911
63388W        W27321  24.615  35.862   1.806
63389W        W27322  10.792  22.236  10.503
63390W        W27323  29.435   3.253  14.401
63391W        W27324  35.457  32.010   4.811
63392W        W27325  33.929  29.968   1.919
63393W        W27326   1.736  29.962   2.297
63394W        W27327  28.118   0.779   4.200
63395W        W27328  11.720  34.864   3.758
63396W        W27329  23.592  31.563   0.748
63397W        W27330  27.189  40.388   2.186
63398W        W27331  42.865   1.290   4.815
63399W        W27332   9.392   6.813   4.150
63400W        W27333  15.241   5.359   3.765
63401W        W27334  21.194  42.522  12.851
63402W        W27335  25.479  16.250   3.812
63403W        W27336  33.536  32.020   2.812
63404W        W27337  31.471  24.609  12.353
63405W        W27338  40.807  44.794  13.328
63406W        W27339  12.712   8.847   2.393
63407W        W27340   9.694  12.241  10.914
63408W        W27341  34.515  36.545  12.484
63409W        W27342  10.786  10.814   3.793
63410W        W27343  19.683  22.160  12.875
63411W        W27344  41.429   1.397   0.246
63412W        W27345  36.044   2.823   4.152
63413W        W27346  27.646  42.425  11.009
63414W        W27347   9.888  43.865  13.389
63415W        W27348  23.989  32.634  11.043
63416W        W27349   9.773  34.465   1.228
63417W        W27350  17.614  13.743   0.898
63418W        W27351  14.106  43.385   1.818
63419W        W27352  38.932  10.337   3.739
63420W        W27353  28.930  32.395  11.602
63421W        W27354  36.519   6.805   1.220
63422W        W27355  31.626  40.957   1.828
63423W        W27356  27.584  33.460   0.259
63424W        W27357  40.418  10.858  14.431
63425W        W27358  22.520  31.505  12.546
63426W        W27359  16.072  23.046   2.867
63427W        W27360   7.902  19.068   3.279
63428W        W27361  26.677  19.537   3.345
63429W        W27362  40.853  19.202   0.861
63430W        W27363  23.729  26.088  10.478
63431W        W27364  20.567  23.562  11.491
63432W        W27365  10.777  23.678  12.072
63433W        W27366  41.446  16.204   1.903
63434W        W27367  35.005  21.085  14.468
63435W        W27368  37.078   2.841  13.797
63436W        W27369  30.099  12.353   3.820
63437W        W27370  15.173  41.805  11.589
63438W        W27371  26.105  31.525  13.535
63439W        W27372  11.784  23.158   0.468
63440W        W27373  44.909  28.144  13.326
63441W        W27374  32.058  42.980  14.396
63442W        W27375  16.749   4.814   1.696
63443W        W27376   7.203  14.670  11.403
63444W        W27377   8.874   9.813  11.123
63445W        W27378  18.189  16.166  10.059
63446W        W27379   0.418  11.198  14.312
63447W        W27380   7.908  10.309  12.841
63448W        W27381  10.304   5.760  10.917
63449W        W27382  29.003  42.483   4.816
63450W        W27383  10.240  28.953   3.216
63451W        W27384  27.006  16.147   4.779
63452W        W27385  10.775  35.956   4.243
63453W        W27386   9.367  21.066   0.420
63454W        W27387  27.589   0.855   1.301
63455W        W27388  10.722   4.863   2.881
63456W        W27389  16.174  39.403   3.372
63457W        W27390  10.779  44.504  12.446
63458W        W27391  42.018   0.756  11.589
63459W        W27392  18.616   3.831   0.933
63460W        W27393  36.087   2.924   0.754
63461W        W27394  25.542   2.448  10.478
63462W        W27395   5.334  40.323   2.376
63463W        W27396  39.033  18.270  13.022
63464W        W27397  23.117  13.350   4.268
63465W        W27398  30.928   1.478   0.309
63466W        W27399  14.097   9.845  10.117
63467W        W27400   3.367  34.934   5.130
63468W        W27401  31.527  20.144  14.313
63469W        W27402  38.977   4.827  12.899
63470W        W27403   6.687  30.553  12.467
63471W        W27404  41.507  35.915   0.814
63472W        W27405   0.956  26.600  13.518
63473W        W27406  11.291   5.327   0.326
63474W        W27407   5.866  31.028  10.641
63475W        W27408   9.304  40.977   2.359
63476W        W27409  41.991  37.962   2.872
63477W        W27410  44.838  27.139   4.653
63478W        W27411  43.466  41.518   5.185
63479W        W27412  19.737  43.503  12.513
63480W        W27413  11.629  12.256  12.838
63481W        W27414   2.731   5.380  11.103
63482W        W27415  10.754  11.192   3.754
63483W        W27416  14.799  42.296   4.309
63484W        W27417  16.245  38.466  11.991
63485W        W27418  29.143  14.215   4.263
63486W        W27419   2.403   0.841  13.033
63487W        W27420   0.391   3.887   0.406
63488W        W27421  37.055  35.983  11.600
63489W        W27422  37.041  35.398  13.461
63490W        W27423  28.470  34.593  13.874
63491W        W27424   4.871  37.524   3.372
63492W        W27425  24.509   1.951  13.991
63493W        W27426  28.115   3.384  13.499
63494W        W27427  41.937  27.120  13.331
63495W        W27428  36.910  10.273   3.295
63496W        W27429  37.955   1.390  14.320
63497W        W27430  20.169  38.509  10.644
63498W        W27431  32.547  36.018   0.902
63499W        W27432  13.114  31.133   0.413
63500W        W27433  21.089  22.653  13.360
63501W        W27434  22.582  20.196  12.532
63502W        W27435  38.484  24.187   0.758
63503W        W27436  28.562  25.660   3.675
63504W        W27437  33.058   7.242   1.738
63505W        W27438  37.963  35.036   0.729
63506W        W27439   2.379  35.415   4.613
63507W        W27440  39.932  23.995  11.095
63508W        W27441  27.981  33.490   1.425
63509W        W27442   5.780  34.483  11.006
63510W        W27443  27.035  34.574  11.467
63511W        W27444  21.227  22.140  10.931
63512W        W27445  43.824  25.087   4.239
63513W        W27446   9.702  18.207  12.021
63514W        W27447  34.917  23.735   1.813
63515W        W27448  41.875   8.801   4.329
63516W        W27449  25.197  37.994  14.384
63517W        W27450  38.020  26.082   2.802
63518W        W27451  14.648  43.430   4.118
63519W        W27452  10.812   9.817  14.777
63520W        W27453  12.149  10.329  14.317
63521W        W27454  35.495  33.491  14.450
63522W        W27455  26.172  16.682  14.346
63523W        W27456  16.727  39.409  13.878
63524W        W27457  35.363  11.134  12.009
63525W        W27458  10.653  42.447  14.448
63526W        W27459  28.081  27.164  12.848
63527W        W27460   7.745  25.509   0.435
63528W        W27461  32.491  32.494   2.262
63529W        W27462   7.884   2.868   2.890
63530W        W27463   3.436  14.820  13.974
63531W        W27464  17.177  32.891  11.583
63532W        W27465   4.728   4.803   0.908
63533W        W27466   7.755  19.743  12.887
63534W        W27467  38.974  21.248  10.497
63535W        W27468  16.624  41.372  10.553
63536W        W27469  21.084  40.379  12.045
63537W        W27470  37.407  32.490  13.917
63538W        W27471  26.686  16.279  14.821
63539W        W27472  38.513   1.892   1.871
63540W        W27473  34.959  14.250  12.880
63541W        W27474  43.301   4.904  14.280
63542W        W27475  18.106  36.043  11.373
63543W        W27476  28.143  36.992   1.915
63544W        W27477  31.633  32.591   3.672
63545W        W27478  28.966  40.989   4.807
63546W        W27479  10.639  24.622  12.413
63547W        W27480  38.998  29.472   2.219
63548W        W27481  31.992  42.314  10.549
63549W        W27482  26.153   6.354   4.143
63550W        W27483  43.445   5.781   1.755
63551W        W27484  31.009  25.513  15.000
63552W        W27485  13.838   5.851  12.846
63553W        W27486  21.144  37.968  10.932
63554W        W27487  11.233  43.960  13.823
63555W        W27488   6.699  24.004  11.112
63556W        W27489  27.586  15.621   4.829
63557W        W27490  23.138  11.149  14.865
63558W        W27491  37.977   0.863   1.358
63559W        W27492  41.979   5.259   0.819
63560W        W27493  27.133  44.298   0.463
63561W        W27494  18.122  25.627  12.958
63562W        W27495  18.663  38.896  14.328
63563W        W27496  11.723  24.557   4.618
63564W        W27497  40.901  17.084  11.420
63565W        W27498   8.212  10.658  10.571
63566W        W27499   3.929   6.792   3.725
63567W        W27500  29.547  21.540  14.484
63568W        W27501   8.346  39.546  13.539
63569W        W27502  38.568  13.123   4.641
63570W        W27503   5.250  11.775  14.320
63571W        W27504  33.113  42.464   3.646
63572W        W27505  24.013  36.860   0.284
63573W        W27506  11.801   6.293  13.899
63574W        W27507  28.463   4.764   0.437
63575W        W27508  43.019  12.170  12.460
63576W        W27509  41.800  17.067   3.820
63577W        W27510   9.358  43.954  14.903
63578W        W27511  12.352  38.011   1.379
63579W        W27512  23.676  37.867  12.410
63580W        W27513  44.397   6.887  12.858
63581W        W27514  31.638  14.736  11.927
63582W        W27515  30.525   7.183   3.349
63583W        W27516   9.334  11.653   1.254
63584W        W27517  23.238   2.269  11.612
63585W        W27518  23.168  11.216   2.270
63586W        W27519  20.730  35.494  10.490
63587W        W27520   9.755   5.796  14.932
63588W        W27521  12.686  43.486  14.995
63589W        W27522  28.938  38.041  11.424
63590W        W27523  44.941  16.682   3.688
63591W        W27524  12.346  31.126  11.549
63592W        W27525   6.710  15.709  12.464
63593W        W27526  44.331   6.797  13.813
63594W        W27527   7.350  26.623   2.201
63595W        W27528  12.683  15.229  14.338
63596W        W27529   0.494  37.349  11.378
63597W        W27530  12.267  14.234   1.805
63598W        W27531  39.407  38.361   2.872
63599W        W27532  28.982  23.229  12.927
63600W        W27533   1.243  16.808   2.831
63601W        W27534  24.657  21.260  11.126
63602W        W27535  30.152  40.986   0.345
63603W        W27536  16.721  44.953   4.664
63604W        W27537  42.836  16.072   3.236
63605W        W27538  41.502  42.378   0.334
63606W        W27539  28.517   0.913  14.838
63607W        W27540  13.302  38.450   3.720
63608W        W27541  40.466  36.559  11.122
63609W        W27542  36.413   1.887   3.305
63610W        W27543   0.951  24.532   2.317
63611W        W27544   0.750  11.141  10.572
63612W        W27545  38.852  18.061  11.052
63613W        W27546  20.169  16.659   0.832
63614W        W27547   9.163   8.693  13.903
63615W        W27548  15.647   9.313  12.458
63616W        W27549  39.545  38.472   1.914
63617W        W27550   7.835   1.761   0.264
63618W        W27551  35.485   7.844   0.746
63619W        W27552  44.283   4.719  13.472
63620W        W27553   8.893  20.749  11.995
63621W        W27554  37.448  35.852  14.380
63622W        W27555  28.974  36.478  12.427
63623W        W27556  28.633  40.512  12.970
63624W        W27557  43.894  23.205   2.761
63625W        W27558   1.281  15.748   1.440
63626W        W27559  20.696  14.242   0.850
63627W        W27560  22.581  35.064  12.966
63628W        W27561  11.358  33.935   2.396
63629W        W27562  12.801  27.522   3.711
63630W        W27563  31.430  43.489   1.335
63631W        W27564   2.965   8.675   0.778
63632W        W27565   5.845  26.589  13.821
63633W        W27566  19.146  39.832   1.810
63634W        W27567  14.629  35.947  10.098
63635W        W27568  41.445  22.064   2.406
63636W        W27569  35.071  18.273   1.841
63637W        W27570   8.882  10.665   1.233
63638W        W27571   9.385  24.206  11.075
63639W        W27572  28.090  30.111  11.122
63640W        W27573   2.230  22.680  14.784
63641W        W27574   8.685  17.245  14.765
63642W        W27575  30.163  25.630  10.507
63643W        W27576   4.347  21.535   3.664
63644W        W27577  22.191  41.293   1.387
63645W        W27578  28.096  12.786   3.383
63646W        W27579  30.515  13.350   3.330
63647W        W27580  26.538   1.956   1.218
63648W        W27581  44.261  27.553  12.418
63649W        W27582  10.763  17.644  12.441
63650W        W27583   6.831   9.180  13.943
63651W        W27584  12.229  41.028   1.271
63652W        W27585   9.849  37.013  12.546
63653W        W27586  11.800   1.958  13.961
63654W        W27587  34.471   3.290   0.964
63655W        W27588  17.246  20.537   2.352
63656W        W27589   2.921  26.193  11.603
63657W        W27590  25.506  12.322  14.878
63658W        W27591   2.888  39.852   3.687
63659W        W27592  28.134   5.860  11.940
63660W        W27593  20.741  16.162   1.857
63661W        W27594  37.081  23.532  10.616
63662W        W27595  34.949  25.993   2.313
63663W        W27596   0.301  14.127  11.455
63664W        W27597  23.203  27.610   0.285
63665W        W27598  14.690  20.660  11.572
63666W        W27599   1.842  24.675  12.052
63667W        W27600  30.596  25.627   1.410
63668W        W27601  40.521  44.497   4.634
63669W        W27602  29.623  21.663   2.665
63670W        W27603  39.388  44.378  11.613
63671W        W27604  38.491  14.230   3.206
63672W        W27605   0.379  27.576  14.498
63673W        W27606  21.026  19.662  11.587
63674W        W27607  16.289   6.235   3.687
63675W        W27608   4.310  38.898   4.143
63676W        W27609  30.472  25.674  13.449
63677W        W27610   9.787  10.261  10.935
63678W        W27611  39.907  25.621   2.240
63679W        W27612  26.035   3.712   0.914
63680W        W27613  39.034   9.169  14.783
63681W        W27614  42.007   0.366   4.199
63682W        W27615  21.663  35.407   3.850
63683W        W27616  33.422  19.540   2.202
63684W        W27617   6.355  14.189  12.953
63685W        W27618  33.884  27.158   3.687
63686W        W27619   9.206  14.765   3.267
63687W        W27620  30.432  23.695   3.154
63688W        W27621   0.248  21.546  12.950
63689W        W27622  15.606  39.891  10.635
63690W        W27623   1.925  42.900   3.694
63691W        W27624   1.474  10.340  14.991
63692W        W27625  15.810   3.274  10.435
63693W        W27626  42.440  14.635  14.329
63694W        W27627  15.797  29.981  14.793
63695W        W27628  10.667  31.594  11.123
63696W        W27629  33.935   2.255  13.978
63697W        W27630  24.566   1.785  13.363
63698W        W27631  37.864   6.748   0.821
63699W        W27632  16.235   3.259   1.225
63700W        W27633  22.057  12.660   3.318
63701W        W27634  26.696   3.738  13.545
63702W        W27635  27.995  37.927  13.828
63703W        W27636  32.566  41.851   2.363
63704W        W27637  25.974  15.794   0.859
63705W        W27638  23.094  19.068  12.891
63706W        W27639   1.763  14.706   2.735
63707W        W27640  37.402  15.265  10.942
63708W        W27641  23.218   8.256   3.154
63709W        W27642  41.988  27.448  14.477
63710W        W27643  20.658   8.729   4.763
63711W        W27644  22.127  38.056  11.006
63712W        W27645  20.636  21.576   4.752
63713W        W27646  42.490  21.160   1.383
63714W        W27647  20.122  22.184  10.632
63715W        W27648  17.227  10.311  13.530
63716W        W27649   0.251  12.699  10.592
63717W        W27650  28.959  19.660  12.018
63718W        W27651  18.291  36.057   2.685
63719W        W27652  24.639  36.352   0.322
63720W        W27653  15.328  37.421  10.637
63721W        W27654  23.023  42.907   0.834
63722W        W27655   1.375   8.830   4.127
63723W        W27656  11.212  19.246   4.730
63724W        W27657  24.515  15.326  11.459
63725W        W27658   9.196  18.654   1.876
63726W        W27659  33.964  29.645  11.855
63727W        W27660   3.307  23.138  11.384
63728W        W27661  18.623  15.175  10.938
63729W        W27662  26.557  42.899  10.501
63730W        W27663  32.467   8.703   3.185
63731W        W27664  18.600  41.322  10.417
63732W        W27665  11.699  42.474  10.407
63733W        W27666  32.933   4.730  11.015
63734W        W27667   3.268  20.568  10.530
63735W        W27668  23.058  15.267   4.625
63736W        W27669  21.546  39.925   0.393
63737W        W27670  25.490  20.066  11.006
63738W        W27671  40.454  41.472  10.949
63739W        W27672  34.034  43.417   3.811
63740W        W27673  37.887  41.360   0.348
63741W        W27674  17.267  14.651  14.006
63742W        W27675   8.393  25.576  10.966
63743W        W27676  21.565  30.437   1.442
63744W        W27677   4.876   8.694  10.405
63745W        W27678  17.788  20.051   3.267
63746W        W27679  31.426   7.297   2.872
63747W        W27680  12.846  35.476   0.247
63748W        W27681   1.751   4.340   0.805
63749W        W27682  34.024   8.831  10.418
63750W        W27683  42.496  19.083  14.931
63751W        W27684  40.838  27.153   2.687
63752W        W27685  42.503   9.661   0.302
63753W        W27686  36.571   6.205   0.450
63754W        W27687  36.925  29.118  13.794
63755W        W27688   2.939  21.179  10.555
63756W        W27689  29.944  20.043  13.027
63757W        W27690  16.685  24.620   4.250
63758W        W27691  15.693   1.867  10.117
63759W        W27692   8.860  25.555  13.851
63760W        W27693  20.696  41.859  12.488
63761W        W27694  44.333  33.062  12.447
63762W        W27695   6.367  38.012  13.889
63763W        W27696   4.345  18.062   2.866
63764W        W27697   8.254  43.393   3.759
63765W        W27698  40.424   7.791   3.349
63766W        W27699   7.364   7.843  12.543
63767W        W27700  28.531  12.137   0.416
63768W        W27701  34.448   3.296   1.221
63769W        W27702  13.120  42.002  12.348
63770W        W27703   9.355   4.393  14.491
63771W        W27704   4.230   5.254   2.856
63772W        W27705   9.874  30.974  11.073
63773W        W27706  18.647  10.142  14.870
63774W        W27707  41.324   6.278   5.130
63775W        W27708  28.090  44.870   2.399
63776W        W27709  35.046  29.506  10.642
63777W        W27710  37.411  13.124   3.177
63778W        W27711  21.534   6.399   4.639
63779W        W27712  28.447  15.183   4.745
63780W        W27713   5.248  27.661   2.350
63781W        W27714  22.164  31.973  13.977
63782W        W27715  11.621  19.212   0.964
63783W        W27716   1.374  16.156   4.287
63784W        W27717  11.648  35.057  14.947
63785W        W27718  34.384  31.552   0.307
63786W        W27719  10.825  43.494  11.413
63787W        W27720  43.850  33.478  11.578
63788W        W27721  28.105  43.783  13.821
63789W        W27722   0.801  20.664   1.334
63790W        W27723  38.918  13.298  13.391
63791W        W27724   3.355  12.135  10.489
63792W        W27725   7.360  22.071   1.368
63793W        W27726  31.539  10.247  14.915
63794W        W27727  38.875  22.569   0.458
63795W        W27728   5.820  34.004   3.858
63796W        W27729  10.168  30.100   0.885
63797W        W27730  14.799  23.056  13.870
63798W        W27731  42.421   1.476  13.398
63799W        W27732  25.572   4.814   2.895
63800W        W27733  32.141  13.772   3.726
63801W        W27734  34.418  13.250   3.649
63802W        W27735   8.324  28.550  12.044
63803W        W27736  24.723  29.040  14.946
63804W        W27737  12.706  16.723  12.008
63805W        W27738  20.053  11.345  10.039
63806W        W27739  33.997  35.489  10.440
63807W        W27740  17.262  36.390   1.694
63808W        W27741   9.323  16.605   0.271
63809W        W27742  43.000  34.584  12.935
63810W        W27743  18.064  33.086   3.764
63811W        W27744  39.475  22.517  13.341
63812W        W27745  28.003  40.493   0.304
63813W        W27746   7.213  17.740  11.578
63814W        W27747  25.059   6.218   0.252
63815W        W27748  44.968  10.187   1.911
63816W        W27749  26.046  13.618   3.299
63817W        W27750  20.686   8.862  14.311
63818W        W27751  14.095  16.747   4.607
63819W        W27752  31.071   5.436   1.225
63820W        W27753  42.816  18.691   1.932
63821W        W27754  16.197  13.617   4.334
63822W        W27755  15.277  39.395  13.399
63823W        W27756  33.580  25.017  10.977
63824W        W27757   7.289  27.540  11.004
63825W        W27758  11.204  27.635   1.804
63826W        W27759  23.106  19.574  13.913
63827W        W27760  19.224  13.722   1.355
63828W        W27761  20.268  36.492  13.900
63829W        W27762   3.269  22.227  11.468
63830W        W27763  18.634  19.164   2.738
63831W        W27764   3.901  28.107   2.348
63832W        W27765  20.665  28.582   0.256
63833W        W27766  24.504   2.860  10.574
63834W        W27767  43.960   0.458  12.029
63835W        W27768   3.295   2.928   3.173
63836W        W27769  39.407   2.870   3.184
63837W        W27770  15.214  34.952  12.375
63838W        W27771  26.191  10.772   1.807
63839W        W27772  38.022  32.624   0.271
63840W        W27773  21.139  14.688   3.710
63841W        W27774  12.344  12.746  10.439
63842W        W27775  31.990  39.342  10.499
63843W        W27776  28.989  32.905   0.434
63844W        W27777  12.648  37.935  14.953
63845W        W27778  42.292  21.592  11.479
63846W        W27779   8.162  28.636  14.916
63847W        W27780  11.217  44.904  14.930
63848W        W27781  18.741   2.277  13.402
63849W        W27782  31.477  19.746  14.928
63850W        W27783   1.448  14.780   2.712
63851W        W27784   6.384   0.924  14.467
63852W        W27785  18.562  39.051   4.154
63853W        W27786  29.479   5.688   2.368
63854W        W27787  10.833  14.207   1.874
63855W        W27788  40.027  29.481  14.785
63856W        W27789   6.385   7.413   5.090
63857W        W27790  36.990  44.970  13.985
63858W        W27791  34.567  34.431  12.025
63859W        W27792   5.383   4.349   0.738
63860W        W27793  25.170  15.583   3.651
63861W        W27794  37.921  23.547   0.426
63862W        W27795  33.090  12.658   3.149
63863W        W27796  25.029   3.435   4.597
63864W        W27797  20.528   4.377  10.983
63865W        W27798  30.448  38.847  14.765
63866W        W27799  17.746  17.754  13.870
63867W        W27800  13.688   0.943  13.323
63868W        W27801   2.352   1.817   1.840
63869W        W27802  41.808  19.082  11.490
63870W        W27803  18.077   7.703   2.261
63871W        W27804  19.745  44.830  12.443
63872W        W27805  33.387   6.689  12.523
63873W        W27806  20.658  21.614  11.050
63874W        W27807  18.610  13.235  12.988
63875W        W27808  27.099   8.754   4.618
63876W        W27809   4.832  11.340   3.649
63877W        W27810  34.916  18.258  14.849
63878W        W27811   6.409   6.189  10.076
63879W        W27812  15.753  33.896   0.796
63880W        W27813   3.367  43.802   0.476
63881W        W27814  31.063   9.204  10.982
63882W        W27815   9.787  18.755  14.329
63883W        W27816  23.104   3.382  12.950
63884W        W27817  37.850  39.932   2.344
63885W        W27818  21.221  14.315  14.441
63886W        W27819  32.410   3.428   5.292
63887W        W27820  12.841  20.646   2.765
63888W        W27821  44.439  33.530  10.546
63889W        W27822   0.443  38.471  11.516
63890W        W27823  35.360   9.178   1.708
63891W        W27824  24.605   7.298   4.645
63892W        W27825  44.942  40.514   4.710
63893W        W27826  34.022   2.285  13.406
63894W        W27827  38.531   5.288  12.546
63895W        W27828   8.278  39.825  12.848
63896W        W27829  14.240  42.392  13.539
63897W        W27830  11.228  31.065  14.408
63898W        W27831  26.498  14.333  13.380
63899W        W27832  16.641  13.267  11.015
63900W        W27833   3.301   8.349   2.291
63901W        W27834   2.401  24.679   3.330
63902W        W27835  36.370  15.239  13.799
63903W        W27836  17.236  25.977   2.347
63904W        W27837   5.735  26.524   2.341
63905W        W27838  18.066  17.070  13.307
63906W        W27839  12.754  43.403   2.782
63907W        W27840  29.457  21.683   4.649
63908W        W27841  18.129  14.311  12.094
63909W        W27842  25.696  29.038   5.136
63910W        W27843  34.465  37.967   2.815
63911W        W27844   1.762  44.783   4.286
63912W        W27845  24.062  35.031   3.685
63913W        W27846  36.397  36.455  11.404
63914W        W27847  18.663  26.512  11.039
63915W        W27848   9.298  17.635  11.480
63916W        W27849  31.988   1.307   4.347
63917W        W27850  44.917   9.745   0.939
63918W        W27851   4.904  12.133   5.235
63919W        W27852   9.740  25.547   3.207
63920W        W27853  30.908  41.910   4.759
63921W        W27854  22.692  20.704   1.931
63922W        W27855  27.664   4.937  13.987
63923W        W27856   6.742  14.659   2.815
63924W        W27857  35.554  10.645   0.915
63925W        W27858   6.844   0.860  12.495
63926W        W27859  40.797  43.779  11.373
63927W        W27860  13.279  21.142  14.513
63928W        W27861  12.825   7.667  11.460
63929W        W27862  27.562  11.815   3.236
63930W        W27863  11.358  12.286  12.536
63931W        W27864  29.126  16.191   1.867
63932W        W27865  15.732   4.450   2.273
63933W        W27866   1.784   3.331  11.397
63934W        W27867  13.720  32.588   3.829
63935W        W27868  27.190  42.005   9.978
63936W        W27869  25.156  29.062  13.857
63937W        W27870  15.672  13.123  10.976
63938W        W27871  11.760  28.971  10.637
63939W        W27872  15.086  44.403   1.897
63940W        W27873  22.087  17.218  12.016
63941W        W27874  16.272  34.558  11.452
63942W        W27875   5.747  36.853   0.470
63943W        W27876  24.705  15.174  11.102
63944W        W27877  39.325  35.102  13.335
63945W        W27878  22.657  23.134   2.790
63946W        W27879  14.686  28.499  11.475
63947W        W27880   8.880  23.537   2.889
63948W        W27881  30.932  42.466   0.277
63949W        W27882  36.453  25.013   0.952
63950W        W27883  16.609  24.620   2.189
63951W        W27884  28.166  21.752   4.250
63952W        W27885  11.326  18.143   4.649
63953W        W27886   1.443  40.911  14.974
63954W        W27887  32.538  41.377  13.947
63955W        W27888  39.333  39.013   2.258
63956W        W27889   5.226  42.509   1.327
63957W        W27890  21.652  23.614  12.041
63958W        W27891  10.831  42.829   1.443
63959W        W27892  11.760  37.916   0.841
63960W        W27893  37.470  18.694   1.261
63961W        W27894   5.336   3.341  12.930
63962W        W27895  22.083  17.694   0.471
63963W        W27896   9.387  15.754   0.904
63964W        W27897  40.330  23.718   3.797
63965W        W27898  14.276  39.900   3.249
63966W        W27899   3.296  16.103   0.355
63967W        W27900  17.301  29.632  13.311
63968W        W27901   6.805  33.528   1.772
63969W        W27902  44.861  43.349   2.697
63970W        W27903  10.200  35.090   1.850
63971W        W27904   7.699  11.772  10.489
63972W        W27905  17.231  20.053   5.708
63973W        W27906  18.619  34.081   0.933
63974W        W27907  43.295  32.954  13.367
63975W        W27908  30.064  31.436  13.054
63976W        W27909  12.333  30.117  14.807
63977W        W27910  14.693   4.880   1.853
63978W        W27911  41.413   5.265  14.307
63979W        W27912  19.040  42.454   3.386
63980W        W27913  11.148   3.269  14.358
63981W        W27914  43.433  24.066   2.310
63982W        W27915   9.766  25.162   5.150
63983W        W27916  40.963  41.478   4.116
63984W        W27917  40.545  21.128   4.625
63985W        W27918  44.328  25.671  14.366
63986W        W27919   7.716  29.938   0.376
63987W        W27920  23.647  12.330   4.755
63988W        W27921  23.571  20.565   4.787
63989W        W27922  39.898  13.302   1.391
63990W        W27923  36.061  16.773  10.556
63991W        W27924  21.174  22.024  14.020
63992W        W27925  31.477  34.579   2.775
63993W        W27926  12.639  38.068  14.466
63994W        W27927   5.818  28.661  11.890
63995W        W27928  17.732  27.564   1.394
63996W        W27929  41.828   1.452   1.443
63997W        W27930  36.451  44.452   3.183
63998W        W27931  18.720   2.948   1.750
63999W        W27932  15.135   7.394   2.208
64000W        W27933  40.866  42.506  10.468
64001W        W27934  35.464  25.034   1.352
64002W        W27935  16.746  23.130   2.872
64003W        W27936  43.913   8.793  13.493
64004W        W27937  20.626  40.025  12.858
64005W        W27938  37.564   6.219   1.395
64006W        W27939   4.394  11.354  11.076
64007W        W27940  39.457  32.952  14.314
64008W        W27941  33.929   2.933  13.467
64009W        W27942   5.801  16.143  14.509
64010W        W27943  37.969  41.854  12.525
64011W        W27944  38.937  13.302   1.370
64012W        W27945  44.304  26.477   1.373
64013W        W27946  38.329  44.826   3.349
64014W        W27947  15.814   3.440   4.813
64015W        W27948  21.092   7.299  13.942
64016W        W27949   1.464  43.413  14.895
64017W        W27950  10.859  21.517  14.357
64018W        W27951  43.919  35.603   3.177
64019W        W27952  34.499  36.441  10.992
64020W        W27953  25.094   8.174   3.795
64021W        W27954  34.945  13.643  12.454
64022W        W27955   7.911   5.241  11.998
64023W        W27956   6.817  30.639  10.625
64024W        W27957  27.517  37.471   2.187
64025W        W27958  29.090  23.690   2.763
64026W        W27959  25.141   1.378   0.853
64027W        W27960   9.689   4.713   4.629
64028W        W27961  35.582   9.729   0.774
64029W        W27962  41.850  11.854  10.963
64030W        W27963  43.449  39.059  13.487
64031W        W27964   5.908   3.276  11.880
64032W        W27965  33.382  18.727   2.896
64033W        W27966  28.669  32.990   4.765
64034W        W27967   7.675  26.595   1.821
64035W        W27968   7.814   8.789  14.922
64036W        W27969  33.914  29.571   1.715
64037W        W27970  11.719   1.296   4.246
64038W        W27971  30.610  34.590  12.490
64039W        W27972  37.403   7.762  13.006
64040W        W27973  18.791  31.124  11.538
64041W        W27974  35.474   7.332   4.130
64042W        W27975  15.213  24.019   4.215
64043W        W27976  29.629  30.085   0.904
64044W        W27977  39.909  24.655  14.868
64045W        W27978  28.979  31.962   3.701
64046W        W27979  27.171  32.507  12.831
64047W        W27980  32.912  27.987  11.528
64048W        W27981   7.720   7.364  10.932
64049W        W27982  41.832  33.100  10.551
64050W        W27983  24.167  30.510   3.340
64051W        W27984  15.148  44.375   4.760
64052W        W27985  36.073  38.453   2.316
64053W        W27986  21.095   5.736  14.391
64054W        W27987   3.236  18.725  10.999
64055W        W27988  23.011  39.489   4.738
64056W        W27989   0.375  17.138   2.409
64057W        W27990  37.869  41.461   1.781
64058W        W27991  10.188  12.247  10.552
64059W        W27992  33.995  32.410  13.952
64060W        W27993  20.100   4.410   0.929
64061W        W27994  17.646  14.094  14.921
64062W        W27995  31.944   5.422   2.393
64063W        W27996  43.447  13.274  14.999
64064W        W27997  26.599  19.578  12.401
64065W        W27998  36.010   7.263   0.797
64066W        W27999  41.985  22.036   3.775
64067W        W28000  14.161  21.021  13.385
64068W        W28001  32.902  20.063   1.894
64069W        W28002  44.968  13.304  13.459
64070W        W28003  40.392  42.336   4.705
64071W        W28004  22.067  15.778   1.735
64072W        W28005  24.012   0.273   0.384
64073W        W28006  39.496  25.608  12.402
64074W        W28007  13.773   7.809   0.735
64075W        W28008  27.472  18.226  11.943
64076W        W28009   0.315   8.160  13.503
64077W        W28010  31.906   3.902  12.828
64078W        W28011  19.738  23.521   4.253
64079W        W28012  19.044  12.819   2.370
64080W        W28013   5.392  33.474   0.481
64081W        W28014  37.402  25.064   9.925
64082W        W28015   9.330  16.690   4.685
64083W        W28016  19.572  26.694   1.917
64084W        W28017  37.971  16.231  11.502
64085W        W28018  26.960  30.613   4.236
64086W        W28019  18.750  44.936   2.800
64087W        W28020  18.231  28.613   2.674
64088W        W28021  19.218   6.685  10.615
64089W        W28022  42.461  40.038   2.691
64090W        W28023   9.678  15.737   0.926
64091W        W28024  13.240  21.629   2.887
64092W        W28025  33.994  32.501   4.734
64093W        W28026  37.523  30.110  14.510
64094W        W28027  34.872  25.594  13.020
64095W        W28028  31.066  20.070   4.231
64096W        W28029   6.378  10.848  14.894
64097W        W28030  25.647  28.519  10.579
64098W        W28031  30.165  26.086   4.165
64099W        W28032  24.035  31.584  12.827
64100W        W28033  31.918   5.914   4.695
64101W        W28034  33.880   1.812   3.832
64102W        W28035  24.219  23.131   4.177
64103W        W28036  30.084  19.568  10.588
64104W        W28037  35.092  20.625  13.473
64105W        W28038  27.635  20.171   1.713
64106W        W28039  38.385   4.859  12.841
64107W        W28040   1.917  28.461   1.879
64108W        W28041  43.420   3.930   3.732
64109W        W28042  11.221   0.745  14.503
64110W        W28043  23.504   1.396   2.409
64111W        W28044  23.155  13.161  12.920
64112W        W28045  16.583  35.568  11.560
64113W        W28046  41.380  36.507  13.003
64114W        W28047   0.363  39.055   1.440
64115W        W28048  36.951  16.164  10.625
64116W        W28049  21.212  28.517   3.789
64117W        W28050   3.281   4.387   3.210
64118W        W28051  30.644   7.747   4.814
64119W        W28052  23.061  21.164  12.013
64120W        W28053  17.073  28.560  13.958
64121W        W28054  24.590   4.756  14.771
64122W        W28055  14.305  42.988  11.465
64123W        W28056  29.493  31.111  10.956
64124W        W28057  44.808  18.162   1.863
64125W        W28058  37.854  28.511   1.930
64126W        W28059  10.719   2.839   0.920
64127W        W28060  10.143   7.342   2.664
64128W        W28061  14.267  43.352   2.260
64129W        W28062  23.127   7.365  13.848
64130W        W28063  35.386  37.889   2.299
64131W        W28064   6.280  42.031   2.828
64132W        W28065  13.723  30.656  11.560
64133W        W28066   8.351  25.608  14.851
64134W        W28067   2.854  22.199   3.246
64135W        W28068  42.436  36.484   3.383
64136W        W28069   1.957  13.229  11.005
64137W        W28070  13.831  11.249  10.938
64138W        W28071  43.465  34.927  14.955
64139W        W28072  12.762  27.094  13.038
64140W        W28073  11.324  26.632   2.343
64141W        W28074   7.668  24.073  14.783
64142W        W28075  38.524  32.069  13.037
64143W        W28076  20.046   2.231  11.042
64144W        W28077  39.528   9.658   1.801
64145W        W28078   2.368  19.582   0.874
64146W        W28079  25.118  14.203  10.939
64147W        W28080  16.220   1.284   0.403
64148W        W28081  39.416  15.311   4.231
64149W        W28082  37.536  30.933   4.718
64150W        W28083  17.734   8.207   9.518
64151W        W28084  12.210   8.383  13.414
64152W        W28085  37.406  36.398  10.926
64153W        W28086  12.774  11.373  10.534
64154W        W28087  15.130   2.901  14.418
64155W        W28088  34.897  27.687   4.642
64156W        W28089  39.443  43.385  13.793
64157W        W28090  30.133  29.485  10.918
64158W        W28091  33.472  38.532  14.857
64159W        W28092  29.469   6.919   1.438
64160W        W28093  14.791  36.889   9.944
64161W        W28094  20.199   5.379   0.945
64162W        W28095  11.761   5.729  10.607
64163W        W28096  16.791  39.993  14.314
64164W        W28097   0.288  12.847  12.946
64165W        W28098  42.815   2.744   0.914
64166W        W28099  37.387   4.934  10.124
64167W        W28100   6.227   5.291   1.810
64168W        W28101  19.765  26.570   2.836
64169W        W28102  22.526  26.001  12.371
64170W        W28103  24.703  34.392   4.801
64171W        W28104  18.151  39.970   0.867
64172W        W28105  19.094   5.753   0.749
64173W        W28106  34.431   0.826   2.805
64174W        W28107   1.275  34.983  11.015
64175W        W28108  26.202  27.579  13.025
64176W        W28109  43.369  20.132  10.479
64177W        W28110  39.387  30.616  12.980
64178W        W28111   3.219  31.924  14.834
64179W        W28112  23.593  24.691  10.621
64180W        W28113   1.908  19.603   1.405
64181W        W28114  35.961  27.682  12.947
64182W        W28115   4.773  35.915   0.826
64183W        W28116  35.863   6.736  13.323
64184W        W28117   9.865  14.705  11.605
64185W        W28118  36.551  13.834  11.968
64186W        W28119  39.950  14.294   0.421
64187W        W28120  36.944  40.382   4.774
64188W        W28121   5.785  43.827  13.025
64189W        W28122  17.566  10.153   1.353
64190W        W28123  23.216  27.556  13.351
64191W        W28124  26.046   1.746  11.008
64192W        W28125  17.743   0.966   0.926
64193W        W28126   7.823  27.574   4.196
64194W        W28127  22.530  17.626  12.549
64195W        W28128  13.296   1.897  11.443
64196W        W28129   7.178  39.846   2.671
64197W        W28130  32.988  20.621   0.735
64198W        W28131  40.478  34.916  12.561
64199W        W28132  32.013   8.821  14.926
64200W        W28133  27.993   9.673   1.853
64201W        W28134  40.866  35.923  11.857
64202W        W28135   2.255  35.082   0.865
64203W        W28136  28.089  18.074  14.006
64204W        W28137  14.253  17.580   0.805
64205W        W28138   4.355  24.600   4.678
64206W        W28139  24.552   3.314   4.781
64207W        W28140  38.018   0.924  14.299
64208W        W28141  34.491  24.198  11.110
64209W        W28142  25.074   4.300   3.668
64210W        W28143  35.883  17.764  14.436
64211W        W28144  19.142  36.901   5.222
64212W        W28145   6.821   2.866   5.634
64213W        W28146  25.034   6.376   5.124
64214W        W28147  32.586  17.093  12.494
64215W        W28148  43.902  26.071   3.633
64216W        W28149   6.414  21.122   0.420
64217W        W28150  44.962  35.034   4.281
64218W        W28151  42.283  28.624   4.756
64219W        W28152  33.518  42.916   2.408
64220W        W28153   3.270  37.897   4.281
64221W        W28154  24.193  37.456  14.985
64222W        W28155  27.620  34.970  11.003
64223W        W28156  40.348  28.959   0.936
64224W        W28157  39.887   9.206   1.295
64225W        W28158  39.355  21.731  13.893
64226W        W28159   9.672  33.423  11.030
64227W        W28160   9.375  37.911  12.996
64228W        W28161  11.336  28.463   2.304
64229W        W28162  34.987  26.470   0.328
64230W        W28163  28.169  23.569   4.291
64231W        W28164   5.367  15.752   4.286
64232W        W28165   7.265  35.578  11.066
64233W        W28166  11.627  22.086   4.302
64234W        W28167  17.286  37.570   1.911
64235W        W28168  24.650  21.710  12.390
64236W        W28169  12.656  23.544   0.449
64237W        W28170  28.993  14.299   4.638
64238W        W28171  11.681  37.366   0.392
64239W        W28172  21.748  38.991   4.776
64240W        W28173   1.368  31.152   2.853
64241W        W28174   6.744  43.866   4.237
64242W        W28175  15.279  15.642  11.462
64243W        W28176  12.283  37.537   3.365
64244W        W28177  44.403  44.489  14.856
64245W        W28178  28.624  24.496  10.922
64246W        W28179  41.366  12.305   3.701
64247W        W28180   2.812  39.431   2.694
64248W        W28181  25.614  35.923   1.909
64249W        W28182  35.883   4.308   0.268
64250W        W28183  31.607  17.778   4.768
64251W        W28184  27.590   2.840   0.813
64252W        W28185  18.274   1.381   3.773
64253W        W28186  14.829  24.723   3.224
64254W        W28187  16.313  15.701  10.991
64255W        W28188  40.535   3.381   0.901
64256W        W28189  20.734   6.378   1.361
64257W        W28190  34.559  13.727  13.931
64258W        W28191  22.159  35.984   3.754
64259W        W28192  11.714  13.646  14.980
64260W        W28193  22.594  22.052  13.320
64261W        W28194   2.469   0.389  14.893
64262W        W28195  39.341  38.433  10.517
64263W        W28196  13.234  29.566  11.034
64264W        W28197   6.187  33.414   4.242
64265W        W28198  29.638   3.864  12.942
64266W        W28199  11.660  26.010   2.838
64267W        W28200  17.745  25.040   1.382
64268W        W28201  30.605  29.459  10.416
64269W        W28202  43.826   2.807  13.501
64270W        W28203  21.733  35.571  12.438
64271W        W28204  30.459  11.773  12.068
64272W        W28205   5.691  20.186   0.933
64273W        W28206  24.540  35.918  14.368
64274W        W28207  13.165  23.671   0.784
64275W        W28208   6.188  32.596   0.848
64276W        W28209   4.234  35.588   1.316
64277W        W28210  23.130  16.569   4.168
64278W        W28211  16.318  15.328   1.408
64279W        W28212  33.408  29.449  14.380
64280W        W28213  42.950  17.744  10.435
64281W        W28214   0.432  20.246   2.186
64282W        W28215  19.594  19.256  12.076
64283W        W28216  28.164  10.649   1.271
64284W        W28217  28.572   2.780  13.445
64285W        W28218  18.632  43.986   1.447
64286W        W28219   5.885  17.689   0.383
64287W        W28220  44.950  16.746  10.992
64288W        W28221  23.561  14.699   2.699
64289W        W28222  23.051  23.600   2.805
64290W        W28223  34.974   9.674  12.083
64291W        W28224  38.468   6.811   1.704
64292W        W28225  17.700  31.486   3.373
64293W        W28226  21.597  20.593  13.911
64294W        W28227  28.533  13.755   1.917
64295W        W28228   5.379   1.361  11.072
64296W        W28229  33.982  40.453   3.303
64297W        W28230  26.549  24.185   2.706
64298W        W28231  17.794   6.907   1.357
64299W        W28232   1.757  27.555   3.738
64300W        W28233  37.427   0.884  13.037
64301W        W28234  35.440  37.452  10.987
64302W        W28235   6.711  22.696  14.509
64303W        W28236  11.651  30.077  14.987
64304W        W28237  28.938   8.176  14.391
64305W        W28238  18.778  36.989  12.377
64306W        W28239  25.006  16.716  12.963
64307W        W28240  12.658  10.286  14.864
64308W        W28241  32.498  30.457  10.576
64309W        W28242  18.562  15.273   2.751
64310W        W28243   7.184  37.547   0.957
64311W        W28244   9.849  27.988  14.844
64312W        W28245  21.081   1.749  13.387
64313W        W28246  25.666   5.706  12.572
64314W        W28247  29.428   4.381   2.203
64315W        W28248   5.223  34.586  13.011
64316W        W28249  43.336  16.143  11.035
64317W        W28250  33.885  19.091  12.869
64318W        W28251   8.712   5.763  12.037
64319W        W28252  19.078  34.914  14.963
64320W        W28253  23.108  26.019  13.980
64321W        W28254  39.990  23.687   2.744
64322W        W28255   8.213  43.457  13.882
64323W        W28256  43.498   3.335   4.704
64324W        W28257   4.447  29.972  13.984
64325W        W28258  24.675  32.927  14.479
64326W        W28259  36.954   5.392   0.833
64327W        W28260  22.626  36.070  12.075
64328W        W28261  16.171  27.536  13.542
64329W        W28262  27.076  18.080  11.081
64330W        W28263   9.713  20.751   0.255
64331W        W28264  12.769   9.733  11.556
64332W        W28265   7.846  18.241   1.314
64333W        W28266  25.589  23.550  10.001
64334W        W28267  29.065  10.863  11.930
64335W        W28268  43.407  31.434   1.330
64336W        W28269  28.440  13.695  14.821
64337W        W28270   8.849  25.984  13.393
64338W        W28271  19.281   8.883  14.431
64339W        W28272  29.531  26.591   1.378
64340W        W28273  10.354  25.517  10.421
64341W        W28274  41.028   6.248  11.476
64342W        W28275   7.712  12.329  13.429
64343W        W28276   2.270  16.759  13.024
64344W        W28277  15.220  25.063  14.445
64345W        W28278  33.545  38.827   2.760
64346W        W28279  34.597  26.674   3.151
64347W        W28280   7.669  28.178   0.845
64348W        W28281  33.417   6.346  10.983
64349W        W28282  34.901  42.370  14.289
64350W        W28283  18.196  32.579  14.349
64351W        W28284  15.216   6.760   2.355
64352W        W28285  17.565  32.408   4.669
64353W        W28286  21.200   7.838  10.486
64354W        W28287   0.427  38.566   1.747
64355W        W28288  41.804  33.500   3.348
64356W        W28289   7.668  31.900   4.143
64357W        W28290  27.499  43.983   0.293
64358W        W28291  13.787  38.358  13.421
64359W        W28292  20.225   6.845   4.221
64360W        W28293  32.950  44.504  13.392
64361W        W28294  15.288  27.538   1.760
64362W        W28295  21.666  32.984  10.952
64363W        W28296  11.363  23.704  12.377
64364W        W28297  36.003  13.107   3.180
64365W        W28298  42.354  24.529  11.082
64366W        W28299  31.487  19.676  12.053
64367W        W28300  40.985  19.084  11.389
64368W        W28301   9.318  14.607  12.927
64369W        W28302   1.812  17.132   2.305
64370W        W28303  30.910  26.550   2.251
64371W        W28304  19.045  10.258   3.289
64372W        W28305   4.325   5.835   1.356
64373W        W28306  13.206  17.757   4.132
64374W        W28307  24.616  29.480   0.361
64375W        W28308   0.883  41.918  13.863
64376W        W28309  23.990  20.679  13.896
64377W        W28310   3.383  37.485  11.856
64378W        W28311  10.147  39.555   2.795
64379W        W28312  12.238  21.756  10.405
64380W        W28313   6.921  26.619   1.724
64381W        W28314  22.084   1.869  11.002
64382W        W28315  35.573   7.909   1.905
64383W        W28316  41.950  10.685   1.857
64384W        W28317   6.305  27.194  12.339
64385W        W28318  18.260  28.027   3.693
64386W        W28319  32.623  17.186  11.941
64387W        W28320  34.419   0.866   2.397
64388W        W28321  36.973   6.390   2.284
64389W        W28322  32.007  44.496   5.194
64390W        W28323  18.221   1.925  12.342
64391W        W28324  14.804  43.436   2.363
64392W        W28325  22.626  34.389   0.884
64393W        W28326  27.098  24.577   3.734
64394W        W28327   2.234  20.623   3.373
64395W        W28328  40.804  17.137   3.163
64396W        W28329   7.403  33.884   3.333
64397W        W28330  39.005  22.082  11.009
64398W        W28331   6.404  27.086   2.343
64399W        W28332  32.452   3.460  13.500
64400W        W28333  27.197   3.431   3.326
64401W        W28334  19.693  38.974  10.516
64402W        W28335  17.199  31.080  13.800
64403W        W28336  25.557  35.910  14.330
64404W        W28337  33.123  14.203   1.748
64405W        W28338  34.379   7.264   1.920
64406W        W28339   0.380  39.544   1.741
64407W        W28340  18.608  38.494   0.929
64408W        W28341  28.050   7.315  14.024
64409W        W28342  40.895  22.051   1.747
64410W        W28343   2.230  10.857   1.386
64411W        W28344  21.215   5.817  14.870
64412W        W28345  30.126   8.655   1.347
64413W        W28346   4.783  24.525  12.989
64414W        W28347  22.104  10.383   4.644
64415W        W28348  40.433   0.466  10.584
64416W        W28349   4.347  32.458  12.034
64417W        W28350  30.581  33.450   0.398
64418W        W28351  31.089  20.593   0.374
64419W        W28352  17.660   1.274   4.623
64420W        W28353  18.072   4.941  14.337
64421W        W28354  22.564  14.260  13.479
64422W        W28355   1.770   1.329   0.360
64423W        W28356  10.218  40.547   1.283
64424W        W28357  38.345   7.265  12.868
64425W        W28358  30.598  41.987   5.147
64426W        W28359   7.178  20.208   0.444
64427W        W28360  26.111   9.824  12.912
64428W        W28361   1.269  22.140   2.674
64429W        W28362  14.151   9.782   5.199
64430W        W28363   9.387  19.603   4.352
64431W        W28364  40.983  38.537  13.037
64432W        W28365   8.784  34.421  10.415
64433W        W28366  15.129   2.916   4.715
64434W        W28367  19.628  28.613   2.720
64435W        W28368   6.693   3.916  12.367
64436W        W28369   7.273  38.049  12.363
64437W        W28370  23.518  11.317   1.379
64438W        W28371  37.908   4.865  14.473
64439W        W28372  39.967  32.083  11.977
64440W        W28373  34.866  11.745   3.342
64441W        W28374   3.461   5.263   3.806
64442W        W28375  33.098  13.683   4.746
64443W        W28376  29.521  15.277   4.777
64444W        W28377  40.953  18.708   3.660
64445W        W28378  28.006  12.264  13.353
64446W        W28379  41.993   4.389  14.977
64447W        W28380  21.205   8.868  12.568
64448W        W28381  31.989  28.470  11.448
64449W        W28382  43.882   4.211  11.036
64450W        W28383   0.752  13.246   1.239
64451W        W28384  14.834  21.240   1.891
64452W        W28385   7.278  33.886   1.812
64453W        W28386  39.017   4.904   1.316
64454W        W28387  27.967  35.446   9.999
64455W        W28388  16.183  14.134   0.907
64456W        W28389  37.337  43.922   4.324
64457W        W28390   5.295  20.110  13.325
64458W        W28391  16.133  27.669  12.493
64459W        W28392  25.702  19.667   1.914
64460W        W28393   1.327  19.238  12.958
64461W        W28394  34.907  12.793  13.384
64462W        W28395  41.815  25.130  10.592
64463W        W28396  30.944  12.656  10.541
64464W        W28397   5.354  43.516   3.240
64465W        W28398   0.972  26.535   1.389
64466W        W28399  42.954  17.104  14.812
64467W        W28400  13.171  14.786  14.780
64468W        W28401  35.866   0.491  13.450
64469W        W28402  35.389  27.034   2.700
64470W        W28403  23.492  21.627  11.080
64471W        W28404  17.683  32.059   1.214
64472W        W28405  27.022   2.813  14.474
64473W        W28406  43.489  39.014  10.627
64474W        W28407   2.761   0.320   2.346
64475W        W28408   1.446   1.366   1.224
64476W        W28409   9.264  36.460  10.503
64477W        W28410  16.761  41.873   5.782
64478W        W28411  21.515  35.506  11.928
64479W        W28412   9.842  23.230  13.343
64480W        W28413  42.297  35.868   5.320
64481W        W28414  34.045   3.789   1.897
64482W        W28415  28.635   1.873   4.718
64483W        W28416  34.901   5.722  11.932
64484W        W28417  12.294   9.800   4.724
64485W        W28418  42.028   1.317   0.297
64486W        W28419  26.514  15.215  10.494
64487W        W28420  13.786  11.263   1.352
64488W        W28421   4.414  27.940  12.853
64489W        W28422  17.209   2.306   2.364
64490W        W28423  21.037  23.628   0.874
64491W        W28424  25.990   1.343  12.401
64492W        W28425  22.633  39.867   1.229
64493W        W28426  14.259   8.265  13.505
64494W        W28427  15.764  11.144   9.963
64495W        W28428  42.854   8.177  12.091
64496W        W28429  14.245   3.829  11.022
64497W        W28430   8.831  43.326   3.780
64498W        W28431  21.088  12.176  11.113
64499W        W28432  44.923  43.957  13.475
64500W        W28433  38.332   2.933   0.936
64501W        W28434  17.081  31.485  14.309
64502W        W28435   0.758  25.010   5.317
64503W        W28436   2.906  14.827  14.900
64504W        W28437   8.326  21.521  14.275
64505W        W28438  40.491  17.720  10.433
64506W        W28439  37.364  32.591  11.023
64507W        W28440  14.194  27.556   1.364
64508W        W28441  32.572  11.682   2.797
64509W        W28442  16.805   7.782  14.959
64510W        W28443  40.310  42.359   3.865
64511W        W28444  29.500  13.727   3.724
64512W        W28445  12.796  33.997   1.238
64513W        W28446   1.305  11.268  11.569
64514W        W28447   7.331  28.136   4.157
64515W        W28448   1.738   8.288  14.367
64516W        W28449  29.959  18.687  10.501
64517W        W28450  30.106  42.378  11.503
64518W        W28451   5.810  25.608  10.017
64519W        W28452  29.455  26.049  12.903
64520W        W28453  13.347  41.017   2.853
64521W        W28454  40.521  43.513   0.445
64522W        W28455  28.639  39.941  10.451
64523W        W28456  12.158  34.525  11.509
64524W        W28457  11.781  41.369  14.032
64525W        W28458  28.618   0.355  12.540
64526W        W28459  17.200  31.023  11.545
64527W        W28460  11.345  41.806  13.804
64528W        W28461   0.805  36.965   3.767
64529W        W28462  17.607  17.296   0.257
64530W        W28463  22.249   7.831   4.706
64531W        W28464  24.662  43.900   4.721
64532W        W28465  42.294  19.660  13.873
64533W        W28466  43.970  35.898   0.318
64534W        W28467  21.250   2.844   2.743
64535W        W28468  26.071  19.107   3.752
64536W        W28469  27.177  35.939   0.478
64537W        W28470   6.185  32.398   3.717
64538W        W28471  38.362  43.403   1.440
64539W        W28472  21.612  19.283   2.752
64540W        W28473   8.181  40.965  14.801
64541W        W28474  37.553  35.103   1.765
64542W        W28475  36.424  11.825  13.817
64543W        W28476   8.223  38.487   2.720
64544W        W28477  43.416  29.445  11.940
64545W        W28478  41.892  34.470   2.781
64546W        W28479  32.888  41.368   2.779
64547W        W28480  42.489  37.517   2.364
64548W        W28481  38.049  12.763  13.941
64549W        W28482  15.163  23.044  10.540
64550W        W28483  37.035  33.515  13.504
64551W        W28484  14.668   0.375   4.136
64552W        W28485   0.297  37.429   3.830
64553W        W28486  38.042   9.686  13.388
64554W        W28487  41.023   0.445  14.320
64555W        W28488   9.372   1.339   1.788
64556W        W28489   2.442  26.560   3.286
64557W        W28490  43.489  40.850  11.386
64558W        W28491  32.547   2.328  11.540
64559W        W28492  15.683   9.699   3.217
64560W        W28493  29.664   7.708   2.681
64561W        W28494  21.752   7.283   3.830
64562W        W28495  22.593  16.596   0.960
64563W        W28496  36.983   4.820  13.958
64564W        W28497   3.721   6.298   9.954
64565W        W28498  43.880  43.012  14.506
64566W        W28499  29.087  16.613   1.242
64567W        W28500  31.478  27.453  11.898
64568W        W28501  32.083   9.236   4.818
64569W        W28502  26.686   2.953   0.475
64570W        W28503  28.047  20.119   4.222
64571W        W28504  32.634   2.456   1.375
64572W        W28505  44.409  31.008  13.999
64573W        W28506  23.239  13.115  10.578
64574W        W28507  20.255   1.387   2.704
64575W        W28508  35.424  19.045  13.876
64576W        W28509  18.149  34.962   0.267
64577W        W28510   1.769  42.466   2.313
64578W        W28511  26.009  12.297   3.789
64579W        W28512  36.527   2.433  12.558
64580W        W28513  25.115  40.052  13.040
64581W        W28514  28.968  17.562  14.924
64582W        W28515   9.835  27.058   2.368
64583W        W28516  18.688  27.133   2.691
64584W        W28517  30.115  17.237   0.437
64585W        W28518  23.016  37.359  14.453
64586W        W28519  40.470   5.437  11.410
64587W        W28520  20.094  20.627   0.310
64588W        W28521  19.768   2.736   4.698
64589W        W28522  31.027  23.492  12.905
64590W        W28523  30.565   3.729  12.988
64591W        W28524  37.006   3.953  12.920
64592W        W28525  42.460  23.730  13.398
64593W        W28526  11.257   5.692   2.666
64594W        W28527  30.443  40.015   3.153
64595W        W28528  33.892  34.104  10.923
64596W        W28529  10.852  24.164   1.322
64597W        W28530   5.424  10.307   3.185
64598W        W28531  11.253  35.872  13.541
64599W        W28532   8.681   1.825  13.916
64600W        W28533  21.666  12.712   1.922
64601W        W28534  33.989  43.364  13.795
64602W        W28535  40.358   8.267  11.466
64603W        W28536   0.305  24.630  12.927
64604W        W28537  35.513  35.004  12.561
64605W        W28538   7.374  37.910   4.239
64606W        W28539  31.931  43.325  12.003
64607W        W28540  29.085  16.771  14.776
64608W        W28541  26.027  21.680   3.202
64609W        W28542  10.873  19.763  12.501
64610W        W28543   3.932  39.015   3.333
64611W        W28544   3.359  28.471   1.270
64612W        W28545  11.336  38.453   3.725
64613W        W28546  42.452  41.978  12.445
64614W        W28547  27.128  44.490  13.874
64615W        W28548  37.388  42.409  11.501
64616W        W28549   0.263   6.878   0.913
64617W        W28550  20.762   8.679  10.011
64618W        W28551  16.095   3.391   0.835
64619W        W28552   7.315   0.366   4.190
64620W        W28553  16.201  32.977  11.019
64621W        W28554  18.291  23.234   0.884
64622W        W28555  12.677  18.683   3.347
64623W        W28556  11.837  39.923   2.871
64624W        W28557  28.586  19.671  10.933
64625W        W28558   3.345  43.458   1.820
64626W        W28559  44.489  22.096  13.476
64627W        W28560  21.110   2.950  11.565
64628W        W28561  19.537   6.823   1.264
64629W        W28562  28.601  20.600  13.371
64630W        W28563  37.006  15.261  14.285
64631W        W28564  41.484  37.038  14.826
64632W        W28565  26.478  39.871   4.645
64633W        W28566  30.971  36.931   3.665
64634W        W28567   0.750  43.502  13.914
64635W        W28568  41.934  29.462   1.928
64636W        W28569  39.989  37.422  11.907
64637W        W28570   3.230  17.747  14.993
64638W        W28571  21.046   7.843   2.211
64639W        W28572  35.883  20.527  13.366
64640W        W28573   7.808  44.434  10.119
64641W        W28574   5.216  24.018   0.945
64642W        W28575   3.940  38.571   0.870
64643W        W28576  15.657  41.007   3.740
64644W        W28577  17.563  17.171   3.804
64645W        W28578  33.500  43.467   1.444
64646W        W28579  43.496  16.722  10.429
64647W        W28580  32.963  36.076   0.773
64648W        W28581  30.604  21.160   1.769
64649W        W28582  26.015  34.971  12.354
64650W        W28583  13.737  35.600  14.440
64651W        W28584  34.076  19.598  10.960
64652W        W28585  31.949  26.596   5.223
64653W        W28586  33.560  20.710  12.478
64654W        W28587   0.933  15.680   2.322
64655W        W28588  13.275  26.071   4.668
64656W        W28589   1.926  15.622   3.297
64657W        W28590   3.344  38.834   3.836
64658W        W28591  12.254  38.505  12.541
64659W        W28592   4.833  12.775  10.032
64660W        W28593  38.960   9.791   2.272
64661W        W28594  29.464   3.925   1.363
64662W        W28595  15.589  41.491   4.751
64663W        W28596  40.413  18.593  13.929
64664W        W28597   2.816  12.791   4.801
64665W        W28598  35.045  25.709  11.423
64666W        W28599  35.062  38.826   0.826
64667W        W28600  21.127  44.819   2.193
64668W        W28601  33.055  22.661  10.910
64669W        W28602   2.453  15.142   2.312
64670W        W28603  13.145   8.368  12.541
64671W        W28604   8.713  33.061   4.797
64672W        W28605  32.966  37.362  10.152
64673W        W28606  13.750  16.792  10.912
64674W        W28607  42.395   7.859   4.122
64675W        W28608  11.755  30.916   4.302
64676W        W28609   2.843  41.412   0.854
64677W        W28610  37.942  42.016  12.891
64678W        W28611  29.469  44.897   4.118
64679W        W28612   2.850  19.769  14.837
64680W        W28613  31.949  21.626  11.521
64681W        W28614  11.657   3.790   2.373
64682W        W28615  36.476  16.201  13.507
64683W        W28616  18.604  23.723   1.810
64684W        W28617  41.891  31.106  13.807
64685W        W28618  20.571  44.453   0.371
64686W        W28619  39.385  35.465   1.379
64687W        W28620  19.744  24.067  11.986
64688W        W28621   7.894   6.266  12.421
64689W        W28622  22.702  33.489  14.442
64690W        W28623  29.995  21.049  12.979
64691W        W28624  30.079  34.537  13.519
64692W        W28625  10.351  25.608   2.254
64693W        W28626  38.825   5.735   0.871
64694W        W28627  21.223  12.361  14.865
64695W        W28628   8.818  35.088  14.401
64696W        W28629  40.998  25.512  13.978
64697W        W28630  37.454  40.410   2.862
64698W        W28631  14.252   7.784   1.290
64699W        W28632  19.151  27.606   4.314
64700W        W28633  28.098  40.478   4.625
64701W        W28634  25.573  34.911   4.152
64702W        W28635  29.121  25.119  12.442
64703W        W28636   2.724  18.647  13.405
64704W        W28637   8.325  25.970  14.793
64705W        W28638  44.308   6.356  13.006
64706W        W28639  28.068   9.304   0.901
64707W        W28640  24.636  28.987  10.983
64708W        W28641  34.021  11.368   0.942
64709W        W28642  41.410  22.590  12.840
64710W        W28643   6.184   9.388  12.879
64711W        W28644   2.276  11.154   1.245
64712W        W28645  38.560  23.194  13.508
64713W        W28646  14.324  39.993  12.491
64714W        W28647  32.932  29.071   4.126
64715W        W28648  34.897  19.550  10.094
64716W        W28649   8.745   8.730  12.079
64717W        W28650  24.141  22.604  10.638
64718W        W28651  39.050  44.464  11.101
64719W        W28652  15.097  40.497  12.016
64720W        W28653   1.918  25.517   4.732
64721W        W28654  32.417  16.636   1.447
64722W        W28655  28.445  30.637  13.792
64723W        W28656   0.386  41.371   4.745
64724W        W28657   1.304  33.929  13.923
64725W        W28658   5.816   1.275  12.964
64726W        W28659  22.714   3.812  13.955
64727W        W28660  38.006  29.160   4.837
64728W        W28661  16.622  34.008   4.760
64729W        W28662  20.612  42.961   0.437
64730W        W28663  27.628  10.662   1.433
64731W        W28664   8.250  29.981   4.802
64732W        W28665   8.678   5.715   4.811
64733W        W28666  21.235  20.733   3.714
64734W        W28667  10.752  23.506   2.882
64735W        W28668  40.467  31.495   3.682
64736W        W28669  12.659   9.349  10.568
64737W        W28670  22.221  26.594   4.212
64738W        W28671  14.168   2.832   0.257
64739W        W28672  35.077  15.260   2.362
64740W        W28673  24.693  17.707  14.449
64741W        W28674  15.605  12.130   4.746
64742W        W28675  30.091  29.669   3.827
64743W        W28676   9.185   0.353  12.542
64744W        W28677   3.220  40.497  11.435
64745W        W28678  14.184   2.738  11.485
64746W        W28679  14.665  39.972  11.423
64747W        W28680  36.020   4.852  11.403
64748W        W28681  16.660  12.119  10.450
64749W        W28682   9.283  42.433   0.291
64750W        W28683  29.984  37.561   0.461
64751W        W28684   1.308  22.139  11.380
64752W        W28685  18.700  36.473  14.316
64753W        W28686   4.377  11.251  13.421
64754W        W28687  25.162  16.222  14.793
64755W        W28688   3.457   3.374  10.917
64756W        W28689  30.445  33.901   0.387
64757W        W28690  29.482  19.246  11.869
64758W        W28691  19.603  10.270  10.637
64759W        W28692  25.573  14.265   5.095
64760W        W28693  19.110  37.084  14.410
64761W        W28694  15.608  28.129  14.472
64762W        W28695  31.127  13.222   2.897
64763W        W28696  24.569   5.914  13.050
64764W        W28697  14.195  40.522  13.004
64765W        W28698  43.495  13.807  11.406
64766W        W28699  28.569  29.608  14.789
64767W        W28700  34.102   9.247  13.049
64768W        W28701   1.279  13.720   2.289
64769W        W28702  23.733   7.798  12.480
64770W        W28703   0.942  37.463   2.881
64771W        W28704  29.613  39.041   2.415
64772W        W28705  41.323   6.753  12.884
64773W        W28706  13.822  27.589  12.497
64774W        W28707   6.389   5.807  10.529
64775W        W28708  44.478  24.057   4.270
64776W        W28709  14.733  44.911   3.255
64777W        W28710  22.064  17.703  10.570
64778W        W28711  11.750  23.165   3.190
64779W        W28712  12.688  33.458  13.893
64780W        W28713   9.759   6.362  14.410
64781W        W28714  13.159  38.914  13.405
64782W        W28715  21.078   0.297   5.250
64783W        W28716  26.017  38.478   3.811
64784W        W28717  24.057  14.229  10.149
64785W        W28718  32.031   1.251   2.405
64786W        W28719   2.886  27.552  12.342
64787W        W28720  31.125  10.239   4.140
64788W        W28721  34.951  34.928   5.270
64789W        W28722   7.758  17.584  12.438
64790W        W28723  40.015  35.972   9.987
64791W        W28724  44.922  34.478   0.835
64792W        W28725  36.432  23.201   0.351
64793W        W28726  28.665   6.351  10.516
64794W        W28727  30.093   1.315   3.214
64795W        W28728  29.461  28.659   3.266
64796W        W28729   1.853  40.443  11.377
64797W        W28730   6.280  42.895   5.210
64798W        W28731  18.564  40.995   9.643
64799W        W28732  22.996  29.639  13.383
64800W        W28733  23.195  13.110  11.956
64801W        W28734  17.656  44.360  12.865
64802W        W28735  41.001  42.833  13.489
64803W        W28736  27.473  44.789  11.372
64804W        W28737  18.149  44.371   4.156
64805W        W28738   2.277  21.725  11.397
64806W        W28739  11.143  13.326  11.595
64807W        W28740   0.987  38.341   4.690
64808W        W28741  26.179  39.874  11.501
64809W        W28742   6.328   7.846   4.716
64810W        W28743  34.057   1.416   4.298
64811W        W28744  17.223  13.819  14.391
64812W        W28745  20.123  22.662  10.528
64813W        W28746  44.492  10.198   1.213
64814W        W28747  31.520  23.511  12.094
64815W        W28748  42.785  13.127   4.712
64816W        W28749  38.922  43.433  10.622
64817W        W28750   4.874  26.623  13.880
64818W        W28751  14.207  12.709  10.973
64819W        W28752  40.006  35.408  12.351
64820W        W28753   9.272   4.930   2.810
64821W        W28754  32.088  34.882   2.772
64822W        W28755  28.666  23.713   3.223
64823W        W28756  44.478  13.162   2.824
64824W        W28757  39.332  33.601  10.588
64825W        W28758  40.950  41.377   3.195
64826W        W28759   9.249  15.736  10.934
64827W        W28760  13.155  41.406  13.044
64828W        W28761  22.049  31.995   0.259
64829W        W28762   8.743  39.526  13.946
64830W        W28763  17.208  19.077  13.527
64831W        W28764   5.713   6.292  10.908
64832W        W28765   6.707  28.173  10.937
64833W        W28766  32.945   9.663  11.904
64834W        W28767  24.579   3.413   4.192
64835W        W28768   0.338  30.512   1.238
64836W        W28769   0.927  18.097  13.985
64837W        W28770  28.514   2.251   0.848
64838W        W28771  22.698  28.139  10.996
64839W        W28772  27.117   3.268   0.340
64840W        W28773  19.655  20.158   4.301
64841W        W28774   3.761  38.474   1.804
64842W        W28775   6.406  11.826   4.763
64843W        W28776  33.561  41.327  10.102
64844W        W28777  20.055  14.150   3.817
64845W        W28778   5.325   6.701  11.009
64846W        W28779  38.843  21.238   1.809
64847W        W28780  30.535  42.029  12.953
64848W        W28781  40.507  29.544  13.485
64849W        W28782  29.445  19.625   2.668
64850W        W28783   7.735  10.720   2.206
64851W        W28784   7.701  33.911  12.053
64852W        W28785  35.031   1.757  12.831
64853W        W28786  35.858  40.457   2.271
64854W        W28787  31.960  15.269  12.897
64855W        W28788  12.231  18.072   2.360
64856W        W28789  31.919  25.676  11.958
64857W        W28790   7.796  24.572  13.348
64858W        W28791   8.243  32.964  12.886
64859W        W28792  23.550  10.811   0.266
64860W        W28793  21.523  43.842   2.404
64861W        W28794  31.569  38.957  13.882
64862W        W28795  19.647   1.860   0.964
64863W        W28796  11.353  19.159  13.407
64864W        W28797   1.394  36.452  10.508
64865W        W28798  21.082  31.524   1.894
64866W        W28799  39.933  43.477   4.320
64867W        W28800  43.887  42.310  14.458
64868W        W28801  14.319  28.988   4.702
64869W        W28802   1.474   1.435   4.147
64870W        W28803  29.459  31.979   0.280
64871W        W28804  12.263  19.193   3.340
64872W        W28805  11.206   0.808  10.534
64873W        W28806  38.953  14.597  14.786
64874W        W28807  14.148   2.279   3.802
64875W        W28808  20.550  38.373   4.138
64876W        W28809  19.704  44.266   1.365
64877W        W28810  14.681  12.821   4.200
64878W        W28811  36.359  32.111   0.385
64879W        W28812   7.783  16.807  14.758
64880W        W28813  43.914  10.665   3.208
64881W        W28814  44.905  28.610  11.475
64882W        W28815   1.309  21.591  12.446
64883W        W28816  43.914  13.797   2.301
64884W        W28817  41.305  35.442   3.318
64885W        W28818  26.627   6.274  12.437
64886W        W28819  35.404  42.836  13.420
64887W        W28820  21.113  29.538  12.560
64888W        W28821   4.337  28.611   3.739
64889W        W28822  36.042  21.558   2.407
64890W        W28823  19.057  16.095   2.841
64891W        W28824  15.738  28.531  14.481
64892W        W28825  21.735  18.614  10.898
64893W        W28826   7.690  15.162  13.439
64894W        W28827  20.721   5.289  12.096
64895W        W28828  24.192  14.221   0.881
64896W        W28829  11.254  13.833   0.911
64897W        W28830   5.832   7.815   4.672
64898W        W28831  31.581  35.987   1.814
64899W        W28832   9.736  40.872   0.279
64900W        W28833   7.212  16.236  10.563
64901W        W28834  31.550  20.683   4.140
64902W        W28835  37.503  35.019   3.691
64903W        W28836  28.473  21.251  14.779
64904W        W28837  26.032  27.587  12.420
64905W        W28838   3.923  18.675  14.302
64906W        W28839  30.153  39.886   1.822
64907W        W28840  31.427   8.207  11.017
64908W        W28841  15.231  40.799  10.463
64909W        W28842  36.875  40.352   2.780
64910W        W28843  29.589  24.977  14.969
64911W        W28844  19.551   7.798   3.754
64912W        W28845   8.349  33.428   1.314
64913W        W28846  38.858  39.413   2.241
64914W        W28847  11.340  20.654  10.531
64915W        W28848  35.524  36.415   0.922
64916W        W28849   4.356   7.271   3.293
64917W        W28850  19.645  23.137  13.445
64918W        W28851  38.384  18.779   0.414
64919W        W28852  35.530  24.706   2.242
64920W        W28853  12.176  28.935   4.330
64921W        W28854   6.761   8.305  14.953
64922W        W28855  23.989   8.384  10.089
64923W        W28856  23.647   1.418   1.700
64924W        W28857  32.574  10.699   1.908
64925W        W28858  41.845  39.903  14.327
64926W        W28859  41.466   2.292  13.512
64927W        W28860  32.943  14.716   3.233
64928W        W28861   6.780  44.274  14.478
64929W        W28862  35.413  18.100   3.344
64930W        W28863  20.111  44.842  14.500
64931W        W28864   3.918  14.165   1.342
64932W        W28865  10.771  18.651  11.525
64933W        W28866  23.666   8.891   2.183
64934W        W28867  30.615  34.541   2.689
64935W        W28868  11.626  36.897   4.330
64936W        W28869  11.720  25.151  13.547
64937W        W28870  19.086  20.272   4.747
64938W        W28871  38.023   7.239   1.873
64939W        W28872  31.030  38.551   3.185
64940W        W28873  21.197  23.201   3.838
64941W        W28874  20.687  44.923   2.416
64942W        W28875  16.270  44.793  12.931
64943W        W28876  11.295   2.344  11.442
64944W        W28877  43.447  30.526   3.766
64945W        W28878  15.807  38.550  11.909
64946W        W28879   4.902  31.953   2.308
64947W        W28880  37.896  20.096  11.113
64948W        W28881   9.773  15.804  14.762
64949W        W28882  35.473  14.288  14.792
64950W        W28883  40.417  13.299   4.657
64951W        W28884  13.733  28.565  11.398
64952W        W28885  29.020  42.888  11.873
64953W        W28886  39.437   8.347   2.265
64954W        W28887  20.740  33.599   4.151
64955W        W28888  36.561  42.417  11.121
64956W        W28889   8.818  11.238   3.361
64957W        W28890  34.597   9.323  12.860
64958W        W28891  27.956  16.168   1.900
64959W        W28892  33.021  26.474  10.123
64960W        W28893   5.916  27.613  11.378
64961W        W28894  13.675  33.961   4.266
64962W        W28895  21.570  23.530   2.242
64963W        W28896  34.519  16.221  14.511
64964W        W28897  20.730  33.888  12.342
64965W        W28898  37.537  24.536  14.990
64966W        W28899  42.834  34.419   2.185
64967W        W28900  43.965  27.031  12.067
64968W        W28901  38.948  35.466   1.745
64969W        W28902  41.346  40.968   3.792
64970W        W28903  14.260  29.578   1.816
64971W        W28904  33.438  19.538  11.018
64972W        W28905  19.651  14.122   2.300
64973W        W28906  32.579  26.655  13.313
64974W        W28907  24.029  34.954  10.053
64975W        W28908  39.939  25.683  14.471
64976W        W28909  39.508  16.154  10.540
64977W        W28910  11.680   7.744   0.888
64978W        W28911  42.954  25.969  10.474
64979W        W28912   4.328  32.080  12.076
64980W        W28913   2.929   3.392  11.865
64981W        W28914  23.169  16.760   2.846
64982W        W28915  30.991  28.473  13.864
64983W        W28916  25.686  22.690   1.778
64984W        W28917  12.749  13.642  11.866
64985W        W28918   5.270  10.714  14.457
64986W        W28919  11.730  33.557   4.158
64987W        W28920   1.772  27.058   2.682
64988W        W28921  28.949  28.100  14.390
64989W        W28922  24.167  17.120   1.780
64990W        W28923  28.652  13.174   3.154
64991W        W28924  27.448  19.175   3.199
64992W        W28925  13.113  19.778   4.726
64993W        W28926   5.377  14.777   1.789
64994W        W28927  13.757  37.059  10.446
64995W        W28928  27.559  32.040   0.846
64996W        W28929  17.663  16.303   9.954
64997W        W28930  23.124  42.792   1.721
64998W        W28931  32.558  41.798   0.833
64999W        W28932  26.655  10.168  14.449
65000W        W28933  21.101  31.995   4.130
65001W        W28934  12.739   9.191   0.455
65002W        W28935  43.495  23.986   2.716
65003W        W28936  16.305  18.566   2.362
65004W        W28937  23.520   3.769  11.019
65005W        W28938  11.139   3.711  12.527
65006W        W28939  24.684   8.812  13.547
65007W        W28940  34.039   3.878  13.902
65008W        W28941  28.126  26.629   4.328
65009W        W28942  41.397  26.541  11.887
65010W        W28943   8.238  43.306  14.324
65011W        W28944  11.633  21.020   3.785
65012W        W28945  24.482  18.210   4.833
65013W        W28946   7.380  21.548   3.331
65014W        W28947  28.992  23.512  11.482
65015W        W28948   1.428  13.749   0.405
65016W        W28949  40.325  32.489   1.823
65017W        W28950  42.425  35.547   2.759
65018W        W28951  35.004  43.386   1.357
65019W        W28952  44.472   5.911   1.747
65020W        W28953  24.724  11.320   3.250
65021W        W28954  39.998   2.453   0.264
65022W        W28955  27.018   3.807   4.658
65023W        W28956   4.751  12.839   0.271
65024W        W28957  25.008  17.723   0.820
65025W        W28958  15.637  24.582  12.872
65026W        W28959  27.540  34.588   0.358
65027W        W28960   3.402   6.330   0.269
65028W        W28961  21.601  22.735  13.422
65029W        W28962  10.273  24.122   0.895
65030W        W28963  31.516   0.785   4.709
65031W        W28964   2.920   1.455   2.418
65032W        W28965  37.436  18.156   4.158
65033W        W28966  37.849   4.404   4.253
65034W        W28967   8.371  28.503   0.419
65035W        W28968  40.922  29.511   0.864
65036W        W28969  26.599  41.865  13.029
65037W        W28970   8.354  23.105   1.869
65038W        W28971  11.162  22.038  11.518
65039W        W28972  24.705  40.485   3.274
65040W        W28973  27.020   1.310   2.679
65041W        W28974  44.927  38.343  10.159
65042W        W28975  35.965  13.258  12.485
65043W        W28976  18.252  29.582   4.683
65044W        W28977  17.253   1.843  13.907
65045W        W28978  13.623  40.399  10.546
65046W        W28979  22.039  37.384  13.309
65047W        W28980  37.382  37.974   4.122
65048W        W28981  33.970  41.296   1.926
65049W        W28982  23.508   8.400  13.456
65050W        W28983  11.780   8.230  12.041
65051W        W28984  39.046  20.245   3.863
65052W        W28985  23.730   1.471   0.862
65053W        W28986  37.860  36.011  13.041
65054W        W28987  15.731   3.373   2.322
65055W        W28988   4.906  26.008   1.771
65056W        W28989  23.170  24.141  14.435
65057W        W28990  19.260  31.613   4.666
65058W        W28991  30.639  34.929   2.284
65059W        W28992  42.846   6.793   0.317
65060W        W28993  33.987  21.062   4.620
65061W        W28994  41.984   6.244  10.947
65062W        W28995  36.490  32.978  11.414
65063W        W28996  31.579   9.331   4.603
65064W        W28997   1.268   7.380   2.404
65065W        W28998  40.913   1.752  12.579
65066W        W28999  20.273  23.680  14.415
65067W        W29000  15.710   0.480  13.542
65068W        W29001   6.803  20.183  13.905
65069W        W29002  35.501  23.493  13.485
65070W        W29003  28.103  36.513  13.943
65071W        W29004  26.969  32.928  12.370
65072W        W29005  29.445  42.494   1.775
65073W        W29006  32.418  23.537  13.323
65074W        W29007  33.925   2.846   3.330
65075W        W29008  40.975  44.419  14.884
65076W        W29009  15.813  17.123  12.869
65077W        W29010  40.923   5.404   1.840
65078W        W29011  13.705  16.191  14.469
65079W        W29012  43.795   7.742   4.125
65080W        W29013  34.088  10.774   1.390
65081W        W29014  32.047  34.610  13.912
65082W        W29015  34.507  20.122   2.338
65083W        W29016   2.798  23.184  13.488
65084W        W29017  32.022  21.671   0.408
65085W        W29018   5.297  10.185  12.462
65086W        W29019  14.323  12.171   2.366
65087W        W29020   4.857  12.658  11.018
65088W        W29021  43.433  14.277  11.022
65089W        W29022   4.733  40.528  12.993
65090W        W29023  36.543   2.813   0.319
65091W        W29024   4.809  11.159  10.629
65092W        W29025  18.050   0.471  12.075
65093W        W29026  35.862  44.007   2.409
65094W        W29027   1.242  37.880   4.653
65095W        W29028  42.934  19.278   1.442
65096W        W29029  10.249   7.736   4.308
65097W        W29030  27.171  14.729   1.226
65098W        W29031  38.027  12.167  14.908
65099W        W29032  44.956  35.095  12.535
65100W        W29033  19.536  25.545  10.052
65101W        W29034  21.639  33.970  11.903
65102W        W29035  16.295  37.354  14.488
65103W        W29036   8.718  26.057   3.851
65104W        W29037  24.107   7.910   1.213
65105W        W29038  28.122  15.789  14.844
65106W        W29039  30.978  23.139   4.277
65107W        W29040  17.163  32.136   0.363
65108W        W29041  44.458  13.613  13.315
65109W        W29042  26.508   9.213   2.668
65110W        W29043  26.152   7.203  14.005
65111W        W29044  13.277  14.142   5.273
65112W        W29045   5.919  25.201   4.146
65113W        W29046   8.853   0.259  13.976
65114W        W29047  44.487  35.495   4.603
65115W        W29048  25.093  39.433   3.631
65116W        W29049  29.632  23.094  12.446
65117W        W29050  41.792  30.583   2.718
65118W        W29051  13.820  17.633   0.425
65119W        W29052  25.022  27.455  10.427
65120W        W29053  32.405  29.474  11.897
65121W        W29054  28.113  20.066   0.442
65122W        W29055  30.545  29.482  11.106
65123W        W29056  29.490   1.267  12.023
65124W        W29057  20.704  10.741   3.841
65125W        W29058  42.798  42.964  13.404
65126W        W29059  42.356   6.786  13.433
65127W        W29060  39.418   3.938   4.314
65128W        W29061  36.568  15.315  14.454
65129W        W29062  38.339   7.885  13.941
65130W        W29063  39.058  13.349  10.580
65131W        W29064   5.195  35.097  13.319
65132W        W29065  33.897  35.958   3.212
65133W        W29066  38.367  19.762  14.921
65134W        W29067   6.902  20.177  12.064
65135W        W29068  22.640  27.024  14.819
65136W        W29069  19.051  36.857  11.459
65137W        W29070  10.174  20.268   4.674
65138W        W29071   6.236   1.762  14.766
65139W        W29072  40.428  44.458   0.892
65140W        W29073  16.748   4.309   9.672
65141W        W29074  39.426  12.776   1.266
65142W        W29075   5.257  35.898   3.797
65143W        W29076  11.267  12.821  10.948
65144W        W29077  20.654   5.873   2.682
65145W        W29078  18.050  38.349   1.306
65146W        W29079  19.209  19.584  11.388
65147W        W29080   7.821  21.044  13.995
65148W        W29081   9.189  36.963  13.353
65149W        W29082  39.388   1.410   1.793
65150W        W29083  24.582   7.739   3.315
65151W        W29084  28.644   0.807   3.352
65152W        W29085   9.263  26.701  10.017
65153W        W29086   8.204  21.075   2.783
65154W        W29087  21.565  17.622  11.872
65155W        W29088   9.679  41.476  12.922
65156W        W29089  20.701  17.197   1.292
65157W        W29090  34.450  27.035   1.300
65158W        W29091  24.498  25.021   1.704
65159W        W29092  24.119  28.144  14.909
65160W        W29093   3.779  17.764   3.736
65161W        W29094  31.055  30.015   0.952
65162W        W29095  15.234   7.339   5.223
65163W        W29096  37.996   6.296  12.497
65164W        W29097  18.158  34.551   1.244
65165W        W29098  19.637  39.318  10.038
65166W        W29099  31.539  44.954   4.613
65167W        W29100  11.185   9.260   1.888
65168W        W29101  15.735   3.253   1.773
65169W        W29102   9.180   8.274  13.470
65170W        W29103   7.248  15.667  11.027
65171W        W29104   1.746  33.122  12.340
65172W        W29105  30.420  24.068   4.311
65173W        W29106  21.701  42.478  12.881
65174W        W29107  20.073  34.937   2.761
65175W        W29108   0.918   0.319   4.722
65176W        W29109  31.018  38.566  13.349
65177W        W29110  17.279   2.282   1.714
65178W        W29111  38.912  39.486  13.475
65179W        W29112   0.883  26.487   0.824
65180W        W29113   7.717  33.484   1.308
65181W        W29114  14.195  14.192  11.943
65182W        W29115   9.673  31.632   4.212
65183W        W29116  20.144  15.734   5.125
65184W        W29117   8.379  31.510   1.868
65185W        W29118   2.765  18.791   4.244
65186W        W29119   8.693  22.706   2.738
65187W        W29120  12.738  17.195   2.764
65188W        W29121   0.870  26.097  10.432
65189W        W29122  34.590  40.449  10.563
65190W        W29123  34.963  16.742  11.978
65191W        W29124  23.694  37.535  10.083
65192W        W29125  16.678  27.091  12.989
65193W        W29126  29.432  39.467  12.397
65194W        W29127  41.424  31.418   3.797
65195W        W29128  21.071  32.414   4.604
65196W        W29129  29.147  16.101  14.360
65197W        W29130  36.466  30.122  12.527
65198W        W29131  31.412  15.701  10.938
65199W        W29132  40.839  39.066  13.053
65200W        W29133  41.881  16.770   4.613
65201W        W29134  21.130  27.665   0.728
65202W        W29135  28.592  30.524   2.252
65203W        W29136  12.300  40.318   4.258
65204W        W29137   6.880  25.644   2.260
65205W        W29138  28.467  22.707   1.886
65206W        W29139  29.506   0.809  10.643
65207W        W29140  13.685  11.309  11.586
65208W        W29141   0.978  10.341  11.936
65209W        W29142  23.507   9.663  11.043
65210W        W29143  12.273  31.580  10.481
65211W        W29144  34.056  22.626  13.456
65212W        W29145   1.408  10.665  11.891
65213W        W29146  26.963  27.531  14.828
65214W        W29147  20.545  12.829  14.827
65215W        W29148   9.266  40.470  12.927
65216W        W29149  41.436  13.750  11.098
65217W        W29150  10.280  16.281   3.285
65218W        W29151  33.605  29.172   0.749
65219W        W29152   8.681  33.616   5.090
65220W        W29153  44.866  28.018  12.937
65221W        W29154  32.603  14.692  11.036
65222W        W29155  24.075  42.777   3.660
65223W        W29156  41.510  15.224   2.191
65224W        W29157  38.433   3.316   5.247
65225W        W29158  43.941  11.334  12.536
65226W        W29159  41.320  44.768  11.377
65227W        W29160   9.853   1.904  14.841
65228W        W29161  20.264  20.137  10.939
65229W        W29162  28.021  23.213   3.281
65230W        W29163  40.929  43.355   0.330
65231W        W29164  17.112  17.087   0.255
65232W        W29165  41.963  11.738   0.449
65233W        W29166  19.760  32.141  12.029
65234W        W29167  39.519  43.773   4.643
65235W        W29168   1.830  32.450   2.375
65236W        W29169  37.038  15.750   5.294
65237W        W29170  13.814  23.150  13.360
65238W        W29171  39.883  43.453  10.512
65239W        W29172  25.110   9.271   2.817
65240W        W29173  41.427  37.566  14.817
65241W        W29174  21.679  44.498  11.522
65242W        W29175  18.209   2.326  11.106
65243W        W29176  31.049  37.398  14.291
65244W        W29177  22.033  36.067  12.476
65245W        W29178  35.866  30.908  14.961
65246W        W29179  22.717  24.534   0.885
65247W        W29180   0.784  15.157   2.385
65248W        W29181  25.655  15.299  14.277
65249W        W29182  19.134  18.208   2.229
65250W        W29183   8.715  21.586   0.803
65251W        W29184  30.019  27.635  13.062
65252W        W29185   9.393  32.423   4.659
65253W        W29186   6.288  41.302  11.410
65254W        W29187   8.371  19.265   2.821
65255W        W29188  10.223  13.788  10.425
65256W        W29189  28.962  35.441  10.495
65257W        W29190  18.660   1.911   4.622
65258W        W29191  29.065   2.454  14.453
65259W        W29192  11.265  15.740  14.466
65260W        W29193  13.187  31.061   2.311
65261W        W29194  12.140   0.334  14.765
65262W        W29195  41.464  27.957   0.339
65263W        W29196   0.367   0.335   3.858
65264W        W29197  22.154  21.183  13.890
65265W        W29198   0.824  36.963  13.942
65266W        W29199  10.376  40.847  11.925
65267W        W29200  36.920  16.111   0.408
65268W        W29201  12.301  24.643  12.576
65269W        W29202   5.696  44.982   0.353
65270W        W29203  38.954  41.844   1.407
65271W        W29204   1.884  31.090   0.471
65272W        W29205  12.217  42.878  10.911
65273W        W29206  44.408   2.832   4.210
65274W        W29207  37.886   0.367   1.360
65275W        W29208  21.017   0.399   4.264
65276W        W29209  32.580   6.305  14.858
65277W        W29210  37.998  36.911  11.922
65278W        W29211   8.889  22.098   0.422
65279W        W29212   7.874  10.741  12.954
65280W        W29213   9.232  42.331   3.302
65281W        W29214   4.700  32.451  11.123
65282W        W29215  25.548  42.408   3.228
65283W        W29216  28.061   7.332  10.145
65284W        W29217  15.653  16.689  10.161
65285W        W29218  43.460  35.507  11.473
65286W        W29219  14.784  14.266   4.240
65287W        W29220  26.096  19.680   4.818
65288W        W29221   0.295  17.233  12.340
65289W        W29222   0.358   5.360  13.954
65290W        W29223  43.292  44.267  12.472
65291W        W29224  28.003  42.949  14.304
65292W        W29225  17.656  39.316   1.316
65293W        W29226   7.202  39.043  11.509
65294W        W29227  12.801  43.293   1.695
65295W        W29228  16.227  19.728  10.082
65296W        W29229  25.578  27.625  11.877
65297W        W29230  39.439  15.316  11.525
65298W        W29231   2.727   4.787   4.730
65299W        W29232  39.875  39.440   3.742
65300W        W29233   1.254  44.333   0.751
65301W        W29234  23.032  44.852   1.891
65302W        W29235  29.078   0.459   1.290
65303W        W29236  31.077  14.617   2.714
65304W        W29237  20.129  44.408  12.448
65305W        W29238  30.915  24.141   0.353
65306W        W29239  35.360  31.006   2.683
65307W        W29240  12.736  44.460  13.434
65308W        W29241  35.969  10.227  12.467
65309W        W29242  37.078  15.239  11.075
65310W        W29243  38.916  39.335  12.544
65311W        W29244  22.628  24.518   1.409
65312W        W29245   6.893   5.924   5.675
65313W        W29246  32.542  15.262  14.017
65314W        W29247  39.468   0.813   3.372
65315W        W29248  25.020   4.204   3.229
65316W        W29249  36.890  35.077  10.563
65317W        W29250  18.098  42.942   4.770
65318W        W29251  24.567  22.553  13.397
65319W        W29252  15.139  17.583   2.753
65320W        W29253  19.117   3.449   4.829
65321W        W29254  32.037   6.225  12.543
65322W        W29255  35.034  31.000  12.426
65323W        W29256  13.109  22.007   4.680
65324W        W29257   1.804   4.786  14.976
65325W        W29258  32.024  33.965  14.446
65326W        W29259  15.633  17.307   4.697
65327W        W29260  34.550  12.854   2.745
65328W        W29261  16.265  41.003   2.669
65329W        W29262  41.504  42.989   3.257
65330W        W29263  25.114  26.965  12.063
65331W        W29264  10.640  23.138  13.464
65332W        W29265   7.391   6.202   5.123
65333W        W29266   9.805  29.561  11.016
65334W        W29267   0.291  32.476   0.953
65335W        W29268  39.053  23.120  12.842
65336W        W29269   0.836   1.895   1.340
65337W        W29270  42.519  15.309   1.748
65338W        W29271  29.084  14.618  14.973
65339W        W29272  29.174  24.042  11.900
65340W        W29273   2.853   5.339   3.359
65341W        W29274  35.998   9.191  13.942
65342W        W29275   0.760  33.954  13.414
65343W        W29276  35.081  24.521   0.847
65344W        W29277   7.400   7.692   3.291
65345W        W29278  23.007  44.398  13.442
65346W        W29279  41.397  21.176  10.950
65347W        W29280  40.406  16.634   3.299
65348W        W29281  20.126  18.665   3.246
65349W        W29282  19.089   2.444  13.367
65350W        W29283  16.235  18.068   5.680
65351W        W29284  42.959   2.881   3.793
65352W        W29285  26.953  31.152   0.394
65353W        W29286  13.189  24.092  14.019
65354W        W29287   5.717  22.244   2.406
65355W        W29288  31.605  38.376   1.342
65356W        W29289  12.294  29.550  13.803
65357W        W29290  17.716  24.157  12.357
65358W        W29291  17.101  24.186   3.364
65359W        W29292  19.644   5.387  13.507
65360W        W29293  17.198   4.802   3.712
65361W        W29294  39.833  36.415  11.874
65362W        W29295   1.975  30.946   4.651
65363W        W29296   6.184   4.446  12.864
65364W        W29297   2.967  36.941   2.406
65365W        W29298  26.660  26.525   2.254
65366W        W29299  41.490  20.260  14.947
65367W        W29300   6.419  23.736  13.017
65368W        W29301  10.273  30.591   0.899
65369W        W29302  34.984  31.617  12.093
65370W        W29303   7.828   6.345   2.275
65371W        W29304  33.952  24.057  13.996
65372W        W29305  37.910   3.277   3.385
65373W        W29306  36.013  30.536  13.811
65374W        W29307   0.845  38.962   4.150
65375W        W29308  24.025  40.512   1.239
65376W        W29309  29.033  36.999   4.308
65377W        W29310   5.294  11.363   4.670
65378W        W29311  14.776  26.149   1.272
65379W        W29312  44.930   1.417   0.830
65380W        W29313  22.046  18.259   0.399
65381W        W29314  38.361  14.682   3.636
65382W        W29315  38.402  40.425   1.839
65383W        W29316  10.285   2.340  13.321
65384W        W29317  21.586  21.724  12.029
65385W        W29318   3.445  22.526  12.570
65386W        W29319   5.892  44.785  11.503
65387W        W29320  30.612  36.844  14.447
65388W        W29321   5.216  25.624  11.870
65389W        W29322  36.050   8.327  10.599
65390W        W29323  24.989  17.261  12.985
65391W        W29324  11.228  28.024   2.327
65392W        W29325  24.640   2.933  11.091
65393W        W29326  16.281   4.878  13.032
65394W        W29327   0.838  15.104   3.842
65395W        W29328  38.835   4.217  12.980
65396W        W29329   7.197  25.109   1.864
65397W        W29330  37.073  44.349  11.044
65398W        W29331  28.490  43.422   3.735
65399W        W29332  42.969  35.969  12.352
65400W        W29333  11.761  13.148   0.347
65401W        W29334  12.357  30.626  12.939
65402W        W29335  10.305  25.001  12.524
65403W        W29336  42.407   1.818   0.306
65404W        W29337  41.506  34.437   0.876
65405W        W29338   9.268  42.523  13.316
65406W        W29339  25.991  43.926  12.540
65407W        W29340  10.680  29.600  13.951
65408W        W29341  31.429   0.948  11.036
65409W        W29342  36.535  44.492  11.091
65410W        W29343   4.288  40.375  10.980
65411W        W29344  31.959  11.245  11.571
65412W        W29345  42.511  34.491   5.257
65413W        W29346   8.359  43.009  10.906
65414W        W29347   6.746  15.306   4.317
65415W        W29348  33.898   5.709  14.275
65416W        W29349  32.901  37.052   3.635
65417W        W29350  28.592  35.419  11.519
65418W        W29351  32.414  33.878   0.481
65419W        W29352  41.790  29.526   3.735
65420W        W29353  18.094   8.259   3.652
65421W        W29354  43.878   1.466  13.989
65422W        W29355  11.225   3.299  13.978
65423W        W29356  25.043   6.183   0.906
65424W        W29357  34.996  10.347  13.973
65425W        W29358  32.449   8.330  11.928
65426W        W29359   6.416  36.039   1.725
65427W        W29360  31.515  31.966  10.587
65428W        W29361  26.043  31.986   3.664
65429W        W29362  35.418   1.874   4.769
65430W        W29363  22.529   5.811   1.334
65431W        W29364   8.732  18.294  13.931
65432W        W29365   1.957   9.788   0.776
65433W        W29366   1.457  28.637  11.499
65434W        W29367  28.933  34.461   1.733
65435W        W29368  23.728   1.353  12.373
65436W        W29369   6.876  27.046   2.686
65437W        W29370  37.956  35.479  10.564
65438W        W29371   9.691  30.072  12.458
65439W        W29372  10.679   4.725  10.409
65440W        W29373  21.679  23.113   1.699
65441W        W29374  10.779  10.171  11.436
65442W        W29375  44.263  43.970   3.384
65443W        W29376  19.141   1.358  12.493
65444W        W29377  39.503   9.756   3.703
65445W        W29378  37.921  28.139   1.700
65446W        W29379  21.742  44.924  14.477
65447W        W29380  30.121  38.399  10.613
65448W        W29381   2.919  15.625  13.028
65449W        W29382  25.067  25.638  10.449
65450W        W29383  23.673  29.161  11.381
65451W        W29384  37.940  41.314   5.304
65452W        W29385  36.043  25.007   2.758
65453W        W29386  17.727  23.696  12.091
65454W        W29387  40.508   0.769  14.884
65455W        W29388  40.345   5.196  11.075
65456W        W29389  43.842   2.424  12.568
65457W        W29390   3.753  42.356  12.383
65458W        W29391  15.294  44.312   0.761
65459W        W29392  17.124  38.335   3.727
65460W        W29393  25.204  35.037  13.887
65461W        W29394  23.083   0.301  14.928
65462W        W29395  17.305  43.400   3.211
65463W        W29396  35.985  35.370  13.055
65464W        W29397  36.572  19.723   2.822
65465W        W29398  12.660   3.380   4.325
65466W        W29399  21.129  20.079   3.718
65467W        W29400  23.709  40.914  13.947
65468W        W29401  39.417  17.621   1.395
65469W        W29402  36.524  24.513  13.848
65470W        W29403  27.551  35.998   1.381
65471W        W29404  43.312  12.204   2.824
65472W        W29405   4.348  14.312  14.291
65473W        W29406  24.555  21.034   1.707
65474W        W29407  24.172  44.967  10.418
65475W        W29408  27.120  22.520  13.308
65476W        W29409  35.870  14.628  13.028
65477W        W29410  43.848   9.287   1.788
65478W        W29411  30.475  21.632  13.522
65479W        W29412  44.387  10.803   2.865
65480W        W29413  15.759   7.283  12.052
65481W        W29414  25.149  30.555  13.883
65482W        W29415   2.469   2.879  14.843
65483W        W29416   5.434  34.551   1.358
65484W        W29417   4.262  17.770   4.264
65485W        W29418  21.092   6.340   0.391
65486W        W29419  16.589  44.386  14.897
65487W        W29420   7.669  41.494   2.820
65488W        W29421   7.680   9.655  12.396
65489W        W29422  38.504  40.979  14.783
65490W        W29423  44.393  40.841   3.681
65491W        W29424  24.126   8.683  11.886
65492W        W29425  21.539  23.992   3.337
65493W        W29426  19.209  39.384   4.151
65494W        W29427  15.744   4.905  11.072
65495W        W29428  24.213  17.165  13.060
65496W        W29429  18.578  13.236  12.492
65497W        W29430  14.803  15.161  12.370
65498W        W29431  10.782  25.068  12.837
65499W        W29432   0.335  17.758  14.314
65500W        W29433  11.835  20.174  14.003
65501W        W29434   0.925  31.511   1.434
65502W        W29435  17.629  25.149  14.441
65503W        W29436  24.204  21.199  14.793
65504W        W29437  27.611   8.265   3.239
65505W        W29438  29.053   3.450  10.918
65506W        W29439  12.191  12.717  12.901
65507W        W29440  39.936  21.629  10.969
65508W        W29441  43.291   0.858   3.807
65509W        W29442  21.514  43.308  12.983
65510W        W29443   4.896   6.914  13.979
65511W        W29444  23.116  15.771   3.168
65512W        W29445  13.634   2.297   3.260
65513W        W29446  39.513  37.033   3.807
65514W        W29447  13.348  20.682   0.402
65515W        W29448  12.357  43.468   2.818
65516W        W29449  20.049  33.980  11.567
65517W        W29450  35.914  17.557  14.847
65518W        W29451  23.733  40.352   3.742
65519W        W29452  35.060   2.753   0.733
65520W        W29453  10.656  24.030  11.911
65521W        W29454  44.777   9.743  10.505
65522W        W29455   9.329  34.410   3.729
65523W        W29456  27.107   9.774   4.307
65524W        W29457  24.115   6.695   4.788
65525W        W29458  22.999   7.754   0.448
65526W        W29459   5.862  41.852   1.816
65527W        W29460  31.419  15.580   1.253
65528W        W29461  37.355  44.990   4.754
65529W        W29462   8.895  43.942  12.034
65530W        W29463  22.189  31.898  14.937
65531W        W29464  27.495  22.549   1.252
65532W        W29465  42.377  31.402  14.332
65533W        W29466  29.123   8.835  13.420
65534W        W29467  22.200  12.647   0.397
65535W        W29468   9.216  21.617  11.882
65536W        W29469   1.801  20.144   3.220
65537W        W29470   9.213  43.383  11.559
65538W        W29471   6.423   5.901   4.218
65539W        W29472  28.153   8.770   3.318
65540W        W29473  34.544  31.500  11.927
65541W        W29474  19.648   8.775  12.989
65542W        W29475  11.797  17.104  14.991
65543W        W29476  37.054   3.385  12.501
65544W        W29477   7.382  22.150   2.865
65545W        W29478  20.739  24.096  10.463
65546W        W29479  36.426  42.906   9.937
65547W        W29480  23.539  38.021   2.713
65548W        W29481  12.118  29.157  12.354
65549W        W29482   7.838  37.881  12.990
65550W        W29483   2.394  20.597   0.330
65551W        W29484  11.778  17.697  10.938
65552W        W29485   3.398  32.612   0.924
65553W        W29486  44.445  14.285   2.343
65554W        W29487  12.699  19.749  12.068
65555W        W29488   3.374  31.546  11.062
65556W        W29489  31.008  24.657  11.460
65557W        W29490  10.231   0.924   2.710
65558W        W29491  11.694  10.177   2.722
65559W        W29492  25.107  17.638  14.343
65560W        W29493  11.686  38.895  11.439
65561W        W29494  13.609  25.205   2.679
65562W        W29495  41.880   7.282   2.676
65563W        W29496  10.850  28.575  11.018
65564W        W29497  33.576  35.405  13.819
65565W        W29498   8.662  13.214   3.232
65566W        W29499  20.729   8.375   1.850
65567W        W29500  14.609  10.220   3.255
65568W        W29501  21.741  11.369  12.435
65569W        W29502   3.846  16.092   2.330
65570W        W29503  16.273   9.271  14.475
65571W        W29504   5.857  11.337   0.404
65572W        W29505  31.643   2.796   3.752
65573W        W29506  31.950  41.826   0.840
65574W        W29507   7.901   4.276   0.891
65575W        W29508   6.402  22.128  13.350
65576W        W29509   9.163  29.607   3.870
65577W        W29510  36.545  26.568   1.341
65578W        W29511  19.553  43.960  11.892
65579W        W29512  36.050  28.475   0.855
65580W        W29513  35.106  27.089  14.334
65581W        W29514  39.436  19.744   4.754
65582W        W29515  22.068  28.990  14.016
65583W        W29516  11.370   1.309  14.417
65584W        W29517  44.913  22.028   3.157
65585W        W29518   0.271   9.303  13.370
65586W        W29519  15.643   7.236  14.370
65587W        W29520  19.587  25.691   5.582
65588W        W29521   4.411  16.305   0.730
65589W        W29522  29.536  26.127  11.995
65590W        W29523  28.517  17.732   4.612
65591W        W29524  12.224  16.276   0.477
65592W        W29525  26.509  31.922  12.394
65593W        W29526  37.030  41.962  11.043
65594W        W29527  30.157  21.739  10.405
65595W        W29528  40.808  21.605   3.691
65596W        W29529  21.118   6.415  13.331
65597W        W29530  23.659  14.742   1.753
65598W        W29531  10.244   2.919  12.823
65599W        W29532  27.986  33.128  10.607
65600W        W29533  36.943  15.125  12.011
65601W        W29534  28.441   1.319   2.868
65602W        W29535   1.375  38.438   0.251
65603W        W29536  16.677  44.476   4.778
65604W        W29537   1.827   6.748  12.548
65605W        W29538  40.950  10.187  12.910
65606W        W29539  15.237  37.911  13.486
65607W        W29540  10.246   3.729  12.509
65608W        W29541  12.634  34.951   0.772
65609W        W29542  41.407  22.607  13.432
65610W        W29543  39.418  31.064  14.418
65611W        W29544  33.590  27.639   3.842
65612W        W29545  29.161  41.845  13.466
65613W        W29546  24.063  34.051   3.297
65614W        W29547  39.044  12.324   4.122
65615W        W29548  44.999   5.196  10.513
65616W        W29549  27.561  31.519   2.277
65617W        W29550  28.081  22.104  11.912
65618W        W29551  24.646  39.859   0.868
65619W        W29552  17.719   0.255  12.389
65620W        W29553   7.893  30.452  10.009
65621W        W29554   3.934   6.404  11.087
65622W        W29555   3.776  11.866   9.999
65623W        W29556  43.863  23.534  13.353
65624W        W29557  18.562  41.001   0.288
65625W        W29558  10.166  14.176  13.862
65626W        W29559  43.315  30.597  12.457
65627W        W29560  23.154  30.634   0.259
65628W        W29561  11.765  44.433   4.306
65629W        W29562  41.454  25.561   2.881
65630W        W29563  30.085  26.649  14.773
65631W        W29564  24.134  29.133  11.925
65632W        W29565  42.005   5.905  10.545
65633W        W29566   8.199   2.450   1.430
65634W        W29567  24.124  41.335   0.793
65635W        W29568  43.375  44.330  11.857
65636W        W29569  34.390  26.695   3.699
65637W        W29570  40.386  15.095   2.809
65638W        W29571  20.033   8.255  10.552
65639W        W29572  40.810  17.708  12.056
65640W        W29573  28.472  18.685  12.391
65641W        W29574   7.819   4.422   1.752
65642W        W29575   8.799  29.147   2.796
65643W        W29576   9.219  37.058   4.217
65644W        W29577  10.643  26.619   2.886
65645W        W29578   4.779  27.009  12.960
65646W        W29579  30.580  37.901  14.857
65647W        W29580  38.412   7.819   1.873
65648W        W29581  11.277  19.284   3.689
65649W        W29582  40.357  37.972   1.758
65650W        W29583  38.385  32.632   3.629
65651W        W29584   0.355   2.876   4.695
65652W        W29585   6.307   7.791  10.922
65653W        W29586  10.745  20.165  12.839
65654W        W29587  16.209  16.201   0.363
65655W        W29588  29.579   2.414  13.021
65656W        W29589  29.039  16.254  11.606
65657W        W29590   9.670  40.884  10.961
65658W        W29591  26.671  32.997  14.468
65659W        W29592  24.110  29.599  10.581
65660W        W29593  29.104  17.117   0.382
65661W        W29594  23.985   3.344   4.756
65662W        W29595  40.046  12.283   4.799
65663W        W29596  38.491  15.266   1.844
65664W        W29597  38.007  30.523   5.312
65665W        W29598  11.128   4.366  11.883
65666W        W29599  15.710  11.269  12.475
65667W        W29600  30.606  42.940   3.673
65668W        W29601  18.690  15.683   2.854
65669W        W29602  41.908  20.057  11.126
65670W        W29603  37.429   0.941  13.975
65671W        W29604  38.933  43.826   0.791
65672W        W29605  22.687  38.538   4.611
65673W        W29606  19.170  34.596  14.820
65674W        W29607  35.976  32.930   4.265
65675W        W29608  38.555  12.215  13.309
65676W        W29609  19.545  36.023   2.183
65677W        W29610  18.280  35.454  10.422
65678W        W29611  28.130   2.451  10.539
65679W        W29612  14.307  41.396   0.374
65680W        W29613  20.258   4.393  13.850
65681W        W29614  36.394  20.206   1.825
65682W        W29615  18.651  41.810   4.204
65683W        W29616   1.915  22.738  13.053
65684W        W29617   5.382   5.720  13.542
65685W        W29618   1.800  27.570   0.244
65686W        W29619  12.277  15.641  12.364
65687W        W29620  30.438  35.450   2.873
65688W        W29621   5.830   1.241  14.353
65689W        W29622  43.458  26.988   1.388
65690W        W29623  42.399  29.552   4.746
65691W        W29624  27.623  39.385   1.283
65692W        W29625  31.145  41.378   5.126
65693W        W29626  15.171  44.789   1.924
65694W        W29627  34.876  10.238   3.336
65695W        W29628  20.061  37.989  13.344
65696W        W29629  13.842  22.214  11.009
65697W        W29630  40.314  26.578  10.430
65698W        W29631   8.822  43.929   3.216
65699W        W29632  11.680  43.302   4.638
65700W        W29633  44.782  17.296   4.804
65701W        W29634   2.232  24.596   4.128
65702W        W29635  44.791  16.134  11.509
65703W        W29636   2.769  23.531  14.907
65704W        W29637  44.768   6.364  14.491
65705W        W29638  21.120  26.660   2.357
65706W        W29639   9.694  30.008   3.851
65707W        W29640   8.253  10.641  11.412
65708W        W29641  42.831  17.211  12.866
65709W        W29642  20.733  36.495   3.189
65710W        W29643  37.893  12.715   0.465
65711W        W29644   7.730  14.291   4.736
65712W        W29645  21.199   7.357  10.151
65713W        W29646  11.223  20.243  10.612
65714W        W29647  35.372  22.648  14.852
65715W        W29648  34.483  25.566  13.350
65716W        W29649  21.580  21.063   2.844
65717W        W29650   9.278  22.519  10.523
65718W        W29651  39.382  27.473  12.384
65719W        W29652  31.081  13.615  10.521
65720W        W29653  13.690  19.708   4.122
65721W        W29654  18.758  11.207  13.502
65722W        W29655  21.758  37.055  11.559
65723W        W29656   8.675  11.335   4.310
65724W        W29657  39.553   8.228  14.414
65725W        W29658  31.644  29.491  13.410
65726W        W29659   3.243   1.475   1.420
65727W        W29660  35.947  25.557   2.183
65728W        W29661  28.971  16.788  10.530
65729W        W29662  20.730  13.155  12.509
65730W        W29663  39.927  27.644  13.809
65731W        W29664  12.674  27.525  13.337
65732W        W29665  19.603  19.122  13.464
65733W        W29666  30.486  24.615   3.224
65734W        W29667  35.918  22.524  11.086
65735W        W29668  14.830  34.117   4.716
65736W        W29669  25.996  40.502  13.825
65737W        W29670  42.356   2.361  14.438
65738W        W29671  22.056  42.832   4.673
65739W        W29672  21.059  29.440   4.642
65740W        W29673  27.499   7.748  11.488
65741W        W29674  21.061  17.739   1.267
65742W        W29675  14.833   9.195  10.970
65743W        W29676  40.322   1.331  11.877
65744W        W29677  18.547   4.303   3.691
65745W        W29678  39.937  41.868  12.879
65746W        W29679  25.641  23.140   2.315
65747W        W29680  24.031  30.067   1.305
65748W        W29681  35.928  22.560  14.918
65749W        W29682   0.383  16.171   1.908
65750W        W29683  22.030  41.359  12.576
65751W        W29684  28.177  32.931  13.310
65752W        W29685  31.148  35.016  14.387
65753W        W29686   9.757  15.594   0.266
65754W        W29687  18.218  32.068  12.492
65755W        W29688  19.690  24.991   4.782
65756W        W29689  31.935  29.478   0.922
65757W        W29690  15.821  35.476   3.153
65758W        W29691  34.434  26.588   5.168
65759W        W29692  35.391  18.262  12.866
65760W        W29693   7.755   5.384   1.424
65761W        W29694  18.057  43.278  11.980
65762W        W29695  24.602  15.649  13.856
65763W        W29696  25.524  22.675  11.066
65764W        W29697  40.471  39.377  14.830
65765W        W29698  21.236   6.393   0.781
65766W        W29699  10.147  33.084  10.894
65767W        W29700  37.974  15.109  12.441
65768W        W29701  18.264  34.870   4.715
65769W        W29702   1.844  23.101   3.291
65770W        W29703  34.116   4.883   1.766
65771W        W29704   6.373  33.459  12.531
65772W        W29705  18.687  31.413  11.561
65773W        W29706  14.826  10.183   3.727
65774W        W29707  35.022  17.303   0.829
65775W        W29708  21.718  16.301   0.893
65776W        W29709  39.972  34.435  10.517
65777W        W29710  16.305   8.865   0.277
65778W        W29711   2.747   2.903   0.334
65779W        W29712  20.573  35.085  12.003
65780W        W29713  35.094  27.602   2.864
65781W        W29714   6.777  44.400  12.438
65782W        W29715  43.273  41.316   2.324
65783W        W29716  43.382   7.676  14.414
65784W        W29717  31.433  27.004   0.931
65785W        W29718  29.129  26.990  13.912
65786W        W29719  24.489   1.472  10.951
65787W        W29720   1.895  33.481  12.988
65788W        W29721   0.319  38.516  13.521
65789W        W29722  41.515  34.581   3.162
65790W        W29723  20.268  10.326  10.481
65791W        W29724  20.678  11.769  12.492
65792W        W29725  14.179  30.019   1.747
65793W        W29726  37.341  11.812  10.961
65794W        W29727  23.498  36.449  14.778
65795W        W29728  21.129  39.971  12.873
65796W        W29729  12.266  30.483   4.693
65797W        W29730  34.036   3.825  11.935
65798W        W29731  22.041  36.351  10.917
65799W        W29732  20.730  11.153  12.396
65800W        W29733  19.188  22.608   3.684
65801W        W29734  38.847  21.580   4.613
65802W        W29735  16.241  38.015   4.258
65803W        W29736  37.344  13.169  11.113
65804W        W29737  32.107  19.636  11.870
65805W        W29738  24.602   4.267   1.219
65806W        W29739  14.663  15.233  14.409
65807W        W29740  21.737  10.143   2.833
65808W        W29741  14.102  24.516   4.604
65809W        W29742  16.219   9.317   1.836
65810W        W29743  30.163  16.619   1.329
65811W        W29744   0.285   0.260  11.107
65812W        W29745  21.261  36.951   2.853
65813W        W29746  11.644  20.075   0.931
65814W        W29747  25.212  33.498   2.339
65815W        W29748   4.716  41.375   0.865
65816W        W29749  39.842  10.254   3.261
65817W        W29750  19.539   2.954   1.304
65818W        W29751  38.859  42.776   2.188
65819W        W29752  11.323  35.959  13.060
65820W        W29753  41.329  34.067   3.201
65821W        W29754  19.233   3.795   4.132
65822W        W29755  21.076  40.969  13.471
65823W        W29756  31.460   5.223   3.150
65824W        W29757  22.601  19.177  14.016
65825W        W29758  12.363  32.573  11.912
65826W        W29759   2.234  39.541  13.508
65827W        W29760  10.165  43.994  13.915
65828W        W29761  28.561   3.892  12.087
65829W        W29762  23.529  15.730   3.677
65830W        W29763  34.610  26.527  12.984
65831W        W29764   7.708  42.481  11.535
65832W        W29765   4.258   3.782   2.250
65833W        W29766  44.356  35.019  10.572
65834W        W29767  36.386  16.611  13.348
65835W        W29768  18.117  10.875  14.977
65836W        W29769   1.434  24.684   2.387
65837W        W29770  23.115  35.990  11.568
65838W        W29771  43.498  42.357  14.441
65839W        W29772   6.254  21.658   0.752
65840W        W29773  12.824   0.361  10.544
65841W        W29774   0.290  23.581  12.885
65842W        W29775  43.886  15.315   1.704
65843W        W29776   6.204  42.442  10.907
65844W        W29777  13.829  12.701  12.026
65845W        W29778   5.338  16.774  11.463
65846W        W29779   4.448   7.833   3.688
65847W        W29780   2.735   8.666   3.283
65848W        W29781  40.047  43.939  14.405
65849W        W29782   8.831  12.316   4.260
65850W        W29783  12.359  33.432   4.816
65851W        W29784  17.241  19.618  13.503
65852W        W29785  26.130  10.360  12.492
65853W        W29786  38.886  41.391   0.324
65854W        W29787  41.473  11.129   0.932
65855W        W29788   8.831  29.662  11.009
65856W        W29789  17.775  15.735   0.363
65857W        W29790   0.775  37.491   1.327
65858W        W29791  34.581  35.372   0.367
65859W        W29792   4.939  35.565  10.614
65860W        W29793   3.783  37.965  12.965
65861W        W29794  39.937  34.106   0.448
65862W        W29795   1.362  34.458   0.943
65863W        W29796   3.916  11.635  12.063
65864W        W29797  44.782  40.915  10.607
65865W        W29798  21.225  26.682  14.417
65866W        W29799  17.275  22.600  10.908
65867W        W29800   0.373  34.568   0.376
65868W        W29801  25.186   6.322  12.478
65869W        W29802  38.348  16.808  14.849
65870W        W29803  24.034  26.619   3.329
65871W        W29804  44.464  43.403   3.683
65872W        W29805  36.392  43.963   1.306
65873W        W29806  32.595   0.832   2.390
65874W        W29807  28.096  11.206  13.921
65875W        W29808  14.203   0.814   2.896
65876W        W29809   3.382  30.054  11.890
65877W        W29810  36.856  24.974  10.972
65878W        W29811  16.156   8.387  13.914
65879W        W29812  41.445  26.556  14.021
65880W        W29813  10.669  26.182  14.322
65881W        W29814  21.166  18.153   4.199
65882W        W29815  27.002  43.918   1.695
65883W        W29816  37.482   5.434   0.350
65884W        W29817  20.083  32.125  14.847
65885W        W29818  22.150  42.295  13.387
65886W        W29819   4.918  44.329  14.763
65887W        W29820   1.879  21.184   0.750
65888W        W29821  17.229  37.958   0.250
65889W        W29822   3.880  19.696   1.367
65890W        W29823   9.197   4.445   2.232
65891W        W29824  34.471  39.519  14.486
65892W        W29825  36.074  37.375  11.101
65893W        W29826  37.068  39.423  11.963
65894W        W29827   3.335  17.216  12.388
65895W        W29828  42.954  33.016  11.543
65896W        W29829   7.199  26.957   3.192
65897W        W29830   2.324  20.698  10.535
65898W        W29831  15.090  30.056   2.317
65899W        W29832  13.242  38.565  14.431
65900W        W29833  35.973   8.730   0.811
65901W        W29834  37.399   8.379   3.851
65902W        W29835  25.132  13.200  10.416
65903W        W29836  37.850  32.613  14.828
65904W        W29837  37.374  14.782   2.799
65905W        W29838  22.575  10.241   9.628
65906W        W29839  29.936  40.457   1.227
65907W        W29840  21.256  10.342   0.391
65908W        W29841  31.586  39.483  12.055
65909W        W29842  15.689  33.504   5.222
65910W        W29843  22.746   0.343   0.867
65911W        W29844  17.078   4.417   5.204
65912W        W29845  10.807  12.345   4.691
65913W        W29846   6.372  32.072  14.964
65914W        W29847   6.727  26.044   1.237
65915W        W29848   6.680  23.141   0.771
65916W        W29849  26.176   6.714  13.997
65917W        W29850  29.167   3.282  11.583
65918W        W29851  29.930  37.424  13.386
65919W        W29852  36.561  39.981  11.429
65920W        W29853  31.974  30.038  13.453
65921W        W29854   2.340  25.155  10.160
65922W        W29855  31.005  29.605  13.885
65923W        W29856  32.989  18.570   2.409
65924W        W29857  24.698  13.165  14.511
65925W        W29858  13.199  43.918   4.218
65926W        W29859  16.087  12.749   2.853
65927W        W29860  38.517   9.676  12.441
65928W        W29861  14.782  14.652  11.074
65929W        W29862  20.101   7.340   4.208
65930W        W29863   1.947  12.328  14.998
65931W        W29864   7.190  30.457   2.208
65932W        W29865  13.191  42.438   3.169
65933W        W29866  34.974  10.748  13.348
65934W        W29867  25.615  10.258   0.778
65935W        W29868  15.727  35.415   1.435
65936W        W29869   5.436  14.114   1.365
65937W        W29870  23.493  19.676   0.440
65938W        W29871   6.810   0.742  14.376
65939W        W29872  40.467  16.180   3.278
65940W        W29873   4.872  41.986  11.518
65941W        W29874  11.197   9.165  10.969
65942W        W29875   3.781  26.978   1.756
65943W        W29876   2.896  13.298   4.257
65944W        W29877  12.136  20.224  13.824
65945W        W29878  11.863  29.564   4.806
65946W        W29879  42.378  30.451   2.291
65947W        W29880  21.520  22.029  10.499
65948W        W29881  20.739  27.129   1.837
65949W        W29882  36.383   3.317   4.711
65950W        W29883  23.563  18.635  11.010
65951W        W29884  26.187   5.425   2.382
65952W        W29885  15.210  43.861  14.505
65953W        W29886  38.486  23.646   0.902
65954W        W29887   1.483  19.611   3.807
65955W        W29888  29.427  40.869  11.396
65956W        W29889  14.616  39.943  14.474
65957W        W29890  11.820  39.427   3.262
65958W        W29891  27.127  37.346   4.115
65959W        W29892  22.146  44.375  14.790
65960W        W29893  40.864  32.027  13.408
65961W        W29894   6.910  26.574   4.612
65962W        W29895  31.559  36.927  11.422
65963W        W29896  38.548  26.662   1.900
65964W        W29897  19.700  44.998  10.970
65965W        W29898  32.421  21.132   4.348
65966W        W29899  44.476  38.358   4.822
65967W        W29900  12.822  20.105   4.756
65968W        W29901   8.345  15.766  10.964
65969W        W29902   3.409  26.191  13.487
65970W        W29903  23.628   5.882  11.412
65971W        W29904  38.554  19.724   5.230
65972W        W29905  35.031  42.032   2.827
65973W        W29906  28.012  36.917   1.381
65974W        W29907  30.074  38.882   1.708
65975W        W29908  25.972  35.389   2.305
65976W        W29909   4.319  18.277  12.526
65977W        W29910  26.098   4.840   1.751
65978W        W29911  38.452  39.962  12.496
65979W        W29912   3.821  37.894  11.565
65980W        W29913  27.099  23.141   1.934
65981W        W29914   2.359  13.781   1.699
65982W        W29915   8.218  40.844   2.306
65983W        W29916  38.903   5.900   0.320
65984W        W29917   9.260  38.897   3.205
65985W        W29918  40.912   8.676   0.242
65986W        W29919   4.394   5.283   2.312
65987W        W29920  38.862  43.393   0.833
65988W        W29921  42.372   7.319   2.197
65989W        W29922   5.830  36.845  10.453
65990W        W29923  41.405   8.772  11.859
65991W        W29924  22.527  11.285  13.441
65992W        W29925  39.999  43.354  14.428
65993W        W29926   4.930  20.267   3.333
65994W        W29927  18.171   7.213  10.924
65995W        W29928  12.617   6.294   9.997
65996W        W29929  23.006  15.602  14.995
65997W        W29930   3.384  34.399  14.788
65998W        W29931   3.255  11.205  12.374
65999W        W29932   4.812  31.529   4.322
66000W        W29933  37.024   1.827   3.717
66001W        W29934   8.197  14.094   1.348
66002W        W29935  44.758  12.289   2.389
66003W        W29936   3.269  35.947   1.292
66004W        W29937  18.621   3.235   5.147
66005W        W29938   9.781  29.618  14.769
66006W        W29939   7.831  14.627  11.421
66007W        W29940  43.386  31.481  13.025
66008W        W29941  38.449  36.914  12.419
66009W        W29942   1.859  27.998   4.134
66010W        W29943  35.028  25.002  13.319
66011W        W29944   4.922  26.124  14.338
66012W        W29945  17.791  23.092   2.386
66013W        W29946   5.917   2.850  10.545
66014W        W29947  11.165   4.762  12.575
66015W        W29948  22.511  32.036  13.542
66016W        W29949  14.152  18.098   3.771
66017W        W29950   6.274  12.763   3.202
66018W        W29951   7.322  36.943  10.966
66019W        W29952   2.299  38.925  11.483
66020W        W29953  31.090  22.703  13.481
66021W        W29954  17.169  36.426   1.451
66022W        W29955  37.877  17.187   3.327
66023W        W29956  17.581  40.966  13.901
66024W        W29957  27.551   5.239  11.491
66025W        W29958   5.270  11.276   3.700
66026W        W29959  18.236  31.135   3.796
66027W        W29960   1.440  35.518   2.188
66028W        W29961   7.873  23.021   2.242
66029W        W29962  25.590  16.761   0.782
66030W        W29963   5.203   0.773  14.834
66031W        W29964  14.095  20.046   1.763
66032W        W29965  31.621  29.172  11.948
66033W        W29966  24.664  28.525  11.923
66034W        W29967  23.538   7.699  13.319
66035W        W29968  26.067  38.940   3.226
66036W        W29969   2.770  18.714  11.047
66037W        W29970  32.903  17.789   3.198
66038W        W29971  27.652  42.806   1.727
66039W        W29972  19.267   1.254   3.776
66040W        W29973  17.657  11.727  14.802
66041W        W29974  17.168  44.353  10.431
66042W        W29975  28.088   7.891   4.339
66043W        W29976  33.067  33.579  12.837
66044W        W29977  31.078  40.524  14.462
66045W        W29978  17.629   1.779   3.369
66046W        W29979  16.273  16.109   4.319
66047W        W29980   1.253  11.834  14.939
66048W        W29981  35.450   1.904  12.483
66049W        W29982  39.012  23.042   3.287
66050W        W29983   0.435   3.411  11.971
66051W        W29984  24.090  35.877   5.197
66052W        W29985  15.310  34.432   3.812
66053W        W29986   0.798  24.108   4.341
66054W        W29987  32.116  14.155   1.773
66055W        W29988   0.810  12.143   3.723
66056W        W29989  19.159  22.189  12.946
66057W        W29990  38.473   3.853  13.923
66058W        W29991   0.462  21.572  14.985
66059W        W29992  30.488  28.158  12.049
66060W        W29993  31.991  20.120   1.873
66061W        W29994  28.515   4.740   3.324
66062W        W29995   0.270   7.756  11.522
66063W        W29996  25.170  10.730   4.295
66064W        W29997  15.155  27.601   4.328
66065W        W29998  18.094  43.514  13.510
66066W        W29999  18.264  13.160  13.905
66067W        W30000   6.921   1.348   9.469
66068W        W30001   2.848   1.360   4.791
66069W        W30002  32.958  44.766   3.653
66070W        W30003  37.988  13.348   4.833
66071W        W30004  28.047  40.417   2.762
66072W        W30005   5.736  11.841   2.681
66073W        W30006   6.922  27.015   0.426
66074W        W30007  41.847  44.440  14.774
66075W        W30008  22.101   9.379  13.314
66076W        W30009   1.795  25.149   0.735
66077W        W30010  42.877   8.808  12.480
66078W        W30011  36.070  26.961   2.857
66079W        W30012   0.357  43.901  10.603
66080W        W30013   9.155   8.668  10.571
66081W        W30014  22.606  28.656   2.884
66082W        W30015  28.071  10.254  14.004
66083W        W30016   9.383  17.758   0.748
66084W        W30017   2.356  32.439   1.926
66085W        W30018  22.546  16.668   3.677
66086W        W30019  26.625   0.850   3.279
66087W        W30020  15.653  31.529   3.254
66088W        W30021   0.277   6.269   0.769
66089W        W30022  13.152  35.537   4.115
66090W        W30023  32.111  17.299   3.385
66091W        W30024  11.362   2.233  12.901
66092W        W30025   6.774  12.801   1.892
66093W        W30026  13.752  14.661  14.393
66094W        W30027  24.714  16.314  10.603
66095W        W30028  40.833  14.767   3.676
66096W        W30029  37.858  12.168  13.531
66097W        W30030  12.271  38.509   2.885
66098W        W30031   4.701   9.660   0.892
66099W        W30032  38.509   0.444   3.305
66100W        W30033  39.843  18.714   1.240
66101W        W30034  30.424  32.063  13.335
66102W        W30035  15.788  39.546  10.133
66103W        W30036   5.800   7.859   1.406
66104W        W30037  19.753  27.578   3.802
66105W        W30038  43.883  33.903  10.519
66106W        W30039  27.486  19.651   1.873
66107W        W30040  29.617  26.095  10.444
66108W        W30041  22.530  28.175  11.990
66109W        W30042  16.128  19.594  11.377
66110W        W30043  10.222  25.084   3.644
66111W        W30044  27.468  18.228   0.907
66112W        W30045  20.046   1.372  12.983
66113W        W30046  28.935  33.004  12.890
66114W        W30047  20.075  39.408  11.511
66115W        W30048  16.743  32.006   1.216
66116W        W30049  27.485   9.783   2.417
66117W        W30050  39.323   9.355  12.492
66118W        W30051  22.086   6.185   3.630
66119W        W30052   2.863   8.885  11.875
66120W        W30053  14.753  19.081  12.464
66121W        W30054  42.361  21.712  13.012
66122W        W30055  37.392  14.144  13.339
66123W        W30056  31.466  19.068  12.010
66124W        W30057  10.684  17.641  13.320
66125W        W30058  25.074  16.154  10.441
66126W        W30059  41.888  31.574   3.225
66127W        W30060  22.640  25.564   3.217
66128W        W30061  19.612  29.516   1.889
66129W        W30062  10.266   4.909   4.258
66130W        W30063  21.742  35.576  10.896
66131W        W30064  41.801  21.620   2.266
66132W        W30065  26.952  21.125   1.211
66133W        W30066  10.670   8.381  13.456
66134W        W30067   0.756  19.538   2.228
66135W        W30068  18.566   8.729   2.180
66136W        W30069  39.831  30.053   3.314
66137W        W30070   6.406  22.561   5.238
66138W        W30071  26.973  31.913  10.495
66139W        W30072  38.877   0.436  10.635
66140W        W30073   2.777  35.512   2.388
66141W        W30074  23.094   7.327   2.239
66142W        W30075   9.663  14.658  14.845
66143W        W30076  33.075  38.557  14.327
66144W        W30077  19.618   3.421  10.428
66145W        W30078   5.799   1.329  11.531
66146W        W30079  21.160   1.751   4.118
66147W        W30080  33.874  18.176  10.445
66148W        W30081   1.735  36.513  14.450
66149W        W30082  33.447  24.496  13.340
66150W        W30083   9.735   3.892  12.900
66151W        W30084   0.922   9.780   2.398
66152W        W30085  41.951  30.116  11.970
66153W        W30086  11.152  43.310   4.296
66154W        W30087  36.574   2.944  13.905
66155W        W30088  44.374  28.070  11.926
66156W        W30089  43.416  41.962   4.632
66157W        W30090  36.558  16.177  11.417
66158W        W30091  21.663  23.674  13.384
66159W        W30092  36.515  15.178   4.669
66160W        W30093   6.903  43.336  13.458
66161W        W30094  42.496  25.084   4.318
66162W        W30095  10.349  33.501   5.153
66163W        W30096   3.306  26.052  10.972
66164W        W30097   1.255  31.132   3.354
66165W        W30098   1.352  31.146  12.346
66166W        W30099  11.638   4.728  12.877
66167W        W30100   5.228  40.361  11.881
66168W        W30101  19.257  43.885   0.308
66169W        W30102  44.969  20.154   1.700
66170W        W30103  17.302  33.626  10.001
66171W        W30104  17.151  37.481   4.685
66172W        W30105  30.046  31.615   0.833
66173W        W30106  37.890  27.176  14.464
66174W        W30107  25.597  28.088  13.392
66175W        W30108  28.505  23.106  10.970
66176W        W30109  24.185  35.003   1.889
66177W        W30110  28.101   5.271   3.793
66178W        W30111  29.583  26.009  13.954
66179W        W30112   9.262  37.418  13.410
66180W        W30113  13.776  26.686  13.956
66181W        W30114  24.687  16.140  13.891
66182W        W30115   3.808  26.017   4.669
66183W        W30116   5.801  36.521  14.000
66184W        W30117   1.880  19.574  13.504
66185W        W30118  24.647  31.993  11.478
66186W        W30119  16.661  42.375  11.906
66187W        W30120  21.038  44.999  12.030
66188W        W30121  43.362  31.945  14.021
66189W        W30122  18.685  22.043  13.886
66190W        W30123  21.573  38.866   4.240
66191W        W30124  26.096   4.906   0.809
66192W        W30125  15.621  26.980   4.673
66193W        W30126  27.600  40.451   0.856
66194W        W30127  42.907  25.118   4.769
66195W        W30128   1.359  12.234  13.412
66196W        W30129   6.736  22.200  11.387
66197W        W30130  42.520  10.731  13.356
66198W        W30131  18.289  40.431   1.267
66199W        W30132  13.339   3.433  10.007
66200W        W30133  14.145  26.556   3.643
66201W        W30134  36.042  40.885   1.424
66202W        W30135  42.966  37.441  13.815
66203W        W30136  33.981   1.351  11.874
66204W        W30137  31.025  41.846   1.725
66205W        W30138  18.661  23.221   4.783
66206W        W30139   5.389  21.582  13.029
66207W        W30140  39.350   0.978  11.011
66208W        W30141  38.948   8.297   4.200
66209W        W30142  12.852  25.029  10.953
66210W        W30143   5.239   0.858   1.744
66211W        W30144  38.434  31.482  11.904
66212W        W30145  30.522  12.162   4.819
66213W        W30146  41.964  42.799  13.478
66214W        W30147  13.634  43.837   4.347
66215W        W30148  16.223   8.676  14.307
66216W        W30149   5.228  11.229   2.320
66217W        W30150  35.070  11.642   4.743
66218W        W30151  42.829  39.955  14.983
66219W        W30152  36.535   5.735   3.819
66220W        W30153  11.651  44.404  11.455
66221W        W30154  23.709  16.728  13.395
66222W        W30155  17.137  36.969  14.324
66223W        W30156  21.110   0.845   4.717
66224W        W30157  38.900  23.029   4.244
66225W        W30158  44.856   2.902  14.928
66226W        W30159  19.735  26.952  11.601
66227W        W30160  10.657  19.223   1.391
66228W        W30161  37.885  29.653  13.835
66229W        W30162  39.988  21.690  12.059
66230W        W30163   7.678  37.543  10.951
66231W        W30164  23.561  18.167   4.226
66232W        W30165  35.432  35.078   4.616
66233W        W30166  10.656  30.119   0.967
66234W        W30167  36.095   6.689  11.060
66235W        W30168  29.548  43.856  13.352
66236W        W30169  11.252  41.935   2.781
66237W        W30170  11.833  25.575  14.009
66238W        W30171  34.588  28.508   1.345
66239W        W30172   9.812  29.589  11.406
66240W        W30173  37.865  26.567   0.367
66241W        W30174  13.728  10.660   2.858
66242W        W30175  27.082  39.337   4.825
66243W        W30176  38.334  27.079  12.377
66244W        W30177   8.686   2.853   1.872
66245W        W30178  22.656  13.699   1.771
66246W        W30179  11.763  30.646   4.742
66247W        W30180  24.714   4.249   0.262
66248W        W30181  40.455  13.680   0.790
66249W        W30182  17.590  30.160   3.376
66250W        W30183   8.317  33.092  12.560
66251W        W30184  24.579  12.275  13.827
66252W        W30185  19.047  24.196  14.968
66253W        W30186   7.305  18.126  12.348
66254W        W30187   0.784  34.391   4.135
66255W        W30188   5.827  43.792   1.411
66256W        W30189  40.025  33.029   0.428
66257W        W30190   8.172   3.448   5.216
66258W        W30191  29.067  19.238   2.772
66259W        W30192  26.558  10.833   2.307
66260W        W30193   4.866  20.745   3.368
66261W        W30194  15.208   3.225   2.709
66262W        W30195  35.389  29.584   2.862
66263W        W30196   7.378  33.075  11.958
66264W        W30197   7.416  20.671   2.802
66265W        W30198   1.950  33.016   2.810
66266W        W30199  16.727  40.528   3.822
66267W        W30200   6.360  41.291   1.379
66268W        W30201   0.320  24.204  14.476
66269W        W30202  28.490  42.857  14.303
66270W        W30203  10.280  28.146   2.895
66271W        W30204  24.053  29.462  14.414
66272W        W30205   1.423  41.946   0.434
66273W        W30206  42.837  26.601  10.939
66274W        W30207  21.254  23.133   0.753
66275W        W30208   6.842  11.767   3.826
66276W        W30209  10.718  34.070   0.766
66277W        W30210  31.935  30.022  13.904
66278W        W30211  33.983  39.813  14.370
66279W        W30212  28.574  43.461   0.911
66280W        W30213  35.600  27.534  11.579
66281W        W30214   2.240  26.570  14.761
66282W        W30215  20.709  40.397   1.885
66283W        W30216  21.158  43.982  10.419
66284W        W30217  43.813   4.735  13.518
66285W        W30218  41.807  37.510  10.918
66286W        W30219  33.091  24.010   0.482
66287W        W30220  31.512   6.845   3.776
66288W        W30221  42.985  40.875  10.929
66289W        W30222  16.725   7.820  12.449
66290W        W30223  41.351   8.284   0.926
66291W        W30224   6.276  23.125   5.568
66292W        W30225   7.255  39.495   4.765
66293W        W30226  20.547  33.401  10.479
66294W        W30227  33.472   4.727  10.411
66295W        W30228  42.367  15.163  12.464
66296W        W30229   9.368  39.888   1.220
66297W        W30230  38.398  26.159  14.985
66298W        W30231  29.493  14.773  13.363
66299W        W30232  28.468  20.533   0.398
66300W        W30233  26.102  27.459  11.908
66301W        W30234  33.958  21.678  13.965
66302W        W30235   4.359  42.984  11.998
66303W        W30236   3.345   9.189   3.221
66304W        W30237  11.829  36.545  14.379
66305W        W30238   5.920  24.196  12.088
66306W        W30239  42.788  14.267  14.823
66307W        W30240  36.518  22.006   4.317
66308W        W30241  34.108   7.350   1.867
66309W        W30242  40.304  15.195  11.021
66310W        W30243  27.147  34.950   3.743
66311W        W30244   3.404  34.893   1.310
66312W        W30245  42.414  15.108   2.267
66313W        W30246   0.803  10.196   9.935
66314W        W30247  41.820   8.302   2.179
66315W        W30248  11.135   4.898  11.097
66316W        W30249  24.689  38.984   1.440
66317W        W30250  20.243  16.776   4.670
66318W        W30251  30.013  39.412   1.900
66319W        W30252  34.988  12.199   3.825
66320W        W30253   0.285   1.352   2.418
66321W        W30254  11.622  29.102  14.833
66322W        W30255  24.721  27.637  10.492
66323W        W30256  34.049   2.819   2.259
66324W        W30257   0.938  38.928  12.423
66325W        W30258   9.385   1.745   3.710
66326W        W30259  28.448  42.523   2.260
66327W        W30260  41.929   3.275   9.934
66328W        W30261  40.518   8.303  10.423
66329W        W30262  29.935   4.827   3.849
66330W        W30263  33.938   6.884  12.379
66331W        W30264  27.990  13.735   4.225
66332W        W30265  24.713   6.796  14.427
66333W        W30266   9.308  33.112   0.283
66334W        W30267  18.639  35.976   3.785
66335W        W30268  12.760  30.109  10.946
66336W        W30269  22.613   3.298  12.937
66337W        W30270  17.764  25.591  12.504
66338W        W30271  43.877   1.742  12.903
66339W        W30272  27.463  21.197   1.262
66340W        W30273   3.722  18.257  11.998
66341W        W30274  25.555  24.651   0.453
66342W        W30275  44.282  10.224  13.854
66343W        W30276  24.635  41.812  14.887
66344W        W30277  19.637  10.263  11.404
66345W        W30278  40.802  18.135   1.821
66346W        W30279   0.382  26.120   3.189
66347W        W30280   3.440  27.531  11.575
66348W        W30281  26.081  23.653  12.395
66349W        W30282  16.170  33.500   4.145
66350W        W30283   0.743   3.235  14.436
66351W        W30284  16.078  35.528   0.871
66352W        W30285  40.014  38.452  13.493
66353W        W30286  35.394  37.463  14.343
66354W        W30287  21.708  15.164  14.450
66355W        W30288  31.409   8.385  13.516
66356W        W30289   3.342  28.652   4.812
66357W        W30290  35.040  39.940  11.044
66358W        W30291  19.136  25.176   1.374
66359W        W30292  29.963   8.187  10.913
66360W        W30293  16.704  20.619   2.309
66361W        W30294  36.880  17.664   3.687
66362W        W30295  30.417  15.666  13.963
66363W        W30296  23.733  29.948   0.811
66364W        W30297  31.034  16.088   3.355
66365W        W30298  24.688   1.739  14.465
66366W        W30299  26.553  30.079  12.394
66367W        W30300  39.338  44.341  14.994
66368W        W30301   8.767  11.263  10.891
66369W        W30302  20.078  25.995   3.757
66370W        W30303   8.807   6.796   1.388
66371W        W30304  44.447   4.272   4.127
66372W        W30305  10.138  22.516   1.694
66373W        W30306  20.266   0.420  13.408
66374W        W30307  39.060  17.651   3.230
66375W        W30308  18.605   1.327  10.891
66376W        W30309  19.230   5.405  11.488
66377W        W30310  28.450   3.846   1.327
66378W        W30311   2.398  41.868   4.345
66379W        W30312  32.940  19.661  11.607
66380W        W30313  18.253  14.588   0.327
66381W        W30314  37.032  24.488   1.297
66382W        W30315  18.223  42.026  14.494
66383W        W30316  37.864  37.361  10.449
66384W        W30317  30.606  21.581  14.914
66385W        W30318  14.746  24.053   2.199
66386W        W30319   1.907  44.917  12.051
66387W        W30320  19.666   7.685   3.157
66388W        W30321   0.755  44.393  14.881
66389W        W30322  18.736  17.128   2.686
66390W        W30323  29.555  30.077   4.213
66391W        W30324  27.067  42.295  11.394
66392W        W30325   0.948  12.332   2.288
66393W        W30326   2.930   7.415  10.481
66394W        W30327  10.836  21.529   0.917
66395W        W30328  38.463   5.402  11.066
66396W        W30329  24.086  44.796  12.376
66397W        W30330   6.861  22.249   5.254
66398W        W30331  33.989  40.431  13.868
66399W        W30332  37.385  16.180   4.824
66400W        W30333  24.002   1.348  14.295
66401W        W30334   2.361  21.199   3.219
66402W        W30335  31.936  16.226  11.005
66403W        W30336  30.012  26.489  10.560
66404W        W30337  14.756  30.583  11.070
66405W        W30338  17.165  27.013  14.950
66406W        W30339  26.975  35.362  12.540
66407W        W30340  44.399  33.510  10.961
66408W        W30341   7.371  29.443  12.930
66409W        W30342  20.250  22.214  13.522
66410W        W30343   5.780  29.082   0.379
66411W        W30344  19.191   7.238  13.847
66412W        W30345  34.909   7.174  13.372
66413W        W30346   2.376  29.922  12.358
66414W        W30347  38.999  23.493   4.804
66415W        W30348  44.381  16.587  11.576
66416W        W30349  39.437  37.962  12.467
66417W        W30350  14.321  38.044   2.243
66418W        W30351   0.354  43.770   3.290
66419W        W30352  32.085  32.098  14.883
66420W        W30353  36.924   8.257  13.054
66421W        W30354   2.928  33.585  14.444
66422W        W30355  12.723  27.011   1.323
66423W        W30356  34.902  28.654  11.872
66424W        W30357   7.883  43.406   1.433
66425W        W30358  29.455   1.966  10.474
66426W        W30359  13.213  38.876  13.887
66427W        W30360  29.574  31.535  14.333
66428W        W30361  26.605  10.762  11.574
66429W        W30362  35.937  27.172  13.923
66430W        W30363   9.317  44.981  13.315
66431W        W30364  36.933   3.909  14.914
66432W        W30365   8.848  33.605   2.245
66433W        W30366  37.421   9.662  11.511
66434W        W30367  31.079  40.804   0.452
66435W        W30368  24.488  19.553  10.482
66436W        W30369  39.945  13.288  12.927
66437W        W30370  14.130  38.899   0.371
66438W        W30371  21.621  10.699   5.229
66439W        W30372  10.251  13.262   0.899
66440W        W30373  10.641  44.340   4.327
66441W        W30374  28.667  29.551   2.218
66442W        W30375  26.203  22.661  13.978
66443W        W30376  29.531   7.739  10.494
66444W        W30377   5.367  18.587   1.396
66445W        W30378   8.326   9.288   3.666
66446W        W30379  11.847   6.829  13.406
66447W        W30380  27.686  35.382  11.125
66448W        W30381  12.837  10.241  10.625
66449W        W30382   3.330  44.850  13.915
66450W        W30383  38.887  18.732   3.147
66451W        W30384  39.862   2.756  12.469
66452W        W30385  21.152  21.597   1.299
66453W        W30386  37.545   2.253  13.050
66454W        W30387  38.913  25.201   2.741
66455W        W30388   7.329  40.820   0.377
66456W        W30389  44.422  34.969   2.194
66457W        W30390  21.632  14.637  14.022
66458W        W30391   4.839   3.234   4.672
66459W        W30392   7.746  40.049   1.730
66460W        W30393   3.365  29.620   4.324
66461W        W30394  43.868  31.438   1.354
66462W        W30395  20.058  24.713  13.809
66463W        W30396  33.962  33.910  11.917
66464W        W30397  33.508  16.600  12.567
66465W        W30398  40.879  38.547  11.464
66466W        W30399  36.500  36.367  12.090
66467W        W30400  13.181  12.164  10.642
66468W        W30401  22.705   9.272   0.938
66469W        W30402  13.226   8.879   1.882
66470W        W30403  11.797  32.949   2.798
66471W        W30404  18.673   1.447  11.975
66472W        W30405   8.340  32.481  11.424
66473W        W30406   3.345  24.509  10.906
66474W        W30407  42.391  18.154  10.993
66475W        W30408  42.011  39.882  11.513
66476W        W30409  27.485  17.755  13.355
66477W        W30410  22.672  11.773  13.840
66478W        W30411   7.347  16.100   4.775
66479W        W30412  24.677  33.063   2.400
66480W        W30413  11.193  35.955  14.494
66481W        W30414  27.186  18.555  11.487
66482W        W30415   1.810  41.334   3.718
66483W        W30416  17.155   7.216  12.393
66484W        W30417  35.489  12.240  12.958
66485W        W30418  17.157  33.014  14.852
66486W        W30419  23.017  17.305   1.741
66487W        W30420   6.201  15.109  12.509
66488W        W30421   3.289   0.337  11.036
66489W        W30422  38.517  32.414  11.998
66490W        W30423  24.491  11.213   0.879
66491W        W30424   1.439  27.115   0.904
66492W        W30425  40.414  21.736   1.297
66493W        W30426  22.033  30.623  14.027
66494W        W30427   0.967  27.064   4.702
66495W        W30428  40.033  13.662  12.369
66496W        W30429  23.200   9.805  13.904
66497W        W30430  30.152  19.061  10.933
66498W        W30431   8.690  29.609   2.870
66499W        W30432  24.210   5.690  12.938
66500W        W30433  33.543  21.191  10.620
66501W        W30434   9.772  37.454  11.470
66502W        W30435  31.607  16.126  13.878
66503W        W30436   3.416   6.822   1.697
66504W        W30437  41.932  22.182   1.927
66505W        W30438   7.894  33.434  12.081
66506W        W30439  40.037  15.227   2.223
66507W        W30440  13.708   6.872   3.304
66508W        W30441  38.431   8.861   0.267
66509W        W30442  18.603   6.736   4.610
66510W        W30443  14.667   8.386   4.207
66511W        W30444  34.584   0.800  13.483
66512W        W30445  15.175   8.715   4.788
66513W        W30446  40.437  29.443  10.023
66514W        W30447   1.928  15.146   4.306
66515W        W30448  10.806  28.474   2.196
66516W        W30449  12.729  12.258   1.399
66517W        W30450  26.503  22.582   1.324
66518W        W30451   6.352  37.081  12.408
66519W        W30452  26.498  44.487  14.351
66520W        W30453  40.382  34.465   0.324
66521W        W30454   2.235  26.667  11.377
66522W        W30455  20.611  31.050   1.935
66523W        W30456   6.903  15.738   4.717
66524W        W30457  32.437  16.617   4.719
66525W        W30458  30.954  13.107   4.758
66526W        W30459   5.304  30.608  11.495
66527W        W30460  41.038  27.595  10.617
66528W        W30461  15.126   4.329  10.525
66529W        W30462   5.341  27.124  11.386
66530W        W30463  28.487  11.700  11.530
66531W        W30464   9.149  18.571  12.542
66532W        W30465  39.325   1.839  13.497
66533W        W30466  26.997  42.807   3.789
66534W        W30467  31.944   0.981  11.462
66535W        W30468  31.452  40.035   4.172
66536W        W30469  43.791  33.445   3.257
66537W        W30470  27.552  33.569   4.241
66538W        W30471  13.795  42.487  14.342
66539W        W30472  38.457  11.243   2.349
66540W        W30473  32.501  17.197  14.831
66541W        W30474  26.009  33.000  12.833
66542W        W30475   5.411   5.251   1.876
66543W        W30476  33.889  36.475   0.819
66544W        W30477   4.352   6.867  11.406
66545W        W30478   2.305  28.486  10.895
66546W        W30479   3.339  21.621   2.367
66547W        W30480  37.373  31.919   0.443
66548W        W30481  15.174  37.472  13.455
66549W        W30482  39.494  29.127  11.890
66550W        W30483  21.194   0.923  13.051
66551W        W30484  43.374  24.547   1.706
66552W        W30485   8.696  34.995  13.979
66553W        W30486   2.388  17.580   0.776
66554W        W30487   1.877  30.517   0.794
66555W        W30488  33.621  17.642   4.325
66556W        W30489  28.435  30.939   3.756
66557W        W30490  12.746  34.112   0.247
66558W        W30491  25.142  22.518   3.196
66559W        W30492  43.913  21.673   4.728
66560W        W30493  30.489   0.402  11.931
66561W        W30494  44.393  37.425   1.345
66562W        W30495  38.345  37.044  13.468
66563W        W30496  22.207  39.429   4.263
66564W        W30497  18.643  37.548  11.119
66565W        W30498  26.629  25.147  10.577
66566W        W30499  10.162  30.984  11.924
66567W        W30500  35.569  37.054  13.413
66568W        W30501  41.297  32.453   0.767
66569W        W30502  37.937  32.010  12.970
66570W        W30503  36.553   6.859   3.709
66571W        W30504   5.819  15.316   3.363
66572W        W30505  42.300  15.767   2.824
66573W        W30506   1.327  36.978  12.569
66574W        W30507  41.970  30.614   3.806
66575W        W30508  19.286  28.514   4.288
66576W        W30509   6.876   4.815  10.948
66577W        W30510  36.967  38.016   3.284
66578W        W30511  43.387  29.996   0.308
66579W        W30512  38.553  42.441  13.427
66580W        W30513   8.812  44.941  11.579
66581W        W30514   2.903  38.363   0.284
66582W        W30515   4.795  24.480  12.045
66583W        W30516  20.586   6.358   1.767
66584W        W30517  43.018  17.650   3.764
66585W        W30518  36.514  21.121  12.537
66586W        W30519  39.059  33.053   4.601
66587W        W30520  26.090  33.047   0.851
66588W        W30521  26.151   7.201   4.712
66589W        W30522  36.538  40.545   4.148
66590W        W30523  32.401  44.304   3.756
66591W        W30524   8.706   2.445   4.325
66592W        W30525  30.133  34.401   2.714
66593W        W30526  10.299  33.540   1.857
66594W        W30527  18.766  22.739  12.991
66595W        W30528  23.668  30.446   0.268
66596W        W30529  32.506   6.391   2.314
66597W        W30530  39.022  33.593  12.941
66598W        W30531  21.656  39.457   3.692
66599W        W30532  29.965  40.523  11.606
66600W        W30533  44.918   2.255   1.333
66601W        W30534  29.479  10.641   2.228
66602W        W30535  22.722  20.148  13.472
66603W        W30536   7.178  22.009  14.995
66604W        W30537  14.109   5.296   4.713
66605W        W30538   4.305   5.360   4.140
66606W        W30539  13.323  16.810   2.698
66607W        W30540  39.490  15.653  13.835
66608W        W30541  35.424  10.823  12.947
66609W        W30542  40.510   0.493   0.937
66610W        W30543  10.708  34.404  11.419
66611W        W30544  15.809  18.266   9.634
66612W        W30545  36.463  23.596   0.802
66613W        W30546  22.189  21.079  11.417
66614W        W30547  33.395  31.557   2.858
66615W        W30548  24.550  15.199  14.374
66616W        W30549  11.326  23.036   3.782
66617W        W30550  10.640   9.318   2.300
66618W        W30551  24.618   7.323   2.262
66619W        W30552  18.741   4.860   2.798
66620W        W30553   5.756  16.671  10.611
66621W        W30554  27.505  35.557   2.196
66622W        W30555  11.255  38.877  13.336
66623W        W30556   9.344  16.672   2.752
66624W        W30557   9.845  11.143   3.795
66625W        W30558  29.488  14.109  10.926
66626W        W30559  38.372  14.824   2.323
66627W        W30560  44.398  31.086   2.704
66628W        W30561  13.769  44.892  11.020
66629W        W30562  40.921  31.514   0.383
66630W        W30563  39.862  16.582  14.365
66631W        W30564  28.033  19.138   3.168
66632W        W30565  10.266   5.370   3.674
66633W        W30566  27.973  25.660  12.511
66634W        W30567  28.130   3.326  10.018
66635W        W30568  23.039  14.687   0.287
66636W        W30569   1.835  19.194   1.891
66637W        W30570  32.542   4.945   0.370
66638W        W30571  23.576   0.272   1.825
66639W        W30572  14.317  21.585   4.250
66640W        W30573  14.703  33.472   1.876
66641W        W30574  26.686   8.751   3.825
66642W        W30575  19.050  11.759  12.003
66643W        W30576  28.480  31.934  10.142
66644W        W30577   1.292   9.766  13.451
66645W        W30578  25.507  42.351   4.814
66646W        W30579  11.238   7.723  14.475
66647W        W30580  26.521   6.767   3.820
66648W        W30581   9.687   6.787  12.970
66649W        W30582  32.472  23.490   1.225
66650W        W30583  15.324  44.342  13.907
66651W        W30584  18.175  35.108  10.889
66652W        W30585  16.627  44.324   3.353
66653W        W30586  41.837  11.328   1.399
66654W        W30587  27.457   6.821  14.887
66655W        W30588   5.292  43.473  11.941
66656W        W30589  30.970  21.558   4.325
66657W        W30590  32.046  17.203  10.929
66658W        W30591  11.225  18.079   0.834
66659W        W30592  18.166  36.553  10.427
66660W        W30593  36.500   0.867   0.265
66661W        W30594   7.845   4.785   2.321
66662W        W30595   2.301  26.956  11.960
66663W        W30596   7.789  36.985   4.330
66664W        W30597  37.963  32.583   2.826
66665W        W30598  36.029  16.672   1.444
66666W        W30599  16.674  36.868   2.412
66667W        W30600  36.575  23.062  12.419
66668W        W30601  18.272  18.646  13.948
66669W        W30602  12.772   6.740  11.604
66670W        W30603  22.659   9.155  14.329
66671W        W30604  31.606  43.333   2.183
66672W        W30605  31.027  12.307   1.845
66673W        W30606  34.917  33.026  12.917
66674W        W30607  34.593  14.709  11.547
66675W        W30608  21.666   6.403   3.344
66676W        W30609  15.117   4.205  10.904
66677W        W30610  26.173  38.337  12.394
66678W        W30611  10.715   7.862   1.919
66679W        W30612  42.415   9.193  12.563
66680W        W30613  39.436   5.213   3.236
66681W        W30614  11.867  43.880  11.423
66682W        W30615  33.021  29.668   4.344
66683W        W30616  24.637  11.654   5.730
66684W        W30617  15.653  42.868  10.481
66685W        W30618   3.434  44.298  11.522
66686W        W30619  39.997  17.794   4.691
66687W        W30620  39.538  17.187  10.408
66688W        W30621  35.056  27.515   2.262
66689W        W30622   4.263  13.790  11.577
66690W        W30623  20.629  19.100   3.777
66691W        W30624  24.601  39.522   0.835
66692W        W30625  42.467  21.020   2.793
66693W        W30626  12.661  10.779   3.847
66694W        W30627  34.437  35.970   3.798
66695W        W30628  35.936   6.204  11.025
66696W        W30629  35.076  32.066  14.413
66697W        W30630  19.612   3.443  13.848
66698W        W30631  20.262  14.643  13.944
66699W        W30632  41.897  11.849  14.759
66700W        W30633   7.343  37.497   4.306
66701W        W30634  23.520  27.993  13.357
66702W        W30635  30.612   1.864   4.836
66703W        W30636   1.297  16.805  14.915
66704W        W30637  41.341   3.841  12.024
66705W        W30638  27.669   3.355   0.798
66706W        W30639   8.693  30.642  14.434
66707W        W30640  34.049  44.809   4.229
66708W        W30641  17.266  14.148  10.417
66709W        W30642  36.070  11.674  12.928
66710W        W30643  27.615  35.578  11.568
66711W        W30644  18.669   7.304  13.546
66712W        W30645  43.861  42.930   1.219
66713W        W30646  17.257   7.409   4.226
66714W        W30647   6.706  15.307   0.847
66715W        W30648  18.068   0.270  12.378
66716W        W30649   4.393  24.502   4.170
66717W        W30650  36.420  22.098   1.220
66718W        W30651  40.497  11.173   2.311
66719W        W30652  25.022  25.204   2.884
66720W        W30653  18.188  41.846   9.637
66721W        W30654  34.013  15.242  13.875
66722W        W30655  41.345  24.586   4.764
66723W        W30656  21.635  34.482   1.794
66724W        W30657  43.313  15.158  13.976
66725W        W30658  43.333  23.669   3.373
66726W        W30659   5.381  31.066   1.306
66727W        W30660   1.836  21.683   0.745
66728W        W30661  38.492   0.441  12.908
66729W        W30662  17.257  17.283  11.977
66730W        W30663  36.991  36.017  14.332
66731W        W30664  40.008  31.076   0.823
66732W        W30665   5.285  38.847   4.645
66733W        W30666  20.052   5.374  12.013
66734W        W30667  17.297  41.346  14.343
66735W        W30668  19.536   0.358   3.274
66736W        W30669  28.540  42.363   1.932
66737W        W30670  30.491   0.810   2.416
66738W        W30671  43.440  17.684   2.852
66739W        W30672  22.062   7.189   1.234
66740W        W30673  36.550  30.581  11.541
66741W        W30674  16.736  32.924   3.758
66742W        W30675  26.021  21.534   0.473
66743W        W30676  15.614  39.448   5.135
66744W        W30677  11.736  26.526  10.943
66745W        W30678  14.724  34.395  14.368
66746W        W30679  30.030  35.552  12.027
66747W        W30680  28.156  20.550   4.777
66748W        W30681  28.439  28.144   0.260
66749W        W30682  20.166  28.518   3.378
66750W        W30683   1.241  26.501  13.457
66751W        W30684  25.070  11.747   1.433
66752W        W30685  23.035  17.110   2.771
66753W        W30686  15.648  22.151  12.549
66754W        W30687  12.256  12.250  12.925
66755W        W30688  42.947  21.659  12.005
66756W        W30689  43.365  15.240   1.930
66757W        W30690  35.373  40.890  11.441
66758W        W30691  12.778  33.603   2.392
66759W        W30692  44.782  11.135  13.417
66760W        W30693   3.337   6.272  14.946
66761W        W30694  40.430   4.346   4.750
66762W        W30695  36.372  30.930  10.628
66763W        W30696   0.881  11.152   1.364
66764W        W30697  33.596  26.964   2.747
66765W        W30698   0.324  22.219   2.777
66766W        W30699  32.051  14.129   3.862
66767W        W30700  14.293  26.127   3.226
66768W        W30701   0.280   2.908  11.913
66769W        W30702  39.393  22.153   4.121
66770W        W30703   2.367  15.684   1.215
66771W        W30704  38.394  16.075  14.894
66772W        W30705  43.997  11.253   2.723
66773W        W30706  29.118  36.987   3.701
66774W        W30707  24.532   2.759  12.394
66775W        W30708  17.593  11.718  10.408
66776W        W30709  33.936  32.088   2.707
66777W        W30710  17.727  27.630  13.981
66778W        W30711  34.544  24.663   3.324
66779W        W30712  35.865  30.447   0.850
66780W        W30713   8.255  25.170  10.983
66781W        W30714  41.518   2.234   4.283
66782W        W30715   6.763  43.778  11.078
66783W        W30716   2.362  28.092  14.818
66784W        W30717  21.238   9.791   5.109
66785W        W30718   8.372   9.224  10.967
66786W        W30719   9.761  17.159   0.265
66787W        W30720  28.001  21.706   0.449
66788W        W30721  12.147   6.701  12.891
66789W        W30722   1.331  13.619  13.799
66790W        W30723  14.638  41.809  14.990
66791W        W30724  25.580  36.562  13.886
66792W        W30725  16.226  29.620   0.330
66793W        W30726   6.272  21.685  14.001
66794W        W30727  39.987  17.756  10.902
66795W        W30728  27.992  12.352  13.020
66796W        W30729  30.569   1.278  14.507
66797W        W30730  17.259  29.019  10.491
66798W        W30731  31.425   9.197  12.559
66799W        W30732   2.876   4.242  12.432
66800W        W30733  40.461  11.726   0.324
66801W        W30734  20.727  14.260   2.674
66802W        W30735   8.794  17.162  12.846
66803W        W30736  39.467  23.669   2.220
66804W        W30737   9.382   9.657   1.882
66805W        W30738  39.360  19.075  13.349
66806W        W30739  19.210  34.591   0.440
66807W        W30740  17.701  15.652  13.520
66808W        W30741   4.415  21.628   1.231
66809W        W30742  43.841   8.316  10.594
66810W        W30743  12.244  35.925   0.846
66811W        W30744  39.358  20.119   1.364
66812W        W30745  38.451  18.155  14.275
66813W        W30746  31.139  18.557   3.644
66814W        W30747  10.183   3.938  11.014
66815W        W30748  29.574   0.493   0.358
66816W        W30749   5.839  38.877   0.730
66817W        W30750  27.516  17.090  14.329
66818W        W30751  23.138  19.533   2.896
66819W        W30752  15.317  14.629   2.801
66820W        W30753   7.181   4.755  11.493
66821W        W30754   8.284   7.877  14.859
66822W        W30755  41.924  13.657   1.274
66823W        W30756  11.677  44.388  10.529
66824W        W30757   5.422  21.145   0.341
66825W        W30758  29.100  43.501  11.546
66826W        W30759  18.223  20.681  10.117
66827W        W30760  43.304  31.997   2.811
66828W        W30761   1.755  10.306  14.946
66829W        W30762  15.183  23.687   3.638
66830W        W30763   9.357   9.330  12.482
66831W        W30764  24.491  38.026  12.445
66832W        W30765  42.462   5.876  14.493
66833W        W30766  19.706  42.361  12.828
66834W        W30767   4.832  18.192   2.234
66835W        W30768  35.980  13.669  12.877
66836W        W30769  12.182  33.460   3.778
66837W        W30770  38.351  34.078   3.212
66838W        W30771  22.540  38.845   2.310
66839W        W30772  26.600   4.710  12.521
66840W        W30773  34.531  15.328   1.240
66841W        W30774  37.415  23.039  12.960
66842W        W30775  36.970  36.451   0.898
66843W        W30776  23.002   3.714  14.874
66844W        W30777  35.443  21.606   1.254
66845W        W30778  44.352  39.529  11.604
66846W        W30779  31.981  32.508  14.893
66847W        W30780   7.726  42.944  10.600
66848W        W30781  37.898  43.917   0.792
66849W        W30782  13.168  16.315  12.928
66850W        W30783  22.046  34.867   0.840
66851W        W30784  29.082  35.018   0.344
66852W        W30785   6.371   3.751  11.466
66853W        W30786  44.870  27.625   3.231
66854W        W30787  36.986   4.219   1.219
66855W        W30788   5.765  44.414  10.139
66856W        W30789  43.008  31.120  11.868
66857W        W30790  35.457   7.874  12.418
66858W        W30791  43.982  11.140  10.472
66859W        W30792   0.372  12.706  13.926
66860W        W30793  32.027  12.269   4.811
66861W        W30794  41.891  21.531  12.340
66862W        W30795   5.336   6.216  12.002
66863W        W30796  13.145  29.969   2.220
66864W        W30797  15.765  37.442  10.968
66865W        W30798  33.474  28.507  13.975
66866W        W30799  31.603  42.021   1.797
66867W        W30800  18.278   1.382  11.091
66868W        W30801  37.346  38.024   0.441
66869W        W30802   9.168  22.662   4.838
66870W        W30803  43.989  19.644   0.895
66871W        W30804  29.925  12.168  13.888
66872W        W30805  42.029  34.609  10.473
66873W        W30806  41.441  13.703  12.422
66874W        W30807  39.496  29.034  10.903
66875W        W30808  43.516  44.877  10.889
66876W        W30809   4.431  29.617  12.983
66877W        W30810   3.244   5.840   3.203
66878W        W30811  42.936  19.664  10.159
66879W        W30812  10.140  43.274  11.121
66880W        W30813  30.500  20.682  13.504
66881W        W30814   4.756   9.209  13.897
66882W        W30815   0.905  41.953   1.730
66883W        W30816  40.402  16.740   4.209
66884W        W30817  28.995  25.543   0.816
66885W        W30818  25.552  14.119  10.998
66886W        W30819  37.437  36.941  14.385
66887W        W30820  16.717   2.806  13.899
66888W        W30821  36.362  32.914  13.801
66889W        W30822  43.862  12.339  14.010
66890W        W30823  19.204  32.480  14.766
66891W        W30824   1.367  21.238  14.388
66892W        W30825  24.219  13.708   3.372
66893W        W30826  16.237  39.916  14.980
66894W        W30827   6.393  27.098  10.492
66895W        W30828   5.200  40.343  13.912
66896W        W30829  42.857   9.190  11.030
66897W        W30830  38.514  20.120   1.866
66898W        W30831  26.040  14.734   4.606
66899W        W30832  30.016  25.518  14.447
66900W        W30833  14.727  18.217  12.844
66901W        W30834  14.688   4.395   0.267
66902W        W30835  43.787  41.951   2.294
66903W        W30836  38.342  11.855   4.120
66904W        W30837   3.764  14.182  13.393
66905W        W30838  35.989  10.872   2.837
66906W        W30839  36.876  12.330   1.400
66907W        W30840  42.925  11.727  12.362
66908W        W30841  37.388  41.847  12.854
66909W        W30842  21.145  42.874   1.214
66910W        W30843   5.799  30.420   2.372
66911W        W30844  33.929  14.718  12.960
66912W        W30845   8.734  41.967  12.498
66913W        W30846  23.697  16.246   4.175
66914W        W30847  42.430   8.774   0.265
66915W        W30848  12.737   4.935   4.729
66916W        W30849  41.471  39.554   3.333
66917W        W30850   2.798  30.031  14.297
66918W        W30851  33.103  17.750  10.963
66919W        W30852  31.475  18.119  14.310
66920W        W30853  30.062  41.380   1.375
66921W        W30854  23.002   2.961  14.020
66922W        W30855  43.418  38.892   9.506
66923W        W30856  27.192  21.716  11.575
66924W        W30857   3.853  31.929   2.252
66925W        W30858   1.249  44.489   3.749
66926W        W30859  41.329   7.771   3.355
66927W        W30860  38.911  32.594   0.911
66928W        W30861  42.830   3.788   1.383
66929W        W30862   0.423   7.345  14.417
66930W        W30863  35.950  12.763   0.773
66931W        W30864   8.665  31.904  11.113
66932W        W30865  44.828  27.611  14.282
66933W        W30866  36.945  15.580  10.138
66934W        W30867   2.433  15.670   2.316
66935W        W30868  12.797   8.269   1.777
66936W        W30869  19.685  32.889   2.215
66937W        W30870  19.280  26.184  10.905
66938W        W30871   9.779  13.697  11.926
66939W        W30872   1.277  24.029  11.901
66940W        W30873  20.764  31.560  12.843
66941W        W30874  10.738  31.047  14.437
66942W        W30875   2.450  38.398  11.469
66943W        W30876  13.160  21.176   2.863
66944W        W30877  33.940  44.370   4.729
66945W        W30878   5.415  40.401   0.750
66946W        W30879  10.837  10.168   3.787
66947W        W30880  32.065  42.505   3.249
66948W        W30881   3.778   1.963  14.290
66949W        W30882   3.903   7.383   2.875
66950W        W30883  33.984  35.441  12.362
66951W        W30884  15.594  38.075  10.560
66952W        W30885  26.599  10.685  14.347
66953W        W30886   1.853  31.001  10.627
66954W        W30887  44.906  31.074  11.904
66955W        W30888  18.548  10.877   3.783
66956W        W30889   9.395  21.720  13.436
66957W        W30890  28.042   2.838   2.282
66958W        W30891  13.763  44.494   1.879
66959W        W30892   5.355   3.447   0.432
66960W        W30893   6.901  25.547   0.819
66961W        W30894  33.413  12.155   0.959
66962W        W30895  10.725  32.426   1.290
66963W        W30896  28.667  11.723   1.773
66964W        W30897  17.299  13.679  12.449
66965W        W30898  22.603  18.194  14.425
66966W        W30899  34.110  13.696   2.292
66967W        W30900  29.035  18.657   1.308
66968W        W30901  23.105  19.280   1.918
66969W        W30902   0.270   6.243  10.902
66970W        W30903  39.315  40.543   4.204
66971W        W30904  40.928  33.120   4.649
66972W        W30905  35.450  39.427   1.735
66973W        W30906  26.181   9.162   1.252
66974W        W30907  10.346  26.604  14.290
66975W        W30908   9.251  17.641   0.311
66976W        W30909  25.148  19.274  14.813
66977W        W30910  39.026  25.093   0.786
66978W        W30911  43.771  26.179   2.749
66979W        W30912  29.951  21.185  12.572
66980W        W30913  42.291   2.379  13.018
66981W        W30914  37.480   6.749  13.333
66982W        W30915  40.885  18.173  12.521
66983W        W30916  28.573  17.296  13.370
66984W        W30917  42.027  26.155  12.442
66985W        W30918   0.877  18.687   0.763
66986W        W30919  15.203  33.516  14.850
66987W        W30920  38.968   2.356   3.761
66988W        W30921  11.656  31.983  12.090
66989W        W30922  30.597  18.180  12.024
66990W        W30923  44.330  36.386  10.561
66991W        W30924  22.157  28.515  11.078
66992W        W30925  36.525   7.298   4.158
66993W        W30926  30.475  31.914  10.567
66994W        W30927  36.427  43.301   1.758
66995W        W30928  44.757   6.217   2.802
66996W        W30929  36.355  34.898  10.923
66997W        W30930   6.762  31.414  12.555
66998W        W30931  26.088  20.187   2.189
66999W        W30932  30.592   6.913   1.359
67000W        W30933  13.272  14.773  12.955
67001W        W30934   9.294  27.959   2.746
67002W        W30935  23.036  24.492  13.913
67003W        W30936   9.798   6.712   0.838
67004W        W30937  44.504  38.461  11.121
67005W        W30938   1.794  43.912   3.673
67006W        W30939  28.544   8.260   3.654
67007W        W30940  26.967  29.083  13.511
67008W        W30941  26.530   1.316   2.368
67009W        W30942  21.105   1.934  10.528
67010W        W30943  42.009   7.386   0.353
67011W        W30944   7.776   3.389  11.952
67012W        W30945  18.100   1.953   1.235
67013W        W30946  16.747  42.872   3.328
67014W        W30947  27.626  42.897  10.018
67015W        W30948  42.521  42.309   0.254
67016W        W30949  30.510  10.192  12.488
67017W        W30950  22.031  26.656  13.512
67018W        W30951   9.743  33.409   0.840
67019W        W30952   4.278  10.837  11.116
67020W        W30953  32.565  26.691   3.671
67021W        W30954  44.278  43.770  10.452
67022W        W30955  37.354  10.244  11.040
67023W        W30956  18.562   5.687   4.710
67024W        W30957  29.437  12.323   0.296
67025W        W30958  40.403   0.458  13.479
67026W        W30959   2.404  40.937   0.473
67027W        W30960  28.645   9.652   3.729
67028W        W30961  13.840   9.365  11.399
67029W        W30962  28.567  43.442   4.661
67030W        W30963  18.073  13.651   1.332
67031W        W30964  18.683  29.158   2.353
67032W        W30965  31.522   3.363   2.893
67033W        W30966  43.844  24.145   4.341
67034W        W30967   7.180  23.008  11.916
67035W        W30968  41.988  35.362  10.632
67036W        W30969   3.758   7.176   0.783
67037W        W30970  19.277  23.685   4.611
67038W        W30971   1.265   8.854   1.386
67039W        W30972  17.213  35.461   4.160
67040W        W30973   6.866  25.199   0.420
67041W        W30974   0.981  16.725  10.463
67042W        W30975   3.891  15.296  12.091
67043W        W30976  19.187  17.730  12.922
67044W        W30977  28.052  41.374   4.115
67045W        W30978  18.111  16.224  12.076
67046W        W30979   5.912   1.812   1.893
67047W        W30980  15.644   4.864  14.860
67048W        W30981  28.186   5.267   4.675
67049W        W30982  41.974  41.322   4.178
67050W        W30983   9.867  19.765   4.638
67051W        W30984  42.302  12.188  12.448
67052W        W30985   2.774  17.738  13.040
67053W        W30986   0.845  17.577   1.435
67054W        W30987  38.539  44.392  11.957
67055W        W30988   2.413  38.945   0.267
67056W        W30989  27.636   3.829  14.859
67057W        W30990  18.096  42.527  14.988
67058W        W30991  44.789  14.827  12.922
67059W        W30992  17.084  33.085  12.532
67060W        W30993  18.753  31.573  14.844
67061W        W30994   2.770  26.047  11.007
67062W        W30995   6.355  30.072  11.522
67063W        W30996   3.342  19.651  14.303
67064W        W30997  34.065  44.870  12.919
67065W        W30998  24.019  22.191   0.838
67066W        W30999  16.072   1.850  14.907
67067W        W31000  10.347   2.312   0.295
67068W        W31001   0.887  13.262   3.178
67069W        W31002   4.804  21.546  14.832
67070W        W31003   7.882   4.885  13.409
67071W        W31004  30.578  12.733  11.406
67072W        W31005  42.522   1.371   4.766
67073W        W31006  34.606  20.168  13.012
67074W        W31007  12.280  13.645   4.165
67075W        W31008  42.961  31.607   1.319
67076W        W31009   6.915  20.246  10.994
67077W        W31010  10.719  11.160  14.289
67078W        W31011  35.413  40.881   0.955
67079W        W31012  23.663  10.318   0.350
67080W        W31013  25.478  25.972  11.511
67081W        W31014   0.749  25.553   1.812
67082W        W31015   2.907  17.769   0.902
67083W        W31016  16.581  29.997   3.234
67084W        W31017  20.195  34.440  14.979
67085W        W31018  21.184  34.524  11.047
67086W        W31019  21.753  27.971  13.518
67087W        W31020  18.596  36.092   1.714
67088W        W31021  22.505   6.890  14.767
67089W        W31022  44.915  39.883   2.189
67090W        W31023  33.032  20.230   1.224
67091W        W31024  16.755  16.734   5.755
67092W        W31025  42.325  38.386  12.572
67093W        W31026  37.506  27.123  12.376
67094W        W31027  24.570   9.702   4.187
67095W        W31028  22.722   2.358   0.967
67096W        W31029  18.114  19.159  14.456
67097W        W31030  40.998  21.653  13.975
67098W        W31031   6.775  33.875   4.797
67099W        W31032  40.810  40.912   4.818
67100W        W31033  22.193   9.156  13.868
67101W        W31034  22.607  22.247  10.959
67102W        W31035  21.184  37.990  12.460
67103W        W31036  29.963   2.803   3.323
67104W        W31037  37.908  31.992   4.122
67105W        W31038  26.133  33.611   4.611
67106W        W31039  15.258  19.707  14.502
67107W        W31040  11.306   5.862  12.962
67108W        W31041  33.447  32.392  11.470
67109W        W31042  38.431  33.607   1.278
67110W        W31043  34.899   7.774  10.590
67111W        W31044  35.054  25.988  14.032
67112W        W31045  18.259   4.373  14.989
67113W        W31046  10.360  17.685   1.451
67114W        W31047   5.196  44.981  11.024
67115W        W31048  29.146  41.394  11.487
67116W        W31049   9.287  41.827   2.796
67117W        W31050  12.174  26.567   3.864
67118W        W31051   5.801  43.411   3.814
67119W        W31052  22.113  29.950   4.823
67120W        W31053  41.410  43.867  11.611
67121W        W31054  32.083  39.371   0.377
67122W        W31055   4.298   2.769  13.480
67123W        W31056  34.959  40.909   2.418
67124W        W31057   6.303  35.577   2.249
67125W        W31058   2.321  13.678  11.569
67126W        W31059  37.474  15.097   1.730
67127W        W31060  17.720  20.701   4.615
67128W        W31061   9.744  39.511  11.055
67129W        W31062   8.774   4.924  12.577
67130W        W31063  44.930  20.209  12.889
67131W        W31064  39.060  31.639  10.917
67132W        W31065  43.478  29.608   1.919
67133W        W31066  27.677   0.439   1.892
67134W        W31067  35.498  33.598   0.900
67135W        W31068  22.233  14.294  12.449
67136W        W31069  33.540  26.458   1.247
67137W        W31070   4.761  35.990   3.210
67138W        W31071  18.764  42.492  11.560
67139W        W31072  14.694  40.845   3.731
67140W        W31073  20.074   6.317   0.933
67141W        W31074  36.460   3.710   2.667
67142W        W31075  24.108   7.257   0.386
67143W        W31076  31.135  17.254   0.773
67144W        W31077   8.783   9.850   4.784
67145W        W31078  23.733  10.347  13.842
67146W        W31079  29.631  32.524   4.708
67147W        W31080  30.422   3.712  13.827
67148W        W31081  13.145  11.752   2.796
67149W        W31082  28.043  12.286   1.747
67150W        W31083  26.067   9.860   4.642
67151W        W31084  37.035  26.985  13.331
67152W        W31085  32.619  15.777  11.611
67153W        W31086   0.375  19.671  13.384
67154W        W31087  10.818  24.649  11.612
67155W        W31088  41.896  12.166  10.951
67156W        W31089  42.007  41.918   3.679
67157W        W31090  25.142  29.161  12.545
67158W        W31091   9.298  14.328   0.359
67159W        W31092  29.565   5.292  13.035
67160W        W31093  13.282  40.916  11.611
67161W        W31094  32.451  35.595  11.021
67162W        W31095  24.107  41.486  12.467
67163W        W31096  28.587  23.133  10.470
67164W        W31097  19.618  29.654  10.928
67165W        W31098  21.721  44.971   2.792
67166W        W31099  17.654  43.015  14.340
67167W        W31100  19.541  21.622   3.860
67168W        W31101  32.479   8.181  14.388
67169W        W31102  15.641   2.269   2.186
67170W        W31103  19.148  39.400  14.025
67171W        W31104  37.551  25.635   1.393
67172W        W31105  22.219  33.537   4.272
67173W        W31106  42.852  38.530   5.282
67174W        W31107  21.192  39.486  10.497
67175W        W31108  20.180   2.811  12.881
67176W        W31109  12.327  17.166   4.225
67177W        W31110  39.418  17.685   4.333
67178W        W31111   6.204  21.074  14.335
67179W        W31112  22.047  12.237   1.707
67180W        W31113  38.372  34.989  14.963
67181W        W31114  19.237  43.462  12.058
67182W        W31115   9.809  37.840  13.385
67183W        W31116  17.635  30.005   2.764
67184W        W31117   7.850   3.314   0.337
67185W        W31118  21.520   4.930   4.747
67186W        W31119  23.020  16.686   1.695
67187W        W31120  38.066   9.236   1.883
67188W        W31121   4.936  31.413  14.917
67189W        W31122  12.285  43.857   3.184
67190W        W31123  12.653  31.551  11.892
67191W        W31124  29.505  27.126  13.539
67192W        W31125  37.996  39.012  10.940
67193W        W31126  14.174  19.547   3.373
67194W        W31127  31.464   0.268   0.794
67195W        W31128  28.621  24.720  13.822
67196W        W31129  32.544  17.263   1.804
67197W        W31130   2.228  17.568   4.281
67198W        W31131  24.057   4.412   0.459
67199W        W31132  20.732  30.000  14.986
67200W        W31133  12.141  42.793   3.378
67201W        W31134  20.674  40.489   0.952
67202W        W31135  13.199   1.473  12.546
67203W        W31136  22.147  26.026   1.306
67204W        W31137   0.278   5.297   0.913
67205W        W31138  26.064   2.878  12.064
67206W        W31139  23.056  42.903  12.573
67207W        W31140  16.778   4.355   4.817
67208W        W31141   9.679  30.627  12.551
67209W        W31142  14.772  11.329  11.611
67210W        W31143  16.279   0.327  14.923
67211W        W31144  11.310  21.248   2.258
67212W        W31145  28.063  14.628  12.095
67213W        W31146  13.259  19.056   0.863
67214W        W31147  17.687  19.594   4.823
67215W        W31148  38.063  22.549  13.479
67216W        W31149  32.436   6.313   1.921
67217W        W31150  33.928   9.261   0.379
67218W        W31151  24.509  13.676  10.541
67219W        W31152   8.899  22.708  11.405
67220W        W31153  28.069   1.293   2.718
67221W        W31154  10.344  10.753  11.072
67222W        W31155  35.458   0.978   3.227
67223W        W31156   5.247  25.479  11.461
67224W        W31157   6.848  41.355  12.892
67225W        W31158  43.901  22.194   1.324
67226W        W31159  13.171   2.805  11.983
67227W        W31160   8.223  19.674   1.800
67228W        W31161  22.052  34.470   0.310
67229W        W31162  38.919  13.844   0.876
67230W        W31163   3.729  13.164  14.348
67231W        W31164  34.923  41.820  13.470
67232W        W31165  23.217   7.859   4.299
67233W        W31166  31.050  40.902   3.704
67234W        W31167   8.830   3.940  12.400
67235W        W31168   2.314   4.419   0.743
67236W        W31169  41.821  41.365  10.589
67237W        W31170  19.133  21.602  10.977
67238W        W31171  38.053  24.512  14.824
67239W        W31172  18.744  44.307  14.328
67240W        W31173  17.629  41.011   0.798
67241W        W31174  23.567  24.713   4.191
67242W        W31175  34.502  12.343   0.845
67243W        W31176  21.250   5.883  13.863
67244W        W31177   5.732  37.512  11.984
67245W        W31178  41.522  43.933   4.800
67246W        W31179  19.088  27.449  14.421
67247W        W31180  10.344  20.610  14.761
67248W        W31181  44.834   1.881  10.464
67249W        W31182   5.388  16.729  12.556
67250W        W31183  31.982  26.519  13.344
67251W        W31184  20.050  17.740   0.834
67252W        W31185  28.124  25.714  10.458
67253W        W31186  23.027   5.325  11.386
67254W        W31187  32.467  17.797  11.378
67255W        W31188  20.040  26.075  11.574
67256W        W31189  33.541  44.825  13.046
67257W        W31190  30.618  23.721  13.922
67258W        W31191   2.948  29.511   1.908
67259W        W31192  31.569   9.264   4.123
67260W        W31193  15.132  39.926   4.226
67261W        W31194  26.044  38.389  10.622
67262W        W31195   0.938   4.315   3.717
67263W        W31196  37.468  31.116   3.754
67264W        W31197  43.793  16.572  13.964
67265W        W31198  44.794   0.253  13.435
67266W        W31199  41.319  11.759   3.194
67267W        W31200  11.138  43.435   0.314
67268W        W31201   8.878  29.071   4.607
67269W        W31202  26.124  13.669   0.351
67270W        W31203  38.324   2.270   2.230
67271W        W31204  11.714  26.661   1.801
67272W        W31205   3.817  26.653  13.043
67273W        W31206  15.792  41.839  13.000
67274W        W31207  30.968  32.613  12.835
67275W        W31208   8.204  29.930  10.538
67276W        W31209  14.631  33.528  13.999
67277W        W31210  14.101  28.135  10.618
67278W        W31211  17.299  24.677   0.301
67279W        W31212  35.066  28.605  13.504
67280W        W31213  38.943  34.400  11.109
67281W        W31214   8.304  33.087  11.908
67282W        W31215  34.996   4.386  13.440
67283W        W31216  42.284  39.931  10.457
67284W        W31217  14.600  41.330  10.949
67285W        W31218  17.646  39.553   5.307
67286W        W31219   0.928  26.611   1.728
67287W        W31220  16.710  12.344   4.157
67288W        W31221   6.380   8.663  12.543
67289W        W31222  28.445   8.876  11.451
67290W        W31223  20.212  21.158  14.418
67291W        W31224  34.428  27.126   3.655
67292W        W31225  30.518  42.321   3.182
67293W        W31226  32.132  40.383   1.266
67294W        W31227  24.023  17.225   0.376
67295W        W31228  20.089  36.015   0.924
67296W        W31229  10.299  41.846  12.457
67297W        W31230  30.083  10.870  12.407
67298W        W31231  43.419  12.776  14.786
67299W        W31232  12.123  24.695   4.774
67300W        W31233  28.127  35.937  13.057
67301W        W31234   5.339   6.245  10.415
67302W        W31235   4.394   4.784   3.642
67303W        W31236  35.408  25.212   0.740
67304W        W31237  38.519  39.443  12.844
67305W        W31238  38.910  36.843  12.427
67306W        W31239  19.705  22.582  14.766
67307W        W31240  32.031   1.775   3.384
67308W        W31241  43.486   1.866  14.787
67309W        W31242  25.599   4.236   1.429
67310W        W31243  42.435   0.942   1.264
67311W        W31244  34.448  37.402  14.453
67312W        W31245  44.441   4.382   4.624
67313W        W31246  12.832   0.919   1.846
67314W        W31247   0.453  25.144   0.828
67315W        W31248  32.903  28.105  12.558
67316W        W31249   9.699  18.136   4.313
67317W        W31250  30.062  34.426  13.846
67318W        W31251  31.582  25.981   1.242
67319W        W31252   1.879   8.734  12.552
67320W        W31253  32.566   4.308  11.977
67321W        W31254  25.582   0.842  14.978
67322W        W31255  41.892  28.510   1.383
67323W        W31256  21.722  41.852  11.908
67324W        W31257  30.935  18.749   0.290
67325W        W31258   0.415   6.850  12.087
67326W        W31259  11.326   0.833  13.038
67327W        W31260  33.579  19.730  12.500
67328W        W31261  21.106   9.258  11.949
67329W        W31262  15.812   1.325   1.719
67330W        W31263  12.768  28.946   1.432
67331W        W31264   7.293  32.017  12.404
67332W        W31265  33.508  10.792   1.909
67333W        W31266   7.329  39.479   3.708
67334W        W31267  33.892  10.695  13.479
67335W        W31268   4.405  14.222   3.385
67336W        W31269  29.601  11.859  12.501
67337W        W31270  10.797   3.453  11.472
67338W        W31271  35.972  26.591   1.699
67339W        W31272  21.520  25.218  13.058
67340W        W31273  37.520  43.492  13.426
67341W        W31274  12.241  43.459  10.424
67342W        W31275  34.585  23.210  11.498
67343W        W31276   7.371  22.539  10.069
67344W        W31277  32.514  39.316  14.339
67345W        W31278   2.256  25.017   3.782
67346W        W31279   8.756  33.554  14.814
67347W        W31280  13.295  35.409   0.907
67348W        W31281  37.541   3.264  12.041
67349W        W31282  41.440  38.866   0.314
67350W        W31283  42.374  38.856  14.450
67351W        W31284  20.750  21.089   4.192
67352W        W31285  38.434  38.504   2.792
67353W        W31286  41.955  41.296  12.997
67354W        W31287  31.137  31.134   3.674
67355W        W31288  11.266  30.629  12.514
67356W        W31289  22.008  33.540  12.988
67357W        W31290   4.911  19.572   0.428
67358W        W31291  32.568  35.552   4.143
67359W        W31292  25.570  44.962   1.801
67360W        W31293  12.147  17.228  12.089
67361W        W31294  30.931   9.290   0.252
67362W        W31295  37.861  37.576   1.735
67363W        W31296  22.597  18.081  13.538
67364W        W31297  30.473  36.913   4.314
67365W        W31298  22.583   3.318  14.945
67366W        W31299  10.297  39.351  13.496
67367W        W31300  38.829  31.616  10.404
67368W        W31301   7.826  35.966  10.038
67369W        W31302  10.227  26.487   1.357
67370W        W31303  28.645  36.070   3.769
67371W        W31304  27.550  13.659  14.911
67372W        W31305  11.807  38.554   1.705
67373W        W31306  25.212  31.521  11.056
67374W        W31307   6.389  25.687   3.241
67375W        W31308   8.870   1.758   3.669
67376W        W31309   5.721  19.728   3.312
67377W        W31310  19.639  30.968   2.405
67378W        W31311  38.833  24.690   0.403
67379W        W31312  15.769   3.797   2.799
67380W        W31313  41.440  30.645  10.482
67381W        W31314  17.778  33.554   2.358
67382W        W31315  24.165  22.036  12.095
67383W        W31316  11.163   3.444   1.730
67384W        W31317   8.232  35.507   4.165
67385W        W31318  16.740  21.530  12.009
67386W        W31319  17.773  35.088   4.798
67387W        W31320  29.484   3.275   3.277
67388W        W31321  18.284  36.048   3.859
67389W        W31322  26.699  30.928   2.902
67390W        W31323   2.960   9.700  12.864
67391W        W31324   5.271  22.185   3.168
67392W        W31325  31.465   3.901  13.885
67393W        W31326  32.920  38.853  14.780
67394W        W31327   5.818  42.490  14.792
67395W        W31328  21.570  43.974  12.851
67396W        W31329   2.729  29.061  11.539
67397W        W31330   0.753  16.104  12.449
67398W        W31331  37.878  23.022  12.498
67399W        W31332  17.189  10.237   4.616
67400W        W31333  36.416  14.601   3.270
67401W        W31334  14.715  12.236   2.352
67402W        W31335   8.189   4.762   4.755
67403W        W31336  29.501   3.812  11.121
67404W        W31337   7.772   3.744   3.659
67405W        W31338  43.997  37.472   4.261
67406W        W31339  27.562  13.304  14.914
67407W        W31340  14.101   6.196   3.673
67408W        W31341  21.125   3.438  11.897
67409W        W31342  31.051  10.763   4.789
67410W        W31343  25.092  40.361  10.507
67411W        W31344  19.688  20.528  14.787
67412W        W31345  28.514   6.247  11.495
67413W        W31346  10.875  36.986  12.010
67414W        W31347  38.877  27.187   2.214
67415W        W31348  10.161  10.217   1.768
67416W        W31349  22.232   1.975  14.914
67417W        W31350  35.369  33.484   3.189
67418W        W31351  39.483  12.707   0.830
67419W        W31352  36.868  38.493   4.241
67420W        W31353  12.336   6.381  11.542
67421W        W31354  22.082  40.326   1.743
67422W        W31355  10.312  19.185   1.242
67423W        W31356  25.063  27.451   1.310
67424W        W31357   6.744  23.100   2.335
67425W        W31358  24.561  26.955  14.891
67426W        W31359   0.922  37.986  14.508
67427W        W31360   3.343  33.977   3.173
67428W        W31361  32.414  29.621   0.950
67429W        W31362  10.186  32.106  13.345
67430W        W31363  33.878  14.786   2.283
67431W        W31364  13.151  27.541   2.685
67432W        W31365  28.185  37.524   4.139
67433W        W31366  42.389  15.261  14.368
67434W        W31367   2.792   4.336   0.256
67435W        W31368  20.091   2.309   1.846
67436W        W31369  16.806  44.901  10.425
67437W        W31370   4.737  34.559   3.227
67438W        W31371  19.705  23.119   0.943
67439W        W31372  27.556  20.551   2.819
67440W        W31373  16.719   8.710  12.463
67441W        W31374  39.322  30.006   0.387
67442W        W31375   5.239  31.130  13.847
67443W        W31376   1.276  14.217   3.684
67444W        W31377  23.594  31.539  14.862
67445W        W31378  28.603   5.259  14.837
67446W        W31379   0.268  33.610   2.853
67447W        W31380  33.126   3.401   3.255
67448W        W31381  17.561   9.801   3.312
67449W        W31382   0.414  39.390  12.493
67450W        W31383  21.037   1.467   3.339
67451W        W31384   9.225  14.260  11.091
67452W        W31385  17.610  32.120  13.520
67453W        W31386  29.521  11.788  14.451
67454W        W31387  25.635  35.102  11.426
67455W        W31388  29.474  14.235   1.905
67456W        W31389  25.005  35.535  12.059
67457W        W31390  30.572  23.735  14.790
67458W        W31391  31.078  28.638  12.007
67459W        W31392   0.472  39.006   4.310
67460W        W31393  30.046  42.290  13.429
67461W        W31394   5.746  28.493   2.323
67462W        W31395   0.875  44.881  11.879
67463W        W31396   9.722  30.597   0.323
67464W        W31397  34.373  12.249   2.182
67465W        W31398  37.060  33.539  11.002
67466W        W31399  25.468  28.004   3.840
67467W        W31400  28.025  28.457   0.801
67468W        W31401  19.111  23.058  14.904
67469W        W31402  22.182  16.196   4.772
67470W        W31403   0.270  33.073  12.007
67471W        W31404  10.180  25.573  11.549
67472W        W31405  38.983   2.854   2.664
67473W        W31406  15.287  31.623  12.983
67474W        W31407  20.164  23.002  12.531
67475W        W31408   7.301   1.255   4.172
67476W        W31409  33.065  14.126  14.434
67477W        W31410  14.749  24.107   4.276
67478W        W31411   9.796  24.023   9.532
67479W        W31412   4.747  41.880  11.856
67480W        W31413  23.566  36.953  13.808
67481W        W31414  24.568  36.380   4.204
67482W        W31415   1.237   3.309   4.192
67483W        W31416  17.789  17.236  12.954
67484W        W31417  38.548  42.798  11.380
67485W        W31418  39.841  42.480  12.937
67486W        W31419  15.671  18.729  13.472
67487W        W31420   4.405  18.625  12.961
67488W        W31421  32.554  17.207  13.470
67489W        W31422  11.858  12.209   4.217
67490W        W31423   0.891  35.025  10.611
67491W        W31424  21.703   3.774  13.903
67492W        W31425  32.599  28.053  14.346
67493W        W31426  44.947  21.651   0.428
67494W        W31427  19.604  16.138   3.809
67495W        W31428  38.561  18.220   1.332
67496W        W31429  27.051  38.453  11.099
67497W        W31430   2.899  36.938   1.242
67498W        W31431  27.632  19.269   4.125
67499W        W31432  28.022  10.641  13.985
67500W        W31433  41.343   6.410   1.273
67501W        W31434   8.367   2.466  11.492
67502W        W31435  44.888  17.786  12.551
67503W        W31436  39.348  13.215  13.370
67504W        W31437  21.090  16.204   0.862
67505W        W31438  14.186   0.268   3.839
67506W        W31439  33.005  43.843  14.388
67507W        W31440  32.015  12.300   1.804
67508W        W31441  15.228  42.431   2.410
67509W        W31442  29.087  43.400   1.278
67510W        W31443   6.716   9.275   1.399
67511W        W31444  43.379  23.578  14.414
67512W        W31445  34.083  23.702  13.405
67513W        W31446  19.243  17.672   3.357
67514W        W31447   6.743  33.919   0.944
67515W        W31448  11.268  31.910   4.607
67516W        W31449  18.633   1.853   1.445
67517W        W31450   9.653  31.094   0.419
67518W        W31451  35.592  28.085  11.857
67519W        W31452   9.152  21.180  13.049
67520W        W31453  10.374   4.204  10.975
67521W        W31454   7.369  17.663  12.046
67522W        W31455  39.976  30.498  11.867
67523W        W31456  10.295  16.191  11.438
67524W        W31457   2.250  26.988   4.185
67525W        W31458   4.929  10.150  14.459
67526W        W31459  24.136  20.729   2.842
67527W        W31460  36.057  44.984  14.378
67528W        W31461   3.831   9.266  13.353
67529W        W31462  15.329  27.539  13.865
67530W        W31463  31.072  33.043   0.313
67531W        W31464   7.779   7.283  12.901
67532W        W31465   8.747  28.101  14.776
67533W        W31466  19.575   6.747  12.871
67534W        W31467  21.202  23.582   3.856
67535W        W31468  12.229  17.672   1.808
67536W        W31469  25.213  21.568   0.302
67537W        W31470  35.011  36.861  11.385
67538W        W31471  22.187  23.626  13.036
67539W        W31472   4.855  39.483  13.965
67540W        W31473   5.404  13.133  13.837
67541W        W31474  27.551  41.912   2.681
67542W        W31475   2.377  16.082   2.243
67543W        W31476   1.351   5.852  14.901
67544W        W31477  40.411  16.090   2.182
67545W        W31478   9.373  19.281   4.809
67546W        W31479  23.546  31.590   2.702
67547W        W31480   0.297  24.073   2.898
67548W        W31481  25.011  26.631   0.318
67549W        W31482  36.410  22.695   3.671
67550W        W31483   8.383  41.402   2.703
67551W        W31484  17.108   0.439  12.009
67552W        W31485  24.532  10.315  12.827
67553W        W31486  17.756  19.259   0.879
67554W        W31487  24.050  40.923  11.109
67555W        W31488  10.224  14.104   2.713
67556W        W31489  17.222  15.618   1.396
67557W        W31490  26.169  11.675  14.946
67558W        W31491  20.107  36.422   2.812
67559W        W31492  13.249  34.908  14.385
67560W        W31493  42.839   5.727   0.256
67561W        W31494  22.721  25.051  11.412
67562W        W31495  41.913  43.437  11.556
67563W        W31496  37.366   3.856   5.100
67564W        W31497  41.334   0.461   2.291
67565W        W31498  25.531  31.628   3.720
67566W        W31499   1.903   6.736   1.788
67567W        W31500  33.031   0.396   2.828
67568W        W31501  23.179  33.476  14.787
67569W        W31502   1.332  19.573  13.062
67570W        W31503  31.141  32.511   1.816
67571W        W31504   9.264  16.090  13.363
67572W        W31505   5.687  36.575   3.814
67573W        W31506   8.685  27.603  12.573
67574W        W31507  19.141   5.689   3.184
67575W        W31508   1.906   9.275  11.907
67576W        W31509  14.691   0.983   0.961
67577W        W31510  35.873  36.880  14.466
67578W        W31511  11.839   7.335   4.744
67579W        W31512  35.098  38.430  12.974
67580W        W31513  35.364  29.918   2.881
67581W        W31514   6.206  30.528  10.147
67582W        W31515  26.989  40.963  11.106
67583W        W31516  10.802  13.821  11.580
67584W        W31517  16.194  22.608  14.450
67585W        W31518  10.270  15.321   3.759
67586W        W31519  10.232   8.812  13.017
67587W        W31520  42.874  18.584   5.270
67588W        W31521  26.525   8.210  12.521
67589W        W31522  32.913  11.697  14.414
67590W        W31523  16.304  31.070   4.630
67591W        W31524  21.738   4.244   2.802
67592W        W31525  11.206  22.626  12.068
67593W        W31526   3.953  37.928  13.917
67594W        W31527  22.047  20.767  11.047
67595W        W31528  29.517  25.606  10.985
67596W        W31529  14.258  42.881   4.829
67597W        W31530  25.206  26.695  14.010
67598W        W31531  24.491   3.245  13.492
67599W        W31532   6.247  28.156  11.478
67600W        W31533  18.730  25.588  14.351
67601W        W31534   6.376  35.091  14.895
67602W        W31535  10.755  14.797  11.423
67603W        W31536  17.730  30.463  14.789
67604W        W31537   5.912   7.907   3.815
67605W        W31538   2.756   5.316  12.869
67606W        W31539  16.672  15.184   2.223
67607W        W31540  32.031   7.314   3.866
67608W        W31541   4.766  27.032  14.364
67609W        W31542  20.154   5.229   2.216
67610W        W31543   4.204   8.742   1.794
67611W        W31544   5.400   9.830  13.929
67612W        W31545  17.594  21.643   1.363
67613W        W31546  20.114  11.337  13.946
67614W        W31547   6.377   0.457  13.468
67615W        W31548  25.584  18.190   0.851
67616W        W31549  24.217  28.047   0.898
67617W        W31550  15.799  12.302   4.327
67618W        W31551  36.071  31.593   4.296
67619W        W31552  24.219   8.316  14.940
67620W        W31553  26.492  16.263  11.460
67621W        W31554  41.526   5.271  14.848
67622W        W31555  10.366  36.579  10.419
67623W        W31556  22.241  37.872  13.022
67624W        W31557  39.416  11.348   4.319
67625W        W31558   7.257  24.106   0.859
67626W        W31559  43.314  23.610   1.863
67627W        W31560  19.240  39.039   5.695
67628W        W31561   8.267  26.955  12.419
67629W        W31562  38.903  31.047  14.996
67630W        W31563   6.417   8.272  12.862
67631W        W31564  30.050  28.993  13.539
67632W        W31565  41.896  10.827  11.965
67633W        W31566   0.835  43.319   1.422
67634W        W31567  10.783  13.232  11.936
67635W        W31568  43.484  14.166  14.931
67636W        W31569  22.067  12.149  14.450
67637W        W31570   6.370  15.701  11.994
67638W        W31571  30.988  23.985   3.189
67639W        W31572  20.136   5.800  13.421
67640W        W31573  35.604  43.367   2.382
67641W        W31574  28.558  19.562   1.711
67642W        W31575   2.429   7.881  10.889
67643W        W31576   9.816  14.133   3.222
67644W        W31577  23.136  30.513   0.832
67645W        W31578  41.363  22.996  10.583
67646W        W31579   3.221  19.239  14.313
67647W        W31580  42.841  19.614   1.712
67648W        W31581  12.641  10.179   0.403
67649W        W31582  10.296   6.335   1.364
67650W        W31583  43.402  26.601  14.381
67651W        W31584   9.782  13.805  10.901
67652W        W31585  36.519   0.939  14.315
67653W        W31586  17.562  23.091   0.263
67654W        W31587  25.133  36.968   0.246
67655W        W31588  26.168  14.828   3.836
67656W        W31589  33.625   9.374  13.909
67657W        W31590   1.367  24.629  12.497
67658W        W31591  30.917  30.033   1.928
67659W        W31592  34.384  15.776  11.530
67660W        W31593  33.460  33.884   0.274
67661W        W31594  41.900   9.812   3.706
67662W        W31595  31.439  29.436   3.379
67663W        W31596  32.540   7.829  14.792
67664W        W31597  43.297  28.477   2.747
67665W        W31598  15.225   3.280  12.946
67666W        W31599  23.693  20.567   2.727
67667W        W31600  27.139   4.242   0.765
67668W        W31601  29.648   2.841  12.499
67669W        W31602   6.417  11.761   5.162
67670W        W31603  20.191  39.827   4.688
67671W        W31604  43.514  21.691  14.766
67672W        W31605  19.683  37.417  10.080
67673W        W31606  12.678   3.935  12.854
67674W        W31607  26.186  35.420  10.957
67675W        W31608  30.506  12.315  14.902
67676W        W31609  32.528  23.995   4.790
67677W        W31610  41.894  12.794   3.229
67678W        W31611  29.493  18.195  10.604
67679W        W31612  14.720  42.478   3.733
67680W        W31613  14.137  16.252   0.434
67681W        W31614   4.736   2.910  11.376
67682W        W31615   6.212  37.447  12.980
67683W        W31616  36.984   0.415   0.393
67684W        W31617  15.718   3.361   0.295
67685W        W31618   3.879  39.491   2.783
67686W        W31619   4.719  10.303   5.232
67687W        W31620  38.822  27.090   5.119
67688W        W31621   1.362  26.973  14.342
67689W        W31622  44.494  40.055   0.808
67690W        W31623  27.172  29.923   3.681
67691W        W31624  31.143  41.465  13.011
67692W        W31625  31.493  38.000   2.270
67693W        W31626   3.404  40.328   4.825
67694W        W31627  12.345  20.724  11.923
67695W        W31628  40.897  20.231  14.984
67696W        W31629   3.914  17.587   1.213
67697W        W31630   7.321  39.976   1.786
67698W        W31631   0.350  33.064   4.136
67699W        W31632   5.746   0.889  10.498
67700W        W31633  31.407  29.634   2.805
67701W        W31634  26.578  14.759   3.303
67702W        W31635   4.416  11.235  12.034
67703W        W31636  26.480  26.130  13.545
67704W        W31637  23.007  10.198   0.310
67705W        W31638   7.776   1.840   4.179
67706W        W31639   1.912  11.182  12.040
67707W        W31640   5.400  40.052  11.557
67708W        W31641  12.120  35.371  11.897
67709W        W31642   4.425  44.904   3.162
67710W        W31643   8.250  41.326  13.325
67711W        W31644  12.845  37.020  13.383
67712W        W31645  16.712  22.033  10.595
67713W        W31646  20.545  10.200   4.659
67714W        W31647  21.248  40.496  13.505
67715W        W31648  15.105  12.277   3.371
67716W        W31649  17.227  43.386  14.472
67717W        W31650  42.821  13.229  13.532
67718W        W31651  41.475  34.911  10.909
67719W        W31652  42.851   1.749  11.951
67720W        W31653  22.135  41.821   2.856
67721W        W31654  37.853  39.892   3.218
67722W        W31655  21.115  17.659   2.338
67723W        W31656   5.873  34.917   0.954
67724W        W31657   6.839  26.036   9.491
67725W        W31658  41.950  43.463   4.172
67726W        W31659  11.286  28.161   4.247
67727W        W31660  41.509  19.102   1.832
67728W        W31661  16.658  36.993   9.962
67729W        W31662  33.548  32.966  12.503
67730W        W31663   4.922  13.107  11.494
67731W        W31664  43.306  34.475  10.983
67732W        W31665  44.949   6.344   4.267
67733W        W31666  18.181  12.310  14.513
67734W        W31667  20.725   7.774  12.915
67735W        W31668  42.487  43.327   1.718
67736W        W31669   9.886  29.095  10.582
67737W        W31670  13.755  32.491  12.882
67738W        W31671   1.795  16.594   0.900
67739W        W31672  19.583  42.917   4.648
67740W        W31673  35.978  31.464   3.820
67741W        W31674  43.838   9.395   2.834
67742W        W31675  40.342  36.511  10.540
67743W        W31676  38.498  14.597   4.796
67744W        W31677   5.906  13.277  14.355
67745W        W31678  35.431  13.300   3.835
67746W        W31679  13.325  17.672  13.547
67747W        W31680  14.120  12.639   1.814
67748W        W31681  12.712  20.230   1.263
67749W        W31682  28.982  28.481  14.461
67750W        W31683  27.151  12.795  11.938
67751W        W31684  12.216  34.867   0.418
67752W        W31685   8.180   0.249   1.382
67753W        W31686  27.975  15.180   4.149
67754W        W31687  33.103  11.155   4.293
67755W        W31688  16.285   9.663   9.615
67756W        W31689   4.297  19.763   3.160
67757W        W31690  26.514   3.357   0.459
67758W        W31691   9.795  41.002   4.776
67759W        W31692  39.393  19.078   2.713
67760W        W31693  36.472  22.176  11.036
67761W        W31694  18.088  15.625  13.923
67762W        W31695  32.593   9.298   0.406
67763W        W31696  21.570  34.500   2.394
67764W        W31697  33.930   9.702  12.080
67765W        W31698  25.582  34.590   2.708
67766W        W31699   3.232  31.987   3.331
67767W        W31700  30.564  14.628  11.125
67768W        W31701  14.640  17.242  14.448
67769W        W31702  26.113   9.255   5.251
67770W        W31703  32.618  16.194  12.049
67771W        W31704  24.481   9.286  13.983
67772W        W31705  36.046  21.085   0.432
67773W        W31706  34.097  29.149  13.461
67774W        W31707  43.406  43.776   2.193
67775W        W31708   4.781  30.986   2.693
67776W        W31709  42.357  15.695  11.122
67777W        W31710  13.820  18.549   2.677
67778W        W31711  27.619  19.125  14.938
67779W        W31712  11.230  44.906   0.794
67780W        W31713  14.208  32.514   2.900
67781W        W31714  10.192  34.431   0.391
67782W        W31715  28.091   5.360  10.059
67783W        W31716  29.545  12.144  14.773
67784W        W31717  21.129  27.618   9.661
67785W        W31718  36.572  16.736   1.830
67786W        W31719  38.430  23.140   4.734
67787W        W31720  43.416  43.516   4.120
67788W        W31721  33.091  24.700   4.732
67789W        W31722   0.486  21.556   0.923
67790W        W31723  26.991  31.124   4.200
67791W        W31724  44.843  24.558  10.500
67792W        W31725  43.891  29.431   0.447
67793W        W31726   0.462  42.014  13.025
67794W        W31727  15.616  34.058   3.750
67795W        W31728   6.235  32.927  11.377
67796W        W31729  24.151  11.836  10.606
67797W        W31730  36.467  44.907   3.267
67798W        W31731  39.012  21.043   4.168
67799W        W31732  32.583  22.099  11.983
67800W        W31733  19.619  11.866  14.850
67801W        W31734  12.328   2.841   2.393
67802W        W31735   1.937  18.763   4.691
67803W        W31736  40.980   1.971  14.819
67804W        W31737  36.369  18.606  11.988
67805W        W31738  16.242  40.802   0.312
67806W        W31739   3.283  15.683   4.130
67807W        W31740  13.215  29.499  13.398
67808W        W31741  15.314  19.573   4.781
67809W        W31742  44.892  20.162  13.354
67810W        W31743  34.381  32.909   1.921
67811W        W31744  34.967  44.807   0.418
67812W        W31745  42.391  42.391   1.845
67813W        W31746  24.087  39.475  10.918
67814W        W31747  12.811  14.293  13.406
67815W        W31748   2.823   6.912   4.747
67816W        W31749  22.695  33.602  12.948
67817W        W31750   8.387  12.626   0.916
67818W        W31751  25.659  43.899  12.956
67819W        W31752  31.485   9.312  14.477
67820W        W31753  44.834  13.290   3.361
67821W        W31754  24.546  15.623  12.039
67822W        W31755  21.159  13.743   4.664
67823W        W31756  27.624  42.029   1.287
67824W        W31757  21.544  26.159   1.924
67825W        W31758  38.877  41.503  10.904
67826W        W31759  25.653   6.308  13.386
67827W        W31760  11.251   0.986   0.339
67828W        W31761  33.497  11.754   0.855
67829W        W31762  26.203  40.306   2.754
67830W        W31763  14.338  21.745   2.341
67831W        W31764  25.666  27.110   1.714
67832W        W31765  33.895   6.260  12.357
67833W        W31766  13.828  36.513  10.535
67834W        W31767  14.778   1.916   0.460
67835W        W31768  31.449  30.619  12.512
67836W        W31769  40.387  31.120   4.161
67837W        W31770  42.353  35.960  12.041
67838W        W31771  24.976  21.161  13.848
67839W        W31772   0.789  20.582  14.498
67840W        W31773   7.889  39.399  12.398
67841W        W31774  37.977  19.161   0.959
67842W        W31775  29.933  10.292  11.376
67843W        W31776  34.510  23.198  13.999
67844W        W31777   5.810   8.894  14.465
67845W        W31778  32.402  36.554  11.028
67846W        W31779  43.355  26.535   4.170
67847W        W31780  35.583  26.574   3.307
67848W        W31781  37.963  16.695  11.382
67849W        W31782  28.558  31.953   4.621
67850W        W31783  18.282  40.389  14.388
67851W        W31784   4.928   0.936  11.100
67852W        W31785  24.171  41.969  14.319
67853W        W31786  10.159  37.009   5.191
67854W        W31787   4.757  22.715  10.521
67855W        W31788  29.172  14.291   3.729
67856W        W31789  20.143  27.137   3.170
67857W        W31790   0.826  11.304   0.777
67858W        W31791  44.502  15.170   3.262
67859W        W31792   5.748  29.437  13.459
67860W        W31793  24.703  33.530  10.471
67861W        W31794  40.044   9.686   0.382
67862W        W31795   3.929  40.803   0.747
67863W        W31796  37.830  34.434  12.883
67864W        W31797  41.529   4.936   1.267
67865W        W31798  23.025  19.265  10.931
67866W        W31799  25.065   6.860   1.798
67867W        W31800  27.960  38.969   4.167
67868W        W31801   2.801  26.647   2.673
67869W        W31802  31.600  43.279  13.977
67870W        W31803  24.219  37.864  14.498
67871W        W31804   7.868  21.668  14.339
67872W        W31805  43.921  26.699   1.244
67873W        W31806  23.561  35.529   0.871
67874W        W31807  39.408  37.917  11.073
67875W        W31808   4.221  26.964   2.840
67876W        W31809   2.317  14.314  10.954
67877W        W31810  33.080   3.887  10.914
67878W        W31811  44.967  39.036   4.353
67879W        W31812  17.062  14.285   1.818
67880W        W31813   2.335  20.727  11.094
67881W        W31814   3.895   8.187  12.914
67882W        W31815  33.505  11.786  14.820
67883W        W31816  15.138  11.352   1.893
67884W        W31817  36.461   2.724   2.353
67885W        W31818  32.026  18.240   9.925
67886W        W31819   3.827  17.786   0.429
67887W        W31820  34.092  43.376   2.198
67888W        W31821  37.912   4.239  11.049
67889W        W31822  27.071  32.996   2.350
67890W        W31823  35.583   5.809   1.402
67891W        W31824  26.529  24.620  10.424
67892W        W31825  41.389  36.437   5.650
67893W        W31826  15.666  26.669  11.453
67894W        W31827  13.201  12.725  11.500
67895W        W31828  16.718  28.642  11.090
67896W        W31829   5.429  41.383  11.935
67897W        W31830  36.894  15.218  14.932
67898W        W31831   3.904  38.022   4.178
67899W        W31832  26.651  28.975  10.635
67900W        W31833  12.314  11.783   2.840
67901W        W31834  39.828   4.926  12.514
67902W        W31835  35.510  39.814  14.434
67903W        W31836  10.870   8.809   2.838
67904W        W31837   9.296  26.530   1.311
67905W        W31838   4.217  18.702   3.180
67906W        W31839  42.889   4.378   0.374
67907W        W31840  25.667  23.142  10.949
67908W        W31841  20.548  41.008  13.841
67909W        W31842  43.871  24.520  14.474
67910W        W31843  31.514   8.851  12.494
67911W        W31844   5.924  19.041  12.871
67912W        W31845  26.968  35.408   3.224
67913W        W31846  42.497  41.477  11.381
67914W        W31847   8.802  34.551   2.178
67915W        W31848  21.248  33.604  14.797
67916W        W31849  43.370  24.641  12.088
67917W        W31850  37.374   7.842   3.367
67918W        W31851  10.194  40.871   4.626
67919W        W31852  41.398  28.990   2.270
67920W        W31853  11.225  13.723  12.068
67921W        W31854  28.633  17.746   0.410
67922W        W31855  40.821  19.567   1.727
67923W        W31856   5.735  41.974   2.851
67924W        W31857  28.599  39.953   0.394
67925W        W31858  40.335  31.478  13.976
67926W        W31859  39.887  30.476  13.855
67927W        W31860   5.303   4.773  13.951
67928W        W31861  22.593  16.758  10.637
67929W        W31862  24.626  32.124   3.778
67930W        W31863  32.054  20.214   2.892
67931W        W31864  18.217  20.686   3.815
67932W        W31865   5.420   1.314   0.269
67933W        W31866  20.750   1.437  11.542
67934W        W31867  23.038  21.646   4.231
67935W        W31868  25.969  14.299   3.671
67936W        W31869   9.873  16.759  13.826
67937W        W31870  17.253  27.093  10.936
67938W        W31871   4.235   4.344  10.103
67939W        W31872  32.056  35.874   3.796
67940W        W31873   3.222   2.923  14.912
67941W        W31874  30.421  24.147   1.721
67942W        W31875  13.255  28.134  13.500
67943W        W31876  29.497  41.011   0.909
67944W        W31877  29.522  22.136   2.182
67945W        W31878  44.450  42.015   0.889
67946W        W31879  35.894   4.937  13.814
67947W        W31880   4.401  39.494   2.367
67948W        W31881  36.555  20.095  14.856
67949W        W31882  33.468  42.414  10.138
67950W        W31883  14.708  25.980   4.153
67951W        W31884  28.574  23.091   2.305
67952W        W31885  34.054  34.887   4.711
67953W        W31886  30.532   4.765   5.280
67954W        W31887  12.629   7.671  12.913
67955W        W31888  22.738  35.102   5.094
67956W        W31889   6.210  35.421  14.386
67957W        W31890  40.029  40.406  13.459
67958W        W31891  29.498  23.051   1.246
67959W        W31892   5.243  44.841  12.914
67960W        W31893  33.108   4.318   4.668
67961W        W31894  41.858   9.292  11.538
67962W        W31895  25.046   3.866  12.903
67963W        W31896  13.345  10.272  11.415
67964W        W31897  15.287  32.593   2.719
67965W        W31898  41.512  37.958  10.456
67966W        W31899   8.174   4.735   3.332
67967W        W31900  11.642  13.763   2.409
67968W        W31901  10.633  14.296   3.302
67969W        W31902  26.969   6.830  14.442
67970W        W31903   2.287  31.007  13.888
67971W        W31904  44.478  37.892  13.402
67972W        W31905  34.901  18.185  13.486
67973W        W31906  34.972   1.427   1.341
67974W        W31907  33.078  29.637   1.269
67975W        W31908  39.333  31.535  11.456
67976W        W31909  41.309  34.572  11.386
67977W        W31910  41.827  26.456  11.579
67978W        W31911  35.511  12.822   4.602
67979W        W31912  23.679   0.809  14.818
67980W        W31913  15.324  10.332   1.836
67981W        W31914   2.942  14.680  11.475
67982W        W31915  29.658  36.504  11.997
67983W        W31916  13.173  13.782  12.005
67984W        W31917  15.256  24.205   3.716
67985W        W31918   4.796   7.753   0.750
67986W        W31919  37.341  38.963  11.107
67987W        W31920  40.811  15.325  10.967
67988W        W31921  21.511  37.558   3.843
67989W        W31922  29.145   4.719  11.409
67990W        W31923  15.266  39.036   9.446
67991W        W31924  22.725  43.386  11.973
67992W        W31925  18.687   3.407   1.214
67993W        W31926  15.298  38.482  11.373
67994W        W31927  19.620  23.060   4.752
67995W        W31928  24.083   6.836   3.248
67996W        W31929  10.293  32.458  10.589
67997W        W31930   6.275   2.254  14.848
67998W        W31931   5.207   2.724  12.462
67999W        W31932   5.810  17.615   4.284
68000W        W31933  42.366  38.884  13.460
68001W        W31934  21.116  44.420   0.876
68002W        W31935  20.663   0.977  12.860
68003W        W31936  25.560   6.205  14.001
68004W        W31937  42.374  21.675  13.337
68005W        W31938  10.314  44.393   4.327
68006W        W31939  32.134  17.289   2.886
68007W        W31940  12.311   2.382  12.856
68008W        W31941  19.588   2.821   2.377
68009W        W31942  29.560  38.982  10.160
68010W        W31943  37.078  11.691  13.406
68011W        W31944  11.852  31.901   4.128
68012W        W31945  26.031   1.435   2.412
68013W        W31946   0.259  18.643   0.950
68014W        W31947  13.258  38.393   0.924
68015W        W31948  39.007  36.007  14.444
68016W        W31949  39.425  28.986   0.937
68017W        W31950   7.756  17.074   2.355
68018W        W31951   0.908  27.634  10.446
68019W        W31952   3.275  20.215   4.348
68020W        W31953   6.370  11.623   3.150
68021W        W31954  37.569   8.190   0.461
68022W        W31955  18.100   3.924   4.231
68023W        W31956   9.262  35.451  12.561
68024W        W31957   2.466  34.010  14.023
68025W        W31958  37.364  28.612  14.813
68026W        W31959  29.466  19.062  14.857
68027W        W31960   0.839  27.005  12.990
68028W        W31961  39.558  10.217  14.501
68029W        W31962  12.133  32.118  14.300
68030W        W31963  28.929  15.212   4.349
68031W        W31964  40.489   7.271   0.436
68032W        W31965  22.548   1.356   2.811
68033W        W31966  15.253  43.334   2.299
68034W        W31967  32.930  32.908  10.462
68035W        W31968   9.754  12.300   4.695
68036W        W31969  20.243  20.207   2.273
68037W        W31970  26.983  21.024   4.681
68038W        W31971   2.453  29.448  11.064
68039W        W31972   3.917  19.558   4.215
68040W        W31973  14.310  24.635  10.996
68041W        W31974  17.195   8.295   5.307
68042W        W31975   3.919  30.552  13.443
68043W        W31976  19.185   5.411   3.712
68044W        W31977  39.419  32.462   2.804
68045W        W31978  23.186  17.664   2.674
68046W        W31979   5.327   5.798  11.081
68047W        W31980  13.277   6.276  12.874
68048W        W31981  31.586  31.106   3.258
68049W        W31982  36.552   5.779  10.999
68050W        W31983   6.278  36.392   1.425
68051W        W31984  16.228  12.205  14.947
68052W        W31985  12.642  23.018   0.783
68053W        W31986  27.079   4.863   1.268
68054W        W31987  20.551  26.124  10.549
68055W        W31988  28.999   7.301  12.088
68056W        W31989   1.457   9.740   4.337
68057W        W31990  35.919  26.068  12.447
68058W        W31991  20.611  31.484  11.879
68059W        W31992  13.821  10.320  10.438
68060W        W31993   6.418  42.506  13.442
68061W        W31994  33.102  43.800   4.747
68062W        W31995  31.961  35.519  11.098
68063W        W31996  32.009  28.011  14.506
68064W        W31997   1.363   6.318   1.865
68065W        W31998  22.657  30.438   3.644
68066W        W31999   9.155  36.077   5.245
68067W        W32000   8.262  24.725   3.149
68068W        W32001   4.284  44.334  13.023
68069W        W32002  22.049  21.729   0.398
68070W        W32003  28.658   2.735  12.838
68071W        W32004  43.877  28.116  14.279
68072W        W32005   0.263  37.509   2.819
68073W        W32006  11.749  27.101   0.956
68074W        W32007  32.563  37.931   0.270
68075W        W32008  31.459  41.030   0.845
68076W        W32009  12.726  10.282   0.794
68077W        W32010   7.686  38.001   1.930
68078W        W32011   6.267   2.454   9.517
68079W        W32012  30.128  12.792   1.325
68080W        W32013   4.893  35.459   3.340
68081W        W32014  15.159  30.075   4.763
68082W        W32015  39.418  31.571  14.428
68083W        W32016   2.948   9.828   2.313
68084W        W32017  39.919  13.774   2.310
68085W        W32018  17.304  28.546  12.080
68086W        W32019  10.843  11.675  13.475
68087W        W32020  23.094  31.450   3.671
68088W        W32021  34.370  10.700   3.287
68089W        W32022  32.958  11.209  13.945
68090W        W32023  28.020  38.927  11.977
68091W        W32024  12.120  12.655  14.403
68092W        W32025   0.978   6.766   0.735
68093W        W32026  13.112  40.929   4.658
68094W        W32027  44.833  43.985  12.350
68095W        W32028  35.902   6.350   1.417
68096W        W32029  30.158   2.226   3.148
68097W        W32030  40.021  17.283  10.893
68098W        W32031  42.909  28.168   0.312
68099W        W32032  26.149  29.065  13.548
68100W        W32033  10.139  34.973   4.149
68101W        W32034  21.741  12.670   3.368
68102W        W32035  26.160  28.456   2.817
68103W        W32036  24.020  11.863   3.245
68104W        W32037   4.845  31.996  13.405
68105W        W32038  43.942   2.315   4.246
68106W        W32039  18.729  13.801   1.232
68107W        W32040  28.614  20.177  10.928
68108W        W32041   6.879  36.587   3.691
68109W        W32042  42.012  26.965  12.464
68110W        W32043   9.154   7.414  10.592
68111W        W32044  24.540   4.769  11.470
68112W        W32045  31.463   0.429   0.469
68113W        W32046  37.917  35.583  12.834
68114W        W32047  34.614   0.958   3.231
68115W        W32048  32.422  20.596  12.009
68116W        W32049   8.261  26.652  14.914
68117W        W32050  39.378  24.581   3.179
68118W        W32051   2.909  29.135  12.969
68119W        W32052  36.566  11.169   4.222
68120W        W32053  40.433  43.352  12.976
68121W        W32054  42.892   7.179  11.501
68122W        W32055  23.008  15.098   0.803
68123W        W32056   8.706  31.552  13.046
68124W        W32057  29.645   4.855   3.841
68125W        W32058  23.729  41.408  10.600
68126W        W32059  25.506  26.123   3.153
68127W        W32060   8.813  14.293  10.075
68128W        W32061  38.851  35.006  13.507
68129W        W32062   1.322  33.044   2.707
68130W        W32063  30.570  44.367   2.684
68131W        W32064  23.602  18.757  12.512
68132W        W32065   8.208  39.532   2.782
68133W        W32066  42.304  10.149  12.377
68134W        W32067  15.190   7.240   3.266
68135W        W32068   7.733  26.051   1.266
68136W        W32069  23.652  32.529  12.384
68137W        W32070  17.213   4.351  14.964
68138W        W32071   8.805  33.067  10.961
68139W        W32072  20.568  18.565   3.853
68140W        W32073  11.790  39.394  13.904
68141W        W32074  17.216   1.270   2.755
68142W        W32075  29.003  35.989  12.564
68143W        W32076   7.393  38.992   1.853
68144W        W32077  14.148  18.631   3.852
68145W        W32078  29.561  25.594  14.028
68146W        W32079  15.157  33.127   1.723
68147W        W32080  24.122   3.297   3.709
68148W        W32081  29.080  37.552  10.622
68149W        W32082  16.248  32.953   2.331
68150W        W32083  42.821  26.952  14.508
68151W        W32084  33.426  34.431  12.847
68152W        W32085  43.938  25.135  11.377
68153W        W32086  44.375  40.037   4.744
68154W        W32087  11.720   3.242   1.444
68155W        W32088  21.246  39.822  13.987
68156W        W32089  12.203  41.897  14.791
68157W        W32090   0.865   4.726  10.608
68158W        W32091  27.086   3.765  13.375
68159W        W32092  42.933  35.995   1.436
68160W        W32093  39.323  34.594  10.911
68161W        W32094   6.769  18.116  14.876
68162W        W32095  32.533  32.585   3.220
68163W        W32096  29.536   5.865   4.732
68164W        W32097  44.755  15.604  13.866
68165W        W32098   1.475  30.971   0.815
68166W        W32099  11.691   0.919  14.430
68167W        W32100  20.671  14.741  14.486
68168W        W32101   7.673   5.702  14.028
68169W        W32102  11.776  43.371   4.122
68170W        W32103   1.937  19.603  12.844
68171W        W32104  32.525  33.428  10.595
68172W        W32105  40.393   6.914  10.548
68173W        W32106  39.532  18.624  11.471
68174W        W32107  12.806  24.029   2.201
68175W        W32108  44.321   8.337  10.119
68176W        W32109  39.947  19.044   2.802
68177W        W32110  19.584  19.559  11.059
68178W        W32111  13.133   4.761  13.534
68179W        W32112  33.068  32.625   2.276
68180W        W32113  17.122   3.422   5.319
68181W        W32114  42.409  19.206  10.602
68182W        W32115   3.248   1.925   1.315
68183W        W32116  43.398  32.560   1.391
68184W        W32117   6.780  28.534  12.943
68185W        W32118  21.752   0.982  12.972
68186W        W32119  43.823  34.939   4.745
68187W        W32120  12.263  28.441  14.444
68188W        W32121  33.031   2.466  13.421
68189W        W32122  22.015  19.581   3.167
68190W        W32123  22.193  14.701   2.305
68191W        W32124  35.410  30.996   0.909
68192W        W32125  19.275  36.385   2.216
68193W        W32126  42.876  34.922   3.826
68194W        W32127  39.369   3.873  14.824
68195W        W32128   3.330  32.123   4.131
68196W        W32129  39.423   7.254   5.115
68197W        W32130  27.187   9.389   0.335
68198W        W32131  17.602  20.524  13.819
68199W        W32132  34.911  21.526   4.761
68200W        W32133  17.061  19.117  14.790
68201W        W32134  10.236  38.855  14.766
68202W        W32135  37.912   1.769  13.862
68203W        W32136  41.973  11.220   3.777
68204W        W32137  25.698  11.662   1.226
68205W        W32138  39.543  36.468  10.406
68206W        W32139  34.476  40.953  13.317
68207W        W32140  31.903   2.348  13.326
68208W        W32141  27.990  37.030   4.183
68209W        W32142  13.180  29.449  12.533
68210W        W32143  29.528  34.414  11.914
68211W        W32144  43.011  28.471  14.348
68212W        W32145  10.261  32.075   1.275
68213W        W32146  26.692  43.469   4.714
68214W        W32147  39.037  29.510  13.956
68215W        W32148   0.874   0.768   3.283
68216W        W32149  19.091  22.733   4.804
68217W        W32150  26.051   2.267  13.983
68218W        W32151  26.102  33.514  11.388
68219W        W32152  41.830  11.305  11.047
68220W        W32153  36.447  30.505   0.300
68221W        W32154   9.322  28.964  11.929
68222W        W32155  22.678  25.667  14.898
68223W        W32156   7.871  31.061   2.381
68224W        W32157  13.113  41.031   0.947
68225W        W32158  35.593  41.451   1.846
68226W        W32159  38.333  26.072   0.244
68227W        W32160  19.125  23.213   3.325
68228W        W32161  18.572   1.853  11.874
68229W        W32162  34.971  29.575  13.955
68230W        W32163  23.053  35.944   5.287
68231W        W32164  18.247  13.186  12.971
68232W        W32165  36.467  44.976   2.281
68233W        W32166  37.938  17.090  14.791
68234W        W32167  21.107  31.948  11.918
68235W        W32168  44.424   8.328  11.503
68236W        W32169   1.318   8.360   4.626
68237W        W32170   6.764  31.629  12.066
68238W        W32171   3.443  12.183  12.090
68239W        W32172  16.707   8.717   1.705
68240W        W32173  23.503   9.871   1.311
68241W        W32174  30.006  19.240   2.248
68242W        W32175  43.312  35.886   2.391
68243W        W32176  14.217   3.294  10.071
68244W        W32177  26.463  42.018   4.148
68245W        W32178  18.211  34.494  12.355
68246W        W32179   8.714  37.548  12.073
68247W        W32180  31.029   6.203   2.326
68248W        W32181  13.835  36.031  13.519
68249W        W32182  29.922  38.482   1.935
68250W        W32183  34.459  33.514   2.414
68251W        W32184   2.246  38.967   3.747
68252W        W32185  12.620   5.335   4.122
68253W        W32186  29.054  42.327   1.835
68254W        W32187  31.104   1.462  13.430
68255W        W32188   6.710  34.035  11.860
68256W        W32189  13.845   2.728   3.826
68257W        W32190  37.365   2.261  11.045
68258W        W32191  42.459   2.428   0.890
68259W        W32192  19.149  32.056  11.404
68260W        W32193  27.062  40.026  12.428
68261W        W32194  38.358  13.727   2.770
68262W        W32195  38.389  31.030  12.017
68263W        W32196  32.392  18.214   1.821
68264W        W32197   2.823   9.790  11.049
68265W        W32198  42.309   2.296  13.927
68266W        W32199  41.467   8.166   1.448
68267W        W32200  28.664  44.915  13.503
68268W        W32201  34.407  12.620  12.441
68269W        W32202  24.018   3.233  12.043
68270W        W32203  16.225  44.379  13.882
68271W        W32204   5.926   8.763  11.398
68272W        W32205  21.751   5.349  11.114
68273W        W32206   6.391  27.550   1.429
68274W        W32207  18.695   7.909   4.287
68275W        W32208  13.755  14.130   3.269
68276W        W32209   4.866  39.970  14.020
68277W        W32210   4.410  26.999   9.950
68278W        W32211  44.448  44.399  11.004
68279W        W32212  20.707  38.356  12.951
68280W        W32213  40.494  13.122  11.557
68281W        W32214  24.135   4.920   1.863
68282W        W32215  36.853  43.489   2.778
68283W        W32216  32.941  29.504  12.827
68284W        W32217  20.652   4.737  12.932
68285W        W32218  32.964  44.339  13.972
68286W        W32219   9.350   0.381   1.354
68287W        W32220  40.532  33.409  10.079
68288W        W32221  29.589  35.963   2.383
68289W        W32222  43.775  33.403   4.313
68290W        W32223  32.934  20.251   3.857
68291W        W32224  40.969   1.333   3.198
68292W        W32225  27.100   3.747   3.200
68293W        W32226  44.364  20.222  11.480
68294W        W32227  28.171   9.818   9.966
68295W        W32228  41.364  37.422   1.364
68296W        W32229  10.184  13.197   2.689
68297W        W32230  33.580   4.840  13.462
68298W        W32231  10.731  44.989  12.447
68299W        W32232  10.705  10.793   2.275
68300W        W32233  16.712   3.410   3.764
68301W        W32234  36.580  10.285  11.526
68302W        W32235  39.829  33.001   3.368
68303W        W32236  18.688  24.143   4.648
68304W        W32237   1.865   8.755  12.869
68305W        W32238  15.194  10.250   3.755
68306W        W32239  25.711   6.869  11.495
68307W        W32240  10.272  14.315   4.157
68308W        W32241   9.856   2.393  11.427
68309W        W32242  34.372  34.411  13.872
68310W        W32243  40.858  13.794  14.279
68311W        W32244  37.384  27.080  14.880
68312W        W32245   5.436  16.193  14.469
68313W        W32246   2.831  27.633   1.265
68314W        W32247  37.857  17.655   0.825
68315W        W32248  29.622  39.316   2.841
68316W        W32249  14.774  35.089  11.078
68317W        W32250  43.882  14.266  13.987
68318W        W32251  14.681  37.407   1.238
68319W        W32252   8.823  31.069   1.343
68320W        W32253  27.196  34.399  12.446
68321W        W32254  14.683  16.806   4.655
68322W        W32255  27.156   0.397   1.247
68323W        W32256  36.552  26.462  10.041
68324W        W32257  15.144  10.721  11.596
68325W        W32258  31.926   1.270   1.752
68326W        W32259  18.168  37.532   3.750
68327W        W32260   3.720  25.526  14.324
68328W        W32261   7.851  21.607   4.130
68329W        W32262  23.529  12.683   4.732
68330W        W32263  31.548  40.917  10.897
68331W        W32264  23.499   8.320  13.827
68332W        W32265  40.497  11.654  13.007
68333W        W32266  37.464  22.045  13.821
68334W        W32267   9.740  16.169   0.347
68335W        W32268  26.594  24.077   2.298
68336W        W32269   8.160  36.558   4.640
68337W        W32270  31.022  35.859   0.447
68338W        W32271  43.287  17.106  10.028
68339W        W32272   9.676  36.523   3.226
68340W        W32273  21.037  41.471  13.357
68341W        W32274   5.896   4.385  14.919
68342W        W32275  26.063  31.990   2.355
68343W        W32276  26.031  43.458  12.866
68344W        W32277  18.784  40.406   1.933
68345W        W32278   1.251  35.041   0.889
68346W        W32279  20.572  24.030  11.585
68347W        W32280  30.443  27.564  10.542
68348W        W32281  40.017   9.747   4.350
68349W        W32282  33.122  16.234   4.138
68350W        W32283   3.453  34.400   3.293
68351W        W32284  27.125  28.087   0.293
68352W        W32285  23.555  26.659   3.302
68353W        W32286  35.421  41.835   2.345
68354W        W32287  36.395   4.433   2.391
68355W        W32288  18.579  43.276   2.865
68356W        W32289  31.030  21.725   1.824
68357W        W32290  24.149  34.454  11.605
68358W        W32291  15.628  32.039   5.268
68359W        W32292   7.818  41.912   3.793
68360W        W32293  38.438  20.061   4.739
68361W        W32294  29.059  31.557  13.817
68362W        W32295  32.427   1.329  11.514
68363W        W32296  36.567  25.171   1.434
68364W        W32297  15.723  29.577  14.350
68365W        W32298  20.657  21.674  11.872
68366W        W32299  23.025  31.933   3.767
68367W        W32300  36.499  32.552   1.244
68368W        W32301  21.655  38.062  13.030
68369W        W32302  42.330   2.301   0.367
68370W        W32303   0.408  21.179  11.997
68371W        W32304  26.033  17.103  13.500
68372W        W32305  15.792  21.658   4.234
68373W        W32306   1.241  25.095  14.453
68374W        W32307   9.653   7.665  12.915
68375W        W32308  38.933  43.847   1.228
68376W        W32309   8.221  15.604   0.876
68377W        W32310  42.519  13.171   3.773
68378W        W32311   2.889   1.356   3.653
68379W        W32312  17.652  25.008   0.340
68380W        W32313   1.480  37.961  10.604
68381W        W32314   1.786   3.814   1.218
68382W        W32315  37.382  14.112  10.537
68383W        W32316  36.068  17.086  14.841
68384W        W32317  35.560  22.569  12.407
68385W        W32318  15.317  29.568  13.484
68386W        W32319  21.116   0.847   3.314
68387W        W32320  41.440  43.272  12.060
68388W        W32321   5.221  14.149   3.683
68389W        W32322  25.159  30.010  14.908
68390W        W32323   1.310  17.219  14.478
68391W        W32324   0.950   1.311   1.249
68392W        W32325   8.260   5.883   2.260
68393W        W32326  38.492  42.932   3.717
68394W        W32327  29.628   7.416  13.891
68395W        W32328   7.902  33.470   4.174
68396W        W32329  40.799  10.756  10.581
68397W        W32330   9.150   4.795   3.656
68398W        W32331  30.095  19.180  14.846
68399W        W32332   3.421  36.499   1.899
68400W        W32333  12.780   7.333  11.086
68401W        W32334  32.002  13.752  13.505
68402W        W32335  23.216  22.176  14.369
68403W        W32336  22.505   5.691   4.747
68404W        W32337  30.943  36.510   4.227
68405W        W32338  29.553  31.583   3.166
68406W        W32339  12.744   7.318   1.242
68407W        W32340  12.631   2.319   1.349
68408W        W32341  42.296   1.962   2.349
68409W        W32342  28.544   2.444   4.597
68410W        W32343  42.464   0.307   0.832
68411W        W32344  22.158   3.247   3.266
68412W        W32345  18.138  17.271   2.205
68413W        W32346   1.432  28.941  14.475
68414W        W32347  29.030  31.060   0.824
68415W        W32348   7.349  23.633   1.436
68416W        W32349  10.309   4.731  14.995
68417W        W32350   7.849   9.214   4.699
68418W        W32351  21.683  39.537  13.370
68419W        W32352   4.854   1.784  14.433
68420W        W32353  22.196  37.905   3.376
68421W        W32354  31.488  39.874  14.298
68422W        W32355  28.986  39.991  12.059
68423W        W32356  21.514  36.920  14.856
68424W        W32357   3.338  27.130  12.370
68425W        W32358  32.606  36.872  12.845
68426W        W32359  12.184  36.893   1.745
68427W        W32360  13.226  39.538   3.767
68428W        W32361   9.719   5.263   1.817
68429W        W32362  43.452   8.317  12.569
68430W        W32363   4.822  11.189  12.879
68431W        W32364  25.987  34.049  12.960
68432W        W32365  11.243   9.392   3.333
68433W        W32366  30.006   0.750   2.257
68434W        W32367  42.287   2.378   2.262
68435W        W32368  31.520  35.531  13.001
68436W        W32369   5.205  44.484   1.860
68437W        W32370  34.075  13.805   1.310
68438W        W32371  24.078  14.747   3.667
68439W        W32372  36.374  13.146  10.947
68440W        W32373  34.488   4.282   3.284
68441W        W32374  15.608  25.546  10.631
68442W        W32375  38.410  39.522   3.640
68443W        W32376  22.601  33.085  11.000
68444W        W32377   4.278  36.955  12.097
68445W        W32378  26.076   0.848   2.672
68446W        W32379  23.627  14.786   1.333
68447W        W32380  10.665  37.359   4.759
68448W        W32381  12.733  26.579   4.817
68449W        W32382  44.415  24.161   0.795
68450W        W32383  25.572  34.031  13.053
68451W        W32384  27.052  37.349   2.879
68452W        W32385  36.554  35.882  14.933
68453W        W32386  13.628  13.107   4.159
68454W        W32387  37.973  34.913  14.460
68455W        W32388   3.384  29.593  10.935
68456W        W32389  26.620   8.700   2.235
68457W        W32390  27.004  29.039   3.310
68458W        W32391  15.679  41.445   2.358
68459W        W32392   7.834  33.592  10.603
68460W        W32393  44.458  43.433   0.808
68461W        W32394  37.898  38.969  11.543
68462W        W32395   9.645  19.054   2.241
68463W        W32396  18.166   8.795   0.835
68464W        W32397  27.514  38.435   3.812
68465W        W32398  24.717  33.986   1.924
68466W        W32399  12.189  28.171  11.063
68467W        W32400  38.030  32.886  13.870
68468W        W32401  35.988  15.594  12.423
68469W        W32402  21.137  34.435   4.830
68470W        W32403   7.226  35.907   1.218
68471W        W32404  32.926   7.232  13.454
68472W        W32405  26.047  36.364  14.391
68473W        W32406  44.381  37.484  10.898
68474W        W32407  22.653  20.138   3.241
68475W        W32408  30.141  26.543   2.706
68476W        W32409  27.941  34.402  14.363
68477W        W32410  13.795  30.046  11.944
68478W        W32411  19.694  28.130   1.399
68479W        W32412  32.892  15.766   4.821
68480W        W32413  43.503  33.961  10.480
68481W        W32414  18.699  41.470   0.288
68482W        W32415   2.815  13.307  11.476
68483W        W32416  41.316  13.788  13.977
68484W        W32417  38.375  10.285   3.188
68485W        W32418  27.614  31.098  14.419
68486W        W32419  21.231  13.165  10.022
68487W        W32420  36.842  44.461  12.346
68488W        W32421  37.512  23.000  10.536
68489W        W32422  16.228  24.713   2.738
68490W        W32423  43.995  37.870   2.858
68491W        W32424  26.147  15.670  14.870
68492W        W32425  13.155  10.325  14.854
68493W        W32426  26.035   2.853  14.942
68494W        W32427  15.716  43.831  11.113
68495W        W32428  41.322   3.303   2.781
68496W        W32429   3.349   3.862   2.403
68497W        W32430  41.892  39.521   1.214
68498W        W32431  15.125  13.233  13.916
68499W        W32432   7.302  14.146   4.207
68500W        W32433  40.366  24.642  14.916
68501W        W32434   2.282  16.711  13.960
68502W        W32435  27.600  37.446   4.774
68503W        W32436   5.922  15.238   9.979
68504W        W32437  27.029  14.592   2.836
68505W        W32438  41.526  43.964   2.388
68506W        W32439  32.123  43.875  12.001
68507W        W32440   1.259   9.811  14.943
68508W        W32441  17.777   3.249  14.828
68509W        W32442   0.936  10.240   1.224
68510W        W32443  18.558  33.129   4.230
68511W        W32444  21.556  23.577   4.642
68512W        W32445  12.147  20.769  10.970
68513W        W32446  24.160  30.940   3.773
68514W        W32447  36.554  40.519   3.374
68515W        W32448  16.293  24.628  11.486
68516W        W32449  40.925   6.396  12.490
68517W        W32450  15.143  37.076  11.856
68518W        W32451   3.339  26.101  14.929
68519W        W32452  41.429  40.039   1.720
68520W        W32453  39.361  33.436  13.927
68521W        W32454   0.889  12.221  10.957
68522W        W32455  24.555   0.979   2.746
68523W        W32456   1.444  44.806  11.595
68524W        W32457  35.083  41.466   2.900
68525W        W32458  27.637  44.291  14.842
68526W        W32459  11.697  44.297   4.772
68527W        W32460  19.744  25.648  14.943
68528W        W32461  18.160   2.757   2.801
68529W        W32462  25.542  11.685  13.925
68530W        W32463  12.700  21.699   3.172
68531W        W32464   9.282  14.310  14.018
68532W        W32465   4.801  29.946  13.501
68533W        W32466  23.071   3.813  11.072
68534W        W32467  21.171   7.222   3.175
68535W        W32468  11.685  43.285  11.094
68536W        W32469   3.914  15.231   3.308
68537W        W32470  41.468   7.196   2.871
68538W        W32471  42.891  32.954  14.924
68539W        W32472   7.708  12.703  10.406
68540W        W32473   3.883   2.246  11.016
68541W        W32474   0.900  39.903   1.288
68542W        W32475  28.041  24.079  14.774
68543W        W32476  31.643  22.158  11.461
68544W        W32477  20.586  41.410  13.005
68545W        W32478  34.535  34.522  14.286
68546W        W32479  37.476  16.646  10.911
68547W        W32480   9.781  25.211   3.761
68548W        W32481  23.645  39.544  10.413
68549W        W32482  15.230  25.201   0.967
68550W        W32483   9.220  42.433  11.567
68551W        W32484   4.873   4.362  11.860
68552W        W32485  27.522  12.281  12.418
68553W        W32486  31.115  28.097   5.104
68554W        W32487  36.931  11.302  11.525
68555W        W32488  24.036  44.910   2.301
68556W        W32489   8.359  10.259  14.910
68557W        W32490  39.042  25.970  12.047
68558W        W32491   4.211  20.259  12.884
68559W        W32492  34.983  10.807   2.400
68560W        W32493  11.781   0.261   3.864
68561W        W32494  44.291  34.531  14.450
68562W        W32495  41.877  29.959   1.793
68563W        W32496   6.384  24.189  14.903
68564W        W32497  31.429   8.834   4.296
68565W        W32498   8.695  12.731   2.310
68566W        W32499  27.000   7.227  12.435
68567W        W32500   8.822  43.892  11.129
68568W        W32501  14.768  25.691   0.798
68569W        W32502  33.395  30.549   1.430
68570W        W32503  14.702  33.493   3.842
68571W        W32504  26.573  41.458  11.603
68572W        W32505  30.087  19.545  10.982
68573W        W32506  21.169  31.984   1.212
68574W        W32507  29.527  43.337  11.102
68575W        W32508  32.050  15.684   2.774
68576W        W32509  26.678  37.035  10.517
68577W        W32510  27.625  12.287  11.918
68578W        W32511  31.468  35.087  10.917
68579W        W32512  10.307  21.172  14.509
68580W        W32513  39.319  28.171   2.824
68581W        W32514  39.521  34.883  14.513
68582W        W32515  27.065  24.124  10.909
68583W        W32516  33.907   5.360   2.235
68584W        W32517  38.544  20.621  10.589
68585W        W32518  20.175  16.268   2.415
68586W        W32519   0.487  10.355  13.492
68587W        W32520  23.118   8.830   1.830
68588W        W32521  20.571  41.952   3.359
68589W        W32522  22.006  44.954   4.324
68590W        W32523  18.209  12.356  12.359
68591W        W32524  34.509   8.703   2.388
68592W        W32525   8.371   4.298  14.030
68593W        W32526   7.862   0.895   5.135
68594W        W32527   1.820  34.446   4.631
68595W        W32528  25.011  15.646   0.733
68596W        W32529   2.424  13.650   0.833
68597W        W32530  27.691  11.316  11.040
68598W        W32531  37.344  25.618   4.620
68599W        W32532  33.389  36.950   4.254
68600W        W32533  35.579  34.602   1.251
68601W        W32534  10.673  29.424   4.779
68602W        W32535   9.261  21.172  11.607
68603W        W32536  42.980  30.477   2.719
68604W        W32537   0.466   8.354   1.759
68605W        W32538  37.541   6.373  10.914
68606W        W32539  39.457  39.961  10.484
68607W        W32540  14.246  17.705   3.382
68608W        W32541  36.094   0.918  14.342
68609W        W32542  10.699  37.362  10.488
68610W        W32543  32.992   7.314  13.015
68611W        W32544   9.863  19.779  10.887
68612W        W32545  20.555   6.339   4.310
68613W        W32546   3.304  23.578  11.399
68614W        W32547  32.537   7.748   0.303
68615W        W32548   1.816  23.556  12.862
68616W        W32549  38.004  23.573  10.565
68617W        W32550  41.990  35.903   2.891
68618W        W32551   9.814   8.274  13.374
68619W        W32552  36.576   5.195   1.822
68620W        W32553  34.865  30.123  10.479
68621W        W32554  29.654   3.721  12.438
68622W        W32555  32.603  33.129  12.565
68623W        W32556  11.834   2.927   2.227
68624W        W32557  44.259  39.989  10.603
68625W        W32558   9.746   9.353  13.927
68626W        W32559  40.488  27.477   3.386
68627W        W32560   2.747  44.474  14.424
68628W        W32561   0.773   7.667   0.892
68629W        W32562  30.103  22.164  11.943
68630W        W32563  29.466  27.162  11.114
68631W        W32564   8.336  20.153  14.441
68632W        W32565   5.235  28.617  14.014
68633W        W32566  21.256  40.972   3.374
68634W        W32567  19.681   9.282  12.084
68635W        W32568   7.814   4.737   3.334
68636W        W32569  20.536  43.896  10.576
68637W        W32570  34.912   2.811  13.792
68638W        W32571  18.095   5.739   1.226
68639W        W32572  32.122  40.988   3.847
68640W        W32573  32.037  36.064   2.195
68641W        W32574  38.961   5.406  13.055
68642W        W32575  33.616  25.123   0.438
68643W        W32576  36.960  22.610  10.518
68644W        W32577  22.150  14.204   0.904
68645W        W32578  31.641   6.860   0.822
68646W        W32579  40.888  26.139  12.994
68647W        W32580  30.920  29.438  11.892
68648W        W32581  37.975  29.493   1.242
68649W        W32582   0.763  29.587  11.935
68650W        W32583  37.859   9.301  14.275
68651W        W32584  18.616  44.385   3.173
68652W        W32585  29.437  13.143   2.897
68653W        W32586  26.182  21.040   2.375
68654W        W32587  15.691   2.961  10.959
68655W        W32588  44.285  11.191  10.057
68656W        W32589  36.090   5.766   1.332
68657W        W32590   2.810  32.073   4.141
68658W        W32591   2.464  25.008  12.973
68659W        W32592  34.511  40.353   4.703
68660W        W32593  33.001  34.002  10.419
68661W        W32594  37.061  26.149   4.291
68662W        W32595  26.962  14.774  12.356
68663W        W32596  20.052  37.510   2.384
68664W        W32597  22.656   8.279   4.306
68665W        W32598   1.460  39.378  10.937
68666W        W32599   3.396  33.595   1.703
68667W        W32600  16.304  30.473   3.169
68668W        W32601  17.747   1.478  13.493
68669W        W32602   1.257  22.718   1.777
68670W        W32603  25.541   9.787   4.745
68671W        W32604  29.511  21.585  11.108
68672W        W32605  41.901   9.730  11.430
68673W        W32606  32.581  39.912   0.452
68674W        W32607  22.559  21.614   1.393
68675W        W32608  34.466  28.669  12.949
68676W        W32609  10.193  41.883   2.859
68677W        W32610  15.712   8.672   3.674
68678W        W32611  40.446  36.474  11.396
68679W        W32612   5.313  12.167  11.424
68680W        W32613  33.907  16.126   1.240
68681W        W32614  27.977  17.792   3.630
68682W        W32615   4.323  15.194  13.491
68683W        W32616  25.985  33.028   4.622
68684W        W32617  36.083   3.833   2.826
68685W        W32618   7.390  16.774   0.415
68686W        W32619  29.596  27.143   2.202
68687W        W32620  26.461  30.982   1.829
68688W        W32621  27.972  44.359  11.927
68689W        W32622   2.279   9.657  14.383
68690W        W32623  36.422  31.465   0.901
68691W        W32624  43.846   1.407   2.322
68692W        W32625  20.094  44.974   0.795
68693W        W32626  19.628  31.032   3.807
68694W        W32627  43.294   9.372  13.957
68695W        W32628   0.488  21.090   1.849
68696W        W32629   1.753  35.008   1.901
68697W        W32630   3.916  11.338   1.420
68698W        W32631  32.481  12.617  10.531
68699W        W32632   2.258  40.840  10.909
68700W        W32633  39.341  32.609  14.865
68701W        W32634   7.318   6.346   2.711
68702W        W32635   6.687  18.250  13.362
68703W        W32636  21.557  43.388  10.952
68704W        W32637  30.519  37.002  13.326
68705W        W32638  20.260  30.545   9.974
68706W        W32639  10.260  15.158  13.887
68707W        W32640  34.416  38.056  11.539
68708W        W32641  36.096  11.685   4.716
68709W        W32642  20.096   3.739   2.758
68710W        W32643  25.711   5.430  13.843
68711W        W32644  17.730  35.441  10.894
68712W        W32645  32.104   7.874   3.386
68713W        W32646  19.221  21.176   3.700
68714W        W32647   3.326  21.245  14.431
68715W        W32648  25.130   4.433  10.596
68716W        W32649  25.517  34.570  14.763
68717W        W32650  25.678  23.728   0.349
68718W        W32651  21.185   4.276   0.875
68719W        W32652  20.611  30.153   1.913
68720W        W32653  24.113   7.188   5.304
68721W        W32654  21.613  13.166  14.406
68722W        W32655  42.994  35.534   0.389
68723W        W32656   8.682  34.544  11.543
68724W        W32657   5.401  11.843  13.343
68725W        W32658  27.023  13.213   2.276
68726W        W32659  25.140  16.676  14.031
68727W        W32660  10.165  29.647   1.376
68728W        W32661  16.664  30.139   3.788
68729W        W32662  30.125  15.758   1.344
68730W        W32663   8.828   5.742  11.471
68731W        W32664  18.599  31.902   5.096
68732W        W32665  42.383  44.285   3.712
68733W        W32666  19.542  43.876  14.440
68734W        W32667  25.139  11.792  11.584
68735W        W32668   4.258  34.399  10.970
68736W        W32669  37.523  23.048   1.421
68737W        W32670   8.238  31.635   2.285
68738W        W32671   8.260   7.317  11.510
68739W        W32672  37.035   4.869  11.083
68740W        W32673   8.280  40.541  14.919
68741W        W32674  33.380  30.922   1.769
68742W        W32675   1.289  13.811  12.406
68743W        W32676  27.188  36.917  10.515
68744W        W32677  31.937  29.025   4.617
68745W        W32678  43.317  23.108   0.351
68746W        W32679  22.633   4.896  13.396
68747W        W32680  39.502  16.272   1.256
68748W        W32681  14.752  22.628   1.445
68749W        W32682  30.492  35.360  13.975
68750W        W32683  24.140  17.779   2.324
68751W        W32684  21.069   6.711   2.780
68752W        W32685  42.953  36.884   4.819
68753W        W32686  31.530  16.726   4.160
68754W        W32687  30.535  36.850  10.888
68755W        W32688  36.515   0.930   1.265
68756W        W32689   0.423  42.777  11.007
68757W        W32690  34.422  35.485   2.872
68758W        W32691   3.425  41.015  14.275
68759W        W32692  16.734  43.870  13.053
68760W        W32693   5.349  24.529  12.478
68761W        W32694  30.084  29.995  10.529
68762W        W32695   3.424   0.409   0.866
68763W        W32696   6.764  27.124   1.762
68764W        W32697  17.203  38.870   2.665
68765W        W32698  30.998  31.936  10.128
68766W        W32699  31.915   7.837  11.094
68767W        W32700   5.720  18.171   3.293
68768W        W32701  44.938  39.855   0.904
68769W        W32702  39.500  26.059  13.941
68770W        W32703  18.147  37.405  13.509
68771W        W32704  37.573   1.924  12.412
68772W        W32705  25.015  18.652   2.782
68773W        W32706  36.498  39.817   2.827
68774W        W32707   0.794   2.938   4.626
68775W        W32708  33.570  37.522   2.664
68776W        W32709  37.570  15.703  12.446
68777W        W32710   3.388  41.535   3.268
68778W        W32711  27.009  35.986  13.447
68779W        W32712  14.660  37.465   4.268
68780W        W32713   0.472   0.308  12.937
68781W        W32714  44.269  21.675  10.541
68782W        W32715  21.204   9.311  13.420
68783W        W32716  33.607  33.028   4.732
68784W        W32717  37.421  37.899  14.928
68785W        W32718  35.479  26.531   0.347
68786W        W32719  40.997  14.831   2.350
68787W        W32720   9.688  32.518  10.477
68788W        W32721  18.743  12.659   3.355
68789W        W32722  15.140  32.083   3.339
68790W        W32723  13.105   0.802  13.859
68791W        W32724  18.276  41.485  13.982
68792W        W32725  24.549   4.882  12.540
68793W        W32726  35.378   6.265   4.762
68794W        W32727  26.147  38.955   2.723
68795W        W32728  25.027  23.045  12.073
68796W        W32729   6.319  10.843   2.321
68797W        W32730  10.744  24.511   2.730
68798W        W32731  11.838  28.155   0.730
68799W        W32732  23.189  11.830  11.872
68800W        W32733  23.165  21.256  13.047
68801W        W32734  37.934  35.530   2.393
68802W        W32735  21.124  30.648  11.116
68803W        W32736  28.979  39.911  12.940
68804W        W32737   9.235  10.754  14.806
68805W        W32738   8.227   6.316   4.167
68806W        W32739  18.263  32.431   3.680
68807W        W32740  34.597  24.177  10.611
68808W        W32741   4.400  14.215   2.360
68809W        W32742  23.988  14.248   4.204
68810W        W32743  26.534  18.228  11.860
68811W        W32744  10.247  15.201   1.223
68812W        W32745  25.620  18.208   5.190
68813W        W32746  19.136   8.385   4.192
68814W        W32747   6.780  12.215   4.631
68815W        W32748  44.392  25.186   0.789
68816W        W32749  42.513   4.428  10.456
68817W        W32750  44.259  27.948  12.990
68818W        W32751   5.783  16.775  11.372
68819W        W32752  29.597  17.099  13.803
68820W        W32753  21.662   8.199  13.008
68821W        W32754   8.753  43.415  10.998
68822W        W32755   7.807   0.900  13.963
68823W        W32756   5.205  39.876  11.890
68824W        W32757  42.347  34.544   1.325
68825W        W32758  37.514  44.914  14.923
68826W        W32759  14.323  15.713   5.091
68827W        W32760   2.382  12.745   3.852
68828W        W32761  30.469  29.130   3.156
68829W        W32762  30.011  26.561  12.937
68830W        W32763  32.028   3.358   4.639
68831W        W32764  14.216  31.601  14.494
68832W        W32765  35.408  21.162  11.923
68833W        W32766  36.945  34.545   1.404
68834W        W32767   9.274  17.696  12.465
68835W        W32768  38.536  16.261  12.987
68836W        W32769  32.066  43.816  14.417
68837W        W32770   5.380  34.919  12.056
68838W        W32771  18.691   0.462  11.476
68839W        W32772  18.790  43.865   1.930
68840W        W32773  41.365  19.682  13.460
68841W        W32774   3.283  38.833  10.025
68842W        W32775  15.647  17.602  13.511
68843W        W32776   1.333   9.727   3.690
68844W        W32777  39.027  38.074  10.623
68845W        W32778  11.787  21.066   2.252
68846W        W32779  14.740  36.547   4.787
68847W        W32780  22.746  28.467  13.378
68848W        W32781  26.487  26.585   3.258
68849W        W32782  32.587  35.933  12.505
68850W        W32783  12.348  15.114   4.786
68851W        W32784  35.497   6.693  12.346
68852W        W32785  29.655  44.976  11.004
68853W        W32786  37.362   7.818   5.229
68854W        W32787  10.184  15.672   2.293
68855W        W32788  25.040  30.101  11.525
68856W        W32789  31.127   6.189  11.381
68857W        W32790  20.045  19.272   3.254
68858W        W32791   8.165  36.877   4.834
68859W        W32792  27.180  36.016  10.995
68860W        W32793   7.750  40.332  12.962
68861W        W32794  11.780  24.165  11.534
68862W        W32795  29.932  18.731  12.379
68863W        W32796  20.535  32.963   4.761
68864W        W32797  25.068  12.192   2.705
68865W        W32798  25.519  39.811   0.343
68866W        W32799  29.461  24.028   2.791
68867W        W32800  32.035   7.893   1.704
68868W        W32801  42.963  34.957   0.330
68869W        W32802  16.607  33.595  12.491
68870W        W32803  36.473   5.896  13.022
68871W        W32804   3.728  39.395   0.901
68872W        W32805  43.908  18.772  11.856
68873W        W32806  25.134  30.597  14.872
68874W        W32807  43.901  25.509  11.601
68875W        W32808  16.201  39.425  12.846
68876W        W32809   8.185  15.250  12.563
68877W        W32810  38.960  12.211  10.561
68878W        W32811  26.151  17.134   0.834
68879W        W32812  41.982  43.397   0.921
68880W        W32813  32.958  36.363   3.777
68881W        W32814  30.951  21.757  14.778
68882W        W32815  16.303  27.117   0.736
68883W        W32816  41.450  42.826  14.475
68884W        W32817   1.478  24.019  12.959
68885W        W32818  29.960   9.679  10.539
68886W        W32819  12.190   4.251  14.290
68887W        W32820  15.673  25.166  10.457
68888W        W32821  30.157   4.736   1.930
68889W        W32822  30.988   3.859   4.813
68890W        W32823  20.072   3.356   5.200
68891W        W32824   9.373  38.553  12.357
68892W        W32825  19.724   8.750   2.290
68893W        W32826  23.203  10.654  13.539
68894W        W32827  25.690  39.556  10.942
68895W        W32828  16.238  20.529  12.434
68896W        W32829  32.631  12.157   4.183
68897W        W32830  28.141  26.999  11.869
68898W        W32831  39.347   9.800   2.824
68899W        W32832   2.332  34.519   4.126
68900W        W32833  24.183  19.256   3.641
68901W        W32834  31.154  32.061   0.358
68902W        W32835   1.969  11.849   1.335
68903W        W32836  12.219  36.408  12.888
68904W        W32837   4.319  26.085   0.918
68905W        W32838  40.926   8.294  13.896
68906W        W32839  28.933   0.434  13.517
68907W        W32840  27.637   5.931   4.345
68908W        W32841  40.009  10.779   2.785
68909W        W32842  29.037  18.616  11.065
68910W        W32843   6.692  31.072  13.977
68911W        W32844  20.145  14.116   1.742
68912W        W32845  34.017  12.655  12.847
68913W        W32846  36.957  27.038  12.951
68914W        W32847  38.364  42.361  14.937
68915W        W32848  36.865  18.246  11.529
68916W        W32849  43.315  41.406  12.861
68917W        W32850  20.529   0.863  14.338
68918W        W32851   2.466  26.472   4.193
68919W        W32852  19.718  34.995  13.504
68920W        W32853  19.249   1.947   1.890
68921W        W32854  34.875  21.681  12.407
68922W        W32855  36.079   5.363   1.229
68923W        W32856  31.974  18.702   1.812
68924W        W32857  26.669  17.652   0.356
68925W        W32858  37.890  32.082   0.288
68926W        W32859  24.143  37.011  12.874
68927W        W32860   8.677  22.111  14.480
68928W        W32861  19.657   3.296  11.552
68929W        W32862  27.961  28.487  13.464
68930W        W32863   5.436  26.540   4.280
68931W        W32864  21.574  14.234   3.854
68932W        W32865  16.155  11.357   2.705
68933W        W32866  22.998   3.429   3.213
68934W        W32867  40.978   1.426  12.580
68935W        W32868  42.488  18.712  13.825
68936W        W32869  19.638  23.614   2.691
68937W        W32870  25.656  33.105   0.254
68938W        W32871  22.622  26.514   4.205
68939W        W32872  42.308   0.467   1.885
68940W        W32873  30.069  11.789   3.772
68941W        W32874  36.949   7.242  11.106
68942W        W32875   4.825   8.195   0.319
68943W        W32876  43.369  27.107  11.940
68944W        W32877  19.655   3.217  12.409
68945W        W32878  13.745  12.205   4.334
68946W        W32879  34.401  40.026   2.337
68947W        W32880  22.595   3.825   1.768
68948W        W32881   9.863   1.310  11.443
68949W        W32882  28.979  22.252  14.495
68950W        W32883   0.342  10.324   4.634
68951W        W32884  29.024  21.715  10.413
68952W        W32885  18.277  23.596  12.480
68953W        W32886  31.413   6.201   3.300
68954W        W32887  25.494  35.956   1.437
68955W        W32888   4.247  13.600   0.431
68956W        W32889   7.787   1.250   0.471
68957W        W32890   6.887   3.251   4.116
68958W        W32891  30.128  17.696   0.796
68959W        W32892  33.393  14.280  12.980
68960W        W32893  40.491  42.499   0.365
68961W        W32894  35.869  20.750  14.445
68962W        W32895   9.674  15.222   2.676
68963W        W32896  23.005  22.132  14.847
68964W        W32897   9.768  20.675  13.310
68965W        W32898  41.469  21.203   0.262
68966W        W32899  30.492  21.021   1.442
68967W        W32900  18.235  37.404  12.501
68968W        W32901   3.299   2.448  12.379
68969W        W32902  11.817  30.059   0.938
68970W        W32903  35.930   0.287   1.303
68971W        W32904  21.237  24.578   1.876
68972W        W32905  37.020  37.978  12.861
68973W        W32906   5.403  27.182  10.617
68974W        W32907  33.518  43.496  12.943
68975W        W32908  34.901   0.293   1.438
68976W        W32909   5.360   4.435  14.930
68977W        W32910   6.204  21.054  13.865
68978W        W32911  31.529  24.585  14.360
68979W        W32912   8.239   8.175   2.252
68980W        W32913  34.522  21.197  12.975
68981W        W32914  40.851  16.268   1.922
68982W        W32915   0.431  28.476  13.490
68983W        W32916  23.137  12.665   1.444
68984W        W32917  41.857  34.478  12.499
68985W        W32918  37.001   1.269   2.369
68986W        W32919  42.323  12.752   1.866
68987W        W32920  12.130  32.615   1.212
68988W        W32921  24.128  40.890   4.810
68989W        W32922  14.761  42.787  10.912
68990W        W32923  29.118  37.336  14.797
68991W        W32924  12.219  42.416  14.404
68992W        W32925  34.613  36.042  12.362
68993W        W32926  12.672  33.427   4.796
68994W        W32927  37.434  15.128   3.728
68995W        W32928  36.433  26.517  11.935
68996W        W32929   0.427  35.506   4.346
68997W        W32930  21.517  44.409   4.340
68998W        W32931  11.765  31.425   3.816
68999W        W32932  41.993  17.784  11.960
69000W        W32933  24.705  36.426   2.891
69001W        W32934  36.960  19.229   3.329
69002W        W32935  13.237  29.957  10.430
69003W        W32936   0.890   7.823   4.816
69004W        W32937  23.228  35.444  14.969
69005W        W32938  44.283   4.317   2.341
69006W        W32939   1.320  29.551  13.912
69007W        W32940  26.043  36.065   1.740
69008W        W32941  31.014  31.491  13.514
69009W        W32942   0.377  29.644  10.959
69010W        W32943  31.416  13.781  14.948
69011W        W32944  33.421  14.117   1.772
69012W        W32945  17.235  40.386   2.371
69013W        W32946  17.725  34.055  14.335
69014W        W32947  31.111  40.455  11.954
69015W        W32948  39.440  31.517   1.350
69016W        W32949   1.383   6.910  11.448
69017W        W32950  11.303  22.175  14.925
69018W        W32951  40.533  10.811  13.455
69019W        W32952   3.416  32.633   3.758
69020W        W32953   6.400   7.301   0.865
69021W        W32954  23.694   4.255   1.837
69022W        W32955  33.996  37.004  13.326
69023W        W32956  21.630  42.875   3.692
69024W        W32957  31.959   5.264   0.848
69025W        W32958  43.433   8.769  13.884
69026W        W32959  23.632  42.326   4.782
69027W        W32960   5.798  27.181   4.245
69028W        W32961   4.237  37.867   4.799
69029W        W32962   3.421  42.333  11.530
69030W        W32963  28.644  14.785   4.158
69031W        W32964  42.842  34.003  12.888
69032W        W32965  15.313  17.708  10.893
69033W        W32966  40.477  30.464   1.255
69034W        W32967   5.245  21.740   2.821
69035W        W32968   2.890   5.303  13.470
69036W        W32969  15.782  20.197  13.055
69037W        W32970   0.379  16.658   1.755
69038W        W32971  39.014  42.323  14.340
69039W        W32972  30.935  39.839   1.379
69040W        W32973  39.428  45.000   2.738
69041W        W32974  10.175  33.913  12.840
69042W        W32975   6.203  31.041  10.514
69043W        W32976  31.969  37.354   3.653
69044W        W32977  21.713  26.181   0.295
69045W        W32978   4.233  40.988  13.821
69046W        W32979  10.204   2.927   2.341
69047W        W32980  23.156  32.886  11.870
69048W        W32981  31.025   1.795   1.696
69049W        W32982  26.670  10.687   0.801
69050W        W32983  37.927  31.927  11.943
69051W        W32984  17.792  34.941   3.678
69052W        W32985  19.132  20.162   2.663
69053W        W32986  14.294  37.873  14.988
69054W        W32987  37.448  23.056   4.351
69055W        W32988  18.649   5.381  11.003
69056W        W32989  37.079  15.315   4.674
69057W        W32990  42.996  28.060  10.448
69058W        W32991  33.103  11.778  12.956
69059W        W32992   0.974  41.403   0.352
69060W        W32993  13.730  29.033   4.268
69061W        W32994  12.692  18.661  10.990
69062W        W32995   8.180  39.876   4.622
69063W        W32996  13.269  31.439  14.391
69064W        W32997  37.985  40.378   2.201
69065W        W32998  37.079  17.229  10.925
69066W        W32999  13.169  27.180   2.209
69067W        W33000  14.284  18.158   2.892
69068W        W33001  30.585   4.248  12.572
69069W        W33002  32.542  18.659   0.309
69070W        W33003  43.831  22.596  13.011
69071W        W33004  43.841  37.941   1.326
69072W        W33005   0.488  29.930   3.213
69073W        W33006  32.556  28.936   2.191
69074W        W33007  36.375  13.119  11.859
69075W        W33008  19.676  26.083   4.228
69076W        W33009  21.739   4.851   0.282
69077W        W33010  23.098   9.319  13.339
69078W        W33011  43.310  26.185   1.882
69079W        W33012  35.990  24.204  11.857
69080W        W33013  18.723  34.999  13.048
69081W        W33014  21.063  21.150   5.299
69082W        W33015  34.614  35.936  11.554
69083W        W33016  30.428  29.066   4.757
69084W        W33017  24.616   4.791  10.411
69085W        W33018  10.656  37.872   3.745
69086W        W33019  17.776  22.554  10.412
69087W        W33020  11.197   5.375  12.515
69088W        W33021  13.823  33.533  11.541
69089W        W33022  26.515  15.753  10.424
69090W        W33023  36.571  35.013  13.352
69091W        W33024  18.176   4.399   0.356
69092W        W33025  21.687  33.090   3.251
69093W        W33026  23.990  37.361   3.812
69094W        W33027  26.615   2.740  13.903
69095W        W33028  22.042  40.892  11.458
69096W        W33029   0.766   3.444   4.233
69097W        W33030   6.303   9.860   3.224
69098W        W33031  18.109  19.088  10.051
69099W        W33032   9.194  24.511   1.409
69100W        W33033  17.253  20.156   2.768
69101W        W33034  33.001  26.084  14.442
69102W        W33035  25.147  32.634   3.711
69103W        W33036  25.133  23.174  13.986
69104W        W33037  33.454   6.343   0.930
69105W        W33038  27.595  21.522   0.337
69106W        W33039  10.361  38.970  13.054
69107W        W33040  25.015  11.734   0.807
69108W        W33041   5.810  24.668   1.927
69109W        W33042   4.773  42.909  13.883
69110W        W33043  23.540   9.272  11.099
69111W        W33044  17.615   2.392   1.789
69112W        W33045  23.696  37.036  14.952
69113W        W33046  23.150  23.098  10.587
69114W        W33047  25.539  18.146  13.474
69115W        W33048  24.679  27.013   3.685
69116W        W33049  41.033   8.243   3.386
69117W        W33050  32.423  35.388   2.673
69118W        W33051  11.303  11.651   2.390
69119W        W33052   0.924   5.349  13.060
69120W        W33053   5.909  37.491  10.633
69121W        W33054   5.417  24.229  11.403
69122W        W33055   3.791  35.889   2.338
69123W        W33056  20.768  37.009  13.877
69124W        W33057  36.377  12.614   0.331
69125W        W33058   5.692  36.509  13.045
69126W        W33059  37.513   9.848   4.712
69127W        W33060  38.502  29.645   2.857
69128W        W33061  12.229  25.592  14.344
69129W        W33062  43.890  21.044  12.012
69130W        W33063   7.881  24.186   0.364
69131W        W33064  14.766  38.858   2.283
69132W        W33065  33.889   9.853  13.472
69133W        W33066  16.242  23.585  10.543
69134W        W33067  26.505   6.200  13.885
69135W        W33068  13.138  43.829  12.049
69136W        W33069  31.071  44.379   4.837
69137W        W33070   5.347  33.925  12.897
69138W        W33071  43.814  27.647   0.804
69139W        W33072   9.228  34.447   2.802
69140W        W33073  40.905   5.831   0.415
69141W        W33074  42.421   8.376   0.310
69142W        W33075  16.800  19.054   3.244
69143W        W33076  10.283  12.670   4.348
69144W        W33077  38.465  35.902  12.075
69145W        W33078  33.483   4.828   0.849
69146W        W33079  28.680  41.293  13.980
69147W        W33080   7.412  35.874  11.510
69148W        W33081  30.641  17.189  12.919
69149W        W33082  32.587  41.462  13.414
69150W        W33083  44.793   1.276  11.374
69151W        W33084  34.526   9.814   1.292
69152W        W33085  41.982  37.456  11.493
69153W        W33086  25.626  10.271  12.938
69154W        W33087  14.641  11.195  10.440
69155W        W33088   0.319  20.668   1.806
69156W        W33089   7.417  39.056  13.042
69157W        W33090   0.798   3.314   5.110
69158W        W33091  14.760  17.734   4.199
69159W        W33092   7.842  28.979  10.607
69160W        W33093  37.375  31.474   4.616
69161W        W33094  12.646  15.593  14.389
69162W        W33095  19.585  21.262  13.420
69163W        W33096  26.991   1.261   9.985
69164W        W33097  21.641  12.194  10.062
69165W        W33098  33.518  18.711   3.164
69166W        W33099  41.300  30.005   1.787
69167W        W33100  26.002  20.244  13.433
69168W        W33101  39.932  30.133  13.388
69169W        W33102  28.027  19.668  11.611
69170W        W33103  18.144  25.154   0.748
69171W        W33104  34.952  36.902   4.250
69172W        W33105  23.988  36.569  10.490
69173W        W33106  20.238  31.608   2.687
69174W        W33107   0.742  12.668  14.962
69175W        W33108   8.342  14.173  12.340
69176W        W33109   2.940  44.429   4.217
69177W        W33110  19.139  12.206  14.881
69178W        W33111  30.148  26.980  14.999
69179W        W33112  17.081  26.630   3.377
69180W        W33113  42.003  31.032  11.960
69181W        W33114  22.136   0.932   3.336
69182W        W33115  33.585   4.333   2.839
69183W        W33116  20.619  41.817  14.281
69184W        W33117  33.608  15.629   1.935
69185W        W33118  29.962  34.020   2.400
69186W        W33119  14.295  36.053   3.150
69187W        W33120  10.158   6.868  14.979
69188W        W33121  32.451  16.636  11.875
69189W        W33122  39.502  22.137   0.747
69190W        W33123  32.449  32.886   0.288
69191W        W33124  28.011   5.783  10.454
69192W        W33125   4.878  12.232  12.968
69193W        W33126  24.031   4.239   4.289
69194W        W33127  44.286  25.217  10.635
69195W        W33128   5.821  36.548  14.939
69196W        W33129  27.094  21.135   0.927
69197W        W33130  35.378   5.409  11.890
69198W        W33131  11.172  21.655  11.031
69199W        W33132  22.245  39.040  12.349
69200W        W33133  10.852  36.385   4.695
69201W        W33134  25.165  15.655   1.230
69202W        W33135  41.824  22.999   3.787
69203W        W33136  25.643   3.338  10.062
69204W        W33137  22.076  18.267   3.154
69205W        W33138  24.038  37.412  10.468
69206W        W33139  18.708   8.213  11.401
69207W        W33140  23.582  13.696  10.488
69208W        W33141   9.878  17.761  14.924
69209W        W33142  39.504  33.934  11.034
69210W        W33143  30.009  19.182  12.917
69211W        W33144   7.361  22.514  11.414
69212W        W33145  10.325  38.518   0.839
69213W        W33146   7.785  37.877  14.890
69214W        W33147   8.750  21.187   0.784
69215W        W33148  44.885  15.194  12.450
69216W        W33149  20.210   2.329   4.715
69217W        W33150  31.000  27.957   3.350
69218W        W33151  40.548   8.306  12.494
69219W        W33152  24.622  14.267   5.301
69220W        W33153  14.655  23.214   3.644
69221W        W33154  19.163  43.832   3.826
69222W        W33155  35.547  27.634  11.881
69223W        W33156  26.557  35.588   1.762
69224W        W33157  38.471  37.543  11.105
69225W        W33158   6.714  19.065   2.774
69226W        W33159   1.968   6.859   3.795
69227W        W33160  33.899   5.922   4.261
69228W        W33161  20.630  16.592  12.027
69229W        W33162  30.422   5.715   2.270
69230W        W33163  31.008  31.559  10.494
69231W        W33164  27.644  17.717  10.545
69232W        W33165   1.461  16.310   4.810
69233W        W33166   1.248  26.690  11.126
69234W        W33167   2.328  37.515  13.996
69235W        W33168   9.378  18.147   0.374
69236W        W33169  29.099   0.777  13.434
69237W        W33170  34.116   3.255  14.285
69238W        W33171  15.154  18.218  12.827
69239W        W33172  43.868  26.161  12.514
69240W        W33173  31.609  33.898  13.037
69241W        W33174  44.489  27.012   0.789
69242W        W33175  41.883  36.017  14.360
69243W        W33176   0.330   9.862   4.276
69244W        W33177  21.653   9.823  13.471
69245W        W33178  43.004  11.282   3.837
69246W        W33179  24.177   5.377   0.877
69247W        W33180  34.521  40.318  11.472
69248W        W33181  18.054  18.770  10.935
69249W        W33182  24.610  41.849   1.221
69250W        W33183  22.056  31.102  13.015
69251W        W33184  26.977  14.208  12.017
69252W        W33185   7.902  30.571  10.927
69253W        W33186   9.687   6.725   4.784
69254W        W33187  44.761   3.725  14.431
69255W        W33188  44.966  34.024  10.566
69256W        W33189   3.911   9.813   2.396
69257W        W33190  11.334  33.471   1.902
69258W        W33191  32.979   6.316  11.860
69259W        W33192  38.019  11.838  11.869
69260W        W33193  16.213  31.117  11.061
69261W        W33194   2.231  17.644  11.994
69262W        W33195  35.084  44.399  13.901
69263W        W33196  20.645  14.772   4.664
69264W        W33197   8.302  10.286   0.319
69265W        W33198  31.442  33.124   2.318
69266W        W33199  25.001   1.951  10.590
69267W        W33200   6.192  27.157   5.688
69268W        W33201   8.822   0.349   0.810
69269W        W33202  17.636   9.325   1.702
69270W        W33203  23.633  38.939   3.168
69271W        W33204  33.902  44.435  13.540
69272W        W33205  13.794  17.753  11.375
69273W        W33206  33.407   5.687   0.847
69274W        W33207  20.198  28.971   0.758
69275W        W33208  23.539  17.727  11.055
69276W        W33209  40.412  25.101  14.360
69277W        W33210   7.730   4.818  10.098
69278W        W33211  10.721  27.453   3.215
69279W        W33212  21.217   7.861   0.896
69280W        W33213  12.252  26.657  14.313
69281W        W33214  22.246  42.939  13.427
69282W        W33215  27.651  31.933  10.951
69283W        W33216  23.121   5.343   2.254
69284W        W33217  13.197  10.810  11.055
69285W        W33218  39.543  25.026  14.363
69286W        W33219  27.653   8.210   0.361
69287W        W33220  23.586  35.569   2.774
69288W        W33221   1.840  25.097   1.388
69289W        W33222   4.921  13.766   2.703
69290W        W33223  22.251  19.651   1.924
69291W        W33224  34.087   9.707   1.332
69292W        W33225  34.918  16.221  12.875
69293W        W33226  33.507  25.698  13.028
69294W        W33227  33.999  26.508   3.787
69295W        W33228  42.958  25.199  13.903
69296W        W33229  44.827  11.857   2.864
69297W        W33230  10.255  42.788  10.937
69298W        W33231  14.601  18.159  14.855
69299W        W33232   1.447  12.654  10.508
69300W        W33233   0.801   1.891   4.194
69301W        W33234   4.403  25.623   1.210
69302W        W33235  17.178  17.100   0.955
69303W        W33236   5.249  16.760   0.337
69304W        W33237   4.839  15.686  10.906
69305W        W33238   6.919   5.709  12.345
69306W        W33239   3.822  13.677   0.244
69307W        W33240  24.603  42.372   3.822
69308W        W33241  38.417  14.642  10.533
69309W        W33242   7.801   1.465  10.590
69310W        W33243   8.287  40.983   2.713
69311W        W33244   2.846  28.630  11.036
69312W        W33245  13.709   2.748   4.751
69313W        W33246  26.109  19.130  12.937
69314W        W33247   4.754  11.217  12.084
69315W        W33248   3.299  36.499  14.376
69316W        W33249  24.673  44.859   4.173
69317W        W33250  26.160   5.326   3.206
69318W        W33251  37.909  27.640  11.908
69319W        W33252   0.295  41.811   4.815
69320W        W33253  35.525  41.965   3.156
69321W        W33254  14.824  44.774  11.599
69322W        W33255   9.322  23.103   5.298
69323W        W33256  11.665  19.237   3.854
69324W        W33257  36.887   3.785   4.767
69325W        W33258  25.985  24.202  12.068
69326W        W33259  30.618  12.634   4.123
69327W        W33260  35.090  11.743   1.890
69328W        W33261  11.672  42.349  13.039
69329W        W33262  18.625  39.891   0.430
69330W        W33263   9.828   7.760   2.274
69331W        W33264  42.920  34.894  14.009
69332W        W33265   3.426  16.690   4.304
69333W        W33266  22.672  26.549   3.803
69334W        W33267  31.957  36.008  13.004
69335W        W33268  15.233  28.448  13.440
69336W        W33269   6.896  32.586  13.964
69337W        W33270  42.031  16.655   1.247
69338W        W33271  30.553  28.109  14.028
69339W        W33272  41.294   9.344  11.996
69340W        W33273   0.806  20.633   1.739
69341W        W33274   2.730   2.871  11.098
69342W        W33275  38.867   2.367   2.816
69343W        W33276  34.426  24.575  12.028
69344W        W33277   4.225  18.276  10.514
69345W        W33278  33.559  25.060  11.901
69346W        W33279   2.742  38.856   0.824
69347W        W33280   4.242  12.675  14.381
69348W        W33281   3.901   7.746  11.456
69349W        W33282  24.635  16.621   3.759
69350W        W33283  39.904  44.901   4.241
69351W        W33284   9.737  16.078   1.907
69352W        W33285  13.202   7.901  12.405
69353W        W33286  16.217  38.341  14.495
69354W        W33287  20.602  12.336  10.924
69355W        W33288  15.144  30.578  13.518
69356W        W33289  31.513  39.874  13.315
69357W        W33290  19.235  32.476   4.708
69358W        W33291  19.098   4.738  14.332
69359W        W33292  20.548  30.534   0.792
69360W        W33293  44.310   1.764  13.454
69361W        W33294  17.287  18.070  13.827
69362W        W33295  15.655  39.944   2.777
69363W        W33296  20.740  31.026   4.823
69364W        W33297  22.213  32.021   2.669
69365W        W33298   6.414  13.105   3.214
69366W        W33299  20.261  26.184  12.418
69367W        W33300  18.672  44.781   3.300
69368W        W33301  22.598  35.985  11.557
69369W        W33302   9.678  17.252   4.300
69370W        W33303  38.491   0.459  11.992
69371W        W33304   2.466   0.842  11.875
69372W        W33305  10.670  24.643  14.952
69373W        W33306  23.052  28.440  12.423
69374W        W33307  27.484  40.800   4.798
69375W        W33308  22.717   8.382   1.245
69376W        W33309  37.958  34.445  13.525
69377W        W33310  37.434   9.788   4.352
69378W        W33311  40.430  10.185   3.166
69379W        W33312  39.493   6.764   0.849
69380W        W33313  20.222  19.176   4.826
69381W        W33314  33.922  15.725   4.757
69382W        W33315  22.554  30.040  14.495
69383W        W33316  31.009  37.576  14.775
69384W        W33317  40.305  32.616  13.487
69385W        W33318   7.668  11.182  10.497
69386W        W33319   0.477  28.974  13.372
69387W        W33320   0.921  33.516  10.093
69388W        W33321  37.004   2.828   1.739
69389W        W33322   2.398  19.744  11.923
69390W        W33323   1.453   8.745   3.333
69391W        W33324  18.709  22.727  11.977
69392W        W33325  39.413  16.221   0.405
69393W        W33326  28.009  25.617  11.981
69394W        W33327  23.992  10.373   2.799
69395W        W33328  13.310   0.778   3.249
69396W        W33329   1.378  35.508  14.356
69397W        W33330   5.278   3.788   1.724
69398W        W33331   5.840  36.013  14.459
69399W        W33332  44.281  27.050  11.063
69400W        W33333  34.935  13.757   3.654
69401W        W33334   1.902   1.907   1.817
69402W        W33335  20.565  33.510  12.436
69403W        W33336  21.085  23.190   1.761
69404W        W33337  21.656  36.578   3.822
69405W        W33338  22.143  34.424  11.376
69406W        W33339   4.924   4.323  12.393
69407W        W33340  38.971  26.497   4.139
69408W        W33341  21.641  33.911  13.928
69409W        W33342   0.946  18.189  10.909
69410W        W33343  10.878  22.512  13.537
69411W        W33344  23.604  20.119  14.311
69412W        W33345  25.148  14.240  12.979
69413W        W33346  25.479  26.962   1.354
69414W        W33347  21.681   9.846  11.963
69415W        W33348   6.269   7.820   0.272
69416W        W33349  37.985  25.680   3.835
69417W        W33350  38.571  34.917   1.766
69418W        W33351  22.183  34.945   2.680
69419W        W33352   2.921  42.009  12.057
69420W        W33353   6.371  30.634  13.975
69421W        W33354  40.931  44.489  10.591
69422W        W33355  35.965   8.252   2.708
69423W        W33356  12.171   0.851  12.091
69424W        W33357   9.200  28.630   4.117
69425W        W33358   1.824   3.940   0.883
69426W        W33359   3.898  31.420   1.320
69427W        W33360  16.599   9.310   0.831
69428W        W33361  25.567  41.871  13.419
69429W        W33362  14.636  14.206   0.813
69430W        W33363  26.595  24.192  14.498
69431W        W33364  30.622   0.752  10.948
69432W        W33365  24.607  39.349   4.191
69433W        W33366  17.721  33.609   2.892
69434W        W33367  34.527  27.114  10.567
69435W        W33368  16.767  16.146   3.276
69436W        W33369  29.582  22.160   3.782
69437W        W33370   6.776  18.564  12.866
69438W        W33371   9.876  32.031   3.812
69439W        W33372  38.542  30.474   1.443
69440W        W33373  11.336  36.035  10.617
69441W        W33374   7.672  43.886   0.942
69442W        W33375  20.762  35.420  13.363
69443W        W33376   3.742  43.463  13.922
69444W        W33377  40.514  11.693  14.019
69445W        W33378  26.619  14.129   3.685
69446W        W33379  20.758  44.944   1.313
69447W        W33380   8.872  26.690   4.600
69448W        W33381  24.182   4.702  10.101
69449W        W33382   0.298  37.373  14.372
69450W        W33383  44.263  30.043   2.814
69451W        W33384   6.677  14.698  10.079
69452W        W33385  30.912  30.597   0.394
69453W        W33386  17.643  27.634  11.001
69454W        W33387  41.447   9.817  12.054
69455W        W33388  43.512  42.002  12.490
69456W        W33389  14.135  13.265   3.285
69457W        W33390  30.440  12.346  13.993
69458W        W33391  19.262   1.466  11.115
69459W        W33392   4.325  15.675   4.133
69460W        W33393  44.881  26.630  13.469
69461W        W33394  42.348  14.671   0.358
69462W        W33395  18.714  15.197  12.897
69463W        W33396   6.899  19.745   3.199
69464W        W33397  20.686  18.140  13.359
69465W        W33398  18.283  29.574  10.473
69466W        W33399  36.926  15.750   2.857
69467W        W33400   4.779  14.322  14.816
69468W        W33401  35.091  36.526  13.543
69469W        W33402  11.165  32.131  10.614
69470W        W33403  21.191  29.942   3.690
69471W        W33404  19.133  18.231   1.759
69472W        W33405   8.388  22.684   1.332
69473W        W33406   3.250  34.916   1.860
69474W        W33407  16.637  16.208  10.632
69475W        W33408  26.641  33.626   3.864
69476W        W33409   2.931  13.139   4.665
69477W        W33410  10.291  43.933   2.827
69478W        W33411  42.390  22.664   1.803
69479W        W33412   6.197  43.458  14.413
69480W        W33413  32.588  14.615   2.687
69481W        W33414  21.536   5.871   1.865
69482W        W33415   6.918   7.862  14.937
69483W        W33416   9.186  28.105   0.468
69484W        W33417  11.654  24.514   2.229
69485W        W33418   6.690  37.981  10.898
69486W        W33419  23.199   2.442  13.993
69487W        W33420  27.475   8.867  13.797
69488W        W33421   4.746  38.528   0.307
69489W        W33422  22.199  10.188   2.677
69490W        W33423  18.259  16.163  11.537
69491W        W33424   0.858  21.174   5.144
69492W        W33425  11.688  29.019  12.905
69493W        W33426  18.675  19.239  13.978
69494W        W33427  28.169  37.977   3.208
69495W        W33428   3.289  44.779   1.857
69496W        W33429  25.200  18.622   3.695
69497W        W33430  40.384  33.037  14.289
69498W        W33431   0.331  20.541   2.182
69499W        W33432  17.287  27.538  14.784
69500W        W33433  20.544  32.591   2.826
69501W        W33434   3.833  17.206  10.928
69502W        W33435  43.912  25.703   0.873
69503W        W33436  11.633  36.499  10.554
69504W        W33437  33.117   0.273   2.213
69505W        W33438  43.775   4.722  13.896
69506W        W33439   4.397  34.060   0.784
69507W        W33440   7.889  14.243   3.376
69508W        W33441  32.905  38.406   2.780
69509W        W33442  31.043  22.541  12.864
69510W        W33443  10.792  11.250   2.270
69511W        W33444   8.176  34.489  12.880
69512W        W33445  28.537   7.371  12.934
69513W        W33446   4.831  15.697   3.311
69514W        W33447  41.989  39.957   0.742
69515W        W33448  24.487  24.231   2.198
69516W        W33449  29.991   6.840  13.871
69517W        W33450  34.511  14.114  11.122
69518W        W33451   8.270  29.459  12.346
69519W        W33452  32.567  35.423   1.225
69520W        W33453  16.148  13.833   2.815
69521W        W33454  14.718  33.561  11.884
69522W        W33455   2.315   9.311   4.154
69523W        W33456   9.677  26.069  12.362
69524W        W33457   5.760  36.400  10.421
69525W        W33458  29.479  14.659   3.690
69526W        W33459   6.211   1.449   5.272
69527W        W33460  38.961  17.150   4.660
69528W        W33461  31.005  38.324   4.668
69529W        W33462  41.503  13.679   1.311
69530W        W33463  30.537  29.485   3.841
69531W        W33464  18.187  14.132  11.406
69532W        W33465  17.745  39.031   3.729
69533W        W33466  12.206  25.642  14.888
69534W        W33467  22.686  24.128  12.414
69535W        W33468  20.241  23.495  11.413
69536W        W33469  42.940  12.290  13.351
69537W        W33470  26.507  11.771  13.523
69538W        W33471   6.384  36.044   0.367
69539W        W33472  25.573  12.181   2.200
69540W        W33473  11.695  31.481   4.662
69541W        W33474  26.546   7.345  14.407
69542W        W33475  34.896  41.481  11.925
69543W        W33476  16.280  27.455  11.948
69544W        W33477  21.031   1.776  10.979
69545W        W33478   8.661  10.688   4.176
69546W        W33479  20.618  33.943   1.772
69547W        W33480   4.411  32.079   5.163
69548W        W33481   0.843   5.838   1.297
69549W        W33482  17.664  44.921   2.682
69550W        W33483  26.137  16.676  12.968
69551W        W33484   5.748  27.132  12.823
69552W        W33485  11.842  37.834  14.469
69553W        W33486  34.025  37.441  10.555
69554W        W33487   6.425  33.973  11.429
69555W        W33488   0.383   4.284  14.768
69556W        W33489   7.227  16.628   4.273
69557W        W33490  44.294  28.661  13.811
69558W        W33491  29.424  43.018  12.967
69559W        W33492  11.781  36.536  10.999
69560W        W33493  28.650  33.119  11.106
69561W        W33494  21.553  32.066  10.907
69562W        W33495  44.006   2.409  14.912
69563W        W33496  25.535  30.624   5.255
69564W        W33497   9.243   9.688   0.790
69565W        W33498  26.038  24.111  13.917
69566W        W33499  40.496  27.039   3.249
69567W        W33500  36.497  12.615   1.808
69568W        W33501   1.419  22.198   4.151
69569W        W33502  40.331   7.185   5.298
69570W        W33503  16.608   6.273  14.312
69571W        W33504  39.419  38.355   4.781
69572W        W33505  29.085  19.053  12.841
69573W        W33506  39.434   4.724   0.330
69574W        W33507  32.050   9.344  13.014
69575W        W33508   5.383  39.509   0.737
69576W        W33509  38.857  26.529   9.970
69577W        W33510  40.339   8.286   4.678
69578W        W33511  40.935  17.207   0.928
69579W        W33512  33.411  31.473  14.872
69580W        W33513  14.756  18.682  11.566
69581W        W33514  27.558   5.339  10.523
69582W        W33515  33.071   1.290   4.146
69583W        W33516  38.886  42.317  11.393
69584W        W33517  39.821  37.087   5.289
69585W        W33518  30.509   7.874   0.784
69586W        W33519  30.534  17.185   3.197
69587W        W33520  32.067  16.296   1.798
69588W        W33521  34.566  27.640   3.302
69589W        W33522  10.796  38.875   1.895
69590W        W33523  15.107  12.249  14.761
69591W        W33524  37.406  24.488  13.391
69592W        W33525  17.735   9.821  13.378
69593W        W33526  32.447  11.269  12.380
69594W        W33527  27.553  29.136   2.739
69595W        W33528  44.268  44.891  12.573
69596W        W33529  35.471   9.345  11.452
69597W        W33530  24.987  36.559  11.992
69598W        W33531  11.211  35.509   0.965
69599W        W33532   0.803  17.064  12.524
69600W        W33533   9.843  22.227  13.382
69601W        W33534  14.142  26.190  10.994
69602W        W33535  33.115   9.803   3.727
69603W        W33536  20.256  33.541  14.902
69604W        W33537  18.780  12.287   2.280
69605W        W33538  12.629  34.037   4.782
69606W        W33539   5.361   9.200  13.462
69607W        W33540   5.275  35.474   1.329
69608W        W33541  38.434  15.690   1.899
69609W        W33542   2.359   6.771   3.785
69610W        W33543  27.961  34.412  13.926
69611W        W33544  14.727   2.324  13.349
69612W        W33545  16.634  31.068  14.904
69613W        W33546   7.256  16.772  13.373
69614W        W33547  34.874   1.781   3.295
69615W        W33548  10.836  35.526  13.949
69616W        W33549  32.995  24.654  13.995
69617W        W33550  13.301  19.732   1.855
69618W        W33551  18.569  35.421   2.750
69619W        W33552  31.072  16.597  11.526
69620W        W33553   8.699   3.375  10.597
69621W        W33554  16.096  14.705   0.967
69622W        W33555   9.155  33.478   1.316
69623W        W33556  43.442  29.040   3.832
69624W        W33557  18.646  27.666   3.230
69625W        W33558  30.441  33.610  12.384
69626W        W33559   6.340  40.823   2.822
69627W        W33560  41.482   3.393  14.981
69628W        W33561  10.304  44.885   1.222
69629W        W33562  38.331  16.180   3.797
69630W        W33563  24.171  23.043  11.416
69631W        W33564  29.009  31.574   1.273
69632W        W33565  22.188  44.815  10.990
69633W        W33566  29.078   6.287  14.312
69634W        W33567  17.255  28.560   3.709
69635W        W33568  12.617  34.963  11.548
69636W        W33569  11.291  43.514   4.681
69637W        W33570   7.257   6.717   4.687
69638W        W33571  12.348   2.468   3.151
69639W        W33572  25.528  21.078   2.709
69640W        W33573  41.005  40.325  13.958
69641W        W33574  13.674  21.580   3.311
69642W        W33575  15.810  38.835   1.759
69643W        W33576  43.906  23.079  10.550
69644W        W33577  16.592  12.705  13.874
69645W        W33578  39.373  41.043   3.182
69646W        W33579  18.199  30.907  14.007
69647W        W33580  10.319  16.196   2.413
69648W        W33581  20.604  36.073   2.251
69649W        W33582   2.330  25.644  13.012
69650W        W33583   8.848  22.627  14.027
69651W        W33584  25.052   4.815   0.404
69652W        W33585  44.785  26.667  12.071
69653W        W33586  40.897  35.047   0.878
69654W        W33587  19.644  13.147  12.532
69655W        W33588   8.883  19.691  10.519
69656W        W33589  29.171  36.552  14.968
69657W        W33590   9.338  41.982   4.117
69658W        W33591  17.697  22.237   1.821
69659W        W33592  23.986   2.908   0.377
69660W        W33593   3.277   2.312  12.021
69661W        W33594   8.893   6.222   4.624
69662W        W33595  40.335  12.346  14.329
69663W        W33596  17.740  38.491  12.539
69664W        W33597   6.391  14.772   9.924
69665W        W33598  30.002  41.008  12.830
69666W        W33599  20.252  29.561   1.795
69667W        W33600  15.648  25.588   3.806
69668W        W33601  18.587  13.657   2.786
69669W        W33602   1.772  42.903   2.892
69670W        W33603   0.292  33.526  11.601
69671W        W33604  29.026  27.138  14.399
69672W        W33605  10.329  32.117  14.490
69673W        W33606   4.340  35.024   4.759
69674W        W33607  35.371  21.569  11.523
69675W        W33608  37.969  16.619   4.256
69676W        W33609  21.572  16.291  13.817
69677W        W33610  19.226  26.993   2.340
69678W        W33611  42.376  25.043   1.413
69679W        W33612  21.663  31.012  14.366
69680W        W33613  42.954  27.187  14.860
69681W        W33614  31.062  40.341  12.550
69682W        W33615  13.169   8.393  12.949
69683W        W33616   9.177   8.228   3.313
69684W        W33617  18.600  32.510  11.926
69685W        W33618  38.981  10.737  10.424
69686W        W33619  16.730   3.257  12.439
69687W        W33620  26.623   9.844  10.085
69688W        W33621   9.325  27.486  11.997
69689W        W33622  40.319  42.434   0.736
69690W        W33623  24.698  38.052  13.520
69691W        W33624  35.070   0.773  11.979
69692W        W33625  41.353  12.801   4.286
69693W        W33626  26.551  32.082   4.730
69694W        W33627  16.113   0.838  11.031
69695W        W33628  17.608   4.919   0.794
69696W        W33629  26.627  32.044  12.044
69697W        W33630  10.206   3.442  10.011
69698W        W33631  41.531  33.121   0.429
69699W        W33632  36.999  44.959  14.478
69700W        W33633   8.227  35.085   2.766
69701W        W33634  21.705  23.213  13.481
69702W        W33635  41.297   7.678  13.000
69703W        W33636  36.377  16.635   1.326
69704W        W33637  12.292  35.948   1.257
69705W        W33638  11.639  16.668  12.528
69706W        W33639   2.844  12.145   2.763
69707W        W33640   4.765   7.217   1.425
69708W        W33641  36.528   0.972   4.750
69709W        W33642  14.245  33.115   1.746
69710W        W33643  30.627  43.009  11.515
69711W        W33644  20.250   4.306  12.396
69712W        W33645  13.667  12.766   4.709
69713W        W33646  24.584   8.260   2.800
69714W        W33647  29.524  22.558  11.393
69715W        W33648  38.345   5.896   3.363
69716W        W33649  31.029  11.329   1.344
69717W        W33650  32.392  39.341  11.494
69718W        W33651  20.554   9.292   3.657
69719W        W33652   3.345  16.729  11.467
69720W        W33653  19.163  32.427  13.416
69721W        W33654  40.968  33.623  13.312
69722W        W33655  12.247  41.998   4.306
69723W        W33656  28.476  19.198   3.315
69724W        W33657  22.556  29.659  11.958
69725W        W33658  10.162  33.126  14.987
69726W        W33659   5.292  20.197   0.285
69727W        W33660  36.408   8.292   2.328
69728W        W33661  10.774  30.581   1.898
69729W        W33662  37.432   6.805   1.336
69730W        W33663   7.889  15.814  11.122
69731W        W33664  17.077  28.010  12.014
69732W        W33665  20.171  42.503  12.922
69733W        W33666  26.643  37.856   3.349
69734W        W33667  17.762   5.412  13.380
69735W        W33668  31.462  30.990  10.543
69736W        W33669   9.358   3.241  14.393
69737W        W33670  32.995  42.839  13.997
69738W        W33671  33.461   5.245   3.675
69739W        W33672  22.137  27.090  10.511
69740W        W33673   8.723  24.561   0.246
69741W        W33674  33.555  38.029  13.040
69742W        W33675  26.171   4.894   4.179
69743W        W33676  12.823  23.713  12.945
69744W        W33677  19.044  34.116  14.826
69745W        W33678  11.773  20.616  14.791
69746W        W33679  13.228  11.764   1.415
69747W        W33680  25.085   5.212  12.507
69748W        W33681  28.666  13.728   3.166
69749W        W33682  28.600  28.469  11.523
69750W        W33683  17.653   9.791   1.387
69751W        W33684   9.197   9.768   0.270
69752W        W33685  18.116  36.362  13.314
69753W        W33686  38.465  36.392  13.386
69754W        W33687   6.903   1.322  11.606
69755W        W33688   3.924  25.649   4.178
69756W        W33689   1.335  20.110   1.296
69757W        W33690  14.330   8.774   1.277
69758W        W33691  39.904  38.864   0.919
69759W        W33692  17.781  41.368  12.360
69760W        W33693  16.692  25.996   9.598
69761W        W33694  13.751   3.727  12.529
69762W        W33695  14.243  23.042  10.622
69763W        W33696   0.907  36.353   4.710
69764W        W33697  33.009   3.772  13.883
69765W        W33698  36.883   6.304   3.723
69766W        W33699   2.830  25.468   2.690
69767W        W33700  14.773   0.346  11.428
69768W        W33701  28.498  31.070   1.446
69769W        W33702   4.273  30.580   3.328
69770W        W33703  13.269  28.599   4.604
69771W        W33704  16.196  34.936   1.341
69772W        W33705  40.477  44.408  12.485
69773W        W33706  40.313  19.243   4.812
69774W        W33707  16.617  42.968  10.990
69775W        W33708   3.806  12.134   9.475
69776W        W33709   7.702  13.609   3.218
69777W        W33710  30.027  21.211   3.279
69778W        W33711  39.005  15.242  13.057
69779W        W33712  11.215  13.243  13.426
69780W        W33713  42.809   4.237   3.186
69781W        W33714  38.851   9.347   2.777
69782W        W33715  12.220  38.904  13.840
69783W        W33716  20.124  28.451   2.288
69784W        W33717  37.425  24.569  14.463
69785W        W33718  15.191  37.912  10.921
69786W        W33719  26.604  35.438  12.066
69787W        W33720   6.884  16.732  12.075
69788W        W33721  40.826  32.074   3.242
69789W        W33722   4.759  10.806   1.341
69790W        W33723  25.179  26.042   3.368
69791W        W33724  39.559  25.549  11.074
69792W        W33725  23.109   4.772   2.234
69793W        W33726  34.079  20.613  13.539
69794W        W33727  36.896   6.201  14.505
69795W        W33728  25.532  23.724   2.310
69796W        W33729  29.984  37.415  11.048
69797W        W33730  11.178  31.447  10.524
69798W        W33731  13.271   9.196  12.349
69799W        W33732  12.748  25.636  10.908
69800W        W33733   2.801   2.451   4.115
69801W        W33734  31.597  25.130   1.848
69802W        W33735  19.272   6.838   1.315
69803W        W33736  16.642  35.431   3.203
69804W        W33737  29.605  12.703  12.083
69805W        W33738   6.415  24.091   0.882
69806W        W33739  40.308  18.770  14.830
69807W        W33740   3.309   6.846  10.617
69808W        W33741  29.658   1.797  13.432
69809W        W33742  31.642  42.954  13.867
69810W        W33743  31.096  43.419  12.973
69811W        W33744  13.806  44.817  12.515
69812W        W33745  33.576  14.634   1.872
69813W        W33746  26.968   6.287   0.410
69814W        W33747   4.715  10.235   2.837
69815W        W33748  43.331  41.795   1.792
69816W        W33749  30.430  10.798  13.383
69817W        W33750  34.066  23.994   4.711
69818W        W33751  27.576  13.651  12.967
69819W        W33752  39.510  21.076   0.772
69820W        W33753  38.403  27.682  12.394
69821W        W33754  42.292   5.710  10.548
69822W        W33755  15.720   2.911   0.841
69823W        W33756  35.423  24.544  12.833
69824W        W33757   1.254  23.177   2.738
69825W        W33758   1.381   7.839   4.278
69826W        W33759  12.788   7.266  14.967
69827W        W33760  37.881  35.565  14.354
69828W        W33761  33.469  33.048   2.245
69829W        W33762  35.518   5.741   1.833
69830W        W33763  24.107  11.328  13.984
69831W        W33764   9.703  10.176  13.845
69832W        W33765  26.643   0.817  10.158
69833W        W33766  42.293  42.526  13.829
69834W        W33767   3.427   1.296   4.662
69835W        W33768  30.537  10.765   0.327
69836W        W33769  16.573  27.630   1.236
69837W        W33770  27.645  23.184  10.409
69838W        W33771  32.081  44.965   4.339
69839W        W33772  16.193  35.384   3.146
69840W        W33773  12.843  32.422   2.398
69841W        W33774  23.575  35.422   1.400
69842W        W33775  23.161  22.555   1.261
69843W        W33776  22.739  16.727   9.998
69844W        W33777  11.365   0.494  13.990
69845W        W33778   6.220  39.007  10.507
69846W        W33779  39.873  21.219  14.354
69847W        W33780  12.843  33.481   3.229
69848W        W33781  34.522   5.738  12.476
69849W        W33782  41.987   8.347  12.546
69850W        W33783  20.118  38.933  14.817
69851W        W33784  11.209   2.414   4.803
69852W        W33785  37.437  35.526   1.820
69853W        W33786  10.708   1.832   1.795
69854W        W33787  22.631  30.163   3.753
69855W        W33788  24.646   5.694   3.870
69856W        W33789   5.349  25.160   0.332
69857W        W33790  25.989  23.104   2.796
69858W        W33791  34.490  21.201   4.246
69859W        W33792  41.839   6.912   4.199
69860W        W33793  29.080   0.766   0.256
69861W        W33794  36.924  17.196  12.485
69862W        W33795  27.654  31.089  14.797
69863W        W33796  25.492  13.678  10.906
69864W        W33797   3.770  40.410   3.772
69865W        W33798  39.460  33.566  10.899
69866W        W33799  23.006  42.417   3.304
69867W        W33800  32.467  40.043  11.412
69868W        W33801  30.058  32.131  13.405
69869W        W33802  41.013   3.431  13.904
69870W        W33803  32.987   6.830   0.852
69871W        W33804  21.067  20.676   3.248
69872W        W33805  23.679  11.741   2.747
69873W        W33806  40.312   1.883  14.002
69874W        W33807  20.703  16.750   4.127
69875W        W33808  31.455  25.571   3.316
69876W        W33809   9.226  36.533   0.727
69877W        W33810   8.685   5.354  12.828
69878W        W33811   3.758  40.320   1.338
69879W        W33812  23.700  44.336   3.303
69880W        W33813  32.992  19.129   1.446
69881W        W33814  16.611  33.978  12.857
69882W        W33815  20.692  41.337  11.935
69883W        W33816  43.974   8.226   0.774
69884W        W33817  35.441   1.280  14.425
69885W        W33818  25.474  32.616  11.611
69886W        W33819   9.890  11.287   2.226
69887W        W33820  34.052  20.658  11.538
69888W        W33821  35.026  18.277   4.829
69889W        W33822   3.893  13.678  12.508
69890W        W33823   7.848  39.901  10.940
69891W        W33824   6.732  25.134   4.213
69892W        W33825  12.297  32.962  12.550
69893W        W33826  13.317   7.322   2.741
69894W        W33827   0.411  14.723  13.390
69895W        W33828  24.159   9.174  11.869
69896W        W33829   3.910   8.208   2.804
69897W        W33830  13.722  38.834   1.321
69898W        W33831  18.258  17.742  12.977
69899W        W33832  10.385  10.157   3.679
69900W        W33833  27.058  26.067  11.536
69901W        W33834  14.605  33.067   4.603
69902W        W33835  39.931  40.388  10.996
69903W        W33836  18.547  23.128  12.016
69904W        W33837  38.396   0.790  13.489
69905W        W33838   2.770  38.979   1.705
69906W        W33839  34.982   0.949   1.921
69907W        W33840  23.049  37.966  14.760
69908W        W33841   2.846  43.434   0.403
69909W        W33842  28.657  41.304   3.284
69910W        W33843  38.863  23.135  11.521
69911W        W33844  26.034  25.656  14.382
69912W        W33845  41.007  21.092  11.977
69913W        W33846  18.616  32.394  14.383
69914W        W33847  12.726  38.849  10.418
69915W        W33848  25.550   6.919  11.899
69916W        W33849   9.863  25.042   2.294
69917W        W33850  12.719  42.422   3.301
69918W        W33851   7.251  40.842  10.560
69919W        W33852  40.307  24.978  14.879
69920W        W33853  12.771  41.806  10.504
69921W        W33854  11.198   6.378  13.954
69922W        W33855  35.883  32.057  13.964
69923W        W33856  38.504   0.488   4.114
69924W        W33857  39.852  17.233   0.280
69925W        W33858  27.184   9.685   5.143
69926W        W33859  39.049  19.146  14.982
69927W        W33860  35.391  38.016   3.856
69928W        W33861  39.440  24.990  11.933
69929W        W33862  40.913  22.114  13.855
69930W        W33863  31.432  39.353  13.915
69931W        W33864  27.111  19.536   3.711
69932W        W33865  12.333   6.291  10.536
69933W        W33866  41.933  42.372  12.949
69934W        W33867  39.843  43.003  14.869
69935W        W33868  20.111  25.209   2.339
69936W        W33869  39.923  17.649   1.829
69937W        W33870  43.293  28.033   4.672
69938W        W33871  26.052  22.743   4.117
69939W        W33872  23.128   2.364   2.415
69940W        W33873  33.555   4.866  11.482
69941W        W33874  25.539  11.658  11.445
69942W        W33875  35.375  23.019   4.182
69943W        W33876  17.209  41.876   1.294
69944W        W33877  42.861  39.868   0.251
69945W        W33878  43.480  12.207   0.383
69946W        W33879   3.265   0.966   5.157
69947W        W33880  38.325  17.787   3.822
69948W        W33881  37.531  30.412  12.367
69949W        W33882  20.088  13.190   3.728
69950W        W33883   8.731  15.285   3.289
69951W        W33884  41.828  28.593   3.822
69952W        W33885  44.319  20.563  10.958
69953W        W33886  12.318  38.878  10.597
69954W        W33887  30.454   1.331   2.837
69955W        W33888  18.074  31.098  14.364
69956W        W33889   3.219  40.399  14.020
69957W        W33890  41.522   0.258  11.967
69958W        W33891   4.272  37.982  10.453
69959W        W33892  33.970  26.979  14.824
69960W        W33893  24.218  19.622   0.952
69961W        W33894   9.280  41.836   3.821
69962W        W33895  37.058   6.769   3.751
69963W        W33896  23.667  29.588   4.654
69964W        W33897  34.005  44.885  11.424
69965W        W33898   1.305  37.959   2.854
69966W        W33899  32.080  40.039   3.679
69967W        W33900  42.930  40.051   3.208
69968W        W33901  39.487  43.298  14.848
69969W        W33902   8.326   1.886  14.827
69970W        W33903   0.429  14.235  13.423
69971W        W33904   7.221  21.099   0.786
69972W        W33905  24.672  37.537   0.842
69973W        W33906  43.809  13.111   3.790
69974W        W33907  24.663  30.097   2.416
69975W        W33908  36.401   7.675  13.801
69976W        W33909  20.709  39.355   2.224
69977W        W33910  34.556  38.392   3.198
69978W        W33911  13.740  27.063   4.818
69979W        W33912  27.082  44.291  12.952
69980W        W33913  32.572  11.739  14.969
69981W        W33914  26.647  26.181  12.572
69982W        W33915  32.563  41.348   0.422
69983W        W33916   8.900  11.250   0.845
69984W        W33917  34.491  17.116   3.201
69985W        W33918  19.101  11.158  12.929
69986W        W33919  41.442   5.333  10.926
69987W        W33920  13.709  40.936   4.674
69988W        W33921  17.068  28.443  14.335
69989W        W33922  31.094   5.743  13.046
69990W        W33923  21.525  29.948  11.002
69991W        W33924  39.369  37.387   0.930
69992W        W33925   4.413   2.941   1.837
69993W        W33926   0.766  23.507  11.438
69994W        W33927  19.270  35.369  12.837
69995W        W33928  13.838  18.280  12.928
69996W        W33929  31.048  26.966   4.819
69997W        W33930  31.643  32.947   1.258
69998W        W33931  41.522  38.499   3.743
69999W        W33932   4.845  14.682  10.918
70000W        W33933   6.230  36.027   2.415
70001W        W33934   9.227  43.499   4.764
70002W        W33935   6.819  42.344  13.945
70003W        W33936  11.251  41.931   1.854
70004W        W33937  22.604  37.384   4.810
70005W        W33938   7.261  18.236  10.940
70006W        W33939  24.565   3.732   0.417
70007W        W33940   4.930  12.794   5.172
70008W        W33941  32.626  43.795   3.819
70009W        W33942  40.452   0.984  11.918
70010W        W33943  13.306  32.450   0.381
70011W        W33944  29.443  30.533   3.684
70012W        W33945  29.928  21.620   0.392
70013W        W33946  25.661  29.579   4.790
70014W        W33947  35.021  12.355  11.543
70015W        W33948  21.629  16.686   1.302
70016W        W33949  33.083   4.772   3.655
70017W        W33950  31.592   5.338  14.870
70018W        W33951  30.480  21.122   0.928
70019W        W33952  34.478  22.016  12.990
70020W        W33953   1.856  13.115  10.574
70021W        W33954  35.025  22.245  11.070
70022W        W33955  16.245  40.365   1.752
70023W        W33956   1.263  43.361  10.426
70024W        W33957  13.622   0.964   2.189
70025W        W33958  28.436  42.994   4.271
70026W        W33959  19.088   4.793  10.140
70027W        W33960   7.253   9.748  10.496
70028W        W33961   0.344  18.115  12.453
70029W        W33962   8.404   7.742  12.398
70030W        W33963  14.319  44.493  11.379
70031W        W33964  38.446  22.726  12.894
70032W        W33965  25.619  20.100   4.241
70033W        W33966  31.967  25.650   0.761
70034W        W33967  42.983  36.463   4.273
70035W        W33968  33.386  26.621   2.707
70036W        W33969   5.223  33.991   3.654
70037W        W33970  28.998  14.789  10.488
70038W        W33971  27.049  23.219   2.731
70039W        W33972  32.044  44.467   3.658
70040W        W33973  40.956   3.858   2.862
70041W        W33974  37.361  10.802   4.342
70042W        W33975  14.780  42.995  11.997
70043W        W33976  24.200  10.307  12.541
70044W        W33977  24.482  27.529   4.265
70045W        W33978  43.966  41.976  13.905
70046W        W33979  11.631  29.515  14.410
70047W        W33980  36.922  44.354  11.453
70048W        W33981  37.972  17.172   4.217
70049W        W33982  22.697  15.184  10.431
70050W        W33983  38.440   3.315   1.867
70051W        W33984   4.385  33.382  10.929
70052W        W33985  25.066  24.010  13.481
70053W        W33986  16.733  25.591   4.600
70054W        W33987  37.389   3.759  12.537
70055W        W33988  29.174  38.918  12.845
70056W        W33989  15.626  24.154   0.386
70057W        W33990  31.128  31.561   4.153
70058W        W33991  32.915   0.979   1.864
70059W        W33992  27.579  11.350   2.193
70060W        W33993  15.094  25.122   4.346
70061W        W33994  12.705  34.962   2.314
70062W        W33995  14.612  13.190   1.315
70063W        W33996  21.250  17.201   5.091
70064W        W33997  27.953   8.763   4.141
70065W        W33998  40.850  17.128   0.339
70066W        W33999   0.808   0.870   1.896
70067W        W34000  39.958  28.954   1.259
70068W        W34001  19.558  29.973  12.555
70069W        W34002   8.356  26.592  13.986
70070W        W34003  41.019  40.395  12.025
70071W        W34004  32.004  43.857  10.583
70072W        W34005  13.292  44.280   4.670
70073W        W34006  21.648  41.037   4.147
70074W        W34007   2.934  14.675   3.703
70075W        W34008  33.603  33.409   4.820
70076W        W34009   1.467  33.069  12.023
70077W        W34010   1.247  22.186   2.399
70078W        W34011  31.969  30.549   0.341
70079W        W34012  25.040   8.318   0.315
70080W        W34013  20.168  11.331   4.670
70081W        W34014  13.314  42.388  11.476
70082W        W34015  23.108  14.736   1.449
70083W        W34016   3.833  44.774  11.122
70084W        W34017  14.652  12.689  13.370
70085W        W34018  44.481  36.507   0.404
70086W        W34019  11.840  12.244   1.882
70087W        W34020  44.435  35.041  14.819
70088W        W34021  18.740  34.998   3.330
70089W        W34022  20.275  10.231  11.925
70090W        W34023  39.337  31.483  10.633
70091W        W34024  31.066  42.888  11.383
70092W        W34025  38.422  31.105  10.978
70093W        W34026  32.918  25.169   0.436
70094W        W34027   7.408  42.822  10.508
70095W        W34028  43.990  36.939   1.322
70096W        W34029  28.492   2.957  14.926
70097W        W34030  18.197   9.372   0.906
70098W        W34031  39.838  21.530   3.181
70099W        W34032  20.144   1.742  13.883
70100W        W34033  36.854  32.001  10.940
70101W        W34034   1.750  10.848   4.737
70102W        W34035  42.319  33.501  12.008
70103W        W34036  37.402  19.608   0.263
70104W        W34037  40.503  35.946   1.926
70105W        W34038  31.519  19.736   3.661
70106W        W34039   0.389  40.868   4.823
70107W        W34040  26.684  14.259   2.771
70108W        W34041  28.562   2.845   3.236
70109W        W34042   1.311   4.270   4.168
70110W        W34043  36.569  23.170  14.465
70111W        W34044  39.546   0.824   0.816
70112W        W34045  23.159  26.665   4.166
70113W        W34046  41.830  34.023  12.008
70114W        W34047   1.277  39.831  14.015
70115W        W34048  17.676  20.135   0.755
70116W        W34049  27.958  40.040  11.063
70117W        W34050   4.421  32.616   1.712
70118W        W34051  39.877  13.126   2.238
70119W        W34052  17.131   0.882  10.447
70120W        W34053  25.610  11.348   3.359
70121W        W34054   4.304  18.577  14.980
70122W        W34055  16.174   7.763   1.294
70123W        W34056  34.508  36.012   4.784
70124W        W34057  21.081  11.742  10.604
70125W        W34058  19.208  16.626   0.823
70126W        W34059  32.579   3.301   1.376
70127W        W34060  18.108  29.650  11.958
70128W        W34061   7.172  40.926   3.273
70129W        W34062  32.598  10.219   2.813
70130W        W34063   4.433  24.615  11.867
70131W        W34064   7.198  10.769   3.756
70132W        W34065  41.972  24.572  12.980
70133W        W34066   6.908  14.690   5.207
70134W        W34067  19.134  42.810   4.769
70135W        W34068   9.326  44.327  13.531
70136W        W34069   3.822  12.270   5.154
70137W        W34070   8.712   7.367  14.446
70138W        W34071   6.713  20.262   3.368
70139W        W34072  12.699  21.697  13.515
70140W        W34073  14.714  18.611   3.781
70141W        W34074  21.704   2.284  14.992
70142W        W34075  26.525  21.040  10.155
70143W        W34076   2.938   1.462   4.332
70144W        W34077  36.089  33.492  14.959
70145W        W34078  28.180  29.172  12.090
70146W        W34079   3.728   5.286   5.591
70147W        W34080  23.573  23.685  12.418
70148W        W34081  25.077  43.013  11.546
70149W        W34082  32.436  35.384   4.622
70150W        W34083  23.139  13.756  11.372
70151W        W34084   8.736   9.296  12.912
70152W        W34085   6.679   4.347   2.896
70153W        W34086  17.291  36.025   4.700
70154W        W34087  34.863  28.184   3.193
70155W        W34088  32.430  40.405  14.800
70156W        W34089  38.905   1.268  13.994
70157W        W34090  40.332   8.163  10.992
70158W        W34091  32.573  42.821   0.401
70159W        W34092  43.475  32.465   2.872
70160W        W34093  13.812   7.681   0.437
70161W        W34094  17.129  33.487   3.763
70162W        W34095  27.959  32.572   0.292
70163W        W34096  13.602   8.379   1.421
70164W        W34097  41.844   9.173  11.011
70165W        W34098   6.851   3.884  11.584
70166W        W34099  38.949  24.195   1.435
70167W        W34100  30.094  32.607  11.112
70168W        W34101  44.304  38.490  11.858
70169W        W34102  12.806  44.912   2.231
70170W        W34103  38.424   6.425  12.473
70171W        W34104  11.642   0.884   0.954
70172W        W34105  35.932  24.072   2.400
70173W        W34106  16.272  18.275   4.737
70174W        W34107  14.289  30.909  13.440
70175W        W34108   1.391  14.295  14.891
70176W        W34109  26.030  19.282  10.931
70177W        W34110  23.064  39.519  13.458
70178W        W34111   7.699  36.360   0.931
70179W        W34112  31.996  43.271   4.725
70180W        W34113  12.149   8.825   3.634
70181W        W34114   9.674   6.694  12.394
70182W        W34115  33.523  19.672   2.876
70183W        W34116  20.231  28.515   5.129
70184W        W34117  19.120  40.835   2.791
70185W        W34118  13.673  19.760   2.847
70186W        W34119  27.076   1.906   4.229
70187W        W34120  42.800   0.379   2.755
70188W        W34121  36.450   9.884   4.239
70189W        W34122  34.428   7.365   1.382
70190W        W34123  41.446  19.161  12.371
70191W        W34124  44.909  34.416  13.336
70192W        W34125  33.508  22.223  11.505
70193W        W34126  12.839  20.231   2.680
70194W        W34127  42.982  38.447  14.806
70195W        W34128  33.038  43.489  12.353
70196W        W34129   9.746   2.859  11.970
70197W        W34130  22.541  25.086  14.994
70198W        W34131  27.131   9.168  10.116
70199W        W34132  33.462  27.070   1.800
70200W        W34133  23.105  42.836   3.770
70201W        W34134  39.453  24.005   0.797
70202W        W34135  11.320  12.854  12.866
70203W        W34136  18.289  19.737   1.809
70204W        W34137  29.948  34.997  10.411
70205W        W34138  28.609  25.185  14.951
70206W        W34139  17.307   4.940   1.704
70207W        W34140   8.379  28.031  11.960
70208W        W34141  13.752   1.774  14.383
70209W        W34142  11.232   5.702  13.386
70210W        W34143  41.886   9.676  12.504
70211W        W34144  22.718  36.052   2.404
70212W        W34145  21.654  18.663   2.343
70213W        W34146  19.106  21.256   2.691
70214W        W34147   1.956  37.969  11.071
70215W        W34148  21.542  39.000  12.349
70216W        W34149  16.083  32.579  12.902
70217W        W34150   9.299  21.079   4.130
70218W        W34151  33.976  30.963  11.586
70219W        W34152  38.881  16.694   4.351
70220W        W34153  31.558  18.569  13.312
70221W        W34154  40.467  31.030   1.371
70222W        W34155  26.002  43.840   0.267
70223W        W34156  28.449  23.542  14.771
70224W        W34157  42.422  44.474   2.853
70225W        W34158  35.375  20.075   0.388
70226W        W34159  28.970  27.521   1.366
70227W        W34160  36.922  32.588  11.968
70228W        W34161  19.064  26.599  13.386
70229W        W34162  28.954  37.830  14.415
70230W        W34163  24.541   6.318  13.996
70231W        W34164   7.803  26.677   4.605
70232W        W34165  23.114  20.720  12.017
70233W        W34166  23.201  44.822  14.783
70234W        W34167  15.672  29.619  10.507
70235W        W34168  19.635  13.332  10.581
70236W        W34169  34.369  27.624  10.529
70237W        W34170  26.585  18.665  13.482
70238W        W34171  29.626   0.770  12.563
70239W        W34172  23.616  27.118   0.911
70240W        W34173  24.180  16.194  13.023
70241W        W34174  22.114  26.084  13.477
70242W        W34175  32.064  10.278  14.491
70243W        W34176  19.220  24.661   4.735
70244W        W34177  19.053  27.644   2.842
70245W        W34178   1.289  30.428  14.787
70246W        W34179   2.404  33.026  12.406
70247W        W34180  32.608  22.079   2.296
70248W        W34181   7.381  25.181   3.223
70249W        W34182   5.260   6.245  13.460
70250W        W34183  11.817  27.941   4.312
70251W        W34184   1.475  37.578  13.484
70252W        W34185   4.774  36.898   2.884
70253W        W34186  38.018  41.812   4.774
70254W        W34187   4.341  12.732  10.474
70255W        W34188  38.551   7.252  13.879
70256W        W34189   6.703  38.438   4.691
70257W        W34190  11.217  28.104  14.496
70258W        W34191   0.298  20.054   0.283
70259W        W34192  10.741   7.376  13.494
70260W        W34193  42.818   8.678   2.296
70261W        W34194  24.995   0.787  10.637
70262W        W34195   1.794  13.811   1.864
70263W        W34196  15.150  43.374  12.058
70264W        W34197  11.157  43.342   1.426
70265W        W34198  24.208   8.659   2.347
70266W        W34199   2.963  25.134   0.323
70267W        W34200  28.532   5.700   1.384
70268W        W34201  22.526  11.711   0.927
70269W        W34202  29.636  35.480  11.869
70270W        W34203  42.920  16.617   1.362
70271W        W34204   0.452  36.492   3.351
70272W        W34205  31.446  41.492  11.095
70273W        W34206  35.363   7.340  10.643
70274W        W34207  10.362  32.039  14.778
70275W        W34208  29.619  24.040   3.740
70276W        W34209  42.015  35.442  11.046
70277W        W34210  22.579  26.461  10.004
70278W        W34211  29.669  41.885  11.080
70279W        W34212  19.699  11.667  11.046
70280W        W34213  17.271  10.349   1.813
70281W        W34214  31.536  44.267   2.251
70282W        W34215  43.327   1.237   0.468
70283W        W34216  35.043  14.190   0.446
70284W        W34217  43.880   3.222   2.245
70285W        W34218  19.261   3.318  11.894
70286W        W34219  43.957  17.597  12.552
70287W        W34220  25.659  17.143   0.451
70288W        W34221  40.044  39.367   4.707
70289W        W34222   4.374  16.725  14.938
70290W        W34223   2.891  15.171   4.227
70291W        W34224   9.169  18.791  11.502
70292W        W34225  12.142   2.862  12.028
70293W        W34226  11.260  35.581   4.243
70294W        W34227   7.736   4.800  12.981
70295W        W34228  30.954  17.253  13.844
70296W        W34229  16.189  41.404   0.479
70297W        W34230  38.838   3.284   4.128
70298W        W34231  24.185  22.657  11.127
70299W        W34232   4.851  44.965  13.953
70300W        W34233  17.632  15.736   4.781
70301W        W34234  31.565  18.222  11.465
70302W        W34235   8.161  18.663  10.510
70303W        W34236  36.495   1.432  12.479
70304W        W34237  22.731  16.732   0.483
70305W        W34238  40.308  16.623   2.366
70306W        W34239   4.786   8.880  12.369
70307W        W34240  17.570  19.703  10.941
70308W        W34241  27.558   0.312  11.512
70309W        W34242   6.293  42.855   1.442
70310W        W34243  31.976  27.948  11.934
70311W        W34244   6.302  43.863  12.439
70312W        W34245  23.676  42.886  13.875
70313W        W34246  30.952   8.286   2.246
70314W        W34247  27.612   2.430   1.924
70315W        W34248  44.421  31.646  12.929
70316W        W34249  13.718  11.688  13.491
70317W        W34250   7.267  11.346  10.504
70318W        W34251  15.731  40.889  12.533
70319W        W34252  30.103   9.705   3.724
70320W        W34253  12.207  26.993  13.474
70321W        W34254  26.631  41.337  14.894
70322W        W34255   6.739  37.935  13.529
70323W        W34256  22.510  42.804   3.824
70324W        W34257  30.592   9.156   3.248
70325W        W34258  11.795  11.853   1.281
70326W        W34259  30.957  38.887   4.823
70327W        W34260  30.100  24.618  12.840
70328W        W34261  36.542  40.050  13.376
70329W        W34262  22.667  29.017   0.903
70330W        W34263  11.182  16.170  11.566
70331W        W34264  12.219   6.862  10.928
70332W        W34265  11.181  43.916   3.223
70333W        W34266  44.836  43.840  10.468
70334W        W34267  34.987   9.644   1.773
70335W        W34268   5.718  38.569  11.470
70336W        W34269  27.131  24.219  12.518
70337W        W34270  30.536  17.238  11.864
70338W        W34271   3.225  12.776   0.361
70339W        W34272  21.078  17.588  13.875
70340W        W34273  20.184  34.489  13.874
70341W        W34274  14.713   4.919   2.873
70342W        W34275  31.419  33.587  14.320
70343W        W34276  27.944  19.082  10.896
70344W        W34277  25.211  44.285  11.043
70345W        W34278  36.958  37.427  12.514
70346W        W34279   4.405  14.699  14.302
70347W        W34280   4.706  11.834  13.541
70348W        W34281  26.494   7.312  11.376
70349W        W34282   7.890  21.134  13.314
70350W        W34283  16.230  18.244   4.285
70351W        W34284  32.944  21.696   3.210
70352W        W34285  19.653  15.102  11.094
70353W        W34286  32.478  16.672  14.514
70354W        W34287  23.181  30.487  13.875
70355W        W34288   5.706  25.011  12.561
70356W        W34289   1.764   8.343  11.392
70357W        W34290  18.106  23.075  12.539
70358W        W34291  33.897   0.855   0.275
70359W        W34292  37.924  13.736   1.708
70360W        W34293  35.882  12.343  12.097
70361W        W34294   8.367  17.590  14.921
70362W        W34295  28.460  23.076  14.514
70363W        W34296   8.253  23.663   1.414
70364W        W34297  17.246  44.361  13.024
70365W        W34298  27.619   5.829  14.010
70366W        W34299  20.629  16.073  13.064
70367W        W34300  41.456   2.835   1.817
70368W        W34301  37.566  37.936  14.290
70369W        W34302  17.083  15.300   3.852
70370W        W34303  27.507  37.867  13.918
70371W        W34304   6.275  15.182  14.845
70372W        W34305  12.634  31.496  11.425
70373W        W34306  24.198  28.108   3.636
70374W        W34307  22.696  32.493  14.956
70375W        W34308  43.304  19.605  13.487
70376W        W34309  13.679  17.645   2.296
70377W        W34310  28.629   6.424   1.347
70378W        W34311  11.279   7.256  14.492
70379W        W34312  26.077  24.523   4.769
70380W        W34313  25.485   2.369   3.798
70381W        W34314  15.720  16.298  12.480
70382W        W34315  13.163  44.264   4.257
70383W        W34316  41.350  17.144   3.187
70384W        W34317  42.397   5.898   4.680
70385W        W34318  40.995  35.515  12.370
70386W        W34319   8.241   8.872   2.790
70387W        W34320  12.209   4.809   4.815
70388W        W34321  15.287   6.880   4.780
70389W        W34322  16.202   3.777  11.551
70390W        W34323  40.487  12.824  11.402
70391W        W34324  39.822   6.722   4.315
70392W        W34325  33.052  18.558  13.481
70393W        W34326  13.782  16.773  14.978
70394W        W34327   7.693  43.927   2.760
70395W        W34328   7.411  38.462   2.849
70396W        W34329  38.001  27.020  10.624
70397W        W34330   7.329   0.753   1.270
70398W        W34331  44.309   7.247   1.214
70399W        W34332  24.112  27.000  12.882
70400W        W34333   1.860  40.529   3.810
70401W        W34334  34.089  26.647   2.277
70402W        W34335  21.193  25.112  13.859
70403W        W34336  24.506  13.203   3.798
70404W        W34337  30.147  44.878  11.434
70405W        W34338  38.855   7.239  12.026
70406W        W34339  34.986  39.357  14.029
70407W        W34340   8.663   4.871   3.742
70408W        W34341   3.765  26.565  10.486
70409W        W34342  10.301  16.733  11.411
70410W        W34343  15.142  24.661   0.904
70411W        W34344   7.907  23.651  13.337
70412W        W34345  25.707  35.016  14.305
70413W        W34346  30.438  31.506   4.234
70414W        W34347  14.236  38.928   1.336
70415W        W34348  38.466  36.944   4.301
70416W        W34349  17.146  35.978  10.423
70417W        W34350  44.883  12.762   3.782
70418W        W34351  17.203   8.191   1.874
70419W        W34352  42.968   1.834  10.438
70420W        W34353  40.309  13.346   1.435
70421W        W34354  24.123  35.899   4.258
70422W        W34355  18.569  17.175   0.439
70423W        W34356   3.847  42.476  11.923
70424W        W34357  30.098  26.159  12.342
70425W        W34358  43.362  24.198  13.399
70426W        W34359  24.030  30.019   2.897
70427W        W34360   3.799  33.880   0.784
70428W        W34361  16.271  15.329   3.349
70429W        W34362  20.122  30.096  14.499
70430W        W34363  44.989  24.557  14.986
70431W        W34364   7.770  26.491  13.422
70432W        W34365  40.372   4.738  14.881
70433W        W34366   4.921  19.214   1.352
70434W        W34367  40.436  17.580   3.651
70435W        W34368  20.231   4.380   3.693
70436W        W34369  26.555  26.076   0.759
70437W        W34370  35.546   9.689   2.243
70438W        W34371   7.803  21.695  10.478
70439W        W34372   1.799  36.856   2.726
70440W        W34373  20.768  39.852  12.025
70441W        W34374  41.876  15.823   2.386
70442W        W34375  26.471  18.600   5.268
70443W        W34376  31.034  26.051  12.017
70444W        W34377  35.513  44.321  14.788
70445W        W34378   0.981   7.876   3.778
70446W        W34379  38.839  26.575  14.385
70447W        W34380  15.117  34.598  12.971
70448W        W34381   3.803  27.134  13.973
70449W        W34382  10.802  38.561  10.999
70450W        W34383   9.391  40.532   4.704
70451W        W34384  37.372  28.133  14.807
70452W        W34385  32.918  29.638   0.893
70453W        W34386  37.864  36.576  14.347
70454W        W34387  25.653  19.049   3.821
70455W        W34388  25.495  42.020  12.837
70456W        W34389  12.128  24.146  11.928
70457W        W34390   0.870  17.174   3.224
70458W        W34391  15.813  30.983   2.807
70459W        W34392  14.195  36.431  10.443
70460W        W34393   6.385  24.504  13.939
70461W        W34394   4.830  24.173  14.813
70462W        W34395  42.862  34.067  11.904
70463W        W34396  34.491  30.109   1.767
70464W        W34397  22.568   1.260   4.120
70465W        W34398   8.738  34.458  11.920
70466W        W34399  18.567   0.870   1.387
70467W        W34400  38.890  18.670   1.365
70468W        W34401  41.533  13.186   3.767
70469W        W34402  40.859  31.493  10.575
70470W        W34403  12.302  22.237   2.813
70471W        W34404  24.010   7.868  14.369
70472W        W34405  16.751   0.897   0.378
70473W        W34406  15.623  34.968   0.860
70474W        W34407  21.521  21.120  12.521
70475W        W34408  19.224  25.708  14.793
70476W        W34409  11.741  13.118   1.227
70477W        W34410  39.960  25.535  13.000
70478W        W34411  32.014  24.573  10.582
70479W        W34412  29.646  36.498   4.304
70480W        W34413  41.821  23.675  14.847
70481W        W34414  22.747  27.465   2.716
70482W        W34415  11.621  20.684  11.069
70483W        W34416  22.506  25.583  14.494
70484W        W34417  26.120   1.276  13.833
70485W        W34418  26.952  27.044  13.334
70486W        W34419  27.060   1.771   3.267
70487W        W34420  21.198  19.106   0.835
70488W        W34421  17.742  40.804  11.587
70489W        W34422  21.726  20.041  10.956
70490W        W34423  19.185  37.413   4.207
70491W        W34424  14.745   1.266  14.446
70492W        W34425   5.345   9.819  12.501
70493W        W34426  41.328  43.958  14.974
70494W        W34427  31.097   4.891  13.989
70495W        W34428   4.280  16.166  13.483
70496W        W34429  25.477  16.578  10.564
70497W        W34430  22.197  21.199   2.690
70498W        W34431   9.179  12.153  12.930
70499W        W34432   2.815  31.507  11.510
70500W        W34433  14.317  26.517  10.441
70501W        W34434  12.131  22.234  14.806
70502W        W34435  39.351  18.187  14.948
70503W        W34436  13.216  27.489  10.982
70504W        W34437   1.782  33.980  12.457
70505W        W34438  15.760  41.410  12.884
70506W        W34439   4.781  30.572  13.520
70507W        W34440  15.653  34.048   0.313
70508W        W34441  14.634  20.550  12.016
70509W        W34442  22.028   0.489  14.839
70510W        W34443  10.671   1.404  13.498
70511W        W34444  20.672  43.326   0.440
70512W        W34445  30.958  30.112   4.617
70513W        W34446  34.548   8.732  12.374
70514W        W34447  21.114  15.189   1.884
70515W        W34448   1.860   3.870  11.475
70516W        W34449  33.474   1.951   3.722
70517W        W34450   7.366  22.155   2.186
70518W        W34451  39.020  27.171  12.930
70519W        W34452  25.599  36.861   3.655
70520W        W34453  30.581  22.154   3.270
70521W        W34454  10.718  17.251  14.442
70522W        W34455  25.673  29.462  11.530
70523W        W34456   9.372  37.345   2.750
70524W        W34457  24.121   9.165  14.297
70525W        W34458  24.670  33.973  12.363
70526W        W34459   2.777  16.589   0.438
70527W        W34460  42.875  18.080  11.417
70528W        W34461   3.914  20.192   3.735
70529W        W34462  25.607  35.508   4.214
70530W        W34463  25.143  38.568  11.944
70531W        W34464  42.514   9.349  13.894
70532W        W34465  17.227   2.233   4.630
70533W        W34466  23.114  37.031   4.724
70534W        W34467  27.983  36.354  14.779
70535W        W34468   8.393   8.661  11.077
70536W        W34469   6.706  43.453   1.795
70537W        W34470   8.839  44.405   2.284
70538W        W34471  25.664  41.340   1.342
70539W        W34472  15.273  33.498  10.922
70540W        W34473  26.985   8.293  11.003
70541W        W34474  13.259  42.412  13.964
70542W        W34475   4.728  33.485  11.574
70543W        W34476  39.552  42.357  11.483
70544W        W34477  28.435  34.586  10.432
70545W        W34478  28.585  29.525  10.579
70546W        W34479  37.344  29.663  11.048
70547W        W34480  30.139  24.653   3.731
70548W        W34481  11.180  29.572   3.385
70549W        W34482  44.280   0.361   2.358
70550W        W34483  17.767  29.466   2.282
70551W        W34484  24.687  33.902   4.770
70552W        W34485  17.635  39.447  14.324
70553W        W34486   7.411  24.092  11.450
70554W        W34487   8.350  30.539  10.506
70555W        W34488  22.620  40.850  10.643
70556W        W34489  44.394  24.209  11.452
70557W        W34490  32.912  29.090  14.933
70558W        W34491  19.693  28.183  13.992
70559W        W34492  34.007  34.422  11.444
70560W        W34493  34.533  18.063   4.329
70561W        W34494   0.411  18.294   1.772
70562W        W34495  40.386  27.477  11.447
70563W        W34496  19.563  10.819  12.866
70564W        W34497  34.582  29.075  12.472
70565W        W34498  42.982  43.465   0.344
70566W        W34499   6.400  20.607  13.459
70567W        W34500  37.419   3.797   4.719
70568W        W34501  30.548  19.582  13.991
70569W        W34502  28.185  25.196   2.773
70570W        W34503  25.645  31.551  13.927
70571W        W34504  18.219   8.688  13.836
70572W        W34505  39.403  42.450   2.230
70573W        W34506  37.926  20.644   0.748
70574W        W34507  44.465  13.627  10.481
70575W        W34508   4.410  44.824  14.403
70576W        W34509   6.821   9.344  12.379
70577W        W34510  33.514  27.117  13.471
70578W        W34511  12.209  31.011  10.936
70579W        W34512  29.934   0.260  13.481
70580W        W34513  25.101  18.294   1.739
70581W        W34514  39.061  11.341   3.737
70582W        W34515  23.719  18.177   1.444
70583W        W34516  37.912  31.543  10.896
70584W        W34517  12.786  35.467   3.326
70585W        W34518  38.566  37.475  10.598
70586W        W34519   3.283  44.883   1.280
70587W        W34520  31.075  42.430   2.287
70588W        W34521  26.197   3.904   2.796
70589W        W34522  21.121  10.249  11.092
70590W        W34523  24.179   2.300  11.548
70591W        W34524   7.222  22.080  13.368
70592W        W34525  43.349   1.478  13.829
70593W        W34526   0.763   4.217   3.245
70594W        W34527  23.040  35.975   2.253
70595W        W34528  12.304  15.705  10.472
70596W        W34529   9.334  44.347   0.257
70597W        W34530  41.439  42.286   1.896
70598W        W34531   8.346   1.903  14.351
70599W        W34532   0.871  42.363   0.947
70600W        W34533   5.702   0.971   2.786
70601W        W34534  28.639  23.580  12.411
70602W        W34535   3.256  37.967  10.524
70603W        W34536  18.730   0.318  11.101
70604W        W34537  26.051  23.120  12.427
70605W        W34538  44.891  29.035   1.392
70606W        W34539  24.134  27.684   1.899
70607W        W34540  42.287   8.896  12.957
70608W        W34541   1.393  12.266  13.833
70609W        W34542   4.350   2.299  11.909
70610W        W34543  28.546  38.521   2.681
70611W        W34544  42.971  19.269   3.633
70612W        W34545  33.057  33.409  10.629
70613W        W34546   0.465   4.357  11.900
70614W        W34547  35.945   8.327   4.815
70615W        W34548  18.216  26.059   2.789
70616W        W34549  23.643  17.280   3.689
70617W        W34550  29.933  39.477  12.864
70618W        W34551   8.223  35.895  14.993
70619W        W34552  32.126   5.813  14.295
70620W        W34553  44.502  27.135   4.219
70621W        W34554  23.055   3.906   4.221
70622W        W34555  33.939   1.457   2.728
70623W        W34556  41.980  18.648   3.829
70624W        W34557  38.474  16.194   1.713
70625W        W34558   1.834  37.084   3.643
70626W        W34559  35.411  29.945   0.473
70627W        W34560  36.480  24.645   2.828
70628W        W34561  37.440  33.079   0.267
70629W        W34562  36.984  32.910   2.231
70630W        W34563  15.704  37.368  12.433
70631W        W34564  23.208  18.717   1.263
70632W        W34565   4.421  14.740   3.309
70633W        W34566  35.996   7.811  11.970
70634W        W34567   3.778  20.742   4.661
70635W        W34568   7.880  34.967   1.858
70636W        W34569   3.846   5.903  13.839
70637W        W34570  28.078  44.005  12.510
70638W        W34571   7.750  32.985  13.925
70639W        W34572  29.163  13.249   0.899
70640W        W34573  26.124   3.836  12.844
70641W        W34574  43.952   1.307   3.731
70642W        W34575  27.967  32.982  14.927
70643W        W34576  10.805  39.063  10.124
70644W        W34577  39.035   9.797   1.254
70645W        W34578  41.472   4.931   2.857
70646W        W34579  21.615  36.039  13.031
70647W        W34580  35.002  13.164   2.221
70648W        W34581  43.801  13.189   2.760
70649W        W34582  22.567  35.863   0.937
70650W        W34583  36.916   5.881  10.922
70651W        W34584  37.337  39.014   1.435
70652W        W34585  12.808  22.199   3.212
70653W        W34586  43.465  29.046  11.011
70654W        W34587  27.189  33.964  10.533
70655W        W34588  38.398  29.105  11.042
70656W        W34589  36.077  15.588  13.866
70657W        W34590  37.033   4.424   4.311
70658W        W34591   0.338  35.907   0.877
70659W        W34592  29.998  42.390   1.836
70660W        W34593  17.555  21.587  10.558
70661W        W34594  15.110  21.641  11.552
70662W        W34595  33.571  17.610  13.966
70663W        W34596  44.781  33.485  12.862
70664W        W34597   1.936   9.212   3.815
70665W        W34598  11.838  31.069  11.515
70666W        W34599  27.588   8.176   4.726
70667W        W34600  23.683  40.472   4.145
70668W        W34601  31.430   8.249   4.620
70669W        W34602  35.590  20.246   4.703
70670W        W34603  34.420  32.073   0.953
70671W        W34604  16.666  31.958  12.491
70672W        W34605  35.597  25.525  11.585
70673W        W34606  18.210  34.017  11.057
70674W        W34607  33.531  24.983  13.974
70675W        W34608  26.545  25.690  11.541
70676W        W34609  40.330  27.159   4.656
70677W        W34610  13.193  32.609  13.515
70678W        W34611  33.007  14.612  11.055
70679W        W34612  29.929   4.860   0.314
70680W        W34613  27.062   1.948  12.086
70681W        W34614  39.398  17.186   0.435
70682W        W34615   3.819  43.803  14.396
70683W        W34616  13.315  29.585  14.995
70684W        W34617   4.271  10.657  14.996
70685W        W34618  26.528  14.722  13.821
70686W        W34619   1.466  24.571  14.007
70687W        W34620  40.826  18.680   2.839
70688W        W34621  37.524  41.321  13.311
70689W        W34622  29.948  15.676   3.239
70690W        W34623  39.061  21.061   0.920
70691W        W34624   2.907  10.821   3.326
70692W        W34625  28.106   9.731  13.889
70693W        W34626  38.890   4.904   3.651
70694W        W34627  19.160  35.048  10.612
70695W        W34628  33.425  31.049   0.317
70696W        W34629  41.488  16.280   2.833
70697W        W34630  24.510   7.890   2.859
70698W        W34631  30.155  12.743   4.697
70699W        W34632   1.833  39.010   4.184
70700W        W34633  40.977  10.173   1.253
70701W        W34634  42.868  22.210   1.920
70702W        W34635  21.690  44.893  10.579
70703W        W34636  10.328   3.393  11.004
70704W        W34637   6.890  28.129   3.662
70705W        W34638   3.301   2.753   9.978
70706W        W34639   2.452  33.895   1.214
70707W        W34640  33.038   9.812   3.370
70708W        W34641   8.234  33.516   2.227
70709W        W34642   3.911  33.609   2.784
70710W        W34643  17.299  36.430  13.333
70711W        W34644  39.380   4.266  14.380
70712W        W34645  32.565  13.726  13.381
70713W        W34646  30.160   7.322   1.705
70714W        W34647  33.611  11.824  12.880
70715W        W34648   2.816  28.466  11.379
70716W        W34649  39.523  42.330  14.971
70717W        W34650  37.966   5.886   1.259
70718W        W34651  39.467   5.695  14.301
70719W        W34652   7.339   0.927   3.729
70720W        W34653  13.605  23.603   4.838
70721W        W34654   4.717  41.881   0.941
70722W        W34655  23.181   2.791   0.848
70723W        W34656  18.656  39.533   4.137
70724W        W34657  43.995  23.991  13.871
70725W        W34658  19.772  15.737  10.475
70726W        W34659  44.265   6.289   2.886
70727W        W34660  20.654  35.381   0.321
70728W        W34661  14.148  20.080  10.892
70729W        W34662  29.099  36.881  14.454
70730W        W34663   5.326  24.200   5.590
70731W        W34664  25.182  32.562  13.447
70732W        W34665  33.430   1.805   1.271
70733W        W34666   6.240  30.643   2.853
70734W        W34667  12.265  44.380   2.670
70735W        W34668   0.267  25.667   1.818
70736W        W34669  12.818  33.982   2.201
70737W        W34670   0.274   0.386   2.394
70738W        W34671  31.433  13.743  10.420
70739W        W34672  30.919  17.766   4.308
70740W        W34673  43.786  20.667   1.356
70741W        W34674   1.973  13.735  10.146
70742W        W34675  36.898  19.740   0.463
70743W        W34676  39.903  32.992   1.719
70744W        W34677  12.261  32.446  13.368
70745W        W34678  11.328  36.095   2.666
70746W        W34679  38.055  27.993   0.915
70747W        W34680  15.801   6.803  13.431
70748W        W34681  22.684  35.109  14.470
70749W        W34682  34.417  39.038  14.924
70750W        W34683  38.354  10.765   3.329
70751W        W34684   6.894  36.966  10.492
70752W        W34685  24.097  18.243   3.741
70753W        W34686  11.266  13.113   2.381
70754W        W34687   5.725  16.225  10.429
70755W        W34688  10.699   3.929  11.891
70756W        W34689  25.579  12.344  13.530
70757W        W34690  15.805  24.044   4.223
70758W        W34691  14.316  40.943   1.778
70759W        W34692  23.048  13.115  14.494
70760W        W34693   3.247  32.055  10.543
70761W        W34694   2.888  30.615   0.923
70762W        W34695  39.814  30.626   4.222
70763W        W34696  25.689  28.469  12.027
70764W        W34697  16.716  19.094   0.886
70765W        W34698  28.936   7.322   0.447
70766W        W34699  27.668   4.930   2.315
70767W        W34700  17.175  14.330  12.860
70768W        W34701  41.993   8.360  14.842
70769W        W34702  26.484  24.671  14.863
70770W        W34703   5.340   4.381  11.049
70771W        W34704   6.389   1.364   2.254
70772W        W34705  12.635  22.998   1.406
70773W        W34706  23.185  19.566   4.809
70774W        W34707  17.079  42.008   1.822
70775W        W34708  17.560   2.257  12.829
70776W        W34709  42.494  30.633  13.926
70777W        W34710   1.967  31.033   2.390
70778W        W34711  37.002  36.910   4.621
70779W        W34712   4.390  12.673  13.463
70780W        W34713   0.469  11.359   2.797
70781W        W34714  29.146  41.993  13.989
70782W        W34715  44.471  12.697   0.439
70783W        W34716   7.206  37.340   4.769
70784W        W34717  28.161  21.211  13.474
70785W        W34718  40.389  42.901   2.411
70786W        W34719  35.002  32.901   1.763
70787W        W34720  10.215  16.114  10.528
70788W        W34721  40.513  25.686   2.818
70789W        W34722  42.795  17.131   0.805
70790W        W34723   7.907  40.969   1.300
70791W        W34724  40.491  41.949  12.866
70792W        W34725  29.581  22.098   2.777
70793W        W34726  15.654  26.504  11.014
70794W        W34727   0.898  10.167   0.316
70795W        W34728  35.904   3.771  11.048
70796W        W34729  33.095  20.237   4.782
70797W        W34730   1.289  21.253  11.890
70798W        W34731  28.571  23.093   3.212
70799W        W34732  29.459  38.565  14.379
70800W        W34733  31.124  18.200  13.913
70801W        W34734  13.266  24.518   0.845
70802W        W34735  22.532   2.912  14.988
70803W        W34736  18.612  33.003   0.434
70804W        W34737   7.356  13.797  10.471
70805W        W34738   4.713  30.551  12.468
70806W        W34739   3.917  15.292  10.943
70807W        W34740  35.095  40.921  13.472
70808W        W34741  44.426   0.284   0.791
70809W        W34742   4.285  22.048   1.400
70810W        W34743  27.454  13.204   4.661
70811W        W34744   1.966  26.554  13.381
70812W        W34745  40.826   5.355   3.635
70813W        W34746  19.155   5.875   3.775
70814W        W34747  41.878  23.034   2.844
70815W        W34748  37.044  11.787   2.284
70816W        W34749  37.527  39.038   4.303
70817W        W34750  33.491   0.327   2.410
70818W        W34751   7.715   1.297   2.697
70819W        W34752   8.388  40.900   3.670
70820W        W34753   9.163  18.745   3.689
70821W        W34754  16.264   5.313  12.871
70822W        W34755  24.131  43.486   0.254
70823W        W34756   6.712  23.497  14.942
70824W        W34757  16.285  15.580   4.216
70825W        W34758   1.347  31.917  11.488
70826W        W34759   9.696  19.094  10.966
70827W        W34760   4.316   0.439   4.157
70828W        W34761  28.983  25.536  10.628
70829W        W34762  39.899  43.846  12.976
70830W        W34763   9.384  32.057  14.023
70831W        W34764  17.263  37.349   5.723
70832W        W34765   0.936  10.819  12.892
70833W        W34766  10.642  20.173   0.866
70834W        W34767  28.532  16.626   1.337
70835W        W34768  37.029  36.574   2.379
70836W        W34769  34.391  10.179   3.709
70837W        W34770  21.182   0.809  10.952
70838W        W34771   4.311  29.669  14.905
70839W        W34772  11.647  14.283  13.999
70840W        W34773  25.996  20.704  14.876
70841W        W34774  12.262  25.553  12.949
70842W        W34775   6.291  14.206   3.190
70843W        W34776  31.921  25.610   4.127
70844W        W34777   1.882   6.680   1.239
70845W        W34778  40.014  13.184  12.341
70846W        W34779  35.856  30.640   3.290
70847W        W34780  11.368  38.823   1.245
70848W        W34781  24.027  44.467  10.911
70849W        W34782  24.157   2.917  13.332
70850W        W34783   5.300  18.190  10.606
70851W        W34784  16.772  26.053   0.334
70852W        W34785  17.567   7.364  13.061
70853W        W34786  40.870  14.789  12.431
70854W        W34787   4.762  25.695   9.997
70855W        W34788  18.568  33.895   4.795
70856W        W34789  44.317  22.527   0.367
70857W        W34790  28.087  33.020  11.973
70858W        W34791  20.554  32.464   4.708
70859W        W34792  25.202  36.545  10.615
70860W        W34793   9.777  11.712  13.800
70861W        W34794  16.312   3.401  11.128
70862W        W34795   1.872  39.954   4.168
70863W        W34796  33.989  43.835  10.620
70864W        W34797  17.577   7.883   5.087
70865W        W34798  24.031  36.517   3.265
70866W        W34799   9.817  22.176  12.562
70867W        W34800  37.402  16.619   0.310
70868W        W34801  19.189  19.169  13.821
70869W        W34802  42.486  27.986   4.834
70870W        W34803  43.378  40.457   2.343
70871W        W34804  17.066  11.743  11.004
70872W        W34805  34.984  26.538  13.025
70873W        W34806  35.411  40.436   0.844
70874W        W34807  16.074  34.530  13.880
70875W        W34808  26.981  26.042   2.214
70876W        W34809   9.267  13.142   1.742
70877W        W34810  29.586  36.492   1.246
70878W        W34811   5.691  16.608  11.064
70879W        W34812  15.725   3.243   4.170
70880W        W34813  15.592  31.058  13.991
70881W        W34814  25.467   5.792   0.283
70882W        W34815  13.709  17.138   0.395
70883W        W34816  37.470  30.640  13.458
70884W        W34817  30.555  41.899  14.329
70885W        W34818   3.412  35.090  12.429
70886W        W34819  22.593  12.312   4.244
70887W        W34820  21.203  14.607   1.730
70888W        W34821  29.930  16.226   0.318
70889W        W34822  33.901  11.230   2.815
70890W        W34823   3.285  14.332  12.841
70891W        W34824   3.423  10.643  12.916
70892W        W34825  44.827  39.065   0.331
70893W        W34826  43.309  34.462   4.339
70894W        W34827   4.776  18.246  14.868
70895W        W34828  26.660  21.081   5.304
70896W        W34829  36.921  33.927   1.773
70897W        W34830  28.066  13.248  11.537
70898W        W34831  31.551   2.440  14.030
70899W        W34832   1.919  34.044  14.948
70900W        W34833  23.697   3.895   0.348
70901W        W34834   5.779   6.328  13.309
70902W        W34835  23.105   4.824   3.209
70903W        W34836   7.692  27.190  13.503
70904W        W34837   0.900   4.850   1.397
70905W        W34838  21.255   2.737   0.954
70906W        W34839   2.738  32.586   4.158
70907W        W34840  14.828  18.170   2.844
70908W        W34841  40.430  29.507   2.257
70909W        W34842  23.718  15.237  14.781
70910W        W34843  34.997  39.919  13.499
70911W        W34844  15.585   9.155  14.357
70912W        W34845  34.521  38.361  12.021
70913W        W34846  37.936  31.088  14.293
70914W        W34847  16.254   7.215  14.789
70915W        W34848   9.789  43.360  13.060
70916W        W34849  34.551  25.153  14.937
70917W        W34850  27.528  21.682   0.888
70918W        W34851  42.934  20.040   0.259
70919W        W34852  23.008  39.501   4.343
70920W        W34853   0.776  24.158  12.478
70921W        W34854   5.775  21.036   0.443
70922W        W34855  17.749  10.724  11.905
70923W        W34856  14.779   4.295  11.525
70924W        W34857  42.848  13.628  12.391
70925W        W34858  15.668   3.248  13.375
70926W        W34859   1.442  36.091  14.940
70927W        W34860  34.417  38.948  10.949
70928W        W34861  35.951  40.385   0.895
70929W        W34862  12.221  41.831  12.560
70930W        W34863  28.987  27.157   3.817
70931W        W34864  17.735  38.345   0.953
70932W        W34865  44.316  33.602  14.774
70933W        W34866  22.156   8.320  13.313
70934W        W34867  12.747  37.991   4.228
70935W        W34868  37.367   4.772  14.319
70936W        W34869  32.618  23.615   0.279
70937W        W34870  37.902  12.182  10.609
70938W        W34871  14.214  15.670  13.409
70939W        W34872  34.977  33.541  10.524
70940W        W34873  23.025  28.083   0.801
70941W        W34874  42.830  42.955  14.950
70942W        W34875  33.621  29.565  10.076
70943W        W34876  29.170  38.352   3.386
70944W        W34877  28.075  13.703   0.952
70945W        W34878  39.381  13.320  10.482
70946W        W34879   1.323  10.199   2.851
70947W        W34880  23.632  20.527  13.375
70948W        W34881   8.210  41.312   3.737
70949W        W34882  42.410  37.055  11.915
70950W        W34883  24.594   3.947   3.810
70951W        W34884  34.092  40.818  11.546
70952W        W34885   3.276  16.620  10.505
70953W        W34886  28.655  24.137  10.563
70954W        W34887  23.218  35.081   3.724
70955W        W34888  32.068   7.201  10.596
70956W        W34889  25.073   5.327   3.248
70957W        W34890  30.456  30.445  11.086
70958W        W34891   4.258  34.411   3.703
70959W        W34892  21.168  35.567  12.036
70960W        W34893  34.980  23.677   4.804
70961W        W34894   3.233  26.654   0.739
70962W        W34895   5.928  42.389   1.324
70963W        W34896  10.278  43.280   0.444
70964W        W34897  20.583   9.299  10.898
70965W        W34898  16.666  21.640   0.904
70966W        W34899  42.336  18.097   3.387
70967W        W34900  33.411  13.736  11.503
70968W        W34901  41.812  23.634   0.446
70969W        W34902  37.541   9.250  14.890
70970W        W34903  37.016  35.527   3.778
70971W        W34904  28.611  18.744   2.830
70972W        W34905  25.131  37.068  11.493
70973W        W34906  23.175   1.896  14.909
70974W        W34907  19.051  35.061  13.531
70975W        W34908  30.517  21.591  11.477
70976W        W34909  23.557  18.558   4.287
70977W        W34910  19.131  14.656   4.169
70978W        W34911  36.880  20.211   4.222
70979W        W34912  41.039   2.459   3.858
70980W        W34913   7.821  41.387  10.958
70981W        W34914  12.812  22.669   3.866
70982W        W34915  34.117  19.199  11.517
70983W        W34916   8.781  10.874  13.390
70984W        W34917  16.265  30.158   4.793
70985W        W34918  26.567  21.706   2.395
70986W        W34919   6.821  15.660   0.422
70987W        W34920   3.931   3.298   3.356
70988W        W34921  16.680  15.137   1.441
70989W        W34922  28.670   2.370  12.903
70990W        W34923  30.140   5.737   4.193
70991W        W34924   3.913  12.839  13.462
70992W        W34925  23.711  33.049  11.110
70993W        W34926  31.608  36.491   3.801
70994W        W34927  24.621  18.751  14.775
70995W        W34928  22.110   1.937   3.305
70996W        W34929  41.025   7.229   0.278
70997W        W34930  33.621  29.080  13.330
70998W        W34931   2.733  19.655   4.787
70999W        W34932  16.162   5.918   0.806
71000W        W34933  15.685   6.293   0.435
71001W        W34934  31.917  29.477   1.342
71002W        W34935  20.244  31.970   4.745
71003W        W34936   7.266  43.937   4.281
71004W        W34937  44.986  43.949   2.858
71005W        W34938  26.153  22.148  13.504
71006W        W34939  30.119  13.263  12.868
71007W        W34940  22.524  16.293   1.701
71008W        W34941  26.120   9.227   1.867
71009W        W34942  11.690   6.385  11.078
71010W        W34943  16.696  44.965  11.591
71011W        W34944   5.873  13.250  13.388
71012W        W34945  37.464  17.664  13.064
71013W        W34946  38.342   0.493  11.007
71014W        W34947  29.119  37.564  13.434
71015W        W34948  24.023  37.336  13.947
71016W        W34949   5.775  15.135  10.486
71017W        W34950   4.307  20.598  11.450
71018W        W34951  43.317   0.932  14.320
71019W        W34952  13.160  39.465  12.976
71020W        W34953  44.803  29.001   2.809
71021W        W34954  14.768  40.013  12.539
71022W        W34955  13.774  20.685  13.362
71023W        W34956  27.117   8.260   3.283
71024W        W34957  11.747  38.036   3.703
71025W        W34958   8.848   8.222  11.407
71026W        W34959  32.929   4.834   2.719
71027W        W34960  42.798  37.030   0.961
71028W        W34961  10.717  25.591  12.546
71029W        W34962   9.316  13.127   4.332
71030W        W34963  23.632   7.729  14.991
71031W        W34964   1.807  17.094   3.303
71032W        W34965  43.003  15.802   0.282
71033W        W34966  44.963   8.376   3.776
71034W        W34967   7.875   2.961   4.694
71035W        W34968  40.943  21.544  10.980
71036W        W34969   0.912  30.531   2.787
71037W        W34970   4.249  10.823   3.264
71038W        W34971  19.095  35.465   0.804
71039W        W34972  28.607  40.470   3.708
71040W        W34973  31.090   2.755   3.149
71041W        W34974   5.790   9.250   1.877
71042W        W34975  35.563  16.731   2.870
71043W        W34976  16.665   6.815   2.840
71044W        W34977  35.890   9.814   0.965
71045W        W34978  23.113  19.125   0.938
71046W        W34979   3.730  39.858   1.450
71047W        W34980  19.769  22.610  13.039
71048W        W34981  37.898  10.866  13.363
71049W        W34982  40.401  12.611   4.767
71050W        W34983  28.598  27.478  12.531
71051W        W34984  35.062  22.670  10.936
71052W        W34985   0.462   8.847   2.860
71053W        W34986   3.827  18.087   3.831
71054W        W34987  19.588  21.179   0.250
71055W        W34988  23.106   4.863   1.841
71056W        W34989  34.508  40.509  14.915
71057W        W34990  35.994  16.604  12.457
71058W        W34991  37.571  10.340   4.347
71059W        W34992  19.645   3.751   2.730
71060W        W34993   8.201   9.361  11.958
71061W        W34994  30.428  41.864   1.747
71062W        W34995  41.931  25.143  12.921
71063W        W34996   6.223  15.148   1.913
71064W        W34997  20.028  24.549  12.885
71065W        W34998   7.863  18.604   0.287
71066W        W34999  31.099  28.968  13.902
71067W        W35000  13.322  17.065  14.302
71068W        W35001  35.018  23.003  14.453
71069W        W35002  39.022  19.164  14.479
71070W        W35003  41.825  28.501   3.358
71071W        W35004   6.308  13.697  14.458
71072W        W35005  25.984   7.906  14.983
71073W        W35006  10.349  18.218   3.303
71074W        W35007  21.568  42.472   2.665
71075W        W35008  36.858  18.700   4.154
71076W        W35009  10.332  38.502   2.251
71077W        W35010  32.069   0.260  13.826
71078W        W35011   2.837   1.359  11.497
71079W        W35012  29.979  33.469  10.896
71080W        W35013  35.032  19.656  12.989
71081W        W35014  11.131  25.093   1.428
71082W        W35015  14.230  32.587  12.049
71083W        W35016  29.943  40.516   3.665
71084W        W35017  15.677   4.434   1.399
71085W        W35018  27.172   0.781   1.829
71086W        W35019   3.414  16.224  12.895
71087W        W35020  29.606  12.266   3.153
71088W        W35021  18.111  14.294   4.724
71089W        W35022  40.966   2.230  10.623
71090W        W35023  18.269  28.152   2.806
71091W        W35024  30.554  24.680   0.849
71092W        W35025  16.249   1.288   4.305
71093W        W35026   8.777  22.204  11.010
71094W        W35027  15.280  21.726   0.745
71095W        W35028  17.746  27.118   2.692
71096W        W35029   0.873  39.022  11.522
71097W        W35030  18.192  32.494  11.543
71098W        W35031  11.253  42.926  12.393
71099W        W35032  32.477   2.366   4.816
71100W        W35033  44.444  24.222   2.806
71101W        W35034   5.414  41.408  11.456
71102W        W35035   5.850   2.722   9.597
71103W        W35036  25.701   2.800  12.862
71104W        W35037  30.589  25.646  11.496
71105W        W35038   6.698  27.127   4.651
71106W        W35039  31.543  15.744   4.726
71107W        W35040  38.898  15.723  12.360
71108W        W35041  44.908  33.442   0.822
71109W        W35042   8.287   8.690  14.431
71110W        W35043  29.554  25.541  11.391
71111W        W35044  18.558  23.065   2.684
71112W        W35045  44.971  29.525   2.393
71113W        W35046  23.170   9.370  13.014
71114W        W35047  36.515   1.902  10.644
71115W        W35048  24.633  44.288   5.649
71116W        W35049  38.443   1.859   1.261
71117W        W35050   8.691  17.789   1.252
71118W        W35051   0.759  10.357  14.891
71119W        W35052  27.163   4.321  14.493
71120W        W35053  28.119   4.359  11.434
71121W        W35054  32.055  11.230  10.488
71122W        W35055  10.798  17.781   1.909
71123W        W35056   8.771  38.571  10.985
71124W        W35057  14.789  12.211  10.952
71125W        W35058   1.277  12.766  13.340
71126W        W35059   4.881   3.889  10.986
71127W        W35060  23.514  13.230   0.255
71128W        W35061  33.442  17.128   4.629
71129W        W35062  13.243  26.159  12.352
71130W        W35063   3.377  24.128  12.869
71131W        W35064   7.895  38.506   1.336
71132W        W35065  11.246   1.317  11.029
71133W        W35066  22.535  44.841  12.519
71134W        W35067  22.629  24.044  12.901
71135W        W35068  28.675   9.190   4.637
71136W        W35069  23.172  10.226  13.361
71137W        W35070  34.893   8.809  12.999
71138W        W35071  41.339  42.472   4.172
71139W        W35072  19.258  34.437  13.850
71140W        W35073  25.131  29.140  12.943
71141W        W35074   7.225  11.250   2.272
71142W        W35075  35.994  30.492   1.232
71143W        W35076  35.995  20.089   3.808
71144W        W35077  14.804  39.934  13.386
71145W        W35078  36.532  14.705   1.824
71146W        W35079  31.476  18.628  11.886
71147W        W35080  15.747   6.419  11.557
71148W        W35081  10.752  42.912  11.977
71149W        W35082  16.779  23.179  13.011
71150W        W35083  42.837  42.356   0.913
71151W        W35084  43.847  17.113  13.350
71152W        W35085   0.415  30.082  13.315
71153W        W35086  33.600  17.570   1.293
71154W        W35087  43.879   7.212  11.531
71155W        W35088  30.025  15.302  11.411
71156W        W35089   5.330  44.280  13.397
71157W        W35090   1.784  32.510   4.340
71158W        W35091  42.879  40.023   1.271
71159W        W35092  20.572  17.753  14.957
71160W        W35093  27.561  24.724   0.731
71161W        W35094  25.214  30.530  10.965
71162W        W35095   3.929  41.022   0.410
71163W        W35096  40.317  32.908  12.000
71164W        W35097  20.546  26.006   2.244
71165W        W35098   0.271  34.538  11.862
71166W        W35099  26.477  29.064  13.533
71167W        W35100  33.381  35.960  11.967
71168W        W35101  15.189   0.472  13.376
71169W        W35102  39.019  31.921  10.588
71170W        W35103  37.011  24.993  14.275
71171W        W35104  42.369  32.626   2.334
71172W        W35105  18.139   7.692   2.829
71173W        W35106  27.942  37.513  14.458
71174W        W35107  10.162  17.675  13.818
71175W        W35108  28.025  28.939   1.250
71176W        W35109   6.792  25.090   2.722
71177W        W35110   2.383  17.780  12.847
71178W        W35111  29.975  33.472   0.380
71179W        W35112  15.097  29.479  11.379
71180W        W35113  27.500  31.569   4.792
71181W        W35114   4.408   5.357   5.139
71182W        W35115  16.723  26.669  10.616
71183W        W35116   2.265  15.819  11.015
71184W        W35117  21.682  39.536   0.437
71185W        W35118  12.220  28.653   3.861
71186W        W35119  38.011  22.695   2.890
71187W        W35120   5.226  13.142   1.705
71188W        W35121  24.092  32.050   2.869
71189W        W35122  34.517  40.050  11.068
71190W        W35123  29.164  37.919  14.760
71191W        W35124   8.674  28.489   4.242
71192W        W35125  41.010  17.286   4.201
71193W        W35126   4.774  38.942  14.966
71194W        W35127  22.563   5.232  13.459
71195W        W35128  31.585  16.232  12.843
71196W        W35129  31.489  19.138  12.534
71197W        W35130  22.525  43.801   2.180
71198W        W35131  42.313  21.034   4.353
71199W        W35132  24.070  23.647   2.671
71200W        W35133  33.045  39.481  11.596
71201W        W35134  38.420  22.675  12.553
71202W        W35135  21.573  26.016   4.808
71203W        W35136  39.035  20.124  14.876
71204W        W35137  13.746  34.874  13.431
71205W        W35138  31.412  14.766  12.921
71206W        W35139  32.399  13.734  10.988
71207W        W35140  19.773  32.902  14.423
71208W        W35141  42.474  16.249  14.001
71209W        W35142  31.407  12.727  11.607
71210W        W35143  13.169   0.468  11.952
71211W        W35144  11.196  25.712  14.435
71212W        W35145   7.699  42.015  11.897
71213W        W35146  30.597  10.173  12.973
71214W        W35147  28.435   7.904   4.247
71215W        W35148  31.099  20.154   2.820
71216W        W35149  26.548  22.239  10.435
71217W        W35150  21.597  30.592  12.344
71218W        W35151   2.468   4.789   2.354
71219W        W35152  10.275  39.878   1.904
71220W        W35153   8.710  27.632   0.422
71221W        W35154  12.244   2.377   2.729
71222W        W35155  21.123  31.009  11.080
71223W        W35156  43.899   9.765  10.550
71224W        W35157  12.255  43.492  12.975
71225W        W35158  37.087  21.588   4.770
71226W        W35159  40.923  26.649  14.951
71227W        W35160  26.564  41.843   1.782
71228W        W35161  26.177   9.753  10.024
71229W        W35162  39.858  24.040  11.430
71230W        W35163   5.294  28.648   3.702
71231W        W35164  38.442  39.327  11.043
71232W        W35165  12.255  36.911  13.377
71233W        W35166   6.265   4.886  13.953
71234W        W35167  11.702  21.648  13.391
71235W        W35168  25.600   5.792   4.289
71236W        W35169  19.751  37.444   1.290
71237W        W35170  37.979   0.828   2.296
71238W        W35171  44.941  25.055  12.031
71239W        W35172  10.661  32.540   2.241
71240W        W35173  37.352   8.222   2.280
71241W        W35174  35.544  19.543   1.226
71242W        W35175  22.509  21.706   2.360
71243W        W35176  10.697  42.932   5.265
71244W        W35177  17.689  18.778  13.462
71245W        W35178   2.286  35.081  13.438
71246W        W35179  41.298  20.729   0.245
71247W        W35180  16.696  30.548   3.685
71248W        W35181  41.875   8.708   3.382
71249W        W35182  21.144  28.541  11.469
71250W        W35183  37.502  30.031   4.739
71251W        W35184  20.125  15.620   0.934
71252W        W35185  44.493  21.691   3.788
71253W        W35186  36.895  40.862  14.857
71254W        W35187  38.031  34.971  11.376
71255W        W35188  25.663  29.073  12.876
71256W        W35189   3.868  41.294  13.882
71257W        W35190  42.856   0.330  10.114
71258W        W35191  21.224  34.949  10.894
71259W        W35192  26.025  21.084   1.272
71260W        W35193  41.937  12.777   3.633
71261W        W35194  28.665   5.361   2.260
71262W        W35195  40.521   6.375   2.181
71263W        W35196  13.286  22.560   4.614
71264W        W35197  38.014  23.657   1.346
71265W        W35198  11.249  42.368  14.859
71266W        W35199  15.280  32.116   1.373
71267W        W35200  41.295  16.791  11.484
71268W        W35201  29.561  23.120  12.963
71269W        W35202  14.134  33.408   0.293
71270W        W35203  29.448  20.526   0.745
71271W        W35204  19.576  40.374   3.809
71272W        W35205  18.289  24.989   2.372
71273W        W35206  28.570  20.261  11.584
71274W        W35207  15.698  18.748  12.539
71275W        W35208  25.605  44.391   1.243
71276W        W35209   1.406   5.392  11.868
71277W        W35210  10.758   1.452  11.038
71278W        W35211  43.380  36.504   0.839
71279W        W35212  13.666  29.591  10.974
71280W        W35213   4.365  29.583  12.465
71281W        W35214  19.147  26.657   4.302
71282W        W35215   3.238  30.558  10.122
71283W        W35216  25.549  29.930   3.659
71284W        W35217  42.979  27.108  12.933
71285W        W35218  13.811  10.148   4.221
71286W        W35219  20.198  35.381  14.860
71287W        W35220  24.685  15.290  12.990
71288W        W35221  31.469  24.725  10.965
71289W        W35222  42.002   5.750  10.903
71290W        W35223  16.092   4.793   2.331
71291W        W35224  25.646  23.019   3.213
71292W        W35225  17.616  39.813   9.610
71293W        W35226  38.350  31.627  13.008
71294W        W35227  16.717  16.684   1.926
71295W        W35228  25.193  21.223  13.512
71296W        W35229   8.702  29.148   2.246
71297W        W35230  16.075   5.356  12.363
71298W        W35231  39.997  26.655   1.225
71299W        W35232   9.807  11.657   3.728
71300W        W35233  16.144  44.936  11.105
71301W        W35234   5.768   8.370   2.783
71302W        W35235  33.105   5.369  13.315
71303W        W35236  18.649  28.541   4.301
71304W        W35237  37.004  27.093  10.625
71305W        W35238   2.232  38.000  13.803
71306W        W35239  13.184  11.634  10.621
71307W        W35240  28.593   0.814  11.898
71308W        W35241  13.110  22.102  14.986
71309W        W35242  31.966  37.884  14.839
71310W        W35243  36.047  33.128  12.384
71311W        W35244  29.563   2.852   1.826
71312W        W35245  44.872   2.299  11.985
71313W        W35246  28.635  40.357   4.711
71314W        W35247  19.736  27.149   3.317
71315W        W35248  27.475  15.810  10.913
71316W        W35249  34.442  26.151  12.906
71317W        W35250  44.438  33.065   4.751
71318W        W35251   4.906  38.989  12.840
71319W        W35252   0.399  10.368   2.685
71320W        W35253  37.509  27.566   2.256
71321W        W35254   3.925  28.014   0.284
71322W        W35255  10.232  31.956  10.040
71323W        W35256  38.864  13.623  14.931
71324W        W35257  25.627   2.829  11.390
71325W        W35258   7.171  43.011   5.305
71326W        W35259  41.392  29.005  12.556
71327W        W35260  43.769  13.788   1.788
71328W        W35261  42.864  10.641  13.817
71329W        W35262  27.531  21.126   1.764
71330W        W35263   7.684   9.764  13.819
71331W        W35264   5.784  12.127  14.011
71332W        W35265  36.349  39.536  14.504
71333W        W35266  14.272  35.100  11.000
71334W        W35267  25.212  35.394  10.927
71335W        W35268  27.953   6.733   3.183
71336W        W35269  29.576  24.560   0.424
71337W        W35270  32.050  27.014  12.454
71338W        W35271   1.941   6.199   0.962
71339W        W35272  29.093   1.898  13.000
71340W        W35273  36.445  42.385   3.697
71341W        W35274  21.257  24.077  13.387
71342W        W35275  35.379  25.493   4.115
71343W        W35276  31.036  15.638   1.330
71344W        W35277  18.742  44.767   3.640
71345W        W35278  13.298  41.517   1.910
71346W        W35279   1.774  14.260   4.804
71347W        W35280  36.021   3.281   0.878
71348W        W35281   3.238  40.544   2.253
71349W        W35282  10.345  10.305  13.043
71350W        W35283  19.727   8.198  13.980
71351W        W35284  32.125  37.926   1.801
71352W        W35285  30.085   0.823  14.842
71353W        W35286  25.656  38.478  14.407
71354W        W35287  13.110  14.312   2.851
71355W        W35288  18.675   4.910  11.569
71356W        W35289  31.962   9.783   1.295
71357W        W35290   4.315  23.529  14.956
71358W        W35291  44.303  24.600   1.845
71359W        W35292  32.112  40.994   4.220
71360W        W35293  29.011  43.980  13.025
71361W        W35294  39.023  25.663  13.972
71362W        W35295   1.444  39.370  11.552
71363W        W35296  38.834  29.654  11.423
71364W        W35297  39.961  41.434  14.384
71365W        W35298   9.795  14.286   1.359
71366W        W35299  30.047   9.366   1.307
71367W        W35300  23.070   8.362   1.238
71368W        W35301   4.244   0.481   3.723
71369W        W35302  32.394  10.666  14.969
71370W        W35303  13.665  26.131  12.905
71371W        W35304  22.196   4.843   3.850
71372W        W35305   2.927   8.369  13.474
71373W        W35306  24.094  22.168  13.814
71374W        W35307   7.253  13.630  14.361
71375W        W35308  29.574  18.233   9.930
71376W        W35309   6.341  12.732   2.292
71377W        W35310  23.196  22.093  12.543
71378W        W35311  15.110  19.557   2.889
71379W        W35312  15.301  19.661  10.942
71380W        W35313  41.483  44.432   4.342
71381W        W35314   8.171  38.876  11.610
71382W        W35315   9.845  18.785   3.378
71383W        W35316  22.232   5.759   4.150
71384W        W35317  44.316  20.076  10.521
71385W        W35318   6.278  17.140  14.874
71386W        W35319  39.544  25.566  14.859
71387W        W35320  35.497   3.940   2.728
71388W        W35321  10.287   2.277   3.651
71389W        W35322  32.554  20.090  14.821
71390W        W35323  16.804  37.535  10.467
71391W        W35324   8.693  43.336  14.765
71392W        W35325  43.018  36.551  11.959
71393W        W35326   7.208  18.082   2.850
71394W        W35327  20.064   8.232  13.361
71395W        W35328  36.866  10.367   2.377
71396W        W35329  37.553  16.568  10.523
71397W        W35330  33.573  37.523   2.343
71398W        W35331   1.793   0.249   1.309
71399W        W35332   9.803  25.668  11.522
71400W        W35333  26.964  39.414   0.930
71401W        W35334  37.927  43.314   0.475
71402W        W35335  27.677  40.330  14.377
71403W        W35336  24.044  37.922   1.707
71404W        W35337  21.595  19.183   3.823
71405W        W35338  14.173  27.673  11.099
71406W        W35339  42.435  29.605  10.562
71407W        W35340  17.768  36.852   5.625
71408W        W35341   3.407   5.723  10.580
71409W        W35342  16.618  17.112  11.526
71410W        W35343  28.965  14.188   2.821
71411W        W35344  41.477  29.141  14.952
71412W        W35345  41.868  34.454   2.408
71413W        W35346  29.560   6.192   1.783
71414W        W35347  24.607   1.957   3.674
71415W        W35348  35.078  38.057  14.974
71416W        W35349  19.721  17.246   4.270
71417W        W35350  38.985  16.113  14.959
71418W        W35351  23.192  26.057   0.738
71419W        W35352   6.823  34.083   4.120
71420W        W35353  15.247  17.698   3.260
71421W        W35354  38.838  30.471  11.879
71422W        W35355  19.183  28.068   1.359
71423W        W35356  21.574   0.353  13.332
71424W        W35357   5.927   2.841   3.313
71425W        W35358  38.819   7.906  14.962
71426W        W35359   1.393  12.831   0.754
71427W        W35360  17.771   9.840   2.398
71428W        W35361  38.021  32.953   4.836
71429W        W35362  40.915  20.110   3.319
71430W        W35363  14.639  29.488  14.918
71431W        W35364   2.767  39.452  13.547
71432W        W35365  33.059  40.380   2.802
71433W        W35366  15.792  37.974   3.329
71434W        W35367   1.868   9.741  13.949
71435W        W35368  41.344  13.763  12.046
71436W        W35369  38.019  17.702   2.702
71437W        W35370   1.871  26.574  14.968
71438W        W35371  25.676  35.381   1.272
71439W        W35372  26.681  37.490   0.421
71440W        W35373  22.183  33.091  12.952
71441W        W35374  21.092  10.287  14.384
71442W        W35375  33.077  35.018  13.937
71443W        W35376   1.319  40.049  14.499
71444W        W35377  10.764  29.580  13.517
71445W        W35378  21.140   8.885  11.916
71446W        W35379  14.177  10.750   3.836
71447W        W35380   9.273  26.960  10.911
71448W        W35381  32.449  43.977  14.025
71449W        W35382  16.691  20.602   3.236
71450W        W35383  19.558  29.560  10.023
71451W        W35384  35.429  16.646   4.348
71452W        W35385  36.491  13.225  13.311
71453W        W35386  27.458  38.892  10.932
71454W        W35387  10.166   7.752   2.678
71455W        W35388   2.348   5.772   2.882
71456W        W35389  26.578   7.331   3.296
71457W        W35390  17.092  33.432  11.112
71458W        W35391   1.798  36.994   1.326
71459W        W35392   1.766   7.761   4.788
71460W        W35393   4.900  25.168  12.868
71461W        W35394  34.475  42.877  12.960
71462W        W35395  32.982   3.717  11.958
71463W        W35396  12.145  29.002   1.710
71464W        W35397  24.975  27.989   1.347
71465W        W35398   4.819  17.116   2.849
71466W        W35399  31.013  29.995   2.228
71467W        W35400  25.097  20.211  12.973
71468W        W35401  42.985  12.271   1.339
71469W        W35402  40.815  21.159  11.510
71470W        W35403  38.826  19.209   1.724
71471W        W35404  39.457  36.456  14.001
71472W        W35405  15.088   4.242   0.328
71473W        W35406  25.676  32.914  11.030
71474W        W35407  14.111   9.791   3.684
71475W        W35408   4.826  21.714   2.773
71476W        W35409  15.714  40.918   2.878
71477W        W35410  22.242  21.030  10.639
71478W        W35411  38.993   6.884  13.326
71479W        W35412  15.680  38.999   2.765
71480W        W35413  19.767   7.209  14.383
71481W        W35414  23.220  33.075  12.482
71482W        W35415   9.742  24.560   1.314
71483W        W35416  41.846  20.632   2.358
71484W        W35417  22.657  19.726   1.750
71485W        W35418  37.562  33.606  14.477
71486W        W35419   1.280  31.462   2.896
71487W        W35420   7.356  28.095  12.563
71488W        W35421  11.711  23.654  11.560
71489W        W35422  43.468  44.819   3.193
71490W        W35423  24.109  25.654  14.900
71491W        W35424  43.775  35.570  10.587
71492W        W35425   1.835   6.275  10.540
71493W        W35426  31.947  23.092  11.012
71494W        W35427   5.268  38.383  13.955
71495W        W35428  24.007  37.957   4.653
71496W        W35429  17.724  13.135   1.236
71497W        W35430  19.538  43.286  12.064
71498W        W35431   1.966  27.169   4.302
71499W        W35432  37.345  24.086  11.454
71500W        W35433  25.195  26.141   4.686
71501W        W35434  36.860  22.505  11.071
71502W        W35435  38.897  15.577   9.969
71503W        W35436  33.514  22.020  10.528
71504W        W35437  18.178  22.179  12.041
71505W        W35438  25.511  22.669  10.550
71506W        W35439  25.635  38.820  13.966
71507W        W35440  42.008   0.979   4.670
71508W        W35441  12.706  18.560  11.884
71509W        W35442   1.346  43.331  12.962
71510W        W35443  15.266  44.279  12.539
71511W        W35444  25.029   9.311  14.924
71512W        W35445   3.778  33.002  14.030
71513W        W35446  12.281   6.216   1.749
71514W        W35447  37.443  24.011  11.971
71515W        W35448  10.679  16.195  12.900
71516W        W35449  13.614  14.630   2.857
71517W        W35450   4.353  39.861   4.233
71518W        W35451  20.677  27.117  13.034
71519W        W35452  36.898  42.963   3.201
71520W        W35453  10.248   9.680   4.827
71521W        W35454  23.635  27.602   1.390
71522W        W35455  15.769  12.801  14.952
71523W        W35456   1.430   5.426   2.272
71524W        W35457  33.412  16.285  14.974
71525W        W35458  37.016  30.976  12.829
71526W        W35459  24.604   8.328   0.338
71527W        W35460   1.823  21.126  14.936
71528W        W35461  14.618  28.666   3.833
71529W        W35462  32.103  21.649   0.945
71530W        W35463   5.244  15.711  12.945
71531W        W35464  21.750  14.101   4.652
71532W        W35465   3.862  19.121  11.455
71533W        W35466  32.925  32.015   2.406
71534W        W35467  20.051  21.691   2.684
71535W        W35468  12.756  22.672   0.759
71536W        W35469   4.904  19.665  10.019
71537W        W35470   7.371  34.931  10.498
71538W        W35471  16.585  30.570  13.892
71539W        W35472  22.589  38.865   1.760
71540W        W35473  31.128  15.141   1.867
71541W        W35474  17.787   8.711  10.581
71542W        W35475  17.619  21.174   3.687
71543W        W35476   2.782  12.657  11.928
71544W        W35477  40.861  24.669   4.128
71545W        W35478  24.536  44.309   3.170
71546W        W35479  33.962  26.549  14.844
71547W        W35480  11.729  17.612  12.032
71548W        W35481  19.041  35.547  10.979
71549W        W35482   3.949  44.465  10.156
71550W        W35483  21.254   9.648   4.136
71551W        W35484   0.360  30.907   4.161
71552W        W35485   3.867  36.458   0.337
71553W        W35486  30.650  29.620   4.332
71554W        W35487  31.547  23.202  12.489
71555W        W35488  25.593  22.148  11.409
71556W        W35489  12.728  30.998  10.996
71557W        W35490  10.656  40.941   3.293
71558W        W35491  31.550  36.061   0.901
71559W        W35492   8.181  35.053  14.330
71560W        W35493  37.563  38.383  12.391
71561W        W35494  16.658   2.744  14.775
71562W        W35495  27.172   4.397   2.341
71563W        W35496   9.650  11.213   0.913
71564W        W35497  31.583  12.760  11.985
71565W        W35498   9.742   9.381   4.209
71566W        W35499  28.573  26.487   3.864
71567W        W35500   1.806  16.287   2.684
71568W        W35501   1.781  41.436  12.052
71569W        W35502   4.812   3.234   0.250
71570W        W35503  39.387  15.767   1.817
71571W        W35504   5.256  37.409   2.869
71572W        W35505   3.386  15.804  12.015
71573W        W35506  44.987  19.579  14.282
71574W        W35507  40.494  33.475  14.448
71575W        W35508  41.828  30.458  11.063
71576W        W35509  18.756  28.038  14.809
71577W        W35510  21.227  10.747   0.304
71578W        W35511   4.772  37.565  11.883
71579W        W35512  14.107  34.526  14.314
71580W        W35513  26.486  21.184   4.778
71581W        W35514   5.768  20.122  10.924
71582W        W35515  14.199  10.351   4.660
71583W        W35516   5.752   5.402   1.449
71584W        W35517  13.272  43.823  13.440
71585W        W35518  20.598  35.496  13.995
71586W        W35519   8.198   3.252  13.371
71587W        W35520  29.958  12.789  14.913
71588W        W35521  22.702  41.532   2.326
71589W        W35522  26.114  44.981  14.459
71590W        W35523  34.382   0.482  12.400
71591W        W35524   1.734  25.182  10.607
71592W        W35525   2.438  23.595   3.155
71593W        W35526  21.532  36.433  12.371
71594W        W35527  43.398   2.272  12.575
71595W        W35528  21.538  22.666   1.415
71596W        W35529   0.988  30.076  10.900
71597W        W35530  35.427  39.874   4.342
71598W        W35531  11.323   7.841  12.851
71599W        W35532  16.301  18.686   3.197
71600W        W35533  35.030  39.942   0.247
71601W        W35534  27.547  41.392  11.401
71602W        W35535  19.547  40.032  11.577
71603W        W35536  29.663   2.855   3.851
71604W        W35537  10.811  18.741   4.700
71605W        W35538  25.571  15.672  13.426
71606W        W35539  27.529  21.591  12.502
71607W        W35540  42.909  32.576   0.286
71608W        W35541   6.234   0.795   1.807
71609W        W35542  33.083   1.250  12.968
71610W        W35543   7.389  20.584   2.203
71611W        W35544   4.283  31.565  14.342
71612W        W35545   6.784   1.465  11.934
71613W        W35546  17.117  12.356  14.948
71614W        W35547  13.729  34.957   3.721
71615W        W35548  14.300  15.176  13.906
71616W        W35549   9.653   4.421   4.614
71617W        W35550  26.107  14.164  11.021
71618W        W35551  26.008  34.019   4.686
71619W        W35552   4.211  23.650   0.727
71620W        W35553  10.831  28.534  13.468
71621W        W35554  39.435   6.690   0.374
71622W        W35555  10.761  13.226   1.318
71623W        W35556   4.867  24.614   3.823
71624W        W35557  25.472  38.379  14.009
71625W        W35558  13.147   7.362   4.738
71626W        W35559  36.519   0.302  13.031
71627W        W35560  20.582  16.126   1.414
71628W        W35561  19.189  42.853   4.245
71629W        W35562   4.852  10.194  11.108
71630W        W35563  27.017  40.928   3.637
71631W        W35564  25.977  18.075   3.277
71632W        W35565  22.115  30.164   1.361
71633W        W35566  15.606   9.384   1.223
71634W        W35567  32.399  44.920   0.770
71635W        W35568  31.064  43.844  13.039
71636W        W35569  38.863  33.119  14.933
71637W        W35570  12.777  20.721  11.579
71638W        W35571  40.480  22.091   2.877
71639W        W35572  40.858   1.772  11.082
71640W        W35573   0.398  25.469   2.219
71641W        W35574  19.280  43.973  13.013
71642W        W35575  37.903  36.396   3.744
71643W        W35576  26.543   5.885   9.942
71644W        W35577  44.273  33.087  14.516
71645W        W35578  12.287   9.759   1.288
71646W        W35579  15.133  43.297   1.249
71647W        W35580  24.137  40.928   0.374
71648W        W35581  35.563  15.583  11.057
71649W        W35582  44.365  43.928   1.427
71650W        W35583  43.898  28.535  14.467
71651W        W35584   5.855  18.684  11.440
71652W        W35585  11.212  13.291   0.257
71653W        W35586   7.407   0.377  14.936
71654W        W35587  43.990   2.417   3.689
71655W        W35588  31.060   8.802  10.522
71656W        W35589  19.228   6.216  13.839
71657W        W35590   2.402   2.845   4.797
71658W        W35591  40.933  32.472  14.840
71659W        W35592  41.842  40.957  12.477
71660W        W35593  44.267  15.085  10.500
71661W        W35594  17.613   6.701  14.992
71662W        W35595  12.653  22.655  14.436
71663W        W35596  13.189   9.678   2.261
71664W        W35597  16.669  12.633   2.747
71665W        W35598  11.809  38.938   2.394
71666W        W35599  37.375   2.833   2.723
71667W        W35600  25.177  21.254  14.415
71668W        W35601  31.982  13.724  14.903
71669W        W35602  22.514  32.121   4.623
71670W        W35603  38.466  19.760   4.725
71671W        W35604   8.296  30.594  12.556
71672W        W35605   3.872  28.547  13.833
71673W        W35606  15.651  35.106   1.404
71674W        W35607  22.580  15.643   0.861
71675W        W35608  30.109   2.409   1.223
71676W        W35609   1.360   4.938  12.046
71677W        W35610  40.545  31.570   1.855
71678W        W35611  13.829  16.213   4.726
71679W        W35612  36.925  24.678  11.527
71680W        W35613   9.383  40.971  14.006
71681W        W35614  22.724  14.287  11.385
71682W        W35615  25.545  12.766  11.942
71683W        W35616  14.244  30.941  11.535
71684W        W35617  33.048  32.097  12.959
71685W        W35618  40.999  32.612   2.411
71686W        W35619   2.326   1.464  14.282
71687W        W35620  11.216  21.093   4.807
71688W        W35621  24.683   7.903  14.968
71689W        W35622  17.240  41.861  12.436
71690W        W35623  43.437  28.514  11.516
71691W        W35624  28.436   8.693   1.441
71692W        W35625  28.985  10.647   3.864
71693W        W35626  14.692  36.046  13.855
71694W        W35627  39.462  33.406  14.368
71695W        W35628  17.150  29.027   1.702
71696W        W35629  24.135  32.983  12.974
71697W        W35630  17.800  44.457  12.069
71698W        W35631  24.171  31.136  11.591
71699W        W35632  20.668  17.072  10.547
71700W        W35633  16.786  10.799  12.489
71701W        W35634  28.523  11.369   2.314
71702W        W35635   8.819   5.226  14.983
71703W        W35636   7.870  39.427  10.627
71704W        W35637  14.818  10.319   2.383
71705W        W35638  30.103  33.909   0.425
71706W        W35639  12.668  37.452   0.857
71707W        W35640  41.320   1.748   2.783
71708W        W35641  19.073  39.831  12.555
71709W        W35642  20.190  11.837  14.405
71710W        W35643   4.720  19.716   3.774
71711W        W35644  40.981   8.830  12.555
71712W        W35645  40.470   6.850  10.902
71713W        W35646   0.276  23.509   4.821
71714W        W35647   1.802   0.493  13.369
71715W        W35648   3.246  26.590  11.960
71716W        W35649   6.760  38.357  13.940
71717W        W35650  34.588  35.360   3.363
71718W        W35651  12.784   7.704   0.878
71719W        W35652  27.662  37.884  14.870
71720W        W35653   3.235   8.851   0.358
71721W        W35654   2.905  28.152  13.060
71722W        W35655  11.178  35.972   0.743
71723W        W35656   2.762   4.779  11.519
71724W        W35657  11.284  33.935   0.890
71725W        W35658  27.529   3.444   4.817
71726W        W35659  41.978   3.718  10.413
71727W        W35660  38.358  17.689  12.876
71728W        W35661  23.596   7.905  10.554
71729W        W35662  36.591  11.147   0.427
71730W        W35663  33.553  23.180  11.047
71731W        W35664  35.514  24.105  11.601
71732W        W35665  38.453  28.589   4.659
71733W        W35666  26.001  37.544   4.265
71734W        W35667  11.751  40.935   2.861
71735W        W35668  28.449  21.171  14.496
71736W        W35669  13.803  44.440  12.978
71737W        W35670  36.939   2.464   4.797
71738W        W35671  41.373  32.457  11.531
71739W        W35672  24.495   8.175   1.745
71740W        W35673   1.475  25.201   4.128
71741W        W35674  39.947  39.929  10.500
71742W        W35675  34.578  34.927  12.500
71743W        W35676  28.669  14.300  13.877
71744W        W35677   7.699  43.422   3.812
71745W        W35678   9.722  15.185  12.056
71746W        W35679  35.473  20.605   2.397
71747W        W35680  22.247  32.927   3.775
71748W        W35681   6.869  17.801  11.970
71749W        W35682   6.883   4.324   3.646
71750W        W35683   7.878  19.280  13.315
71751W        W35684   3.236  35.910  12.875
71752W        W35685  22.709  12.161   0.899
71753W        W35686  32.956  39.939   0.934
71754W        W35687  39.502  29.530  13.495
71755W        W35688  16.227   4.797   3.242
71756W        W35689  35.096  42.985  11.096
71757W        W35690  16.158  37.350   1.788
71758W        W35691  28.451  23.695  14.466
71759W        W35692  31.033   6.363  10.918
71760W        W35693  15.251   8.854   2.856
71761W        W35694   9.226  43.991   4.193
71762W        W35695   2.962  11.299  13.466
71763W        W35696  23.492  41.887  12.951
71764W        W35697  42.379  20.762  10.957
71765W        W35698   0.845  43.993  10.620
71766W        W35699  37.413  32.626   2.686
71767W        W35700  14.650  28.441  11.878
71768W        W35701  42.396  21.083   2.194
71769W        W35702  28.677  18.648  12.061
71770W        W35703  27.968  39.499   2.839
71771W        W35704  25.713  30.020  13.497
71772W        W35705  27.659  37.345  13.941
71773W        W35706  15.143  33.421   1.911
71774W        W35707   4.735  31.007  10.618
71775W        W35708  28.047  22.668   5.129
71776W        W35709  19.634  37.027   3.820
71777W        W35710   4.746   0.974   3.832
71778W        W35711   6.872  43.299  12.019
71779W        W35712  20.746   1.895  12.934
71780W        W35713  12.846   3.278   0.291
71781W        W35714  32.565  28.064  13.356
71782W        W35715  36.011  12.745   2.311
71783W        W35716   5.831  44.765  14.411
71784W        W35717  12.213  25.611  13.457
71785W        W35718   1.871  39.451  14.775
71786W        W35719  11.854  29.658  11.481
71787W        W35720  16.095   8.784  12.491
71788W        W35721  14.766  12.620   2.778
71789W        W35722  26.178  34.469  13.047
71790W        W35723  15.235  27.995   1.268
71791W        W35724  43.286  30.943  12.409
71792W        W35725  20.196   6.241   3.228
71793W        W35726  25.469   0.376   4.167
71794W        W35727  28.621  12.204   2.733
71795W        W35728   9.256  19.744  11.127
71796W        W35729  36.353   2.771   3.831
71797W        W35730  27.558  10.762  10.639
71798W        W35731  33.555   2.813  13.542
71799W        W35732  20.524  27.553   0.836
71800W        W35733  33.417  39.956   3.161
71801W        W35734  16.142   9.192   5.118
71802W        W35735  23.642  16.596   1.755
71803W        W35736  25.598  29.073   0.309
71804W        W35737  33.043   5.234  12.572
71805W        W35738  26.032  13.673   0.958
71806W        W35739   7.772  37.996   2.758
71807W        W35740  34.390  13.148  14.881
71808W        W35741  29.101  23.665  10.915
71809W        W35742  27.565  43.297  11.404
71810W        W35743  20.131  10.373   4.807
71811W        W35744  33.906   7.257   0.282
71812W        W35745  35.581  35.411  13.361
71813W        W35746  17.790  14.287   2.193
71814W        W35747  14.191  13.164  11.894
71815W        W35748   3.372   3.738   0.252
71816W        W35749  38.947   6.359   1.695
71817W        W35750  35.999   6.730   1.434
71818W        W35751   3.725  38.479  11.551
71819W        W35752  18.208  40.506  11.585
71820W        W35753  22.229  18.629  13.865
71821W        W35754  37.921  43.767   2.731
71822W        W35755  36.842   3.237  13.495
71823W        W35756  24.979  20.605  13.511
71824W        W35757  33.582  29.519   2.280
71825W        W35758  36.430   2.779   1.408
71826W        W35759   7.831  30.475   4.614
71827W        W35760  20.071  14.613  11.600
71828W        W35761   8.362  17.086  13.811
71829W        W35762  35.933  33.967  11.390
71830W        W35763  38.012  25.624  11.981
71831W        W35764  22.194  31.517   1.869
71832W        W35765  10.363  21.671  11.048
71833W        W35766  44.286  24.033   1.747
71834W        W35767  13.725  35.487  14.964
71835W        W35768  29.925  43.807   4.816
71836W        W35769  21.531  33.464  14.991
71837W        W35770  24.008   6.352  11.872
71838W        W35771  18.648  28.966  14.477
71839W        W35772  18.065  27.617  14.493
71840W        W35773  42.413  17.081  11.093
71841W        W35774  14.252  19.100   1.237
71842W        W35775  30.558  32.539   3.205
71843W        W35776  12.287  27.030   0.344
71844W        W35777  30.049  29.591   4.688
71845W        W35778  33.457  17.198  10.608
71846W        W35779  41.015  10.764  14.943
71847W        W35780  40.469  34.457  13.437
71848W        W35781   5.308   2.305  12.455
71849W        W35782  26.060   8.691   1.917
71850W        W35783  35.509  22.092  14.434
71851W        W35784   3.383  41.872   4.836
71852W        W35785   1.806  40.835   3.301
71853W        W35786  22.563  33.912   3.692
71854W        W35787  13.297  17.305  11.609
71855W        W35788  21.186  36.532   4.178
71856W        W35789  38.509  29.050  13.382
71857W        W35790  29.595   1.253   0.861
71858W        W35791   6.248   6.215  10.934
71859W        W35792  28.145  18.580  10.581
71860W        W35793  21.733  33.499  11.857
71861W        W35794  23.594  42.301  13.001
71862W        W35795  25.505   2.760   0.408
71863W        W35796  28.584  27.016  13.528
71864W        W35797  24.188   5.231   4.711
71865W        W35798  37.394  27.556  11.612
71866W        W35799   3.442  17.072  13.322
71867W        W35800  22.696  43.377  12.886
71868W        W35801  36.020  22.130  14.783
71869W        W35802  26.472   3.266  12.890
71870W        W35803  28.455  22.065  13.507
71871W        W35804  22.061  30.532   2.284
71872W        W35805  11.693   4.740   4.190
71873W        W35806  15.115  29.078   3.233
71874W        W35807  29.621   5.742  13.894
71875W        W35808  21.609  37.032  12.044
71876W        W35809  33.533  43.359   2.392
71877W        W35810  40.807  44.816  11.981
71878W        W35811  44.407  29.464   1.309
71879W        W35812  35.456   5.830   3.179
71880W        W35813  35.372  42.400   1.350
71881W        W35814  20.052  15.205  12.916
71882W        W35815  14.222  29.971   3.696
71883W        W35816  15.141   5.809   4.168
71884W        W35817  14.622   2.816   2.216
71885W        W35818  16.774   7.410   5.302
71886W        W35819   0.958  29.587   0.418
71887W        W35820  38.993  13.778   3.759
71888W        W35821  15.097  20.744  14.475
71889W        W35822  11.332  31.411   1.828
71890W        W35823   6.708  17.069  12.554
71891W        W35824  31.619  23.039  11.112
71892W        W35825  31.625  11.634  12.555
71893W        W35826  15.709  38.449   1.354
71894W        W35827  41.987  34.020   3.233
71895W        W35828  15.753  36.593   2.320
71896W        W35829  14.666  20.064  11.096
71897W        W35830  34.910  44.321   1.369
71898W        W35831   5.222  28.937  12.343
71899W        W35832  11.247  12.221  14.785
71900W        W35833  15.812  38.870  13.546
71901W        W35834  26.146  11.828  12.948
71902W        W35835  15.699  10.656  14.913
71903W        W35836  25.596  36.510   2.834
71904W        W35837   0.401   3.874  11.421
71905W        W35838   6.197  27.610  10.998
71906W        W35839  39.395  38.879   4.598
71907W        W35840  30.100  37.523   3.218
71908W        W35841  36.414  36.087   4.160
71909W        W35842  29.639  24.139  10.898
71910W        W35843   8.360  16.675  14.368
71911W        W35844  16.186  42.836  11.098
71912W        W35845  19.286  34.002   2.721
71913W        W35846  40.841  13.159  13.831
71914W        W35847  35.055  20.759  10.494
71915W        W35848  34.053  39.908  12.429
71916W        W35849  35.383  43.865  12.017
71917W        W35850  11.694   7.205   4.295
71918W        W35851  15.703  33.125  12.451
71919W        W35852  36.512  42.292   0.963
71920W        W35853  20.553  27.509  14.906
71921W        W35854   9.766  19.634  13.022
71922W        W35855  39.003   1.371  10.436
71923W        W35856  19.096  15.810   2.221
71924W        W35857  38.842   6.778   4.613
71925W        W35858   0.477   4.446   4.246
71926W        W35859  43.851  35.912  13.994
71927W        W35860  12.723  29.433   0.371
71928W        W35861   3.865  35.417   0.746
71929W        W35862  32.072  15.820  13.840
71930W        W35863  24.512  32.615  12.870
71931W        W35864  20.191  10.323   0.798
71932W        W35865  17.667  15.110  15.000
71933W        W35866   1.970   5.795   1.425
71934W        W35867  44.846  30.118   3.796
71935W        W35868  33.468   9.335   4.327
71936W        W35869   5.829  18.642   4.646
71937W        W35870  13.234  10.270   4.754
71938W        W35871   0.274  17.626  13.410
71939W        W35872  44.968   8.206  13.978
71940W        W35873  42.998   3.394  11.002
71941W        W35874  21.559   7.286   3.211
71942W        W35875  30.128  17.788  14.910
71943W        W35876   2.742   3.391  13.987
71944W        W35877   4.821  12.260   4.817
71945W        W35878  28.648  33.106   3.681
71946W        W35879  26.952   8.754  12.911
71947W        W35880   9.825  37.363   3.767
71948W        W35881  21.215  10.852   1.748
71949W        W35882   9.202   2.431  12.912
71950W        W35883  33.016   6.768   1.387
71951W        W35884  13.242  10.156   1.805
71952W        W35885   7.398  38.435   3.757
71953W        W35886  13.204  32.571   2.385
71954W        W35887  26.651  44.943   5.258
71955W        W35888  23.232  35.908   4.197
71956W        W35889   3.282  21.064   4.741
71957W        W35890  12.191  41.466  13.374
71958W        W35891   9.787   7.197  11.076
71959W        W35892  31.569  34.535   0.919
71960W        W35893  23.625  19.675  10.447
71961W        W35894   9.295  24.990   4.740
71962W        W35895  16.205  39.317   4.266
71963W        W35896   3.217  32.466   4.788
71964W        W35897  18.142  36.973   2.724
71965W        W35898  28.523  37.012   2.282
71966W        W35899  36.393  19.088  10.534
71967W        W35900  12.344   8.825  14.390
71968W        W35901  14.285  20.135   0.821
71969W        W35902   0.899  44.758   3.690
71970W        W35903  11.328  32.575  12.474
71971W        W35904  11.292  38.377   4.720
71972W        W35905  36.452   8.767   4.825
71973W        W35906  42.854  43.963   3.760
71974W        W35907  17.752  13.611   3.189
71975W        W35908  25.664  20.144  14.952
71976W        W35909  39.382  27.579   4.123
71977W        W35910  18.579  21.660   0.433
71978W        W35911  32.579   8.307   1.783
71979W        W35912   1.396  13.839   5.745
71980W        W35913  21.625   4.706   1.742
71981W        W35914  19.171   7.885  10.549
71982W        W35915  37.847  25.135  10.488
71983W        W35916  32.594  44.492   0.360
71984W        W35917  28.180  22.151  10.450
71985W        W35918  30.079  10.200  12.413
71986W        W35919  36.441   2.446  14.309
71987W        W35920   1.332  43.777   3.227
71988W        W35921  32.042  28.981  10.011
71989W        W35922  13.715  30.582   4.621
71990W        W35923   8.881  21.107   1.316
71991W        W35924  15.750  22.543   3.755
71992W        W35925  34.378  12.641  13.436
71993W        W35926  23.217  18.213  14.456
71994W        W35927   3.802  22.546   1.438
71995W        W35928  43.509   1.737  12.513
71996W        W35929  43.495  18.090  13.978
71997W        W35930  23.549  13.683  12.891
71998W        W35931  16.091  19.536  13.455
71999W        W35932  24.062  15.767  13.419
72000W        W35933   7.273  41.371  10.909
72001W        W35934  43.299  13.147   0.938
72002W        W35935   2.874   8.751  13.364
72003W        W35936  21.579  24.635   4.729
72004W        W35937  16.682   4.292   1.401
72005W        W35938  43.809  28.582  14.856
72006W        W35939  17.754  23.197   0.742
72007W        W35940   3.843   3.795  11.104
72008W        W35941  26.025  38.857   0.883
72009W        W35942  27.183  16.740  10.639
72010W        W35943  13.700  24.585   0.898
72011W        W35944  34.379  15.723  12.519
72012W        W35945  20.108  42.020   3.282
72013W        W35946  13.745   5.205  13.793
72014W        W35947  14.338  42.969   0.477
72015W        W35948  39.951  33.092  14.459
72016W        W35949  38.846  33.563   1.767
72017W        W35950  24.657  11.171  11.486
72018W        W35951  23.040  17.682  12.890
72019W        W35952  22.074  21.263   4.694
72020W        W35953  14.765  23.058  12.923
72021W        W35954  11.251   0.889  13.985
72022W        W35955  41.349  26.119   3.724
72023W        W35956   4.349  21.082  13.330
72024W        W35957  32.912  15.604  12.996
72025W        W35958  41.313   9.658  13.878
72026W        W35959  38.516  18.670  10.419
72027W        W35960  25.975   5.334   3.639
72028W        W35961  19.215  33.550   4.348
72029W        W35962  44.307  31.562  11.541
72030W        W35963   0.907  40.385  12.925
72031W        W35964  32.566   6.711   1.339
72032W        W35965  11.867  36.043  11.597
72033W        W35966  19.748   1.807   3.187
72034W        W35967  38.861  39.813   1.746
72035W        W35968  43.427  43.807   0.932
72036W        W35969  10.171  30.618  14.289
72037W        W35970  35.100  29.128  13.392
72038W        W35971  20.704  21.698  13.822
72039W        W35972   6.821   3.817  13.798
72040W        W35973  15.676  43.996   1.353
72041W        W35974  11.774  13.105  11.894
72042W        W35975  43.825   7.751  11.415
72043W        W35976  42.815  43.514  12.471
72044W        W35977  30.079  38.376  14.843
72045W        W35978  35.428  39.555   3.748
72046W        W35979  11.657  11.720   4.254
72047W        W35980  12.650   1.840  14.367
72048W        W35981  29.580  18.671  13.062
72049W        W35982  33.112  40.889   4.684
72050W        W35983  22.101  35.966  12.918
72051W        W35984  21.084   2.866   0.289
72052W        W35985   8.179  17.625   2.316
72053W        W35986  11.810  43.390  11.397
72054W        W35987   1.847  42.815  11.602
72055W        W35988  14.160  27.153   1.440
72056W        W35989  30.151  18.107  10.921
72057W        W35990  23.667  15.158  12.560
72058W        W35991   6.688   6.249  12.923
72059W        W35992  17.745  26.132   5.236
72060W        W35993  20.566  14.649  12.491
72061W        W35994  44.267  18.624   2.817
72062W        W35995  37.538   2.363  14.786
72063W        W35996  44.779  34.442  12.354
72064W        W35997  43.798  39.034  14.354
72065W        W35998  38.019   2.335  11.424
72066W        W35999  16.700  22.092   3.219
72067W        W36000  19.134   1.367   0.381
72068W        W36001   9.834  42.520  14.299
72069W        W36002  32.524  31.975   1.415
72070W        W36003  14.768  36.503   3.836
72071W        W36004  10.211  21.246   2.672
72072W        W36005  18.081  28.452   5.247
72073W        W36006  21.615  15.631   0.847
72074W        W36007  13.685  41.869   3.150
72075W        W36008  37.894  11.252  10.945
72076W        W36009   7.804  19.073   1.743
72077W        W36010  35.405  27.093  14.398
72078W        W36011   7.346   0.769  14.978
72079W        W36012  25.145  17.085   2.352
72080W        W36013  22.138   9.690   1.856
72081W        W36014  37.345  33.081  11.906
72082W        W36015  32.533  14.777  14.371
72083W        W36016  22.109  16.694   1.921
72084W        W36017   8.380  21.169  11.570
72085W        W36018  28.005  23.154   2.744
72086W        W36019  35.498  11.684  14.831
72087W        W36020   9.395  37.086  11.486
72088W        W36021  34.535  19.117  12.008
72089W        W36022  33.971  29.628  11.395
72090W        W36023  29.036  21.655  14.010
72091W        W36024   9.714  14.144   4.234
72092W        W36025  15.276  35.509   1.775
72093W        W36026  17.735  27.975   1.804
72094W        W36027  30.618  37.413   1.361
72095W        W36028   8.267  44.394  11.107
72096W        W36029   2.773  33.508   4.222
72097W        W36030  18.247  27.092   0.955
72098W        W36031  10.697   4.260  12.432
72099W        W36032  42.025  35.980   0.901
72100W        W36033   8.233  26.577  13.019
72101W        W36034  12.225  18.167   4.320
72102W        W36035  34.467  37.573  14.812
72103W        W36036  36.025  41.446   2.813
72104W        W36037  19.760  26.994   0.874
72105W        W36038   4.918  29.578  10.513
72106W        W36039  42.794   1.745  13.447
72107W        W36040  38.422  32.900   4.813
72108W        W36041  34.870  27.027   2.884
72109W        W36042  18.768  26.174  11.017
72110W        W36043  43.475  29.943  12.900
72111W        W36044   6.228  22.713  14.933
72112W        W36045  23.549  32.122   2.687
72113W        W36046  32.121  15.095   1.428
72114W        W36047  44.469  32.483  14.347
72115W        W36048  19.127  22.084  13.429
72116W        W36049  41.965   2.268  14.425
72117W        W36050  38.904  43.854  13.792
72118W        W36051  14.677  42.999  12.431
72119W        W36052  34.409  27.618   1.817
72120W        W36053  18.654  25.155   0.264
72121W        W36054   2.323  16.247   4.305
72122W        W36055  32.986  14.271   3.313
72123W        W36056  11.287  21.625   0.843
72124W        W36057   7.846  31.622   4.349
72125W        W36058  35.861   4.209  14.856
72126W        W36059   2.417  30.600  14.014
72127W        W36060  29.976  27.119   0.762
72128W        W36061   1.276  35.370  12.006
72129W        W36062   4.938  16.602   5.163
72130W        W36063   0.971  42.436  10.552
72131W        W36064  16.259  17.210   1.828
72132W        W36065  20.149  22.571  14.279
72133W        W36066  42.982  40.478   0.305
72134W        W36067  22.065  16.240  14.885
72135W        W36068  21.117  19.678  13.942
72136W        W36069   0.387  20.223  14.456
72137W        W36070  24.181   0.817  11.551
72138W        W36071   7.708  18.736   1.915
72139W        W36072  33.583  44.308   1.786
72140W        W36073   9.820   9.686   3.787
72141W        W36074  30.104  26.548   1.337
72142W        W36075  23.557  43.474   5.216
72143W        W36076  20.085  37.957   5.738
72144W        W36077  30.462   1.959  12.563
72145W        W36078  11.799   3.401   4.771
72146W        W36079  10.353   0.452   0.845
72147W        W36080  29.530  41.323  13.522
72148W        W36081  26.681  42.373  12.857
72149W        W36082  44.869   3.396  14.325
72150W        W36083  27.089  14.775  11.057
72151W        W36084  39.813   2.271   1.245
72152W        W36085   2.807  24.190  14.511
72153W        W36086  36.534  18.582   2.836
72154W        W36087  34.456  17.618  14.385
72155W        W36088  41.987  15.741   4.664
72156W        W36089  34.960   0.762  11.507
72157W        W36090  16.603   5.887  11.474
72158W        W36091   8.221  23.165   4.351
72159W        W36092  41.796  39.999  11.859
72160W        W36093  27.651  29.527   3.664
72161W        W36094  14.767  20.262  12.995
72162W        W36095  29.043  43.470   9.531
72163W        W36096  28.484   3.942   2.247
72164W        W36097  21.018  33.893   2.827
72165W        W36098  30.942  16.127  13.927
72166W        W36099  25.501  29.427  13.921
72167W        W36100  35.007  32.036   1.919
72168W        W36101   8.176   0.829   1.265
72169W        W36102  37.916   4.352   0.953
72170W        W36103  13.603  19.154   4.743
72171W        W36104   8.311  27.622   0.335
72172W        W36105   3.458  44.423  11.857
72173W        W36106  37.536  42.475   0.309
72174W        W36107  30.954  40.871  13.435
72175W        W36108  40.337   8.241   3.273
72176W        W36109  33.414  15.780   1.260
72177W        W36110   6.825   2.839  14.961
72178W        W36111  36.855  10.810   0.746
72179W        W36112  33.074  30.554   0.784
72180W        W36113  37.400  30.908   1.921
72181W        W36114  35.494   7.859  13.864
72182W        W36115  12.631  13.729   3.764
72183W        W36116  36.868  26.985   0.295
72184W        W36117  21.605  31.622  11.509
72185W        W36118  15.631  26.964   2.749
72186W        W36119  40.832  16.726   1.235
72187W        W36120  17.271  38.528   1.433
72188W        W36121  38.027  27.596   1.833
72189W        W36122  28.678  38.454  12.523
72190W        W36123  17.794   7.263   3.217
72191W        W36124  28.084  44.933   2.799
72192W        W36125   2.407   2.958   1.763
72193W        W36126  16.207  21.610  14.800
72194W        W36127  33.052  31.150   4.175
72195W        W36128  34.086  31.456   3.242
72196W        W36129  36.387  36.373  10.526
72197W        W36130  27.103  10.642  13.809
72198W        W36131  37.906  13.158  13.463
72199W        W36132  21.068  11.333   9.946
72200W        W36133   1.438  19.106   1.215
72201W        W36134  25.566  36.391   3.227
72202W        W36135   3.833   5.203  14.850
72203W        W36136  32.478  15.643   3.775
72204W        W36137  29.994  13.128   1.904
72205W        W36138  38.839  14.263  11.862
72206W        W36139   8.706  28.952  11.469
72207W        W36140   2.736   3.738   4.819
72208W        W36141  44.798  37.833  13.058
72209W        W36142  18.677   1.731   9.969
72210W        W36143  24.610  33.423  11.858
72211W        W36144  35.099  26.595   1.887
72212W        W36145  39.932  10.253  13.528
72213W        W36146  19.209  40.338  12.439
72214W        W36147   3.365  23.675  11.994
72215W        W36148   2.354  37.389   0.482
72216W        W36149  35.974  11.747  11.954
72217W        W36150  13.763  13.687   3.275
72218W        W36151   8.284  27.104   2.266
72219W        W36152  39.549   5.858   4.614
72220W        W36153  33.602  29.013   1.401
72221W        W36154  14.707  33.505   2.721
72222W        W36155  44.465  30.085   3.644
72223W        W36156  11.710  14.610   3.831
72224W        W36157  33.605  29.586  13.456
72225W        W36158  40.942  20.724   0.314
72226W        W36159  40.399  44.395  11.032
72227W        W36160   1.324  42.888   2.728
72228W        W36161  42.521  33.053  11.376
72229W        W36162   4.747  18.653   0.338
72230W        W36163  29.491  22.238  14.931
72231W        W36164   6.835   2.867  11.917
72232W        W36165  24.647  38.829  11.598
72233W        W36166  43.964  33.988  11.897
72234W        W36167  14.305  16.579  11.372
72235W        W36168  17.127   4.368  11.012
72236W        W36169  14.109  24.499  14.026
72237W        W36170  18.765  16.145  14.348
72238W        W36171   7.316  13.293   4.760
72239W        W36172   1.414  27.671  10.514
72240W        W36173  40.944  12.162  11.506
72241W        W36174  36.035  20.649  12.347
72242W        W36175  24.058  34.905  14.510
72243W        W36176  41.968   3.923   0.951
72244W        W36177  27.941  37.079   4.607
72245W        W36178  31.569  16.660   0.918
72246W        W36179  18.739  30.506  13.473
72247W        W36180  26.154  33.104   3.170
72248W        W36181  39.813  11.289   1.729
72249W        W36182  10.256   8.808   3.800
72250W        W36183  37.377  14.685   1.248
72251W        W36184  31.007  10.189  11.122
72252W        W36185  17.289   7.788   3.710
72253W        W36186  28.520  17.778   3.851
72254W        W36187  32.578  20.650   4.712
72255W        W36188  18.554   0.288   2.278
72256W        W36189  29.169   0.315   4.764
72257W        W36190  29.027  37.915  13.000
72258W        W36191  22.667  14.127  10.070
72259W        W36192  13.312   9.714   0.909
72260W        W36193  24.087  34.463  13.875
72261W        W36194  36.842  16.191   1.792
72262W        W36195  41.885  16.116  10.994
72263W        W36196  38.449  23.134   3.660
72264W        W36197  40.837  11.286  13.416
72265W        W36198  23.611  19.210   1.711
72266W        W36199  29.924  40.450  12.969
72267W        W36200  28.502  16.641  10.905
72268W        W36201  40.416  26.167  12.834
72269W        W36202   9.288  23.538   1.362
72270W        W36203  12.654   3.851  14.914
72271W        W36204  29.632  11.708   0.813
72272W        W36205   6.287  31.077  12.870
72273W        W36206  37.456   5.403   1.384
72274W        W36207  25.684  25.601   2.670
72275W        W36208  19.679  38.387  14.953
72276W        W36209   8.316  14.757   1.231
72277W        W36210   5.259  22.572   4.253
72278W        W36211  40.527  39.488   1.418
72279W        W36212  40.455  35.466  14.786
72280W        W36213   1.743   7.846  10.441
72281W        W36214  17.642  43.379   3.269
72282W        W36215  28.649   9.262  11.548
72283W        W36216  41.391   3.873   0.753
72284W        W36217  18.204  22.044  13.385
72285W        W36218   8.826  34.024  13.993
72286W        W36219  38.923  38.037  12.347
72287W        W36220  31.040  24.220   2.711
72288W        W36221  26.621  33.486  12.974
72289W        W36222  44.814   3.905  10.959
72290W        W36223  13.306  18.618  13.062
72291W        W36224  19.534  13.745   2.313
72292W        W36225  40.465  16.630  11.433
72293W        W36226   4.707  36.915   1.803
72294W        W36227  41.331   1.972   0.780
72295W        W36228   6.399  18.671  14.462
72296W        W36229  38.450  39.062   3.671
72297W        W36230   9.262  40.925  11.055
72298W        W36231  22.606  22.039  13.792
72299W        W36232   1.351  20.730  14.422
72300W        W36233   1.369   8.403   4.319
72301W        W36234  32.527   4.341   1.321
72302W        W36235  31.033  33.576   0.333
72303W        W36236  32.473  12.244   1.846
72304W        W36237  32.929  33.030   2.185
72305W        W36238  32.067  12.245   1.309
72306W        W36239  35.891   4.739  11.106
72307W        W36240  33.541  44.475  13.906
72308W        W36241  38.056  32.139   1.713
72309W        W36242  15.147   5.332  11.500
72310W        W36243  31.600  28.020  14.455
72311W        W36244  30.526  28.145  11.078
72312W        W36245  18.772  14.265   4.772
72313W        W36246  32.139  11.845   2.681
72314W        W36247   3.331  17.072  14.796
72315W        W36248  25.128  36.908   0.800
72316W        W36249   8.723   9.225   2.203
72317W        W36250  36.046  18.672  13.826
72318W        W36251  29.969  32.431   4.114
72319W        W36252   1.944  29.505   0.271
72320W        W36253  37.949  40.372  10.082
72321W        W36254  39.362   8.881  12.579
72322W        W36255  44.967  27.577  10.906
72323W        W36256  36.561  13.611   4.134
72324W        W36257  44.969  30.912   3.181
72325W        W36258  37.942  41.801   0.443
72326W        W36259  22.591  16.652   1.289
72327W        W36260   2.470  13.290  12.984
72328W        W36261  41.442  38.524   4.352
72329W        W36262   7.299  13.678  13.465
72330W        W36263  20.556  20.537  11.517
72331W        W36264  27.468   9.395  12.426
72332W        W36265   7.269   1.437   0.848
72333W        W36266  44.887  19.578   1.423
72334W        W36267  23.647  11.368  14.425
72335W        W36268  20.152  40.331  13.791
72336W        W36269   9.290  17.247   0.786
72337W        W36270  17.085   9.166  11.976
72338W        W36271  18.256  26.595   0.293
72339W        W36272  16.569  18.102  11.532
72340W        W36273   1.817  38.535  12.910
72341W        W36274   4.800  14.114   0.825
72342W        W36275  28.634  44.483   2.888
72343W        W36276  30.491   4.324   4.288
72344W        W36277  41.294   4.939  14.319
72345W        W36278  21.616  20.053   0.827
72346W        W36279  44.298  21.141   0.306
72347W        W36280   2.822  26.973   0.797
72348W        W36281   4.774  41.308   4.760
72349W        W36282  25.544  31.926  14.434
72350W        W36283   3.393  33.025  14.318
72351W        W36284  11.159  26.057   4.348
72352W        W36285  15.813   6.209   3.818
72353W        W36286  38.976  34.602  13.419
72354W        W36287  42.476  11.308   1.869
72355W        W36288  12.201  20.743  10.601
72356W        W36289  26.188  25.605   1.445
72357W        W36290  13.781   7.306   3.307
72358W        W36291  33.895  26.027  14.276
72359W        W36292  44.779  25.638   0.908
72360W        W36293  12.197   8.324  11.480
72361W        W36294   8.674  12.842  13.871
72362W        W36295  12.173  26.051   0.371
72363W        W36296  30.642   8.704  13.382
72364W        W36297  17.726  31.056   4.279
72365W        W36298  34.419  15.267   2.330
72366W        W36299  26.136  31.562   3.348
72367W        W36300  24.623  34.959  14.962
72368W        W36301   9.225   4.294   2.868
72369W        W36302  29.554   4.874  14.029
72370W        W36303  23.071  11.162  13.462
72371W        W36304  22.701  19.056   2.221
72372W        W36305  33.960  15.598   5.124
72373W        W36306  35.011  43.922  13.933
72374W        W36307   0.939  29.956   2.842
72375W        W36308   4.265  36.592   2.248
72376W        W36309  36.059  15.230   3.787
72377W        W36310  13.646  26.509   0.306
72378W        W36311   3.890  28.010   1.222
72379W        W36312  15.727  16.258   1.844
72380W        W36313  37.541  18.244   1.816
72381W        W36314   4.939   6.830   0.427
72382W        W36315  32.448   1.483  14.444
72383W        W36316   5.381  41.343  10.906
72384W        W36317  19.115  43.973   2.843
72385W        W36318  25.205  37.881   0.271
72386W        W36319   8.771  17.598   4.237
72387W        W36320  28.149  33.577   4.823
72388W        W36321  32.900  41.478   3.381
72389W        W36322  18.199  42.316   1.320
72390W        W36323  20.697  30.939   1.370
72391W        W36324   2.233  39.399   2.801
72392W        W36325   4.249  39.926  13.487
72393W        W36326   6.415   8.869   2.766
72394W        W36327   8.353  32.603   2.293
72395W        W36328  30.090   9.271  12.473
72396W        W36329  38.387   1.814   4.311
72397W        W36330  30.581  24.531   0.318
72398W        W36331   5.880  37.429   3.177
72399W        W36332  20.655  38.335   3.321
72400W        W36333  29.045  34.505  14.446
72401W        W36334  38.358  40.350  14.833
72402W        W36335  44.963  32.905   3.684
72403W        W36336  24.051  23.531   3.637
72404W        W36337   8.738  38.971   0.383
72405W        W36338  38.977  22.115   2.882
72406W        W36339  17.591  36.440   5.263
72407W        W36340  18.255  20.656   0.917
72408W        W36341  11.198  41.968  13.518
72409W        W36342  26.081   1.883   3.367
72410W        W36343  13.740  21.060   3.330
72411W        W36344  44.448  26.081  11.502
72412W        W36345  31.015  25.524   3.768
72413W        W36346  37.407  43.859  13.867
72414W        W36347  40.981  18.582   2.262
72415W        W36348   8.673  35.103  12.023
72416W        W36349  12.295  26.053  14.999
72417W        W36350   5.752  40.029   3.819
72418W        W36351   6.803  36.982  14.368
72419W        W36352  18.147  25.144   4.327
72420W        W36353  23.147  17.258  11.496
72421W        W36354  34.115  40.821   2.879
72422W        W36355  24.607  36.045  12.362
72423W        W36356  16.138  16.253  13.850
72424W        W36357  21.705  26.130   5.313
72425W        W36358  37.016  34.994   0.477
72426W        W36359  16.581  23.644  11.951
72427W        W36360  40.983   0.286   0.405
72428W        W36361  44.890   4.330  13.928
72429W        W36362  37.055   3.390  11.399
72430W        W36363  20.534  40.425  13.540
72431W        W36364   5.253  37.915  14.287
72432W        W36365  31.932  16.663  14.850
72433W        W36366   2.339   9.886   2.192
72434W        W36367  20.653  43.871  12.874
72435W        W36368   6.907  26.039   4.144
72436W        W36369  25.685  36.967  11.043
72437W        W36370   7.869  12.655  11.382
72438W        W36371  40.490  27.999   0.932
72439W        W36372  43.339  41.377  14.366
72440W        W36373  22.620  16.180   1.384
72441W        W36374  24.118  24.017  10.611
72442W        W36375  38.869  33.995   3.652
72443W        W36376  44.861  18.600  10.625
72444W        W36377   2.280  27.056   3.787
72445W        W36378   8.729  18.089  10.630
72446W        W36379  43.368  22.097  14.808
72447W        W36380  38.482  40.045   3.690
72448W        W36381   5.415  28.501   0.452
72449W        W36382   9.321  21.743   0.865
72450W        W36383  12.857  36.506  13.317
72451W        W36384  15.118  43.459  12.871
72452W        W36385   5.927  40.962   1.376
72453W        W36386  15.819   5.854   1.434
72454W        W36387   3.365  36.493  11.974
72455W        W36388   8.655  28.565   0.373
72456W        W36389  44.792   7.185   3.253
72457W        W36390  29.620  37.475   3.380
72458W        W36391   6.303  26.959   0.756
72459W        W36392  38.396  31.899   2.240
72460W        W36393  29.069  28.001   2.413
72461W        W36394  44.813  37.420   4.241
72462W        W36395  10.722  40.874   0.838
72463W        W36396   8.202   7.188  14.429
72464W        W36397  44.263  41.865  14.378
72465W        W36398  27.139  17.566   1.236
72466W        W36399  19.142  22.672  10.964
72467W        W36400  39.814  19.653   0.467
72468W        W36401   5.385   0.941   4.264
72469W        W36402  27.685  34.052  11.884
72470W        W36403  23.102   6.297   2.193
72471W        W36404  40.814  28.495   4.810
72472W        W36405  40.920   6.704   0.876
72473W        W36406  26.068  32.475  14.945
72474W        W36407  14.710  10.275   4.679
72475W        W36408   4.740  40.818   3.869
72476W        W36409  36.936  25.712   4.739
72477W        W36410  38.052  12.856  14.405
72478W        W36411  35.886  16.769  14.934
72479W        W36412   6.212  39.352  14.942
72480W        W36413   6.250  15.597  10.950
72481W        W36414  22.161  29.120   3.203
72482W        W36415  11.367  38.421   3.382
72483W        W36416  42.333   3.293   3.335
72484W        W36417  20.732  38.892   0.326
72485W        W36418   8.725  43.873  10.513
72486W        W36419  43.311   0.494   2.676
72487W        W36420  11.167  16.247  14.361
72488W        W36421  10.264   1.463   3.824
72489W        W36422  42.510  41.497   4.805
72490W        W36423   9.875  44.760  14.861
72491W        W36424  10.804   7.845  12.087
72492W        W36425   2.245  23.138  10.424
72493W        W36426   8.297  42.400  12.345
72494W        W36427  32.103   9.372   4.261
72495W        W36428  33.995   0.458  10.608
72496W        W36429  24.636  44.782   9.490
72497W        W36430  15.769  13.196   3.659
72498W        W36431  23.716  17.092  13.342
72499W        W36432  35.392  16.644  12.988
72500W        W36433  29.441  12.727   3.215
72501W        W36434  16.793  19.149   0.288
72502W        W36435  14.300  44.770   4.665
72503W        W36436  37.516  26.507   0.405
72504W        W36437  29.524   2.276  10.961
72505W        W36438  43.872  34.551   1.703
72506W        W36439  22.610   4.430  14.781
72507W        W36440  27.509  11.217   1.850
72508W        W36441  17.717  40.036   2.315
72509W        W36442  29.950   1.798  13.547
72510W        W36443  12.706   9.643  13.515
72511W        W36444  24.081  25.484   2.873
72512W        W36445  21.574  39.033  14.829
72513W        W36446  29.072  35.373   0.319
72514W        W36447   0.349   4.865  10.919
72515W        W36448  37.905  35.570  13.395
72516W        W36449  26.690  15.160  14.289
72517W        W36450   1.430  36.033  10.927
72518W        W36451  13.151  22.505   2.401
72519W        W36452  20.236  43.771   4.757
72520W        W36453  11.347  38.349   2.303
72521W        W36454  28.549   5.406   3.324
72522W        W36455  14.827  34.505   3.663
72523W        W36456  12.116  32.075   2.250
72524W        W36457   0.928  14.212   4.123
72525W        W36458  19.680  40.393  14.286
72526W        W36459  12.683  22.017   0.257
72527W        W36460   6.283  28.975  10.147
72528W        W36461  31.608  26.603  11.602
72529W        W36462   8.656  20.090   1.825
72530W        W36463  13.288  17.067   1.890
72531W        W36464   8.401  44.470   3.157
72532W        W36465  39.045  32.009   0.939
72533W        W36466   0.766  25.016  14.448
72534W        W36467  11.693  10.776   2.791
72535W        W36468  25.969  14.709  13.435
72536W        W36469  42.442   3.892   0.275
72537W        W36470   1.733  32.417  14.293
72538W        W36471   1.308   7.872  12.480
72539W        W36472   2.347  11.768  12.081
72540W        W36473  11.304   3.830  14.824
72541W        W36474  12.349   4.700  11.462
72542W        W36475  18.110  25.688  14.471
72543W        W36476   8.820  27.618  11.984
72544W        W36477  11.197  41.409  13.882
72545W        W36478  10.334   7.413  13.912
72546W        W36479   2.757  10.752  10.942
72547W        W36480  17.252  42.464  12.417
72548W        W36481  23.007   5.772   4.312
72549W        W36482  11.334   1.771  12.530
72550W        W36483  14.809  31.486   4.746
72551W        W36484  41.332   5.336  11.890
72552W        W36485  44.467   0.458  11.123
72553W        W36486  29.483  44.769  13.802
72554W        W36487  30.915  38.365  12.994
72555W        W36488  23.726  41.444   1.792
72556W        W36489  11.233   9.831  13.026
72557W        W36490   2.840  39.389   0.380
72558W        W36491  27.558  40.956   4.227
72559W        W36492  43.874  34.955  11.884
72560W        W36493   6.198   2.248   0.955
72561W        W36494  29.473  44.369   3.679
72562W        W36495  12.707  12.679  13.492
72563W        W36496   9.177  13.296  10.613
72564W        W36497  42.331  43.293  12.419
72565W        W36498  38.400  29.012  14.356
72566W        W36499   3.395  18.167  11.543
72567W        W36500  18.647  14.279   3.846
72568W        W36501  36.039  38.030   4.673
72569W        W36502  14.823  31.596  14.926
72570W        W36503  32.047  34.607   1.827
72571W        W36504   3.405  12.808  10.974
72572W        W36505  30.658  43.317  13.496
72573W        W36506  18.565  38.052  14.497
72574W        W36507  20.079  39.826  11.009
72575W        W36508  30.990  37.902   2.799
72576W        W36509  27.624   8.234   4.142
72577W        W36510  22.721  44.285  10.491
72578W        W36511  23.071  39.889   2.328
72579W        W36512  21.598  35.470   1.280
72580W        W36513  43.499   1.282  10.967
72581W        W36514  40.880   3.801   4.223
72582W        W36515  24.549  18.550  13.451
72583W        W36516   0.315  38.959  12.964
72584W        W36517  10.732  35.909   3.730
72585W        W36518  22.018   2.854  13.831
72586W        W36519  43.776  40.013  14.288
72587W        W36520  38.536   4.799   4.829
72588W        W36521  43.009   4.415   2.862
72589W        W36522  23.501   4.882  12.569
72590W        W36523  15.735  32.886   4.166
72591W        W36524  35.103  18.663  14.461
72592W        W36525  41.986  19.194  13.062
72593W        W36526  18.633   2.863  10.486
72594W        W36527   2.878  38.367   1.385
72595W        W36528   2.900  32.546  12.349
72596W        W36529  41.804  16.136  13.029
72597W        W36530  35.525  31.041  14.421
72598W        W36531  14.628   6.822  13.524
72599W        W36532  41.444  18.761  13.011
72600W        W36533  32.534  40.994   3.357
72601W        W36534  13.314  30.451  14.875
72602W        W36535  38.537  25.615  14.367
72603W        W36536  40.909   5.362   0.949
72604W        W36537   8.844  34.566   3.295
72605W        W36538  24.650  36.952   1.699
72606W        W36539  30.428   7.173   1.367
72607W        W36540  12.241  39.386  14.887
72608W        W36541  27.680   4.796   4.816
72609W        W36542  22.117  31.640   4.333
72610W        W36543  34.592  16.648  14.488
72611W        W36544  21.168   1.458   0.242
72612W        W36545   6.283   6.840  13.970
72613W        W36546  42.315  34.871   1.240
72614W        W36547  13.351  41.818  14.905
72615W        W36548  34.100  36.072   0.339
72616W        W36549   6.848  27.186  12.866
72617W        W36550  44.415  13.337   4.241
72618W        W36551  43.814  34.881  10.571
72619W        W36552   7.316  19.689  13.466
72620W        W36553  24.605  37.867   2.744
72621W        W36554  34.974  34.919  12.565
72622W        W36555  26.684  33.446  11.048
72623W        W36556  41.918  23.195  14.339
72624W        W36557  36.873  13.247  10.916
72625W        W36558  17.757  44.302  11.098
72626W        W36559  39.862  33.023  10.951
72627W        W36560  14.247  36.991  12.883
72628W        W36561  35.968   0.352   4.738
72629W        W36562  16.740  34.997   0.936
72630W        W36563  34.045  17.699  14.466
72631W        W36564  27.104  14.304   2.692
72632W        W36565  35.106  33.034   4.241
72633W        W36566  29.161  10.292  10.968
72634W        W36567  11.798  39.066   1.407
72635W        W36568  33.916  43.896  11.065
72636W        W36569  33.017   4.211  13.994
72637W        W36570  40.314  29.622   1.909
72638W        W36571  34.906  27.489   0.868
72639W        W36572  18.119  11.279  10.915
72640W        W36573  30.612  30.927  10.566
72641W        W36574   3.906  44.455   4.317
72642W        W36575  11.715  30.618  12.951
72643W        W36576   0.914  33.493  10.452
72644W        W36577   8.734   8.298   2.228
72645W        W36578  16.165   6.823  14.880
72646W        W36579   9.807  39.809  12.472
72647W        W36580  22.602  33.541   1.889
72648W        W36581  36.512   9.177  13.957
72649W        W36582  23.633  43.769  11.086
72650W        W36583  39.484   5.764   2.816
72651W        W36584  13.716  43.995   3.742
72652W        W36585  40.487  13.802   4.155
72653W        W36586  20.268  31.898   0.872
72654W        W36587  28.095  25.006  11.437
72655W        W36588  41.891  42.031  14.476
72656W        W36589   0.406  25.080  13.880
72657W        W36590  10.372  22.733  10.424
72658W        W36591  17.651  32.996   1.698
72659W        W36592   7.786   2.853   3.252
72660W        W36593   9.363  29.467  12.444
72661W        W36594  41.016  26.997  14.353
72662W        W36595  34.051  15.197  11.032
72663W        W36596  43.440  10.723   3.832
72664W        W36597  38.989  40.549  14.012
72665W        W36598   3.218   4.219   0.730
72666W        W36599  43.889  39.019  13.432
72667W        W36600  12.332  16.153  14.815
72668W        W36601  20.553  18.257   4.168
72669W        W36602  33.380  14.103  10.151
72670W        W36603   7.386  13.204  12.562
72671W        W36604  36.382  24.143  10.607
72672W        W36605  37.479  29.607   1.211
72673W        W36606  20.529  28.455   5.288
72674W        W36607  33.582  25.052  11.560
72675W        W36608  22.722  30.420   2.852
72676W        W36609  36.393  39.890   3.360
72677W        W36610  32.927  27.990   1.719
72678W        W36611  44.964   1.966  13.419
72679W        W36612  25.007  27.099  11.501
72680W        W36613  10.796  37.385  12.569
72681W        W36614   1.966  19.699   3.195
72682W        W36615  34.375  38.523  14.781
72683W        W36616   4.715  24.509   1.926
72684W        W36617  37.438  27.567  13.527
72685W        W36618   2.255  17.616  13.526
72686W        W36619  38.824  42.825   0.776
72687W        W36620   3.740  21.651  14.820
72688W        W36621  38.403  23.163  12.909
72689W        W36622  25.554  36.515   2.211
72690W        W36623  35.394  16.783  14.978
72691W        W36624  30.927  11.229  10.897
72692W        W36625  27.183  10.731  13.012
72693W        W36626   0.879   7.403   1.905
72694W        W36627  33.592  26.573  10.938
72695W        W36628  26.528  19.197  14.920
72696W        W36629  11.626  40.868   4.622
72697W        W36630   1.463  30.474  12.394
72698W        W36631   7.390  26.513  13.914
72699W        W36632  44.767  33.551   3.170
72700W        W36633   2.923  29.438  12.432
72701W        W36634  16.187  32.139   3.755
72702W        W36635  13.822  30.591   1.929
72703W        W36636  28.604   8.778  14.005
72704W        W36637  35.924  33.985  10.919
72705W        W36638  36.072  41.816  14.329
72706W        W36639   1.294  25.613   0.842
72707W        W36640  29.931  33.489   3.194
72708W        W36641  40.854  27.161   1.753
72709W        W36642  12.340   9.808   3.366
72710W        W36643  37.069  29.934   4.327
72711W        W36644  19.685  28.636  14.915
72712W        W36645  13.337  37.955  13.348
72713W        W36646   5.817  20.658   3.727
72714W        W36647   0.321  40.843   3.309
72715W        W36648   3.266  12.705   9.983
72716W        W36649  32.545   0.766   2.818
72717W        W36650  33.075  32.917  13.432
72718W        W36651  11.259   5.418  14.823
72719W        W36652   6.338   2.289  14.456
72720W        W36653  28.661   7.376  12.004
72721W        W36654  29.101   0.917   1.865
72722W        W36655   5.246   7.196   3.247
72723W        W36656  41.294  10.300   2.238
72724W        W36657  12.306   2.940   4.675
72725W        W36658  44.436  43.015   4.675
72726W        W36659   9.321  31.063   2.325
72727W        W36660  18.244  11.665  12.910
72728W        W36661   2.365  27.584   1.907
72729W        W36662  15.753  18.115   2.242
72730W        W36663   0.350  33.910   3.649
72731W        W36664  26.186  15.647  14.361
72732W        W36665  21.076  21.180  13.476
72733W        W36666  12.158  10.707  11.856
72734W        W36667  40.386  28.995  13.317
72735W        W36668  27.969  19.121  11.498
72736W        W36669  34.495  35.045   4.152
72737W        W36670  43.777  29.092  10.476
72738W        W36671  17.688  40.546  12.930
72739W        W36672   8.873  19.720   0.927
72740W        W36673  28.654  30.637   0.249
72741W        W36674  28.495  12.699  14.913
72742W        W36675   9.191  12.192   3.728
72743W        W36676   0.331  10.274   2.306
72744W        W36677  10.226   7.814  12.355
72745W        W36678  22.635   5.742  11.976
72746W        W36679  35.530  35.546   4.235
72747W        W36680   6.921  28.118  12.570
72748W        W36681  14.690  25.612   2.784
72749W        W36682   2.916  23.112   4.769
72750W        W36683   7.725  23.046  13.901
72751W        W36684   1.279   2.886  11.444
72752W        W36685   5.902  25.138  14.852
72753W        W36686  44.432   4.304   0.843
72754W        W36687  27.523  35.878  12.902
72755W        W36688  20.749  44.950  14.859
72756W        W36689   7.850  42.847  11.046
72757W        W36690  20.165  20.546   1.395
72758W        W36691   5.875   1.948   4.654
72759W        W36692  22.645  15.660  10.057
72760W        W36693  32.541  27.640   0.335
72761W        W36694  34.506  15.774  12.874
72762W        W36695  28.143  30.655   1.376
72763W        W36696  11.282  24.099   4.305
72764W        W36697  12.201  44.999  14.772
72765W        W36698  21.598  41.993   4.296
72766W        W36699   2.790  12.249   4.175
72767W        W36700  39.529  44.457  13.411
72768W        W36701  13.205  36.020  11.400
72769W        W36702  37.832   2.232   0.451
72770W        W36703  18.608  41.883   1.844
72771W        W36704  35.445  21.553   1.694
72772W        W36705  32.112   5.881   0.288
72773W        W36706  15.689  14.102   3.351
72774W        W36707   0.357  18.095   0.770
72775W        W36708   3.720  12.691   0.803
72776W        W36709  24.146   0.251  11.055
72777W        W36710   7.713   7.354   1.237
72778W        W36711  34.465  34.959   3.189
72779W        W36712  25.558  44.949  14.990
72780W        W36713  32.430  43.978   2.316
72781W        W36714  20.139  39.986   3.201
72782W        W36715  29.139  29.010   3.688
72783W        W36716  27.045  16.670  13.902
72784W        W36717  18.744  19.553   2.337
72785W        W36718  38.524  13.827   2.254
72786W        W36719   5.827  41.307  10.469
72787W        W36720  40.351  38.856   4.752
72788W        W36721  41.938  18.120   3.318
72789W        W36722  27.587  29.613  10.609
72790W        W36723  13.685  22.727   0.883
72791W        W36724  20.077   8.251   4.134
72792W        W36725  43.011  40.389  10.998
72793W        W36726  30.568  27.553  10.895
72794W        W36727  17.135  38.932  12.905
72795W        W36728   9.692  30.030   2.312
72796W        W36729  33.104   7.183   0.410
72797W        W36730  40.497  24.150  11.469
72798W        W36731  38.997  23.170   1.863
72799W        W36732  31.408  13.663  13.926
72800W        W36733  16.629  43.957  13.349
72801W        W36734  37.406  20.720  14.434
72802W        W36735   3.380   7.326  13.967
72803W        W36736  32.042  13.773   0.732
72804W        W36737   2.313   0.308   4.794
72805W        W36738  15.660   9.838  10.097
72806W        W36739  10.812  34.988   4.811
72807W        W36740   1.740  38.835  11.499
72808W        W36741  37.896  41.458  14.416
72809W        W36742  26.963  26.552  14.321
72810W        W36743   5.759  40.008  14.489
72811W        W36744  15.130  10.338   2.817
72812W        W36745  41.950   0.493  13.376
72813W        W36746  44.925  31.090   0.745
72814W        W36747  39.526  30.475   0.389
72815W        W36748   9.324   2.770  11.062
72816W        W36749  41.467  20.635  10.455
72817W        W36750  23.658  16.641  11.967
72818W        W36751  24.497  27.031   1.916
72819W        W36752  40.407  30.157  12.401
72820W        W36753  30.459  22.697  14.496
72821W        W36754  39.031  15.106  12.492
72822W        W36755  30.617  42.409   3.692
72823W        W36756  40.381   4.851   2.374
72824W        W36757  38.924  19.547  13.918
72825W        W36758  13.207  42.513  14.361
72826W        W36759  35.052  38.903  13.976
72827W        W36760  41.869  34.533   1.417
72828W        W36761  31.561  28.125  11.070
72829W        W36762  28.548  44.293   0.246
72830W        W36763  43.893  33.880   1.841
72831W        W36764  42.494  40.411  14.792
72832W        W36765   1.895  15.168  10.110
72833W        W36766  44.784  34.029   0.425
72834W        W36767  24.999  35.024   0.474
72835W        W36768  17.222  29.084   5.101
72836W        W36769  38.955  36.383  14.347
72837W        W36770  11.251  35.954  13.873
72838W        W36771  35.432  37.018  11.960
72839W        W36772  40.415  44.262  13.311
72840W        W36773  36.510  24.010  12.548
72841W        W36774  34.031  14.804  11.516
72842W        W36775  18.112  44.946   4.171
72843W        W36776  44.290   7.897  13.967
72844W        W36777  29.662  20.745  13.908
72845W        W36778  21.188  23.238  11.599
72846W        W36779  26.013  40.401   0.348
72847W        W36780   2.389   7.188   1.918
72848W        W36781  38.532   1.377  14.501
72849W        W36782  26.111  18.281   4.732
72850W        W36783  42.922   3.365   1.256
72851W        W36784  12.727  42.902  11.468
72852W        W36785   7.722  36.995  13.868
72853W        W36786  16.316  30.066   0.377
72854W        W36787  13.801   5.875   5.763
72855W        W36788  28.111  21.044  14.392
72856W        W36789  44.772   8.283   2.328
72857W        W36790  20.536  31.153   3.787
72858W        W36791  43.430  20.250  12.021
72859W        W36792  22.092  37.549  11.579
72860W        W36793   8.851   4.354  10.069
72861W        W36794  39.412  44.482   4.822
72862W        W36795   8.751  30.965   3.251
72863W        W36796  43.358  22.590  13.525
72864W        W36797   6.328  36.452  11.509
72865W        W36798  36.443  26.669  11.440
72866W        W36799  27.999  43.376   3.160
72867W        W36800  20.213  19.678  13.506
72868W        W36801  40.999  25.704  14.504
72869W        W36802  33.128  39.999  14.952
72870W        W36803   2.340  22.193  13.001
72871W        W36804  31.085  17.230  14.976
72872W        W36805  25.007  16.176  11.381
72873W        W36806  18.116   6.851   1.355
72874W        W36807  29.590  28.505  13.027
72875W        W36808  22.562  17.087  12.927
72876W        W36809   9.726  13.129  12.026
72877W        W36810  23.568  25.129   4.326
72878W        W36811  28.966  25.529   1.791
72879W        W36812  38.047  33.582   0.959
72880W        W36813  23.172  21.214   3.782
72881W        W36814   7.300   6.253   0.949
72882W        W36815  34.015  31.600   3.679
72883W        W36816  29.959   6.386   1.280
72884W        W36817   5.296  35.911  11.008
72885W        W36818  26.583   8.827  13.403
72886W        W36819  25.632   7.307  14.813
72887W        W36820  14.800   8.684   2.374
72888W        W36821  37.086  28.504  14.312
72889W        W36822  41.452  21.567  13.008
72890W        W36823  10.868   3.868   0.844
72891W        W36824  36.981  28.557  14.862
72892W        W36825  18.763  41.845   2.874
72893W        W36826  31.589  32.533   4.742
72894W        W36827  11.209  35.395  14.290
72895W        W36828  10.146  11.366  13.505
72896W        W36829  11.264  17.266  13.347
72897W        W36830  28.976  17.238  13.889
72898W        W36831  39.366  12.274  12.531
72899W        W36832  30.041  28.666  14.979
72900W        W36833  14.747  26.548  14.947
72901W        W36834  17.091   1.402  12.408
72902W        W36835   2.435  40.466   2.881
72903W        W36836  29.653  36.497   2.767
72904W        W36837   5.243  20.263  10.463
72905W        W36838   0.823  32.948  11.985
72906W        W36839  39.060  41.899  12.568
72907W        W36840  13.124  25.503   2.237
72908W        W36841   9.310  43.018  11.911
72909W        W36842   4.881  24.005   9.968
72910W        W36843  18.265  27.553   1.757
72911W        W36844  41.837   2.257  12.925
72912W        W36845  34.531   2.771   0.315
72913W        W36846  30.558   5.411  14.976
72914W        W36847   3.323  42.809   1.779
72915W        W36848   9.697  42.816  10.981
72916W        W36849   3.353  21.719   4.789
72917W        W36850  41.021  43.352  11.033
72918W        W36851  26.027   6.755   3.228
72919W        W36852  40.321   6.406   1.723
72920W        W36853  21.564  38.875   2.254
72921W        W36854  20.749  15.269   0.354
72922W        W36855  33.940  25.070   0.853
72923W        W36856  12.236  37.980  14.509
72924W        W36857  13.840  11.156  14.832
72925W        W36858   7.850   5.931   0.375
72926W        W36859  12.628  41.803  14.353
72927W        W36860  19.144   6.299   0.887
72928W        W36861  29.431  35.101  10.479
72929W        W36862  23.490  27.046  13.933
72930W        W36863  42.333  44.938   3.712
72931W        W36864  40.383  22.166  14.948
72932W        W36865  36.354   9.871  13.012
72933W        W36866  26.603  42.338   3.650
72934W        W36867  15.730  29.930   1.788
72935W        W36868  32.140  44.949   3.855
72936W        W36869  14.625  24.039  12.829
72937W        W36870  33.900  16.121   2.736
72938W        W36871   6.854  18.245  14.443
72939W        W36872  10.814  17.777  13.855
72940W        W36873  16.765  27.162  12.490
72941W        W36874  19.549   2.780   4.350
72942W        W36875   8.777  15.780  13.412
72943W        W36876  39.539   2.808   4.609
72944W        W36877   5.354  26.523   1.246
72945W        W36878  16.624  40.849   2.883
72946W        W36879  42.808  39.529   5.171
72947W        W36880  39.530  38.357  11.912
72948W        W36881  27.094   1.251   1.877
72949W        W36882  39.018  21.691  14.819
72950W        W36883  13.231  25.568  10.575
72951W        W36884  42.873  17.702  12.838
72952W        W36885  22.220  28.956  13.044
72953W        W36886  33.904  27.952  12.560
72954W        W36887  42.819  39.906   4.776
72955W        W36888  11.700  22.672   4.350
72956W        W36889  41.944  23.111  11.939
72957W        W36890   5.198  26.489  14.905
72958W        W36891  23.635  15.818  11.898
72959W        W36892  13.739  18.548   1.800
72960W        W36893  39.865  33.473  13.956
72961W        W36894  34.459   8.262   0.867
72962W        W36895  22.643  12.265   3.305
72963W        W36896   5.254  40.528  13.484
72964W        W36897  41.037  23.994   4.822
72965W        W36898  36.039  35.873  11.901
72966W        W36899  35.441   1.314   1.772
72967W        W36900  40.809  26.487  12.546
72968W        W36901  40.542  32.464  14.375
72969W        W36902  22.625   3.382   9.930
72970W        W36903   8.822   2.804  11.413
72971W        W36904  32.911  43.979   1.311
72972W        W36905  22.510  23.992  11.104
72973W        W36906  20.063  36.960   4.598
72974W        W36907  36.446  43.275  14.405
72975W        W36908  25.610  39.502  10.602
72976W        W36909   8.744  18.581  14.364
72977W        W36910  16.163   5.282  14.515
72978W        W36911  29.037   9.660  13.439
72979W        W36912  32.086  40.987  13.312
72980W        W36913   0.986  31.414   2.827
72981W        W36914  21.599  25.172   4.135
72982W        W36915  26.685   3.241   1.246
72983W        W36916  11.700   0.326   0.894
72984W        W36917  43.391  12.849   4.269
72985W        W36918  15.713  15.820   4.351
72986W        W36919  42.810  34.584   3.679
72987W        W36920  31.546  24.697   1.259
72988W        W36921  17.756   2.908   1.236
72989W        W36922  33.516   1.961   4.304
72990W        W36923  38.048   6.873  14.793
72991W        W36924  23.611  26.956   3.324
72992W        W36925   0.394   7.172  10.928
72993W        W36926  15.819  13.801  12.923
72994W        W36927  38.551  18.617  11.433
72995W        W36928  18.605  20.620  13.534
72996W        W36929  23.115  44.834  11.994
72997W        W36930  24.091  33.970   1.863
72998W        W36931  19.110   2.916   2.182
72999W        W36932  10.150  27.608   5.271
73000W        W36933  22.107  10.654  11.114
73001W        W36934   9.212  35.041   2.679
73002W        W36935  11.661  14.261   0.803
73003W        W36936  43.381  30.038  13.819
73004W        W36937   4.423  36.893   1.282
73005W        W36938  30.962   6.803  11.590
73006W        W36939  38.838  28.960   0.466
73007W        W36940  22.663  18.583  11.055
73008W        W36941  30.931   4.373  11.938
73009W        W36942  33.615  22.508  13.502
73010W        W36943   6.706  22.633   0.388
73011W        W36944  11.146  30.541  14.848
73012W        W36945  21.533   2.243  13.057
73013W        W36946  33.985  32.097  12.460
73014W        W36947  31.909  14.235   2.746
73015W        W36948  36.582   8.825   2.300
73016W        W36949  28.578  43.285   3.182
73017W        W36950  11.137  34.999  12.376
73018W        W36951  39.546   2.342  12.982
73019W        W36952  11.136  25.204  14.365
73020W        W36953  44.472   5.849   0.358
73021W        W36954  10.323  39.949  11.098
73022W        W36955  37.499  22.050  14.927
73023W        W36956  13.305  24.582   3.221
73024W        W36957   7.816  29.615  14.825
73025W        W36958  37.339  27.692   4.257
73026W        W36959  32.945  23.671  11.543
73027W        W36960  27.159  25.484   4.740
73028W        W36961  23.549  16.121   4.784
73029W        W36962  36.050   1.360   0.772
73030W        W36963   3.855  40.523   0.333
73031W        W36964  44.801  21.669  11.024
73032W        W36965   9.166  39.524   3.350
73033W        W36966  17.293  43.417   1.410
73034W        W36967  16.804  17.785  13.016
73035W        W36968  18.234  13.316   2.833
73036W        W36969  44.995  41.314  14.934
73037W        W36970  12.139  10.852  10.621
73038W        W36971  10.323  26.982   2.662
73039W        W36972  41.903  13.129  10.513
73040W        W36973  26.583  25.211   1.241
73041W        W36974  21.017  31.002   4.802
73042W        W36975  44.262  23.499  14.924
73043W        W36976  22.542  31.445   4.194
73044W        W36977  44.343  26.608   0.425
73045W        W36978  40.884  10.710  11.971
73046W        W36979  10.861  39.816   2.234
73047W        W36980  12.708  31.438   2.216
73048W        W36981  44.978  27.597  12.063
73049W        W36982   0.451  37.555   0.936
73050W        W36983  24.161   5.882  10.144
73051W        W36984   3.778  12.312   4.127
73052W        W36985  34.936   3.327  12.827
73053W        W36986  38.400  38.379   4.145
73054W        W36987   5.324  15.105  11.594
73055W        W36988  23.602  13.752  10.145
73056W        W36989  29.174  43.857  14.937
73057W        W36990   1.354  38.821   4.175
73058W        W36991   4.841  20.664  13.956
73059W        W36992  16.189  10.741   1.850
73060W        W36993  43.310   8.877   0.248
73061W        W36994   6.186   0.934   0.813
73062W        W36995   5.925  34.434   1.315
73063W        W36996  37.946  32.996   4.332
73064W        W36997   3.780  21.133  10.021
73065W        W36998  26.112   7.265   0.924
73066W        W36999  36.864  27.142   4.351
73067W        W37000  37.497  41.527  11.411
73068W        W37001   8.674   0.959   0.905
73069W        W37002  35.527   2.824   0.359
73070W        W37003   8.202   1.424   0.754
73071W        W37004   7.285  25.621   5.267
73072W        W37005  31.114  40.483   2.256
73073W        W37006   8.746  17.680   4.761
73074W        W37007   6.708  39.049  12.451
73075W        W37008  40.824  35.512  14.281
73076W        W37009  26.609  41.895   2.212
73077W        W37010   8.165  15.152  12.823
73078W        W37011  31.985  29.044   0.876
73079W        W37012  24.996  34.903   4.140
73080W        W37013   6.850  21.558  14.419
73081W        W37014  21.563  31.586  12.880
73082W        W37015  27.030   4.896  11.923
73083W        W37016  40.464  40.538  10.475
73084W        W37017  43.986  25.550   2.732
73085W        W37018  12.620  11.175   3.290
73086W        W37019  30.075   9.859  14.436
73087W        W37020   9.166  15.720  11.942
73088W        W37021  39.317  25.206  14.965
73089W        W37022   9.775  40.392  11.884
73090W        W37023  19.048  19.084   0.799
73091W        W37024  18.170  12.750  13.509
73092W        W37025  20.662  29.637  10.451
73093W        W37026  38.844  40.314  12.898
73094W        W37027  10.274  44.880   3.824
73095W        W37028  13.830  41.022  14.874
73096W        W37029  13.136  28.649   0.865
73097W        W37030  25.641  19.040   2.664
73098W        W37031   5.427  13.781   2.291
73099W        W37032  23.088  14.315   4.256
73100W        W37033   6.701  15.819   0.780
73101W        W37034  41.788  19.574   0.430
73102W        W37035   7.378  38.404  12.455
73103W        W37036  25.555   9.239  13.028
73104W        W37037   0.875  35.992  12.965
73105W        W37038   0.823  32.093  12.350
73106W        W37039  17.665  36.520  13.391
73107W        W37040  22.538  36.447  10.941
73108W        W37041   0.428  23.049   3.264
73109W        W37042  22.625  35.440  14.315
73110W        W37043  32.583  37.377  10.638
73111W        W37044   6.282   7.860  10.403
73112W        W37045  13.839  13.196   0.825
73113W        W37046   5.861  14.274   2.351
73114W        W37047  36.489   1.398   0.899
73115W        W37048  18.114  37.459  11.602
73116W        W37049   7.317  30.997  14.358
73117W        W37050  44.783  25.159  14.369
73118W        W37051   1.291  11.687   0.243
73119W        W37052  35.073  16.076  14.330
73120W        W37053   1.897   7.326  11.449
73121W        W37054  10.156  18.549  10.565
73122W        W37055  40.910  29.996  10.600
73123W        W37056  43.339  14.711  12.460
73124W        W37057  20.053  12.161   1.883
73125W        W37058   4.306  30.659   0.355
73126W        W37059  16.299   3.753   1.337
73127W        W37060  10.685   6.288  12.066
73128W        W37061  38.565  33.606  14.032
73129W        W37062  35.012  11.652   1.296
73130W        W37063  28.641  39.958   3.234
73131W        W37064  19.162  32.061  11.924
73132W        W37065  32.131  19.134   4.610
73133W        W37066  21.132  39.412  14.319
73134W        W37067   5.921  26.472   3.151
73135W        W37068   8.712  15.185   1.898
73136W        W37069  41.523  19.756  11.548
73137W        W37070  27.161  22.094  14.292
73138W        W37071   2.897  38.892   4.209
73139W        W37072  33.917  27.665   3.289
73140W        W37073  40.051  23.234   0.776
73141W        W37074   0.267  40.487   4.337
73142W        W37075  31.524   4.734  11.559
73143W        W37076  11.368  43.461   0.759
73144W        W37077  34.495   6.766  14.781
73145W        W37078   5.378  28.612  11.553
73146W        W37079  29.040  12.697   4.177
73147W        W37080   2.733  12.779  13.989
73148W        W37081  25.675  39.323   0.447
73149W        W37082  24.044  25.692  11.975
73150W        W37083  21.677  43.881  12.012
73151W        W37084  14.741   5.713   1.431
73152W        W37085  20.088  24.701  12.435
73153W        W37086  29.510   6.696   1.751
73154W        W37087  31.082  26.531  12.887
73155W        W37088   0.419  43.799   2.397
73156W        W37089   9.760  14.803  14.401
73157W        W37090  30.436  15.175   1.933
73158W        W37091  29.085  16.716  12.528
73159W        W37092  41.404  23.008   4.660
73160W        W37093  34.550  30.067  11.041
73161W        W37094  13.189  32.627  14.016
73162W        W37095  11.318  16.081   2.313
73163W        W37096  34.116  35.095   4.167
73164W        W37097  35.509   1.369  10.959
73165W        W37098  11.710  17.238   4.259
73166W        W37099   4.924  36.502   4.307
73167W        W37100   6.914  21.082  13.794
73168W        W37101  39.319   3.426   3.336
73169W        W37102   5.880   5.873   4.129
73170W        W37103  21.148   5.375  13.484
73171W        W37104  31.595  32.891  10.635
73172W        W37105   9.373  40.417  14.916
73173W        W37106  15.714  36.549  11.104
73174W        W37107  28.504  29.994  13.979
73175W        W37108  13.311  40.010   4.169
73176W        W37109   7.406  18.757  12.922
73177W        W37110  12.758  38.859   2.182
73178W        W37111   4.845  43.897   3.380
73179W        W37112  33.085  41.795  11.572
73180W        W37113   2.252  32.515   4.638
73181W        W37114  42.319  20.171   0.926
73182W        W37115   0.458  12.841  10.983
73183W        W37116  21.101  33.519  12.437
73184W        W37117   7.688  11.358   0.328
73185W        W37118  36.052  25.553  11.509
73186W        W37119  44.415  39.325   2.189
73187W        W37120  22.079  13.745  14.438
73188W        W37121  34.505  14.138   4.130
73189W        W37122  30.445  16.612  14.412
73190W        W37123  24.661  34.953   4.755
73191W        W37124  42.393  34.536  12.872
73192W        W37125  19.637  17.196   0.253
73193W        W37126  16.767  12.160   3.796
73194W        W37127  31.080  20.541   3.233
73195W        W37128   6.868  37.575  14.284
73196W        W37129  42.887   9.229   0.942
73197W        W37130  36.447   0.859  12.424
73198W        W37131  38.414  36.381  11.464
73199W        W37132   6.215  31.539  13.901
73200W        W37133   0.894  36.579  10.929
73201W        W37134   2.387  42.506   4.756
73202W        W37135  18.127  40.820  10.462
73203W        W37136   1.302  38.486  12.018
73204W        W37137  35.602  34.959  10.950
73205W        W37138  19.719  15.702  12.414
73206W        W37139  40.510  18.784  11.425
73207W        W37140  13.614  23.492  10.570
73208W        W37141  13.267  19.697   1.444
73209W        W37142  21.675  26.567  11.876
73210W        W37143  27.453  39.952   3.646
73211W        W37144  11.741  32.004  13.827
73212W        W37145  39.489   6.374  12.863
73213W        W37146  17.751  24.630  14.329
73214W        W37147  19.152  35.438  11.609
73215W        W37148   9.799  11.793   0.893
73216W        W37149   3.841   9.183  11.888
73217W        W37150  17.091  37.370   2.376
73218W        W37151  23.630  38.928   1.818
73219W        W37152  39.839   5.821  14.403
73220W        W37153  16.787   3.741   4.171
73221W        W37154  27.523  10.306  14.352
73222W        W37155  24.704  26.533   0.267
73223W        W37156  33.424   6.810  14.890
73224W        W37157  24.613  39.463  11.391
73225W        W37158  29.970  14.228   4.350
73226W        W37159  16.107  42.896   4.333
73227W        W37160  32.404   6.747   2.289
73228W        W37161   9.330   2.951   1.704
73229W        W37162  38.845   7.790  13.373
73230W        W37163  15.158  31.946   0.930
73231W        W37164   0.825  21.203   0.399
73232W        W37165  22.189  38.497   1.731
73233W        W37166   3.934   3.767   5.251
73234W        W37167   3.245  30.551   4.712
73235W        W37168  42.306  36.554   2.879
73236W        W37169  44.854  38.037   4.654
73237W        W37170  21.224  19.571   3.218
73238W        W37171  14.106  24.101  10.513
73239W        W37172  16.596  20.651   2.722
73240W        W37173  25.175   1.866  13.812
73241W        W37174  21.132  33.889   2.356
73242W        W37175  21.741  39.499  14.807
73243W        W37176  24.650  10.281  12.565
73244W        W37177  37.388  20.552  14.959
73245W        W37178   1.760  10.682  14.895
73246W        W37179  34.606  34.473  11.419
73247W        W37180  10.297  35.980   0.469
73248W        W37181  15.133   7.223  12.412
73249W        W37182  25.575  25.145  12.851
73250W        W37183  33.417  28.965  12.095
73251W        W37184  41.307  13.257   2.355
73252W        W37185   3.435  23.115  14.464
73253W        W37186  18.654  24.671  13.499
73254W        W37187  36.537  26.965  14.846
73255W        W37188  17.083  32.008  14.031
73256W        W37189  16.243  25.983   1.428
73257W        W37190  16.733  11.349   4.618
73258W        W37191   0.492  26.959  14.967
73259W        W37192   6.414  41.345  10.643
73260W        W37193  23.179  32.940  12.834
73261W        W37194  11.724  20.133  10.570
73262W        W37195  31.898   9.682   0.418
73263W        W37196  18.190  30.021  10.560
73264W        W37197  20.236  22.119  11.931
73265W        W37198  15.221  29.508   4.743
73266W        W37199   3.830   0.491   0.442
73267W        W37200  37.450  15.161  12.371
73268W        W37201  27.480  29.162  13.979
73269W        W37202  26.646  27.685  14.925
73270W        W37203   0.936  25.561  12.523
73271W        W37204   2.263  36.975   4.187
73272W        W37205  22.094  25.663  13.519
73273W        W37206   5.337   9.394   2.767
73274W        W37207  30.962  38.422  11.967
73275W        W37208   6.832  40.942  13.434
73276W        W37209  43.480  26.600   4.704
73277W        W37210  42.497   6.826   2.276
73278W        W37211  18.111  27.667   3.797
73279W        W37212  37.416  18.673   0.378
73280W        W37213  16.120  42.823  14.318
73281W        W37214  13.763   2.782  14.895
73282W        W37215  35.388  10.664   3.175
73283W        W37216  31.954  23.510  10.054
73284W        W37217  28.485  35.952   2.683
73285W        W37218  36.852  23.684  12.898
73286W        W37219  26.978   7.223   0.944
73287W        W37220  16.092   9.703   2.371
73288W        W37221   4.271  41.463   1.263
73289W        W37222  18.173  12.262  11.465
73290W        W37223   8.356   2.338   2.185
73291W        W37224  24.695  24.114   4.626
73292W        W37225  26.580   5.394  13.890
73293W        W37226  24.701  31.126  11.930
73294W        W37227  25.590  12.855   1.448
73295W        W37228  28.606  26.683  10.552
73296W        W37229  35.941  27.997  11.096
73297W        W37230  38.046   1.797   2.799
73298W        W37231  28.976  18.755  12.906
73299W        W37232  18.601  28.945   0.417
73300W        W37233  38.515   9.710   4.813
73301W        W37234  30.911  31.432   4.665
73302W        W37235  32.952  37.981  11.453
73303W        W37236  41.007   0.844   4.699
73304W        W37237   7.237  10.316  14.010
73305W        W37238  11.644  35.965   3.746
73306W        W37239  10.830  38.473   3.159
73307W        W37240  33.599   3.264   3.682
73308W        W37241  38.895  10.195  12.936
73309W        W37242  34.436  16.754   0.830
73310W        W37243  19.270  44.881   2.853
73311W        W37244  10.171  14.647   2.817
73312W        W37245  34.002  43.271   3.163
73313W        W37246  13.211  25.136  10.032
73314W        W37247  23.577  10.739   4.157
73315W        W37248  17.220   7.373   0.956
73316W        W37249  39.517  34.961   3.198
73317W        W37250   2.942  40.865  12.443
73318W        W37251  33.425  34.608  14.878
73319W        W37252  15.660  24.489   2.197
73320W        W37253   8.194   3.364   1.715
73321W        W37254  34.549  43.494  14.866
73322W        W37255  33.032  16.293  11.926
73323W        W37256   9.741  33.017  14.407
73324W        W37257   6.336  23.632   5.571
73325W        W37258  12.728  35.990  12.405
73326W        W37259  24.992  35.893  14.918
73327W        W37260  11.293  30.574   0.830
73328W        W37261  16.194  34.375  10.452
73329W        W37262  32.894  30.511   2.774
73330W        W37263  19.669  20.085   1.851
73331W        W37264  35.971  31.454  13.007
73332W        W37265  25.602   6.868  14.823
73333W        W37266  32.043  11.690  12.980
73334W        W37267  14.809   4.735  10.142
73335W        W37268  33.593  21.737  12.826
73336W        W37269   4.780  16.141  10.134
73337W        W37270  21.185  32.935   1.909
73338W        W37271  30.601  32.475   1.404
73339W        W37272  28.984  26.019  13.004
73340W        W37273   4.873  15.600   4.261
73341W        W37274  26.193   5.851  12.892
73342W        W37275  24.157   4.888   4.750
73343W        W37276  31.993  43.382   2.251
73344W        W37277  40.050  16.617   0.428
73345W        W37278  19.641  37.352   2.314
73346W        W37279  26.695  36.368   0.772
73347W        W37280  39.356  14.205   4.731
73348W        W37281  16.251  17.637   3.172
73349W        W37282  22.701  35.896   0.269
73350W        W37283   4.447  40.945  11.548
73351W        W37284  42.886  31.575  13.900
73352W        W37285   9.807  25.709   0.802
73353W        W37286  39.547   1.323  14.805
73354W        W37287   1.274  37.072  13.311
73355W        W37288   8.188   6.404   4.629
73356W        W37289  32.109  37.979   4.115
73357W        W37290  11.181   7.845   3.262
73358W        W37291  40.893  43.768  13.813
73359W        W37292  26.630   9.384   3.746
73360W        W37293  24.716  26.110  11.959
73361W        W37294  19.692  40.919  11.075
73362W        W37295  44.821  15.114   0.861
73363W        W37296  24.646  41.396   3.290
73364W        W37297  42.795  31.906   0.454
73365W        W37298  22.662  12.292  12.022
73366W        W37299  31.132  12.699  13.391
73367W        W37300   0.906   1.904  11.958
73368W        W37301  27.486  27.581  11.977
73369W        W37302  15.208  10.204  12.360
73370W        W37303  44.405  42.282  12.036
73371W        W37304  25.544  19.717   3.749
73372W        W37305   6.751  11.646  10.966
73373W        W37306  13.309   0.987   2.242
73374W        W37307  25.029  23.585  10.587
73375W        W37308   7.858   3.764   3.294
73376W        W37309   7.364  43.326   1.829
73377W        W37310  41.396   9.238  14.829
73378W        W37311   7.246  27.629   2.292
73379W        W37312  27.600   4.320   3.246
73380W        W37313  18.181  25.627  12.520
73381W        W37314  13.730  30.650  11.013
73382W        W37315  25.069   9.849   3.159
73383W        W37316  20.650   4.367   1.696
73384W        W37317  28.053  15.660  12.872
73385W        W37318  39.432  18.102  10.992
73386W        W37319   5.241  11.843   2.742
73387W        W37320   7.685   6.411  14.463
73388W        W37321  19.739   4.305  11.394
73389W        W37322  35.505  26.694  11.896
73390W        W37323  17.734  13.325   4.232
73391W        W37324  31.466  11.312   4.299
73392W        W37325  23.583  39.509  11.870
73393W        W37326  28.545  44.854   2.275
73394W        W37327   8.679  10.157  12.022
73395W        W37328  11.864  19.769  10.529
73396W        W37329  29.550  15.171   1.869
73397W        W37330  37.495  36.526   2.745
73398W        W37331  19.556  31.136   0.846
73399W        W37332  43.906  35.444  13.876
73400W        W37333   8.242  35.538   0.811
73401W        W37334  37.988  40.364  12.916
73402W        W37335   1.881   7.172   2.305
73403W        W37336  38.911  38.064   1.924
73404W        W37337  21.639   3.931   3.348
73405W        W37338  41.798   1.421  12.356
73406W        W37339   6.747   3.243   3.735
73407W        W37340  11.855   3.383  10.935
73408W        W37341  18.293  16.798  11.035
73409W        W37342  12.225  11.697  10.640
73410W        W37343  18.627  18.088   3.177
73411W        W37344  22.170  37.380   3.640
73412W        W37345  26.178  29.134   2.183
73413W        W37346  16.605  44.823   1.265
73414W        W37347   2.373   9.806  12.522
73415W        W37348   5.296   8.221  11.110
73416W        W37349   8.311  44.301  10.643
73417W        W37350   7.778  27.449   0.802
73418W        W37351   8.672   1.411  11.537
73419W        W37352  22.669  17.602   2.394
73420W        W37353  33.601  44.478   2.864
73421W        W37354  31.037  20.236   3.688
73422W        W37355  30.568  30.100  11.078
73423W        W37356  44.376  44.917   4.652
73424W        W37357  12.252  31.588   4.268
73425W        W37358  13.332  33.121   3.703
73426W        W37359  17.290  26.977   3.156
73427W        W37360  36.986  43.848  10.943
73428W        W37361  43.852  19.181  11.471
73429W        W37362  38.437  37.346   0.874
73430W        W37363  42.860  41.949   3.251
73431W        W37364  33.042   7.689   2.275
73432W        W37365   7.257   6.296  13.827
73433W        W37366  30.489  19.075  10.634
73434W        W37367  37.921  20.702  13.040
73435W        W37368  19.259  18.228  14.462
73436W        W37369  29.123  35.981  14.804
73437W        W37370  14.271   3.720  14.452
73438W        W37371  20.648  29.587  13.448
73439W        W37372  28.593  23.621  13.852
73440W        W37373  40.327  32.974   3.380
73441W        W37374  10.877  27.071  11.548
73442W        W37375  33.566  32.613  14.852
73443W        W37376  35.979  24.987   0.915
73444W        W37377  16.302   7.742   2.761
73445W        W37378  15.286   0.482   3.863
73446W        W37379  18.598  20.204  13.983
73447W        W37380  37.831   9.166  14.844
73448W        W37381  34.005  28.079  13.051
73449W        W37382  26.995  34.025  11.935
73450W        W37383  23.708  32.441  14.893
73451W        W37384   8.714  32.589   2.681
73452W        W37385  44.320   9.287   0.786
73453W        W37386   1.804  43.828  12.828
73454W        W37387   8.761   8.828  10.958
73455W        W37388  20.598  25.696   4.798
73456W        W37389  29.512  29.962  11.884
73457W        W37390  25.058  44.304   4.253
73458W        W37391  23.707  22.560  11.379
73459W        W37392  12.281  21.684   2.199
73460W        W37393  14.294   1.931  11.430
73461W        W37394  14.102  35.958   2.304
73462W        W37395   4.341  42.422   3.223
73463W        W37396  25.628   1.451  13.537
73464W        W37397  23.226  35.407  14.026
73465W        W37398   4.769  18.184   4.726
73466W        W37399   6.776   2.890   2.381
73467W        W37400  27.022  38.364  13.419
73468W        W37401  31.980  34.039   2.877
73469W        W37402   7.338   5.873  14.027
73470W        W37403  24.018  18.094   9.998
73471W        W37404  43.809  42.799  11.593
73472W        W37405  16.096   1.483  13.952
73473W        W37406  24.660  43.457  12.031
73474W        W37407  10.771  41.449  10.456
73475W        W37408  39.024  37.961  13.353
73476W        W37409  31.519  15.306  11.989
73477W        W37410  32.002   1.391  11.554
73478W        W37411  40.441  44.371   0.317
73479W        W37412  16.746  31.520  10.606
73480W        W37413  20.542  14.336   3.866
73481W        W37414  38.835  17.570   2.898
73482W        W37415  43.886  11.632  14.807
73483W        W37416  34.054  26.132   2.863
73484W        W37417  14.126   3.952   5.287
73485W        W37418  36.023  32.936  11.104
73486W        W37419   6.345   6.821   2.208
73487W        W37420  37.067   1.829  13.410
73488W        W37421  25.573  10.146  10.413
73489W        W37422   9.728  17.638   3.225
73490W        W37423  13.289  44.983  10.934
73491W        W37424  42.380  37.395   4.747
73492W        W37425  32.005  42.369  12.507
73493W        W37426  41.482  38.344  13.036
73494W        W37427  25.095  26.071   0.483
73495W        W37428  43.357   2.252  14.852
73496W        W37429  37.955  22.025  14.397
73497W        W37430   6.226  36.083   2.707
73498W        W37431   4.426  12.130   0.796
73499W        W37432  32.110  29.432  12.883
73500W        W37433  43.301   5.802  14.929
73501W        W37434  44.770  29.568  10.893
73502W        W37435  15.704  36.530   0.446
73503W        W37436  38.551   9.676  11.584
73504W        W37437  17.670   8.178   5.639
73505W        W37438  31.411   6.867   4.192
73506W        W37439  36.850  36.440   3.193
73507W        W37440  32.402  30.971  13.317
73508W        W37441   8.299   5.892  13.544
73509W        W37442  33.074  43.339   1.887
73510W        W37443   4.860  41.824   3.784
73511W        W37444   2.965  42.935   4.747
73512W        W37445  33.935   4.792  10.408
73513W        W37446  39.538   6.242   0.833
73514W        W37447  22.674  28.988  12.359
73515W        W37448  19.080  29.650   1.271
73516W        W37449  25.182  26.035   2.181
73517W        W37450  33.030  42.890   2.849
73518W        W37451   0.819   2.419   3.199
73519W        W37452  40.855  12.220  11.006
73520W        W37453  36.521   5.262   4.344
73521W        W37454   1.467  41.935   3.381
73522W        W37455  28.137  42.346  11.876
73523W        W37456  27.107  43.380   4.159
73524W        W37457  16.273  32.970   3.731
73525W        W37458  40.857  41.012  13.441
73526W        W37459  28.567   7.800   4.690
73527W        W37460  33.484   8.779   0.871
73528W        W37461  24.682  24.200   0.787
73529W        W37462  44.474   2.247   2.213
73530W        W37463  15.207  41.932  13.332
73531W        W37464   0.314  36.438   4.641
73532W        W37465  33.951  23.084   2.369
73533W        W37466  36.348  10.170  12.920
73534W        W37467  13.270  29.015  11.903
73535W        W37468  41.911  22.625   0.428
73536W        W37469  41.447  19.717   3.183
73537W        W37470  14.784  31.638  13.362
73538W        W37471  31.548   8.825   0.326
73539W        W37472  41.016  22.680  12.397
73540W        W37473  43.374  41.854  10.477
73541W        W37474  13.282  17.736  11.118
73542W        W37475  41.019  12.159   0.371
73543W        W37476  24.496  22.108   2.242
73544W        W37477  28.535  37.888  14.913
73545W        W37478  17.694  32.140   0.416
73546W        W37479  36.078   7.891  12.512
73547W        W37480  30.647  28.624   3.366
73548W        W37481  10.307  43.966   4.774
73549W        W37482   7.380  33.471   0.839
73550W        W37483  44.462  23.518  10.545
73551W        W37484  40.897  11.349  10.568
73552W        W37485  37.981  43.940   3.655
73553W        W37486   1.391  36.955   4.794
73554W        W37487  28.555  24.518   0.744
73555W        W37488  41.001  31.910   4.811
73556W        W37489  18.155  35.483   3.784
73557W        W37490  24.001   9.806  13.398
73558W        W37491  38.518   6.266   0.849
73559W        W37492  14.755  31.988  11.388
73560W        W37493  26.019  42.424  10.626
73561W        W37494  24.201  11.691   0.779
73562W        W37495  37.921  44.444  13.424
73563W        W37496  14.622  42.860  13.864
73564W        W37497  43.300  42.920   5.222
73565W        W37498  43.395  24.506   1.366
73566W        W37499  12.174  19.722   2.224
73567W        W37500  43.448  17.116   1.747
73568W        W37501  37.437   4.373  11.973
73569W        W37502  36.993   6.392  13.540
73570W        W37503  26.986  22.606  14.867
73571W        W37504  23.216  43.512   2.238
73572W        W37505  32.495   6.811   4.700
73573W        W37506  23.165  15.275  11.564
73574W        W37507  41.323  31.990   1.729
73575W        W37508  38.066  15.664   1.418
73576W        W37509  39.551   4.215  13.055
73577W        W37510  29.116  41.871  12.037
73578W        W37511  41.836  21.262   1.327
73579W        W37512  21.598  28.521   2.299
73580W        W37513  10.748  32.512  12.019
73581W        W37514  31.129  32.528   0.914
73582W        W37515  23.713   5.775   0.828
73583W        W37516  24.668  13.617   4.673
73584W        W37517   6.402   1.756   3.662
73585W        W37518  29.426  19.627  13.539
73586W        W37519  23.998  15.668   3.250
73587W        W37520  44.399  38.875   4.647
73588W        W37521  29.425  35.468   2.370
73589W        W37522   6.805  42.980   0.408
73590W        W37523   2.313  15.623   3.670
73591W        W37524  24.195   5.291  10.427
73592W        W37525  39.541  24.017  12.460
73593W        W37526  37.350  34.068   4.141
73594W        W37527   9.870   8.707   3.766
73595W        W37528  35.862  44.827   4.751
73596W        W37529   0.743  27.070   3.632
73597W        W37530  10.850   8.189  13.873
73598W        W37531   2.336  42.332  12.838
73599W        W37532   8.737  11.126  12.507
73600W        W37533  18.566  10.367   2.183
73601W        W37534  33.475  22.743   2.874
73602W        W37535  22.010   7.749   4.227
73603W        W37536  35.069   0.371  10.432
73604W        W37537  29.476  26.686  14.962
73605W        W37538  21.039  33.975   5.258
73606W        W37539   9.739  35.061   4.813
73607W        W37540  18.294  44.915  14.928
73608W        W37541  30.966  32.969  14.867
73609W        W37542  11.628  13.769  13.381
73610W        W37543  11.840  30.443   5.180
73611W        W37544   0.937   8.317  12.064
73612W        W37545  27.028  17.598  12.392
73613W        W37546  39.482  35.452  13.367
73614W        W37547   7.837  25.551   3.857
73615W        W37548  16.094  23.213   4.131
73616W        W37549  26.067  12.160   0.294
73617W        W37550   1.338  33.972   4.653
73618W        W37551  26.624  39.939  13.986
73619W        W37552   2.392  36.357   1.310
73620W        W37553   4.422  37.892  13.400
73621W        W37554   7.195  20.235  11.038
73622W        W37555  26.522  17.182  10.605
73623W        W37556  31.139  12.687   0.812
73624W        W37557  23.547  30.920   0.256
73625W        W37558  13.249   1.394   4.679
73626W        W37559  20.113  18.720   2.356
73627W        W37560  13.249  20.189   2.839
73628W        W37561  44.997   4.827   2.223
73629W        W37562  16.136  22.639   4.798
73630W        W37563   6.765  39.948  11.035
73631W        W37564  19.257  21.196  10.450
73632W        W37565  27.991  19.569  11.043
73633W        W37566  38.964  34.494   0.804
73634W        W37567  20.556  35.563   4.806
73635W        W37568  33.589  13.708  14.428
73636W        W37569   9.313  36.405  12.076
73637W        W37570  26.132   7.699   4.635
73638W        W37571  13.661   4.796  14.938
73639W        W37572  39.040  20.661   2.780
73640W        W37573  34.925  31.480  11.464
73641W        W37574   7.358  40.540   4.189
73642W        W37575  42.985  36.588  10.030
73643W        W37576  42.487  20.077  11.410
73644W        W37577  34.568  27.020  11.956
73645W        W37578  29.666  42.899   0.765
73646W        W37579  27.138  37.072   3.378
73647W        W37580  35.070  11.343   4.621
73648W        W37581  19.137  22.155   1.384
73649W        W37582  42.962   9.771  13.332
73650W        W37583  28.031  24.194  12.460
73651W        W37584  10.334  33.047   4.240
73652W        W37585   7.810  44.410   0.447
73653W        W37586  18.695  12.273   3.632
73654W        W37587  17.178  12.750   4.622
73655W        W37588  41.787   9.769   0.477
73656W        W37589  30.627  17.186   2.345
73657W        W37590   8.890  13.651   0.303
73658W        W37591  25.683  30.614  14.511
73659W        W37592  11.680  12.796  12.393
73660W        W37593   3.902  31.117   4.174
73661W        W37594  42.933  26.002   0.859
73662W        W37595  29.070  33.068  11.114
73663W        W37596   9.875  16.701   0.331
73664W        W37597  34.074   0.938  11.922
73665W        W37598  11.724  17.153  11.007
73666W        W37599  29.073   8.858  13.057
73667W        W37600   3.299  40.370   5.268
73668W        W37601  23.131   3.793  13.902
73669W        W37602  24.191  29.123  13.934
73670W        W37603   3.334  35.539  13.885
73671W        W37604  37.436  23.151   0.896
73672W        W37605  33.515   8.750   5.301
73673W        W37606  39.871   1.262  11.502
73674W        W37607  21.156   3.303   1.318
73675W        W37608   1.242  28.163   0.802
73676W        W37609  43.826  33.559  14.290
73677W        W37610   0.481  39.385  12.087
73678W        W37611  24.169   8.778   3.714
73679W        W37612   4.827  13.211   0.877
73680W        W37613  27.048  40.857  12.362
73681W        W37614  38.070  20.248   3.640
73682W        W37615  33.019  11.852   3.154
73683W        W37616  43.464  25.046   4.350
73684W        W37617   6.822  38.363  12.962
73685W        W37618  39.873  33.420  10.067
73686W        W37619  37.532  37.535  12.860
73687W        W37620  31.614  34.379  11.885
73688W        W37621  19.170   8.400   3.860
73689W        W37622  18.670  42.892   0.855
73690W        W37623  22.583  42.998  12.490
73691W        W37624   0.346  10.375  13.884
73692W        W37625  20.766  17.099  10.915
73693W        W37626  11.275  10.749   3.232
73694W        W37627  42.002  40.952   1.896
73695W        W37628  28.170  11.147   4.197
73696W        W37629  16.096  19.612   1.403
73697W        W37630  30.149   1.346   0.962
73698W        W37631  36.407  13.180  12.420
73699W        W37632  26.109  30.158   1.366
73700W        W37633  38.008  38.844   3.197
73701W        W37634  14.195   3.325   3.315
73702W        W37635  15.220  44.392  13.398
73703W        W37636  31.456  21.539   0.776
73704W        W37637  19.251  43.378   3.293
73705W        W37638  32.022   4.210  10.949
73706W        W37639  34.002  22.604   1.834
73707W        W37640   0.772  40.831  11.600
73708W        W37641  15.155   8.347  14.335
73709W        W37642  26.006   3.369   5.228
73710W        W37643   1.921   9.283  11.451
73711W        W37644  18.743  30.910   3.659
73712W        W37645  14.273  38.010  11.075
73713W        W37646   4.914  13.819  14.001
73714W        W37647  32.631  20.746   1.930
73715W        W37648   7.740  17.665   3.803
73716W        W37649  12.630  30.562  11.547
73717W        W37650  10.722  44.845  14.458
73718W        W37651   3.446  29.168  11.103
73719W        W37652  44.898  24.097   2.226
73720W        W37653  36.085  29.153   3.301
73721W        W37654  27.453  22.117   2.313
73722W        W37655  16.156   5.836  10.955
73723W        W37656  18.075  23.995  11.952
73724W        W37657   9.277  42.959   2.311
73725W        W37658  10.843  30.125  12.436
73726W        W37659  15.780  15.199   3.709
73727W        W37660  31.575  33.567   3.807
73728W        W37661   6.226  28.673   0.944
73729W        W37662   1.472  34.941  14.438
73730W        W37663  23.131   0.821   3.280
73731W        W37664  36.854  40.466   0.821
73732W        W37665  19.272  16.712   5.121
73733W        W37666  28.528   2.882   4.221
73734W        W37667   2.277   2.355   3.860
73735W        W37668  14.675   1.919  10.147
73736W        W37669   1.267  13.108  10.464
73737W        W37670   9.204  20.680   1.301
73738W        W37671  30.915  43.366  12.458
73739W        W37672  42.840  14.727  11.435
73740W        W37673   4.217  39.980  11.377
73741W        W37674  38.472  35.364   4.117
73742W        W37675  33.494  14.795   3.723
73743W        W37676  37.901  14.107   1.326
73744W        W37677  11.337  17.595  13.955
73745W        W37678   9.878  11.137  14.806
73746W        W37679  22.555  36.400   2.389
73747W        W37680  27.509  20.159  11.610
73748W        W37681  21.139  36.978  12.577
73749W        W37682  11.175  15.740  10.420
73750W        W37683   7.908   2.874   0.278
73751W        W37684  11.336  42.447   0.370
73752W        W37685  20.728  33.101  12.021
73753W        W37686   1.283   7.414   0.270
73754W        W37687   9.273  21.200   4.645
73755W        W37688  39.910  35.390   2.320
73756W        W37689  24.174  35.417  10.461
73757W        W37690  36.843  33.113   1.446
73758W        W37691   4.314  41.415  13.038
73759W        W37692  44.758  31.986   2.282
73760W        W37693  13.264  13.311  12.390
73761W        W37694  21.703  13.246  12.524
73762W        W37695  23.648   9.207   5.121
73763W        W37696  34.562  12.231  13.026
73764W        W37697  14.137  27.626   4.613
73765W        W37698  10.261  35.883  11.976
73766W        W37699  40.808  41.524  10.611
73767W        W37700  18.146  20.148  13.501
73768W        W37701   4.239   0.325  11.099
73769W        W37702  19.248   3.317   3.199
73770W        W37703   9.701  34.945   1.852
73771W        W37704  11.692  26.066   4.682
73772W        W37705  42.417  43.317   2.376
73773W        W37706  42.985  18.224  10.595
73774W        W37707  32.134  28.054   2.313
73775W        W37708   9.784  23.217  14.370
73776W        W37709  32.112  18.267  10.439
73777W        W37710  24.596   9.297   5.098
73778W        W37711   6.895  35.577  11.441
73779W        W37712  11.644  28.959  10.921
73780W        W37713  32.958  25.162  11.541
73781W        W37714  26.176  37.074  12.430
73782W        W37715   2.391  18.231   0.393
73783W        W37716  44.445  20.266  12.364
73784W        W37717  38.558  39.925  13.024
73785W        W37718  37.009   6.748   1.731
73786W        W37719  35.899   2.840   2.674
73787W        W37720  18.197  21.700   0.913
73788W        W37721  25.583  39.854  11.422
73789W        W37722  38.075   9.339   4.659
73790W        W37723  17.173  10.262  10.429
73791W        W37724   4.262  20.740   2.748
73792W        W37725  36.374  44.835  12.010
73793W        W37726  19.178  25.570   9.659
73794W        W37727   2.916  23.714   2.700
73795W        W37728   4.222  42.996   1.332
73796W        W37729  21.632  39.975  12.355
73797W        W37730  28.619  13.790   0.356
73798W        W37731  25.991  22.096   3.354
73799W        W37732   9.224  10.376   0.810
73800W        W37733   5.744  15.315  13.520
73801W        W37734  13.303  10.741   4.317
73802W        W37735  15.290  19.633   0.461
73803W        W37736  25.198   6.301  14.759
73804W        W37737   8.745  29.125   0.950
73805W        W37738  15.603  20.181   2.785
73806W        W37739  35.967  10.200  13.369
73807W        W37740  17.230  24.181  10.406
73808W        W37741  33.879  29.535   0.809
73809W        W37742   3.861  31.034  10.952
73810W        W37743  28.097  41.489  12.962
73811W        W37744  29.005  32.087   4.792
73812W        W37745  44.968  20.719   2.417
73813W        W37746  42.508   5.748  12.999
73814W        W37747  29.990  41.923   2.227
73815W        W37748  33.622  21.081   5.165
73816W        W37749  27.469  24.131   4.623
73817W        W37750  15.306  15.626  14.841
73818W        W37751  10.157   8.334   0.927
73819W        W37752   1.242  37.511   4.833
73820W        W37753  20.240   7.824   1.764
73821W        W37754  14.771  31.135   3.256
73822W        W37755  35.015   1.482  14.466
73823W        W37756   3.912  24.615  10.444
73824W        W37757  12.763  30.564  10.562
73825W        W37758  16.741   9.710  10.554
73826W        W37759   2.743  17.268  13.037
73827W        W37760  27.540  25.639  14.812
73828W        W37761  24.210  35.089   4.272
73829W        W37762  20.241  40.308   4.703
73830W        W37763  22.638  22.624   0.798
73831W        W37764  30.507  34.988   3.635
73832W        W37765  36.099  12.793   1.244
73833W        W37766  28.571   0.885  12.866
73834W        W37767  14.199   0.415   4.250
73835W        W37768  36.535  37.982  10.424
73836W        W37769   3.296  12.626   2.897
73837W        W37770   4.828  31.944   3.259
73838W        W37771  41.518   2.886   0.881
73839W        W37772  13.109  27.072   3.713
73840W        W37773  31.460  12.826   3.322
73841W        W37774  25.698  41.860  11.081
73842W        W37775  28.054  20.631   2.717
73843W        W37776  19.237  18.291  14.796
73844W        W37777  12.250  12.829   2.770
73845W        W37778   7.181  29.038  12.994
73846W        W37779  34.907   1.868  10.605
73847W        W37780  11.637  40.532  14.824
73848W        W37781  42.850  18.658  13.064
73849W        W37782  18.131  40.977  12.392
73850W        W37783  35.455  13.277  12.943
73851W        W37784  25.499  40.931   2.249
73852W        W37785  14.752  15.629  13.994
73853W        W37786  12.658  20.534   2.179
73854W        W37787  19.043  39.839  10.923
73855W        W37788  40.959  21.678   4.160
73856W        W37789  19.612  40.369   1.695
73857W        W37790  30.966  40.025   4.829
73858W        W37791  37.974  34.965   3.217
73859W        W37792  10.351   8.666  12.487
73860W        W37793   9.319  16.686   3.209
73861W        W37794  32.433  39.947  13.942
73862W        W37795  38.858  15.658   0.855
73863W        W37796  16.666  20.177  10.622
73864W        W37797  42.419  10.377   0.250
73865W        W37798   5.720  36.941  13.503
73866W        W37799  26.655  21.735   3.838
73867W        W37800   7.787   9.766   4.306
73868W        W37801   3.226  16.808  13.509
73869W        W37802  25.127  23.037   2.343
73870W        W37803  17.685  40.903  12.551
73871W        W37804   4.368  25.015   1.744
73872W        W37805  33.932  12.612   4.250
73873W        W37806  31.127  38.422   0.429
73874W        W37807  25.048  36.486  14.509
73875W        W37808  37.466   8.724   4.732
73876W        W37809  17.653  36.358  10.424
73877W        W37810  42.350  26.615   4.299
73878W        W37811  25.489  29.552   1.895
73879W        W37812  40.348  19.622   1.902
73880W        W37813  41.021   6.820   3.773
73881W        W37814   4.738  19.684   2.225
73882W        W37815  20.644  14.189   4.279
73883W        W37816   6.820  23.556   0.291
73884W        W37817  41.787  33.485   2.785
73885W        W37818  24.017   6.859   2.276
73886W        W37819   4.917  40.452  11.116
73887W        W37820  22.093  27.143   1.218
73888W        W37821  12.776  39.531   0.815
73889W        W37822  22.557   9.885   2.832
73890W        W37823  23.019  41.796   4.177
73891W        W37824   0.826  13.609  11.601
73892W        W37825  30.597   6.399   3.347
73893W        W37826  37.464  17.614  14.915
73894W        W37827  15.775  18.754   2.392
73895W        W37828   9.847  38.402  14.477
73896W        W37829  18.771  24.195  13.987
73897W        W37830  18.175  43.513   3.305
73898W        W37831   5.424  36.587   3.245
73899W        W37832  34.010  34.949   0.262
73900W        W37833  14.664   2.734  13.543
73901W        W37834  30.027  21.671   1.278
73902W        W37835  12.172  25.094  13.814
73903W        W37836   2.419  16.781   4.838
73904W        W37837  19.090  30.061   2.699
73905W        W37838  10.313  37.940  11.897
73906W        W37839  14.118  29.460  11.519
73907W        W37840  16.317  22.086  11.884
73908W        W37841  16.075  11.209   4.204
73909W        W37842  44.424  12.197  12.450
73910W        W37843  40.531  29.577  13.955
73911W        W37844  16.663   7.853   4.151
73912W        W37845  33.591   7.833  10.536
73913W        W37846  19.131   2.887   1.389
73914W        W37847  29.050  33.075   0.853
73915W        W37848   6.890  22.694   5.280
73916W        W37849  26.991  23.632   4.218
73917W        W37850  26.047  29.638  12.962
73918W        W37851  20.558  35.396   2.673
73919W        W37852  17.711  20.209   0.269
73920W        W37853  21.522  37.929   0.480
73921W        W37854  33.621   0.483  12.955
73922W        W37855  30.035  41.011   0.840
73923W        W37856  27.630  21.585   2.670
73924W        W37857  20.642  22.572   3.762
73925W        W37858  29.963  33.487  11.396
73926W        W37859  15.820  17.247  14.351
73927W        W37860   0.367  10.325  14.912
73928W        W37861  33.410   2.762  10.892
73929W        W37862   1.875  41.026   0.942
73930W        W37863  32.636   3.420   4.702
73931W        W37864  14.811  31.596  10.947
73932W        W37865  15.622  39.872   4.199
73933W        W37866   3.870  12.166   3.264
73934W        W37867  10.157   0.940   1.295
73935W        W37868  42.845  40.450  12.486
73936W        W37869   7.790  23.627  11.543
73937W        W37870  25.680  10.759  11.996
73938W        W37871  31.103  23.097   1.839
73939W        W37872  27.689  34.586   1.443
73940W        W37873  18.054   5.285   3.834
73941W        W37874  11.186  23.635  13.984
73942W        W37875  34.463   9.243   0.764
73943W        W37876   2.859  18.765  14.009
73944W        W37877  24.683   7.896  10.561
73945W        W37878  41.413   2.232   2.808
73946W        W37879  11.133  27.554  10.525
73947W        W37880  24.713  28.618  12.886
73948W        W37881  35.998  11.280   1.817
73949W        W37882  43.816  40.456  12.836
73950W        W37883  13.689   8.734  14.431
73951W        W37884  12.837  23.649   4.113
73952W        W37885  24.563   7.739  11.110
73953W        W37886  13.140  11.855  13.826
73954W        W37887  32.452  13.811  13.960
73955W        W37888  23.204  37.888   3.221
73956W        W37889  13.304  44.339  14.362
73957W        W37890  16.766  36.402   9.960
73958W        W37891  44.368   7.910   0.859
73959W        W37892  36.086  10.344  14.001
73960W        W37893  36.592   3.436  11.478
73961W        W37894  28.530  30.638  12.837
73962W        W37895  11.364   6.858  11.009
73963W        W37896  31.468  40.471   2.242
73964W        W37897  11.755  26.158  10.992
73965W        W37898  35.051   3.796  12.823
73966W        W37899  21.142  14.598   2.360
73967W        W37900   1.736  12.128   0.951
73968W        W37901  32.596   2.349   2.254
73969W        W37902  41.360   0.398  12.571
73970W        W37903  18.145  35.053  12.833
73971W        W37904  34.610  36.953   0.848
73972W        W37905  19.080  10.203  14.878
73973W        W37906  20.141  24.687   3.823
73974W        W37907  32.921  32.972  14.436
73975W        W37908  30.989  14.670   1.321
73976W        W37909  23.683  11.782   5.278
73977W        W37910  18.579   6.304   3.664
73978W        W37911  14.121  23.525   3.167
73979W        W37912  43.472  22.203  12.505
73980W        W37913  33.967  44.887  11.943
73981W        W37914  29.042  13.310   0.311
73982W        W37915   5.692   3.776  14.965
73983W        W37916  44.758   9.346  14.946
73984W        W37917  10.718  40.383  12.485
73985W        W37918  27.087  42.452  14.472
73986W        W37919  12.138   2.385   1.774
73987W        W37920  19.619  18.107   1.219
73988W        W37921  41.793  33.564   9.969
73989W        W37922   6.313  40.994   4.276
73990W        W37923   2.269  20.106   2.733
73991W        W37924  38.429   3.246  13.388
73992W        W37925  26.535  19.534  10.009
73993W        W37926  37.899  22.624   2.381
73994W        W37927  33.123  28.076   3.146
73995W        W37928  37.991  37.560  13.881
73996W        W37929  26.507   9.337  13.799
73997W        W37930  16.106  27.015   2.219
73998W        W37931  29.950  23.075   1.451
73999W        W37932  42.905  30.109  13.408
74000W        W37933  10.164  13.826  13.975
74001W        W37934  37.376  42.443   1.221
74002W        W37935  38.378  42.443   4.687
74003W        W37936  37.976  27.174   3.158
74004W        W37937  23.110  40.890  14.796
74005W        W37938  37.888  14.285   0.906
74006W        W37939  43.790  25.701  11.095
74007W        W37940   0.972  43.812   4.293
74008W        W37941  38.398  13.262  10.416
74009W        W37942  21.599   9.753   1.915
74010W        W37943  28.489  25.666  13.384
74011W        W37944  30.950  12.193  14.299
74012W        W37945  39.405  10.768  11.125
74013W        W37946  38.355  41.348  11.532
74014W        W37947  28.525  18.235   1.395
74015W        W37948  26.055  14.314   1.427
74016W        W37949  20.758  29.974   2.230
74017W        W37950  39.523   2.394   0.838
74018W        W37951   0.293  23.054  13.329
74019W        W37952   0.337  30.091   3.829
74020W        W37953  38.994  10.345   4.796
74021W        W37954  22.143  26.185  10.529
74022W        W37955  42.939   4.872   0.922
74023W        W37956  27.548  30.636   4.265
74024W        W37957  39.413   0.854  11.518
74025W        W37958  12.257  11.284  12.068
74026W        W37959  11.155  35.502  11.464
74027W        W37960   3.835  18.596  12.881
74028W        W37961  14.175  23.085   2.740
74029W        W37962   9.649  21.552   2.344
74030W        W37963  15.776  39.447  10.898
74031W        W37964  43.497   4.437  12.438
74032W        W37965   5.924  15.125   1.919
74033W        W37966  18.141  11.794   0.467
74034W        W37967   8.318   3.425  10.580
74035W        W37968   7.266  25.046   2.384
74036W        W37969  38.535  28.054   4.273
74037W        W37970  30.162   5.420   2.718
74038W        W37971  16.651   2.321  12.470
74039W        W37972  19.091  37.922   4.829
74040W        W37973  36.846  42.447   1.357
74041W        W37974  44.858  42.988  11.592
74042W        W37975  13.237  12.784  13.498
74043W        W37976  15.672  38.840   3.315
74044W        W37977  36.079  33.412  12.960
74045W        W37978   8.323  29.982  13.042
74046W        W37979  33.564   9.644  14.442
74047W        W37980  35.413  40.347   3.343
74048W        W37981  37.517  11.694   4.823
74049W        W37982   5.778  41.385   3.376
74050W        W37983  35.023   6.219  11.109
74051W        W37984  19.142   9.865   4.631
74052W        W37985  42.365  33.560   0.404
74053W        W37986   5.814   0.275  10.918
74054W        W37987  30.972  32.961   0.872
74055W        W37988  26.958  12.274  10.441
74056W        W37989  39.539   1.378   0.430
74057W        W37990  20.663  26.993  14.998
74058W        W37991  35.445   3.853   3.352
74059W        W37992  38.054  10.143   2.884
74060W        W37993  21.564  18.707   0.453
74061W        W37994  32.029   3.906  10.524
74062W        W37995   3.754  34.431  12.432
74063W        W37996  43.391   2.239  14.369
74064W        W37997  29.993  36.081  13.517
74065W        W37998  35.048  34.119   0.396
74066W        W37999  21.116  33.564  10.933
74067W        W38000  32.419   7.224  10.625
74068W        W38001  19.745   2.907  14.829
74069W        W38002  17.584  40.489   2.262
74070W        W38003  19.112  27.087   3.262
74071W        W38004  43.789  17.303   2.771
74072W        W38005   0.396  30.659  14.803
74073W        W38006  11.369  38.016  12.090
74074W        W38007   5.200  23.713   3.169
74075W        W38008  11.687  11.223   0.925
74076W        W38009  15.645  44.474   0.759
74077W        W38010  38.528  31.108   0.936
74078W        W38011  13.738   5.251  10.049
74079W        W38012   3.381  11.150  12.934
74080W        W38013  17.633  19.047   2.224
74081W        W38014   0.973  41.312   1.430
74082W        W38015   1.746  35.435  13.534
74083W        W38016  32.417  16.694   3.834
74084W        W38017  34.069  30.462   3.756
74085W        W38018  37.477  24.538   0.914
74086W        W38019  36.072  33.055   3.867
74087W        W38020  35.484   1.923  10.920
74088W        W38021  25.485  29.945  12.949
74089W        W38022  25.688  25.190  12.475
74090W        W38023  41.492  36.862  13.917
74091W        W38024  16.109  41.915   2.409
74092W        W38025  42.426  21.244  14.278
74093W        W38026   5.723   5.878   1.758
74094W        W38027   8.767  25.527   2.225
74095W        W38028   4.221   3.389   2.902
74096W        W38029  13.221   5.706  11.473
74097W        W38030  33.494  38.833   3.664
74098W        W38031  44.850  14.707  10.481
74099W        W38032   0.249  40.891  14.289
74100W        W38033   5.330  11.691   4.264
74101W        W38034  41.945   5.893   4.791
74102W        W38035  24.133  30.123   3.838
74103W        W38036  41.916  17.123   1.737
74104W        W38037  43.974  37.504   0.856
74105W        W38038  22.590  43.892  14.963
74106W        W38039   1.932  29.658   0.792
74107W        W38040  30.085   9.154   2.840
74108W        W38041  35.090  12.713  14.995
74109W        W38042  40.358  31.111  14.513
74110W        W38043  21.070  28.525  10.479
74111W        W38044  16.238   8.353  10.549
74112W        W38045  31.095  12.342  12.500
74113W        W38046  38.425  39.375   1.234
74114W        W38047  39.937   1.892   0.463
74115W        W38048  24.088  31.425  12.453
74116W        W38049   0.867  44.381   4.118
74117W        W38050  38.551  33.017  12.848
74118W        W38051   0.838  16.285  11.576
74119W        W38052  33.407  42.418  14.304
74120W        W38053  40.385  15.781   1.792
74121W        W38054   7.208  29.972  11.539
74122W        W38055   3.884  14.232  13.002
74123W        W38056  22.071   6.869   4.226
74124W        W38057  22.066   1.840  14.361
74125W        W38058  32.081  28.976   2.276
74126W        W38059  35.031   8.873  14.426
74127W        W38060  17.232  37.569  14.509
74128W        W38061   8.315  25.052   4.247
74129W        W38062  11.236  25.513  13.812
74130W        W38063  40.489  19.771   2.225
74131W        W38064  31.578  18.584   3.801
74132W        W38065  27.658   6.870   3.732
74133W        W38066  19.140  34.871   1.840
74134W        W38067  19.194  10.365  10.516
74135W        W38068  15.299   8.344  10.903
74136W        W38069  16.725  13.608   0.805
74137W        W38070  36.404  32.393  14.309
74138W        W38071  16.288   1.837  12.070
74139W        W38072  26.180  27.627  14.309
74140W        W38073  44.874  22.564  10.531
74141W        W38074  32.031  26.118  14.393
74142W        W38075  20.030  37.002  10.451
74143W        W38076  34.950  16.678  13.461
74144W        W38077  19.584   0.449  13.961
74145W        W38078   4.429   2.855  13.996
74146W        W38079  41.414  30.506   3.841
74147W        W38080   5.739   0.485   2.382
74148W        W38081  37.456  41.506  14.458
74149W        W38082  24.682  36.578   2.185
74150W        W38083  27.051   8.817  14.340
74151W        W38084  40.478   7.326   1.814
74152W        W38085  27.646   5.765  12.973
74153W        W38086   2.336  27.644  13.317
74154W        W38087  28.137  22.577   3.752
74155W        W38088  30.567  23.238  11.590
74156W        W38089  31.113   4.407  14.354
74157W        W38090  33.449   5.396   2.686
74158W        W38091  20.747  28.171   1.279
74159W        W38092  16.589  42.033  14.371
74160W        W38093  15.661  18.626  12.902
74161W        W38094  22.246   3.331  12.058
74162W        W38095  39.922   8.750   0.388
74163W        W38096  22.573  19.236  13.379
74164W        W38097  33.521  36.399  12.574
74165W        W38098  44.392  28.455   2.315
74166W        W38099  12.683   8.850   4.301
74167W        W38100   5.328  15.126   4.186
74168W        W38101  38.540   9.347   1.439
74169W        W38102  29.595  15.770  12.825
74170W        W38103  34.901  24.564  14.807
74171W        W38104  34.531  22.203   2.326
74172W        W38105   3.805   0.753  14.458
74173W        W38106   0.958  18.629   0.362
74174W        W38107  42.788   8.249  14.925
74175W        W38108   7.342  35.978   1.758
74176W        W38109  33.443   3.324   4.305
74177W        W38110  26.505   4.389  13.801
74178W        W38111  16.723  23.546   1.916
74179W        W38112   3.932  18.258   1.744
74180W        W38113  34.535  18.556  11.926
74181W        W38114  31.419  23.040   1.818
74182W        W38115  33.601  21.028  10.972
74183W        W38116  26.699   3.308   4.834
74184W        W38117  26.542  35.449  13.994
74185W        W38118  13.289  33.389  14.002
74186W        W38119  28.000  43.280  11.453
74187W        W38120   1.277  37.054   4.240
74188W        W38121  38.474  28.934   3.704
74189W        W38122  27.979  34.514  14.949
74190W        W38123  27.953   9.392   3.381
74191W        W38124  19.091   1.866  14.952
74192W        W38125  31.979  38.413  12.476
74193W        W38126  21.696  34.526   3.363
74194W        W38127   9.851  41.023   3.224
74195W        W38128  13.179   6.762  11.907
74196W        W38129  33.090  27.672   2.740
74197W        W38130  28.577   0.925   4.763
74198W        W38131  27.076  41.881  12.092
74199W        W38132  41.460  39.911  11.953
74200W        W38133  37.849  43.298   2.677
74201W        W38134  34.443   6.687  13.434
74202W        W38135  21.657  39.948   1.907
74203W        W38136  14.137   7.330   3.216
74204W        W38137  39.910  39.875  13.532
74205W        W38138  20.665  18.757   1.272
74206W        W38139  43.478  25.705  11.510
74207W        W38140  25.664   1.823   3.807
74208W        W38141  23.003  19.697   1.370
74209W        W38142  37.854  15.227  11.054
74210W        W38143  36.468  37.557  11.396
74211W        W38144  13.705  28.025  14.936
74212W        W38145  37.970  34.534   1.877
74213W        W38146   0.925  13.283  12.861
74214W        W38147  26.005  41.811   4.152
74215W        W38148  25.138  12.837  12.993
74216W        W38149  10.236   0.949   4.341
74217W        W38150  42.829  23.067   1.731
74218W        W38151   1.247  19.721   1.288
74219W        W38152  43.405   9.863  11.556
74220W        W38153  27.595  23.680  13.966
74221W        W38154  17.141  36.426  10.416
74222W        W38155  29.952  34.875   4.810
74223W        W38156  10.196  39.860   0.403
74224W        W38157  25.056   2.334   4.167
74225W        W38158   8.243  22.688  10.624
74226W        W38159  17.232  23.075   1.715
74227W        W38160  26.163  11.658   4.191
74228W        W38161  38.554  12.650  11.024
74229W        W38162  33.418  18.736   0.768
74230W        W38163  27.034  38.393  12.012
74231W        W38164  29.093  11.133   3.172
74232W        W38165  20.083  23.157  12.075
74233W        W38166   6.274   9.241   4.120
74234W        W38167   3.861  20.602  10.634
74235W        W38168  40.001  18.070   0.823
74236W        W38169  38.537  10.672   0.322
74237W        W38170   5.910  12.759  13.931
74238W        W38171   6.188  14.808   0.462
74239W        W38172  11.668   4.945  10.487
74240W        W38173  38.831  30.101  10.514
74241W        W38174  35.063  22.534   2.696
74242W        W38175  39.904  14.239   4.332
74243W        W38176  27.072  11.712  10.940
74244W        W38177  43.800   0.341  13.050
74245W        W38178  28.619  15.740  14.872
74246W        W38179  18.277  20.540  14.892
74247W        W38180   7.353  37.070  13.005
74248W        W38181  16.074  31.570   3.815
74249W        W38182  29.090  35.430  12.943
74250W        W38183   7.291  31.467  12.416
74251W        W38184   8.227  37.399  11.022
74252W        W38185  35.492   7.245   3.675
74253W        W38186  37.846  33.998   0.877
74254W        W38187  38.910   6.714  10.613
74255W        W38188  10.275  25.052  13.386
74256W        W38189  19.090  33.491   3.804
74257W        W38190  40.889   3.773  12.891
74258W        W38191  26.560  14.635  11.037
74259W        W38192   7.288  23.081   2.384
74260W        W38193  18.270   9.208  10.519
74261W        W38194  27.119  18.199  12.356
74262W        W38195  23.657  20.068  14.770
74263W        W38196  22.012  22.596  11.464
74264W        W38197  37.897  24.089   3.295
74265W        W38198  31.467  18.671   1.230
74266W        W38199   6.885  44.788   0.770
74267W        W38200  10.865  11.322   2.891
74268W        W38201  21.751  16.173  10.531
74269W        W38202  23.580   8.806   1.323
74270W        W38203  30.451  17.266  12.458
74271W        W38204  19.194  15.241   2.829
74272W        W38205  39.556  26.154   2.335
74273W        W38206  37.074  22.115  11.920
74274W        W38207  14.233   4.429   4.235
74275W        W38208  44.786   6.769  11.463
74276W        W38209  18.097  22.042   1.735
74277W        W38210  42.863  17.576  11.078
74278W        W38211  34.073  14.251  12.360
74279W        W38212  27.004  19.746  11.457
74280W        W38213   0.827  22.188  12.486
74281W        W38214   3.440   1.881   3.829
74282W        W38215  43.823  28.447   2.776
74283W        W38216  15.770   4.344   0.299
74284W        W38217  20.223  16.127   0.448
74285W        W38218  31.143   9.301  12.447
74286W        W38219  37.483  43.005   1.724
74287W        W38220  11.370  10.776  12.549
74288W        W38221  10.667   2.780   4.707
74289W        W38222   3.384   1.440  11.430
74290W        W38223  35.576  12.623   1.870
74291W        W38224  32.499  12.258   0.437
74292W        W38225   6.923  38.013  11.875
74293W        W38226  32.972  31.501   2.738
74294W        W38227   2.837  18.165  11.593
74295W        W38228   9.820  28.451  11.954
74296W        W38229  25.505  28.474   3.760
74297W        W38230  39.433  30.601  11.868
74298W        W38231  36.442  43.905  11.438
74299W        W38232  24.030  20.575  11.998
74300W        W38233  40.861  17.135  11.862
74301W        W38234  43.305  31.610  14.350
74302W        W38235  44.306   8.197  13.932
74303W        W38236  10.752  26.016   1.735
74304W        W38237  23.581   8.176   5.238
74305W        W38238   5.745   5.806  13.820
74306W        W38239  41.480  19.196  11.098
74307W        W38240  34.068  12.666  10.990
74308W        W38241  11.719  35.927  14.955
74309W        W38242  27.595  34.106   2.227
74310W        W38243   0.981  42.384  14.328
74311W        W38244  12.275  25.051   0.454
74312W        W38245  12.737  12.271   1.726
74313W        W38246  22.217  34.919  11.009
74314W        W38247  10.840   6.384  12.497
74315W        W38248  11.824  30.459   3.196
74316W        W38249  32.908  13.606   0.351
74317W        W38250  16.281  33.100   1.876
74318W        W38251  30.602   6.391   0.446
74319W        W38252   5.866  19.540   2.757
74320W        W38253  17.251   6.228   3.840
74321W        W38254  33.500  15.793   0.472
74322W        W38255  28.509  16.585  10.515
74323W        W38256  34.538   0.381  14.863
74324W        W38257   1.746  28.082   1.912
74325W        W38258   5.419  16.713  12.852
74326W        W38259  33.470  21.057  13.855
74327W        W38260  15.604  26.073   0.464
74328W        W38261  18.727   6.188   1.743
74329W        W38262  36.982  42.296  13.816
74330W        W38263  12.745   8.876  11.484
74331W        W38264  10.149  19.609   4.267
74332W        W38265   5.204  26.052  13.931
74333W        W38266  28.122   7.399  11.897
74334W        W38267  21.249  30.440  13.396
74335W        W38268  13.736  36.878  13.937
74336W        W38269  30.037  37.350   4.801
74337W        W38270  37.857  28.673  14.369
74338W        W38271  18.117  21.580   4.207
74339W        W38272   6.338  29.938  11.867
74340W        W38273  25.668  34.891  11.019
74341W        W38274   6.322  17.254  10.052
74342W        W38275   4.880   7.845   3.354
74343W        W38276  40.864  28.444  12.912
74344W        W38277  39.330  28.178  13.972
74345W        W38278  33.560   6.920   4.229
74346W        W38279  43.932   0.921  13.317
74347W        W38280  37.375  27.592  12.830
74348W        W38281  35.513  32.963   2.865
74349W        W38282  13.655  14.124   3.805
74350W        W38283  37.868   6.889  14.377
74351W        W38284  36.948  42.495   2.880
74352W        W38285   5.743  16.628   2.281
74353W        W38286  10.281  25.514   4.189
74354W        W38287  25.192  35.084  11.913
74355W        W38288   6.404  26.601  10.891
74356W        W38289  28.465  38.951   3.675
74357W        W38290  42.998  14.790   1.838
74358W        W38291   6.415  42.373  12.537
74359W        W38292   0.966  23.072   3.722
74360W        W38293  29.073  24.003   0.839
74361W        W38294  26.531  38.984  13.342
74362W        W38295  39.438  34.064  12.552
74363W        W38296  36.439  24.195  10.924
74364W        W38297   1.884  44.401   1.852
74365W        W38298  11.698  36.397   1.856
74366W        W38299   7.367   9.887   2.288
74367W        W38300   1.468   7.912  13.470
74368W        W38301  24.720   8.863   4.736
74369W        W38302   7.860  11.296   4.773
74370W        W38303  20.559  42.311  13.056
74371W        W38304  25.031  35.429  10.448
74372W        W38305   0.331  14.130  14.023
74373W        W38306  40.810   0.912  12.823
74374W        W38307  27.016   4.381   1.762
74375W        W38308  14.113  31.616   0.768
74376W        W38309   8.767  39.315  14.832
74377W        W38310  14.294  26.688   0.343
74378W        W38311  18.781   0.249  10.512
74379W        W38312  26.133  26.162   0.338
74380W        W38313  40.909  20.074  14.013
74381W        W38314  10.814  24.105   4.723
74382W        W38315  24.626  10.723   0.375
74383W        W38316  44.334   2.828  14.023
74384W        W38317  25.153  41.460   2.774
74385W        W38318  28.089  44.862   3.789
74386W        W38319  42.435  40.990   3.816
74387W        W38320  42.425  33.922  12.540
74388W        W38321  13.240   4.264   0.439
74389W        W38322  31.066  28.527  14.843
74390W        W38323  29.124  25.529  13.380
74391W        W38324   3.435  41.426   0.795
74392W        W38325  24.062   0.471   1.425
74393W        W38326  14.685  10.280   1.737
74394W        W38327  12.161  32.106   4.724
74395W        W38328   4.852  31.033   0.385
74396W        W38329  19.164   1.788  10.505
74397W        W38330  24.093  33.515  10.517
74398W        W38331  37.508  10.735   2.838
74399W        W38332  16.649   1.793   3.254
74400W        W38333  32.437   6.322   0.473
74401W        W38334  21.050  32.586  10.909
74402W        W38335  29.526  35.087   2.788
74403W        W38336   0.277  14.179  12.863
74404W        W38337  37.878  40.528   0.799
74405W        W38338  11.333   0.405  14.436
74406W        W38339  43.779   7.404  11.103
74407W        W38340   5.398   2.425   4.750
74408W        W38341   3.381  12.706  13.377
74409W        W38342  43.892  22.052   1.807
74410W        W38343   9.733  26.982  14.942
74411W        W38344  34.919  16.292   3.219
74412W        W38345  44.814   3.290  13.801
74413W        W38346  31.996  22.573   4.159
74414W        W38347  18.123  29.535   2.380
74415W        W38348  23.176  22.615   3.181
74416W        W38349  17.245  22.698  14.380
74417W        W38350  43.768  39.994   0.945
74418W        W38351   8.656  37.448  10.919
74419W        W38352  39.054   2.814  13.023
74420W        W38353  16.102  41.380  12.384
74421W        W38354   2.795  32.508   2.799
74422W        W38355  38.049   2.965  14.782
74423W        W38356  19.605  30.476  14.855
74424W        W38357  27.152  28.494  13.428
74425W        W38358  32.114  37.895   3.219
74426W        W38359  25.068  28.049   0.749
74427W        W38360   1.914  23.628   2.253
74428W        W38361   9.854  31.519   0.351
74429W        W38362   3.432  36.934  11.872
74430W        W38363  33.944  31.557   1.800
74431W        W38364  19.152  10.831   3.694
74432W        W38365  30.418  19.049  14.885
74433W        W38366   9.177   7.689  12.363
74434W        W38367  33.449  38.441   0.858
74435W        W38368  15.259  21.252   2.857
74436W        W38369  13.796  33.118  11.404
74437W        W38370  16.588   7.862  11.461
74438W        W38371  44.906   0.778  13.548
74439W        W38372  36.552  24.106   5.181
74440W        W38373  22.198  25.636   2.665
74441W        W38374  19.558  24.181   0.261
74442W        W38375  41.014  25.143   2.247
74443W        W38376  21.647  41.362  14.514
74444W        W38377   3.321   4.925   0.467
74445W        W38378  38.407  33.095  14.822
74446W        W38379  33.128  39.336   3.723
74447W        W38380  24.204  35.032   5.255
74448W        W38381  26.605  29.026   0.812
74449W        W38382  22.558  30.421  13.062
74450W        W38383  25.160  33.020   3.817
74451W        W38384  35.895   4.864  12.484
74452W        W38385  13.226   6.421  13.939
74453W        W38386  31.596  11.176  13.812
74454W        W38387  11.219   2.771   0.336
74455W        W38388  26.163  38.975  11.589
74456W        W38389  23.520  24.576  11.406
74457W        W38390  18.643  34.466  13.414
74458W        W38391  33.485  33.501   1.806
74459W        W38392  34.943  21.195   0.736
74460W        W38393  40.802  44.499   3.346
74461W        W38394  41.385  36.041  14.929
74462W        W38395  14.629  22.124   1.838
74463W        W38396  19.592  42.388  11.077
74464W        W38397  18.627  39.874  13.831
74465W        W38398  25.495  44.897   9.573
74466W        W38399  41.856  12.273   0.360
74467W        W38400   2.300   8.180  11.594
74468W        W38401  35.440  36.545  11.871
74469W        W38402   2.407  36.571  11.417
74470W        W38403  21.683   6.854  14.778
74471W        W38404  29.990  15.329  13.534
74472W        W38405  14.177  20.210   5.189
74473W        W38406  21.700   5.223   0.293
74474W        W38407  27.574  41.850   3.737
74475W        W38408  13.606   0.926  10.419
74476W        W38409  35.099   1.441  14.951
74477W        W38410   7.887  19.668  11.120
74478W        W38411  10.642  12.673   3.826
74479W        W38412  33.010  18.734   1.243
74480W        W38413   5.883   7.232  13.365
74481W        W38414  30.044   0.353   0.382
74482W        W38415   6.343  21.149  11.037
74483W        W38416  21.175  32.520   3.347
74484W        W38417  17.093   3.298  12.416
74485W        W38418  27.651  36.421  14.793
74486W        W38419  31.456  36.057   4.254
74487W        W38420   5.822  14.148   3.287
74488W        W38421  17.799  33.104  13.442
74489W        W38422   2.320  41.918   3.368
74490W        W38423  42.410  25.183  14.809
74491W        W38424  24.148  39.042   2.894
74492W        W38425  43.938  38.037  10.908
74493W        W38426  43.330  34.895  11.929
74494W        W38427  11.825   9.852   4.735
74495W        W38428  32.405   7.248  11.996
74496W        W38429   5.876  38.867  11.600
74497W        W38430  12.827   9.173  13.898
74498W        W38431   5.793   6.377  14.860
74499W        W38432   7.912   6.371  11.553
74500W        W38433  14.759  18.122   3.721
74501W        W38434  10.748  38.980   2.717
74502W        W38435  16.688  30.090  11.596
74503W        W38436  26.048  39.884  13.953
74504W        W38437  15.324   8.309   3.337
74505W        W38438  22.120  17.626   4.310
74506W        W38439   0.814   6.833  14.313
74507W        W38440  44.263  36.556  12.500
74508W        W38441  14.114  42.361   1.334
74509W        W38442  13.734  18.747   4.257
74510W        W38443  31.056  23.652  14.388
74511W        W38444   1.355  40.359  10.415
74512W        W38445  23.649  41.333   4.718
74513W        W38446   4.754  36.051  13.794
74514W        W38447  21.648  16.207  11.934
74515W        W38448  33.086  44.414   1.770
74516W        W38449  37.396   5.388  10.446
74517W        W38450  27.100  22.250   1.368
74518W        W38451  32.397  29.970  12.576
74519W        W38452  43.795   0.846  11.093
74520W        W38453   2.400  31.638   1.250
74521W        W38454  23.497  20.627  14.286
74522W        W38455  35.038  44.972  12.446
74523W        W38456  43.363   7.178  12.386
74524W        W38457  30.609  44.303  12.386
74525W        W38458  17.766  13.735  13.339
74526W        W38459  21.726  14.734  12.868
74527W        W38460  10.768  13.622  13.996
74528W        W38461  17.636  21.250   5.246
74529W        W38462  33.091  28.541   3.760
74530W        W38463   6.870  13.786  14.418
74531W        W38464   6.353  11.677   3.650
74532W        W38465  31.896  18.242   3.828
74533W        W38466   5.319  37.368  14.887
74534W        W38467  41.977   1.842   5.303
74535W        W38468  34.494  28.041   1.846
74536W        W38469  44.883  22.142  13.371
74537W        W38470  14.789  35.102   3.283
74538W        W38471   8.178   4.445  12.075
74539W        W38472  19.587  31.972   4.778
74540W        W38473  28.944  39.433  13.518
74541W        W38474  18.255   4.916   0.346
74542W        W38475   9.262  24.014  14.772
74543W        W38476  18.221  40.349  10.454
74544W        W38477  15.765  19.071   4.134
74545W        W38478  35.916  32.488  13.834
74546W        W38479  37.389   5.393  13.903
74547W        W38480  43.909  20.267   4.668
74548W        W38481  13.643   2.326   3.639
74549W        W38482  19.672  38.887  14.491
74550W        W38483  10.863   0.315   4.751
74551W        W38484   9.247   5.754   2.228
74552W        W38485  27.984  10.184   2.781
74553W        W38486  32.569   5.366   3.170
74554W        W38487  17.300  19.611   1.349
74555W        W38488  32.028   5.854  10.981
74556W        W38489  30.464  35.857   3.716
74557W        W38490  36.351  35.909   0.893
74558W        W38491  17.677  22.149  13.323
74559W        W38492  41.400  15.234   3.278
74560W        W38493  10.870  20.561  12.834
74561W        W38494  15.150  13.817   4.758
74562W        W38495  18.153  41.981   1.422
74563W        W38496  21.228  37.522   2.233
74564W        W38497  39.009  16.715   2.240
74565W        W38498  23.635  24.693  12.962
74566W        W38499  10.270  37.515  11.505
74567W        W38500  15.281   2.417  10.579
74568W        W38501  15.741  39.386  13.966
74569W        W38502   8.184   7.847   1.862
74570W        W38503   6.399  37.854   1.766
74571W        W38504   3.823   2.884   2.304
74572W        W38505  25.123  18.569  13.364
74573W        W38506   9.735  20.590   2.673
74574W        W38507  17.593  22.016   3.649
74575W        W38508  26.638  26.140   0.444
74576W        W38509  20.063  26.695  11.013
74577W        W38510  41.862  24.120   1.879
74578W        W38511  39.505   2.883  11.104
74579W        W38512  33.988  20.659   1.363
74580W        W38513  17.729  25.541   0.464
74581W        W38514  10.809  37.063  13.442
74582W        W38515  41.808  40.314  12.826
74583W        W38516   9.829   3.912  11.474
74584W        W38517  41.475   8.245   0.380
74585W        W38518  35.428  14.827  10.992
74586W        W38519  22.077  11.308  13.405
74587W        W38520  32.988  10.781   0.867
74588W        W38521  19.060  36.863   1.429
74589W        W38522  23.125   6.257  14.293
74590W        W38523   0.348  34.065   1.439
74591W        W38524  37.074  29.977   3.849
74592W        W38525  12.152   6.348   4.685
74593W        W38526  17.263   6.406  10.119
74594W        W38527  33.517  33.537  14.802
74595W        W38528  14.610  42.417   1.308
74596W        W38529  36.874   3.437   1.228
74597W        W38530  25.212   3.420  11.967
74598W        W38531   9.353  18.713   0.255
74599W        W38532  37.532  39.933   2.901
74600W        W38533  37.353  12.651   2.348
74601W        W38534  39.444  17.594   3.789
74602W        W38535  38.836   9.841   4.267
74603W        W38536  11.656  16.095   0.444
74604W        W38537   9.256  28.474   0.347
74605W        W38538  41.528  30.616  14.966
74606W        W38539   1.272  12.712   2.839
74607W        W38540  17.144  10.878   2.714
74608W        W38541  33.046  42.017   2.380
74609W        W38542  37.463  35.100   0.324
74610W        W38543  44.320  40.328   4.195
74611W        W38544  36.889   0.349   4.290
74612W        W38545  36.526  32.506  13.923
74613W        W38546  41.987  41.336  14.325
74614W        W38547  11.162  41.923  12.969
74615W        W38548  14.739  16.169   2.826
74616W        W38549   6.889  29.595  13.337
74617W        W38550  39.020  44.782  11.001
74618W        W38551  16.600  25.080  12.538
74619W        W38552   9.286  34.428  13.399
74620W        W38553  43.278  33.103  14.326
74621W        W38554  16.161   3.266   1.736
74622W        W38555  15.709  24.126   2.213
74623W        W38556  42.470  26.979   1.864
74624W        W38557   7.210  23.130  12.519
74625W        W38558  25.474  12.361   3.229
74626W        W38559  20.740  32.408   0.786
74627W        W38560  41.868  18.079  11.880
74628W        W38561  29.512  40.809  14.412
74629W        W38562  19.048  40.908  10.449
74630W        W38563  14.273  16.253   1.875
74631W        W38564  43.886  40.404  14.977
74632W        W38565  23.565   6.411  10.935
74633W        W38566   1.248  11.859   1.258
74634W        W38567   2.304  41.368   4.778
74635W        W38568  22.681  27.983   1.445
74636W        W38569  19.690  27.068  13.344
74637W        W38570  28.567  10.381   3.701
74638W        W38571  13.752   6.224   0.912
74639W        W38572  40.410  17.568   0.255
74640W        W38573  31.524  24.023   1.232
74641W        W38574  26.202  19.156  10.441
74642W        W38575  33.615  14.639   1.443
74643W        W38576   4.718  33.589   4.637
74644W        W38577   7.849  14.775   2.184
74645W        W38578  43.447   3.918   4.131
74646W        W38579  41.518  12.717   0.418
74647W        W38580   6.730  43.502   3.726
74648W        W38581  22.099  32.971   4.313
74649W        W38582  38.053   7.296   2.264
74650W        W38583   0.292  43.491   1.296
74651W        W38584  29.603  42.881  14.784
74652W        W38585  20.030  40.527   5.261
74653W        W38586  15.132  43.806  14.020
74654W        W38587   2.374   9.224   1.883
74655W        W38588  12.238   1.745   0.271
74656W        W38589   9.193  41.845   0.299
74657W        W38590  12.779  16.582  12.533
74658W        W38591   7.817   6.883   3.633
74659W        W38592  15.737  36.094   4.306
74660W        W38593  28.464   6.377   4.175
74661W        W38594  30.425  39.395   4.311
74662W        W38595  32.017  27.669  13.394
74663W        W38596  27.534   8.389  14.444
74664W        W38597  24.609  44.289   5.130
74665W        W38598  30.082  22.137   2.186
74666W        W38599  29.652  24.000   2.317
74667W        W38600   0.748  13.802  10.596
74668W        W38601  40.496  14.802  11.923
74669W        W38602  29.472  39.925  13.345
74670W        W38603   3.390  12.795   1.734
74671W        W38604  41.381  38.829   2.380
74672W        W38605  36.501  37.896   1.840
74673W        W38606   0.311   7.249   1.818
74674W        W38607  12.650  12.834  12.066
74675W        W38608   2.273   5.329  11.379
74676W        W38609  11.186  19.692  13.833
74677W        W38610   0.852  42.519  12.566
74678W        W38611   9.279  35.866  10.601
74679W        W38612   4.758  32.619   1.420
74680W        W38613   4.318   6.772  12.827
74681W        W38614  26.989  13.206   4.741
74682W        W38615  35.573  34.907   2.231
74683W        W38616  29.079  40.542   3.725
74684W        W38617  28.021  37.477   5.203
74685W        W38618  17.681  43.841   2.817
74686W        W38619   2.431  18.083  10.495
74687W        W38620  38.381  43.764  12.455
74688W        W38621  37.886  14.777   4.796
74689W        W38622  15.199  33.403   2.343
74690W        W38623  31.051  28.108  14.866
74691W        W38624  29.480  12.189   4.296
74692W        W38625  25.639  28.456  11.468
74693W        W38626  19.611  13.247  13.059
74694W        W38627  34.095  30.507  14.797
74695W        W38628  35.907  15.769  10.062
74696W        W38629  34.501  13.662   1.337
74697W        W38630  31.951  14.161  10.601
74698W        W38631  41.420  24.112   0.419
74699W        W38632  17.228   8.883   3.168
74700W        W38633  25.498  14.149   1.332
74701W        W38634  31.545   5.931  10.890
74702W        W38635   8.857  24.543  13.048
74703W        W38636  36.504  37.887   1.256
74704W        W38637  10.635  34.609  10.984
74705W        W38638  19.276  41.868  11.046
74706W        W38639   5.360  21.047   4.334
74707W        W38640  28.027  37.075  11.029
74708W        W38641  44.759   8.296  11.092
74709W        W38642   3.424  40.824  10.923
74710W        W38643  44.341  19.732   1.889
74711W        W38644  10.815  14.286   2.328
74712W        W38645  31.536  37.397   0.436
74713W        W38646  24.158  27.947   3.268
74714W        W38647  31.610  20.106   0.458
74715W        W38648  25.560  31.519   4.130
74716W        W38649  26.581  19.191  13.882
74717W        W38650  28.580  14.309   0.433
74718W        W38651  19.172  14.803  12.046
74719W        W38652  35.939   2.460   0.947
74720W        W38653   8.373  32.077   3.763
74721W        W38654   5.215  12.653   2.875
74722W        W38655   9.653  41.353   4.787
74723W        W38656   3.728   7.671   0.431
74724W        W38657   2.778   0.394   4.265
74725W        W38658  35.478  35.453  12.939
74726W        W38659  17.585  15.185  14.358
74727W        W38660  31.608  20.578   2.257
74728W        W38661  12.812  31.971   3.853
74729W        W38662   4.347  22.516   0.382
74730W        W38663  34.598  32.501   0.886
74731W        W38664   8.214  29.089   1.304
74732W        W38665  19.125  39.419  14.872
74733W        W38666   9.171  12.332  14.315
74734W        W38667  42.511  14.240  10.910
74735W        W38668  37.440  31.515  14.346
74736W        W38669  13.654  38.460   2.410
74737W        W38670  27.515  12.703  12.479
74738W        W38671  37.049  43.433   4.658
74739W        W38672  29.654  17.061  10.621
74740W        W38673  20.716  22.095   1.767
74741W        W38674   1.299   1.841   3.225
74742W        W38675   8.279  32.452  12.389
74743W        W38676   7.677   8.210   0.288
74744W        W38677   7.259  40.309   3.371
74745W        W38678  22.250  14.601   2.703
74746W        W38679   1.735  27.098   1.705
74747W        W38680   4.425  41.343   0.846
74748W        W38681  31.404  27.453  10.969
74749W        W38682   8.352  20.216  10.621
74750W        W38683   2.826  25.046   4.795
74751W        W38684  23.225  32.440  12.093
74752W        W38685  43.283  32.900   0.886
74753W        W38686  25.597  28.024  11.032
74754W        W38687  29.060  27.007   0.390
74755W        W38688  25.975   5.365   0.786
74756W        W38689  25.468  27.060   3.310
74757W        W38690  34.117  31.915  14.802
74758W        W38691  36.031  18.257  13.947
74759W        W38692  25.074   9.210   3.631
74760W        W38693  34.015   4.403  12.832
74761W        W38694  41.360  13.837   4.196
74762W        W38695  36.565  31.907  13.359
74763W        W38696   4.340   5.928   0.756
74764W        W38697  17.609  42.358   1.210
74765W        W38698  15.275  36.987   3.820
74766W        W38699   3.455   2.754   2.801
74767W        W38700   4.246  14.168   4.167
74768W        W38701  39.041  24.080  11.404
74769W        W38702  16.308  22.104  11.069
74770W        W38703  20.704  25.161  12.358
74771W        W38704  40.422  34.568   0.866
74772W        W38705   4.208  40.352   3.247
74773W        W38706  40.952   3.718   1.251
74774W        W38707  44.445  30.004  12.028
74775W        W38708  39.350   6.738  11.496
74776W        W38709   0.751  31.950  13.062
74777W        W38710  20.531  34.598  11.915
74778W        W38711  38.457   2.958   3.165
74779W        W38712  14.300  40.009   0.958
74780W        W38713  17.755  34.562  14.781
74781W        W38714   7.266  11.198  11.064
74782W        W38715   2.867  25.642   2.185
74783W        W38716  13.757  38.954   1.831
74784W        W38717  37.918  38.957  14.772
74785W        W38718   8.817  24.567  14.279
74786W        W38719  43.296  38.503  12.503
74787W        W38720  31.046  18.053   1.239
74788W        W38721  10.756  28.436  10.522
74789W        W38722   3.942  21.196  10.899
74790W        W38723  17.626  15.634   3.334
74791W        W38724   8.814  13.267  11.855
74792W        W38725  20.674  32.392  11.603
74793W        W38726  15.634  22.706  14.383
74794W        W38727  12.304  17.087  14.900
74795W        W38728  42.796   1.894   4.710
74796W        W38729  42.402  26.061  10.942
74797W        W38730   4.340   8.240  10.507
74798W        W38731  32.407  10.642   4.764
74799W        W38732  16.756   6.746  11.535
74800W        W38733  36.908  14.179  13.435
74801W        W38734  15.242  17.301  14.942
74802W        W38735   1.457   3.384  12.912
74803W        W38736  41.827  11.254  12.387
74804W        W38737  18.700  22.201   0.736
74805W        W38738  11.837  29.137  12.076
74806W        W38739  13.801   3.228  13.927
74807W        W38740  23.681   6.338  14.784
74808W        W38741  11.208  43.001   2.856
74809W        W38742  29.165   4.715  11.936
74810W        W38743   9.810  35.034  11.008
74811W        W38744  11.218  18.220  13.803
74812W        W38745  37.534  33.601   0.263
74813W        W38746  35.521   1.734   3.662
74814W        W38747   1.801   5.893   0.889
74815W        W38748  17.700  23.629  13.830
74816W        W38749   8.721  19.138   3.202
74817W        W38750  15.820  20.201  10.636
74818W        W38751   4.892  21.154   0.285
74819W        W38752  21.564   6.250   2.401
74820W        W38753  36.925   2.440   0.308
74821W        W38754   0.800  29.161  13.807
74822W        W38755  17.579  20.050  11.536
74823W        W38756  40.974   6.854   2.768
74824W        W38757  31.559  25.630  12.358
74825W        W38758  36.554  28.450  13.898
74826W        W38759  28.611   4.311   1.735
74827W        W38760  43.790   7.684   1.786
74828W        W38761   3.908  17.259  13.926
74829W        W38762  40.811  31.585  14.303
74830W        W38763  17.114  25.989   2.877
74831W        W38764  36.997  29.521  13.974
74832W        W38765  35.509  28.618  14.421
74833W        W38766   7.266  24.589   2.753
74834W        W38767   3.709  35.942  11.000
74835W        W38768  16.708  11.678   3.636
74836W        W38769  29.637  43.892  11.542
74837W        W38770   0.322  37.015  12.850
74838W        W38771  15.760  35.540  12.995
74839W        W38772  36.953  32.949   4.262
74840W        W38773  17.628  20.262  13.929
74841W        W38774  35.576   2.938  13.417
74842W        W38775   3.799  10.758   3.811
74843W        W38776  20.122  10.151  12.508
74844W        W38777  30.962  15.258  12.481
74845W        W38778  32.564  14.590  12.831
74846W        W38779  35.417  27.095   0.260
74847W        W38780  15.194  12.309  11.042
74848W        W38781  37.972   7.768  13.476
74849W        W38782  12.295  26.638  14.873
74850W        W38783  24.129  10.733  13.321
74851W        W38784  41.942   2.803   3.781
74852W        W38785  19.074   9.826  10.472
74853W        W38786  26.516  24.230  12.013
74854W        W38787  25.617  15.270  13.345
74855W        W38788  39.445  42.907   0.863
74856W        W38789  29.075  33.423  11.430
74857W        W38790  22.215  43.022  13.993
74858W        W38791  43.415  12.663   2.701
74859W        W38792  13.774  11.751   0.289
74860W        W38793   7.772   7.272  12.067
74861W        W38794  15.654   1.408  10.890
74862W        W38795  26.677  11.773   2.365
74863W        W38796  14.147   3.414  11.065
74864W        W38797   0.410  40.501   1.447
74865W        W38798  34.960  37.845   0.242
74866W        W38799  37.397  22.709   2.384
74867W        W38800  11.150  11.772  10.577
74868W        W38801  40.408  38.379  11.415
74869W        W38802  25.582  18.084  11.916
74870W        W38803  14.813  23.728   0.320
74871W        W38804   3.789   2.739   2.816
74872W        W38805  41.370  37.470  11.955
74873W        W38806  21.041   6.758  13.056
74874W        W38807  32.420  22.589  10.049
74875W        W38808   0.897  35.957   0.904
74876W        W38809  11.820  41.314   4.190
74877W        W38810  28.939  17.705  13.422
74878W        W38811  30.471  28.521  12.016
74879W        W38812   0.420  27.959  11.032
74880W        W38813  19.544   9.189  11.526
74881W        W38814  12.757  24.146  14.969
74882W        W38815  15.241  11.332   3.860
74883W        W38816   1.930   9.183  14.783
74884W        W38817  27.054   3.838  14.450
74885W        W38818  25.598  41.800  13.964
74886W        W38819  25.650  29.997   1.842
74887W        W38820  12.734   9.873  12.545
74888W        W38821  16.794  42.853   4.774
74889W        W38822  18.698  25.191   4.729
74890W        W38823  23.515  19.068  10.907
74891W        W38824  38.353  37.341   1.342
74892W        W38825  29.583  29.657  11.548
74893W        W38826  13.655  37.509  12.852
74894W        W38827   7.807  14.669  10.416
74895W        W38828  39.316  44.362   1.886
74896W        W38829   7.257  27.545  12.530
74897W        W38830   7.277   4.861   3.228
74898W        W38831  21.559  13.199   4.225
74899W        W38832  34.436   2.403  11.008
74900W        W38833   1.886  41.983   3.283
74901W        W38834  17.137  41.792  11.075
74902W        W38835  22.611  10.187  14.788
74903W        W38836  21.181  44.385  14.827
74904W        W38837   1.915  31.433  13.325
74905W        W38838  13.628  42.447   4.325
74906W        W38839   6.696   9.339   1.891
74907W        W38840  15.730  15.278  11.599
74908W        W38841  34.493  31.059  11.459
74909W        W38842  39.010  29.031   4.620
74910W        W38843  44.839  21.647   3.371
74911W        W38844  22.182  32.513  14.857
74912W        W38845  30.117  14.601   4.605
74913W        W38846  44.877   7.711  12.921
74914W        W38847  37.076  35.374   3.199
74915W        W38848  29.474  33.897  10.489
74916W        W38849  28.434  32.569   1.299
74917W        W38850  24.105  43.973   3.671
74918W        W38851  23.567  40.873   1.930
74919W        W38852  11.344  36.054   3.867
74920W        W38853  18.051  14.807  14.332
74921W        W38854  10.720   1.300  11.951
74922W        W38855  36.469  34.910  13.019
74923W        W38856  13.838  39.377  12.368
74924W        W38857  41.945  14.271  12.408
74925W        W38858   9.769  23.648   4.733
74926W        W38859   5.775  23.618  13.960
74927W        W38860  29.068  27.038   4.303
74928W        W38861   7.711  13.347  11.388
74929W        W38862   0.436   4.781  14.940
74930W        W38863  41.005   3.709   0.963
74931W        W38864  37.041  21.582   3.656
74932W        W38865  24.529  15.608   0.378
74933W        W38866  32.964  16.693   3.725
74934W        W38867   0.487  38.397  10.042
74935W        W38868  33.046  16.086   3.210
74936W        W38869   7.720  37.864   1.220
74937W        W38870  14.764   7.760   2.878
74938W        W38871  14.631  33.884   0.912
74939W        W38872  11.773   8.680  13.424
74940W        W38873   3.715  37.017   4.737
74941W        W38874   3.449   1.375   3.707
74942W        W38875  17.603  28.142  11.011
74943W        W38876  19.618  35.373   4.203
74944W        W38877  30.080  30.456   3.284
74945W        W38878  17.158   2.825   3.156
74946W        W38879  14.223   1.834  13.385
74947W        W38880   6.774  25.658  11.100
74948W        W38881  20.635  19.056  12.865
74949W        W38882  40.335  26.057  12.080
74950W        W38883  41.440  22.010   0.837
74951W        W38884   2.847  33.967   0.247
74952W        W38885  11.220   2.852  11.860
74953W        W38886  41.477   3.243  12.562
74954W        W38887  38.844  40.495  11.075
74955W        W38888   7.808  37.863   3.693
74956W        W38889  16.666  35.866  11.952
74957W        W38890  13.692   9.220   1.425
74958W        W38891  38.429  44.365   2.370
74959W        W38892  29.000   5.200  13.974
74960W        W38893  16.792  38.462  11.092
74961W        W38894  22.231  28.473   3.763
74962W        W38895  19.711   1.776   3.850
74963W        W38896  13.674  10.802   3.808
74964W        W38897   2.331  17.294  11.472
74965W        W38898   1.430  37.979  12.898
74966W        W38899  42.780   1.782   2.287
74967W        W38900   9.764  36.997   4.803
74968W        W38901   8.820  35.085  11.125
74969W        W38902   3.442  38.009  12.071
74970W        W38903  10.644  26.969  14.975
74971W        W38904  36.378  28.603  10.449
74972W        W38905  42.411   5.418  14.001
74973W        W38906  29.995  20.635   2.755
74974W        W38907  22.577  18.552  13.916
74975W        W38908  31.436   0.840  10.492
74976W        W38909   2.266  42.012  10.533
74977W        W38910  18.113  14.198  14.367
74978W        W38911  17.192  42.320  12.000
74979W        W38912   0.933  30.071   1.222
74980W        W38913  35.449   9.182   2.225
74981W        W38914   1.821  41.884  13.979
74982W        W38915  36.090  37.446  12.882
74983W        W38916  22.507  31.918   3.150
74984W        W38917  12.693  16.677   2.399
74985W        W38918  27.582  40.809   1.796
74986W        W38919  35.003  39.057  14.359
74987W        W38920  40.004  41.926  14.841
74988W        W38921  24.631   3.369  10.504
74989W        W38922  33.012  33.900  14.370
74990W        W38923  13.642  28.621  11.117
74991W        W38924  44.375  42.870   9.988
74992W        W38925   2.471   7.255   2.367
74993W        W38926  40.818  15.717  12.513
74994W        W38927  10.361  44.771   3.259
74995W        W38928  24.671   2.374  10.630
74996W        W38929  19.682  28.984  14.015
74997W        W38930  26.093  22.104  12.497
74998W        W38931   5.694   6.737   2.360
74999W        W38932  21.106  44.953   3.749
75000W        W38933  33.080  18.699  13.000
75001W        W38934  42.822   0.319   0.936
75002W        W38935  27.627  27.992  14.430
75003W        W38936  16.187  36.552   1.356
75004W        W38937  44.260   7.735   0.275
75005W        W38938  12.816  27.953   1.337
75006W        W38939  33.551  12.704   0.365
75007W        W38940  27.459   2.748  10.905
75008W        W38941  16.589  42.498   0.300
75009W        W38942  44.416  15.142  14.421
75010W        W38943  32.451  30.473  10.965
75011W        W38944  33.959  20.614  10.480
75012W        W38945  10.752  24.000   0.791
75013W        W38946  13.346  20.689   2.270
75014W        W38947  28.517   4.719  12.956
75015W        W38948   0.928  38.489  10.027
75016W        W38949  14.822  32.001   3.311
75017W        W38950  39.321  21.029   2.859
75018W        W38951  34.605  25.069   2.780
75019W        W38952  29.999  33.487   4.705
75020W        W38953   5.764  29.579  14.472
75021W        W38954   6.375  19.667   3.221
75022W        W38955  23.165  32.005  11.582
75023W        W38956  24.112   2.427   0.740
75024W        W38957  36.507  37.029   2.230
75025W        W38958   0.803   5.377   2.744
75026W        W38959   3.753  43.873  12.570
75027W        W38960  42.376  31.024   4.121
75028W        W38961  39.461  34.526  13.536
75029W        W38962  23.151  28.007   4.172
75030W        W38963  15.702  32.577  10.983
75031W        W38964   4.428  26.023   0.475
75032W        W38965  25.993   9.812   3.203
75033W        W38966  31.467   5.737  10.637
75034W        W38967  44.468  34.453  11.392
75035W        W38968  44.328  25.973   1.738
75036W        W38969  35.945   9.874   4.325
75037W        W38970  35.599  33.410   2.683
75038W        W38971  29.024   7.376   4.223
75039W        W38972  10.778  12.148  11.033
75040W        W38973  13.778  10.846  12.835
75041W        W38974  24.061  18.090   0.778
75042W        W38975   1.360  13.769  11.545
75043W        W38976  43.496  14.655  11.436
75044W        W38977  15.751  24.983   5.217
75045W        W38978  14.771  20.595  13.441
75046W        W38979  18.675   0.904  13.521
75047W        W38980  40.395  35.554   2.854
75048W        W38981  25.472  15.277  12.934
75049W        W38982  34.470  13.203  13.410
75050W        W38983  12.321  13.214  13.413
75051W        W38984  25.588  19.655  12.419
75052W        W38985  42.817  33.496   1.426
75053W        W38986  18.283   9.836   1.430
75054W        W38987  15.700   0.324  10.953
75055W        W38988  15.818  10.685   2.214
75056W        W38989  43.773   6.735  10.515
75057W        W38990  30.162  36.448   2.407
75058W        W38991  19.677  22.220   0.251
75059W        W38992  15.737  30.522   3.250
75060W        W38993  15.254   5.906  10.589
75061W        W38994   3.811   3.226   0.794
75062W        W38995   6.784  34.389  13.378
75063W        W38996   8.301  16.718   2.887
75064W        W38997  41.810  34.995  14.418
75065W        W38998  43.930  15.131  10.499
75066W        W38999  26.674  43.785  11.021
75067W        W39000   4.820  11.142  14.860
75068W        W39001  37.843   2.723  12.465
75069W        W39002  25.539  25.017   4.353
75070W        W39003  30.435  21.122   2.874
75071W        W39004   5.821  35.403  10.932
75072W        W39005  35.012  38.883  10.099
75073W        W39006  39.882  24.663   1.277
75074W        W39007  14.120  19.632  14.908
75075W        W39008  12.219  17.183  12.962
75076W        W39009   3.308  15.288  11.985
75077W        W39010   7.904  28.481   4.738
75078W        W39011   5.259  31.647  10.644
75079W        W39012  43.919  10.677  10.463
75080W        W39013  32.090  34.515  12.961
75081W        W39014  14.599   1.249  11.099
75082W        W39015  39.415  17.096   0.859
75083W        W39016  12.181  44.794  11.536
75084W        W39017  12.208   8.216   1.351
75085W        W39018  22.503   2.326   2.350
75086W        W39019   9.240  40.373   3.349
75087W        W39020  20.175  39.480   2.204
75088W        W39021   1.779  40.524   2.357
75089W        W39022  19.109  44.827  13.915
75090W        W39023  44.797  21.751   1.765
75091W        W39024  27.681  13.684   1.223
75092W        W39025  33.011  31.132   1.241
75093W        W39026  14.625  30.090  14.311
75094W        W39027   0.952   8.170  13.546
75095W        W39028  28.988  36.375   1.718
75096W        W39029   6.833  13.708  10.409
75097W        W39030  33.899  34.538   4.294
75098W        W39031  23.176  43.838  11.504
75099W        W39032  11.714  16.123   4.621
75100W        W39033  12.772  34.579  11.065
75101W        W39034  28.068   1.439   1.354
75102W        W39035   3.743  26.153  11.947
75103W        W39036  31.076  12.697   5.171
75104W        W39037   3.413  33.969  12.529
75105W        W39038  17.673  26.148   2.859
75106W        W39039   3.817  44.484   0.404
75107W        W39040  32.566  10.138   3.636
75108W        W39041  18.285  25.194  13.986
75109W        W39042   9.827  31.448  14.982
75110W        W39043  24.120  21.675  13.339
75111W        W39044  27.685  14.165   1.931
75112W        W39045  40.855  12.748  14.929
75113W        W39046  43.941  15.162   2.739
75114W        W39047  39.989  37.484  13.337
75115W        W39048  24.624   7.766   1.327
75116W        W39049  18.117  26.559  11.376
75117W        W39050  21.017  23.088   4.681
75118W        W39051  10.295   4.205   3.306
75119W        W39052  25.216  18.682  11.960
75120W        W39053   3.927  23.216   4.292
75121W        W39054   2.745  38.873   4.769
75122W        W39055   3.941  16.293  10.429
75123W        W39056   9.189  32.573  13.374
75124W        W39057   9.261  27.684  11.445
75125W        W39058   0.790  42.815   9.932
75126W        W39059  14.230  11.254   0.782
75127W        W39060  10.192  30.130  10.449
75128W        W39061  24.153   5.406   0.245
75129W        W39062  35.870  15.806   1.790
75130W        W39063  36.885  36.012   1.290
75131W        W39064   6.199  24.669  13.427
75132W        W39065  25.585  41.325  14.482
75133W        W39066  34.043   5.842   1.447
75134W        W39067  44.960   6.776   0.878
75135W        W39068  24.145  18.286  12.462
75136W        W39069  37.344  41.414   3.731
75137W        W39070  12.299  17.146   2.236
75138W        W39071  40.904  21.023  13.861
75139W        W39072  31.447   2.452  10.567
75140W        W39073  15.232  40.372  13.419
75141W        W39074  39.064  38.006  14.029
75142W        W39075  38.912  19.239   5.234
75143W        W39076   6.896  40.831  12.424
75144W        W39077  32.130  15.711   0.334
75145W        W39078  29.587  15.207  12.866
75146W        W39079  20.102  31.942   3.319
75147W        W39080   8.348  13.130  13.057
75148W        W39081  33.481   6.320   2.679
75149W        W39082  36.895  42.333  11.083
75150W        W39083  27.589  22.217  13.353
75151W        W39084  12.693  23.129   1.776
75152W        W39085  30.604  23.009   1.263
75153W        W39086  26.641   8.175  14.766
75154W        W39087  43.873  27.104  13.019
75155W        W39088  11.245  18.552   4.606
75156W        W39089  30.121  27.015   3.198
75157W        W39090   5.801  39.468   1.291
75158W        W39091  12.701  37.953  13.830
75159W        W39092  38.045  12.624  11.458
75160W        W39093  21.209  16.638   0.405
75161W        W39094   1.336  38.409  11.609
75162W        W39095  28.142  28.626  11.876
75163W        W39096  40.947   1.895   4.825
75164W        W39097  33.515  37.842   0.399
75165W        W39098  12.205  12.317  10.934
75166W        W39099   6.260  15.181   4.181
75167W        W39100  31.126  32.010  11.055
75168W        W39101   2.282  26.046   4.269
75169W        W39102  22.198   9.197   3.773
75170W        W39103  32.970  18.167   4.796
75171W        W39104  41.894   2.465   1.886
75172W        W39105  19.660  10.655  11.909
75173W        W39106   3.717  23.238   1.349
75174W        W39107  10.257  39.857   3.369
75175W        W39108   4.908  22.689   3.313
75176W        W39109   2.471   4.282  12.022
75177W        W39110   0.930  19.172   4.223
75178W        W39111   2.241   4.920   9.924
75179W        W39112  30.519  35.935   1.377
75180W        W39113   5.715   1.945  14.474
75181W        W39114   6.696   9.797  14.409
75182W        W39115  21.540   5.325  12.831
75183W        W39116  29.509  23.996  12.907
75184W        W39117  11.177   7.873   1.909
75185W        W39118  26.503  44.944  10.446
75186W        W39119  38.388  11.282  11.577
75187W        W39120  19.266  11.829   3.192
75188W        W39121  20.036   8.262   2.837
75189W        W39122   2.248   8.890   4.724
75190W        W39123  36.442  32.990   3.344
75191W        W39124  29.932  43.970  10.489
75192W        W39125  29.606  42.829   0.307
75193W        W39126  12.716  11.204   2.706
75194W        W39127  16.727  29.018   4.652
75195W        W39128   3.390  16.759   0.250
75196W        W39129  25.056  36.046   3.350
75197W        W39130  18.639  37.906   0.848
75198W        W39131   3.938  40.454   2.743
75199W        W39132  40.055  13.621  10.912
75200W        W39133  44.417   6.208  11.510
75201W        W39134   4.787  32.392  10.429
75202W        W39135  40.308  10.818   3.721
75203W        W39136  18.140  17.696  13.529
75204W        W39137   9.239  20.744   0.819
75205W        W39138  27.164  44.433   1.914
75206W        W39139  28.493   8.846   4.660
75207W        W39140  41.361  44.294  11.444
75208W        W39141   5.695  18.557  14.946
75209W        W39142  43.407  12.672   0.898
75210W        W39143  43.405  19.218  12.530
75211W        W39144  22.716  24.570  11.436
75212W        W39145  15.800  41.354  13.953
75213W        W39146  10.344  12.186  12.879
75214W        W39147  39.462  44.474   2.284
75215W        W39148  17.146   4.772   0.394
75216W        W39149  28.110  20.665   0.961
75217W        W39150  29.502   9.259  10.577
75218W        W39151   7.312   3.806   1.401
75219W        W39152  42.013  38.917  14.312
75220W        W39153   2.363  39.539  10.963
75221W        W39154  21.753  37.854   0.739
75222W        W39155  28.511  10.667  14.488
75223W        W39156  40.353   3.325  12.989
75224W        W39157  12.188   3.763  12.359
75225W        W39158  10.829  43.911  11.518
75226W        W39159  21.541   9.187  10.564
75227W        W39160   3.854  26.134  13.428
75228W        W39161  21.720   9.766  14.956
75229W        W39162  24.159  16.073   1.390
75230W        W39163  27.645   7.836   2.864
75231W        W39164  11.366   5.780   0.287
75232W        W39165  13.312  15.736   3.293
75233W        W39166  14.199  24.110   1.857
75234W        W39167  19.065  42.030  13.002
75235W        W39168  28.093  33.112  11.084
75236W        W39169  33.968   5.895   2.207
75237W        W39170  13.705  12.769  13.816
75238W        W39171  42.876  29.126  14.897
75239W        W39172  23.588  16.141   0.318
75240W        W39173   1.386   2.441  11.409
75241W        W39174  29.975   5.801   4.732
75242W        W39175  36.033  23.678   3.316
75243W        W39176  26.168  40.874   4.183
75244W        W39177  39.939  30.609   1.314
75245W        W39178  29.509  39.029   2.858
75246W        W39179  13.652  24.526   2.359
75247W        W39180  34.428  43.944   3.226
75248W        W39181  42.284   0.330   4.316
75249W        W39182   9.367   5.883  10.968
75250W        W39183  39.533  39.828  14.776
75251W        W39184  27.031  38.071   0.426
75252W        W39185  25.681  27.091  11.590
75253W        W39186  25.199  21.708   3.380
75254W        W39187  17.709  36.026  10.915
75255W        W39188  19.101   6.716  12.441
75256W        W39189  15.606  16.596  13.818
75257W        W39190  15.619   9.882   1.842
75258W        W39191  17.664  25.624   0.752
75259W        W39192  29.668  12.716   3.757
75260W        W39193  37.953   0.882  12.035
75261W        W39194  24.082  15.313  12.852
75262W        W39195  22.651  36.567  13.821
75263W        W39196   1.352  31.599  10.491
75264W        W39197  25.582  30.068  13.942
75265W        W39198  36.382   0.471  13.313
75266W        W39199  22.144  13.109   9.987
75267W        W39200  13.716  31.904   3.770
75268W        W39201  17.586  20.172  14.470
75269W        W39202  31.621  34.447  13.429
75270W        W39203  39.396  11.341  13.417
75271W        W39204  16.666  12.853   0.818
75272W        W39205  17.306  16.575   3.690
75273W        W39206   1.353  10.323  12.064
75274W        W39207   8.750   4.865  11.516
75275W        W39208  41.905   3.953   1.795
75276W        W39209  35.584  38.906  12.360
75277W        W39210  31.488  20.764  14.394
75278W        W39211  28.134  26.204   2.233
75279W        W39212   7.892  29.666   3.672
75280W        W39213  18.766  30.920  13.347
75281W        W39214   7.681  39.840   2.760
75282W        W39215  24.511  25.705  11.465
75283W        W39216  12.786  30.978  11.455
75284W        W39217  30.497  40.981  13.822
75285W        W39218  21.144   3.847   5.100
75286W        W39219  25.642  36.571  14.281
75287W        W39220  33.108  27.651  14.854
75288W        W39221  24.692  25.533   2.255
75289W        W39222  10.709   7.331  12.983
75290W        W39223   4.394  15.175   5.094
75291W        W39224  20.233  14.213  11.876
75292W        W39225  41.946  29.987   4.146
75293W        W39226  11.355   4.401   4.116
75294W        W39227  31.016  22.112   2.378
75295W        W39228   3.942  11.157   2.275
75296W        W39229   8.162  11.182  11.876
75297W        W39230  30.439  20.562  11.549
75298W        W39231  10.823  41.395   1.791
75299W        W39232   1.330  38.532  10.634
75300W        W39233  23.028   4.703   4.635
75301W        W39234  36.376  15.660  12.975
75302W        W39235  30.135  11.850   0.422
75303W        W39236   5.343  22.620  14.984
75304W        W39237  21.125  11.354   2.191
75305W        W39238  18.601  26.462  11.402
75306W        W39239  34.998   9.795  11.412
75307W        W39240   8.684  27.619  13.395
75308W        W39241  13.840  38.424   2.852
75309W        W39242  39.931  10.245  13.975
75310W        W39243  31.402  22.113  14.275
75311W        W39244  37.920   4.256  14.275
75312W        W39245   1.240  22.622   4.765
75313W        W39246  29.175  43.396   2.292
75314W        W39247  22.029  33.461  11.918
75315W        W39248   4.346  34.041   1.824
75316W        W39249  22.134  40.524  11.054
75317W        W39250   6.263  12.627  13.517
75318W        W39251   2.466  21.709   3.182
75319W        W39252  15.196  44.959   0.876
75320W        W39253  21.133  13.198  13.989
75321W        W39254   9.185  10.808   4.619
75322W        W39255  31.974  37.862  12.940
75323W        W39256  30.029  26.566  12.372
75324W        W39257  44.993   4.898  12.394
75325W        W39258  32.627  31.924  14.797
75326W        W39259  38.066  14.633   0.409
75327W        W39260  23.612  15.582   0.302
75328W        W39261  33.025   1.814  14.438
75329W        W39262  26.081   4.883   3.242
75330W        W39263  14.797  23.228  14.391
75331W        W39264  30.064   2.324  11.950
75332W        W39265  36.578  13.670  14.774
75333W        W39266  22.169  39.858  14.850
75334W        W39267  31.937  20.696   3.270
75335W        W39268  37.443  15.678   2.806
75336W        W39269   6.766  10.839   2.202
75337W        W39270  27.007  39.448  10.955
75338W        W39271  20.180  43.374  11.072
75339W        W39272  15.707  17.240   1.709
75340W        W39273  19.618  19.599  14.912
75341W        W39274  29.495  31.921   2.204
75342W        W39275  29.635  38.331   2.872
75343W        W39276  42.836  38.930  14.466
75344W        W39277   9.736  34.101  14.314
75345W        W39278  38.386  39.834  14.505
75346W        W39279  23.006  36.469   2.394
75347W        W39280  18.262  41.370   3.332
75348W        W39281   9.278  28.508   2.784
75349W        W39282   8.881   8.230  10.458
75350W        W39283   0.306   3.384  13.903
75351W        W39284   5.699  18.203  12.961
75352W        W39285  40.968  40.409   2.743
75353W        W39286  12.308  10.820  13.323
75354W        W39287   9.826   8.833   5.187
75355W        W39288  26.977  15.677   0.388
75356W        W39289  24.714  10.293  13.418
75357W        W39290  32.562  37.362   3.687
75358W        W39291  44.312  20.661  12.432
75359W        W39292  19.542   6.257   0.297
75360W        W39293  13.601  30.034   3.329
75361W        W39294   3.956  43.000   0.373
75362W        W39295  23.034   1.843  11.870
75363W        W39296   1.811  42.289   2.868
75364W        W39297  23.221  19.121   4.302
75365W        W39298  21.146  30.059   0.787
75366W        W39299  13.312  39.544   4.263
75367W        W39300  16.202  42.461  13.470
75368W        W39301  15.247   1.297   1.780
75369W        W39302  37.081  12.816  11.542
75370W        W39303  34.514  18.273  10.908
75371W        W39304   1.872  36.467  11.921
75372W        W39305  25.689  33.521  11.904
75373W        W39306  36.067  10.177  11.076
75374W        W39307  17.681   8.817   2.811
75375W        W39308  44.965   4.378   3.664
75376W        W39309   2.290  19.269  11.563
75377W        W39310   1.784   0.453  13.794
75378W        W39311  32.455  38.542  12.354
75379W        W39312  38.475   1.811   0.935
75380W        W39313  38.391  35.903   2.418
75381W        W39314  11.306  10.733   3.812
75382W        W39315  12.760  35.406   1.741
75383W        W39316  34.578  25.672  11.911
75384W        W39317  16.705  31.986   5.306
75385W        W39318  38.976   3.950  10.429
75386W        W39319  36.017  30.119   4.164
75387W        W39320   7.701   8.181  10.528
75388W        W39321  37.478  24.122   0.449
75389W        W39322   8.334  29.622   2.226
75390W        W39323  20.144  28.956   3.811
75391W        W39324   6.790  28.161   4.738
75392W        W39325   6.218  29.143   2.408
75393W        W39326  43.890   7.276  13.326
75394W        W39327   9.321   8.757  14.287
75395W        W39328  13.240   0.310   2.874
75396W        W39329   8.769   3.324   4.675
75397W        W39330  39.970  13.187  14.900
75398W        W39331   5.925  40.531   0.806
75399W        W39332  32.989  34.574   1.730
75400W        W39333   0.460  22.152  11.012
75401W        W39334  11.819  25.971  10.519
75402W        W39335   6.861   1.805  13.471
75403W        W39336  29.604  25.521  11.875
75404W        W39337  17.786  40.329   0.463
75405W        W39338  38.463  33.999  13.352
75406W        W39339  27.028  42.913  12.552
75407W        W39340   3.259  10.841   2.890
75408W        W39341  11.788  15.191  11.422
75409W        W39342  15.702   4.327  12.408
75410W        W39343  38.437  13.841  12.977
75411W        W39344  27.672  26.128   0.744
75412W        W39345  25.992  32.114  10.577
75413W        W39346  44.387   4.278   2.746
75414W        W39347  42.398  42.339  14.282
75415W        W39348  31.003  33.489   3.162
75416W        W39349  29.480  30.603  12.555
75417W        W39350  22.742   5.433   1.298
75418W        W39351  16.637  37.002   4.745
75419W        W39352  12.228  12.185  11.569
75420W        W39353   5.753   3.248  14.453
75421W        W39354  30.989  34.556  10.573
75422W        W39355  30.926  30.618  11.053
75423W        W39356  33.392  40.026   1.340
75424W        W39357  40.822  29.495  10.505
75425W        W39358  35.026  26.957   4.810
75426W        W39359  22.568  17.061   0.807
75427W        W39360  36.561   0.916  12.989
75428W        W39361  35.515  20.620   3.665
75429W        W39362   6.831   5.780  11.562
75430W        W39363  11.368  41.318   1.315
75431W        W39364  16.180  30.974  13.496
75432W        W39365  25.484  28.603  13.361
75433W        W39366  16.807  19.089  14.976
75434W        W39367  28.448   2.879  12.057
75435W        W39368  30.950  11.790   3.284
75436W        W39369  32.067  40.814   2.319
75437W        W39370  43.421  27.163  11.126
75438W        W39371  18.614  20.113   0.879
75439W        W39372   6.813  14.254   9.659
75440W        W39373  42.396  25.663  13.516
75441W        W39374  21.579  43.799   0.355
75442W        W39375  14.188  23.540  14.387
75443W        W39376   2.768  35.478   0.456
75444W        W39377  38.869   4.380   0.862
75445W        W39378  40.930  19.572   0.389
75446W        W39379  15.750   2.405  13.351
75447W        W39380  19.638  40.544   2.775
75448W        W39381  24.109  42.342  10.420
75449W        W39382   0.889  17.612   2.360
75450W        W39383   5.730  38.387  12.972
75451W        W39384   1.830  22.180  14.014
75452W        W39385  18.782  19.075  14.476
75453W        W39386  11.356   6.209  12.020
75454W        W39387  42.296  15.673   2.308
75455W        W39388  38.427  11.142  14.021
75456W        W39389  21.540  21.728   2.816
75457W        W39390  20.145  17.083  11.463
75458W        W39391  12.852  19.571   4.713
75459W        W39392  27.979   1.944   3.721
75460W        W39393  34.060   8.216   3.639
75461W        W39394   7.195  19.252   3.335
75462W        W39395  13.635  23.015  14.496
75463W        W39396  24.672   3.931  11.873
75464W        W39397  18.726  13.833   1.755
75465W        W39398  39.997   5.262  12.516
75466W        W39399  22.576  35.858   9.994
75467W        W39400  39.357   3.347  10.996
75468W        W39401  20.528  24.658   2.316
75469W        W39402  27.622   3.775  13.896
75470W        W39403  29.998  13.696   4.687
75471W        W39404   4.841  27.952   0.265
75472W        W39405  27.584  41.482   4.827
75473W        W39406  37.360   2.913   4.706
75474W        W39407  29.176   4.298  14.316
75475W        W39408  29.645  15.745   1.252
75476W        W39409  24.101  28.519   2.899
75477W        W39410   4.266  27.029  14.440
75478W        W39411   2.960  11.667   3.745
75479W        W39412   0.353  41.503  14.498
75480W        W39413  22.631   2.347   3.737
75481W        W39414  26.002   9.782   1.386
75482W        W39415  24.138  32.091  10.501
75483W        W39416   2.825  36.476   0.249
75484W        W39417   8.782  42.863  10.416
75485W        W39418  31.897   7.375  13.899
75486W        W39419  40.431  23.598  14.807
75487W        W39420  22.213   8.303  13.057
75488W        W39421  31.584  42.369  12.877
75489W        W39422  24.223  25.164   0.904
75490W        W39423  21.215  25.102  11.978
75491W        W39424  12.843  22.180  12.448
75492W        W39425  32.606  35.945   1.789
75493W        W39426  33.515  32.621  13.842
75494W        W39427  19.612   3.455   1.350
75495W        W39428   2.376  37.017   1.891
75496W        W39429  13.244  39.497  14.507
75497W        W39430  40.998  30.439  14.903
75498W        W39431  36.385  14.827  13.981
75499W        W39432  36.845  27.517  13.411
75500W        W39433   6.387  13.323  10.064
75501W        W39434  13.801  24.609   1.911
75502W        W39435  10.177  31.940  11.975
75503W        W39436  36.907   9.658   3.352
75504W        W39437   6.325   7.204   1.828
75505W        W39438  37.356  16.753  13.942
75506W        W39439  25.034   0.852  14.498
75507W        W39440  36.093  28.474   0.366
75508W        W39441  42.972  24.149  11.426
75509W        W39442  19.052  33.497   4.696
75510W        W39443  42.838  27.455  13.542
75511W        W39444  36.457  41.422  13.353
75512W        W39445  31.441  40.358  10.969
75513W        W39446   0.442  18.550  12.942
75514W        W39447  33.081   7.271  14.321
75515W        W39448   2.356  27.189  11.382
75516W        W39449  33.390   9.184  10.417
75517W        W39450  15.119  16.771   2.302
75518W        W39451  35.489   5.375   3.661
75519W        W39452  19.606  38.984   3.226
75520W        W39453  24.588   2.261  11.997
75521W        W39454   5.813  23.691   0.457
75522W        W39455  18.662   9.719   2.764
75523W        W39456  29.987  20.711   1.828
75524W        W39457  39.045  11.668   1.345
75525W        W39458  20.718  16.592  13.051
75526W        W39459   9.349  13.726  14.887
75527W        W39460  36.991  41.864  14.815
75528W        W39461   7.701  14.107   0.796
75529W        W39462   1.477  19.084  10.468
75530W        W39463  34.496  21.625   4.652
75531W        W39464  33.525  16.215   1.222
75532W        W39465  41.432  44.917  14.420
75533W        W39466   3.235   9.647   1.916
75534W        W39467   7.838  30.962  12.538
75535W        W39468   7.391   1.955   1.316
75536W        W39469  16.641  35.909   3.781
75537W        W39470  12.628  26.622   2.375
75538W        W39471  22.604  25.664  12.076
75539W        W39472  30.012  17.095   3.857
75540W        W39473  21.564  33.030  12.035
75541W        W39474  17.165  42.987   3.782
75542W        W39475   9.326  36.995  13.841
75543W        W39476  28.580  20.700  14.504
75544W        W39477  35.938  25.002   1.365
75545W        W39478  16.306  43.820   3.317
75546W        W39479  35.574  39.864  10.467
75547W        W39480  14.752   6.188   3.870
75548W        W39481  31.434  35.428   1.279
75549W        W39482  24.121   9.825  11.881
75550W        W39483  34.491  37.456  13.956
75551W        W39484   8.210   3.748  12.495
75552W        W39485  10.166  20.066   0.347
75553W        W39486  42.324  36.049  14.358
75554W        W39487  34.481  44.465   1.429
75555W        W39488  23.046  17.755  11.490
75556W        W39489   5.898   0.865  12.364
75557W        W39490  38.969  37.391   2.893
75558W        W39491  19.656  14.719   5.166
75559W        W39492  13.341  21.073  10.595
75560W        W39493  26.072  35.879  14.879
75561W        W39494  16.697  26.625   9.660
75562W        W39495  36.879  29.602   4.638
75563W        W39496  22.616  36.081  12.396
75564W        W39497  40.401  44.956   2.360
75565W        W39498   7.341   7.777  11.950
75566W        W39499   9.318  21.197  14.021
75567W        W39500  23.189  29.963  12.341
75568W        W39501  34.035   5.244   3.832
75569W        W39502  14.786  44.410   1.921
75570W        W39503   3.869  10.212   4.184
75571W        W39504   7.716  11.742   0.265
75572W        W39505  32.079  33.614   0.318
75573W        W39506  39.435   0.467  13.373
75574W        W39507   6.838  38.829  14.417
75575W        W39508   5.711  31.009   3.276
75576W        W39509   1.913  26.124  12.031
75577W        W39510  32.510   5.259   4.714
75578W        W39511   8.337  33.903   3.763
75579W        W39512   3.404  30.630  11.514
75580W        W39513  40.446   0.936  10.575
75581W        W39514  13.160  12.781  13.794
75582W        W39515   1.768  11.756  13.903
75583W        W39516  38.398  16.680   3.223
75584W        W39517  21.725  32.125   4.131
75585W        W39518  31.146  38.893   2.846
75586W        W39519  30.984  34.392  11.051
75587W        W39520  32.000  21.716   1.823
75588W        W39521  31.418   2.730   0.965
75589W        W39522  20.656  20.597  10.508
75590W        W39523  24.703  14.692   1.863
75591W        W39524  18.266  32.055   1.365
75592W        W39525  39.375  29.507   1.437
75593W        W39526   3.758   8.301  14.472
75594W        W39527  31.981  37.015   0.925
75595W        W39528  25.015   1.809  14.387
75596W        W39529  14.728  16.665   0.465
75597W        W39530  15.087  33.107   2.321
75598W        W39531  21.556   8.206   2.710
75599W        W39532  37.051  13.677   0.285
75600W        W39533   8.231  23.490  10.502
75601W        W39534   0.297  41.949   0.822
75602W        W39535  19.060  25.620   9.951
75603W        W39536  32.620  38.964  12.834
75604W        W39537  25.095  41.467  11.463
75605W        W39538  25.483  35.549  12.014
75606W        W39539   8.740   2.952  12.508
75607W        W39540  28.486   0.885  13.815
75608W        W39541  18.054  14.299  13.893
75609W        W39542  35.964  33.425  13.379
75610W        W39543  42.795  20.526   1.892
75611W        W39544  39.857  28.447  12.443
75612W        W39545  11.215  15.296  14.842
75613W        W39546  39.003  24.630   1.763
75614W        W39547  23.665  40.379   1.437
75615W        W39548  26.034   9.254  14.995
75616W        W39549   8.181  30.939  14.410
75617W        W39550  35.903  34.549   2.327
75618W        W39551  17.080  27.491  13.488
75619W        W39552  30.531  20.524  13.917
75620W        W39553   5.217  13.297   9.455
75621W        W39554   0.891  33.065   4.350
75622W        W39555  14.250   5.416  14.335
75623W        W39556  11.163  25.486   0.396
75624W        W39557   7.720   8.289  14.857
75625W        W39558   2.238  20.747   3.839
75626W        W39559  22.501  17.217   1.240
75627W        W39560  14.341  17.778   4.816
75628W        W39561   9.808   0.374   0.871
75629W        W39562  37.346  10.694   1.312
75630W        W39563  21.662  41.878  10.486
75631W        W39564  10.848  26.677   1.934
75632W        W39565  25.009   9.237   1.385
75633W        W39566  19.667  16.260  11.511
75634W        W39567   0.286  24.672  14.276
75635W        W39568   2.966   6.831  12.824
75636W        W39569  33.961  10.796  10.462
75637W        W39570   0.278   2.439   4.826
75638W        W39571  18.644   4.814   4.249
75639W        W39572  39.821  41.932  13.372
75640W        W39573  29.558   6.883   4.653
75641W        W39574  16.268  11.178  14.384
75642W        W39575  23.240  10.359  11.016
75643W        W39576   8.769  43.022   2.265
75644W        W39577  26.020  26.555   1.243
75645W        W39578  31.515  34.962   3.197
75646W        W39579  31.614  40.355  14.441
75647W        W39580  31.084  20.221   2.367
75648W        W39581   3.709  39.332  14.912
75649W        W39582  18.627  32.637  10.490
75650W        W39583   5.310  17.615   1.284
75651W        W39584  11.627  43.008   1.723
75652W        W39585  17.112  42.004   5.268
75653W        W39586  30.093  35.401  11.516
75654W        W39587  28.662   7.735   2.852
75655W        W39588  30.919  13.325  11.055
75656W        W39589  20.196   7.411   4.678
75657W        W39590   6.721  26.651  10.552
75658W        W39591  21.143  30.543   0.746
75659W        W39592  22.635   8.865  12.433
75660W        W39593  11.671  32.895   1.361
75661W        W39594  42.934  30.640   4.820
75662W        W39595  16.719  17.560  12.541
75663W        W39596  11.806   8.234  12.492
75664W        W39597  10.201  37.887  12.913
75665W        W39598   8.746  21.720  14.763
75666W        W39599   8.802  21.727  11.454
75667W        W39600  43.368  16.698  11.446
75668W        W39601  25.489  41.808  11.496
75669W        W39602  29.159   1.912  11.423
75670W        W39603  28.100  17.568   4.738
75671W        W39604  31.478   6.902  11.550
75672W        W39605  19.141  30.126   3.704
75673W        W39606  11.758  29.045   3.796
75674W        W39607   8.406   3.939  14.763
75675W        W39608  31.423  37.060  13.544
75676W        W39609  13.249  30.500  13.524
75677W        W39610   0.935  42.448  13.885
75678W        W39611  12.763  44.799   0.365
75679W        W39612   1.945  33.085   3.667
75680W        W39613  28.032   6.275   0.965
75681W        W39614  28.125  31.020  10.023
75682W        W39615  35.413  36.454  11.515
75683W        W39616  15.581  10.302  14.284
75684W        W39617   6.262  44.334   4.137
75685W        W39618  25.558  24.984   2.740
75686W        W39619  12.326  25.183  11.444
75687W        W39620  28.089  10.196   1.794
75688W        W39621  34.042   8.160  13.923
75689W        W39622   3.742  26.624   2.739
75690W        W39623  23.009  15.752  14.415
75691W        W39624   8.894  11.176   0.289
75692W        W39625  10.861  27.617   1.928
75693W        W39626  31.539   7.205   1.345
75694W        W39627  22.208  13.714   1.422
75695W        W39628  10.721  25.532   3.824
75696W        W39629  17.093  20.103   4.254
75697W        W39630   6.717  30.961   1.716
75698W        W39631  28.172  12.625  11.407
75699W        W39632   9.670  19.059  13.389
75700W        W39633  15.797  36.360   4.632
75701W        W39634  20.587  14.635  13.402
75702W        W39635   5.844  23.493   4.639
75703W        W39636  41.295  20.182   3.830
75704W        W39637  40.999   1.825   2.842
75705W        W39638  40.047  42.282   1.751
75706W        W39639  42.874  40.308  11.557
75707W        W39640   6.323  38.541  11.612
75708W        W39641  34.403  33.491  13.810
75709W        W39642  19.258  24.557   1.358
75710W        W39643  21.623  10.286   9.454
75711W        W39644  13.241  24.975   2.872
75712W        W39645   2.367  35.070   4.838
75713W        W39646   4.907  10.224   3.188
75714W        W39647  16.301  13.722   0.366
75715W        W39648  23.994  22.096  11.431
75716W        W39649  19.769  17.227  11.566
75717W        W39650  37.959  34.093   1.380
75718W        W39651   8.399   6.254  10.921
75719W        W39652  29.155  18.703  11.944
75720W        W39653  16.568  37.451   5.213
75721W        W39654   3.731  15.176  13.843
75722W        W39655  43.808  44.430  11.952
75723W        W39656   3.856  32.136  12.026
75724W        W39657   3.225  24.063   3.293
75725W        W39658   9.666   7.408  12.482
75726W        W39659  34.554  38.546  10.551
75727W        W39660  44.937  35.916  11.062
75728W        W39661  14.675   6.301   0.848
75729W        W39662  39.821  21.135  11.028
75730W        W39663  41.393  14.746  11.052
75731W        W39664   1.344  23.639   3.179
75732W        W39665  31.440  36.921  10.568
75733W        W39666  44.937  14.764   2.337
75734W        W39667   3.731  34.988  11.577
75735W        W39668  26.025  17.207   4.771
75736W        W39669  33.437  23.055   3.210
75737W        W39670  22.202  39.468  13.354
75738W        W39671   6.221   4.701  12.423
75739W        W39672  11.266  42.882   2.276
75740W        W39673  40.895  39.865   3.854
75741W        W39674  26.545   7.390   1.380
75742W        W39675   6.918   7.407  12.972
75743W        W39676  14.636  41.031  14.321
75744W        W39677  17.568  19.127  13.052
75745W        W39678  18.789  35.862   0.774
75746W        W39679   2.734  15.106  10.612
75747W        W39680  40.973  34.015   1.437
75748W        W39681   5.777   1.738  10.409
75749W        W39682  16.158  23.200   2.205
75750W        W39683  37.027  12.737   3.768
75751W        W39684  29.664  44.391   1.227
75752W        W39685   8.725  34.950  12.831
75753W        W39686  39.337   2.763   3.725
75754W        W39687  24.499   4.302  12.017
75755W        W39688  33.963   1.372   4.676
75756W        W39689   0.912  40.803   2.204
75757W        W39690  40.870   9.366   2.759
75758W        W39691  32.428  18.564  13.050
75759W        W39692  11.315  16.587   0.421
75760W        W39693  21.166  43.794  12.845
75761W        W39694  25.593   8.893   3.662
75762W        W39695  20.646  16.278  14.503
75763W        W39696  11.318  22.207   1.804
75764W        W39697  26.475  11.787   4.597
75765W        W39698  20.189   3.807  14.482
75766W        W39699   3.337  43.502   0.471
75767W        W39700  43.280   4.242  11.585
75768W        W39701  14.246  24.123   1.443
75769W        W39702  24.676  28.968  13.004
75770W        W39703  43.403  34.442  12.897
75771W        W39704  29.470  18.626  12.381
75772W        W39705   3.797  22.175  14.311
75773W        W39706  20.142  27.448  10.970
75774W        W39707  34.418  14.114  12.039
75775W        W39708  41.811  33.428  13.370
75776W        W39709  44.314  35.866   3.180
75777W        W39710  26.101  42.929   4.161
75778W        W39711  30.095  11.850   0.853
75779W        W39712  44.826  39.550   1.223
75780W        W39713   7.306   3.810  14.945
75781W        W39714  20.050   0.771   0.423
75782W        W39715   1.311   5.232   4.335
75783W        W39716  12.191  33.097  13.307
75784W        W39717   8.686  30.938  13.500
75785W        W39718  10.843   4.904  11.607
75786W        W39719  32.450  41.460   0.846
75787W        W39720   9.754  20.200  12.419
75788W        W39721  42.830  33.548   0.889
75789W        W39722   1.785  15.121  10.414
75790W        W39723  20.628  28.091  13.037
75791W        W39724  38.371  14.138   0.310
75792W        W39725  18.750  30.648  14.988
75793W        W39726  17.715  30.957   0.746
75794W        W39727  13.266  28.935  14.797
75795W        W39728  35.374   4.263  14.851
75796W        W39729   0.354  14.121   2.411
75797W        W39730   5.728   4.214   1.859
75798W        W39731  38.564  43.942   0.356
75799W        W39732  39.822  19.253  14.502
75800W        W39733  40.928   7.764   3.741
75801W        W39734   4.228  29.953  13.498
75802W        W39735  39.048  21.758   3.833
75803W        W39736   8.303  31.926   2.853
75804W        W39737  21.027  40.896   1.799
75805W        W39738  29.493  40.006   2.717
75806W        W39739  10.696  12.653  14.824
75807W        W39740  17.567  16.791   0.961
75808W        W39741  30.647  40.453  14.380
75809W        W39742  14.662  44.949   0.775
75810W        W39743  17.129  43.957   2.752
75811W        W39744  43.937  42.801  14.962
75812W        W39745  41.311  19.694   0.904
75813W        W39746  11.760  14.658   2.664
75814W        W39747  39.518  29.548  14.342
75815W        W39748  21.524  16.758   0.846
75816W        W39749  41.026  39.046   0.819
75817W        W39750  11.752  32.394  11.984
75818W        W39751  32.128   6.713   0.727
75819W        W39752  41.023   6.329  13.943
75820W        W39753  11.757  13.184  13.816
75821W        W39754  37.046  25.057   2.771
75822W        W39755  10.344  16.629   3.327
75823W        W39756  13.298  40.485   1.784
75824W        W39757  35.581  18.547   2.708
75825W        W39758  40.880  16.109  14.015
75826W        W39759   1.250   1.840   2.325
75827W        W39760  33.557  29.564  13.891
75828W        W39761  10.143  40.891  13.961
75829W        W39762  20.123   6.898  13.427
75830W        W39763  28.458  28.047  13.403
75831W        W39764  38.855  10.368   0.769
75832W        W39765   1.250  42.486  11.108
75833W        W39766  29.540  36.871  14.298
75834W        W39767  39.037  23.682   0.814
75835W        W39768  36.490  25.067  14.761
75836W        W39769   4.930   8.201   3.270
75837W        W39770  34.419  40.538  13.840
75838W        W39771  14.187  40.008  14.920
75839W        W39772  11.696   7.218  12.468
75840W        W39773  42.413  26.071  11.924
75841W        W39774  21.634   2.385  11.404
75842W        W39775  12.803  33.424  10.607
75843W        W39776  13.133  22.557  14.279
75844W        W39777  19.680  28.103  10.912
75845W        W39778  40.802  41.351  13.959
75846W        W39779   5.249   7.192   2.755
75847W        W39780   6.792  26.679   3.169
75848W        W39781  29.931  24.670   2.294
75849W        W39782   8.688  44.405  13.530
75850W        W39783   6.372  30.155   3.636
75851W        W39784   3.864   6.725  12.006
75852W        W39785  39.948  42.343   0.873
75853W        W39786  42.894  15.752  11.076
75854W        W39787   1.880  25.534   1.346
75855W        W39788  40.347   9.215  13.994
75856W        W39789  25.490  14.315   2.188
75857W        W39790   5.753  39.356   2.196
75858W        W39791  34.608  31.411  11.045
75859W        W39792  12.701  39.334  12.941
75860W        W39793  38.859  15.284   2.393
75861W        W39794  27.554  33.534  11.555
75862W        W39795  21.236  13.232   3.639
75863W        W39796  18.148  30.508  13.463
75864W        W39797  11.333   6.425   3.205
75865W        W39798  42.974   9.685  14.946
75866W        W39799  37.900   5.700  14.348
75867W        W39800  42.329   9.364   1.859
75868W        W39801   5.366   7.685   3.303
75869W        W39802  15.215   4.900  13.363
75870W        W39803  11.716  25.650   0.406
75871W        W39804  18.140   0.865  14.495
75872W        W39805  42.525  29.157  13.059
75873W        W39806  39.432  13.339   3.299
75874W        W39807   8.393  21.212   4.309
75875W        W39808  23.647   0.285  14.016
75876W        W39809  24.134   6.847   0.363
75877W        W39810  38.880  12.124  10.933
75878W        W39811  14.197  40.896   0.390
75879W        W39812  16.579   1.288   3.243
75880W        W39813  24.229  37.362   1.873
75881W        W39814  34.073  25.610   4.766
75882W        W39815  42.391  35.056   5.095
75883W        W39816  18.251  34.541   2.273
75884W        W39817  37.995   0.315  11.945
75885W        W39818  40.986   7.883  10.642
75886W        W39819  12.752  25.077  14.892
75887W        W39820  35.397  11.370  14.919
75888W        W39821   2.965  37.522   2.714
75889W        W39822  11.252  36.518  10.415
75890W        W39823  34.940  44.280   2.676
75891W        W39824   4.850  38.066   3.695
75892W        W39825  30.498  28.662   0.472
75893W        W39826  13.251  18.700  13.512
75894W        W39827  16.712  40.320  10.468
75895W        W39828  10.690  20.243  10.966
75896W        W39829  38.479  19.718   4.163
75897W        W39830   9.332  33.435   3.198
75898W        W39831  13.210  20.045   1.871
75899W        W39832   0.765  21.172   1.395
75900W        W39833   2.321   6.736  12.829
75901W        W39834   2.327  12.633  12.421
75902W        W39835  20.159  34.020   1.887
75903W        W39836   1.244  40.405  13.036
75904W        W39837  20.219  16.589  14.408
75905W        W39838  36.417  18.577  14.995
75906W        W39839   3.807  38.977   0.910
75907W        W39840   3.788  23.633  12.002
75908W        W39841  43.355  35.969   5.103
75909W        W39842  42.027  18.658   4.187
75910W        W39843   0.285  20.633  12.507
75911W        W39844  30.917  31.062   0.874
75912W        W39845  31.546  40.355  14.788
75913W        W39846  37.871   6.315   0.480
75914W        W39847  33.463  22.628  10.639
75915W        W39848  37.411  30.462  12.036
75916W        W39849   6.743   7.684   1.272
75917W        W39850  38.972  28.501  11.550
75918W        W39851  33.967  40.361   2.221
75919W        W39852  35.538   2.239  13.945
75920W        W39853  22.549  30.954  14.501
75921W        W39854  30.503   9.668   1.237
75922W        W39855   0.436  39.902  14.280
75923W        W39856  29.079  44.931   2.873
75924W        W39857  23.007   3.401   4.268
75925W        W39858  44.993   9.277  13.478
75926W        W39859  16.748  28.593   3.202
75927W        W39860  43.813   2.742  12.062
75928W        W39861  34.952   3.854   0.243
75929W        W39862  42.934  36.527  14.467
75930W        W39863  32.623  26.592   0.857
75931W        W39864  18.192   0.807   0.906
75932W        W39865  14.666  21.663  11.498
75933W        W39866  11.323   5.744  10.938
75934W        W39867  41.009   8.380   1.763
75935W        W39868  19.044  24.049  14.003
75936W        W39869  30.100   8.255  13.376
75937W        W39870  43.869  44.483   4.831
75938W        W39871  21.069  33.616   4.316
75939W        W39872  37.573  35.442  14.930
75940W        W39873  31.490  35.563  12.547
75941W        W39874  13.106  41.006  10.565
75942W        W39875  29.633   4.250   3.834
75943W        W39876  37.371  43.395   1.781
75944W        W39877  22.147  14.320   4.791
75945W        W39878  19.610  36.530  12.039
75946W        W39879   1.768  30.424  14.414
75947W        W39880   8.300  18.262  11.534
75948W        W39881   0.451  35.484   3.801
75949W        W39882  30.641   3.911  11.554
75950W        W39883  28.052   3.762  10.936
75951W        W39884  25.599  10.772   0.361
75952W        W39885   8.877  44.828  12.994
75953W        W39886   0.337  37.076   4.681
75954W        W39887  35.450  38.952  11.384
75955W        W39888  41.886  34.557  14.914
75956W        W39889  20.677  34.935  10.575
75957W        W39890  10.321  12.337  14.005
75958W        W39891  42.376  12.321   4.140
75959W        W39892  11.674  18.130   4.780
75960W        W39893   3.943  23.137  12.497
75961W        W39894   6.812  40.419   3.754
75962W        W39895   3.420   6.909   2.843
75963W        W39896  44.907   6.740  13.844
75964W        W39897  16.288  31.465  14.889
75965W        W39898  15.670  10.233   4.627
75966W        W39899  35.885  19.586  11.975
75967W        W39900  44.263  14.748  14.953
75968W        W39901  11.810  27.046  10.517
75969W        W39902  24.596  44.498  14.384
75970W        W39903  41.452  22.547   1.257
75971W        W39904  42.858   0.490  12.374
75972W        W39905  42.986   9.347   3.857
75973W        W39906   8.393  36.917   1.801
75974W        W39907  28.564  38.448   2.320
75975W        W39908  28.509  17.188   1.288
75976W        W39909  26.572  22.063   0.367
75977W        W39910  23.636  23.642   3.647
75978W        W39911  26.530  30.010   4.271
75979W        W39912  17.736  35.517   1.727
75980W        W39913   9.168  43.361  11.900
75981W        W39914  21.242  33.414  13.799
75982W        W39915  38.000  18.186   3.175
75983W        W39916  32.433  32.112   2.366
75984W        W39917  20.571  32.888  12.462
75985W        W39918  14.648  13.322   3.684
75986W        W39919  27.555   1.428  14.867
75987W        W39920  23.562  29.035  12.459
75988W        W39921  13.231  44.872   4.834
75989W        W39922  10.711  40.549   1.387
75990W        W39923  12.299  24.481   0.319
75991W        W39924  12.145  37.982  12.995
75992W        W39925  20.082  18.244   4.227
75993W        W39926  35.932  31.589  11.071
75994W        W39927  42.025  34.548   5.212
75995W        W39928  17.790  12.817  12.519
75996W        W39929  43.306  11.645   0.890
75997W        W39930  39.826  42.813  14.315
75998W        W39931  25.638  10.263   5.083
75999W        W39932  21.247  15.178  12.961
76000W        W39933  23.713  27.612   2.809
76001W        W39934  12.656  10.826  14.980
76002W        W39935  23.014  20.765  14.450
76003W        W39936  38.006  42.393  11.465
76004W        W39937  36.036   6.906   4.643
76005W        W39938   6.274  14.324  14.877
76006W        W39939  22.059  42.983   2.417
76007W        W39940  33.901  35.079  12.832
76008W        W39941  25.554   7.730   2.333
76009W        W39942  27.554  16.659  11.582
76010W        W39943  12.278  16.752  13.496
76011W        W39944   3.281   7.857   3.826
76012W        W39945  18.076  35.556  14.837
76013W        W39946  20.586  42.967  14.352
76014W        W39947  44.954  29.974  10.888
76015W        W39948   1.281   3.713   4.238
76016W        W39949  37.379  21.049  10.909
76017W        W39950  25.589  37.979   2.750
76018W        W39951  33.611   8.160   0.376
76019W        W39952  40.908  41.828   4.638
76020W        W39953  37.347  42.295   2.689
76021W        W39954  32.529  44.350   1.216
76022W        W39955  12.612  23.161  14.902
76023W        W39956  23.100  18.743  14.920
76024W        W39957  27.977  21.151   0.380
76025W        W39958  12.646  18.763   3.856
76026W        W39959  25.963  22.661   4.733
76027W        W39960  24.185  21.656   0.338
76028W        W39961  12.264  29.646   1.858
76029W        W39962   7.798   7.361  13.860
76030W        W39963   6.373   3.902  12.965
76031W        W39964  18.244  17.689  14.440
76032W        W39965  35.876  24.148   0.898
76033W        W39966   7.803  34.874   3.759
76034W        W39967  43.871   8.389  11.546
76035W        W39968  28.462  32.422   2.381
76036W        W39969   5.420  33.048  13.318
76037W        W39970  19.706  14.325  13.031
76038W        W39971  34.414  24.536   4.152
76039W        W39972   6.353  29.450  13.513
76040W        W39973  40.479   3.921  13.328
76041W        W39974  42.446  39.906  11.525
76042W        W39975  21.084   3.305   2.279
76043W        W39976   4.757   5.290   1.286
76044W        W39977   1.736  35.523   4.217
76045W        W39978  16.192   8.178   2.834
76046W        W39979  39.880  32.968   2.748
76047W        W39980   3.865  19.249  12.995
76048W        W39981  42.921   1.797   0.363
76049W        W39982  40.023  35.554  12.005
76050W        W39983  14.176   5.243  10.904
76051W        W39984  10.364  12.302  13.527
76052W        W39985  14.732  15.260  14.806
76053W        W39986  19.196  15.664  14.473
76054W        W39987   9.327  24.539  12.565
76055W        W39988  25.620  41.445  10.620
76056W        W39989  33.966  28.603   1.842
76057W        W39990   8.346   3.754   2.389
76058W        W39991  13.604   7.341  14.421
76059W        W39992  37.925  36.433   3.210
76060W        W39993  18.074  44.756   0.343
76061W        W39994  42.994  28.101   5.263
76062W        W39995  24.665  28.186   1.440
76063W        W39996  13.747   1.380   2.750
76064W        W39997  11.199  22.635  10.486
76065W        W39998  31.469  17.267   2.264
76066W        W39999  31.582  26.533   1.403
76067W        W40000  29.621  41.518  11.876
76068W        W40001  26.580  40.433   3.823
76069W        W40002  25.578   5.434  12.567
76070W        W40003  18.083  10.715   4.718
76071W        W40004   0.435  22.677  10.980
76072W        W40005  21.564   8.672  14.283
76073W        W40006  14.725  12.657   0.455
76074W        W40007  41.429  41.865   5.138
76075W        W40008  11.330  41.378  14.395
76076W        W40009  13.236  22.234   0.398
76077W        W40010   5.356  10.784   0.893
76078W        W40011  44.954   0.829  12.544
76079W        W40012  13.739  25.705  12.369
76080W        W40013   8.778  27.481   3.271
76081W        W40014   6.885  35.511  12.877
76082W        W40015   7.402  19.121  14.416
76083W        W40016  40.375  26.972   1.226
76084W        W40017  25.711   2.966   0.810
76085W        W40018  33.524  14.290   0.750
76086W        W40019  16.598  31.924   4.222
76087W        W40020  38.903  42.336   2.712
76088W        W40021  28.614  32.138  11.077
76089W        W40022  40.453  33.079  13.471
76090W        W40023   5.330   4.881  11.898
76091W        W40024  26.662  32.071   3.735
76092W        W40025  42.815   4.824   4.285
76093W        W40026   2.930   3.310   0.811
76094W        W40027   3.417   7.316   4.339
76095W        W40028  33.880   8.288   4.271
76096W        W40029  35.573  27.563   1.432
76097W        W40030   5.716  35.977  10.613
76098W        W40031  14.176  25.049   1.241
76099W        W40032  34.524  29.159  10.570
76100W        W40033  33.018  28.679  11.566
76101W        W40034  27.447   0.939   0.280
76102W        W40035  38.466   9.711  12.898
76103W        W40036  17.243   0.313   1.782
76104W        W40037  36.461  25.659  14.345
76105W        W40038  32.535  17.595   1.874
76106W        W40039  32.037  18.188   4.603
76107W        W40040  37.395  37.488   4.288
76108W        W40041   2.303  30.656   1.323
76109W        W40042  41.382   8.845   1.780
76110W        W40043   6.421  13.652  13.899
76111W        W40044  22.516  41.365  14.428
76112W        W40045   8.825  28.175  10.457
76113W        W40046   9.826  24.624   4.313
76114W        W40047  15.719  40.475   2.220
76115W        W40048   5.758   0.901  12.024
76116W        W40049  36.433  22.117   2.401
76117W        W40050  15.093   0.759   4.804
76118W        W40051  37.466  43.845  14.402
76119W        W40052  39.011  23.638   1.890
76120W        W40053  30.634  43.887   2.285
76121W        W40054  41.040  34.483  11.444
76122W        W40055  22.707  39.359  13.499
76123W        W40056   0.909  12.680   1.316
76124W        W40057   6.726  39.499   1.410
76125W        W40058   5.240  31.546  12.082
76126W        W40059  18.090  16.667  12.984
76127W        W40060  43.477  38.877  10.971
76128W        W40061  26.683  10.648   3.852
76129W        W40062  42.436  33.550  12.349
76130W        W40063  38.019   3.881  11.053
76131W        W40064   6.316  40.303   9.961
76132W        W40065  16.283  40.349   3.779
76133W        W40066  27.541  19.164  13.499
76134W        W40067  29.006  11.791  10.534
76135W        W40068   6.183  20.125   2.348
76136W        W40069  35.062  39.491  13.389
76137W        W40070   7.341  36.952   2.301
76138W        W40071  28.095  14.243   5.240
76139W        W40072   8.813  12.137  14.921
76140W        W40073  24.664   4.925  13.345
76141W        W40074  42.017  17.295   2.339
76142W        W40075  42.879  24.018  11.931
76143W        W40076  32.975   5.736  11.548
76144W        W40077  34.975  32.019  11.092
76145W        W40078  29.986  32.462   3.671
76146W        W40079  12.650  34.590   3.784
76147W        W40080  19.259   3.366  12.377
76148W        W40081  16.697  19.647   1.874
76149W        W40082   0.414   4.884   2.256
76150W        W40083  10.834   5.757   3.160
76151W        W40084  27.138  27.674  14.025
76152W        W40085  34.610   1.293  14.301
76153W        W40086   2.293  10.300   1.810
76154W        W40087  39.404  18.292  11.566
76155W        W40088  44.315  34.490  12.044
76156W        W40089  21.126  40.887  10.579
76157W        W40090  26.652  24.546   1.292
76158W        W40091  38.467  17.221   4.204
76159W        W40092  30.421  13.236   2.844
76160W        W40093  18.284  23.720  13.366
76161W        W40094  22.059  16.201   1.277
76162W        W40095   4.725   0.274  12.406
76163W        W40096   2.908   7.729   1.414
76164W        W40097  18.264   6.337   0.835
76165W        W40098  10.854  19.561   3.308
76166W        W40099  29.435  43.457  11.939
76167W        W40100  15.247  30.556  10.518
76168W        W40101  15.099  19.236   2.246
76169W        W40102  11.365  16.076   1.353
76170W        W40103   3.934  21.662   3.833
76171W        W40104  27.170  15.579  14.814
76172W        W40105  37.562  40.050  10.553
76173W        W40106   0.275  33.488   3.832
76174W        W40107  31.093   3.803   0.292
76175W        W40108  24.681   1.263  14.956
76176W        W40109  14.132  15.211   1.912
76177W        W40110  11.795   4.292  14.976
76178W        W40111   8.347  10.219  11.927
76179W        W40112  29.964  10.668   1.257
76180W        W40113  34.385  42.849   1.875
76181W        W40114  39.460  11.740   1.441
76182W        W40115  32.555  33.944  11.880
76183W        W40116  11.667  39.952  12.949
76184W        W40117  44.316   4.319  14.957
76185W        W40118  36.964  38.439  14.791
76186W        W40119  39.399  19.189  11.417
76187W        W40120  42.468  24.032  14.381
76188W        W40121   7.364  28.641   2.248
76189W        W40122  20.714  39.043  13.452
76190W        W40123  33.961  42.910  10.571
76191W        W40124   4.443  36.482   2.816
76192W        W40125  30.963  14.795  11.569
76193W        W40126   1.886  14.136   3.821
76194W        W40127  19.191   6.705   2.770
76195W        W40128  16.725  13.195   1.395
76196W        W40129  19.202  38.989   9.439
76197W        W40130  37.914   7.244  11.011
76198W        W40131   9.301  11.332  12.437
76199W        W40132  10.849  20.692   2.351
76200W        W40133  15.200  13.623  13.526
76201W        W40134   0.917  15.698   3.272
76202W        W40135  12.120  28.004  13.898
76203W        W40136  13.731  13.736  10.476
76204W        W40137  39.846  30.043  13.060
76205W        W40138  32.133  38.839   1.294
76206W        W40139   2.760  15.786   3.302
76207W        W40140  43.289  25.629  13.348
76208W        W40141  20.086  21.219   4.184
76209W        W40142  15.717  37.874   9.544
76210W        W40143   5.731  26.477   0.449
76211W        W40144   2.426  42.290   1.743
76212W        W40145  34.497  13.197  10.443
76213W        W40146  37.462   1.969  14.317
76214W        W40147   9.868  12.782  10.968
76215W        W40148   8.810  16.710  11.398
76216W        W40149  11.791   5.728   2.781
76217W        W40150  28.182   1.416  11.982
76218W        W40151  25.708  21.030   3.347
76219W        W40152   9.840   6.300  13.798
76220W        W40153  24.639  23.103  11.555
76221W        W40154  37.888  36.432   1.776
76222W        W40155   4.298  12.703   1.241
76223W        W40156  17.777  11.199   0.300
76224W        W40157   6.191  15.663   0.405
76225W        W40158  44.478  24.702   1.427
76226W        W40159  18.233   9.832  11.373
76227W        W40160  30.432  44.263  14.972
76228W        W40161  10.325  40.493   4.231
76229W        W40162  41.023  20.141  11.386
76230W        W40163  37.867   6.866  10.414
76231W        W40164  15.633   9.280   5.092
76232W        W40165   0.926   3.286  11.904
76233W        W40166  33.426  25.534   4.676
76234W        W40167  23.599  11.639  11.961
76235W        W40168  41.322   9.658   2.705
76236W        W40169  38.882  32.465   0.479
76237W        W40170   1.875  33.426  11.943
76238W        W40171   5.337  42.006   4.743
76239W        W40172  38.404  31.645  14.840
76240W        W40173  19.252  37.433   1.846
76241W        W40174  18.598  27.946  14.020
76242W        W40175   1.900  27.028  10.453
76243W        W40176  13.343  40.514  12.887
76244W        W40177   1.921  42.330   0.856
76245W        W40178  44.394  42.985   2.190
76246W        W40179  38.873  38.483  12.015
76247W        W40180  36.379  31.543   0.267
76248W        W40181  30.432   5.340   2.274
76249W        W40182   6.387  43.505   4.188
76250W        W40183   3.947  25.093  13.908
76251W        W40184   3.365  38.351   0.400
76252W        W40185  40.450  40.826   3.311
76253W        W40186  43.778   4.807  12.401
76254W        W40187  24.071  39.526   3.713
76255W        W40188   0.423  33.423   1.797
76256W        W40189  35.387  14.204   4.135
76257W        W40190  42.453  36.941   2.367
76258W        W40191  37.354  29.949   2.847
76259W        W40192   4.923  19.067   4.637
76260W        W40193  40.826   0.334  11.555
76261W        W40194  32.098  12.707  11.980
76262W        W40195   2.413  16.081   9.992
76263W        W40196  44.996  31.566   1.812
76264W        W40197   8.818  18.067  13.007
76265W        W40198  27.184  39.503  13.488
76266W        W40199  42.347  44.369  13.890
76267W        W40200   7.215  30.056  10.415
76268W        W40201  22.063  22.589   0.292
76269W        W40202   4.384   1.799  14.373
76270W        W40203   5.764  37.478   4.193
76271W        W40204   4.284  37.953   3.301
76272W        W40205  26.657   4.849   2.694
76273W        W40206  30.036   8.807   4.680
76274W        W40207  39.028  30.079   3.727
76275W        W40208  32.461   4.852   4.753
76276W        W40209   7.391  13.210  12.984
76277W        W40210  41.965  40.416   3.359
76278W        W40211  13.683  15.587   3.188
76279W        W40212  17.108  26.520   4.806
76280W        W40213  38.067   1.732  11.496
76281W        W40214  14.688  21.524  11.921
76282W        W40215  16.274  18.110   5.252
76283W        W40216  29.666  28.142   5.228
76284W        W40217  15.276  33.885   3.330
76285W        W40218  30.444  27.103  13.837
76286W        W40219  27.062  31.993  14.349
76287W        W40220   3.302   5.371  12.517
76288W        W40221  41.898  37.348  11.905
76289W        W40222  25.216  39.403   4.702
76290W        W40223  15.621  24.208  14.368
76291W        W40224  30.113  33.462  11.940
76292W        W40225  19.115   1.815   0.795
76293W        W40226  25.589   0.788  10.456
76294W        W40227   3.718  20.229  10.410
76295W        W40228  44.906  17.291   3.750
76296W        W40229  29.068  41.374   0.844
76297W        W40230  29.561  21.627  12.917
76298W        W40231  41.819  10.848  14.406
76299W        W40232   4.365  17.745  14.412
76300W        W40233  22.158  14.732  13.897
76301W        W40234  38.846  34.509   3.796
76302W        W40235   5.382  44.393  14.971
76303W        W40236  29.171  41.945   2.718
76304W        W40237  32.539  42.323   3.665
76305W        W40238  11.751   3.437   1.756
76306W        W40239  22.591  42.499   3.846
76307W        W40240  18.267   0.400   0.885
76308W        W40241  20.548  22.065  13.991
76309W        W40242  32.981  13.209  12.915
76310W        W40243  26.042  38.836   2.249
76311W        W40244  35.079  35.895  12.011
76312W        W40245  25.047   5.268  12.040
76313W        W40246   3.925  17.105  14.280
76314W        W40247   8.320  23.134  13.959
76315W        W40248  29.984  39.517   4.620
76316W        W40249   0.764   4.347  14.781
76317W        W40250  44.912  12.731   2.206
76318W        W40251  16.082  21.738   0.337
76319W        W40252  44.916  30.482   0.888
76320W        W40253  31.058  13.238   1.369
76321W        W40254  31.059  31.443   1.760
76322W        W40255  32.122  17.577   1.828
76323W        W40256  12.753   2.397   0.908
76324W        W40257  31.554  37.991  10.965
76325W        W40258  41.969  32.915  11.373
76326W        W40259  11.708  12.705   1.425
76327W        W40260  23.690  33.575  14.401
76328W        W40261  37.065  30.032  11.876
76329W        W40262  25.599   3.297  13.332
76330W        W40263   8.791   1.417  10.533
76331W        W40264  34.998  15.192   1.933
76332W        W40265  43.385  13.711  13.527
76333W        W40266  33.428   6.827  13.007
76334W        W40267  21.219  23.707  13.466
76335W        W40268  30.462   5.692  12.532
76336W        W40269  15.721  31.982   1.450
76337W        W40270  11.635   6.843  10.624
76338W        W40271  41.843  13.320  13.060
76339W        W40272  33.598   1.313  13.385
76340W        W40273   7.213  27.071  10.533
76341W        W40274  12.202   1.750   1.707
76342W        W40275   5.838  25.137   0.814
76343W        W40276  33.044  10.295   0.930
76344W        W40277  42.845   8.322   2.880
76345W        W40278  24.075  38.014  10.944
76346W        W40279   4.808  40.534   5.139
76347W        W40280  11.345   3.783  11.557
76348W        W40281   9.249  20.079   0.326
76349W        W40282   1.906   6.364  12.514
76350W        W40283   0.464  15.581   0.864
76351W        W40284  36.970   1.736  11.066
76352W        W40285  38.421  24.678   0.898
76353W        W40286  39.401  16.629   1.806
76354W        W40287  14.266  35.101  13.060
76355W        W40288   8.367   0.315  12.006
76356W        W40289  43.894  24.976  12.999
76357W        W40290   9.373  24.012   3.631
76358W        W40291  44.269  26.110   2.394
76359W        W40292  22.635  41.024   1.694
76360W        W40293  20.148   4.303   3.385
76361W        W40294  32.623  11.683  12.389
76362W        W40295  40.833  43.424  14.355
76363W        W40296  33.493  14.757  13.437
76364W        W40297  39.024  30.147  11.980
76365W        W40298  11.770  35.574   3.380
76366W        W40299  10.224   1.385   0.379
76367W        W40300  42.832   3.947  10.600
76368W        W40301  39.828  24.502   2.188
76369W        W40302  43.996   9.821   3.379
76370W        W40303  17.234  16.733  12.876
76371W        W40304  10.668  21.751   1.394
76372W        W40305  28.117  10.327  10.979
76373W        W40306  32.990  15.745   3.290
76374W        W40307  42.385   5.213  11.009
76375W        W40308  30.501  38.028  11.030
76376W        W40309  29.028  15.205  11.884
76377W        W40310  18.766   6.224  10.641
76378W        W40311  33.396   6.314  10.610
76379W        W40312   9.691  10.643   3.870
76380W        W40313  42.959  15.221  13.841
76381W        W40314  16.254  35.032   3.824
76382W        W40315  44.975  30.946   2.728
76383W        W40316  17.694   9.826   0.729
76384W        W40317  30.071  43.852   0.813
76385W        W40318  29.437  23.038  13.322
76386W        W40319  36.994   1.320   0.862
76387W        W40320  40.034  36.520  10.451
76388W        W40321  43.503  40.529   2.709
76389W        W40322  24.656  29.007   3.679
76390W        W40323  20.552  12.807  10.579
76391W        W40324  35.918   1.244  13.888
76392W        W40325  37.835  38.951   1.735
76393W        W40326   4.429  17.744  12.414
76394W        W40327  20.200  30.135  11.988
76395W        W40328  13.705  37.485  10.961
76396W        W40329   2.776  24.194   3.260
76397W        W40330   1.856  18.105  14.882
76398W        W40331  36.904  26.600  12.010
76399W        W40332  19.672  40.927  12.429
76400W        W40333  14.704  39.465   4.320
76401W        W40334  38.056   7.287   2.842
76402W        W40335  19.738  34.458   1.894
76403W        W40336  44.780  25.010   3.839
76404W        W40337  32.981  33.388   4.319
76405W        W40338   9.734   5.705   2.674
76406W        W40339  17.596   5.400  14.337
76407W        W40340  20.524  28.521   2.350
76408W        W40341   6.898  43.920  12.377
76409W        W40342  28.494   0.977   2.805
76410W        W40343  12.616   9.703   0.408
76411W        W40344  20.274  44.952  11.095
76412W        W40345  41.474  25.114   1.283
76413W        W40346  37.069  16.724   0.900
76414W        W40347  43.509  17.226   0.902
76415W        W40348  33.445  44.490  13.366
76416W        W40349   3.871  34.935  11.986
76417W        W40350  36.048  23.037  12.060
76418W        W40351  22.233  24.167   0.784
76419W        W40352  28.078  42.381  11.551
76420W        W40353  31.149   9.382  11.969
76421W        W40354   3.769  27.489   0.395
76422W        W40355  18.077  23.041   0.330
76423W        W40356  31.547  43.909   2.685
76424W        W40357  24.602  27.017   1.263
76425W        W40358  21.017  35.499  11.593
76426W        W40359  18.572  38.923   0.401
76427W        W40360  13.205  29.511   5.235
76428W        W40361  40.391  30.464  14.769
76429W        W40362  28.949   5.756  11.883
76430W        W40363  19.692  17.677   1.706
76431W        W40364  34.869   2.872  12.049
76432W        W40365  44.271  43.514  12.983
76433W        W40366  18.184  44.314  12.348
76434W        W40367  11.337  18.275   3.767
76435W        W40368   1.427  40.816  14.394
76436W        W40369  35.536  14.133  13.037
76437W        W40370   7.195  13.186  13.808
76438W        W40371   2.411  21.183   2.297
76439W        W40372   1.356  31.619   3.374
76440W        W40373  35.372   8.181  14.369
76441W        W40374  18.551  10.204  10.558
76442W        W40375  17.718  15.735   1.725
76443W        W40376  31.403  43.503  12.423
76444W        W40377  12.786  40.309  11.054
76445W        W40378   8.316  20.174  11.535
76446W        W40379  20.656   6.234   4.692
76447W        W40380  34.524   5.889  14.809
76448W        W40381  33.091  16.599  14.318
76449W        W40382  23.725  12.649   4.122
76450W        W40383  13.757  13.344  13.314
76451W        W40384   9.844  15.702   4.198
76452W        W40385  40.319  31.138   2.896
76453W        W40386  21.189  21.021  11.571
76454W        W40387  29.540  10.370   1.381
76455W        W40388  38.036  25.157   4.227
76456W        W40389  34.573  25.009  13.311
76457W        W40390  22.215   9.377  13.053
76458W        W40391  37.382  39.893   4.174
76459W        W40392  24.679  22.611   4.794
76460W        W40393  11.728   5.250   0.744
76461W        W40394  34.420  32.557   1.221
76462W        W40395   6.816  39.939   4.722
76463W        W40396   8.675  42.483  14.476
76464W        W40397   4.273   9.854   2.202
76465W        W40398   8.211  40.492  11.497
76466W        W40399  37.390  32.917  10.152
76467W        W40400  37.349  13.642  12.028
76468W        W40401  39.852   9.273   4.729
76469W        W40402  10.651  10.680   0.303
76470W        W40403  39.419  27.149  14.776
76471W        W40404   9.796  11.329  14.005
76472W        W40405   8.813  30.112  10.971
76473W        W40406  31.412  31.102   0.925
76474W        W40407  44.866   6.807  12.030
76475W        W40408  35.434  12.672   4.117
76476W        W40409  14.286  36.969  12.488
76477W        W40410  21.681  40.840  12.429
76478W        W40411  27.141  23.520   5.262
76479W        W40412  14.796   3.730  12.866
76480W        W40413  16.289   6.185  14.894
76481W        W40414  28.498  25.195   0.301
76482W        W40415  26.574  32.577  13.909
76483W        W40416  20.603   4.205  13.994
76484W        W40417  34.463  31.950  14.297
76485W        W40418  23.692  29.097  14.490
76486W        W40419  17.089  29.065   4.130
76487W        W40420  26.593   3.884   5.158
76488W        W40421  28.136   8.303  13.527
76489W        W40422  29.937  35.492   4.805
76490W        W40423   4.412  37.029  14.485
76491W        W40424  25.181  19.566  13.850
76492W        W40425  30.570  25.171  14.359
76493W        W40426  12.145   7.279   4.686
76494W        W40427  43.894  28.579  13.837
76495W        W40428  25.013  14.224   3.253
76496W        W40429  27.565  26.159  14.497
76497W        W40430  30.087  44.953  10.426
76498W        W40431  12.187   5.310  11.927
76499W        W40432  24.663   2.946   4.285
76500W        W40433  44.969   0.897  10.952
76501W        W40434  25.622  35.025   3.288
76502W        W40435  13.686   1.790  14.010
76503W        W40436  21.174  28.602  10.916
76504W        W40437  20.685  16.271  10.621
76505W        W40438  30.638  21.573  10.417
76506W        W40439  13.326  16.568  13.834
76507W        W40440   0.409  23.561   3.652
76508W        W40441  26.630  39.052   1.836
76509W        W40442  43.381  40.865  12.889
76510W        W40443  10.292  34.413  12.944
76511W        W40444  35.489  21.171  13.941
76512W        W40445  13.160  29.965   1.718
76513W        W40446   4.340   3.751   3.209
76514W        W40447  35.502  34.036   0.925
76515W        W40448   1.852  35.437   0.900
76516W        W40449  22.677   9.718  14.346
76517W        W40450  44.778   8.677  13.381
76518W        W40451   2.312  10.183  11.056
76519W        W40452  19.662  39.831   3.659
76520W        W40453   8.851  26.966  12.942
76521W        W40454   1.260   0.925   0.259
76522W        W40455   4.923  20.564   1.228
76523W        W40456  35.969  39.029   1.415
76524W        W40457  27.551  36.572   2.299
76525W        W40458   8.396   7.247  10.991
76526W        W40459   5.858  21.638   1.789
76527W        W40460  29.158  18.674  13.366
76528W        W40461   9.208   5.835   0.842
76529W        W40462  38.538  21.758   3.209
76530W        W40463  26.648  23.184  12.860
76531W        W40464  25.181  24.599   3.637
76532W        W40465  24.584  43.919   3.162
76533W        W40466  12.262   5.898  13.961
76534W        W40467   9.214  35.019   3.336
76535W        W40468  13.323  19.078   3.174
76536W        W40469   7.187   3.914   3.371
76537W        W40470  35.942  25.050  12.493
76538W        W40471   2.755  38.019  12.445
76539W        W40472  12.815  10.258   2.252
76540W        W40473   1.413  27.112  13.458
76541W        W40474  36.969  13.760  14.781
76542W        W40475  32.011  23.002   4.799
76543W        W40476   9.348   8.165  12.498
76544W        W40477  24.177  42.775  11.387
76545W        W40478  17.648  30.047   4.331
76546W        W40479  27.588  33.884  10.498
76547W        W40480  36.463  44.905  13.919
76548W        W40481  18.054   6.395  14.399
76549W        W40482  32.921  29.116  13.320
76550W        W40483  12.856  40.318  13.454
76551W        W40484  29.941  32.515  12.868
76552W        W40485  39.939  29.610   0.347
76553W        W40486  16.703   2.252   2.751
76554W        W40487   7.869  23.618   4.717
76555W        W40488  44.497   9.818  10.994
76556W        W40489  15.275  43.985  12.459
76557W        W40490  35.975   6.846   3.324
76558W        W40491  17.702  13.778  14.828
76559W        W40492   5.845  43.929   3.329
76560W        W40493  16.266  32.015   1.738
76561W        W40494  43.433   2.333   1.379
76562W        W40495  14.784   1.945  11.530
76563W        W40496  27.045  37.422   2.406
76564W        W40497  13.661  22.086   4.803
76565W        W40498  16.606   2.295   1.837
76566W        W40499   1.464  37.858  12.080
76567W        W40500   2.883  11.683  12.017
76568W        W40501   9.358  25.625  10.114
76569W        W40502   1.318   2.813  11.029
76570W        W40503  36.490  26.079   2.224
76571W        W40504  40.499   3.805   4.612
76572W        W40505  12.636  15.688   3.695
76573W        W40506   5.407   8.341  10.531
76574W        W40507   6.899   7.800  11.414
76575W        W40508   0.888  30.136   0.457
76576W        W40509  19.594  26.124   1.814
76577W        W40510  18.264   2.877   4.694
76578W        W40511   8.896  40.388  13.412
76579W        W40512  31.560  35.887  14.946
76580W        W40513  20.231  38.925  11.536
76581W        W40514  27.006  31.019  14.940
76582W        W40515  11.171  15.724  13.443
76583W        W40516  20.545  36.935   1.382
76584W        W40517   0.942   5.266  13.375
76585W        W40518   4.389   0.340  14.423
76586W        W40519  37.021  21.085  11.567
76587W        W40520   5.750   8.388  11.019
76588W        W40521  31.644   7.669  14.311
76589W        W40522  39.810  11.353   4.718
76590W        W40523  37.569  11.346   2.237
76591W        W40524  25.565  25.966   1.359
76592W        W40525   1.291  18.588  11.574
76593W        W40526  43.842  29.939  11.122
76594W        W40527  18.656  40.990   2.332
76595W        W40528  25.112  40.338   3.813
76596W        W40529  30.990  11.655   0.809
76597W        W40530  39.866  26.019  14.894
76598W        W40531   1.271   2.759   0.355
76599W        W40532   7.305  34.868   4.786
76600W        W40533   0.874  30.992  10.635
76601W        W40534  34.940  23.228  11.535
76602W        W40535  43.957  43.400   4.135
76603W        W40536  33.934  28.645   4.730
76604W        W40537  27.131  25.703   1.284
76605W        W40538  27.637   2.468   0.397
76606W        W40539  29.464  41.473   4.744
76607W        W40540  13.682  39.371   4.636
76608W        W40541  29.952  30.538   0.859
76609W        W40542   0.823  16.616   4.141
76610W        W40543  32.400  19.105  13.012
76611W        W40544   3.916  44.786   1.257
76612W        W40545  15.586  13.648   2.322
76613W        W40546  12.700   6.203  10.451
76614W        W40547  16.619  33.626   2.736
76615W        W40548  24.151  22.187   4.687
76616W        W40549  42.950  27.002  12.485
76617W        W40550  29.450  37.376   0.946
76618W        W40551  21.164  42.799  13.048
76619W        W40552  20.129   4.849  14.436
76620W        W40553  41.811  29.499   0.947
76621W        W40554   8.389   6.861   1.882
76622W        W40555  19.278   7.389  12.961
76623W        W40556  11.240  26.701   3.805
76624W        W40557  37.971  17.099  11.502
76625W        W40558  44.970  44.936  13.970
76626W        W40559  25.969  16.150  10.623
76627W        W40560  13.775  11.242   3.789
76628W        W40561   7.287  37.896   0.262
76629W        W40562  40.411   9.680  13.452
76630W        W40563  12.752  20.233  12.867
76631W        W40564  38.976   0.919   2.229
76632W        W40565  29.940  19.111   0.890
76633W        W40566  26.164   6.781   2.713
76634W        W40567  16.757   6.236   0.304
76635W        W40568  42.467  42.853   1.912
76636W        W40569  44.881  39.881  11.958
76637W        W40570  10.717   5.286  14.402
76638W        W40571  29.503  20.039   2.673
76639W        W40572  16.612  13.788   3.783
76640W        W40573  28.013   5.339  12.853
76641W        W40574   5.743  31.123   2.723
76642W        W40575  10.858   6.801  14.821
76643W        W40576  34.958  41.009   4.793
76644W        W40577  22.200  15.785  12.055
76645W        W40578  34.474   1.293   0.826
76646W        W40579  35.957   4.295  12.016
76647W        W40580   6.309  23.071  10.638
76648W        W40581  18.614  40.884   3.331
76649W        W40582  38.443  28.097   3.835
76650W        W40583   1.933  41.879  10.905
76651W        W40584  44.825   3.446  12.051
76652W        W40585  38.984  25.687  12.882
76653W        W40586  18.639  18.636  14.420
76654W        W40587  34.102  15.313   3.312
76655W        W40588  32.410  34.372  12.435
76656W        W40589  26.055  31.040  10.546
76657W        W40590   4.216   4.810   4.225
76658W        W40591  17.223  43.454  11.496
76659W        W40592  11.228  21.249  11.467
76660W        W40593  15.217  42.517  12.059
76661W        W40594  40.393   5.751  10.970
76662W        W40595  17.698  21.727   3.294
76663W        W40596  25.494  21.672   1.920
76664W        W40597  17.784  11.685   1.429
76665W        W40598   7.207   8.897  10.897
76666W        W40599   2.270  28.569   1.441
76667W        W40600   6.265  34.568  10.934
76668W        W40601  33.492  42.412   2.384
76669W        W40602  36.562  13.744   1.816
76670W        W40603  44.932  23.545   3.382
76671W        W40604  35.020  22.734   0.395
76672W        W40605  24.632   8.204   5.146
76673W        W40606   3.800   9.181  11.554
76674W        W40607  24.662  19.274  12.467
76675W        W40608  13.235   3.417   5.129
76676W        W40609  26.463  34.500   4.148
76677W        W40610  22.212  24.176  14.945
76678W        W40611  11.241  12.290   3.834
76679W        W40612  23.091  37.538  10.512
76680W        W40613   1.412  35.501  13.793
76681W        W40614  29.987  41.909  12.046
76682W        W40615  24.579  39.540   4.826
76683W        W40616  26.057  42.437   3.715
76684W        W40617  30.519   8.326  14.366
76685W        W40618  34.097   2.460   3.204
76686W        W40619  32.411  38.492   2.343
76687W        W40620   8.752  20.042  14.791
76688W        W40621   2.828  44.967   2.407
76689W        W40622  31.483   8.291   4.290
76690W        W40623  44.505  19.780   3.343
76691W        W40624  42.287   6.826  12.423
76692W        W40625   2.285  18.741   4.641
76693W        W40626  27.970  35.108   4.217
76694W        W40627  34.061  21.642  10.962
76695W        W40628  37.342  42.421  11.003
76696W        W40629   3.312  20.114   0.314
76697W        W40630  35.474  21.189   4.184
76698W        W40631  22.545  28.648  13.002
76699W        W40632  16.740  21.147  13.064
76700W        W40633   6.688  38.408  12.524
76701W        W40634   6.740   8.211  12.029
76702W        W40635  14.175  35.856  10.459
76703W        W40636  37.883  15.676   0.359
76704W        W40637  43.022  14.215   2.874
76705W        W40638  22.182  15.131   3.213
76706W        W40639  17.287  13.183  12.092
76707W        W40640   0.942   9.793  13.028
76708W        W40641   1.477  30.567   3.225
76709W        W40642  40.043  27.659  13.475
76710W        W40643   2.308   6.901  11.542
76711W        W40644  21.205   7.389   2.214
76712W        W40645  13.743  15.116  13.987
76713W        W40646  28.669   4.438  10.452
76714W        W40647  22.111   2.309  13.480
76715W        W40648  43.788  23.109  11.537
76716W        W40649  35.938  38.551   3.199
76717W        W40650  16.237   2.434  12.005
76718W        W40651   8.395   6.896   3.697
76719W        W40652  28.550  17.622  14.812
76720W        W40653  37.425  42.407  13.939
76721W        W40654  15.715  26.508  11.907
76722W        W40655  27.977  39.984   4.291
76723W        W40656   8.303  26.671   4.281
76724W        W40657  25.472  38.492   2.204
76725W        W40658  36.374  39.054  12.944
76726W        W40659  21.605  32.909   1.760
76727W        W40660   5.239  31.041   3.244
76728W        W40661   2.771  25.971   4.235
76729W        W40662  40.493   2.389  10.547
76730W        W40663  26.154   2.387  10.105
76731W        W40664  26.990  18.057   2.349
76732W        W40665   2.391  36.403  14.463
76733W        W40666   1.821  10.243  13.321
76734W        W40667  17.794   2.816   3.225
76735W        W40668  16.680  34.059   2.738
76736W        W40669  38.899  21.606   4.159
76737W        W40670  19.198  37.416   3.356
76738W        W40671   4.803  37.996  13.318
76739W        W40672  21.123  28.555  10.012
76740W        W40673  24.174  37.363   2.310
76741W        W40674  35.592  24.534  10.892
76742W        W40675  24.644  42.452   2.832
76743W        W40676  25.984  27.952  13.381
76744W        W40677  17.071   7.177   1.799
76745W        W40678  28.976  40.969   4.175
76746W        W40679  28.626  30.447   1.741
76747W        W40680  31.522  43.020  13.514
76748W        W40681  23.576  32.003   3.662
76749W        W40682  26.577  28.639  13.346
76750W        W40683  23.162  30.931  13.847
76751W        W40684   6.275  15.595  14.505
76752W        W40685  32.982  25.034  14.477
76753W        W40686  22.679   3.823  13.038
76754W        W40687  26.113  27.462  14.963
76755W        W40688  39.967   6.293  14.411
76756W        W40689  35.048   3.313  14.940
76757W        W40690  25.980   1.917  13.364
76758W        W40691  31.966  44.479   4.631
76759W        W40692   5.213  24.121  14.431
76760W        W40693  34.480  11.321   2.695
76761W        W40694  27.515   6.364  12.357
76762W        W40695  11.729   3.793  12.082
76763W        W40696  23.156  16.305   4.637
76764W        W40697  30.513  40.813   1.902
76765W        W40698  30.575  44.269   3.354
76766W        W40699  31.151  20.120   4.700
76767W        W40700  43.339   2.459   2.247
76768W        W40701  43.331  15.803   4.820
76769W        W40702   9.751  22.180   0.454
76770W        W40703  12.760  40.939   1.898
76771W        W40704  37.000   3.941  10.940
76772W        W40705  30.455  19.140   1.415
76773W        W40706  23.198   1.766   3.334
76774W        W40707  34.393  24.178   3.670
76775W        W40708  40.920  43.821   4.827
76776W        W40709  17.614  40.960   4.778
76777W        W40710  18.664  31.952  10.595
76778W        W40711  40.395  21.537  12.361
76779W        W40712  38.564  19.778  14.423
76780W        W40713  36.435  19.237  11.593
76781W        W40714   0.853  36.972  12.035
76782W        W40715  36.365  43.882   4.712
76783W        W40716   8.835  22.998   1.403
76784W        W40717  26.101  11.713   1.757
76785W        W40718   8.730  24.069   2.398
76786W        W40719  16.072  29.955   2.247
76787W        W40720  25.967  13.653  11.110
76788W        W40721   8.172  37.034  10.539
76789W        W40722  42.787  24.604  14.016
76790W        W40723  28.657  25.138   1.829
76791W        W40724  20.588  43.333   0.833
76792W        W40725  37.955  39.481   1.914
76793W        W40726  14.697  31.609  12.057
76794W        W40727   4.411  22.578  11.936
76795W        W40728  42.895  10.831  11.061
76796W        W40729  23.211   9.338   0.349
76797W        W40730  27.195  18.640  12.091
76798W        W40731   3.711   4.272  11.013
76799W        W40732   0.406  37.854   2.811
76800W        W40733   1.406  18.602   4.314
76801W        W40734  38.854  21.693  11.896
76802W        W40735   4.700  15.603   3.708
76803W        W40736  31.055  15.309   4.604
76804W        W40737  40.015  38.878   3.281
76805W        W40738   5.338  12.121  14.387
76806W        W40739  40.326  43.954  11.591
76807W        W40740   8.654   0.861  11.864
76808W        W40741  28.573  16.296  12.980
76809W        W40742  20.752  39.453   3.650
76810W        W40743  29.990  33.563   2.744
76811W        W40744   6.764  30.142  12.450
76812W        W40745   2.257  27.560   0.342
76813W        W40746  10.832  43.509  11.872
76814W        W40747  11.202  28.451   1.773
76815W        W40748  36.535  29.518  10.606
76816W        W40749  43.941  14.096   3.683
76817W        W40750  36.445   3.315  13.039
76818W        W40751  31.471  12.662  13.517
76819W        W40752  34.497  34.456  10.426
76820W        W40753  44.789   4.943  11.564
76821W        W40754   2.367  24.103   3.725
76822W        W40755  18.714   5.756  14.833
76823W        W40756  13.222  40.875  12.554
76824W        W40757  25.641   5.343  13.045
76825W        W40758  17.138  21.246   1.288
76826W        W40759  30.622  38.351  12.549
76827W        W40760   0.835  31.131  13.500
76828W        W40761  42.958   3.775  10.985
76829W        W40762  41.524  41.454   1.822
76830W        W40763  36.942  13.777   4.729
76831W        W40764  14.164   1.370  14.824
76832W        W40765  30.441  40.016  13.844
76833W        W40766   6.414  26.168   2.685
76834W        W40767  15.195  44.341  14.793
76835W        W40768  40.923  36.475   5.285
76836W        W40769  22.140  43.847  13.794
76837W        W40770  35.991  19.094   0.926
76838W        W40771  17.774  44.477  14.777
76839W        W40772  11.780  33.127  11.525
76840W        W40773   8.254  13.137  14.867
76841W        W40774  11.747  36.055   5.231
76842W        W40775  12.309  40.029   3.287
76843W        W40776   7.756  21.513   0.780
76844W        W40777  13.797  44.974  14.490
76845W        W40778  41.412   5.352  11.596
76846W        W40779   1.793   3.752  11.076
76847W        W40780  11.653  17.690  12.918
76848W        W40781  32.012  41.904  14.316
76849W        W40782   3.875   1.797   4.722
76850W        W40783  16.218   6.898  11.527
76851W        W40784  13.132  14.179  10.499
76852W        W40785  20.734  30.943   0.881
76853W        W40786   3.819  11.675   0.479
76854W        W40787   3.756   2.369  14.976
76855W        W40788  18.222  41.316  11.929
76856W        W40789  15.613  27.046  14.352
76857W        W40790   1.881  24.554   1.248
76858W        W40791   7.672  11.155  12.577
76859W        W40792  11.264  44.403   2.794
76860W        W40793   1.749  21.070  11.382
76861W        W40794  22.190  30.131   2.179
76862W        W40795  16.298  25.521  13.448
76863W        W40796   1.739  22.145  14.486
76864W        W40797  20.766  33.402   3.640
76865W        W40798   4.906  14.114  12.035
76866W        W40799   8.213  22.235  10.507
76867W        W40800   5.722  19.693   1.443
76868W        W40801  10.845  21.558  13.016
76869W        W40802  41.347  16.741  12.048
76870W        W40803   2.313  11.148  10.923
76871W        W40804  24.517   0.321   0.839
76872W        W40805  16.617  27.674  12.042
76873W        W40806  32.470  26.673  12.900
76874W        W40807  27.638   8.756   4.752
76875W        W40808  22.090  23.519  11.967
76876W        W40809  13.762  44.420   0.893
76877W        W40810   9.170  27.635   2.206
76878W        W40811  32.055  22.715  12.391
76879W        W40812  25.515   3.787  12.482
76880W        W40813  25.575  41.323   4.691
76881W        W40814   6.860  42.386  10.521
76882W        W40815  33.040  15.671   2.311
76883W        W40816  28.115  16.579   3.816
76884W        W40817  18.736  32.032  12.376
76885W        W40818   2.918  15.260  13.442
76886W        W40819  15.779  23.057   4.203
76887W        W40820  12.310  21.747  11.496
76888W        W40821  14.671   3.945   0.279
76889W        W40822  28.599  35.580   0.454
76890W        W40823   3.234  34.913  11.446
76891W        W40824  32.452  24.030  13.441
76892W        W40825  32.055  34.503  10.536
76893W        W40826  10.787   0.800  14.028
76894W        W40827  13.667   2.420   2.780
76895W        W40828   3.405   4.885  12.014
76896W        W40829   5.205  22.530  12.547
76897W        W40830  31.006  40.348   4.279
76898W        W40831  11.849  28.158   3.212
76899W        W40832   0.462   6.260  13.533
76900W        W40833  10.835  29.642   1.293
76901W        W40834  26.474  33.097  12.936
76902W        W40835  35.079  29.114   2.764
76903W        W40836  25.080  28.636  14.871
76904W        W40837  10.693  27.609  10.918
76905W        W40838   1.774   6.771   0.250
76906W        W40839  42.526  13.131  12.525
76907W        W40840   4.424  19.614   0.314
76908W        W40841  26.051   7.665  13.011
76909W        W40842  16.795  28.964   0.835
76910W        W40843  26.496  39.847  13.413
76911W        W40844  34.110  36.374  13.827
76912W        W40845   6.884  23.503  11.866
76913W        W40846  23.989  41.865  12.455
76914W        W40847   2.445   7.413   3.319
76915W        W40848   2.295   4.747   4.663
76916W        W40849  29.029  36.870  12.379
76917W        W40850  36.011  31.941  10.478
76918W        W40851   6.779  17.201  12.856
76919W        W40852  20.691  33.067  13.849
76920W        W40853  15.231   5.290   2.895
76921W        W40854  27.598  20.677  10.536
76922W        W40855  36.363   1.439  11.986
76923W        W40856  29.485   2.239  13.858
76924W        W40857   0.772  27.624   4.788
76925W        W40858  22.104  20.642  14.871
76926W        W40859  14.684  23.490  12.971
76927W        W40860  41.504  31.009   0.811
76928W        W40861  13.298  13.718   1.414
76929W        W40862  13.256  44.494   9.935
76930W        W40863  34.402   2.869   3.848
76931W        W40864  41.320   2.823  10.438
76932W        W40865  39.946  37.015   1.348
76933W        W40866   7.183  26.504   1.883
76934W        W40867  29.659   6.843   4.153
76935W        W40868  36.387  10.198  12.415
76936W        W40869  34.108   6.901  14.874
76937W        W40870  39.438  32.137  10.992
76938W        W40871  38.868  20.673  11.100
76939W        W40872  44.991  14.306   0.389
76940W        W40873  34.975  10.230   2.808
76941W        W40874   7.881  12.163   2.269
76942W        W40875   2.721  32.429  11.607
76943W        W40876  31.568  20.567  10.468
76944W        W40877  24.038  31.474   2.369
76945W        W40878   7.176  30.463  10.591
76946W        W40879  33.525  20.031  10.959
76947W        W40880  21.063  20.143  10.632
76948W        W40881  18.598  44.403   4.129
76949W        W40882  29.987   0.805   0.855
76950W        W40883  15.156  12.340   0.790
76951W        W40884   3.949   1.933   4.266
76952W        W40885  18.706  17.067   1.428
76953W        W40886   5.846  29.025   3.750
76954W        W40887   8.284  32.523  14.368
76955W        W40888  30.584   8.831  14.316
76956W        W40889  39.450  26.053   3.284
76957W        W40890  36.444  22.218   0.793
76958W        W40891  42.969  40.047  13.384
76959W        W40892  44.301   2.805  14.946
76960W        W40893  40.383  26.120   2.672
76961W        W40894  29.952  16.667   2.735
76962W        W40895   4.766  21.582  10.572
76963W        W40896  23.068  32.499  11.474
76964W        W40897  13.730   6.207  13.060
76965W        W40898  39.452  24.002  10.506
76966W        W40899  15.772  32.074   4.704
76967W        W40900   4.871  37.986   2.300
76968W        W40901  34.973  29.938  13.922
76969W        W40902  25.542  43.441  11.498
76970W        W40903   7.274   8.832   4.669
76971W        W40904   7.754   3.738  13.508
76972W        W40905  36.469  11.304  14.812
76973W        W40906  23.007   2.959   3.852
76974W        W40907   2.736  34.569   2.850
76975W        W40908  41.016  36.385   4.120
76976W        W40909  16.775  34.965   2.279
76977W        W40910  17.287  29.460   3.245
76978W        W40911  35.001  29.484  11.412
76979W        W40912  31.630  13.337  12.989
76980W        W40913   7.243  40.467   1.291
76981W        W40914  28.972   8.654  14.855
76982W        W40915  36.368  20.668   0.394
76983W        W40916  18.240  13.141   0.306
76984W        W40917  35.899   1.374  13.361
76985W        W40918  32.541  35.013  12.024
76986W        W40919   4.346  37.500   0.333
76987W        W40920   9.199  34.019   3.362
76988W        W40921  26.111  11.669   2.320
76989W        W40922   8.326  24.035   3.754
76990W        W40923   2.245  26.130  12.544
76991W        W40924  30.152   4.716  14.325
76992W        W40925  18.153  27.614   0.831
76993W        W40926  28.592   1.906  12.342
76994W        W40927  13.714  22.007  14.016
76995W        W40928  37.347  13.332   2.778
76996W        W40929  19.654  31.515   2.739
76997W        W40930   5.395  31.961  12.527
76998W        W40931  12.140  28.987  12.845
76999W        W40932  25.204  29.934   3.385
77000W        W40933  43.899  39.384   0.766
77001W        W40934   5.398  16.726   3.362
77002W        W40935  13.182  42.888  12.892
77003W        W40936  15.743  13.749  14.931
77004W        W40937  28.002   1.373  13.395
77005W        W40938  40.023  37.883  11.934
77006W        W40939  21.192  22.510   1.401
77007W        W40940  16.696  30.509   1.287
77008W        W40941  15.265  27.524  14.355
77009W        W40942  36.519  44.452  11.387
77010W        W40943  41.484  11.303  12.573
77011W        W40944  36.072  18.721  12.033
77012W        W40945  19.545  22.603   0.449
77013W        W40946  40.365   0.369  12.824
77014W        W40947  31.081  26.564   3.178
77015W        W40948  13.843   7.762   4.732
77016W        W40949  17.688   3.880  12.470
77017W        W40950  27.197  15.748   1.918
77018W        W40951  10.780  35.575   1.899
77019W        W40952   4.245  44.774  12.968
77020W        W40953  31.585  18.684  13.822
77021W        W40954  43.999  12.259   1.397
77022W        W40955  10.635  19.200  13.377
77023W        W40956  12.215  13.347  11.380
77024W        W40957   1.867  36.966  14.335
77025W        W40958  35.911   7.294  11.859
77026W        W40959  35.074  30.043   0.821
77027W        W40960  24.037  17.241   1.422
77028W        W40961   9.749  29.566  13.053
77029W        W40962  22.550  32.506   2.689
77030W        W40963  19.153   1.377   3.320
77031W        W40964  25.686  14.228  12.537
77032W        W40965  24.481  18.598  11.408
77033W        W40966  44.813   4.776   3.364
77034W        W40967  31.621  24.577   3.732
77035W        W40968  28.165  34.456  10.516
77036W        W40969  26.959  14.651   4.265
77037W        W40970  35.072   4.230   3.826
77038W        W40971   0.867  35.025   0.452
77039W        W40972  41.829  25.631  14.430
77040W        W40973  43.360  35.000   2.773
77041W        W40974  18.635  30.105   4.184
77042W        W40975  13.666  12.341  11.392
77043W        W40976  21.653  24.522  12.417
77044W        W40977  29.527   0.324  13.940
77045W        W40978   3.886  30.616   4.278
77046W        W40979  15.143  22.011   4.776
77047W        W40980  10.859  39.047  13.803
77048W        W40981  38.841  20.667   4.772
77049W        W40982  32.617  13.823   1.753
77050W        W40983  27.548  28.136   1.770
77051W        W40984  42.479   5.910  12.012
77052W        W40985   8.748  39.831  12.408
77053W        W40986  39.536  38.962  14.421
77054W        W40987  21.576   6.862  11.039
77055W        W40988  31.114  29.972  11.486
77056W        W40989  31.133  27.467  13.914
77057W        W40990  31.517  36.394  12.470
77058W        W40991  12.776  12.707   2.722
77059W        W40992  10.863   0.253   0.353
77060W        W40993  33.495  12.215   4.668
77061W        W40994  22.037  34.895  12.926
77062W        W40995  33.585  18.687  12.929
77063W        W40996   2.791  12.841  12.424
77064W        W40997  34.035  23.120  13.481
77065W        W40998  43.985  18.175  13.445
77066W        W40999  11.329  41.988  14.776
77067W        W41000  36.909  41.291   3.364
77068W        W41001   9.866   7.809   2.669
77069W        W41002   2.343  16.593  13.391
77070W        W41003  36.492   9.825   2.748
77071W        W41004  25.593  13.300   4.726
77072W        W41005   6.805  35.919  13.868
77073W        W41006  11.250  19.690  11.586
77074W        W41007  18.746   5.694  11.905
77075W        W41008   6.907  27.150  13.513
77076W        W41009  16.234  41.913  10.466
77077W        W41010  12.789   9.774   2.321
77078W        W41011  19.257  28.557  12.429
77079W        W41012  15.221  27.193  12.879
77080W        W41013  40.043  22.596   4.321
77081W        W41014  34.456  28.548  14.450
77082W        W41015  10.829  39.830   4.353
77083W        W41016  25.483  40.025   4.154
77084W        W41017  21.665  16.693   1.869
77085W        W41018   5.319  19.587  11.375
77086W        W41019  43.881  11.666   0.479
77087W        W41020  20.637   3.435  12.480
77088W        W41021  43.805  16.631  10.500
77089W        W41022  30.032  24.485  13.492
77090W        W41023  36.428  19.099  10.911
77091W        W41024   6.808   8.721  12.482
77092W        W41025  24.171  17.601  13.840
77093W        W41026  23.697  23.128   4.600
77094W        W41027  34.532  30.471   0.812
77095W        W41028  11.630   7.681   2.302
77096W        W41029  43.992  18.288  13.934
77097W        W41030  31.425  28.956   0.270
77098W        W41031  37.361   8.684  13.063
77099W        W41032  17.289   9.367   4.289
77100W        W41033  42.971  34.983   3.282
77101W        W41034  24.686  36.418  13.894
77102W        W41035  17.563   0.387  13.958
77103W        W41036  12.212  15.707  11.094
77104W        W41037  11.339  26.083   2.805
77105W        W41038  37.006   1.906  14.421
77106W        W41039  41.430  32.532   0.346
77107W        W41040  32.111  33.490   2.182
77108W        W41041  13.236  12.689   4.768
77109W        W41042   2.928  17.285  12.349
77110W        W41043  28.090  34.102  14.402
77111W        W41044  33.897  38.359  13.032
77112W        W41045  18.774  16.807  13.947
77113W        W41046  35.565  13.123   1.432
77114W        W41047  20.119  27.089  14.985
77115W        W41048  31.623   7.698   1.774
77116W        W41049  37.862   8.793   0.789
77117W        W41050   6.799   5.698   2.343
77118W        W41051   2.274  28.178   5.204
77119W        W41052  26.545   9.262   3.182
77120W        W41053   6.691  22.507   4.685
77121W        W41054  26.082  17.634  11.025
77122W        W41055  42.434  18.552  13.011
77123W        W41056   0.407  37.480   3.335
77124W        W41057  22.501  38.338  14.789
77125W        W41058   5.284   9.382  10.957
77126W        W41059  34.930  25.144   4.325
77127W        W41060   8.382  42.865  11.563
77128W        W41061   9.372   4.334  12.067
77129W        W41062  42.008  20.677  11.573
77130W        W41063  22.184   6.207  13.960
77131W        W41064   0.447   5.838   1.404
77132W        W41065  14.663  30.999  13.869
77133W        W41066  37.939  12.832   3.649
77134W        W41067  35.901   9.720   1.305
77135W        W41068   0.909  37.980  10.563
77136W        W41069   7.843  28.680  10.527
77137W        W41070  38.359  23.507  12.882
77138W        W41071   8.677  41.531  13.363
77139W        W41072   8.326   2.444   4.758
77140W        W41073  34.404  11.253  10.610
77141W        W41074  42.510  40.919   2.699
77142W        W41075  23.073  20.081   2.736
77143W        W41076   9.283   8.278  14.484
77144W        W41077   9.781   9.316  11.951
77145W        W41078  33.579  33.897   3.669
77146W        W41079  20.580  24.088  10.938
77147W        W41080  27.555  26.503   2.732
77148W        W41081  10.658  44.768  13.331
77149W        W41082  41.473   2.928   4.606
77150W        W41083  39.965  40.396  12.991
77151W        W41084   0.357  30.443  11.472
77152W        W41085  28.138   4.387   2.811
77153W        W41086  38.819  44.430  14.282
77154W        W41087  16.203   7.369  13.885
77155W        W41088  33.109  34.379  13.948
77156W        W41089  25.120   3.407   1.778
77157W        W41090   1.453  26.110  13.970
77158W        W41091  42.517  12.316  11.000
77159W        W41092  17.796  11.633  11.608
77160W        W41093  26.033  31.076  12.564
77161W        W41094  38.912  26.621  11.601
77162W        W41095  39.041   9.270   0.273
77163W        W41096  17.247   9.796  10.918
77164W        W41097   6.917  38.339   0.321
77165W        W41098  22.015  19.097   4.620
77166W        W41099   0.893  25.163  13.853
77167W        W41100   6.263  31.462  10.582
77168W        W41101  38.051  23.112  13.441
77169W        W41102  16.230  19.232  12.429
77170W        W41103  40.314  41.520   4.299
77171W        W41104  13.775  12.786  11.121
77172W        W41105  13.296  18.219   4.223
77173W        W41106  37.867   0.831  11.607
77174W        W41107  11.635  35.911  10.010
77175W        W41108   0.777  30.465  12.861
77176W        W41109  37.036   4.747   2.207
77177W        W41110  11.273  34.434   1.826
77178W        W41111  14.323  19.103   0.283
77179W        W41112  42.918   5.312   3.162
77180W        W41113  39.870  29.582  10.919
77181W        W41114   7.695  26.594  12.540
77182W        W41115  38.850  18.608  13.919
77183W        W41116  18.268  36.908   3.832
77184W        W41117  43.855  11.855   0.802
77185W        W41118  29.950  30.562  11.403
77186W        W41119  37.500  33.601   2.205
77187W        W41120   2.251   7.282  14.868
77188W        W41121   0.880  31.977  11.462
77189W        W41122  12.749  35.005   4.743
77190W        W41123  11.822  23.689   5.099
77191W        W41124  29.529  27.642  11.069
77192W        W41125  27.095  44.945  12.466
77193W        W41126  20.557  36.865  14.419
77194W        W41127  11.676  12.257   4.736
77195W        W41128  23.193  28.024  14.972
77196W        W41129   9.649  28.448  13.499
77197W        W41130  30.935  26.513  11.533
77198W        W41131  28.647   4.270  13.014
77199W        W41132  33.072  17.744  10.645
77200W        W41133  43.978  38.384  12.986
77201W        W41134  29.434  29.497  12.398
77202W        W41135  26.670   1.407  12.856
77203W        W41136   4.262  40.985   1.416
77204W        W41137  17.664  39.838  13.970
77205W        W41138  37.519  25.650  13.010
77206W        W41139  39.984  43.312  13.026
77207W        W41140   2.843  20.546  11.493
77208W        W41141  43.826  27.163   0.451
77209W        W41142  18.782  22.054  12.065
77210W        W41143  38.011  10.810   4.215
77211W        W41144  24.705  44.480   1.373
77212W        W41145  30.003   7.277  11.590
77213W        W41146  29.518  27.963  13.436
77214W        W41147  26.527  37.579  14.002
77215W        W41148  25.107  42.921  14.808
77216W        W41149  34.022   3.246  11.030
77217W        W41150  30.477  22.036  13.853
77218W        W41151  21.722  36.399   1.223
77219W        W41152  27.481  25.672  10.501
77220W        W41153  39.884  38.482  10.962
77221W        W41154  31.963  30.081  14.412
77222W        W41155   2.247   5.223  14.793
77223W        W41156   9.663   1.383   2.219
77224W        W41157   0.391  23.061   0.322
77225W        W41158  24.026  37.864   0.935
77226W        W41159  13.311  19.122  14.455
77227W        W41160  18.245   4.324  13.528
77228W        W41161  25.208  28.504  14.404
77229W        W41162  24.046  15.689   4.208
77230W        W41163  26.193  23.985  14.299
77231W        W41164  12.648   0.783   2.319
77232W        W41165   2.315  39.978  12.940
77233W        W41166  33.480  11.763   2.823
77234W        W41167  11.773  11.354  14.805
77235W        W41168  17.781   5.394   0.957
77236W        W41169  36.056  17.798   2.821
77237W        W41170  35.516  20.162  13.413
77238W        W41171   2.924  33.922   4.313
77239W        W41172  15.704  41.042   1.852
77240W        W41173  43.875  10.703  13.415
77241W        W41174  33.417   2.800  14.488
77242W        W41175  21.617   0.792  10.500
77243W        W41176  28.483  24.136   0.263
77244W        W41177  26.556  20.574  10.574
77245W        W41178  42.387   0.298   0.346
77246W        W41179   2.424   6.254   2.207
77247W        W41180  38.892  14.790  10.410
77248W        W41181  36.850   7.895   4.293
77249W        W41182  14.620  25.992  14.510
77250W        W41183  17.140  13.604   3.186
77251W        W41184  20.187  24.510   2.319
77252W        W41185  30.494   0.891   3.234
77253W        W41186  24.705   1.477  12.086
77254W        W41187  27.126  23.507  10.024
77255W        W41188  13.143   9.799   1.831
77256W        W41189  38.064  21.121   3.167
77257W        W41190   4.832  38.946   2.676
77258W        W41191  14.759  30.597  13.027
77259W        W41192  31.451  24.996  14.506
77260W        W41193  14.337   8.338   0.753
77261W        W41194  28.596  41.803   0.926
77262W        W41195   9.336  24.146  11.866
77263W        W41196  36.891  36.393  13.020
77264W        W41197   7.294  40.536   2.244
77265W        W41198   4.313  19.710  10.588
77266W        W41199  31.434   9.824  12.897
77267W        W41200  23.045  22.228   0.333
77268W        W41201  27.634  43.392  14.874
77269W        W41202   5.697  34.601   3.212
77270W        W41203  38.542  24.096   3.675
77271W        W41204  22.019  35.532   0.799
77272W        W41205  14.745   8.319  14.316
77273W        W41206  28.105  19.198   1.818
77274W        W41207  41.885   2.846  12.023
77275W        W41208  10.829   4.436   1.409
77276W        W41209  43.363  27.140   0.303
77277W        W41210  36.870   8.892  13.362
77278W        W41211   0.897  17.723   1.730
77279W        W41212  16.111  24.084   1.322
77280W        W41213  31.435   7.695  10.945
77281W        W41214  38.840  19.667  12.040
77282W        W41215  17.782   6.919   3.356
77283W        W41216  37.430  20.196  13.058
77284W        W41217  12.295  31.901   1.433
77285W        W41218  21.620  25.632   1.803
77286W        W41219   6.875  21.061   0.352
77287W        W41220   1.972  21.237   1.797
77288W        W41221  43.907  38.990   0.436
77289W        W41222  23.599   2.967  11.928
77290W        W41223   6.370  36.580  14.907
77291W        W41224  11.688  13.813   3.699
77292W        W41225   1.868  26.636  12.572
77293W        W41226  16.739  17.621   1.768
77294W        W41227  44.930  11.325   1.891
77295W        W41228   8.285  34.990  14.946
77296W        W41229   1.898  12.702  14.340
77297W        W41230  21.531  40.831  12.086
77298W        W41231  30.528   5.881   3.258
77299W        W41232  19.594   3.889   0.472
77300W        W41233  14.692  17.235  12.004
77301W        W41234  30.471  13.812   0.773
77302W        W41235  38.944   0.365   1.357
77303W        W41236   0.887  11.690   3.749
77304W        W41237   2.355   4.286  11.029
77305W        W41238  24.051  32.546   1.313
77306W        W41239  42.888  18.076   4.625
77307W        W41240  11.271  28.039  14.875
77308W        W41241  33.966  11.168  14.417
77309W        W41242  23.567  37.086   1.783
77310W        W41243  29.963  17.653  13.502
77311W        W41244  41.304  43.282  11.114
77312W        W41245   0.296  33.456  13.410
77313W        W41246   4.441  34.113   4.696
77314W        W41247   7.720  10.700  13.424
77315W        W41248   7.304  20.538  13.514
77316W        W41249  43.931   3.884  10.605
77317W        W41250  22.583  35.580   4.301
77318W        W41251   5.380  10.762  14.986
77319W        W41252   9.779  36.511   2.281
77320W        W41253  36.433  20.043   3.822
77321W        W41254  19.253  39.891   1.341
77322W        W41255  33.983  36.550  12.988
77323W        W41256  25.655   4.204   0.403
77324W        W41257  44.781  36.067  14.467
77325W        W41258  44.844  39.930   2.873
77326W        W41259  27.027  10.639   4.230
77327W        W41260  24.023  12.806  11.956
77328W        W41261  24.973  14.169   4.737
77329W        W41262  17.225  12.802  11.561
77330W        W41263  18.194  35.994   4.803
77331W        W41264  41.472  28.184  12.922
77332W        W41265  28.995  12.683   1.869
77333W        W41266  36.574   2.404   1.871
77334W        W41267  28.442  14.331   2.223
77335W        W41268  36.529  10.635  12.870
77336W        W41269  31.043   0.924   1.794
77337W        W41270  39.997   0.844   0.954
77338W        W41271  17.114   3.235  10.047
77339W        W41272  14.287  12.741  14.360
77340W        W41273   9.710  42.017   2.209
77341W        W41274  18.734  14.123   2.740
77342W        W41275   6.855  28.679   4.246
77343W        W41276  28.084   9.701  14.498
77344W        W41277  17.149  13.709  13.962
77345W        W41278  42.473  39.030   3.771
77346W        W41279  31.038  25.192   1.835
77347W        W41280  26.470   7.872   3.235
77348W        W41281  31.549  14.721   1.331
77349W        W41282  31.642  35.097  11.943
77350W        W41283   9.293  22.235  10.581
77351W        W41284   8.834   6.279   2.899
77352W        W41285  13.185  23.489  11.918
77353W        W41286   4.290  44.773   1.711
77354W        W41287  35.484  43.397   3.651
77355W        W41288  33.510  32.544  12.988
77356W        W41289  40.316  21.531   3.720
77357W        W41290  32.544  33.588   4.606
77358W        W41291  24.029  24.087   4.286
77359W        W41292  22.116  42.794   3.340
77360W        W41293  17.216   9.310   3.788
77361W        W41294  19.563  30.644   3.293
77362W        W41295  27.630  23.535  10.947
77363W        W41296  38.997  39.445  13.936
77364W        W41297  20.170  22.207   3.327
77365W        W41298   7.750  37.550   2.823
77366W        W41299  17.657  10.221  13.913
77367W        W41300  22.190   7.731   2.276
77368W        W41301   5.760   7.789  10.903
77369W        W41302   7.723  38.837   0.814
77370W        W41303  39.517  17.574  12.536
77371W        W41304  21.591   5.839   4.820
77372W        W41305  10.193  21.167   0.882
77373W        W41306  44.861  29.948  10.566
77374W        W41307  30.958  31.042  13.938
77375W        W41308  36.462   2.249   1.287
77376W        W41309  40.802  33.613   2.794
77377W        W41310  38.382  28.453   1.417
77378W        W41311   2.950  40.948   4.628
77379W        W41312  34.543  32.505   3.852
77380W        W41313  40.995  17.681  11.103
77381W        W41314  44.397  12.802   2.329
77382W        W41315   0.760  24.035  12.848
77383W        W41316   6.423  14.789  14.516
77384W        W41317  15.261  40.349   0.297
77385W        W41318  28.519   2.900  11.064
77386W        W41319  21.068   3.901   0.787
77387W        W41320   1.805  33.397   5.258
77388W        W41321  13.115   0.399   5.284
77389W        W41322   2.826  10.876   4.765
77390W        W41323  43.309  19.130  14.026
77391W        W41324  19.227  34.612  12.023
77392W        W41325   9.840   4.831   3.730
77393W        W41326  28.468   1.408   9.674
77394W        W41327  24.503  21.526   4.727
77395W        W41328  21.696  32.939   2.183
77396W        W41329  37.486  38.482   1.876
77397W        W41330   4.403   2.827  11.404
77398W        W41331  27.993  19.283  13.435
77399W        W41332  21.662  27.957   3.338
77400W        W41333  41.892  21.646   4.261
77401W        W41334  35.043  39.968   4.336
77402W        W41335  37.539   9.281   3.743
77403W        W41336  31.107   1.310   3.650
77404W        W41337   5.308  12.305   0.451
77405W        W41338  15.092  15.772   1.908
77406W        W41339  18.176  35.400   1.330
77407W        W41340  15.664   3.809   0.856
77408W        W41341  11.636  11.329  13.427
77409W        W41342  25.085   2.898  13.320
77410W        W41343   0.837  34.607  10.954
77411W        W41344   5.284  36.534   1.388
77412W        W41345  12.785  16.100  14.812
77413W        W41346  41.919  33.950  12.977
77414W        W41347  24.571  12.823  11.600
77415W        W41348  35.480  21.248   1.292
77416W        W41349  16.315  17.305  10.009
77417W        W41350  19.223  21.053   1.856
77418W        W41351  38.517  34.020   0.924
77419W        W41352  36.407  37.845   4.280
77420W        W41353  20.051  32.038  10.907
77421W        W41354  43.364  20.604  14.468
77422W        W41355  40.500  28.118   0.343
77423W        W41356  29.523  20.032   4.607
77424W        W41357  34.400  17.658   4.707
77425W        W41358   8.890  44.478  12.916
77426W        W41359  20.683   7.782  14.012
77427W        W41360  39.536   5.425   4.150
77428W        W41361  33.113  11.163   4.668
77429W        W41362  41.329  37.467   0.793
77430W        W41363  38.015  43.373  11.942
77431W        W41364   7.827  21.065   4.719
77432W        W41365  22.008  42.286   1.443
77433W        W41366  10.310  40.880   0.872
77434W        W41367  31.540  39.944   0.400
77435W        W41368  37.067  30.150   0.864
77436W        W41369   2.336  41.987   0.433
77437W        W41370  21.088  12.362   4.178
77438W        W41371   7.698  18.137  13.794
77439W        W41372  29.019  39.327   0.432
77440W        W41373  28.558  28.951   1.713
77441W        W41374  12.656  22.247   2.684
77442W        W41375  26.141  35.967  12.867
77443W        W41376  38.945  43.455   4.243
77444W        W41377  19.571  36.521   3.322
77445W        W41378  14.712  39.022   0.799
77446W        W41379  42.391  22.215   0.312
77447W        W41380  43.938  28.162   2.382
77448W        W41381   8.297   7.227  14.849
77449W        W41382   6.307  17.303   4.309
77450W        W41383  35.530  29.926   3.813
77451W        W41384  12.813   5.240  11.391
77452W        W41385  19.601  22.525   2.841
77453W        W41386  22.053   2.730  12.987
77454W        W41387  43.989  30.004   0.842
77455W        W41388  13.341  25.995  10.972
77456W        W41389   8.313  31.527  10.962
77457W        W41390  34.483  20.715  12.967
77458W        W41391   3.390  14.778  13.516
77459W        W41392  22.231  43.295  13.967
77460W        W41393  18.750  27.641  11.585
77461W        W41394  25.092   7.373  14.303
77462W        W41395  32.594  34.974  13.984
77463W        W41396  31.427  22.531  10.416
77464W        W41397  33.454   8.334   2.818
77465W        W41398   9.253  17.556  11.912
77466W        W41399  42.325  21.209   4.673
77467W        W41400  25.562  17.079  13.921
77468W        W41401   2.966  40.458  11.604
77469W        W41402   1.248  20.210  14.478
77470W        W41403  25.472  26.586  10.973
77471W        W41404  16.241  29.105   2.394
77472W        W41405   9.886  19.710  14.495
77473W        W41406  12.131  24.633   4.309
77474W        W41407  14.779  26.598  12.880
77475W        W41408  38.364  11.321  10.613
77476W        W41409  17.155   0.973  13.541
77477W        W41410  29.164  32.469   2.263
77478W        W41411  14.695  22.032  11.549
77479W        W41412  31.552   0.837  12.562
77480W        W41413  35.460  43.408  10.910
77481W        W41414  25.978  29.500   0.253
77482W        W41415  27.573  37.956   2.337
77483W        W41416  25.059   5.709  13.004
77484W        W41417  25.061  12.352   1.295
77485W        W41418  18.242  23.007  14.407
77486W        W41419   3.809   9.798  13.509
77487W        W41420   3.252   2.894  12.053
77488W        W41421  34.931  40.330  10.123
77489W        W41422   3.398  44.884   2.733
77490W        W41423   6.771   6.367   1.235
77491W        W41424  27.079   3.428  10.922
77492W        W41425   1.865  11.817  10.909
77493W        W41426  19.699  39.429   4.204
77494W        W41427  38.425  30.163   0.261
77495W        W41428  14.713  34.089   0.264
77496W        W41429   7.677  43.008  14.029
77497W        W41430  29.034  24.160   0.269
77498W        W41431   0.967   2.817  11.984
77499W        W41432  19.055  26.471   2.363
77500W        W41433   3.460  32.890   2.735
77501W        W41434   2.819  28.045  14.957
77502W        W41435  41.024  43.306  12.889
77503W        W41436   1.925  16.631   4.654
77504W        W41437  28.478  36.513   4.711
77505W        W41438  32.124  10.722   3.258
77506W        W41439  15.762  38.509   2.800
77507W        W41440   8.857  13.183   4.158
77508W        W41441  19.053  22.747   1.784
77509W        W41442  42.001   6.361   2.756
77510W        W41443  13.732  13.339   4.736
77511W        W41444  22.515   7.242   4.291
77512W        W41445  13.827  30.439  14.972
77513W        W41446   2.304  28.129  13.917
77514W        W41447   2.881  32.473   0.306
77515W        W41448  40.800   6.709  12.373
77516W        W41449  13.179  35.931   0.273
77517W        W41450   7.177   0.305  11.877
77518W        W41451  16.082   5.362   4.617
77519W        W41452  40.952   1.838   1.757
77520W        W41453  20.237  39.455   4.619
77521W        W41454   9.847   1.362  10.513
77522W        W41455  14.283  21.572   3.223
77523W        W41456   8.241   7.883  13.846
77524W        W41457  12.783  21.239   0.925
77525W        W41458  35.567  11.157   2.319
77526W        W41459  30.082  43.456   3.339
77527W        W41460  19.189  40.934   5.088
77528W        W41461  25.510  15.655   3.205
77529W        W41462  34.006  10.345  13.016
77530W        W41463  26.991  42.939   0.953
77531W        W41464   1.817  32.928   0.455
77532W        W41465  32.443  23.049  14.816
77533W        W41466  22.176   1.447   4.173
77534W        W41467   5.376  43.507  12.953
77535W        W41468   8.696  32.398   2.223
77536W        W41469  32.461  33.546  14.826
77537W        W41470  41.398  17.789  11.895
77538W        W41471   2.742   4.450  10.404
77539W        W41472  36.085  16.165   0.253
77540W        W41473  20.152  17.262   4.322
77541W        W41474  36.865   2.391  13.979
77542W        W41475  30.462   9.245   2.844
77543W        W41476  33.445  17.080  11.545
77544W        W41477  27.569  12.273   3.361
77545W        W41478   1.245  30.023  12.476
77546W        W41479   3.224  17.201   3.276
77547W        W41480  41.362   3.282   3.196
77548W        W41481  27.640  43.428   0.295
77549W        W41482  44.884  17.196  13.496
77550W        W41483   1.327  33.413   0.928
77551W        W41484  39.940  23.185  11.062
77552W        W41485   9.233  23.086   3.772
77553W        W41486  31.462  27.664   2.747
77554W        W41487   1.918  14.739  14.923
77555W        W41488  15.767   8.355   5.571
77556W        W41489  16.312  13.622  10.407
77557W        W41490  42.893  35.102   0.770
77558W        W41491  21.753  10.642   3.659
77559W        W41492  14.722   9.842  12.044
77560W        W41493  15.095  19.656  10.491
77561W        W41494  24.557  17.259   0.477
77562W        W41495  38.864  43.926  10.093
77563W        W41496  35.512  43.972   1.399
77564W        W41497  13.680  10.262  14.845
77565W        W41498  39.361  27.563  14.994
77566W        W41499  32.084  20.606   1.216
77567W        W41500   8.822   3.874   3.805
77568W        W41501  15.810  33.508   0.832
77569W        W41502  36.376   9.212   2.686
77570W        W41503  12.224  37.433  14.843
77571W        W41504  27.646  37.886  13.510
77572W        W41505   2.780  42.482  14.900
77573W        W41506  13.107  31.028   3.671
77574W        W41507  13.659   7.410  11.128
77575W        W41508  22.735  42.355  13.394
77576W        W41509   9.236   3.893  11.099
77577W        W41510  22.596  26.991  10.457
77578W        W41511  20.626  37.536  12.345
77579W        W41512   0.868  36.990   4.807
77580W        W41513  28.965  22.561   1.749
77581W        W41514   7.769  17.743  12.004
77582W        W41515  15.626  30.425  13.452
77583W        W41516   8.766   0.768  12.862
77584W        W41517  38.409  25.083   1.875
77585W        W41518  17.797  11.195   1.811
77586W        W41519  25.583  33.518   4.236
77587W        W41520   4.810  33.969  12.035
77588W        W41521  20.272  30.508  10.910
77589W        W41522  27.006   9.249  10.611
77590W        W41523   5.707  24.208   3.373
77591W        W41524   3.423  19.224   2.811
77592W        W41525  22.146  27.503   2.253
77593W        W41526  35.387  33.119   3.161
77594W        W41527  40.916  21.544  14.767
77595W        W41528  31.568  39.447  13.408
77596W        W41529   9.225   5.201   3.721
77597W        W41530   1.841  35.876  14.511
77598W        W41531  38.444  27.514   4.355
77599W        W41532  25.521  16.173  11.521
77600W        W41533  35.398  21.682  13.848
77601W        W41534  34.548  15.681   4.143
77602W        W41535  21.555  22.636   0.429
77603W        W41536   2.819  43.985   3.321
77604W        W41537  24.133  23.216  12.941
77605W        W41538  36.991  41.320  13.321
77606W        W41539   7.872  32.515   0.442
77607W        W41540  38.922  35.499  13.856
77608W        W41541  16.634  14.642   3.352
77609W        W41542  39.036  19.734  12.836
77610W        W41543  41.337  43.979   3.288
77611W        W41544   4.744  21.138   1.855
77612W        W41545  26.529  17.089   1.721
77613W        W41546  40.496  26.997   2.231
77614W        W41547  42.927  32.945   4.599
77615W        W41548  40.882  19.615   2.407
77616W        W41549  14.741  22.673  14.886
77617W        W41550  10.327  20.182  14.502
77618W        W41551  16.186  15.579  14.960
77619W        W41552   7.233  44.957  13.907
77620W        W41553  15.090  42.419  13.490
77621W        W41554  36.411   5.437  14.972
77622W        W41555   3.302  30.039  11.126
77623W        W41556  12.213  20.031   1.857
77624W        W41557  44.377  42.860  12.403
77625W        W41558  20.629   5.280  10.642
77626W        W41559  14.614  30.097   1.933
77627W        W41560  29.071  33.445   2.393
77628W        W41561  27.483  14.659   4.696
77629W        W41562  12.812  32.621   0.961
77630W        W41563  23.141   6.296   0.746
77631W        W41564  15.687  27.120   4.345
77632W        W41565  38.889   5.436   0.391
77633W        W41566   9.391  32.036  12.410
77634W        W41567  20.162   1.291  10.994
77635W        W41568   4.935  14.299   3.863
77636W        W41569  25.588   5.277  13.355
77637W        W41570  18.778  31.500  10.447
77638W        W41571  18.619   5.895   1.719
77639W        W41572  22.081  40.450   3.788
77640W        W41573  15.130  12.239   2.723
77641W        W41574   6.778  40.359   3.307
77642W        W41575  38.016  28.958   3.833
77643W        W41576  36.355   7.879   3.321
77644W        W41577  38.330  40.886  12.888
77645W        W41578   4.421  34.509  12.957
77646W        W41579   6.341  28.452   0.348
77647W        W41580  24.495  44.368   0.967
77648W        W41581  25.967   1.440  13.526
77649W        W41582  17.716  34.369   0.339
77650W        W41583  14.170  30.434   0.903
77651W        W41584  10.201  40.321   3.326
77652W        W41585  44.362  10.728  13.514
77653W        W41586  17.781  37.383   4.676
77654W        W41587  10.184  38.960   4.254
77655W        W41588   2.858   1.380   0.249
77656W        W41589  19.281  40.923   4.771
77657W        W41590  34.055  37.061   2.415
77658W        W41591  14.304  31.556   3.637
77659W        W41592  17.678  21.111   3.296
77660W        W41593  17.193  23.512   1.901
77661W        W41594   7.255  40.335  13.000
77662W        W41595  33.453   3.399   2.181
77663W        W41596  16.156  15.102   0.385
77664W        W41597  37.510  43.798  13.317
77665W        W41598   4.339  23.582  13.408
77666W        W41599  35.489  34.610  14.410
77667W        W41600  12.830   8.737  12.449
77668W        W41601  30.416   6.762  14.283
77669W        W41602  21.606  30.138  10.532
77670W        W41603  44.983  12.238  11.395
77671W        W41604   5.759  18.616  14.456
77672W        W41605  10.680   6.332   1.441
77673W        W41606  39.850  34.103   3.158
77674W        W41607   9.263  28.582   3.338
77675W        W41608  15.728  25.152   3.174
77676W        W41609  38.359  38.448   1.807
77677W        W41610  37.485  13.262   5.147
77678W        W41611  27.499  25.559  12.419
77679W        W41612  15.174  34.556  11.488
77680W        W41613   0.915  31.641  13.406
77681W        W41614  26.460  23.620   0.426
77682W        W41615  36.986   1.332  14.334
77683W        W41616   1.777  33.122   1.268
77684W        W41617  32.141  43.355   1.782
77685W        W41618  24.641  44.982   2.822
77686W        W41619  15.622  33.521  13.507
77687W        W41620  37.997   3.895   1.397
77688W        W41621  27.078  12.262  11.409
77689W        W41622  14.143   3.843   4.636
77690W        W41623  28.607  29.047  10.588
77691W        W41624  12.161  15.226   4.308
77692W        W41625  15.597  12.640   1.316
77693W        W41626  30.049   8.805   2.794
77694W        W41627  28.953  24.697   4.151
77695W        W41628   1.922  27.675   2.760
77696W        W41629  19.638  25.482   3.384
77697W        W41630  17.632  29.960  10.523
77698W        W41631  14.203  38.503   2.670
77699W        W41632  19.185  11.761   2.311
77700W        W41633   4.247  25.563   2.840
77701W        W41634  40.052   0.806  11.576
77702W        W41635  31.577  12.169  11.585
77703W        W41636  44.996  38.554  13.832
77704W        W41637  35.466  32.464  11.944
77705W        W41638  33.991  18.095  12.969
77706W        W41639   5.302  13.613  14.830
77707W        W41640  14.153  20.617   3.216
77708W        W41641  31.601  42.372   1.765
77709W        W41642  44.418   3.744  11.058
77710W        W41643  40.841  37.021  14.820
77711W        W41644  44.479  29.942   4.121
77712W        W41645  39.051  42.451   1.337
77713W        W41646  29.641  42.886  13.457
77714W        W41647  25.524   3.738  14.425
77715W        W41648  42.867  11.315   1.241
77716W        W41649   6.199  29.155   3.285
77717W        W41650  16.613   5.431   0.897
77718W        W41651  37.938  19.697  14.787
77719W        W41652  26.479   8.800  10.149
77720W        W41653   7.293  40.869  13.907
77721W        W41654  30.954  43.335   4.173
77722W        W41655   2.929  23.699   4.190
77723W        W41656  28.468  42.023   4.199
77724W        W41657   7.198  24.659   2.195
77725W        W41658   0.281   0.985  14.511
77726W        W41659  37.850  17.120  10.977
77727W        W41660   1.843  17.092  12.030
77728W        W41661  12.342  22.548  11.126
77729W        W41662  24.193  16.134  10.949
77730W        W41663  20.101  31.966  11.944
77731W        W41664  18.074  12.210   2.778
77732W        W41665  18.696  13.727  10.410
77733W        W41666  41.806  34.465   0.255
77734W        W41667  15.634   8.309  14.483
77735W        W41668  29.524  39.030   5.149
77736W        W41669  35.067   8.853  13.996
77737W        W41670   8.352   7.698  10.490
77738W        W41671  33.577  41.291   2.777
77739W        W41672  20.207  10.849  14.795
77740W        W41673  31.603  17.294   2.783
77741W        W41674   0.381  11.834  13.825
77742W        W41675  11.302  20.596  10.897
77743W        W41676  24.037  41.397   2.899
77744W        W41677  18.136  26.102   4.830
77745W        W41678   4.273   0.481  12.474
77746W        W41679  18.153  35.496   4.193
77747W        W41680  30.053  21.066   3.631
77748W        W41681  18.216  19.612   3.778
77749W        W41682  28.652   2.922  12.580
77750W        W41683  21.042  18.566   4.626
77751W        W41684  43.462   1.335   3.196
77752W        W41685  16.695  31.972   1.701
77753W        W41686  21.726  38.392  13.894
77754W        W41687  42.458  26.136  13.836
77755W        W41688  20.640  22.725  13.487
77756W        W41689  42.468  26.046   3.780
77757W        W41690  19.238  12.829  13.056
77758W        W41691  15.641  43.832   0.917
77759W        W41692  41.337  12.831  11.889
77760W        W41693   5.358  40.368  14.809
77761W        W41694  34.984  11.157  14.857
77762W        W41695   9.811   1.397   1.322
77763W        W41696  30.065  34.869  12.387
77764W        W41697  20.543  32.553  14.924
77765W        W41698   1.876  37.873  10.484
77766W        W41699  20.227   7.289  11.607
77767W        W41700  20.749  40.939   2.828
77768W        W41701  41.801  25.564   4.194
77769W        W41702   8.759  34.476  14.335
77770W        W41703  39.438  29.144  12.883
77771W        W41704   4.376  26.545   0.473
77772W        W41705  25.999  32.944  10.561
77773W        W41706  27.958  30.020  13.443
77774W        W41707  29.564  16.694   2.373
77775W        W41708  19.665  22.026   1.345
77776W        W41709  34.484  17.108   0.834
77777W        W41710  12.693  41.859  14.005
77778W        W41711   2.295  10.229   1.344
77779W        W41712  44.267   6.828  13.547
77780W        W41713  26.028  43.316   0.282
77781W        W41714  16.741  40.368   4.703
77782W        W41715  27.655  37.905   2.742
77783W        W41716  24.074  17.676  11.952
77784W        W41717   9.178  17.182   1.375
77785W        W41718   9.808  15.648  11.946
77786W        W41719  40.487  15.308   1.820
77787W        W41720   5.847  10.354   5.173
77788W        W41721  34.017  30.918  11.000
77789W        W41722  35.004  36.347  11.860
77790W        W41723  16.580   0.452   0.813
77791W        W41724   6.204  33.563   4.780
77792W        W41725  11.710  31.041   0.829
77793W        W41726  20.587  26.014  11.531
77794W        W41727  16.593  40.910  13.469
77795W        W41728   0.303  41.833   1.408
77796W        W41729   9.843  25.656   5.217
77797W        W41730  44.285  22.140   0.962
77798W        W41731  37.574  33.590  11.415
77799W        W41732  28.473  42.009  13.450
77800W        W41733   6.770   4.211   0.783
77801W        W41734  15.772   8.227  11.925
77802W        W41735  26.163  14.189   1.748
77803W        W41736   6.846  12.283  11.895
77804W        W41737  43.495   9.156  11.077
77805W        W41738  22.016  23.682   2.814
77806W        W41739   3.838  10.334  10.154
77807W        W41740   0.422  36.075  12.036
77808W        W41741  16.628  18.118   0.917
77809W        W41742   3.917  41.846   4.712
77810W        W41743  23.051   8.716   1.382
77811W        W41744  30.918  27.138  10.416
77812W        W41745  36.991  41.448  10.918
77813W        W41746  34.903   6.796  11.869
77814W        W41747  33.097  39.967  12.087
77815W        W41748   4.925  12.301  13.418
77816W        W41749   0.887  40.840  11.889
77817W        W41750  11.257  39.889  10.939
77818W        W41751  29.119  23.165   1.215
77819W        W41752  25.553  42.856  13.825
77820W        W41753  11.296  20.209  12.049
77821W        W41754  20.245   7.180   0.265
77822W        W41755  25.041  23.224  12.487
77823W        W41756   4.768   8.399  10.931
77824W        W41757  22.061   3.801  12.393
77825W        W41758  30.133  40.346   2.184
77826W        W41759  14.151  36.972  11.595
77827W        W41760  16.668   3.235   0.863
77828W        W41761  29.620  44.784  12.469
77829W        W41762   6.771   0.277  13.548
77830W        W41763  24.534  28.174   3.800
77831W        W41764  12.306  39.047  13.025
77832W        W41765  32.496  38.036   1.365
77833W        W41766   2.953  33.129  14.822
77834W        W41767   6.772  14.308   0.824
77835W        W41768  13.807  17.276   4.177
77836W        W41769  30.947  40.800   3.367
77837W        W41770  28.648  42.005  12.035
77838W        W41771   5.288  34.944   3.341
77839W        W41772  29.084   1.902   1.834
77840W        W41773  25.215   9.340  13.839
77841W        W41774   1.972   8.281  11.014
77842W        W41775  24.216  28.605   2.405
77843W        W41776  34.602   1.885  10.475
77844W        W41777  36.908  10.684  10.604
77845W        W41778  44.285  38.833  12.938
77846W        W41779  16.577   9.866  12.917
77847W        W41780  19.685  17.583  12.903
77848W        W41781  12.844  17.305   4.344
77849W        W41782  14.599   9.281   0.315
77850W        W41783  20.564  44.380   3.734
77851W        W41784   0.334  38.543   1.293
77852W        W41785  40.462  23.226   4.139
77853W        W41786   3.459  20.265   0.750
77854W        W41787  35.968  23.042   0.856
77855W        W41788  40.980  34.973  12.949
77856W        W41789  12.804  41.909  11.052
77857W        W41790  26.465  11.328  13.542
77858W        W41791   0.469   8.181   0.295
77859W        W41792  14.744  40.330   0.956
77860W        W41793  17.123  11.346   1.851
77861W        W41794   8.709  20.228  12.028
77862W        W41795   8.734  25.517   2.699
77863W        W41796  27.187   6.797  12.868
77864W        W41797  19.774   5.354  12.974
77865W        W41798  24.106   0.844  10.501
77866W        W41799  11.328  17.147   1.305
77867W        W41800  39.472   1.305  11.887
77868W        W41801  26.981  28.985   1.338
77869W        W41802  24.611   2.797   2.791
77870W        W41803  29.439   7.826  10.905
77871W        W41804  34.499   1.334   0.442
77872W        W41805  21.096  44.982  14.443
77873W        W41806  13.173  42.808  14.294
77874W        W41807  11.308  28.506  11.059
77875W        W41808  26.605  20.148  11.091
77876W        W41809  26.570  13.135   0.728
77877W        W41810  29.557  27.066  11.908
77878W        W41811  32.926  35.394   3.312
77879W        W41812   9.219   0.277   4.817
77880W        W41813  41.471  26.506   0.295
77881W        W41814  16.085   0.803   2.793
77882W        W41815  17.098  23.227   1.264
77883W        W41816  37.521  34.988   1.406
77884W        W41817  11.258  18.151   4.136
77885W        W41818  23.697  13.350   2.766
77886W        W41819  14.826  19.742  12.381
77887W        W41820  44.758   4.334   2.756
77888W        W41821  38.058  44.932  14.916
77889W        W41822  23.994  32.526  11.476
77890W        W41823   9.357  31.481   2.313
77891W        W41824  20.609  33.931   3.692
77892W        W41825  41.330  17.099  11.103
77893W        W41826  22.223  11.681  13.010
77894W        W41827  11.669  25.596   1.769
77895W        W41828  41.977  43.461  12.425
77896W        W41829  32.433  20.590   2.345
77897W        W41830   9.301  10.792   2.394
77898W        W41831   1.834  34.907   1.227
77899W        W41832  32.460  14.194   0.296
77900W        W41833  35.466   5.316   2.337
77901W        W41834  38.854  27.955  10.440
77902W        W41835  21.031   6.682  10.510
77903W        W41836   8.807   6.912  12.542
77904W        W41837  19.276  36.429   1.431
77905W        W41838  18.116  41.388  12.566
77906W        W41839  39.865  37.341   3.674
77907W        W41840  24.596  26.607  12.446
77908W        W41841  18.151  14.284   2.192
77909W        W41842  11.237  21.630  12.343
77910W        W41843  42.922  15.597  11.435
77911W        W41844  43.013  23.516  12.994
77912W        W41845  14.616  19.696  10.144
77913W        W41846  30.467  21.214  12.894
77914W        W41847  13.612  23.672  12.988
77915W        W41848  14.698  26.462  13.923
77916W        W41849   7.738  41.468  11.998
77917W        W41850  43.767  16.768  11.973
77918W        W41851  40.980  37.856   3.312
77919W        W41852  30.529  10.256  14.945
77920W        W41853  18.738  38.849  13.806
77921W        W41854  20.045  44.814  12.576
77922W        W41855  44.830   5.270  14.830
77923W        W41856  10.222   5.883  13.942
77924W        W41857  29.009  27.545   4.693
77925W        W41858   2.290  17.782  13.891
77926W        W41859  20.079  28.130   0.873
77927W        W41860  28.482   3.349   0.955
77928W        W41861  25.124   1.822  12.482
77929W        W41862  35.004  35.036   0.408
77930W        W41863  19.536  33.523   5.263
77931W        W41864  38.040  15.746  14.294
77932W        W41865  32.396  26.668   0.407
77933W        W41866   2.370   6.749  14.433
77934W        W41867  44.469  17.739   2.366
77935W        W41868  36.374  19.120   2.358
77936W        W41869  16.706  43.862   2.374
77937W        W41870   4.942  34.419  11.914
77938W        W41871  35.874  19.090   3.812
77939W        W41872  44.970  18.600   2.196
77940W        W41873  29.591  24.104   4.667
77941W        W41874  37.831  20.049   2.253
77942W        W41875  34.460  11.174   1.903
77943W        W41876  30.640  19.150  14.021
77944W        W41877  30.621   8.252   4.255
77945W        W41878  34.580   8.672  14.861
77946W        W41879  13.336  42.828   5.141
77947W        W41880  25.978   3.283   4.141
77948W        W41881   5.854   9.220   4.721
77949W        W41882  25.531  21.636  11.042
77950W        W41883  36.884  20.145  13.412
77951W        W41884  17.251  44.002  11.431
77952W        W41885  28.567  33.460   2.808
77953W        W41886  22.023  15.216  12.843
77954W        W41887  34.898  23.662   3.686
77955W        W41888  11.347  10.737   4.689
77956W        W41889  10.236  16.311   3.847
77957W        W41890  14.759  32.499   3.667
77958W        W41891  28.472   4.272   2.706
77959W        W41892  31.998   8.204   1.797
77960W        W41893   5.225   9.214   4.242
77961W        W41894  33.921  11.137  14.792
77962W        W41895  24.076  26.469  11.423
77963W        W41896  25.674  42.776  10.532
77964W        W41897  43.376   4.878   2.823
77965W        W41898  37.421  20.233  10.911
77966W        W41899   6.720  21.100  12.382
77967W        W41900  10.323  15.667  13.453
77968W        W41901  25.693   2.428   3.224
77969W        W41902   0.819   4.408   2.688
77970W        W41903  23.057  20.752   0.943
77971W        W41904   1.308  27.448   3.762
77972W        W41905  33.013  23.200  14.466
77973W        W41906   2.461  41.530  14.963
77974W        W41907  22.550  33.991  14.882
77975W        W41908  21.638  33.945   4.598
77976W        W41909  17.082  34.088  12.939
77977W        W41910  28.955  26.623   4.765
77978W        W41911  35.893  20.087   4.638
77979W        W41912  10.663   0.972   0.931
77980W        W41913  23.628  39.808   2.308
77981W        W41914  17.144  29.067  12.395
77982W        W41915  29.071   4.815  13.959
77983W        W41916   3.233   0.447   1.902
77984W        W41917   9.696   5.361   4.216
77985W        W41918  20.522  43.887  11.914
77986W        W41919  39.446  41.458   1.889
77987W        W41920  11.370  19.657   1.766
77988W        W41921  19.198  10.701  10.912
77989W        W41922  43.824  21.697  13.886
77990W        W41923   7.683  41.937   0.328
77991W        W41924  11.742  28.606  10.545
77992W        W41925  35.364   5.876  10.459
77993W        W41926  25.975  42.880  12.982
77994W        W41927  44.278  21.705  11.932
77995W        W41928  11.761  24.010   2.711
77996W        W41929  17.674  18.152   2.800
77997W        W41930  41.447  28.437   1.403
77998W        W41931  10.274   6.285  14.776
77999W        W41932  40.518  44.768  11.126
78000W        W41933  39.528  31.958  14.006
78001W        W41934  25.028  30.568   3.721
78002W        W41935  42.887  21.633  12.869
78003W        W41936   2.905   8.671  12.516
78004W        W41937  39.970  43.847   1.390
78005W        W41938  14.193   4.429   5.099
78006W        W41939   7.338   3.273  14.493
78007W        W41940  25.059  38.953   2.832
78008W        W41941  21.522  33.088   0.909
78009W        W41942  43.371  27.566   0.839
78010W        W41943  33.036  43.341  13.846
78011W        W41944  34.578  10.755  11.936
78012W        W41945   6.812  18.582  13.978
78013W        W41946   8.265  16.092   3.635
78014W        W41947  32.031   9.818  11.084
78015W        W41948   1.826   7.835  12.534
78016W        W41949  39.909  31.614  14.883
78017W        W41950  38.998  16.100   0.949
78018W        W41951  31.037  34.108   3.213
78019W        W41952  15.668  20.603   2.370
78020W        W41953  11.653  36.388  11.924
78021W        W41954   6.291  29.643   4.159
78022W        W41955   7.766  35.396  14.388
78023W        W41956  44.998  20.552   2.782
78024W        W41957  19.280  37.901  13.802
78025W        W41958  17.158  40.020  14.978
78026W        W41959  26.632  24.196   5.236
78027W        W41960  29.592  15.301  14.347
78028W        W41961  13.199  15.606   5.170
78029W        W41962   4.435  13.817  12.995
78030W        W41963  14.198  15.606   0.963
78031W        W41964  31.002  14.200   4.660
78032W        W41965  13.667  27.196   0.735
78033W        W41966  16.113  38.393  13.495
78034W        W41967  13.255  20.071   4.685
78035W        W41968   0.931  40.377   2.409
78036W        W41969  28.613  28.163   1.868
78037W        W41970  17.205  44.009  13.826
78038W        W41971  10.219  43.814   1.895
78039W        W41972  32.634   3.384  14.922
78040W        W41973  19.229  41.296  11.576
78041W        W41974   5.270  43.841   4.619
78042W        W41975  32.966  44.900  12.444
78043W        W41976  32.562  39.560  14.869
78044W        W41977  38.943  33.995  10.998
78045W        W41978  38.847  30.605   3.758
78046W        W41979  16.702  44.339   2.738
78047W        W41980  39.902  26.507   4.832
78048W        W41981   2.819  28.581  13.025
78049W        W41982  28.164  30.526   3.299
78050W        W41983  27.123  43.953  12.384
78051W        W41984  38.886  27.529   9.956
78052W        W41985  25.631  32.014  13.030
78053W        W41986  38.946  13.690  14.289
78054W        W41987  42.318   1.248   4.197
78055W        W41988  30.999   2.413   1.297
78056W        W41989  38.493  26.463  13.940
78057W        W41990  26.040  27.085  12.366
78058W        W41991  16.264  37.985  12.042
78059W        W41992   9.169  18.287   1.891
78060W        W41993   7.899  14.649   0.361
78061W        W41994  21.672  15.692   4.172
78062W        W41995   4.359  34.431  12.372
78063W        W41996  42.295   9.726  14.467
78064W        W41997  18.165  37.480  11.913
78065W        W41998   6.391   3.415  12.497
78066W        W41999   4.250  41.358   4.687
78067W        W42000  30.911  24.094   4.748
78068W        W42001  15.324   2.345  11.399
78069W        W42002  13.240  36.867   1.322
78070W        W42003  34.025  39.840  10.537
78071W        W42004  13.793   1.332  12.068
78072W        W42005  11.272   7.780  11.510
78073W        W42006  32.892  30.099  14.374
78074W        W42007  15.283  22.680   4.303
78075W        W42008   6.418  12.147  12.562
78076W        W42009  42.467  14.311   0.347
78077W        W42010  29.463  32.981  11.455
78078W        W42011  33.956  11.311   4.783
78079W        W42012  25.193  38.382   1.848
78080W        W42013   1.736  10.833  12.538
78081W        W42014   8.860  11.336  13.053
78082W        W42015   4.333  42.527   0.430
78083W        W42016  37.566  22.693  14.916
78084W        W42017  42.438  29.481  12.894
78085W        W42018   2.741  31.083  13.838
78086W        W42019  35.443  16.251  10.594
78087W        W42020  27.181  34.512   4.647
78088W        W42021   4.444  16.789  13.439
78089W        W42022  21.603  34.377  12.350
78090W        W42023   1.833   7.278   0.852
78091W        W42024  14.617  12.700   3.714
78092W        W42025  31.426   6.373  12.548
78093W        W42026  30.651  23.564   3.840
78094W        W42027  33.389  30.951   2.849
78095W        W42028  41.934  22.604   3.377
78096W        W42029  34.951   5.893   4.657
78097W        W42030  37.464  19.651   0.928
78098W        W42031  14.594   5.340   0.937
78099W        W42032  17.179  39.454  10.543
78100W        W42033   1.416  30.534  11.457
78101W        W42034   6.758   1.353  11.123
78102W        W42035   9.175  38.552   3.649
78103W        W42036   8.724  41.838   5.270
78104W        W42037  36.032  32.103   3.196
78105W        W42038  33.009  18.630   3.224
78106W        W42039  15.112  11.203  11.993
78107W        W42040  21.630  22.019  13.956
78108W        W42041  26.178   4.728  13.042
78109W        W42042  15.691  16.569  11.894
78110W        W42043  37.997  25.541  12.924
78111W        W42044  14.312  44.378  12.939
78112W        W42045  16.282   5.404  10.567
78113W        W42046  35.546  31.563  10.498
78114W        W42047   7.182  33.488  11.086
78115W        W42048  33.452  29.067   5.286
78116W        W42049  28.180  27.472   2.692
78117W        W42050   3.895  23.052  13.946
78118W        W42051  15.308  11.137   3.170
78119W        W42052  13.669  27.165  14.938
78120W        W42053   0.962   6.705   2.890
78121W        W42054  42.850   8.794   1.889
78122W        W42055  39.340  31.107  13.411
78123W        W42056  31.954  41.823  11.405
78124W        W42057  17.222  24.589   4.820
78125W        W42058  39.357  27.146   2.204
78126W        W42059  34.615  23.202   3.278
78127W        W42060  33.010  17.155   0.906
78128W        W42061  38.366  14.123   4.794
78129W        W42062   0.873  18.242  14.516
78130W        W42063  37.894  17.168  13.945
78131W        W42064  19.181   2.286  11.433
78132W        W42065  27.582  16.766  12.011
78133W        W42066  20.685  28.676  14.892
78134W        W42067  42.376  26.571  13.957
78135W        W42068  22.538  34.912  13.524
78136W        W42069  28.457  11.217   0.943
78137W        W42070   5.741   9.773   0.458
78138W        W42071   8.749   0.765  11.047
78139W        W42072  15.702  21.588  11.409
78140W        W42073  20.223  16.118  12.900
78141W        W42074  34.538  25.585   1.240
78142W        W42075  35.481   8.865  12.827
78143W        W42076  10.754  12.360  10.452
78144W        W42077   4.449   4.357   3.158
78145W        W42078   3.347  34.528   0.419
78146W        W42079  43.292   5.314   0.292
78147W        W42080  19.146   8.355   2.741
78148W        W42081  10.368  44.959   2.274
78149W        W42082  29.492  36.570  10.956
78150W        W42083  16.797  21.582  14.510
78151W        W42084  28.135   1.287  14.470
78152W        W42085  10.381  15.722  12.895
78153W        W42086   2.346   5.331   1.440
78154W        W42087  37.489  28.615   2.830
78155W        W42088  44.870  24.043   0.953
78156W        W42089   4.305  42.942  13.832
78157W        W42090   7.205  17.795  13.481
78158W        W42091  14.164   9.831   0.268
78159W        W42092  12.286   7.744  11.902
78160W        W42093  20.741  18.079  13.015
78161W        W42094  11.745  39.500   4.644
78162W        W42095  35.433   1.816  11.431
78163W        W42096  31.638   6.371  13.340
78164W        W42097  38.958  27.451   0.399
78165W        W42098   7.855  17.674   3.321
78166W        W42099  25.516  22.064  11.098
78167W        W42100  34.104  26.465  11.887
78168W        W42101  18.160  27.086  12.956
78169W        W42102  10.294  37.562  12.990
78170W        W42103  20.215  13.695  14.813
78171W        W42104  16.733  32.496  12.428
78172W        W42105  21.081  16.746  12.425
78173W        W42106   8.255  13.305   2.359
78174W        W42107  29.602   9.758   0.356
78175W        W42108  35.520  27.106  13.916
78176W        W42109   9.241  23.193   0.302
78177W        W42110  25.090   0.291  13.322
78178W        W42111  40.372  11.215  13.998
78179W        W42112   0.943  23.179  13.015
78180W        W42113  41.399   2.933   1.384
78181W        W42114  44.000  23.672   1.341
78182W        W42115   6.290  43.360  14.986
78183W        W42116  10.153  15.779   1.753
78184W        W42117  43.386  23.543  11.385
78185W        W42118  41.534   9.853   3.860
78186W        W42119   9.747  14.306  12.402
78187W        W42120  15.185  43.395   1.806
78188W        W42121  16.261  18.067  14.505
78189W        W42122  40.532  23.175   2.843
78190W        W42123   2.918  13.765   0.453
78191W        W42124  13.206  29.044  12.999
78192W        W42125  10.343  31.965  10.495
78193W        W42126  16.580  15.223   4.803
78194W        W42127  13.759   1.942  11.082
78195W        W42128  15.186  41.363   4.135
78196W        W42129  34.560  31.996   4.140
78197W        W42130  10.807  29.466  13.053
78198W        W42131   8.841  17.587  11.004
78199W        W42132   9.280   5.269   0.819
78200W        W42133  11.714  32.956  10.600
78201W        W42134  33.432  21.615  10.515
78202W        W42135  15.200  39.468   3.238
78203W        W42136  26.525  29.059   4.344
78204W        W42137  44.420  15.156  14.764
78205W        W42138  31.402  34.602   4.333
78206W        W42139  26.555  25.626   2.397
78207W        W42140   1.344   1.345   1.861
78208W        W42141  14.822  36.870  13.962
78209W        W42142  13.232  34.030   3.646
78210W        W42143   2.398  36.504  13.837
78211W        W42144  34.552  28.548  10.968
78212W        W42145   4.712  36.948   0.799
78213W        W42146   5.201  14.304   2.349
78214W        W42147   0.367   1.473   3.154
78215W        W42148  40.873  32.120   2.812
78216W        W42149  13.765  22.141  13.537
78217W        W42150  25.115  12.676   3.259
78218W        W42151   6.277  43.880   2.206
78219W        W42152   8.699   2.868  10.557
78220W        W42153  32.915  32.904  11.506
78221W        W42154  22.716   7.675   3.746
78222W        W42155  27.676  14.806  10.626
78223W        W42156  10.261  26.041   1.255
78224W        W42157  25.079  25.634   4.788
78225W        W42158   5.389   4.768   2.679
78226W        W42159   2.331  26.092  11.107
78227W        W42160  22.686  30.109  13.796
78228W        W42161  21.175   8.898  10.405
78229W        W42162  15.131  22.551   4.598
78230W        W42163  44.440  18.204   3.799
78231W        W42164  16.115  37.508  13.402
78232W        W42165  22.151  19.644  13.057
78233W        W42166   0.901  27.564  10.976
78234W        W42167   1.294   6.202   0.727
78235W        W42168   1.434  13.173   1.373
78236W        W42169   1.845   4.409  12.509
78237W        W42170  25.619  10.682   2.414
78238W        W42171  35.573  27.115   3.192
78239W        W42172  28.126  23.527   4.663
78240W        W42173  18.561  37.489   4.764
78241W        W42174   5.415   8.856   1.803
78242W        W42175  22.140   3.916   3.353
78243W        W42176  38.820  16.209  10.921
78244W        W42177   6.353  10.274  14.766
78245W        W42178   0.402  28.608  11.046
78246W        W42179  34.922  19.048  11.038
78247W        W42180   9.677  10.803   0.733
78248W        W42181   4.346  42.016   0.893
78249W        W42182  33.017   2.826   0.745
78250W        W42183  33.099  18.071  13.828
78251W        W42184   6.387  31.488  13.464
78252W        W42185  17.185  34.536   4.261
78253W        W42186  26.165  16.253  13.852
78254W        W42187  12.353  32.591   4.626
78255W        W42188   8.253  36.892  12.058
78256W        W42189  34.106  31.109   4.631
78257W        W42190  26.665  23.198  10.503
78258W        W42191   9.846  10.729  14.873
78259W        W42192  16.163  33.474  10.001
78260W        W42193   4.433  20.523   3.670
78261W        W42194  31.580  33.931   1.829
78262W        W42195  37.577  29.033  12.901
78263W        W42196  31.110  19.105  13.532
78264W        W42197  28.600  37.911   3.277
78265W        W42198   6.266  11.760   2.808
78266W        W42199   3.936  39.541  12.964
78267W        W42200  24.715   4.400   3.655
78268W        W42201  38.337  18.640   3.785
78269W        W42202  25.217   4.731  10.074
78270W        W42203  37.514   0.981  14.399
78271W        W42204  13.205  35.890   4.141
78272W        W42205  18.171   1.411   1.858
78273W        W42206  17.651  41.793   4.662
78274W        W42207  14.285  41.849  10.478
78275W        W42208  13.162   5.408   0.802
78276W        W42209  26.128   2.256   5.175
78277W        W42210  17.199  40.905   0.467
78278W        W42211  12.270  25.189  12.558
78279W        W42212  17.148  29.515  11.502
78280W        W42213  11.851  25.054  12.838
78281W        W42214  35.545  12.153   4.745
78282W        W42215   4.862  38.958   5.166
78283W        W42216  29.083   4.901   4.157
78284W        W42217  26.134  38.833  12.066
78285W        W42218  19.244   4.821  11.956
78286W        W42219  15.242  42.890   1.336
78287W        W42220  23.055  33.594   2.752
78288W        W42221  41.512  35.598  14.380
78289W        W42222   7.837  40.882  12.428
78290W        W42223   8.301  13.691   0.472
78291W        W42224  37.830  44.901  11.389
78292W        W42225  34.462  30.589  14.460
78293W        W42226  18.066  13.767  12.387
78294W        W42227   7.265  28.571  10.488
78295W        W42228  43.337  24.122  12.930
78296W        W42229  35.374   5.232  12.477
78297W        W42230   7.387  23.683  10.921
78298W        W42231  23.669   0.261   2.764
78299W        W42232  27.528  15.692  12.867
78300W        W42233  25.039  39.329   2.772
78301W        W42234   5.280  12.360   2.235
78302W        W42235   2.419  13.286  14.826
78303W        W42236   9.771  40.816  12.853
78304W        W42237  30.476  29.534   2.398
78305W        W42238  31.467   5.912  13.538
78306W        W42239  13.700   9.317   5.625
78307W        W42240  15.788  30.640   1.742
78308W        W42241  36.586   9.815   1.890
78309W        W42242   1.930  35.422  13.011
78310W        W42243  20.547  40.466  13.006
78311W        W42244  30.456  27.563   0.778
78312W        W42245   1.409  42.878  13.877
78313W        W42246  21.198  22.518   2.295
78314W        W42247  39.357  12.145   2.737
78315W        W42248   9.219  41.438   1.927
78316W        W42249  32.550  43.308  10.578
78317W        W42250  30.598  29.563  12.928
78318W        W42251  19.216  36.480  11.608
78319W        W42252  27.105  39.914  14.950
78320W        W42253  21.725   9.224   2.846
78321W        W42254  40.020  26.101  13.876
78322W        W42255  17.584  31.000  13.477
78323W        W42256   0.270  41.489   2.244
78324W        W42257  29.465   5.725  10.938
78325W        W42258   5.217  19.616   0.864
78326W        W42259  32.407  44.986  13.063
78327W        W42260  40.530  17.608   2.835
78328W        W42261   9.186   9.788   4.738
78329W        W42262  39.843  41.027   0.744
78330W        W42263  25.042  38.912   4.169
78331W        W42264  17.702  11.249  11.469
78332W        W42265  19.636  43.882   4.632
78333W        W42266  24.677  10.359   0.424
78334W        W42267  27.545  22.123  14.282
78335W        W42268  23.076  44.978  14.487
78336W        W42269  18.554  19.617  10.426
78337W        W42270   0.391  27.118   2.258
78338W        W42271  30.128  28.641   4.627
78339W        W42272  37.455  32.008   0.786
78340W        W42273  10.806  21.623  11.407
78341W        W42274  41.792  20.676   4.196
78342W        W42275  23.022  43.437  12.548
78343W        W42276  33.516  43.873   1.745
78344W        W42277  24.543  43.403   1.251
78345W        W42278  29.934  33.592  10.442
78346W        W42279  29.964   0.367  14.876
78347W        W42280   7.911   2.405  10.641
78348W        W42281  20.088  30.031   2.198
78349W        W42282   0.951  25.675   2.340
78350W        W42283   6.284  42.990   9.926
78351W        W42284   3.817   0.943   2.264
78352W        W42285   7.174  15.670  13.409
78353W        W42286  28.171  42.481   2.342
78354W        W42287  36.420  38.505   2.334
78355W        W42288  38.846  40.956  12.017
78356W        W42289  37.020  27.681  11.519
78357W        W42290  28.635  27.015  13.063
78358W        W42291  34.423  28.531  13.547
78359W        W42292  10.353  36.526  13.942
78360W        W42293  28.530  27.573   1.742
78361W        W42294  31.900  34.957  10.896
78362W        W42295   1.383  10.340   1.349
78363W        W42296  18.659  12.349   0.963
78364W        W42297  30.100  20.190   0.875
78365W        W42298  42.989   7.861   3.811
78366W        W42299  31.010   9.255  11.544
78367W        W42300  36.010  41.028  13.486
78368W        W42301  11.366  43.835  10.565
78369W        W42302  14.725  14.709  14.795
78370W        W42303  11.763  23.997  13.811
78371W        W42304  12.769   9.688   3.770
78372W        W42305  32.439  14.155   3.183
78373W        W42306  41.810  38.917   0.407
78374W        W42307   2.228  22.176   3.219
78375W        W42308  22.022  40.878   2.310
78376W        W42309  16.581   2.378  11.536
78377W        W42310  33.120  42.492   2.768
78378W        W42311  18.108  40.435  13.321
78379W        W42312  37.411  32.024  14.808
78380W        W42313  33.920  40.445  13.404
78381W        W42314  25.518  17.681  10.439
78382W        W42315  29.114  33.508   3.356
78383W        W42316   8.322  28.478   3.349
78384W        W42317  31.593  15.323  13.421
78385W        W42318   8.885  29.447  10.551
78386W        W42319  21.067   9.823   2.280
78387W        W42320   2.251  18.231   3.370
78388W        W42321  19.645  12.812   2.698
78389W        W42322  31.617   3.947   0.380
78390W        W42323  28.121  16.154  11.098
78391W        W42324   3.729   4.382   2.665
78392W        W42325  17.678  16.761  13.824
78393W        W42326  11.154  17.744   0.753
78394W        W42327  44.767  24.482  12.376
78395W        W42328  28.029  37.561  12.858
78396W        W42329  23.698  32.453   2.723
78397W        W42330  38.565  35.855  13.889
78398W        W42331  20.070  40.307  11.595
78399W        W42332  17.577   6.331  10.928
78400W        W42333  13.206   4.938  12.538
78401W        W42334  20.071  20.083  14.286
78402W        W42335  44.418   9.353  12.441
78403W        W42336  41.993  24.014   2.877
78404W        W42337  25.083  17.683   2.840
78405W        W42338  37.936  29.949  14.877
78406W        W42339  26.052  37.875   0.760
78407W        W42340  34.872  38.964  13.314
78408W        W42341  22.146   5.895  13.355
78409W        W42342  16.087  34.583   1.220
78410W        W42343  24.022   3.955   1.228
78411W        W42344  16.807  44.388   1.866
78412W        W42345  12.654  18.775   1.272
78413W        W42346   1.439  43.409  13.318
78414W        W42347  24.047  36.482  11.931
78415W        W42348  44.451  16.666   2.663
78416W        W42349  14.821   7.333  13.012
78417W        W42350  21.198  27.189  11.952
78418W        W42351  10.285  35.411  13.354
78419W        W42352  37.901  14.751   3.217
78420W        W42353  36.996  18.560   2.386
78421W        W42354   4.412  18.760   4.136
78422W        W42355  38.025  27.089  10.978
78423W        W42356  15.651  44.288   0.452
78424W        W42357  43.396   3.416  10.002
78425W        W42358   5.802   3.871  12.547
78426W        W42359  42.796   8.214   3.237
78427W        W42360  15.644   5.439  13.821
78428W        W42361  16.169  20.115  12.095
78429W        W42362   4.281  40.363  10.421
78430W        W42363  36.555  36.443  14.388
78431W        W42364  27.071  17.265  14.934
78432W        W42365  20.571   6.921  12.083
78433W        W42366  34.414  36.979  11.995
78434W        W42367  27.123  15.178   1.228
78435W        W42368  14.765  38.989   3.829
78436W        W42369  22.687  43.927   1.431
78437W        W42370  10.228  13.817   1.329
78438W        W42371  20.055  20.223   3.343
78439W        W42372   2.435   2.958   0.361
78440W        W42373  16.619  26.070  12.422
78441W        W42374  22.114  39.384   0.744
78442W        W42375  21.694   5.689   0.749
78443W        W42376  38.951  10.809  13.849
78444W        W42377  28.458   9.879   0.949
78445W        W42378  17.274  23.149   0.296
78446W        W42379  13.344  42.903  10.596
78447W        W42380  14.107  27.068  12.877
78448W        W42381  31.018  36.977   4.674
78449W        W42382  41.523  19.659  12.090
78450W        W42383  30.092   7.311   2.890
78451W        W42384  19.746  31.971   0.400
78452W        W42385   6.692   1.482   4.660
78453W        W42386   2.381  14.622  12.855
78454W        W42387   5.806   1.772   5.654
78455W        W42388   7.211   2.403   1.383
78456W        W42389   6.819  14.126   5.574
78457W        W42390  10.253  12.676  10.432
78458W        W42391  33.402   1.732   2.857
78459W        W42392   4.848  15.784  13.948
78460W        W42393  37.874  11.803  10.914
78461W        W42394  24.706   5.744   4.305
78462W        W42395  33.508   5.823   1.432
78463W        W42396   6.206   2.244  11.928
78464W        W42397  35.936  44.930  13.342
78465W        W42398  27.489  28.550  11.555
78466W        W42399  11.156  15.264  10.965
78467W        W42400  24.153  26.662  14.837
78468W        W42401   7.733   4.388  14.882
78469W        W42402  17.198   5.424  13.956
78470W        W42403  35.500  29.098  11.044
78471W        W42404  40.398  32.058   0.451
78472W        W42405  14.208  37.083   9.922
78473W        W42406  26.462  31.487   4.600
78474W        W42407  11.764  13.349  10.521
78475W        W42408  25.618  32.557   3.837
78476W        W42409  27.688   8.220  11.901
78477W        W42410   6.303   7.900   3.212
78478W        W42411  41.475  38.386  12.042
78479W        W42412  32.494  40.957  11.038
78480W        W42413  28.472  25.627   1.319
78481W        W42414  14.834  15.663  14.872
78482W        W42415  27.193  13.617  12.886
78483W        W42416  17.260   9.351  12.831
78484W        W42417  23.643  43.289  14.363
78485W        W42418  27.177  40.026   3.282
78486W        W42419  42.477  18.152  14.843
78487W        W42420  39.329   5.236  12.879
78488W        W42421  43.767  19.168  14.859
78489W        W42422   0.372   4.816   1.737
78490W        W42423  12.249  40.810  10.457
78491W        W42424  20.060  19.748   5.606
78492W        W42425  24.124  17.266   2.235
78493W        W42426  15.186   7.244  11.536
78494W        W42427   0.256   3.864   4.725
78495W        W42428  28.631  44.002  12.570
78496W        W42429  13.767  11.159   3.202
78497W        W42430  17.694  31.514  12.068
78498W        W42431  32.460   7.395  13.438
78499W        W42432   5.268  10.861   1.408
78500W        W42433  26.200  17.657  12.075
78501W        W42434  27.651  27.005  12.956
78502W        W42435  12.166   5.359  10.142
78503W        W42436  28.653  16.246  13.845
78504W        W42437  44.855  26.494   3.270
78505W        W42438  37.849   5.781  13.833
78506W        W42439  12.742  36.848  12.824
78507W        W42440   1.732   9.318  13.326
78508W        W42441   9.365   5.283  14.948
78509W        W42442  12.774  40.989   4.293
78510W        W42443  27.943   3.266   0.296
78511W        W42444  11.200  31.570   0.942
78512W        W42445   1.453  18.112  12.509
78513W        W42446   2.350  42.846   3.827
78514W        W42447  36.023  24.703  14.364
78515W        W42448  28.951  44.307   2.872
78516W        W42449  36.028  15.275  14.333
78517W        W42450  30.054  24.133   4.149
78518W        W42451  36.845  29.951  13.873
78519W        W42452  37.885  37.337  12.834
78520W        W42453  34.613  16.150  12.480
78521W        W42454  22.009  32.596  11.125
78522W        W42455  14.656   6.242  11.945
78523W        W42456  32.581  26.664   2.837
78524W        W42457  34.609   7.678  13.894
78525W        W42458  34.587   9.727   4.187
78526W        W42459   0.797  29.115   2.706
78527W        W42460  29.942   7.333  12.967
78528W        W42461  34.095  25.664   0.787
78529W        W42462   3.433   0.974   2.250
78530W        W42463  14.791  41.296   4.173
78531W        W42464  16.233  36.432  14.344
78532W        W42465  15.143  17.646  10.546
78533W        W42466  39.064  27.001   1.416
78534W        W42467  27.102  37.374  14.290
78535W        W42468  33.610  32.956   1.722
78536W        W42469  27.958   0.752   2.364
78537W        W42470   2.407  13.650  14.449
78538W        W42471   9.870  36.383  14.836
78539W        W42472   8.287  37.874   4.606
78540W        W42473   6.371  44.930   1.846
78541W        W42474   2.881  29.492   3.718
78542W        W42475  22.530  35.061  11.879
78543W        W42476   6.296  39.343  10.623
78544W        W42477  42.816  16.282   2.883
78545W        W42478  25.706  33.114   0.855
78546W        W42479  40.372  11.343   4.779
78547W        W42480  10.759  33.057  11.072
78548W        W42481   8.734  19.044  13.938
78549W        W42482  16.271  26.029   2.806
78550W        W42483  36.524  43.961   4.237
78551W        W42484  40.987  13.722   4.133
78552W        W42485  30.913  13.731  14.368
78553W        W42486  24.150  27.599  13.811
78554W        W42487  17.077  14.160  13.970
78555W        W42488  27.978  22.529  14.872
78556W        W42489   7.252  37.930  10.429
78557W        W42490  40.340  44.484  10.126
78558W        W42491  39.483  28.618  10.579
78559W        W42492  15.615  22.111  14.474
78560W        W42493  43.513   5.930   1.405
78561W        W42494   8.687  18.727   5.091
78562W        W42495   0.810  30.604  11.542
78563W        W42496  33.955  25.042  10.481
78564W        W42497  24.023   7.211  12.902
78565W        W42498   1.869   7.858  13.495
78566W        W42499   8.231   7.287   2.858
78567W        W42500   5.409   9.863   0.301
78568W        W42501  35.916   0.315   4.153
78569W        W42502  27.531  12.670  13.548
78570W        W42503  17.723  16.173  14.774
78571W        W42504  33.035  11.367   3.713
78572W        W42505  26.045  35.018  11.005
78573W        W42506  24.076  12.320  12.977
78574W        W42507  20.071   1.278   3.670
78575W        W42508  37.889  10.324   3.659
78576W        W42509  25.077  26.585  14.826
78577W        W42510  32.480  12.316  12.983
78578W        W42511  42.031   2.426  10.890
78579W        W42512  44.768  38.451  10.413
78580W        W42513  39.516  10.224   4.278
78581W        W42514  28.496  33.520   0.266
78582W        W42515  33.461  23.617   2.702
78583W        W42516  42.817  34.870  10.917
78584W        W42517   0.255   8.735  12.062
78585W        W42518  12.811   0.860  14.921
78586W        W42519  30.056  33.987   3.639
78587W        W42520  11.729  38.386   4.172
78588W        W42521  37.836  18.770  12.507
78589W        W42522  14.333  43.385  14.029
78590W        W42523  41.868  28.613  14.762
78591W        W42524  39.868  11.660   2.806
78592W        W42525  39.478   3.887   2.299
78593W        W42526  36.362  25.125  14.395
78594W        W42527  44.817   7.333  13.064
78595W        W42528  42.510  18.279   0.840
78596W        W42529   8.362  29.924  11.080
78597W        W42530  20.656   1.400  13.909
78598W        W42531  15.205  15.147  12.842
78599W        W42532   9.284  36.015   3.176
78600W        W42533   2.946   4.908  10.498
78601W        W42534   0.830  34.499   0.256
78602W        W42535  23.512  21.740   0.943
78603W        W42536  30.561  38.827   3.778
78604W        W42537  34.864   5.365  14.314
78605W        W42538   4.804   0.776   2.319
78606W        W42539  10.188  25.070   5.193
78607W        W42540  35.854  14.282  13.484
78608W        W42541  28.575  15.241   2.397
78609W        W42542  41.841  13.725   2.309
78610W        W42543  33.012   6.320   0.330
78611W        W42544  22.667  31.534   1.304
78612W        W42545  30.631  40.901   0.931
78613W        W42546   2.857  31.497  12.836
78614W        W42547  21.655  25.508   1.275
78615W        W42548  44.986  12.226   4.749
78616W        W42549  14.696  13.780  11.605
78617W        W42550  23.576  12.801   3.299
78618W        W42551  21.214   8.766  14.857
78619W        W42552   3.410  42.829  10.048
78620W        W42553  11.856   7.776  14.494
78621W        W42554   1.902  24.480  13.406
78622W        W42555  24.079  41.529   0.414
78623W        W42556   0.921   4.847  12.448
78624W        W42557   0.750   2.903   2.198
78625W        W42558  23.206  23.602   2.401
78626W        W42559  29.587  31.543  11.857
78627W        W42560  21.113   8.200   2.897
78628W        W42561   8.344  10.297  10.890
78629W        W42562  43.355  43.021   4.674
78630W        W42563  34.574   7.774  11.493
78631W        W42564  20.135   2.434   2.780
78632W        W42565   5.356  27.130   5.775
78633W        W42566   1.790  30.489  11.054
78634W        W42567  43.809  22.022  12.580
78635W        W42568   6.329  14.257  11.526
78636W        W42569  22.607   2.352   3.227
78637W        W42570   0.358  37.002   9.655
78638W        W42571  14.327  28.462   0.317
78639W        W42572  38.884   4.709   2.276
78640W        W42573   7.710   5.248  14.446
78641W        W42574  32.440  33.607   0.840
78642W        W42575  37.403   0.449   0.753
78643W        W42576  14.601  38.907  14.005
78644W        W42577  40.340  17.160  11.869
78645W        W42578  39.037  31.127   3.207
78646W        W42579  35.427  11.256  14.406
78647W        W42580  19.757  12.306  13.015
78648W        W42581  31.536  11.710   1.831
78649W        W42582  20.126  22.152   4.305
78650W        W42583  24.185   6.683   1.824
78651W        W42584   5.223  41.307   4.809
78652W        W42585  40.424  27.529  12.059
78653W        W42586  13.143   2.773   4.646
78654W        W42587   7.784  38.506  14.806
78655W        W42588  39.985  38.848  13.799
78656W        W42589   7.216  15.324   0.766
78657W        W42590  24.677   3.417  12.486
78658W        W42591   5.247  20.768   0.742
78659W        W42592  20.051  32.443   1.361
78660W        W42593   2.877  23.151  12.076
78661W        W42594  34.048  41.015   1.380
78662W        W42595  40.353  14.786   4.819
78663W        W42596  31.921  25.695   1.817
78664W        W42597  40.948  33.556   1.214
78665W        W42598  36.420  21.597  13.416
78666W        W42599  23.209  28.465   4.319
78667W        W42600  41.465   4.865   4.267
78668W        W42601  29.639   1.812   2.886
78669W        W42602  37.350   0.822  13.440
78670W        W42603   2.951  42.305   4.119
78671W        W42604  39.997   8.378  14.791
78672W        W42605  29.989  31.605   1.876
78673W        W42606  32.030   0.259   4.753
78674W        W42607  21.519  34.995  13.795
78675W        W42608  43.299   8.862   3.282
78676W        W42609   0.790  27.006   2.202
78677W        W42610  22.724  35.073   1.350
78678W        W42611  22.076   3.805   3.679
78679W        W42612  12.130  15.306   2.852
78680W        W42613  10.272  11.689   2.815
78681W        W42614  36.441   5.430   0.831
78682W        W42615   9.253  30.015   3.646
78683W        W42616  41.297  26.593   2.682
78684W        W42617  10.246  38.068  10.460
78685W        W42618   3.717   3.242   9.564
78686W        W42619   1.443  42.319  12.044
78687W        W42620  13.758   3.453  13.505
78688W        W42621  16.124  19.601  11.971
78689W        W42622  12.325  18.115  14.407
78690W        W42623   4.923  33.060  12.363
78691W        W42624  32.605  40.337   3.275
78692W        W42625   9.868  41.424   1.751
78693W        W42626  19.639   5.840   0.443
78694W        W42627  12.786  21.668  12.343
78695W        W42628  30.014  26.577  14.019
78696W        W42629   4.240  15.199   0.246
78697W        W42630  43.788  27.119  13.987
78698W        W42631   3.938  41.955  12.579
78699W        W42632  27.461  25.007   2.288
78700W        W42633  22.736   5.308  12.364
78701W        W42634  11.738  12.251   3.789
78702W        W42635  27.479  25.220  10.592
78703W        W42636  26.456  25.560   0.818
78704W        W42637   9.704  19.116  10.499
78705W        W42638  36.042  30.638  10.573
78706W        W42639  13.667  40.921   3.157
78707W        W42640  32.473  43.453   1.864
78708W        W42641   1.869  37.911  14.816
78709W        W42642  21.749   1.457   1.280
78710W        W42643   4.863  44.972  11.959
78711W        W42644  34.939  21.623   0.335
78712W        W42645  29.642  38.030   4.128
78713W        W42646   3.230  26.033   1.357
78714W        W42647  33.539  32.979   2.715
78715W        W42648  37.567  22.660  11.885
78716W        W42649  26.537  27.046   1.211
78717W        W42650  42.796  42.370  12.401
78718W        W42651   3.952  23.586   0.295
78719W        W42652  34.599  11.226   1.415
78720W        W42653  30.603   1.455  14.812
78721W        W42654  18.730  30.494  14.444
78722W        W42655  33.455  11.137   1.754
78723W        W42656  21.103  19.107  10.496
78724W        W42657  36.437  40.842   4.173
78725W        W42658  39.920  11.680  12.348
78726W        W42659  31.051   8.247   3.148
78727W        W42660  17.102  41.851  10.635
78728W        W42661  22.131  20.562   3.230
78729W        W42662  14.761   4.737  11.077
78730W        W42663  21.088  11.830   2.202
78731W        W42664  26.687   5.376  10.929
78732W        W42665  28.039  41.350  11.515
78733W        W42666   9.315  10.727   3.792
78734W        W42667  33.568  15.089   3.828
78735W        W42668   1.772  34.488  10.909
78736W        W42669  11.338  20.232   2.415
78737W        W42670  35.039  26.106  14.500
78738W        W42671  16.152  19.533  10.438
78739W        W42672  40.322   6.700   0.349
78740W        W42673  43.868  24.661   4.612
78741W        W42674  21.168  25.139   3.770
78742W        W42675  28.092  11.675   2.751
78743W        W42676  33.411   5.338  13.490
78744W        W42677   6.189  14.313  12.023
78745W        W42678  29.472  42.511  13.351
78746W        W42679  44.994  36.405  11.606
78747W        W42680   9.784  18.205  10.609
78748W        W42681  24.704  30.543   2.184
78749W        W42682  36.556  10.722   1.382
78750W        W42683   4.267  21.705   2.348
78751W        W42684  34.062  14.824   1.286
78752W        W42685  24.063  41.476  11.056
78753W        W42686  25.587  13.186  14.029
78754W        W42687  24.704   6.186   1.247
78755W        W42688  17.077  31.612  13.350
78756W        W42689  17.126  33.112   2.396
78757W        W42690  38.528  14.802  13.504
78758W        W42691  21.691   5.770   2.879
78759W        W42692  37.380  41.482  10.582
78760W        W42693  12.616  27.646  12.957
78761W        W42694  30.020   3.283  12.385
78762W        W42695  33.900  19.771   2.363
78763W        W42696   0.310  26.683   9.945
78764W        W42697  20.604  27.535   1.258
78765W        W42698  40.314  23.984   1.783
78766W        W42699  40.389  10.251   9.923
78767W        W42700  33.429  35.405   1.810
78768W        W42701  31.627  43.498  10.580
78769W        W42702  40.043  19.779  12.358
78770W        W42703  12.667   4.920  13.907
78771W        W42704  36.901  20.572  14.430
78772W        W42705  18.647  20.156  13.541
78773W        W42706  30.925  18.758   0.888
78774W        W42707  43.836  41.896  12.870
78775W        W42708   1.390  34.025   2.741
78776W        W42709  35.025  19.269  12.555
78777W        W42710  30.950  16.099   3.742
78778W        W42711  23.171   6.737   4.145
78779W        W42712   5.208   3.387  13.415
78780W        W42713  20.248   2.844  14.463
78781W        W42714   3.352  33.117   4.277
78782W        W42715  19.615  16.689  13.518
78783W        W42716  15.173  19.127   2.900
78784W        W42717  30.005  20.168  10.619
78785W        W42718  35.521   8.191  13.342
78786W        W42719   0.795   1.251   4.257
78787W        W42720  37.029  42.933  12.046
78788W        W42721  37.393   0.263   2.396
78789W        W42722  38.360   1.476   0.884
78790W        W42723  29.047   3.322  12.450
78791W        W42724  10.306  10.382   2.206
78792W        W42725   3.779  15.148   0.927
78793W        W42726  27.641  38.509   2.803
78794W        W42727  19.258  22.558  13.422
78795W        W42728   0.479  25.496   3.324
78796W        W42729  31.940   7.407  11.446
78797W        W42730  40.307  16.095  14.841
78798W        W42731  30.462  37.940  12.544
78799W        W42732  18.634  18.781  10.888
78800W        W42733  25.667  15.606   1.408
78801W        W42734   0.378   5.918   4.215
78802W        W42735  32.015   1.336  13.846
78803W        W42736  25.964  28.579   4.736
78804W        W42737  14.165  35.572   1.855
78805W        W42738  10.167  20.573   3.778
78806W        W42739  42.985  34.892  14.806
78807W        W42740  27.982  39.411  10.568
78808W        W42741   3.716  10.710  12.007
78809W        W42742  19.175  32.941  13.925
78810W        W42743  41.498  40.415   5.303
78811W        W42744  25.149  12.821  13.797
78812W        W42745  15.242  19.173  10.640
78813W        W42746  16.146  37.414  12.033
78814W        W42747   9.337  16.232  12.890
78815W        W42748  24.175  20.264   2.718
78816W        W42749  28.462  10.697  14.960
78817W        W42750  22.206   7.253  12.887
78818W        W42751  23.081   2.788  13.513
78819W        W42752  26.695   1.442   3.356
78820W        W42753   8.357  15.299   1.424
78821W        W42754  41.529  37.392  14.413
78822W        W42755  36.486  25.099   3.650
78823W        W42756   8.714   0.986   1.746
78824W        W42757  25.472   8.656   0.778
78825W        W42758  41.450  31.026   0.322
78826W        W42759  33.096  24.675   1.891
78827W        W42760  40.540  22.720   0.345
78828W        W42761  21.711  35.999   4.735
78829W        W42762  17.701  40.422  10.500
78830W        W42763  27.104  27.989   2.881
78831W        W42764   0.280  33.002  12.891
78832W        W42765  22.726  14.271   2.861
78833W        W42766  13.663  12.145  14.512
78834W        W42767  30.505  42.813   2.698
78835W        W42768  43.440  42.417   2.701
78836W        W42769   8.683  41.432   2.328
78837W        W42770   1.760  24.195   3.644
78838W        W42771  32.602   9.338  10.414
78839W        W42772   3.453  34.119  14.462
78840W        W42773   6.422   4.821   2.874
78841W        W42774  28.936  25.080  13.529
78842W        W42775   7.366  28.055   2.752
78843W        W42776  27.009   0.929   1.369
78844W        W42777  14.591  13.801   1.872
78845W        W42778  27.652  40.909  14.943
78846W        W42779  18.189  43.299   1.912
78847W        W42780  41.479  24.491   0.472
78848W        W42781  12.620  22.077  13.531
78849W        W42782  38.836  22.085   2.326
78850W        W42783  23.032  38.468  12.349
78851W        W42784  27.994   0.291  12.440
78852W        W42785  11.369  24.209   2.270
78853W        W42786  17.724  31.613  12.993
78854W        W42787   2.772  12.206  11.535
78855W        W42788  34.497   1.458  13.483
78856W        W42789   6.855  23.191  12.443
78857W        W42790  14.278   3.875   2.815
78858W        W42791  15.683  40.039  14.965
78859W        W42792  21.165  13.793  14.824
78860W        W42793  36.546  33.077  13.024
78861W        W42794  30.426  17.584  13.531
78862W        W42795  15.187   1.447   4.794
78863W        W42796  14.098   9.354   5.190
78864W        W42797   1.412  33.605   1.351
78865W        W42798  25.598  18.657   2.782
78866W        W42799  41.470  21.611  12.528
78867W        W42800   6.701  14.667   0.294
78868W        W42801  30.591   6.329   4.335
78869W        W42802   7.669  41.528   9.937
78870W        W42803  42.344   7.682  12.966
78871W        W42804  37.452   2.873  14.006
78872W        W42805   4.335  22.541   0.759
78873W        W42806   4.861  41.350  13.047
78874W        W42807  25.074  44.284   0.944
78875W        W42808   8.245   8.252   3.638
78876W        W42809  28.479  22.243   4.620
78877W        W42810  13.342  27.552   0.759
78878W        W42811  28.530  26.139   4.115
78879W        W42812  21.072  20.583  11.939
78880W        W42813  42.778  22.201  12.944
78881W        W42814  11.185   2.260   2.241
78882W        W42815  10.705  35.863  13.799
78883W        W42816  23.226   7.405  10.962
78884W        W42817  22.522  20.215  13.016
78885W        W42818  23.559  11.814   3.665
78886W        W42819  29.476  20.098  13.397
78887W        W42820   0.296   2.376  14.508
78888W        W42821  31.489   2.961  14.392
78889W        W42822  42.331   8.213  11.955
78890W        W42823  29.648  27.552   2.876
78891W        W42824  25.157  42.408  12.532
78892W        W42825  18.645  36.396   2.724
78893W        W42826   1.752  17.284   0.836
78894W        W42827   4.375  28.030   3.267
78895W        W42828  34.496  17.226  13.415
78896W        W42829  38.431  16.734   2.241
78897W        W42830  43.834  15.708  14.457
78898W        W42831   2.957  36.568  14.302
78899W        W42832  16.804  13.336  11.437
78900W        W42833  18.559  38.888   3.193
78901W        W42834  30.918  25.989  14.374
78902W        W42835   3.817   4.879   0.903
78903W        W42836  13.333   9.733   4.260
78904W        W42837  37.836  21.581   1.340
78905W        W42838  27.096  36.061   4.312
78906W        W42839  25.623   7.317  13.965
78907W        W42840  44.986   1.928   3.169
78908W        W42841  12.817   0.988  12.561
78909W        W42842  30.545  30.608   2.293
78910W        W42843  35.886  20.134  12.358
78911W        W42844   7.241  34.593  14.384
78912W        W42845  41.866  19.239   1.397
78913W        W42846   3.427  32.493   3.170
78914W        W42847  23.200  34.581   4.117
78915W        W42848  44.761  33.393  14.407
78916W        W42849  35.509  14.774   0.417
78917W        W42850  26.613  20.241   0.306
78918W        W42851  26.065  33.575   2.799
78919W        W42852  19.547  44.467   4.258
78920W        W42853  34.056  24.724  11.053
78921W        W42854   4.727   6.790   3.657
78922W        W42855  12.689   8.897   1.296
78923W        W42856   9.861   7.823  14.011
78924W        W42857   0.869  42.357  12.084
78925W        W42858  33.447  35.415  10.993
78926W        W42859  39.493  36.903   2.331
78927W        W42860   6.878  15.657  13.035
78928W        W42861   9.824  22.659  13.477
78929W        W42862  28.655  42.286   3.297
78930W        W42863  27.150  22.204   0.775
78931W        W42864  22.535  12.765  12.479
78932W        W42865   3.247  23.198   3.855
78933W        W42866  38.917  28.540   2.271
78934W        W42867  37.395  17.741   0.242
78935W        W42868   8.371  35.369  12.461
78936W        W42869  24.005  11.656  10.034
78937W        W42870  30.930  38.554   4.200
78938W        W42871  43.279   1.835   4.133
78939W        W42872  31.926  16.595   2.894
78940W        W42873  14.768  13.286   2.880
78941W        W42874  36.062   9.708   4.732
78942W        W42875  22.147  37.359   2.715
78943W        W42876  30.572   2.371   0.883
78944W        W42877   9.806  35.052   4.257
78945W        W42878  12.821  15.098  12.407
78946W        W42879   3.716  24.684   4.626
78947W        W42880   7.313  31.482   3.205
78948W        W42881  39.513  18.288   0.847
78949W        W42882  23.697   7.731   2.193
78950W        W42883  12.743  36.072   1.804
78951W        W42884   0.936  32.430  12.879
78952W        W42885  39.901  40.539   1.768
78953W        W42886  16.812   2.320  11.024
78954W        W42887  20.572   2.851   3.196
78955W        W42888  28.059  30.576  14.983
78956W        W42889  25.205  24.213  14.865
78957W        W42890  13.165  11.228  14.330
78958W        W42891  41.507   5.252  12.365
78959W        W42892  44.277  24.056   9.996
78960W        W42893  27.994  43.340   5.679
78961W        W42894   6.285  13.678  10.447
78962W        W42895  26.540  39.827   2.870
78963W        W42896   8.254   0.921   2.208
78964W        W42897  41.987  36.079  10.138
78965W        W42898  36.541  34.514   3.279
78966W        W42899   6.720   2.463   3.771
78967W        W42900   4.829  15.647   4.825
78968W        W42901  31.534  13.228   1.766
78969W        W42902  43.984  12.709   3.789
78970W        W42903  31.082  18.295  11.098
78971W        W42904  17.239   2.963   0.901
78972W        W42905  37.546  10.873  14.785
78973W        W42906  15.259  13.191   0.756
78974W        W42907  17.146  26.487   4.325
78975W        W42908  32.120  18.564  12.481
78976W        W42909  28.069  41.361   1.321
78977W        W42910  36.884  17.765   4.349
78978W        W42911  27.948  23.096  14.469
78979W        W42912  15.686  26.015  13.488
78980W        W42913  23.062  41.524   0.271
78981W        W42914   5.399  10.829  10.907
78982W        W42915   7.671  43.774  10.587
78983W        W42916  37.394  32.425  12.400
78984W        W42917  31.982   1.875   3.853
78985W        W42918  16.738  16.757  14.007
78986W        W42919  20.166  33.107   2.246
78987W        W42920  16.153   8.223   4.264
78988W        W42921   0.773  20.088   1.843
78989W        W42922  18.258  36.967  11.048
78990W        W42923  38.353   3.300  12.014
78991W        W42924  22.555   2.388  10.935
78992W        W42925  31.076   2.404  13.440
78993W        W42926  14.600   3.288   1.211
78994W        W42927  16.577  11.205  11.962
78995W        W42928   4.753   4.920   1.382
78996W        W42929  42.837   1.453  12.515
78997W        W42930   8.231   3.313   1.407
78998W        W42931  29.023  12.778  13.964
78999W        W42932   0.402  19.717  10.642
79000W        W42933  11.226  39.955   0.341
79001W        W42934  39.382   5.199  12.530
79002W        W42935  36.361  29.082   3.194
79003W        W42936  14.275  10.740   4.777
79004W        W42937  41.940  27.489   2.680
79005W        W42938  27.182  16.255  11.942
79006W        W42939  20.753  12.690   1.735
79007W        W42940   0.762  40.029   4.668
79008W        W42941  21.614  26.989   2.220
79009W        W42942  30.107  16.092  11.501
79010W        W42943  15.273  25.659   4.133
79011W        W42944   0.315  36.488  13.889
79012W        W42945  23.713  10.697  12.936
79013W        W42946  17.601  36.450   9.664
79014W        W42947   2.867  16.793   2.780
79015W        W42948  32.632  33.595   0.363
79016W        W42949  33.476  10.777  11.946
79017W        W42950  28.459  32.075  14.494
79018W        W42951  29.644  29.957   0.345
79019W        W42952  20.230  34.449   3.720
79020W        W42953  28.065  40.363   3.368
79021W        W42954   4.205  34.915  14.899
79022W        W42955   5.763  31.475  11.086
79023W        W42956  29.997  14.198   2.394
79024W        W42957  16.575   3.415   3.324
79025W        W42958  17.742  24.034  14.298
79026W        W42959  40.501  25.551  11.499
79027W        W42960  34.089  37.844   3.690
79028W        W42961  12.262  13.793   3.153
79029W        W42962   6.359  44.438  11.957
79030W        W42963  20.124  31.108   1.918
79031W        W42964  41.852  32.132   1.392
79032W        W42965  12.775   4.881   0.729
79033W        W42966  28.067  42.847   9.994
79034W        W42967  21.113  37.533  14.425
79035W        W42968  37.872  29.944   1.244
79036W        W42969  31.901  42.946  11.994
79037W        W42970  13.264  27.546  13.868
79038W        W42971   0.396  12.305  14.952
79039W        W42972  31.997  24.194  10.998
79040W        W42973  22.705   1.949   5.160
79041W        W42974  14.765  34.439   1.712
79042W        W42975  30.422  14.717   3.653
79043W        W42976  31.519  23.634  10.419
79044W        W42977  16.210  19.771   2.688
79045W        W42978   2.923  30.136   2.673
79046W        W42979  27.189  15.221   0.284
79047W        W42980  44.403   9.670   4.624
79048W        W42981   3.437   1.442  11.102
79049W        W42982  42.489  17.701  11.000
79050W        W42983  23.667   9.795  10.441
79051W        W42984   7.910  36.561   0.274
79052W        W42985  34.091  43.876  11.372
79053W        W42986  31.980  17.152  12.872
79054W        W42987  14.166   2.951  14.470
79055W        W42988  22.050  25.546   2.380
79056W        W42989   1.744  37.564   2.262
79057W        W42990  40.978   0.916  14.467
79058W        W42991  32.556  17.780   0.823
79059W        W42992  12.612  31.073   3.661
79060W        W42993  43.855   3.282  11.474
79061W        W42994  44.925  27.157  12.080
79062W        W42995  17.156  12.299  12.408
79063W        W42996  19.201  12.291  13.950
79064W        W42997   3.378  16.679   1.377
79065W        W42998  39.927  32.566   4.168
79066W        W42999   7.841   4.212  11.446
79067W        W43000  25.668  18.748   0.474
79068W        W43001  10.858   5.303  13.051
79069W        W43002  20.201  13.331   1.379
79070W        W43003   3.890  27.181  13.058
79071W        W43004  26.145  26.954   4.296
79072W        W43005  21.605  26.182   3.347
79073W        W43006   7.847  38.349  10.455
79074W        W43007  14.188  22.225  12.955
79075W        W43008  19.088  25.687  13.493
79076W        W43009  18.198  17.285  10.465
79077W        W43010  14.759  42.499  11.003
79078W        W43011  44.807  40.418  10.893
79079W        W43012  36.865  15.591  14.453
79080W        W43013  38.966  41.854  10.535
79081W        W43014  22.683  16.233   0.249
79082W        W43015  25.106  23.127  14.807
79083W        W43016  34.380  11.730   3.733
79084W        W43017  10.757   0.915   4.285
79085W        W43018  30.063  25.141   3.242
79086W        W43019  28.154  33.894  12.447
79087W        W43020  44.899   9.268   4.247
79088W        W43021   4.369  37.484   2.785
79089W        W43022  39.390  17.608  13.990
79090W        W43023   4.755   3.441  12.441
79091W        W43024  11.744  12.626   5.192
79092W        W43025  23.057  14.250  14.760
79093W        W43026  31.526  10.356   2.720
79094W        W43027  25.999   0.940   3.695
79095W        W43028  21.251   7.897   4.786
79096W        W43029  16.754  30.028   4.790
79097W        W43030  16.636  15.141   4.354
79098W        W43031  14.767  14.322   2.235
79099W        W43032  41.006  41.408   0.920
79100W        W43033  41.345  26.168  11.488
79101W        W43034   2.297  44.776  12.082
79102W        W43035  28.019  44.000   2.188
79103W        W43036  42.476  40.330  13.326
79104W        W43037  30.593  34.093   4.608
79105W        W43038  44.765  26.676   1.773
79106W        W43039   5.746  26.029  14.019
79107W        W43040  14.739  37.942  13.909
79108W        W43041   5.261  12.834   1.921
79109W        W43042  17.714  18.277  13.055
79110W        W43043  27.105  31.454   1.258
79111W        W43044  15.811   8.762  11.519
79112W        W43045  41.880  39.316   3.861
79113W        W43046  25.199  18.293  14.963
79114W        W43047  32.075  29.046  11.567
79115W        W43048  31.573  14.273  14.835
79116W        W43049   3.930  30.140   3.633
79117W        W43050   0.265   8.309   2.809
79118W        W43051  29.453  28.976   4.838
79119W        W43052  38.416  32.581   4.703
79120W        W43053  21.216  35.032  12.515
79121W        W43054   0.434  33.046  11.411
79122W        W43055   9.156  30.021  13.412
79123W        W43056   9.881  31.091   0.726
79124W        W43057  26.521  27.609  12.558
79125W        W43058  12.762  28.598   4.822
79126W        W43059   5.362   4.753   1.308
79127W        W43060  11.701  34.891  11.506
79128W        W43061  36.359   9.805   0.394
79129W        W43062  30.124  38.392   1.432
79130W        W43063   4.938  14.630  13.933
79131W        W43064  21.546  30.485  11.013
79132W        W43065  30.912  42.367  14.997
79133W        W43066  39.452  30.654  11.011
79134W        W43067  18.708  31.026   0.761
79135W        W43068   2.238  34.100  12.981
79136W        W43069  44.303   0.286  14.000
79137W        W43070  24.668  19.713  12.863
79138W        W43071   8.325  23.538   4.787
79139W        W43072   6.782   7.772   2.834
79140W        W43073  18.576   4.756   2.258
79141W        W43074  42.958   6.872   3.309
79142W        W43075  29.507  36.357  11.513
79143W        W43076  44.979  33.548  10.928
79144W        W43077  12.254   6.227   2.665
79145W        W43078  42.923  28.558   2.800
79146W        W43079  25.041  15.821  11.968
79147W        W43080   8.188   1.258   3.654
79148W        W43081  24.226   6.834  12.026
79149W        W43082   3.459  25.145   1.850
79150W        W43083  41.866  17.236  10.026
79151W        W43084  12.774  20.602  14.014
79152W        W43085  25.606  42.316  14.919
79153W        W43086  25.485  36.888   2.722
79154W        W43087  31.968  28.021  10.559
79155W        W43088   5.847   0.428   2.853
79156W        W43089   5.702  39.027   3.280
79157W        W43090  23.618  37.078   0.966
79158W        W43091  27.047  34.588  13.492
79159W        W43092  43.937  11.806  12.840
79160W        W43093   4.447  25.147  14.944
79161W        W43094  35.856   1.269   1.816
79162W        W43095  18.290  24.134   0.830
79163W        W43096   3.260  32.900   4.684
79164W        W43097  41.375  35.582  12.388
79165W        W43098  10.274  42.992  14.302
79166W        W43099   3.828  13.158  14.030
79167W        W43100  41.306  20.257  10.633
79168W        W43101  25.112  25.033   2.411
79169W        W43102  23.148  22.196   2.700
79170W        W43103   3.302  27.166   0.438
79171W        W43104  42.945  12.695  13.385
79172W        W43105  13.783   8.314   3.694
79173W        W43106  11.302  28.110  13.914
79174W        W43107  23.996  34.023   2.686
79175W        W43108  24.628  21.100   4.693
79176W        W43109  43.472  41.335   3.168
79177W        W43110  24.164  38.404   1.387
79178W        W43111  15.116  25.712  11.882
79179W        W43112  10.223   4.270  12.411
79180W        W43113   5.765  28.052   1.838
79181W        W43114  36.513  44.356  12.441
79182W        W43115  40.546  21.691  11.535
79183W        W43116  39.037  32.566  14.943
79184W        W43117  44.460  30.414  10.429
79185W        W43118  39.478  30.070  12.578
79186W        W43119  22.146  18.081  14.816
79187W        W43120  16.252  25.585  12.517
79188W        W43121  30.088  27.628   0.874
79189W        W43122  34.900  21.157   2.700
79190W        W43123  36.544   3.835   4.597
79191W        W43124   2.425  21.258   3.734
79192W        W43125  30.154  10.684  14.970
79193W        W43126  25.484  12.170  13.994
79194W        W43127  10.747  15.284  14.903
79195W        W43128  23.236  20.712  10.443
79196W        W43129  16.735  12.205   3.329
79197W        W43130  15.812   8.717  11.009
79198W        W43131   3.814   1.847  11.439
79199W        W43132   4.309  17.167  14.899
79200W        W43133  29.604  26.690   0.409
79201W        W43134  24.189  29.588  11.089
79202W        W43135  17.705   8.164  14.995
79203W        W43136  43.515  20.074  13.872
79204W        W43137   1.374   9.811   1.382
79205W        W43138  26.499  37.028   3.221
79206W        W43139  14.197  33.914  11.083
79207W        W43140   8.730  27.070  13.516
79208W        W43141   4.942  39.416  11.899
79209W        W43142  28.616   0.839  14.374
79210W        W43143   2.841  38.946  11.479
79211W        W43144  43.463  19.608  11.085
79212W        W43145  42.792  42.311  14.798
79213W        W43146   8.673  19.681  11.572
79214W        W43147  13.641   9.688  11.488
79215W        W43148  10.376   6.310   3.264
79216W        W43149  20.721  15.711   4.353
79217W        W43150  40.953  43.997  13.469
79218W        W43151  39.034  34.537   4.201
79219W        W43152   4.323  21.742  11.990
79220W        W43153  39.965  44.275   4.168
79221W        W43154  34.952  13.122   0.435
79222W        W43155  42.914   2.284   2.228
79223W        W43156  25.000  36.578   4.182
79224W        W43157  36.069  19.606  10.989
79225W        W43158  37.044  29.582   0.300
79226W        W43159  10.852  40.834   4.651
79227W        W43160   3.456  20.207  12.855
79228W        W43161   4.422  11.138   2.869
79229W        W43162  34.486  10.871   3.794
79230W        W43163  32.558   2.961  14.884
79231W        W43164  12.844  12.247   3.801
79232W        W43165  37.489  41.430   0.410
79233W        W43166   3.722  36.040   4.242
79234W        W43167  38.966  18.681  14.935
79235W        W43168  25.526  38.025   3.228
79236W        W43169  19.554  10.764  13.346
79237W        W43170  22.605  23.555  12.909
79238W        W43171  44.500   5.238  14.776
79239W        W43172  42.295  44.271   4.707
79240W        W43173  24.524   5.781  13.525
79241W        W43174  34.940  40.894  12.082
79242W        W43175  14.275  38.889  14.020
79243W        W43176  25.609  27.135  12.828
79244W        W43177  34.597  42.802   3.833
79245W        W43178  10.638  37.519   3.706
79246W        W43179   2.442  26.974  14.767
79247W        W43180  13.752  21.120   1.861
79248W        W43181  29.921   7.889   0.325
79249W        W43182  43.883  17.071   0.396
79250W        W43183  13.277  37.936   3.344
79251W        W43184  42.404  13.122   1.826
79252W        W43185  42.506   0.311  12.512
79253W        W43186  19.731  38.036  12.017
79254W        W43187  27.942   4.405  13.488
79255W        W43188   9.685  28.501  14.491
79256W        W43189  20.081  25.124  10.156
79257W        W43190  25.538  18.123   4.248
79258W        W43191  33.892   2.724   1.701
79259W        W43192  26.958  32.631  13.322
79260W        W43193  40.037  40.469  12.066
79261W        W43194  13.636   7.415   3.648
79262W        W43195  11.338  21.251   1.726
79263W        W43196  34.930  41.843  14.872
79264W        W43197  37.891  32.543  11.410
79265W        W43198  19.718  15.788   4.196
79266W        W43199  13.735   1.237  10.491
79267W        W43200  19.245  19.706   3.633
79268W        W43201   6.920   8.283  12.385
79269W        W43202  27.680  30.926  12.059
79270W        W43203  34.460  27.135  11.019
79271W        W43204   4.729  40.938  11.385
79272W        W43205  22.178   2.367  11.483
79273W        W43206   4.914  12.687  10.611
79274W        W43207  29.475  36.510   3.657
79275W        W43208  12.233  19.623   3.783
79276W        W43209  36.932   2.466   3.347
79277W        W43210  30.513   7.795   4.259
79278W        W43211  10.321   8.387  14.364
79279W        W43212  30.031  37.981  14.809
79280W        W43213  18.266  31.936  12.959
79281W        W43214  37.960  42.997  11.077
79282W        W43215   1.376  43.840   0.390
79283W        W43216  26.207   0.417   2.185
79284W        W43217  44.856  23.681   2.274
79285W        W43218  18.767  41.822  10.153
79286W        W43219  28.178  17.760   9.992
79287W        W43220  33.114  39.916  10.594
79288W        W43221  20.597   4.291   1.216
79289W        W43222  13.210  31.986  13.376
79290W        W43223  21.728  14.132   1.391
79291W        W43224  36.034   9.751  12.856
79292W        W43225  37.989  14.168   2.295
79293W        W43226  40.316  41.818   4.742
79294W        W43227  12.844  26.032   2.194
79295W        W43228  36.002   5.751  10.645
79296W        W43229  15.314  12.353  12.386
79297W        W43230  12.817  12.712   4.251
79298W        W43231   2.797   1.817   4.658
79299W        W43232  20.603  27.634   3.843
79300W        W43233   4.340  35.523  11.386
79301W        W43234  17.616  28.954   0.466
79302W        W43235  41.479   4.431   0.298
79303W        W43236   6.262  19.148   1.783
79304W        W43237   0.462  27.690   1.220
79305W        W43238  40.405  29.623   4.615
79306W        W43239  13.713  17.720  14.836
79307W        W43240  22.241  28.574   5.747
79308W        W43241  39.553   0.854  10.525
79309W        W43242  30.523  35.363  11.559
79310W        W43243  22.220  40.549   4.780
79311W        W43244  40.446   3.749  12.021
79312W        W43245   4.356  32.549   2.811
79313W        W43246  29.587  22.565   4.708
79314W        W43247   6.702  33.526  10.154
79315W        W43248   1.890   7.201   2.804
79316W        W43249  39.989  20.605   1.917
79317W        W43250  37.469  25.028  10.895
79318W        W43251   8.249   3.882   3.727
79319W        W43252  25.502  35.873  13.822
79320W        W43253   1.951  11.260   0.383
79321W        W43254  30.489   5.251  12.968
79322W        W43255   2.887   0.966   0.911
79323W        W43256   4.314  37.548   4.827
79324W        W43257  43.391  42.445  11.584
79325W        W43258  35.566   0.927   1.885
79326W        W43259   9.705   8.867  13.813
79327W        W43260  26.557   1.339   2.760
79328W        W43261  31.619  38.570  14.884
79329W        W43262  32.508  19.113  11.445
79330W        W43263   0.816  12.313   1.245
79331W        W43264  33.542  33.095   1.250
79332W        W43265   1.887  40.342  13.911
79333W        W43266  17.090  20.119   5.279
79334W        W43267  22.037   3.448   2.241
79335W        W43268  23.661  36.370   1.260
79336W        W43269   8.276  35.466  13.326
79337W        W43270  33.502  28.632  13.493
79338W        W43271  15.649  23.541  14.376
79339W        W43272  44.342  13.335   0.247
79340W        W43273  27.505  10.159   4.204
79341W        W43274  12.284  33.473  12.059
79342W        W43275   1.462   0.437   0.932
79343W        W43276  40.473  34.530   5.254
79344W        W43277   9.851  12.804  10.599
79345W        W43278  24.048  13.635  10.068
79346W        W43279  34.551  15.730   0.860
79347W        W43280   7.236  22.645  14.883
79348W        W43281  28.470   3.414   3.219
79349W        W43282  33.952  30.477   0.373
79350W        W43283  22.022   9.855  14.793
79351W        W43284  10.319  35.454  13.840
79352W        W43285   0.847  13.259   3.834
79353W        W43286  31.043   9.756   0.283
79354W        W43287  25.631  32.120  13.864
79355W        W43288  15.214  14.315   1.839
79356W        W43289  43.993  20.682  12.863
79357W        W43290  10.727  24.682  11.952
79358W        W43291  25.078  40.347  11.074
79359W        W43292  16.252   7.333   5.660
79360W        W43293  20.267  32.886  10.433
79361W        W43294  42.017  37.969  14.891
79362W        W43295   1.867  33.426   3.684
79363W        W43296   4.388   2.798   3.273
79364W        W43297  41.019  23.617  10.949
79365W        W43298  35.468   7.815   4.299
79366W        W43299  16.809  42.492  13.505
79367W        W43300  36.985  39.938   2.210
79368W        W43301  33.617  37.904   2.793
79369W        W43302  33.093  42.398  11.916
79370W        W43303  14.797  41.403   3.177
79371W        W43304  25.050  35.985  11.086
79372W        W43305  15.318  35.879   0.888
79373W        W43306  43.981  16.249   4.254
79374W        W43307   7.352   1.262  13.917
79375W        W43308  36.958   9.170  13.415
79376W        W43309  16.691   0.885   2.807
79377W        W43310  42.356  35.442  14.280
79378W        W43311  43.390  33.492  12.823
79379W        W43312  22.582  19.223   2.700
79380W        W43313  18.699  33.396  11.041
79381W        W43314  12.232  23.571   4.123
79382W        W43315  38.953  44.462  10.605
79383W        W43316   2.398   4.808  11.859
79384W        W43317  20.671  20.065  13.840
79385W        W43318  30.946   5.842  13.392
79386W        W43319  31.117   9.856  11.529
79387W        W43320  17.074   2.229   9.920
79388W        W43321   2.438   8.818  11.914
79389W        W43322  15.681  42.800   4.269
79390W        W43323   6.277  17.584  12.547
79391W        W43324  21.048  44.326   4.311
79392W        W43325   2.724   2.770   2.403
79393W        W43326  36.025  11.267   2.847
79394W        W43327  15.674  23.044  12.015
79395W        W43328  18.658  35.860   5.242
79396W        W43329  14.788   7.886  14.869
79397W        W43330  44.841  15.137   4.336
79398W        W43331  16.244  17.130  12.074
79399W        W43332   0.911  30.591   3.714
79400W        W43333  12.294  44.280   1.793
79401W        W43334  21.535  34.386  11.399
79402W        W43335  21.726  19.627  11.897
79403W        W43336  18.714  37.432   2.837
79404W        W43337  12.628  16.620  11.000
79405W        W43338   5.785  13.653  11.029
79406W        W43339  28.671  37.388  14.829
79407W        W43340  37.862  10.198  10.495
79408W        W43341  28.034   3.218   5.229
79409W        W43342  30.953  26.574  10.607
79410W        W43343   1.802  37.452   0.244
79411W        W43344   5.708  30.012   0.478
79412W        W43345  16.150   0.744  12.537
79413W        W43346  11.177   3.411  14.800
79414W        W43347  37.446  43.305  13.931
79415W        W43348  12.234  31.139  13.959
79416W        W43349  24.607   8.716  12.916
79417W        W43350  42.998  32.524  12.459
79418W        W43351   5.414  20.038  12.834
79419W        W43352  41.947   7.897   0.862
79420W        W43353  12.838  14.094  14.943
79421W        W43354  23.022  39.508   3.665
79422W        W43355  23.179  19.152   3.214
79423W        W43356   2.873  43.952   2.688
79424W        W43357  35.552  22.538  12.909
79425W        W43358   1.871  31.517  12.988
79426W        W43359  31.060   8.833  14.018
79427W        W43360  32.557  18.732  12.522
79428W        W43361  14.822  21.602   0.396
79429W        W43362  10.262  25.127   1.929
79430W        W43363  10.775  40.398  12.081
79431W        W43364  32.137  18.660   4.634
79432W        W43365  38.978  31.966  11.111
79433W        W43366  29.108  36.873  11.576
79434W        W43367   9.657  24.199   2.266
79435W        W43368  33.941  38.455  11.431
79436W        W43369  33.500  16.214  12.406
79437W        W43370  27.674  18.188   3.677
79438W        W43371  26.140   3.306  11.956
79439W        W43372   6.775  13.265  10.427
79440W        W43373   9.682  30.510   2.788
79441W        W43374  42.367  10.220  14.387
79442W        W43375  29.989  23.505   1.771
79443W        W43376  38.952  36.017   4.126
79444W        W43377  40.983   1.461   2.843
79445W        W43378  21.715  30.014   1.318
79446W        W43379  36.007  31.036  12.351
79447W        W43380  39.859  18.297  14.911
79448W        W43381  44.938  27.562   3.698
79449W        W43382  19.189  35.451   1.722
79450W        W43383  18.676  31.096   1.849
79451W        W43384   6.739  25.701  12.092
79452W        W43385  15.770  35.979  14.313
79453W        W43386  20.668  29.445  12.869
79454W        W43387   0.760  29.162  11.909
79455W        W43388  14.592  11.347  14.881
79456W        W43389  21.749  29.627   3.310
79457W        W43390  39.992  25.494   4.622
79458W        W43391  27.619  17.107   0.377
79459W        W43392  21.043  11.646  12.857
79460W        W43393   2.248  29.473   3.754
79461W        W43394  31.632  21.139  10.527
79462W        W43395  34.484  35.527  12.870
79463W        W43396  35.544  40.934   4.637
79464W        W43397  37.895   1.305   3.174
79465W        W43398  35.013  35.447  13.819
79466W        W43399  26.145  39.856  14.951
79467W        W43400  15.775  40.815  13.888
79468W        W43401   4.775  28.053   9.979
79469W        W43402  44.437  18.606   0.303
79470W        W43403  37.953  24.682  13.003
79471W        W43404   6.676  32.502  13.309
79472W        W43405  28.597  37.084   3.644
79473W        W43406  41.912  39.362  12.976
79474W        W43407  26.152  42.332  11.903
79475W        W43408   5.406  40.894   0.786
79476W        W43409  15.127  14.199   3.685
79477W        W43410  11.740  22.042  10.095
79478W        W43411   0.939   0.940  11.075
79479W        W43412  37.525  40.444   3.342
79480W        W43413  28.644  17.153   4.272
79481W        W43414  38.566   9.365   1.812
79482W        W43415  37.919  13.142   0.433
79483W        W43416  23.640  29.955  12.386
79484W        W43417  41.298   6.717  13.941
79485W        W43418   1.812   0.438   2.190
79486W        W43419  30.464  33.549   2.853
79487W        W43420  34.878  43.416  10.996
79488W        W43421  29.028  34.003  11.879
79489W        W43422  17.138  17.706   2.401
79490W        W43423  36.517  16.756   4.781
79491W        W43424  39.066  24.169  12.539
79492W        W43425  35.894   7.328  13.328
79493W        W43426  37.042   9.849   0.322
79494W        W43427   6.855   8.842  11.936
79495W        W43428   6.900   0.381   1.932
79496W        W43429   4.224  25.677   2.379
79497W        W43430   1.755  23.154  14.990
79498W        W43431   9.394  27.999   1.923
79499W        W43432   2.845   5.829  14.281
79500W        W43433  14.279  41.892   1.236
79501W        W43434  38.024  30.437   4.327
79502W        W43435   2.460  12.233   9.964
79503W        W43436  19.780  25.485   9.615
79504W        W43437  31.073  22.652  11.026
79505W        W43438  36.384  23.503  13.023
79506W        W43439  23.680   3.422   2.409
79507W        W43440  16.596  25.569   3.213
79508W        W43441  29.097  18.257   1.373
79509W        W43442   3.764  41.016  10.428
79510W        W43443  33.456  26.121   9.997
79511W        W43444   9.249   9.301   3.765
79512W        W43445  32.902  19.603   0.894
79513W        W43446   1.376  40.830   3.828
79514W        W43447  33.098  42.840   5.184
79515W        W43448  33.958  13.251   3.180
79516W        W43449   8.729  18.160   4.140
79517W        W43450   2.360  40.953  13.026
79518W        W43451  44.794  34.080  11.126
79519W        W43452  14.321  41.873   0.819
79520W        W43453   8.798   1.893  12.512
79521W        W43454  15.172   4.788   9.957
79522W        W43455   9.199  18.203  13.928
79523W        W43456   1.785  35.859   2.225
79524W        W43457  39.822  18.129   4.272
79525W        W43458  12.291  31.077  13.336
79526W        W43459  41.446  14.671   3.841
79527W        W43460  30.539   2.809  13.465
79528W        W43461   8.376  44.367  13.801
79529W        W43462  16.072  38.021   3.169
79530W        W43463   6.241  23.155   1.224
79531W        W43464  15.217  16.677   5.723
79532W        W43465  37.942   8.255  13.386
79533W        W43466   0.403  18.714  14.486
79534W        W43467   4.407   8.308   4.635
79535W        W43468  12.235  35.019  13.524
79536W        W43469  31.478   9.667   0.790
79537W        W43470  17.170  29.937  14.279
79538W        W43471   8.829  20.736   3.743
79539W        W43472  30.030   2.790  13.527
79540W        W43473  32.452  16.248   4.235
79541W        W43474   8.828   1.424  11.871
79542W        W43475  35.063  15.784   2.783
79543W        W43476  17.263   5.220  14.299
79544W        W43477  41.992  11.632  11.995
79545W        W43478  42.363  21.556   1.716
79546W        W43479   1.334   8.252  10.587
79547W        W43480   9.750  11.850   2.833
79548W        W43481  32.632   1.350  13.527
79549W        W43482  37.990   2.935  14.485
79550W        W43483  11.648  26.519   4.278
79551W        W43484  43.334  43.868  13.826
79552W        W43485  16.696  20.103   4.220
79553W        W43486  15.735  15.144  10.091
79554W        W43487  31.114  44.848  11.526
79555W        W43488  33.880  31.438   4.721
79556W        W43489   5.924  40.978  14.814
79557W        W43490  38.827  39.366   3.769
79558W        W43491   9.248  43.321  13.423
79559W        W43492  31.630  30.631   1.334
79560W        W43493  13.611  31.480   1.776
79561W        W43494  39.031  21.146   3.162
79562W        W43495  36.486  40.437  14.011
79563W        W43496  38.429  26.208  10.440
79564W        W43497  35.086  37.849  11.003
79565W        W43498  23.022   5.854   1.800
79566W        W43499  24.522  17.162  11.494
79567W        W43500  12.692  39.835  10.454
79568W        W43501  39.046   0.298  12.059
79569W        W43502  39.030  18.068   4.321
79570W        W43503  44.413  38.846   2.733
79571W        W43504  41.854  28.646  13.507
79572W        W43505  38.374  30.030   0.738
79573W        W43506  38.854   6.188   3.629
79574W        W43507  44.449   1.963  14.015
79575W        W43508  10.351   5.327  14.505
79576W        W43509  15.695  39.952  14.470
79577W        W43510  16.226  42.375  13.973
79578W        W43511  35.964   6.390  11.406
79579W        W43512   0.888   6.350   0.415
79580W        W43513  31.090   8.302  10.425
79581W        W43514  37.575  24.015  13.518
79582W        W43515  36.952  15.636   0.388
79583W        W43516   7.368  23.992   1.435
79584W        W43517  20.708  41.387   4.155
79585W        W43518  27.546  24.635  13.883
79586W        W43519  25.505  44.892   3.654
79587W        W43520  13.159   0.426   1.843
79588W        W43521  38.007   7.185  14.861
79589W        W43522  31.985  23.704   2.359
79590W        W43523  13.225  35.059   5.317
79591W        W43524  21.129  26.499   5.719
79592W        W43525  37.454  30.572  10.604
79593W        W43526  12.819   9.193  12.345
79594W        W43527   0.298  26.965   4.760
79595W        W43528  23.046   0.764  13.927
79596W        W43529  35.529  40.914   1.717
79597W        W43530  34.392  17.061   2.668
79598W        W43531   7.771  35.108  14.936
79599W        W43532  11.663  40.007  10.056
79600W        W43533  36.476  24.187   0.456
79601W        W43534  22.509  17.794  14.820
79602W        W43535  17.278  42.782  13.810
79603W        W43536   9.151  26.040   3.235
79604W        W43537  31.424  15.823  13.455
79605W        W43538  12.128   3.738  11.443
79606W        W43539  25.985  30.439   1.925
79607W        W43540  25.167  24.552  11.013
79608W        W43541   0.837  37.365   4.664
79609W        W43542  22.126   9.847  10.424
79610W        W43543  39.002  38.002  14.867
79611W        W43544   3.834  34.975  12.344
79612W        W43545  38.526  22.229  14.316
79613W        W43546   7.783  17.767  13.449
79614W        W43547  18.207  42.304  13.548
79615W        W43548  27.548  35.890   3.212
79616W        W43549  27.076   3.351  12.475
79617W        W43550  36.978  24.501   0.956
79618W        W43551  32.411  25.126   3.227
79619W        W43552  41.338  11.790   4.170
79620W        W43553   6.817  21.157   4.172
79621W        W43554  17.672   2.406   2.357
79622W        W43555  19.752   0.839  11.869
79623W        W43556  10.321  11.299   0.827
79624W        W43557  29.932  35.098   3.337
79625W        W43558   0.354  36.068  14.347
79626W        W43559  17.104  13.348   4.776
79627W        W43560  40.887  12.241   2.394
79628W        W43561  17.613  26.566   4.747
79629W        W43562   6.402  40.007   2.241
79630W        W43563  27.142  44.781  13.024
79631W        W43564  17.799  28.968   3.654
79632W        W43565  39.419   0.362   0.303
79633W        W43566  18.078  26.990  12.004
79634W        W43567  34.547  43.823  12.027
79635W        W43568  44.775   2.941   2.259
79636W        W43569  22.513  21.085   3.281
79637W        W43570  26.070   0.891  11.480
79638W        W43571  35.415  19.049   1.330
79639W        W43572  15.257  32.497  11.387
79640W        W43573   0.878   0.977  14.972
79641W        W43574  15.170  10.184  14.467
79642W        W43575  34.404  26.538  11.547
79643W        W43576  30.428  25.215  11.598
79644W        W43577  10.329  12.316   0.449
79645W        W43578  31.413  11.324  12.406
79646W        W43579  26.559  14.224  11.127
79647W        W43580   7.384  23.547  14.422
79648W        W43581  39.521  21.710   4.737
79649W        W43582  30.942  34.607  12.848
79650W        W43583  31.004   3.788   3.234
79651W        W43584  36.925   9.225   3.723
79652W        W43585  41.472   5.803  14.327
79653W        W43586  25.207  24.074   4.796
79654W        W43587  38.875  20.271  12.490
79655W        W43588  37.865  22.599   0.284
79656W        W43589  17.608  28.956   2.757
79657W        W43590  25.190   4.329  14.884
79658W        W43591   6.899  44.329  14.006
79659W        W43592  24.998  10.258   1.247
79660W        W43593   5.785  15.268  11.555
79661W        W43594  24.627   6.853  12.900
79662W        W43595   3.417  17.280  10.466
79663W        W43596  21.050  21.255   0.901
79664W        W43597  42.798  19.732  14.337
79665W        W43598  18.168  11.690  12.378
79666W        W43599  11.726  34.581   4.822
79667W        W43600  40.455   6.822   1.355
79668W        W43601  10.668  15.591  12.862
79669W        W43602  13.637  16.779  12.992
79670W        W43603  38.905   0.854   2.792
79671W        W43604  22.597  30.447  13.308
79672W        W43605   8.301  25.162   1.831
79673W        W43606   6.293  26.073  11.417
79674W        W43607   7.852  25.570   2.226
79675W        W43608  33.477  29.644  12.507
79676W        W43609   1.783   6.333  11.378
79677W        W43610   6.805  12.202  10.987
79678W        W43611  41.386  44.427  14.275
79679W        W43612  43.004   9.373  13.368
79680W        W43613  44.816   3.728  13.026
79681W        W43614  31.031  36.047   4.711
79682W        W43615  39.823  39.416   0.449
79683W        W43616  28.086  30.936   1.737
79684W        W43617  20.626  12.127  13.535
79685W        W43618  14.810  32.576  10.615
79686W        W43619  35.937  26.110   1.826
79687W        W43620  21.593  23.052   2.874
79688W        W43621  30.627   1.973   3.280
79689W        W43622  25.030   7.844  12.573
79690W        W43623  37.831  23.173   0.243
79691W        W43624   8.315  27.529  11.046
79692W        W43625  15.252  12.709   1.694
79693W        W43626   4.324   5.384  10.604
79694W        W43627  11.827  13.655  14.495
79695W        W43628  29.644  34.539   0.966
79696W        W43629   5.701  30.418  11.888
79697W        W43630  21.648   5.724   3.229
79698W        W43631   0.298  22.114  11.399
79699W        W43632   3.760  12.289  14.367
79700W        W43633  33.521  35.506   4.126
79701W        W43634  17.669  41.382   9.940
79702W        W43635  15.635  11.821   5.082
79703W        W43636   6.790  36.979  13.959
79704W        W43637   3.278  31.494   3.279
79705W        W43638  17.301  14.831   4.341
79706W        W43639   5.368  30.070   1.356
79707W        W43640  37.841   3.821   2.766
79708W        W43641   9.693  36.982   0.262
79709W        W43642   2.346  22.998   3.672
79710W        W43643  24.067  24.109  12.038
79711W        W43644  26.568  33.117  11.113
79712W        W43645  11.779   1.813   4.355
79713W        W43646  16.676  23.577  11.429
79714W        W43647  34.548  18.570  11.513
79715W        W43648  32.400  12.300   4.795
79716W        W43649   3.710  25.482   0.304
79717W        W43650  26.665   7.886   4.608
79718W        W43651  27.678  24.130  10.990
79719W        W43652  24.716   0.911  13.322
79720W        W43653  10.185  23.590   4.141
79721W        W43654  30.916  15.691   3.639
79722W        W43655  35.384  25.218  11.403
79723W        W43656  18.549  12.850   2.387
79724W        W43657  29.007  12.325  11.609
79725W        W43658  11.186  42.308   0.737
79726W        W43659  19.600  19.704   2.704
79727W        W43660  44.384   9.275  11.594
79728W        W43661  13.204  44.852   1.702
79729W        W43662  14.763  21.643  10.904
79730W        W43663  12.139  21.088  11.019
79731W        W43664  33.624  19.656   3.736
79732W        W43665  31.955  37.882  14.324
79733W        W43666  39.555  42.833  12.029
79734W        W43667  21.052  30.054  14.967
79735W        W43668  27.045  41.407  14.991
79736W        W43669  20.215  29.919   3.375
79737W        W43670  15.778  12.183  10.435
79738W        W43671  11.707  12.624   9.941
79739W        W43672   3.781  24.018   2.284
79740W        W43673   6.220  11.177  12.086
79741W        W43674  30.076  18.113  14.977
79742W        W43675  36.468  11.299  12.382
79743W        W43676   9.802  35.602   4.714
79744W        W43677   4.726  37.508  13.794
79745W        W43678   5.390  33.426   3.302
79746W        W43679  38.429  13.647   4.628
79747W        W43680  15.764   1.468   3.773
79748W        W43681  19.675  34.522   1.336
79749W        W43682  21.074  24.139   1.395
79750W        W43683  21.606  16.598  11.543
79751W        W43684  10.707  38.467  12.496
79752W        W43685  35.918  25.661   1.441
79753W        W43686  19.125  42.449  13.031
79754W        W43687  34.548   6.842  10.561
79755W        W43688   6.782  11.664   4.794
79756W        W43689  41.325  40.347   4.299
79757W        W43690  25.555  37.466  14.028
79758W        W43691  13.121   3.936   2.347
79759W        W43692  10.758  21.234  13.427
79760W        W43693  30.617   5.424  11.065
79761W        W43694  41.899  14.726   1.849
79762W        W43695  42.987  24.229  13.806
79763W        W43696   6.785  14.251  11.553
79764W        W43697   3.883  22.501  14.460
79765W        W43698  28.633  18.614   0.909
79766W        W43699   9.808  25.569   0.339
79767W        W43700   0.764  39.846  12.938
79768W        W43701  36.885   6.412  12.999
79769W        W43702  35.961   0.390  10.434
79770W        W43703   3.842  18.549  12.576
79771W        W43704  20.134   9.248   4.664
79772W        W43705  17.594  17.066   3.347
79773W        W43706  39.374  24.098  14.832
79774W        W43707  15.210  29.573   2.856
79775W        W43708  10.154  20.610  10.580
79776W        W43709  24.164  31.094  10.555
79777W        W43710  12.740  23.593  11.918
79778W        W43711   3.428   6.685  10.899
79779W        W43712   6.207  12.762  13.054
79780W        W43713  44.387  21.220   0.829
79781W        W43714  11.652  10.731  10.436
79782W        W43715  31.451  23.076  12.094
79783W        W43716   8.240  37.913   1.874
79784W        W43717  14.786   7.341  11.860
79785W        W43718  20.186  18.176   9.961
79786W        W43719  21.749  34.036  12.344
79787W        W43720  24.541  33.614  13.421
79788W        W43721  37.005   6.346  10.982
79789W        W43722  31.475  37.503   1.934
79790W        W43723  44.914  22.553  11.063
79791W        W43724  41.494   3.935  10.598
79792W        W43725   3.743  35.448  11.380
79793W        W43726  18.785  10.639   3.215
79794W        W43727  25.612  32.947   4.182
79795W        W43728   0.828  25.663   3.833
79796W        W43729  16.284  21.721   4.300
79797W        W43730  18.085  17.206  12.461
79798W        W43731   3.720  10.847   2.239
79799W        W43732  34.099  16.642  13.487
79800W        W43733   7.232  26.102  13.331
79801W        W43734  15.598   0.965   0.320
79802W        W43735   8.667  14.221  13.983
79803W        W43736   8.244  29.667   2.900
79804W        W43737  28.057   2.814   2.740
79805W        W43738  33.430  44.317   0.851
79806W        W43739   6.689   1.751   0.378
79807W        W43740  43.997  22.546   0.929
79808W        W43741  10.740  24.210   0.262
79809W        W43742  23.232  23.018   2.363
79810W        W43743  23.082  13.266  13.509
79811W        W43744  12.318  34.592   1.750
79812W        W43745  28.489  11.766  13.351
79813W        W43746  33.889  19.258  14.803
79814W        W43747  23.167  41.483  14.914
79815W        W43748  12.171  30.137  14.005
79816W        W43749  12.798  35.547  13.838
79817W        W43750  44.300  15.613   5.141
79818W        W43751  31.142  33.887   4.630
79819W        W43752   6.288   6.778  11.418
79820W        W43753  10.194  21.631  14.320
79821W        W43754   8.831  30.567  12.889
79822W        W43755  30.530  22.672  11.530
79823W        W43756  14.682  19.248   2.787
79824W        W43757  15.174  14.786   3.151
79825W        W43758  23.011  13.691   3.845
79826W        W43759  25.001  22.605   4.806
79827W        W43760   6.343   4.402  11.610
79828W        W43761  27.945   6.756  13.009
79829W        W43762  22.696  33.946  13.809
79830W        W43763  35.049  29.427  14.919
79831W        W43764   0.413   9.232  14.405
79832W        W43765  18.557  13.240   3.702
79833W        W43766  23.098  42.464  10.407
79834W        W43767  15.281   0.753  12.059
79835W        W43768  30.571   7.792   2.879
79836W        W43769   6.812   7.228  11.110
79837W        W43770  10.325   7.872  13.519
79838W        W43771  40.872  33.963   4.656
79839W        W43772  22.648  39.467   3.860
79840W        W43773  30.453  44.347   1.415
79841W        W43774  42.927  22.196   3.843
79842W        W43775  40.517  18.265  12.369
79843W        W43776  19.767  12.258  12.395
79844W        W43777   1.406   0.328  10.525
79845W        W43778  16.805  19.207   1.448
79846W        W43779  31.102  30.506   2.835
79847W        W43780  44.999  24.667   0.265
79848W        W43781   8.404  11.636   0.270
79849W        W43782  19.710  10.209   2.411
79850W        W43783  24.654  34.423   2.681
79851W        W43784  34.024  32.082   4.353
79852W        W43785  27.099   5.397  11.597
79853W        W43786  22.652  17.158   2.680
79854W        W43787  39.897  18.265   2.715
79855W        W43788  21.592  33.539  12.492
79856W        W43789  25.496  33.063  14.973
79857W        W43790  27.171  41.382   3.211
79858W        W43791  11.152  31.549  10.898
79859W        W43792  38.861  31.065   0.445
79860W        W43793   9.391   7.704   4.198
79861W        W43794  22.632  16.813   1.794
79862W        W43795  22.592  16.698  13.405
79863W        W43796  24.221  43.298  14.827
79864W        W43797  30.421   4.935   1.430
79865W        W43798  18.586  43.497  12.564
79866W        W43799   4.394  43.471   0.277
79867W        W43800  11.634  27.611   1.432
79868W        W43801  20.203  25.653   4.825
79869W        W43802  10.264  23.582  12.520
79870W        W43803  34.546  31.490   1.921
79871W        W43804   1.821  30.511   3.376
79872W        W43805  23.153  19.055  12.032
79873W        W43806  43.469  16.141  13.911
79874W        W43807  13.245  18.163   2.749
79875W        W43808   5.363  28.113   4.601
79876W        W43809  10.238   6.258   0.480
79877W        W43810  28.471  31.993  13.048
79878W        W43811  34.065  42.017   1.283
79879W        W43812  40.866  44.879   4.153
79880W        W43813  32.510   2.326  14.899
79881W        W43814  40.442  22.056   1.344
79882W        W43815  35.552  43.419  11.973
79883W        W43816  32.570  20.715  10.458
79884W        W43817  32.498  13.180  12.377
79885W        W43818   5.842  38.421  13.811
79886W        W43819   6.326  33.884   1.316
79887W        W43820  36.875  28.463   1.384
79888W        W43821  43.882  20.628   0.300
79889W        W43822  37.385  30.054  12.492
79890W        W43823  26.477  20.637   4.759
79891W        W43824  29.037   3.906   2.220
79892W        W43825  13.188   6.190   2.794
79893W        W43826  44.886  24.033  11.088
79894W        W43827   3.913  25.488  12.017
79895W        W43828  38.522  30.636   2.868
79896W        W43829   6.907  29.153   1.935
79897W        W43830  44.939  20.632   1.873
79898W        W43831   3.885  11.224  14.962
79899W        W43832  33.419   3.951   1.884
79900W        W43833  26.695  10.334  12.039
79901W        W43834  25.673  16.743  12.393
79902W        W43835  41.959  12.124  11.511
79903W        W43836  15.121  33.038  13.024
79904W        W43837  20.162  35.037  12.934
79905W        W43838  36.083  21.682   1.739
79906W        W43839  41.304  23.718  11.437
79907W        W43840   4.883  28.077   3.869
79908W        W43841  18.651  13.284  11.481
79909W        W43842   3.810  10.792  11.420
79910W        W43843  40.491  30.019   2.207
79911W        W43844   3.318  16.132  14.768
79912W        W43845  36.907  25.170  11.550
79913W        W43846  28.956  41.420   4.293
79914W        W43847  43.842  35.597   2.383
79915W        W43848  43.857  30.572   3.870
79916W        W43849  19.066   0.907   1.771
79917W        W43850   4.274  31.633  10.496
79918W        W43851  31.572  31.570   4.837
79919W        W43852   6.850   2.368  10.626
79920W        W43853   9.689   2.856   1.774
79921W        W43854  10.158  28.466   2.702
79922W        W43855  39.852  23.522  11.860
79923W        W43856  28.519   5.860   3.740
79924W        W43857  39.531  44.957  11.409
79925W        W43858   6.771  15.140  12.493
79926W        W43859  21.065  41.515  12.039
79927W        W43860  38.057  43.987  11.103
79928W        W43861  25.123  38.970   2.352
79929W        W43862   5.721  18.719  13.404
79930W        W43863  29.077   1.317  14.032
79931W        W43864  19.132  33.383  11.914
79932W        W43865  14.155  18.631   3.220
79933W        W43866  11.702  10.139   0.848
79934W        W43867  25.683  34.536   2.211
79935W        W43868  34.089  17.746   3.355
79936W        W43869  43.438  42.010  11.407
79937W        W43870  43.954  44.805  13.468
79938W        W43871   2.840  11.821   2.206
79939W        W43872  29.175  19.170  14.339
79940W        W43873   9.804   5.301  13.804
79941W        W43874   9.152  41.406  14.508
79942W        W43875  22.730  34.964   3.273
79943W        W43876  30.474  27.137   1.836
79944W        W43877  22.053  40.541  10.552
79945W        W43878  19.178  19.145   3.339
79946W        W43879  24.723  35.369  10.998
79947W        W43880  18.556   9.796   2.296
79948W        W43881  23.068   8.680   4.748
79949W        W43882  43.986   0.966   3.174
79950W        W43883  44.359  18.117  11.900
79951W        W43884  19.769   5.349   1.448
79952W        W43885  15.302  21.528  13.899
79953W        W43886  21.179   2.781  12.079
79954W        W43887  34.566   7.840  12.414
79955W        W43888  41.296  44.832  10.528
79956W        W43889  33.401  41.348   3.829
79957W        W43890  19.542  26.179  13.404
79958W        W43891   1.807   3.954   0.470
79959W        W43892  13.264  16.306   2.804
79960W        W43893  29.959  11.748  12.446
79961W        W43894  26.109   4.770  14.775
79962W        W43895  27.133   4.905   2.847
79963W        W43896  25.596  16.103  12.912
79964W        W43897  23.238   7.416   3.205
79965W        W43898  38.918   2.275  10.137
79966W        W43899  10.669  32.114  10.559
79967W        W43900  14.682  37.978  12.498
79968W        W43901   9.887  17.221   0.841
79969W        W43902  35.428  28.110  11.489
79970W        W43903  29.962  34.069   1.911
79971W        W43904  44.474  19.201  10.580
79972W        W43905   3.787  26.614  12.427
79973W        W43906  13.318  18.070   2.392
79974W        W43907   9.651   3.758  14.464
79975W        W43908  10.181  23.507   3.274
79976W        W43909  27.080   2.349  14.971
79977W        W43910  16.616  22.595  11.394
79978W        W43911   2.361  34.433  10.120
79979W        W43912  30.588  36.455  14.821
79980W        W43913  27.625  25.512   0.765
79981W        W43914  18.564  12.695   1.915
79982W        W43915  32.564   8.708   1.326
79983W        W43916  19.746  29.560  13.866
79984W        W43917  33.027  23.183   2.702
79985W        W43918   8.213   5.347  10.058
79986W        W43919  28.484  22.013  10.411
79987W        W43920   0.838   3.408   3.320
79988W        W43921  12.701  44.325   1.242
79989W        W43922  17.262  28.107   0.272
79990W        W43923  19.634   2.375   1.771
79991W        W43924  11.366  32.633  13.057
79992W        W43925  43.862  27.495   1.383
79993W        W43926  18.057  32.959  13.003
79994W        W43927  44.798  16.105   2.704
79995W        W43928  38.063  40.020  10.601
79996W        W43929  24.081  39.024  14.473
79997W        W43930  15.638  18.095  10.043
79998W        W43931  22.635  25.977   1.378
79999W        W43932   9.786  33.906  12.063
80000W        W43933  22.534   5.327   3.336
80001W        W43934  26.560   3.351   3.194
80002W        W43935   2.343  13.718   2.714
80003W        W43936  39.536  34.061   0.897
80004W        W43937  16.699  36.365  11.068
80005W        W43938  18.647  21.639  10.421
80006W        W43939  26.621  32.125  11.006
80007W        W43940  15.820  12.734   2.237
80008W        W43941   4.393   2.955  14.314
80009W        W43942  25.618  37.956  14.010
80010W        W43943  14.806  36.468  14.024
80011W        W43944  39.420  13.828   4.259
80012W        W43945  34.930  23.492  10.941
80013W        W43946  22.208  33.127  14.413
80014W        W43947   0.423  33.127   0.774
80015W        W43948  24.210  40.486  10.516
80016W        W43949   0.793  21.638  10.591
80017W        W43950  38.038  18.773  12.868
80018W        W43951  21.600  28.524  12.007
80019W        W43952  37.965  38.551   3.382
80020W        W43953   1.363  18.079  12.035
80021W        W43954  29.443  14.790   1.436
80022W        W43955  36.390  35.473   4.325
80023W        W43956  30.425  25.580   5.116
80024W        W43957   1.762  25.616   4.270
80025W        W43958  36.056  11.323  11.008
80026W        W43959  19.629  35.594   2.676
80027W        W43960  37.447  13.217   3.700
80028W        W43961  35.068  35.578  12.041
80029W        W43962  24.190   5.274  11.890
80030W        W43963  33.039  37.384  11.084
80031W        W43964  25.541   9.183  10.541
80032W        W43965  36.848  22.053  11.099
80033W        W43966  30.968   5.325  13.852
80034W        W43967   9.716  10.689  13.503
80035W        W43968  19.201  16.765  13.359
80036W        W43969   2.737   0.469  13.915
80037W        W43970  44.975  29.032   2.296
80038W        W43971  27.539  29.493  13.369
80039W        W43972  27.032  19.235   1.247
80040W        W43973  20.062   4.317   2.346
80041W        W43974  21.751  40.894  13.421
80042W        W43975  34.077  37.886  12.978
80043W        W43976  23.637  18.209   2.869
80044W        W43977   6.723  32.048  11.609
80045W        W43978  17.564   3.263  12.379
80046W        W43979  38.048  22.624  10.589
80047W        W43980  21.174   3.368   0.831
80048W        W43981  10.279  31.069  13.827
80049W        W43982   4.742   2.282  12.902
80050W        W43983  20.203   1.953   0.776
80051W        W43984  40.850  42.792  12.426
80052W        W43985  10.695  27.008   2.838
80053W        W43986   9.385  20.648  12.021
80054W        W43987  36.867  35.524   2.875
80055W        W43988  41.849   9.184  14.958
80056W        W43989  33.908  34.482   1.433
80057W        W43990   2.762  40.953  11.911
80058W        W43991  42.526  21.752  13.830
80059W        W43992   1.873  39.990   0.726
80060W        W43993  16.106  38.856  14.416
80061W        W43994  31.591   0.766  12.048
80062W        W43995  40.524  22.536  12.860
80063W        W43996  18.249  25.707  11.471
80064W        W43997  34.996  35.541  12.357
80065W        W43998   8.310  18.619   2.741
80066W        W43999  34.036   8.235   0.311
80067W        W44000   0.894  32.523  14.979
80068W        W44001  11.169  20.072  12.839
80069W        W44002  41.921  14.704  11.547
80070W        W44003  26.207   4.425   3.809
80071W        W44004  14.682  28.595   4.331
80072W        W44005  24.508  32.081   2.231
80073W        W44006   0.355  17.737  10.458
80074W        W44007   4.365  22.038   4.758
80075W        W44008   4.797  34.557   1.828
80076W        W44009  32.565  13.331   4.254
80077W        W44010  42.000   3.269   1.697
80078W        W44011  10.860  33.609   3.861
80079W        W44012  25.174  26.648  12.952
80080W        W44013   0.864  18.084  10.411
80081W        W44014  35.465  40.384  12.954
80082W        W44015  22.032  28.455  10.552
80083W        W44016  34.372  37.891   3.675
80084W        W44017   9.762  11.628   3.205
80085W        W44018  24.634  13.213  14.914
80086W        W44019  10.149  44.358  11.968
80087W        W44020  19.165  14.815   4.765
80088W        W44021  33.886  10.291  13.794
80089W        W44022   2.928  37.908  13.888
80090W        W44023   7.799  27.485   5.182
80091W        W44024  35.542  19.539  10.421
80092W        W44025  20.651  42.028   2.682
80093W        W44026  11.209   9.342  10.615
80094W        W44027   1.345  23.985   2.220
80095W        W44028   2.956  13.622   2.897
80096W        W44029  40.402  29.103   1.262
80097W        W44030   9.874  22.557  11.404
80098W        W44031   0.402  10.817  11.394
80099W        W44032  12.327  28.550   1.755
80100W        W44033  15.153   2.864  11.011
80101W        W44034  42.981   9.241   1.753
80102W        W44035  14.613  18.102  11.545
80103W        W44036   4.230   7.406  14.485
80104W        W44037   9.839  16.100   3.717
80105W        W44038  22.179   5.793  11.015
80106W        W44039  30.048  19.565  12.439
80107W        W44040  36.410  36.905  13.820
80108W        W44041  22.168   6.398   0.805
80109W        W44042  12.276  28.617  13.424
80110W        W44043  44.393   5.272   3.811
80111W        W44044  19.593  10.823   3.668
80112W        W44045  24.021  13.682   0.821
80113W        W44046  10.677  20.583  14.993
80114W        W44047  40.435  26.997  10.469
80115W        W44048  38.957  44.800   4.620
80116W        W44049  32.916   8.327  12.387
80117W        W44050  29.564   2.353  14.804
80118W        W44051  33.610  34.580   4.641
80119W        W44052  31.990  22.056  10.130
80120W        W44053  40.469  13.273   2.778
80121W        W44054  10.202   2.344  11.413
80122W        W44055  42.810  43.501   1.723
80123W        W44056  21.735   2.836  14.308
80124W        W44057   2.228   0.362  12.851
80125W        W44058  16.703  10.268   3.209
80126W        W44059  25.671  22.682  12.916
80127W        W44060  14.659  23.138   3.305
80128W        W44061  34.457   9.726  14.785
80129W        W44062  28.061  22.723   4.633
80130W        W44063  25.104  25.486  12.396
80131W        W44064  17.098  44.263   4.295
80132W        W44065   4.432   3.951  13.955
80133W        W44066  17.281  15.785   1.899
80134W        W44067  24.201  42.472   0.415
80135W        W44068  10.248  40.342   4.775
80136W        W44069  27.539  24.100  12.936
80137W        W44070  36.464   3.843   3.729
80138W        W44071   8.895   4.228  14.838
80139W        W44072  34.599   1.936  14.769
80140W        W44073  25.684  40.012  13.993
80141W        W44074  24.542   7.348   4.294
80142W        W44075  14.656  29.142  11.856
80143W        W44076   6.275  21.737   4.668
80144W        W44077  23.205  29.171  12.428
80145W        W44078  39.370  32.086  12.531
80146W        W44079  26.179  26.124  14.801
80147W        W44080  12.277  18.154  14.911
80148W        W44081  30.435  43.890  11.500
80149W        W44082   8.264  28.652  12.930
80150W        W44083  22.080   5.860   4.726
80151W        W44084  23.037  36.531   4.838
80152W        W44085  33.474   6.225   1.733
80153W        W44086  18.553  30.158  14.489
80154W        W44087   5.879  23.709   4.245
80155W        W44088   6.676  27.622  11.907
80156W        W44089  22.126  10.790   1.321
80157W        W44090  29.633  43.327  11.538
80158W        W44091  26.685  30.612   4.277
80159W        W44092   6.273   6.306  14.758
80160W        W44093   5.923  38.023   1.914
80161W        W44094  16.250   8.688   2.853
80162W        W44095  37.380  26.641   2.698
80163W        W44096  20.620  36.389   0.370
80164W        W44097   0.382   7.679   2.843
80165W        W44098  36.422  28.034  13.048
80166W        W44099  43.944   6.427  10.996
80167W        W44100  21.053  21.189   4.134
80168W        W44101  19.229  29.065  11.408
80169W        W44102   7.372  27.982   1.811
80170W        W44103  36.412  10.735  13.904
80171W        W44104  12.828  39.381   1.874
80172W        W44105  36.050  21.124  11.005
80173W        W44106  32.016   9.882   3.193
80174W        W44107  40.379  28.489  11.461
80175W        W44108  38.876  38.541  12.550
80176W        W44109  38.860  29.478   2.847
80177W        W44110   2.391  41.953  14.768
80178W        W44111  40.450   2.398   2.351
80179W        W44112  24.646  40.323   4.244
80180W        W44113   8.229  30.455  14.399
80181W        W44114  44.868  31.413  14.391
80182W        W44115  12.822  31.416   0.430
80183W        W44116   1.428  33.452   1.810
80184W        W44117  31.551  44.443   1.226
80185W        W44118  29.669  17.247   1.931
80186W        W44119  21.135  22.585  14.384
80187W        W44120  11.173   9.176   0.838
80188W        W44121  37.867  42.911   2.277
80189W        W44122   1.481  17.137  12.858
80190W        W44123  37.944  38.366   2.761
80191W        W44124  24.090   8.200   3.357
80192W        W44125   2.812  26.205   2.791
80193W        W44126   5.927   1.782   3.790
80194W        W44127   2.956   4.858   0.261
80195W        W44128  44.282  28.965  12.870
80196W        W44129  25.584  34.437   1.716
80197W        W44130  26.003  16.752   0.345
80198W        W44131   2.264  41.332   5.318
80199W        W44132  30.429  25.143   4.795
80200W        W44133   5.845   6.780   3.701
80201W        W44134   9.309  35.582   0.247
80202W        W44135  31.005  20.179   1.339
80203W        W44136  34.421  36.879   0.281
80204W        W44137  10.786   6.792   3.714
80205W        W44138  36.521  42.284   0.281
80206W        W44139   0.488  20.648  11.603
80207W        W44140  26.481  19.248   2.693
80208W        W44141  33.449  39.460  14.771
80209W        W44142  34.478  20.129  13.852
80210W        W44143  15.223  19.588  11.467
80211W        W44144   7.312  26.616  14.829
80212W        W44145  44.895  37.830   4.232
80213W        W44146  18.164   3.337  11.023
80214W        W44147   9.811  18.088  14.319
80215W        W44148  32.541  12.622   3.216
80216W        W44149  22.146  23.545   3.783
80217W        W44150  38.503  36.881  14.836
80218W        W44151  14.667  34.026   1.874
80219W        W44152  27.605  43.957  14.381
80220W        W44153  27.991  41.036   1.814
80221W        W44154  27.143   0.774   4.225
80222W        W44155  26.524  33.524  11.530
80223W        W44156   1.851  14.177  11.547
80224W        W44157  40.832  43.271   2.829
80225W        W44158  16.656  24.490  12.890
80226W        W44159  44.773   1.766   3.769
80227W        W44160  33.400  44.977   2.743
80228W        W44161   1.758  42.998   2.307
80229W        W44162  39.885  19.217   0.303
80230W        W44163  36.045  38.523   1.265
80231W        W44164  32.440   1.267  11.974
80232W        W44165  13.603  32.395   0.903
80233W        W44166  42.511  40.911   1.430
80234W        W44167   2.831  10.805  12.442
80235W        W44168  28.035   2.742   3.231
80236W        W44169  19.687  18.202  11.871
80237W        W44170  34.480  29.614  12.417
80238W        W44171   2.941   0.832   3.318
80239W        W44172   6.744  23.511  12.400
80240W        W44173   1.331  38.822  14.977
80241W        W44174  10.829  14.609   3.674
80242W        W44175  35.099  14.183  10.922
80243W        W44176  21.667  23.075  12.363
80244W        W44177  27.565  42.003  10.917
80245W        W44178  21.752   1.290   1.925
80246W        W44179  37.911  13.174  11.973
80247W        W44180  41.350  27.643  14.283
80248W        W44181   2.323  39.035  14.828
80249W        W44182  37.400   5.420  12.396
80250W        W44183  16.128  21.740  10.615
80251W        W44184  34.517  26.533  10.992
80252W        W44185  12.200  18.676   1.837
80253W        W44186   1.945  23.105   3.790
80254W        W44187  42.851   3.426  12.901
80255W        W44188  37.082   4.927  11.540
80256W        W44189  42.418  24.044  12.958
80257W        W44190   5.370   8.823   4.705
80258W        W44191  24.549  43.400  13.016
80259W        W44192  27.028   2.777  12.568
80260W        W44193  35.062  39.892   2.705
80261W        W44194  10.185  19.617  10.509
80262W        W44195   3.712   6.414  12.406
80263W        W44196  44.293   7.325  12.040
80264W        W44197   4.362   4.783  13.444
80265W        W44198   9.673  40.437   3.682
80266W        W44199  43.441  32.432   4.615
80267W        W44200  44.990  42.793  14.482
80268W        W44201   6.326  16.084   2.291
80269W        W44202  34.043  17.197  10.492
80270W        W44203  22.229  37.861   4.677
80271W        W44204  33.922  12.277   2.246
80272W        W44205  41.461   7.264  10.533
80273W        W44206  40.515  43.988  12.439
80274W        W44207   2.822  38.432   4.719
80275W        W44208   9.814   1.477  13.540
80276W        W44209  28.044  10.799  13.488
80277W        W44210  17.558  42.960   0.345
80278W        W44211  24.607  14.662   4.330
80279W        W44212  14.687   0.849   3.203
80280W        W44213  41.319  24.589   2.903
80281W        W44214   9.865   1.865  13.039
80282W        W44215  19.537   7.813  14.358
80283W        W44216  28.992  20.647  12.082
80284W        W44217  19.554  42.023   0.314
80285W        W44218   3.846  29.523   0.322
80286W        W44219   2.766  23.114  12.970
80287W        W44220  13.764  33.517   1.711
80288W        W44221  31.104  40.924  12.462
80289W        W44222  41.855  35.052   2.719
80290W        W44223  27.032  24.556  13.411
80291W        W44224  36.983  38.835  11.874
80292W        W44225  26.508  13.755   4.744
80293W        W44226  20.253  29.040  11.081
80294W        W44227  27.945   8.844   1.260
80295W        W44228  10.643  27.093   4.804
80296W        W44229  29.465  13.350   1.909
80297W        W44230  15.243   1.429   4.275
80298W        W44231  13.128   1.744   5.188
80299W        W44232  29.447  16.261  13.988
80300W        W44233  15.722  18.145   4.279
80301W        W44234  19.553  33.616   0.447
80302W        W44235  25.509  28.509   4.171
80303W        W44236  26.609  16.198  13.469
80304W        W44237  39.840  28.074  13.351
80305W        W44238   7.222  19.635   1.703
80306W        W44239   2.439  10.754  14.007
80307W        W44240  16.682  29.045  10.930
80308W        W44241   2.828   1.399   2.676
80309W        W44242   6.883   6.844   0.848
80310W        W44243   5.238  33.977  14.792
80311W        W44244  32.913   0.380  12.988
80312W        W44245  24.627  21.596  11.124
80313W        W44246  35.499  28.960   2.398
80314W        W44247  33.607  31.514  11.408
80315W        W44248  42.933   9.763   1.397
80316W        W44249   0.332   1.833  13.393
80317W        W44250  10.835  17.621   4.124
80318W        W44251  39.050  20.044   2.253
80319W        W44252  26.468  36.369   2.388
80320W        W44253  26.128  36.865  11.508
80321W        W44254  35.392  30.427   1.755
80322W        W44255  12.811  33.035  11.094
80323W        W44256  23.563  42.031  11.503
80324W        W44257   3.314  42.342  13.883
80325W        W44258  39.556  33.982   2.353
80326W        W44259  10.644  19.163  14.980
80327W        W44260  24.507  42.905  10.548
80328W        W44261  22.699  34.019  14.370
80329W        W44262  17.106  30.498  13.908
80330W        W44263  35.541   0.419   4.285
80331W        W44264   7.407   6.883  11.878
80332W        W44265  12.160  19.771   3.382
80333W        W44266  28.969   4.295  13.794
80334W        W44267  37.374  10.836   4.659
80335W        W44268  41.885  38.519   2.252
80336W        W44269  24.585  25.146   2.237
80337W        W44270  42.439  37.996   0.866
80338W        W44271   9.152   8.338  14.991
80339W        W44272  40.936   9.812  13.340
80340W        W44273  35.990   8.343  14.298
80341W        W44274  27.548  30.519   1.265
80342W        W44275  11.811  31.041  13.402
80343W        W44276  34.925  40.856  10.932
80344W        W44277  27.612  35.583   1.817
80345W        W44278  21.043  34.098  11.584
80346W        W44279  10.662  33.460  10.642
80347W        W44280   4.370  14.145  13.459
80348W        W44281  20.715   8.839  11.059
80349W        W44282  38.982  10.800   2.319
80350W        W44283  23.494   0.787   1.266
80351W        W44284   8.168  33.524   3.164
80352W        W44285  31.521  36.585  11.441
80353W        W44286  16.676  30.131   2.350
80354W        W44287  40.949   6.211   2.663
80355W        W44288  33.103  41.416   4.221
80356W        W44289   6.689  13.135   2.396
80357W        W44290   2.380  12.236   1.279
80358W        W44291  14.654  43.021   1.255
80359W        W44292  11.157  14.832  10.890
80360W        W44293  19.076  10.655   2.208
80361W        W44294  27.448  23.174  13.835
80362W        W44295  12.766  24.523   0.966
80363W        W44296  19.705   7.811   0.429
80364W        W44297  26.635   5.268   3.163
80365W        W44298  32.980  37.572   0.798
80366W        W44299  16.578  18.556   2.766
80367W        W44300   7.275  17.149  12.574
80368W        W44301  29.453   4.398   2.782
80369W        W44302  31.114   7.293  14.852
80370W        W44303   4.296  12.177   1.931
80371W        W44304  23.697  21.517   0.342
80372W        W44305  18.591   4.810  10.562
80373W        W44306  12.802  18.248  11.476
80374W        W44307   3.422  21.533   0.768
80375W        W44308  44.266  16.159  13.027
80376W        W44309  36.457   8.169  12.536
80377W        W44310   2.401  25.702  11.975
80378W        W44311  16.674   3.269   1.831
80379W        W44312  20.555   3.284   1.312
80380W        W44313   1.895  23.156  14.381
80381W        W44314  43.508   4.299  14.366
80382W        W44315   6.246  41.879  13.517
80383W        W44316  17.115  17.274  13.504
80384W        W44317  16.275  18.057  12.497
80385W        W44318  28.956  29.467   1.215
80386W        W44319  20.191  31.574   1.884
80387W        W44320  27.161  17.299  13.418
80388W        W44321   8.714  14.151   2.797
80389W        W44322  41.357   0.805  12.441
80390W        W44323  13.714  19.040   2.695
80391W        W44324  14.306  11.149   0.349
80392W        W44325   1.771  30.070   1.219
80393W        W44326   8.766  23.633  13.026
80394W        W44327  29.001   4.285  12.950
80395W        W44328  41.954  24.990  12.032
80396W        W44329  19.055  35.934   1.854
80397W        W44330  15.228  43.826  12.952
80398W        W44331  34.492  41.406   1.899
80399W        W44332  37.999  38.059  13.829
80400W        W44333  33.561   1.842   1.851
80401W        W44334  31.034  16.197   2.259
80402W        W44335  31.126  44.862  10.939
80403W        W44336  12.757   5.268   0.761
80404W        W44337  37.056   2.721   0.353
80405W        W44338  14.230  32.116   0.852
80406W        W44339  27.992  16.226  11.391
80407W        W44340  37.502  40.830  14.507
80408W        W44341   8.696  19.210  10.407
80409W        W44342   8.350  32.043  14.430
80410W        W44343  28.016  44.949   0.774
80411W        W44344  24.668  20.097   2.691
80412W        W44345  14.770  16.599   2.355
80413W        W44346  29.112  14.665  11.383
80414W        W44347  30.142  31.114  10.428
80415W        W44348  26.693  44.279   3.843
80416W        W44349  25.034   0.356   4.697
80417W        W44350  26.013  13.681   2.775
80418W        W44351  23.606   2.913   2.716
80419W        W44352  11.761  21.204  11.917
80420W        W44353  32.586  10.676  10.915
80421W        W44354  40.342  40.426  14.438
80422W        W44355  20.560   6.849  14.335
80423W        W44356  28.146  36.384  11.557
80424W        W44357  24.132   8.704  13.884
80425W        W44358  11.847   3.351   4.197
80426W        W44359  41.932  34.094  11.407
80427W        W44360  17.696  16.224  13.957
80428W        W44361  37.074  17.226   0.885
80429W        W44362  35.530  41.317   1.232
80430W        W44363  32.590  19.715   3.373
80431W        W44364  26.124   6.814  12.871
80432W        W44365  30.080  30.540   4.247
80433W        W44366  25.522   9.776  14.480
80434W        W44367   2.434  19.214  11.088
80435W        W44368  29.139  19.706  14.798
80436W        W44369  14.596  43.416   3.349
80437W        W44370  16.303  16.622   4.729
80438W        W44371  18.693  21.056   2.737
80439W        W44372  41.371  40.344  12.559
80440W        W44373  23.237  35.939   3.820
80441W        W44374  27.094  27.659   3.236
80442W        W44375  19.097  34.914   3.645
80443W        W44376  20.650  27.487  12.347
80444W        W44377   6.333   9.755  10.416
80445W        W44378  29.002  15.223   4.744
80446W        W44379  11.701   3.784   4.721
80447W        W44380  36.393   5.268   1.288
80448W        W44381   3.894  27.051  14.408
80449W        W44382  36.539  32.556   3.851
80450W        W44383  20.652  41.519   0.873
80451W        W44384   6.840  16.739  11.005
80452W        W44385  39.892  28.944   3.216
80453W        W44386   1.469  34.504  14.293
80454W        W44387  39.956  44.331   1.303
80455W        W44388  11.699  36.052  11.857
80456W        W44389   9.662  42.417  11.374
80457W        W44390  36.961  43.868  11.906
80458W        W44391  11.146  32.010   2.873
80459W        W44392  43.856  24.582  10.998
80460W        W44393   9.331   0.805  11.059
80461W        W44394   0.479  15.637   2.840
80462W        W44395  13.112  11.241   2.713
80463W        W44396  43.788  20.108   0.417
80464W        W44397  23.190  23.048   4.731
80465W        W44398  43.901  12.241  10.481
80466W        W44399  27.193  12.355   9.630
80467W        W44400   3.264   6.408  10.470
80468W        W44401  36.426  23.501   4.137
80469W        W44402  13.249  43.771  13.821
80470W        W44403   3.216  28.152   3.272
80471W        W44404  24.043   9.735   1.365
80472W        W44405   8.663   6.399  13.034
80473W        W44406  22.721  37.351  12.952
80474W        W44407  32.627  43.316   3.731
80475W        W44408  15.225  30.164  11.887
80476W        W44409  21.073  23.550   2.676
80477W        W44410  26.106  23.558  12.017
80478W        W44411  43.794  16.233  14.278
80479W        W44412  13.820  27.193   3.798
80480W        W44413  12.146  30.977   4.757
80481W        W44414  12.177   7.237  13.515
80482W        W44415  42.287   2.943  12.947
80483W        W44416   0.849  42.954   1.261
80484W        W44417  23.131   4.817  13.867
80485W        W44418  31.926   6.190  10.567
80486W        W44419   1.273   8.725  11.408
80487W        W44420  19.640  19.135   3.152
80488W        W44421  22.577   4.328  14.431
80489W        W44422  19.737  36.863   1.747
80490W        W44423  13.614  24.074   0.836
80491W        W44424  34.912  24.198   2.792
80492W        W44425   1.736  27.090   5.271
80493W        W44426  23.582   6.864  12.882
80494W        W44427  33.102  28.012   4.653
80495W        W44428  12.336  28.675   4.802
80496W        W44429  34.913  25.048   1.385
80497W        W44430   3.317  36.078  12.092
80498W        W44431  41.894  27.500   1.795
80499W        W44432  12.227  42.030  11.903
80500W        W44433  25.495  20.577   2.284
80501W        W44434   7.312  32.131  14.424
80502W        W44435  33.577   3.391  12.425
80503W        W44436  40.890   6.729   2.400
80504W        W44437  31.103   3.840   1.339
80505W        W44438   3.926  26.480   0.437
80506W        W44439  17.235  11.277  13.028
80507W        W44440  30.972   4.894   3.149
80508W        W44441  15.606  27.678   3.199
80509W        W44442   0.264  29.117  13.899
80510W        W44443  19.202  22.577   0.451
80511W        W44444   3.747  39.436   4.192
80512W        W44445  27.528  37.459   2.757
80513W        W44446  29.038   3.955  14.983
80514W        W44447   4.901  43.390   4.152
80515W        W44448  18.288  24.122   0.435
80516W        W44449  44.392   9.276   0.420
80517W        W44450  13.773  13.607   0.780
80518W        W44451  23.712   0.436  11.482
80519W        W44452  30.534  15.717   4.116
80520W        W44453  24.580  34.023  12.931
80521W        W44454   6.244  38.955  12.544
80522W        W44455  34.514  14.143  11.380
80523W        W44456  28.127  25.080  14.805
80524W        W44457  12.674   7.717  13.394
80525W        W44458   3.256  42.903   0.803
80526W        W44459   6.316  14.609   3.265
80527W        W44460  22.535  31.567  12.963
80528W        W44461   0.843   3.796  11.086
80529W        W44462  29.586  14.311   2.397
80530W        W44463  39.338  17.731  11.109
80531W        W44464  17.624  35.531   0.908
80532W        W44465   0.385  34.914  12.038
80533W        W44466  43.345  24.605  13.382
80534W        W44467   1.886  41.034   4.226
80535W        W44468  41.533   1.315  13.035
80536W        W44469  41.397   3.721   1.369
80537W        W44470  25.027   5.308   1.810
80538W        W44471  33.983  35.443  14.318
80539W        W44472  10.665  25.668   3.312
80540W        W44473  16.805  36.439  11.490
80541W        W44474  39.974  22.245  14.940
80542W        W44475  36.508  26.573  14.849
80543W        W44476  22.734  32.422  12.830
80544W        W44477  44.494   0.774   9.971
80545W        W44478  29.163  40.458  12.505
80546W        W44479  33.591  21.706   1.347
80547W        W44480  30.065   4.447  13.063
80548W        W44481  14.316  31.504   0.351
80549W        W44482  41.498  15.298  14.976
80550W        W44483  35.902   9.828  10.628
80551W        W44484  15.302  37.962   2.662
80552W        W44485   9.711  34.559  13.377
80553W        W44486  18.565  37.529  12.060
80554W        W44487  12.829  39.423   2.307
80555W        W44488  12.266  25.694  12.526
80556W        W44489  32.594  32.052   0.310
80557W        W44490  27.462   3.442   3.266
80558W        W44491  22.587  27.526   0.409
80559W        W44492   3.800   4.864   3.341
80560W        W44493   6.821  21.150  10.602
80561W        W44494  17.724  23.598   4.171
80562W        W44495  17.220  11.648  14.802
80563W        W44496  22.211  10.837   5.701
80564W        W44497   0.464  35.085   4.724
80565W        W44498  34.962  12.184   1.817
80566W        W44499  25.994  17.279  11.395
80567W        W44500  20.598   0.838   2.758
80568W        W44501  26.153  14.730   1.387
80569W        W44502  35.598   9.173  14.944
80570W        W44503  13.163  41.395   1.337
80571W        W44504  40.336  13.255  13.838
80572W        W44505  14.819  43.769  13.063
80573W        W44506  25.064  17.714  10.552
80574W        W44507  19.738  40.813   1.349
80575W        W44508  35.992  24.165  14.338
80576W        W44509  10.212  23.193  12.928
80577W        W44510  15.197  44.898  13.385
80578W        W44511   8.738  42.001   0.362
80579W        W44512  33.420   2.880   3.768
80580W        W44513  35.383  26.202  12.566
80581W        W44514  37.051  32.968   0.753
80582W        W44515  18.655  33.592  11.454
80583W        W44516  24.660   6.223   4.651
80584W        W44517  35.367   0.843   1.235
80585W        W44518  21.107   2.803   1.757
80586W        W44519   9.740  43.338   1.212
80587W        W44520  25.164  36.946   3.704
80588W        W44521  28.934   1.275   4.152
80589W        W44522  29.567  32.104  12.842
80590W        W44523  19.167   9.173   0.813
80591W        W44524  32.502   4.398   3.745
80592W        W44525  44.838  13.159   1.790
80593W        W44526  37.521   5.814  13.334
80594W        W44527  23.679  39.346  10.943
80595W        W44528  32.417  10.847  11.402
80596W        W44529  24.038  43.936  11.020
80597W        W44530  32.560  29.984  14.785
80598W        W44531  44.958  13.772   3.252
80599W        W44532  44.856  41.436  14.325
80600W        W44533  21.241  19.753   2.186
80601W        W44534   6.232   6.679   4.659
80602W        W44535  11.141  38.444  14.770
80603W        W44536   0.778  10.707   2.401
80604W        W44537  16.695   9.836  10.990
80605W        W44538  39.811  11.667   0.825
80606W        W44539   8.186  42.810   2.743
80607W        W44540  26.536  33.521   1.385
80608W        W44541  10.374  14.106  10.144
80609W        W44542  34.942   5.233   4.788
80610W        W44543   8.732  40.388  12.575
80611W        W44544   3.258  24.114   4.750
80612W        W44545  27.025  24.544  14.339
80613W        W44546  17.112  44.849   1.447
80614W        W44547  25.180  34.475   0.742
80615W        W44548   3.908  14.590   0.375
80616W        W44549   6.318  39.425   0.261
80617W        W44550  12.851  15.720   1.252
80618W        W44551   4.436  36.922   4.231
80619W        W44552   1.949  43.891   4.163
80620W        W44553  33.961  37.517  12.941
80621W        W44554  28.466  23.501   4.666
80622W        W44555   5.733  40.402   1.448
80623W        W44556  10.283  32.123  13.979
80624W        W44557  16.695  28.439   1.751
80625W        W44558  34.056  42.848  14.935
80626W        W44559   8.246  25.555  12.065
80627W        W44560  13.685   1.758  12.568
80628W        W44561  42.893  38.566  12.088
80629W        W44562  44.309  21.136  13.831
80630W        W44563  14.812  19.064   4.669
80631W        W44564  25.199   0.351  11.958
80632W        W44565   7.212   6.838   1.412
80633W        W44566  40.958   2.830  13.033
80634W        W44567  41.983   8.359  11.562
80635W        W44568  42.856  14.793  14.970
80636W        W44569   3.751  11.212  10.116
80637W        W44570  35.443   5.429  11.511
80638W        W44571  43.813  17.623  13.004
80639W        W44572  18.220  32.468  12.350
80640W        W44573  10.192  28.528   1.842
80641W        W44574   4.375  35.025  11.944
80642W        W44575   6.362   7.332  13.455
80643W        W44576  29.163  19.610  11.420
80644W        W44577  21.173  38.385  10.534
80645W        W44578  37.047  16.075   1.388
80646W        W44579   6.877  41.797   1.844
80647W        W44580  17.171  15.239  13.921
80648W        W44581  33.422  25.991   3.642
80649W        W44582  28.987  17.760  12.492
80650W        W44583  22.671  11.651  11.389
80651W        W44584  28.114   8.238   4.143
80652W        W44585  37.365  34.467   1.868
80653W        W44586  11.215  37.393   2.776
80654W        W44587  15.122  26.457  12.364
80655W        W44588  19.082  15.193   1.243
80656W        W44589  42.781  37.076   3.847
80657W        W44590  21.615  11.674  10.121
80658W        W44591   0.836  17.193  10.605
80659W        W44592   9.338  20.128  14.791
80660W        W44593   9.279  17.230  13.525
80661W        W44594  26.122  24.508  11.998
80662W        W44595  37.042   4.405  11.015
80663W        W44596  36.055   0.743   5.085
80664W        W44597   3.820  10.766   3.271
80665W        W44598  35.948  38.854   0.419
80666W        W44599  10.788  23.633   3.312
80667W        W44600  41.001  14.322  10.457
80668W        W44601  10.252   4.337   0.780
80669W        W44602   7.289  31.495  14.416
80670W        W44603  27.046   5.889  12.049
80671W        W44604  14.282  37.529  12.830
80672W        W44605  34.592  24.156   0.372
80673W        W44606  24.028  16.640  11.984
80674W        W44607  17.201  44.773   0.884
80675W        W44608  31.038   2.763   4.724
80676W        W44609  35.363  31.953  11.485
80677W        W44610  36.554  32.633   4.236
80678W        W44611   2.868  30.925   4.347
80679W        W44612  33.875  43.000  13.027
80680W        W44613  18.592  10.340  14.343
80681W        W44614  20.541   0.304   0.346
80682W        W44615  21.156  25.051   3.208
80683W        W44616  33.994   2.732   2.775
80684W        W44617  17.167   5.354   4.736
80685W        W44618  40.052  16.800  10.625
80686W        W44619   4.744  34.080   3.308
80687W        W44620  19.685   8.781   3.639
80688W        W44621  14.712  44.395  10.096
80689W        W44622  27.450  26.047  10.904
80690W        W44623  44.270  38.528   2.320
80691W        W44624  39.376  29.069   1.425
80692W        W44625  28.660  40.517   1.793
80693W        W44626   0.838  19.104   1.265
80694W        W44627  35.481  24.674   4.774
80695W        W44628   9.842  40.040   3.183
80696W        W44629   4.730  22.144   4.623
80697W        W44630   7.183  27.105   5.310
80698W        W44631  25.053   1.438   2.320
80699W        W44632   1.454  17.289   2.690
80700W        W44633  17.298  34.418   2.771
80701W        W44634  43.863   7.857   1.254
80702W        W44635   7.398  43.845   2.745
80703W        W44636  36.476  12.273   3.673
80704W        W44637  24.169   0.841   1.299
80705W        W44638  25.990  28.461   2.244
80706W        W44639  36.960  23.557   1.783
80707W        W44640   5.790  17.595  10.471
80708W        W44641  36.897  31.036   4.134
80709W        W44642  12.255   6.859   1.888
80710W        W44643   5.827   7.815  14.304
80711W        W44644  29.119  25.688   2.903
80712W        W44645   2.841   8.848   4.788
80713W        W44646  27.625  32.635   2.301
80714W        W44647  27.019   9.171  13.418
80715W        W44648  33.105  24.626  11.855
80716W        W44649   9.731  20.733   1.430
80717W        W44650  20.719  13.227   0.462
80718W        W44651  20.242  28.168  13.987
80719W        W44652   4.375  26.625  10.438
80720W        W44653  30.609  13.205  11.591
80721W        W44654   8.861   0.979   3.780
80722W        W44655  43.443  44.971  13.934
80723W        W44656  38.931  34.934  13.793
80724W        W44657   2.939  10.160   2.272
80725W        W44658  25.488  35.858   3.751
80726W        W44659   0.791  23.626  13.442
80727W        W44660   4.345  12.775   1.891
80728W        W44661  22.010  22.541  13.060
80729W        W44662  28.571  39.345   1.264
80730W        W44663  10.696  14.137  13.835
80731W        W44664  41.011  35.567   2.306
80732W        W44665   8.826  40.888   2.679
80733W        W44666  26.127  30.496   0.374
80734W        W44667   5.263   7.222  14.763
80735W        W44668  32.433  11.623   2.341
80736W        W44669  44.835   9.285  12.400
80737W        W44670  21.671  26.179   1.273
80738W        W44671  13.697  41.002   3.727
80739W        W44672  20.178  14.705   1.234
80740W        W44673  17.584  19.602  14.908
80741W        W44674  35.095   0.770   2.746
80742W        W44675  17.191  32.075  12.046
80743W        W44676  32.599  21.128  10.437
80744W        W44677   4.763  39.469  14.475
80745W        W44678  31.463  27.122  12.073
80746W        W44679  17.197  29.100  11.039
80747W        W44680  25.980   4.208  13.807
80748W        W44681  10.324  38.354   4.697
80749W        W44682  42.416  34.471   3.815
80750W        W44683  13.694   6.901   0.745
80751W        W44684   9.890  44.468   0.786
80752W        W44685   1.885   8.306  11.859
80753W        W44686  25.988  38.554   4.641
80754W        W44687  21.257  12.673   0.359
80755W        W44688  30.960   2.376  12.492
80756W        W44689  20.532  32.983   2.815
80757W        W44690  34.063  13.756  14.970
80758W        W44691  10.730  25.043  14.401
80759W        W44692  29.149   0.361   3.801
80760W        W44693   2.466  37.409  13.337
80761W        W44694  15.176  34.008  14.842
80762W        W44695   0.410  25.968  10.415
80763W        W44696  40.853  31.103   3.870
80764W        W44697  34.062  32.951   3.826
80765W        W44698   5.402  26.994   2.257
80766W        W44699  43.003  20.090  10.607
80767W        W44700  19.255  18.681  13.845
80768W        W44701  23.496  15.320   2.410
80769W        W44702  21.623  17.251  11.421
80770W        W44703  27.991   2.344  13.969
80771W        W44704  26.537  43.396  12.841
80772W        W44705   1.961  29.112  12.848
80773W        W44706  11.779  30.449  13.366
80774W        W44707  10.811   2.435   3.228
80775W        W44708  18.229  40.047  12.924
80776W        W44709   0.423  16.683  11.866
80777W        W44710   6.677  13.801   5.208
80778W        W44711  29.444  36.007   4.163
80779W        W44712  30.070  17.677  13.858
80780W        W44713  34.382  13.235   4.124
80781W        W44714  19.747  25.124  14.970
80782W        W44715  14.712   5.197   5.803
80783W        W44716  20.768  22.705  12.452
80784W        W44717   0.382  28.961  11.901
80785W        W44718  17.614  28.098  11.972
80786W        W44719   4.265   9.360  14.814
80787W        W44720  18.257  44.467   3.268
80788W        W44721  44.285  27.948   4.614
80789W        W44722  33.421  37.855  13.903
80790W        W44723  34.399  30.023   3.705
80791W        W44724  17.220  26.971   1.785
80792W        W44725   3.924  17.142   3.369
80793W        W44726  28.187  32.970  13.872
80794W        W44727  19.278   8.378  13.443
80795W        W44728  22.742  32.930   4.283
80796W        W44729  39.547  22.666   4.626
80797W        W44730  40.430  33.415   1.815
80798W        W44731   4.301   7.707   0.408
80799W        W44732   9.173  14.304   5.178
80800W        W44733  39.427  27.471   1.307
80801W        W44734   0.924   7.226   4.150
80802W        W44735   8.721   7.740   2.769
80803W        W44736  16.134  27.132   4.687
80804W        W44737  21.571  34.863  14.461
80805W        W44738  30.448   5.200   0.302
80806W        W44739   9.328   2.916  13.939
80807W        W44740   2.440  34.874   4.206
80808W        W44741   2.940  42.345   2.284
80809W        W44742  35.077   4.848   0.838
80810W        W44743   8.717  15.711   3.276
80811W        W44744  23.623  42.483   1.878
80812W        W44745  34.950  37.906   0.812
80813W        W44746  27.984  25.022  11.923
80814W        W44747  18.764  15.707   4.349
80815W        W44748  15.134  19.685  11.954
80816W        W44749   5.357   9.369  11.473
80817W        W44750   7.706  32.932   0.389
80818W        W44751  38.427  13.314   1.233
80819W        W44752  30.506  25.163   4.183
80820W        W44753  26.507  35.541  12.871
80821W        W44754  20.556  18.605  12.524
80822W        W44755  41.931  37.949  14.418
80823W        W44756  42.011  36.403  14.010
80824W        W44757  29.457  24.206  12.095
80825W        W44758  28.647  30.067  10.626
80826W        W44759  11.231   4.258   4.806
80827W        W44760  14.199   4.845   2.400
80828W        W44761  22.021  10.355   2.273
80829W        W44762  11.135  17.218   1.902
80830W        W44763  24.600  15.589  12.868
80831W        W44764   4.729  28.040  13.358
80832W        W44765   0.359  35.594  10.959
80833W        W44766  21.646  37.086   3.870
80834W        W44767  39.323  37.988   4.725
80835W        W44768  36.856  17.793   1.231
80836W        W44769  29.508  16.218   1.218
80837W        W44770  43.868  14.124   1.844
80838W        W44771  44.870  28.101  11.424
80839W        W44772  37.904  23.140   2.210
80840W        W44773   0.845  14.600   4.299
80841W        W44774  41.301  33.114   4.835
80842W        W44775  11.286   6.868   0.931
80843W        W44776   2.277  38.040  12.992
80844W        W44777   6.229   3.767  11.918
80845W        W44778  21.094  20.164   0.747
80846W        W44779  29.558  36.092  10.906
80847W        W44780  18.777   0.830  13.959
80848W        W44781  26.646   3.359   5.147
80849W        W44782   1.898  31.068   4.259
80850W        W44783  41.032  17.574  10.425
80851W        W44784   8.175  11.754   1.852
80852W        W44785  11.686  38.407  13.886
80853W        W44786  14.112   2.320   5.180
80854W        W44787   2.304   6.697   4.821
80855W        W44788  43.925  42.963   4.249
80856W        W44789  23.196  25.184  13.870
80857W        W44790  34.388  37.466   1.395
80858W        W44791   4.892  20.623   3.812
80859W        W44792  15.313  28.116  13.882
80860W        W44793  23.072   7.772   2.894
80861W        W44794  18.084  33.613   2.296
80862W        W44795  32.413  31.593  14.367
80863W        W44796  14.131  14.730  12.521
80864W        W44797  10.747  21.678  12.546
80865W        W44798  40.915   3.275  13.312
80866W        W44799  25.003  39.011  10.514
80867W        W44800  27.572  40.891   0.907
80868W        W44801  22.616  43.394  12.414
80869W        W44802  21.077  22.219   0.838
80870W        W44803   5.345  19.735  11.991
80871W        W44804   4.710  33.451   5.321
80872W        W44805  27.499  14.702  14.936
80873W        W44806  10.335  11.645  10.437
80874W        W44807  36.432  30.089  11.932
80875W        W44808  20.207  40.804   4.612
80876W        W44809   8.202  25.104  11.958
80877W        W44810  23.024  11.352   1.877
80878W        W44811  34.903  30.097  13.376
80879W        W44812  18.575  34.106   0.407
80880W        W44813   6.209  35.013  11.121
80881W        W44814  32.973  36.905  13.050
80882W        W44815  31.416   8.240   1.834
80883W        W44816  31.900   3.730   3.165
80884W        W44817  11.752  16.731  13.403
80885W        W44818   6.194  16.262  12.055
80886W        W44819   4.373  43.020   2.247
80887W        W44820  40.404  10.142  11.022
80888W        W44821   0.880  38.380  11.996
80889W        W44822  21.153  26.595   0.304
80890W        W44823  10.310  23.992  14.770
80891W        W44824  35.104  38.973   3.325
80892W        W44825  19.601  38.041  10.094
80893W        W44826  23.515  33.879   3.699
80894W        W44827  24.228   9.369   0.910
80895W        W44828  20.241  20.578   1.852
80896W        W44829  40.329   1.366   1.370
80897W        W44830  29.648  29.057   4.252
80898W        W44831  16.255  25.518  14.785
80899W        W44832  12.684  38.933   4.302
80900W        W44833   3.726  23.015  11.913
80901W        W44834  17.741  13.151   0.369
80902W        W44835   2.365  38.010   0.858
80903W        W44836  43.771  38.855   1.357
80904W        W44837  22.105   8.390   1.300
80905W        W44838  13.257  14.229   2.299
80906W        W44839  16.648  16.702  11.040
80907W        W44840  30.483  29.150  14.359
80908W        W44841  40.870   7.809   1.243
80909W        W44842  38.955  31.568   0.446
80910W        W44843  34.500   9.836   1.800
80911W        W44844  11.865  23.203  11.570
80912W        W44845  35.026  27.523   3.375
80913W        W44846  22.564  27.992   2.861
80914W        W44847  29.502  39.512   0.855
80915W        W44848   0.288  13.111   0.934
80916W        W44849  22.068   7.309  14.828
80917W        W44850   5.429   8.168  11.591
80918W        W44851  28.457  43.786   2.345
80919W        W44852  39.535  20.138  12.033
80920W        W44853   1.820  35.056  13.469
80921W        W44854  28.515  32.922  12.440
80922W        W44855  12.156   3.750   4.341
80923W        W44856  13.779   1.769  12.990
80924W        W44857   1.274   9.190   2.817
80925W        W44858  15.596   9.654   1.375
80926W        W44859  11.864  19.721   9.963
80927W        W44860  30.525  21.583   1.808
80928W        W44861  23.182  39.853  11.410
80929W        W44862  16.701  37.832  14.293
80930W        W44863  38.941  12.738   2.706
80931W        W44864  32.426  32.625  14.007
80932W        W44865  34.534  28.950  10.926
80933W        W44866  22.057  36.502  14.439
80934W        W44867   5.404  35.359  12.437
80935W        W44868  19.058  16.789   1.857
80936W        W44869  39.498  39.463  13.851
80937W        W44870  16.687   2.253   0.796
80938W        W44871  11.802   7.734   3.826
80939W        W44872  39.049   4.822   9.939
80940W        W44873  36.852  10.218   1.791
80941W        W44874  11.699  29.999   3.731
80942W        W44875  13.336  22.566  12.038
80943W        W44876   0.755  23.693   4.627
80944W        W44877  38.561   7.259  13.429
80945W        W44878  29.517   2.764   2.828
80946W        W44879  42.415  29.123   0.315
80947W        W44880  14.623  19.146  10.960
80948W        W44881  24.001   1.888   1.445
80949W        W44882  10.735  34.611  13.998
80950W        W44883  19.551  37.527  13.344
80951W        W44884  24.990  10.373  13.046
80952W        W44885  43.960   8.784  12.484
80953W        W44886  32.398   1.886  14.911
80954W        W44887  38.044  44.793  13.484
80955W        W44888  33.480  25.006  12.528
80956W        W44889   8.712  36.872  14.961
80957W        W44890  13.620  34.556   0.440
80958W        W44891   2.311   4.215  10.520
80959W        W44892  29.553   3.786  14.323
80960W        W44893   8.813  25.696  13.473
80961W        W44894   2.866  29.989  10.428
80962W        W44895  34.093  38.052   2.344
80963W        W44896  21.589  31.408  14.487
80964W        W44897   1.267   2.925  13.354
80965W        W44898  44.783  29.083   0.444
80966W        W44899  24.500   7.253   1.715
80967W        W44900  29.642   0.321  11.512
80968W        W44901   7.682   6.705   2.311
80969W        W44902   5.244   4.355  13.901
80970W        W44903  14.323   5.286  11.569
80971W        W44904   9.239   2.761  12.426
80972W        W44905  20.122   4.783  10.907
80973W        W44906  37.497  38.355  11.948
80974W        W44907  29.425   2.755   4.680
80975W        W44908  42.414  32.455   1.428
80976W        W44909   5.423  28.623  10.920
80977W        W44910  44.882  23.693   1.827
80978W        W44911   3.226  29.990   2.244
80979W        W44912  40.338   3.720  14.030
80980W        W44913  19.262   5.297   1.215
80981W        W44914  15.323  24.489   3.698
80982W        W44915  10.171  22.134   1.911
80983W        W44916  44.001  36.435   2.274
80984W        W44917   6.263  43.783   0.323
80985W        W44918  44.883  21.606  12.387
80986W        W44919  19.254  35.483   2.755
80987W        W44920  34.997  14.616   2.874
80988W        W44921  20.073  23.490  13.463
80989W        W44922  30.914   8.299  13.952
80990W        W44923  32.583  39.363   2.762
80991W        W44924  28.119  11.798  11.392
80992W        W44925   1.809  30.635   1.799
80993W        W44926   2.859  19.711   2.307
80994W        W44927  33.498  40.926  14.464
80995W        W44928  41.515  41.817  14.999
80996W        W44929  21.076  25.704   4.124
80997W        W44930  26.498  32.122   4.164
80998W        W44931  43.392  10.209   1.213
80999W        W44932  38.069   8.695   5.229
81000W        W44933   8.757  12.695  12.557
81001W        W44934  23.185  30.948   0.835
81002W        W44935   8.167  38.359   3.328
81003W        W44936  29.635  40.051  14.301
81004W        W44937  44.356  27.111   2.806
81005W        W44938  24.544   8.783   2.200
81006W        W44939  16.646  30.545  12.903
81007W        W44940  23.194  34.955   2.254
81008W        W44941  38.326  39.060  10.575
81009W        W44942  10.737  14.300   4.690
81010W        W44943  15.701  22.708  13.498
81011W        W44944  38.355  34.562  12.072
81012W        W44945  25.218   2.744   0.818
81013W        W44946  27.098   1.440  12.014
81014W        W44947  23.117  31.470  10.458
81015W        W44948   3.369  26.139   3.273
81016W        W44949  26.497   5.910   4.222
81017W        W44950  42.813  42.876   1.247
81018W        W44951  21.666  29.655  12.437
81019W        W44952  26.983  30.606  10.537
81020W        W44953  16.228  16.575  13.312
81021W        W44954  22.087  38.519  14.412
81022W        W44955  31.023   3.294  10.621
81023W        W44956  12.692  35.414   1.429
81024W        W44957   2.943  12.708  14.833
81025W        W44958   1.864  39.466   0.275
81026W        W44959  10.846  32.132   2.720
81027W        W44960  34.030   2.335   2.698
81028W        W44961  27.143  10.363  13.413
81029W        W44962  38.522  31.966   4.178
81030W        W44963  27.125  29.535   1.380
81031W        W44964  19.638   9.187   5.251
81032W        W44965  24.601  11.362   1.731
81033W        W44966  21.036  18.604   4.289
81034W        W44967  28.005  32.438   2.735
81035W        W44968  31.127   7.307  10.147
81036W        W44969  33.486  24.144   4.241
81037W        W44970   0.930  16.116  11.039
81038W        W44971  14.157  21.734  13.012
81039W        W44972  20.109  28.002  11.374
81040W        W44973  34.416  35.057  12.052
81041W        W44974  33.402   0.912  13.030
81042W        W44975   3.806  17.281  12.050
81043W        W44976  15.233  18.571  10.516
81044W        W44977  22.249  41.817   2.417
81045W        W44978   4.406   0.960  11.890
81046W        W44979  27.539  18.135  11.457
81047W        W44980  11.728   4.233   1.772
81048W        W44981  30.164  33.102  13.530
81049W        W44982   7.771  17.585  11.036
81050W        W44983   8.382   0.253  13.469
81051W        W44984  18.229   4.841  11.004
81052W        W44985  29.445   3.248   1.871
81053W        W44986  17.637  15.266  13.394
81054W        W44987  11.308  10.748  11.586
81055W        W44988  13.781  29.429   0.448
81056W        W44989  37.844  35.410  11.970
81057W        W44990  14.287  33.963   4.307
81058W        W44991  14.618  31.479   4.222
81059W        W44992  25.970  26.647   0.460
81060W        W44993  24.205  42.504   3.178
81061W        W44994   9.854  20.088   0.438
81062W        W44995  33.939  28.487  12.927
81063W        W44996  39.820  36.433   4.285
81064W        W44997  15.102  41.443   1.287
81065W        W44998  15.728  43.000  10.081
81066W        W44999  42.010  31.896   4.324
81067W        W45000  20.635  19.563  14.795
81068W        W45001   5.378   2.472   0.311
81069W        W45002  39.959  34.984  14.878
81070W        W45003  31.107  37.576   0.344
81071W        W45004  29.069  14.289  10.581
81072W        W45005  18.634  30.133   2.277
81073W        W45006   7.395  34.581   2.179
81074W        W45007  31.542  30.952   3.811
81075W        W45008  12.831  17.727   1.900
81076W        W45009  33.460  43.936  12.080
81077W        W45010  10.164  43.497  14.298
81078W        W45011  10.728  37.348   2.241
81079W        W45012  29.603  40.999   4.133
81080W        W45013  43.861  20.526  11.955
81081W        W45014  17.171  26.180   4.247
81082W        W45015  34.097  19.554   0.252
81083W        W45016   1.391   7.750   4.636
81084W        W45017  34.376  28.026   4.166
81085W        W45018  35.910  13.715  12.017
81086W        W45019   9.770  20.740  13.874
81087W        W45020  16.242  14.203  11.407
81088W        W45021  44.389  44.286  14.333
81089W        W45022   7.817  32.562  11.035
81090W        W45023   3.877  16.617   4.714
81091W        W45024   1.323   7.184  13.934
81092W        W45025  41.973  31.086  11.024
81093W        W45026  24.561   6.754  10.422
81094W        W45027  40.452  25.179  11.079
81095W        W45028  38.423  25.141   4.771
81096W        W45029  12.120  27.546  11.386
81097W        W45030  25.536  14.640  12.419
81098W        W45031  22.739  27.522  13.983
81099W        W45032   1.439  28.579  11.932
81100W        W45033   8.288  19.603   0.791
81101W        W45034  34.468  23.697  12.082
81102W        W45035  13.160  20.158  12.450
81103W        W45036  27.472   9.668   4.216
81104W        W45037  10.324   0.813  14.797
81105W        W45038  38.476  43.929   2.879
81106W        W45039  12.166   8.670   0.349
81107W        W45040  36.957   3.763  13.942
81108W        W45041   2.459  10.742   3.815
81109W        W45042  38.029  35.963  14.922
81110W        W45043  35.499  38.826  13.516
81111W        W45044  31.403  36.958   2.881
81112W        W45045   4.250  16.275  14.504
81113W        W45046  17.277  42.484   4.662
81114W        W45047  42.801  28.184  13.947
81115W        W45048   3.293  32.979  10.968
81116W        W45049  27.149   3.436  14.459
81117W        W45050  43.841  23.007  12.902
81118W        W45051  24.024   9.878   9.455
81119W        W45052  14.190   0.304   1.378
81120W        W45053  27.009  29.604   2.706
81121W        W45054  42.486  44.453  10.569
81122W        W45055  23.574  39.487  13.920
81123W        W45056  15.772  43.877  10.074
81124W        W45057  24.200  14.806   1.809
81125W        W45058  20.199  33.913   0.252
81126W        W45059  29.572   9.697   1.231
81127W        W45060  31.021  15.708  13.392
81128W        W45061  16.672  11.777   4.354
81129W        W45062  19.120  11.841  14.453
81130W        W45063   9.831  41.429  11.012
81131W        W45064   5.896  33.483  10.532
81132W        W45065  12.215  24.080  12.471
81133W        W45066  12.341  42.885  11.560
81134W        W45067  30.548  31.412  13.504
81135W        W45068   6.343  41.816  11.066
81136W        W45069   3.938   7.798   2.727
81137W        W45070  18.553  37.567  14.342
81138W        W45071  22.160  12.833  12.852
81139W        W45072  18.728  27.584  14.030
81140W        W45073  38.495  43.930   3.183
81141W        W45074  42.987   5.360   1.263
81142W        W45075  24.530  17.151   3.319
81143W        W45076  32.010  20.722   0.298
81144W        W45077  19.162  36.842   0.796
81145W        W45078  35.963  27.676   0.256
81146W        W45079  27.558   8.803   0.482
81147W        W45080  30.989  14.767   4.131
81148W        W45081   6.254  43.966   0.811
81149W        W45082  29.596  17.154  11.878
81150W        W45083   9.826  12.363   1.909
81151W        W45084  25.629   8.241  11.974
81152W        W45085  28.665   7.853  13.309
81153W        W45086  15.629  34.494   4.265
81154W        W45087  11.296  44.286  14.341
81155W        W45088   8.336  29.132  13.529
81156W        W45089   7.377  17.284   3.654
81157W        W45090  35.580   6.271   4.183
81158W        W45091  20.166  42.288  11.032
81159W        W45092  16.590  21.216   4.624
81160W        W45093   8.853  38.356   1.446
81161W        W45094  16.228  31.068   4.187
81162W        W45095  38.871   4.893  13.838
81163W        W45096  25.660  28.057  12.890
81164W        W45097   9.716  41.832   3.649
81165W        W45098  25.711  24.557  14.427
81166W        W45099  12.209  11.760   0.806
81167W        W45100  21.703  41.522  12.944
81168W        W45101  15.159   5.405   4.769
81169W        W45102  38.430   9.157   2.302
81170W        W45103  42.928  32.997  13.823
81171W        W45104  28.608   7.224  11.117
81172W        W45105  33.586  19.571  13.022
81173W        W45106  26.526  12.283  14.909
81174W        W45107  17.180  25.470  14.314
81175W        W45108  39.522  19.646  12.061
81176W        W45109  19.257  22.042  14.504
81177W        W45110  33.481  26.003  10.405
81178W        W45111  19.132  32.133  10.078
81179W        W45112  21.686  34.932  10.494
81180W        W45113  24.047  29.595   4.297
81181W        W45114   1.239   9.156   0.336
81182W        W45115  15.706  42.495  13.827
81183W        W45116   6.855  22.575   1.768
81184W        W45117  29.158  13.302  12.991
81185W        W45118  23.007  42.788  14.896
81186W        W45119   0.971   1.771   1.867
81187W        W45120   8.287  33.910  12.402
81188W        W45121  31.483  38.475   0.906
81189W        W45122   1.861   6.780  11.541
81190W        W45123  26.029  16.596   4.131
81191W        W45124   3.372  37.492   9.942
81192W        W45125  32.889  43.378  10.967
81193W        W45126  17.646  24.977   9.949
81194W        W45127  40.801  10.314   2.767
81195W        W45128  26.646  23.099  14.949
81196W        W45129  35.095  20.714   1.935
81197W        W45130  38.992  14.106   4.820
81198W        W45131  30.070   1.750   1.867
81199W        W45132  14.319   8.845  13.327
81200W        W45133  37.526   6.796   3.707
81201W        W45134   3.335  22.055  10.141
81202W        W45135  31.060  26.578  11.012
81203W        W45136  26.105  23.610  13.886
81204W        W45137  34.009  17.748  11.487
81205W        W45138  15.738  39.918  12.508
81206W        W45139  42.313  15.665  13.349
81207W        W45140   4.752  20.265   4.809
81208W        W45141  12.175   6.259  14.012
81209W        W45142  39.918  44.315  14.011
81210W        W45143  26.650  31.033  12.870
81211W        W45144  26.680  40.498  12.431
81212W        W45145  36.048  27.464  14.397
81213W        W45146   6.919  15.235  13.879
81214W        W45147  15.654  28.185  13.444
81215W        W45148   0.775  24.099  11.924
81216W        W45149  36.998  34.432  13.877
81217W        W45150  31.442  14.279   4.288
81218W        W45151   9.181  15.621   1.242
81219W        W45152  17.709  13.809   4.288
81220W        W45153   8.892  26.494  14.786
81221W        W45154  11.312  33.050  13.407
81222W        W45155  34.071  14.603   2.691
81223W        W45156  17.789  33.884  11.887
81224W        W45157   7.701   6.365   0.945
81225W        W45158   2.420   4.213   1.700
81226W        W45159  14.307  13.731   3.801
81227W        W45160  14.269  26.068   2.814
81228W        W45161  10.367  13.805   1.809
81229W        W45162  21.187  24.532   3.696
81230W        W45163  31.899  41.472   1.924
81231W        W45164  33.518  32.004  14.965
81232W        W45165  40.841  44.952   0.256
81233W        W45166   4.361  28.155   2.666
81234W        W45167  35.996   3.331   2.875
81235W        W45168   3.288  15.095  13.456
81236W        W45169  18.239  14.748  12.497
81237W        W45170   3.841  16.298   3.341
81238W        W45171  23.233  37.542   2.866
81239W        W45172  43.389   8.402  10.954
81240W        W45173  30.527  37.512   0.474
81241W        W45174  21.029  19.563  13.326
81242W        W45175  29.083  33.508   1.793
81243W        W45176  28.983  25.161   1.874
81244W        W45177   4.739  12.689   3.700
81245W        W45178  20.600  26.616   1.300
81246W        W45179  14.612   5.403   2.331
81247W        W45180  26.665  26.480  13.877
81248W        W45181  32.484  40.944  12.961
81249W        W45182   6.232  37.893   0.933
81250W        W45183  37.839  18.668   1.893
81251W        W45184  21.111  18.125  14.449
81252W        W45185  17.569   1.959  13.322
81253W        W45186  18.281  40.460   3.292
81254W        W45187   8.681  42.962  12.961
81255W        W45188  44.383   9.209   3.149
81256W        W45189  20.228  38.457   1.327
81257W        W45190  38.002  21.233  13.928
81258W        W45191  26.035   5.437  10.611
81259W        W45192  24.006  41.435  14.463
81260W        W45193  43.508  23.666  13.495
81261W        W45194  17.646  35.534  12.511
81262W        W45195  38.976  42.282   4.231
81263W        W45196  10.242  26.115  12.475
81264W        W45197   5.705  43.397  12.542
81265W        W45198  16.781   0.769  11.893
81266W        W45199   4.789   5.876  12.085
81267W        W45200  27.679  38.420  14.922
81268W        W45201  18.083  24.592  11.589
81269W        W45202  43.012  33.896  14.372
81270W        W45203  40.515  40.498  11.085
81271W        W45204  38.361  25.479  10.634
81272W        W45205   1.787  39.543   0.838
81273W        W45206   7.702  44.800   3.713
81274W        W45207   2.809   5.921   2.247
81275W        W45208  10.334  20.099   2.252
81276W        W45209  15.297   6.404  13.362
81277W        W45210   3.308   7.906  13.864
81278W        W45211   2.900   1.742   1.440
81279W        W45212  10.847  38.421   1.286
81280W        W45213  34.993  42.921   4.135
81281W        W45214   6.903  18.676   4.284
81282W        W45215  42.437  38.363   5.248
81283W        W45216   7.841  29.952   2.898
81284W        W45217   0.428  23.121   1.275
81285W        W45218  44.486  37.406  12.837
81286W        W45219  10.728   9.335  13.518
81287W        W45220  18.781  31.493   2.700
81288W        W45221   0.864  27.070  11.078
81289W        W45222   0.396  35.940  11.507
81290W        W45223  40.812  24.695   2.363
81291W        W45224   9.245  44.930   1.786
81292W        W45225  41.960   5.922  10.110
81293W        W45226  10.722  26.500  10.981
81294W        W45227   5.687  15.693  13.499
81295W        W45228  20.080   4.719   0.817
81296W        W45229  44.977  40.994   1.799
81297W        W45230  38.451  18.591   2.877
81298W        W45231  33.876   1.822  11.894
81299W        W45232  14.650  18.671  12.578
81300W        W45233   4.756   2.792  13.449
81301W        W45234  32.080  23.674  14.916
81302W        W45235  36.075  14.153  13.008
81303W        W45236  32.108  39.945  10.123
81304W        W45237  18.135  30.025  13.891
81305W        W45238   2.846  15.093   0.461
81306W        W45239   0.751  41.532   3.793
81307W        W45240  12.258  29.053   2.206
81308W        W45241  21.176  44.392  12.033
81309W        W45242  10.313  25.095   3.364
81310W        W45243  22.152  35.994  11.530
81311W        W45244   5.891  32.904   1.325
81312W        W45245  19.644  38.510   4.166
81313W        W45246   9.294   5.249   4.673
81314W        W45247   7.289  43.918  12.052
81315W        W45248  18.712   0.975   0.814
81316W        W45249  15.325  18.053   4.600
81317W        W45250  17.741  18.138  12.378
81318W        W45251  44.009  13.218  14.871
81319W        W45252  25.066  10.726  14.005
81320W        W45253  40.986  25.124   4.352
81321W        W45254  31.402   1.287   1.854
81322W        W45255  33.992  14.334  12.093
81323W        W45256   1.438  26.131  10.894
81324W        W45257  42.517   3.301  14.974
81325W        W45258  20.049  33.595  11.465
81326W        W45259  43.458  42.473   1.394
81327W        W45260  15.238  29.471   2.195
81328W        W45261  27.579  25.113   0.339
81329W        W45262  32.958  33.577   1.343
81330W        W45263   7.206  11.624   2.689
81331W        W45264   0.972  42.328   4.353
81332W        W45265   8.768  41.976  14.789
81333W        W45266   6.740  15.107   4.695
81334W        W45267  42.783  35.859  11.875
81335W        W45268  17.693  37.070  14.963
81336W        W45269  26.652  44.940  13.848
81337W        W45270  36.417   9.312  13.526
81338W        W45271  12.292  28.548   3.176
81339W        W45272  14.738  10.874   3.185
81340W        W45273  29.019  13.220  11.396
81341W        W45274  42.320  12.316   3.349
81342W        W45275  15.596  43.960   3.770
81343W        W45276  27.526  20.138  10.617
81344W        W45277   4.796  32.636   2.325
81345W        W45278  43.953  33.599   1.776
81346W        W45279  23.613  10.637   1.878
81347W        W45280   2.356  28.010  10.509
81348W        W45281  32.930  11.768   3.753
81349W        W45282   4.786  30.967  11.499
81350W        W45283  19.158   1.772   3.719
81351W        W45284   5.323  38.482   1.431
81352W        W45285  17.159   1.942  13.051
81353W        W45286  42.961  41.538  11.113
81354W        W45287  39.424  36.499  13.060
81355W        W45288  22.728  32.459  10.153
81356W        W45289   1.889  44.505   1.357
81357W        W45290  23.092  27.662   4.716
81358W        W45291  14.660  18.746   0.388
81359W        W45292  39.994   0.315  13.878
81360W        W45293  18.690   8.718   2.761
81361W        W45294   4.712   8.179   1.831
81362W        W45295  39.813  31.015  12.913
81363W        W45296  22.544  35.471   1.395
81364W        W45297  32.554  21.746   3.778
81365W        W45298  23.153   5.910   4.810
81366W        W45299  15.161   4.702   2.770
81367W        W45300  13.242  36.857  14.300
81368W        W45301  37.003  23.702  11.010
81369W        W45302  15.694  17.660   2.697
81370W        W45303   4.343  20.555  13.791
81371W        W45304   3.743  15.112   9.977
81372W        W45305  43.485  16.230   0.797
81373W        W45306  20.048  30.592   2.314
81374W        W45307  24.684  41.993   4.601
81375W        W45308  35.857  32.443   2.195
81376W        W45309  30.620  43.783   1.768
81377W        W45310  33.002  37.473   0.386
81378W        W45311  20.255   5.361   1.785
81379W        W45312  28.996  15.709  10.551
81380W        W45313  11.179   9.681  14.969
81381W        W45314  18.726   3.794  12.024
81382W        W45315   0.942  25.124   4.623
81383W        W45316  16.727  31.429  13.992
81384W        W45317   8.861  27.034   5.290
81385W        W45318   6.394  14.271  14.010
81386W        W45319  34.549   1.483   4.686
81387W        W45320  11.692   4.933   4.789
81388W        W45321  17.765   7.235  13.393
81389W        W45322  21.163  13.245  11.519
81390W        W45323   8.309  33.888   0.887
81391W        W45324  20.686  23.523  12.013
81392W        W45325  18.635   5.743  10.893
81393W        W45326  20.264   2.810   2.310
81394W        W45327  26.493   0.851  11.868
81395W        W45328  42.477   3.351  12.926
81396W        W45329   5.354  16.718  13.937
81397W        W45330   0.267   1.895   3.805
81398W        W45331  14.700   2.780   2.849
81399W        W45332  15.659  34.473  11.384
81400W        W45333  28.633  44.891  10.931
81401W        W45334   9.345  35.911   1.304
81402W        W45335   5.901  22.127   2.872
81403W        W45336  25.185  31.495   0.447
81404W        W45337  23.620   8.395  12.497
81405W        W45338  44.836  35.997   5.141
81406W        W45339  26.546  12.721  12.507
81407W        W45340   2.911  30.092   3.216
81408W        W45341  29.087  11.648   2.879
81409W        W45342   9.200  21.205  10.935
81410W        W45343  22.676  40.481   0.361
81411W        W45344   9.198  26.200   0.831
81412W        W45345  28.670  13.333   0.369
81413W        W45346  15.127  22.715  12.868
81414W        W45347  38.545  37.906  12.395
81415W        W45348  26.020  10.828  13.357
81416W        W45349  29.627  12.188  13.544
81417W        W45350  30.492   1.823  14.012
81418W        W45351  15.204   0.988  11.558
81419W        W45352   6.921  14.325   4.615
81420W        W45353  43.908   3.395   3.267
81421W        W45354  41.825  19.681  12.852
81422W        W45355  25.162   4.740   3.827
81423W        W45356  15.705   7.840  11.938
81424W        W45357   2.342  34.918   2.704
81425W        W45358  19.107  31.124  11.608
81426W        W45359  36.529  19.232   0.475
81427W        W45360  12.736  11.861   2.818
81428W        W45361  31.445  22.238  12.840
81429W        W45362   0.773  37.967  13.345
81430W        W45363   0.898  39.553   0.956
81431W        W45364  14.650  41.385  10.638
81432W        W45365  28.592  36.355  13.469
81433W        W45366  24.000  24.061   2.788
81434W        W45367   0.359   9.714   4.629
81435W        W45368   4.408  33.497  12.931
81436W        W45369  19.142  15.329   3.158
81437W        W45370   0.848  44.484  13.832
81438W        W45371  30.608   9.232   2.192
81439W        W45372  30.554  35.377   3.334
81440W        W45373  23.050  24.525  13.518
81441W        W45374  41.502  11.267   2.736
81442W        W45375  44.411  12.344  10.445
81443W        W45376  14.623  39.934  11.061
81444W        W45377   3.269   2.856  13.418
81445W        W45378   4.818  16.219   9.578
81446W        W45379   8.794  43.909   4.286
81447W        W45380  13.315  16.641   0.762
81448W        W45381  32.029  41.842  14.812
81449W        W45382   1.750  41.928   2.370
81450W        W45383  34.902   4.437  14.803
81451W        W45384  21.171  41.956  13.928
81452W        W45385   4.751  34.558  11.606
81453W        W45386  36.065  18.601   1.361
81454W        W45387  44.356  31.919   4.195
81455W        W45388  14.723  14.647  12.471
81456W        W45389   3.258   6.286  12.854
81457W        W45390   3.835   8.383  12.542
81458W        W45391  17.568   1.401  13.990
81459W        W45392  10.810   2.391   0.365
81460W        W45393  22.209  41.807  12.505
81461W        W45394   0.478  25.645  12.465
81462W        W45395  41.862   7.803  12.381
81463W        W45396   0.986  43.324   1.735
81464W        W45397  12.721   6.197   0.440
81465W        W45398   7.210   3.436   2.343
81466W        W45399  42.319  20.046   2.287
81467W        W45400  26.468  10.261   3.252
81468W        W45401  28.147   6.721   1.299
81469W        W45402  12.747  24.171  12.389
81470W        W45403  35.888   9.710   2.780
81471W        W45404  43.462  24.013  14.863
81472W        W45405   5.869  26.493   3.690
81473W        W45406  31.080  34.912  12.075
81474W        W45407  42.849  34.598   0.349
81475W        W45408  15.682  41.295  11.015
81476W        W45409  26.559  16.622  13.868
81477W        W45410  41.812  44.858  10.583
81478W        W45411  36.871   6.259   1.791
81479W        W45412   3.924   0.459   4.268
81480W        W45413   7.314  32.584  13.538
81481W        W45414   4.871  24.078   3.782
81482W        W45415  30.922  18.195   0.365
81483W        W45416  14.687   7.197  11.474
81484W        W45417  26.617   7.878   2.886
81485W        W45418  40.487  12.714  11.037
81486W        W45419  26.986   9.769  13.359
81487W        W45420  37.581  21.084   5.286
81488W        W45421  29.959   7.229   4.151
81489W        W45422   8.689   8.695  13.924
81490W        W45423   3.214   1.828  13.321
81491W        W45424   5.316  33.026   0.859
81492W        W45425  27.672   2.239   3.855
81493W        W45426  42.347  14.647  12.987
81494W        W45427  36.499   5.846  11.402
81495W        W45428  17.142  28.155  10.501
81496W        W45429  29.068  29.436  14.421
81497W        W45430  12.316  34.539  12.883
81498W        W45431   9.290   0.854  14.973
81499W        W45432  26.022  24.510  11.045
81500W        W45433  31.113  33.972  14.981
81501W        W45434  17.194  42.434  14.321
81502W        W45435  32.936  22.064   0.341
81503W        W45436   2.767  22.536  13.000
81504W        W45437  11.737  33.881   1.746
81505W        W45438  18.102  26.127   2.210
81506W        W45439  34.111  13.257  14.032
81507W        W45440  24.041  10.362   3.644
81508W        W45441   5.748  31.444   3.170
81509W        W45442  41.018  33.010  11.895
81510W        W45443  19.565   3.345  14.378
81511W        W45444   2.293  36.086   4.261
81512W        W45445   4.773  21.069   2.228
81513W        W45446  20.603  23.143  12.345
81514W        W45447  27.483   1.419  14.290
81515W        W45448  34.008  20.272  11.892
81516W        W45449  44.861   0.421   2.860
81517W        W45450  29.044  17.724   3.340
81518W        W45451  18.157  16.247  13.452
81519W        W45452  10.751  33.432   1.218
81520W        W45453  39.522  19.236   0.837
81521W        W45454   7.409  15.226   4.313
81522W        W45455   3.723  11.664  13.796
81523W        W45456   5.370  25.572  13.410
81524W        W45457   5.278  32.008  11.861
81525W        W45458  16.118  40.942   1.707
81526W        W45459  36.380   4.286   1.297
81527W        W45460  37.877  20.552   0.256
81528W        W45461  44.378  11.857   0.285
81529W        W45462  17.564  40.809  10.547
81530W        W45463  39.903  19.187  11.936
81531W        W45464   3.721   3.889   0.746
81532W        W45465  17.112  25.597  14.881
81533W        W45466  40.446  21.106  14.779
81534W        W45467   8.810  23.102  10.132
81535W        W45468  22.142  39.518   2.825
81536W        W45469  32.542  37.948  14.009
81537W        W45470  37.547   6.383   3.743
81538W        W45471   1.888  43.409  14.391
81539W        W45472  10.746  25.479  11.954
81540W        W45473  12.670  30.515  13.809
81541W        W45474  44.498  13.142  13.818
81542W        W45475  36.943   7.862  10.980
81543W        W45476  32.963  13.250   4.229
81544W        W45477  16.307  36.365  10.899
81545W        W45478  27.690  21.149  13.037
81546W        W45479  38.858   4.873  13.357
81547W        W45480  28.001  25.087   4.630
81548W        W45481  36.542  21.110  10.439
81549W        W45482   7.385  30.041  12.009
81550W        W45483  15.639  31.010  12.930
81551W        W45484  23.103   7.784  11.518
81552W        W45485  28.059  25.186   1.317
81553W        W45486  44.273  41.489  10.102
81554W        W45487  42.368   4.786   3.670
81555W        W45488  31.144  32.507   2.803
81556W        W45489   5.932  38.819  10.592
81557W        W45490   3.439   2.436   0.259
81558W        W45491  21.039  16.164  12.077
81559W        W45492   6.684  44.946   3.282
81560W        W45493  17.790  15.144  10.621
81561W        W45494  41.420   8.215  10.983
81562W        W45495  42.792  33.620   4.782
81563W        W45496  27.169   0.376  10.954
81564W        W45497  41.909   7.669   3.184
81565W        W45498  36.351   4.772   3.365
81566W        W45499  24.151  19.126  11.476
81567W        W45500   0.812  20.196  14.479
81568W        W45501   5.338   7.797   4.156
81569W        W45502   7.835   7.382  14.965
81570W        W45503  36.998  34.537   2.667
81571W        W45504  14.190   9.389  13.889
81572W        W45505   7.281  37.479   1.786
81573W        W45506   1.303   2.380  12.987
81574W        W45507  16.623  27.590   2.744
81575W        W45508   4.758  22.193  12.506
81576W        W45509  33.946  41.895   3.716
81577W        W45510  44.346  29.538   0.476
81578W        W45511  22.747  42.335   4.836
81579W        W45512  24.478  27.530   4.823
81580W        W45513  33.574   0.876  12.084
81581W        W45514  44.381  10.293   2.329
81582W        W45515  14.709  12.777   2.226
81583W        W45516  40.406   0.772  12.435
81584W        W45517  40.506  23.186  11.425
81585W        W45518   1.806  34.543   0.322
81586W        W45519  44.933   8.707   5.243
81587W        W45520  44.393  34.971  11.548
81588W        W45521   3.244  17.614  11.100
81589W        W45522  26.156  30.504  12.830
81590W        W45523   1.877  44.824  14.389
81591W        W45524  13.606  24.699  14.339
81592W        W45525  42.819  36.002   0.748
81593W        W45526  16.704  14.199   4.192
81594W        W45527   4.358  42.467  11.972
81595W        W45528  43.506   6.281  14.951
81596W        W45529  24.000   2.363  13.854
81597W        W45530  29.024   5.224  13.478
81598W        W45531  36.568   3.353   3.696
81599W        W45532  39.489  29.129   2.390
81600W        W45533   1.394  27.993  14.906
81601W        W45534  23.587   2.241   1.870
81602W        W45535  37.426  41.933   0.333
81603W        W45536  26.486  33.529   0.794
81604W        W45537  24.544  12.165   3.278
81605W        W45538   3.790  28.941   0.811
81606W        W45539   5.283  31.424   2.865
81607W        W45540  22.599  30.510   1.791
81608W        W45541  34.453  26.068   4.155
81609W        W45542   3.268   6.757   1.236
81610W        W45543  34.397  22.035  12.518
81611W        W45544  20.227  40.850   3.181
81612W        W45545  16.734  14.331   2.838
81613W        W45546  19.547  16.808  10.483
81614W        W45547  38.506  20.212  14.307
81615W        W45548  37.930  34.104  11.867
81616W        W45549  22.688  10.692  11.075
81617W        W45550  12.223  32.111  11.864
81618W        W45551  23.546  15.711  10.927
81619W        W45552  20.123  44.932  14.935
81620W        W45553  36.857  24.604  13.063
81621W        W45554   8.391  22.535   0.400
81622W        W45555  44.372  17.748   4.288
81623W        W45556  36.933  44.361   3.791
81624W        W45557   3.356   0.892  11.446
81625W        W45558   7.865  34.458   0.821
81626W        W45559  21.057   6.347  12.011
81627W        W45560  42.999  42.479   3.641
81628W        W45561  37.577  24.138   0.949
81629W        W45562  42.844  21.656   3.159
81630W        W45563  13.817  29.119  13.448
81631W        W45564  25.498  33.070   3.375
81632W        W45565  27.079  39.446  11.611
81633W        W45566  36.859  16.155  13.460
81634W        W45567  40.014  24.628  12.005
81635W        W45568  33.390  24.990  10.443
81636W        W45569   7.352  43.978   1.424
81637W        W45570  32.917  33.967   2.359
81638W        W45571   5.884   5.236   2.771
81639W        W45572  26.130  11.193  11.884
81640W        W45573  12.332  14.783   2.820
81641W        W45574  30.960  26.090  10.586
81642W        W45575  25.966  36.460  13.519
81643W        W45576  34.008  23.548  12.567
81644W        W45577   9.695  35.530  11.877
81645W        W45578  18.628   7.727   1.826
81646W        W45579  31.944   7.184   4.121
81647W        W45580   3.221  29.959  10.454
81648W        W45581  34.475   0.978   0.442
81649W        W45582  34.597  23.072  12.027
81650W        W45583  14.648  18.757  14.816
81651W        W45584  34.916   4.291   3.347
81652W        W45585  18.167  33.955  11.519
81653W        W45586  43.971  30.645  14.419
81654W        W45587  38.398  34.593  14.322
81655W        W45588  20.080   1.855  12.484
81656W        W45589  30.591  32.020  12.048
81657W        W45590   6.307  13.197   1.294
81658W        W45591   2.895  26.048  14.900
81659W        W45592  33.005  41.529   1.845
81660W        W45593  11.643   5.386   4.316
81661W        W45594  27.088  29.582  14.351
81662W        W45595   7.189  23.033  13.822
81663W        W45596  26.973  21.600  12.555
81664W        W45597  16.301   5.755   4.302
81665W        W45598  41.009  40.867  12.919
81666W        W45599  42.317  26.954  14.464
81667W        W45600  42.884  32.406  12.908
81668W        W45601  18.293  40.941  14.995
81669W        W45602  44.276   9.788   0.461
81670W        W45603  20.178  26.536  13.820
81671W        W45604  26.488   6.689   4.801
81672W        W45605  38.402  11.299  12.965
81673W        W45606  22.578  39.522  14.283
81674W        W45607  28.072  44.897   0.350
81675W        W45608  35.411  11.626   2.663
81676W        W45609  13.717   4.274   4.720
81677W        W45610  15.730   5.436   5.152
81678W        W45611  44.498  28.497  14.450
81679W        W45612  10.830  15.245  14.390
81680W        W45613   6.902  24.544   3.818
81681W        W45614   0.880  25.028   1.871
81682W        W45615   3.342  30.036   1.853
81683W        W45616   1.777  38.015  11.440
81684W        W45617  28.929  35.999   3.789
81685W        W45618  35.960  26.633   9.955
81686W        W45619   0.357  11.364   3.709
81687W        W45620  31.137  41.431  11.957
81688W        W45621  30.569  37.560  12.986
81689W        W45622   8.373  22.242   1.305
81690W        W45623   5.732   9.177   2.773
81691W        W45624  30.108  37.457   1.232
81692W        W45625  24.660  35.978  13.335
81693W        W45626  37.038  39.061  12.974
81694W        W45627  27.165   9.724  11.551
81695W        W45628  22.683  27.027  13.854
81696W        W45629  14.242  10.702   3.387
81697W        W45630  11.657   5.709   4.294
81698W        W45631  31.411  44.905  14.880
81699W        W45632  40.812  12.676   4.791
81700W        W45633  41.464  24.482  13.972
81701W        W45634   6.779  23.506   1.918
81702W        W45635  19.657  21.636  11.991
81703W        W45636  12.690  12.148  12.488
81704W        W45637  10.813  32.091   2.299
81705W        W45638   6.289   6.259   4.636
81706W        W45639  16.681  11.318   1.845
81707W        W45640   1.949  22.038  10.415
81708W        W45641   4.792  37.913   1.844
81709W        W45642  12.718  29.662   0.792
81710W        W45643  31.563  35.096  14.361
81711W        W45644  41.971  24.548   3.722
81712W        W45645  22.239  10.823   4.711
81713W        W45646  23.626  12.169   1.852
81714W        W45647  10.142  17.145   4.649
81715W        W45648  39.506  15.106  14.474
81716W        W45649  32.483  21.192  12.506
81717W        W45650  12.338  30.572  13.453
81718W        W45651  10.726  27.012  10.456
81719W        W45652  19.747  36.867   0.273
81720W        W45653  17.275  14.599   1.777
81721W        W45654   2.809  25.181  11.585
81722W        W45655  24.582  23.146  11.914
81723W        W45656  10.166  25.189  11.594
81724W        W45657   5.854  22.241  14.993
81725W        W45658  20.058  17.276   9.973
81726W        W45659  43.824  42.840   1.831
81727W        W45660   7.881  44.860  12.927
81728W        W45661  38.923  14.613  10.081
81729W        W45662  40.029  11.693   4.313
81730W        W45663  37.943  35.411   1.221
81731W        W45664   1.842  14.644   2.286
81732W        W45665  33.981  29.456   3.709
81733W        W45666  44.957  20.765   0.372
81734W        W45667  21.138  15.581   1.796
81735W        W45668  15.155  26.164  11.483
81736W        W45669   2.850  37.027   3.756
81737W        W45670   7.714   3.319  10.457
81738W        W45671  19.234   6.841   3.844
81739W        W45672  15.087   2.256  10.915
81740W        W45673  33.448  39.819   4.254
81741W        W45674  34.003   4.286   2.735
81742W        W45675  31.123  31.988  11.904
81743W        W45676  20.613   7.694   3.382
81744W        W45677  10.304  36.064  12.916
81745W        W45678  35.456  23.021   1.863
81746W        W45679  27.016   0.380  13.370
81747W        W45680   4.885   0.943  10.622
81748W        W45681  37.909  20.045  12.542
81749W        W45682   6.188  13.784   0.358
81750W        W45683  32.936  26.967   2.402
81751W        W45684   1.459  17.588   1.215
81752W        W45685   3.247  34.475  11.563
81753W        W45686   2.472   5.337   3.255
81754W        W45687  39.334  16.633  10.919
81755W        W45688  44.799   4.223  10.897
81756W        W45689  10.709  36.419  12.064
81757W        W45690   9.336  19.096  13.387
81758W        W45691  35.535  32.073   3.795
81759W        W45692  40.520  29.466   3.674
81760W        W45693   4.450  15.313   1.434
81761W        W45694  11.170  41.368  10.421
81762W        W45695   4.384  15.626   9.502
81763W        W45696   1.795   1.880  14.443
81764W        W45697  31.432  35.589  14.843
81765W        W45698  26.499   0.463   0.296
81766W        W45699   8.843  27.044   4.314
81767W        W45700  24.717  43.822   2.748
81768W        W45701  41.835  27.027   2.775
81769W        W45702  42.778  42.952   0.261
81770W        W45703  35.563  41.523  13.428
81771W        W45704  18.673  32.414   0.852
81772W        W45705  33.593  17.672   2.831
81773W        W45706  10.171  16.813  10.957
81774W        W45707  29.140   7.796  11.462
81775W        W45708  13.247  23.039   1.245
81776W        W45709  26.093   0.964  13.318
81777W        W45710  25.571  22.654   3.211
81778W        W45711   2.806   9.722   0.297
81779W        W45712   8.367  36.405   0.954
81780W        W45713   6.399  17.105   0.840
81781W        W45714  41.443  14.130  14.011
81782W        W45715  13.322  29.443   3.702
81783W        W45716  26.981  29.946   4.229
81784W        W45717  17.573   4.241  13.841
81785W        W45718   8.162  37.477   1.403
81786W        W45719  12.697  26.616  12.446
81787W        W45720  17.666  41.504   3.821
81788W        W45721  32.089  32.419  12.365
81789W        W45722  24.505  37.969   1.854
81790W        W45723  37.951  14.777  12.036
81791W        W45724  16.698  19.539  10.520
81792W        W45725  42.946   7.338  12.096
81793W        W45726  34.579  39.379   2.783
81794W        W45727   0.289  18.701  11.011
81795W        W45728  31.021   4.234  10.965
81796W        W45729  32.084  33.479   5.195
81797W        W45730  15.087   9.693   1.878
81798W        W45731  23.684  15.649  14.803
81799W        W45732   7.176  17.290   1.859
81800W        W45733   7.877  14.799  14.450
81801W        W45734   1.738  26.984  11.106
81802W        W45735  20.273  32.479   2.334
81803W        W45736  10.789  38.339  14.965
81804W        W45737  27.609  14.714  12.078
81805W        W45738  21.172  42.873   4.608
81806W        W45739   8.751  11.367   2.195
81807W        W45740  26.069   5.208   2.755
81808W        W45741   9.348  42.505   2.817
81809W        W45742  21.042   3.402   3.699
81810W        W45743  29.011  31.940  12.949
81811W        W45744  21.037  22.081  12.034
81812W        W45745  16.101  16.619   1.829
81813W        W45746  17.613  42.351  13.003
81814W        W45747  15.292   6.216   3.231
81815W        W45748  17.665  32.473   3.856
81816W        W45749  37.563   0.361  11.966
81817W        W45750  15.237  19.547   0.925
81818W        W45751  35.506  18.249   4.674
81819W        W45752  26.000  43.003  14.772
81820W        W45753  44.491  22.674   4.772
81821W        W45754  20.260  15.303  11.917
81822W        W45755  26.592  26.657  12.859
81823W        W45756  26.071  17.191   0.378
81824W        W45757  14.142  14.294   2.200
81825W        W45758  10.310  20.097   0.795
81826W        W45759  14.647  35.064  11.994
81827W        W45760   0.272  17.193  13.864
81828W        W45761   4.434  39.017  10.410
81829W        W45762  18.588  25.978  14.299
81830W        W45763  39.477  25.067  10.921
81831W        W45764  24.675  25.971  12.873
81832W        W45765  38.039   5.804   0.774
81833W        W45766  28.117  19.622  14.974
81834W        W45767  32.528   9.755  12.376
81835W        W45768   9.324   7.367   3.835
81836W        W45769  16.685  41.366  14.883
81837W        W45770  38.044   3.715   3.730
81838W        W45771  12.201  40.323  12.987
81839W        W45772  14.253  23.029   2.241
81840W        W45773  26.124  11.720   2.811
81841W        W45774  27.126  11.208   9.542
81842W        W45775  26.093   1.472   2.664
81843W        W45776  30.073  15.613   3.842
81844W        W45777  22.546  14.780  12.452
81845W        W45778  41.932   2.865  14.349
81846W        W45779   9.236  11.866  13.981
81847W        W45780  12.826  15.753  13.891
81848W        W45781  30.415  15.605   1.748
81849W        W45782  43.978  15.583  11.571
81850W        W45783  41.304  24.509   3.203
81851W        W45784  24.619  41.451  11.977
81852W        W45785   5.397  24.519   0.423
81853W        W45786  26.604   6.879  11.940
81854W        W45787   4.223  35.072  12.480
81855W        W45788  36.413  38.567   0.937
81856W        W45789  44.314   9.301  10.642
81857W        W45790  14.146  18.126   1.696
81858W        W45791  28.458   3.830  13.516
81859W        W45792  34.577  25.162  12.433
81860W        W45793   5.916   3.419  12.487
81861W        W45794   6.400  42.905   3.825
81862W        W45795  14.234  33.536   4.125
81863W        W45796  29.540  13.603   1.283
81864W        W45797  42.804  13.261   5.307
81865W        W45798  35.997  11.742  14.429
81866W        W45799   7.899  34.591   4.675
81867W        W45800  44.319   5.732  12.956
81868W        W45801  41.976   6.860  11.996
81869W        W45802   3.417  11.861  14.002
81870W        W45803  15.688  27.626  12.548
81871W        W45804  41.972  35.359  13.020
81872W        W45805  38.419   8.170  13.929
81873W        W45806   9.710  39.430  10.570
81874W        W45807  27.073  37.501  11.581
81875W        W45808  23.006   3.366   1.729
81876W        W45809  14.812  32.133   4.740
81877W        W45810  12.692  24.541   1.270
81878W        W45811   9.161  25.187  10.566
81879W        W45812  14.718  28.937   2.808
81880W        W45813   2.326  38.532   0.783
81881W        W45814   9.694   0.375   3.330
81882W        W45815   7.292  35.900  14.326
81883W        W45816  26.065  32.630  12.404
81884W        W45817   4.871  12.620  14.294
81885W        W45818  34.377  37.007   1.229
81886W        W45819  17.069   0.374   3.775
81887W        W45820  17.307  10.796  11.547
81888W        W45821   4.364   1.414   0.932
81889W        W45822  14.661  36.861   3.666
81890W        W45823  29.108  22.597  13.448
81891W        W45824  36.083  13.239  10.914
81892W        W45825  13.797  16.569   4.330
81893W        W45826   2.741  40.324  14.482
81894W        W45827   6.710   0.896   3.818
81895W        W45828  36.852   2.404  12.947
81896W        W45829  41.830  32.615   0.837
81897W        W45830   5.717  41.337  14.335
81898W        W45831  15.588  32.398  13.961
81899W        W45832   4.408  14.190   1.342
81900W        W45833  15.781  32.624  12.528
81901W        W45834  13.799  44.494   1.246
81902W        W45835  34.384   2.894  12.970
81903W        W45836  15.163  40.325   9.929
81904W        W45837  42.992   5.328  13.537
81905W        W45838   0.426  25.156  13.412
81906W        W45839  38.363  19.121   4.130
81907W        W45840   1.398  15.108  11.404
81908W        W45841  25.696  24.196  14.023
81909W        W45842  42.400  39.874   4.777
81910W        W45843  14.763  33.459   0.291
81911W        W45844  22.137  18.176  11.476
81912W        W45845   5.378  26.547  13.374
81913W        W45846  16.219   8.272   4.598
81914W        W45847  28.145  36.975  10.409
81915W        W45848   1.452  44.416  13.952
81916W        W45849  30.609  30.149  12.875
81917W        W45850   0.827  15.754  14.370
81918W        W45851   5.257   6.712   2.355
81919W        W45852  20.708  12.300   4.321
81920W        W45853  37.084  16.226  11.466
81921W        W45854  23.206  13.769  12.854
81922W        W45855   0.411  17.766   2.343
81923W        W45856   4.892  44.931  13.435
81924W        W45857  43.336  17.794   0.414
81925W        W45858  10.687  17.218   3.316
81926W        W45859  36.032  35.554   3.186
81927W        W45860  34.444  35.412   4.256
81928W        W45861  34.613  30.136   2.721
81929W        W45862  44.755  26.477   0.782
81930W        W45863   0.433   4.747   2.834
81931W        W45864   9.317  43.365   4.268
81932W        W45865  25.098  31.428   2.781
81933W        W45866  14.793  42.487   4.644
81934W        W45867  30.617  35.959   0.852
81935W        W45868  44.411   1.437   2.838
81936W        W45869   9.310  19.206   2.275
81937W        W45870   5.358  25.964   1.248
81938W        W45871  21.172  37.539  12.349
81939W        W45872  21.104  38.400  11.381
81940W        W45873  35.987  30.115  12.402
81941W        W45874   3.875  32.484   4.236
81942W        W45875   8.805  15.683   0.421
81943W        W45876  30.427  17.630   0.827
81944W        W45877   8.800  36.952  10.438
81945W        W45878  25.992   0.450  13.423
81946W        W45879  22.029   9.347  14.928
81947W        W45880  14.294  32.912   4.656
81948W        W45881  30.971   5.715   3.813
81949W        W45882  26.201  17.225  10.514
81950W        W45883  30.558  42.345   0.334
81951W        W45884  44.865  32.566   4.768
81952W        W45885  40.386   8.267   4.116
81953W        W45886  11.136  14.294  10.638
81954W        W45887   6.901   8.300   1.748
81955W        W45888  36.852  15.296   4.217
81956W        W45889   3.245  14.237  14.859
81957W        W45890   0.410  26.498  12.512
81958W        W45891  39.056   1.276   0.927
81959W        W45892  38.368  28.992   4.690
81960W        W45893  12.633  44.799  10.454
81961W        W45894  38.998  28.142  10.074
81962W        W45895  23.645  38.012   4.222
81963W        W45896  16.596   1.459  10.445
81964W        W45897   4.739  44.903  10.564
81965W        W45898  40.438  11.789   3.804
81966W        W45899  37.018  24.119  13.942
81967W        W45900   3.379  10.354  11.102
81968W        W45901  29.505   1.275   2.863
81969W        W45902  31.574  35.501  13.523
81970W        W45903  37.081  15.617   1.357
81971W        W45904  22.549  40.351  14.763
81972W        W45905  15.251  41.900  14.848
81973W        W45906  40.921  38.004   4.301
81974W        W45907   6.213  44.402   2.263
81975W        W45908  15.177  41.967  12.926
81976W        W45909  32.132  14.149  14.884
81977W        W45910   7.753   6.689  14.781
81978W        W45911  38.896  13.216   4.337
81979W        W45912  20.582  35.034  11.085
81980W        W45913  36.011  23.665  10.477
81981W        W45914   8.672  21.234  10.540
81982W        W45915  19.102  26.581   1.872
81983W        W45916  17.189  22.623  10.010
81984W        W45917  17.260   7.830  12.032
81985W        W45918  23.224  14.653  12.078
81986W        W45919  42.822  23.187   0.909
81987W        W45920  22.026  39.542  14.810
81988W        W45921  44.920  33.568   3.867
81989W        W45922  21.192   3.936  11.920
81990W        W45923  24.666  21.263   1.338
81991W        W45924  18.785  13.285   0.443
81992W        W45925  26.650  19.203  11.030
81993W        W45926   1.869  39.465  10.612
81994W        W45927  23.599  35.037   3.868
81995W        W45928  25.611  16.601   4.255
81996W        W45929  29.950  13.125  12.060
81997W        W45930  34.044  16.283   0.853
81998W        W45931  26.122  37.860   4.262
81999W        W45932  41.335  36.052   1.880
82000W        W45933  13.782  35.503   2.323
82001W        W45934   4.220  39.494  10.589
82002W        W45935  15.654  11.167   2.854
82003W        W45936  26.087  21.140  13.518
82004W        W45937  31.635   6.914   1.245
82005W        W45938  30.519  39.384   1.774
82006W        W45939  19.656  37.552  14.920
82007W        W45940  21.077   8.862  11.434
82008W        W45941   5.366  22.673  13.896
82009W        W45942  10.228  23.139  10.916
82010W        W45943  13.229  13.735   4.340
82011W        W45944  25.031  25.129  14.505
82012W        W45945   0.280  17.107   0.783
82013W        W45946  21.642  12.274  14.300
82014W        W45947  17.112  44.292   1.715
82015W        W45948  30.447   4.372  13.995
82016W        W45949  36.880   2.795   0.741
82017W        W45950  29.139  22.557   0.432
82018W        W45951  27.113  28.656   1.328
82019W        W45952  34.468  31.051   4.336
82020W        W45953  32.098   6.738  13.328
82021W        W45954  39.851  35.459   3.641
82022W        W45955  13.601  38.467  10.472
82023W        W45956  16.608  27.033  14.982
82024W        W45957  30.153  25.022  11.509
82025W        W45958   8.720  30.016   4.265
82026W        W45959  33.005   9.883  13.488
82027W        W45960  20.596  11.773  13.373
82028W        W45961  19.099  30.931   1.254
82029W        W45962  27.587  40.931  12.373
82030W        W45963  16.190  13.696  12.555
82031W        W45964  30.591   0.814   4.780
82032W        W45965   6.849   9.378  14.322
82033W        W45966  24.036  33.923   4.615
82034W        W45967  17.784   3.863   4.280
82035W        W45968  14.209  12.339   1.357
82036W        W45969   8.867   6.262   3.767
82037W        W45970  26.156  41.938  14.481
82038W        W45971   5.791  16.187  12.374
82039W        W45972  31.591  27.076   1.770
82040W        W45973  26.580  39.993  13.003
82041W        W45974  30.434  30.113  11.429
82042W        W45975  37.939  15.785  12.897
82043W        W45976   6.386  20.530   1.447
82044W        W45977  19.135  10.363   3.772
82045W        W45978  35.485  17.652  12.365
82046W        W45979  23.697  17.256  12.519
82047W        W45980  25.979  38.397   0.306
82048W        W45981  16.677  20.056   0.324
82049W        W45982  24.635  23.498   4.790
82050W        W45983   6.901   4.756  13.994
82051W        W45984  41.987  35.035   4.785
82052W        W45985  25.149  19.207  10.633
82053W        W45986  26.540  37.431  10.525
82054W        W45987   0.442  18.170  11.501
82055W        W45988  44.299  15.227   1.720
82056W        W45989  19.669  14.323  11.002
82057W        W45990  26.133  32.614   4.236
82058W        W45991  19.080  10.874   0.934
82059W        W45992  40.444  44.284   3.209
82060W        W45993  25.993  17.122   1.362
82061W        W45994  43.951  38.504   2.844
82062W        W45995   6.423  33.090  12.460
82063W        W45996  22.226   2.851   4.645
82064W        W45997  20.203  21.609  11.527
82065W        W45998  20.579  25.597  10.523
82066W        W45999  33.603  24.073  14.425
82067W        W46000  21.259  43.296   3.712
82068W        W46001   1.473  22.618   0.936
82069W        W46002  37.063  15.112   2.412
82070W        W46003  43.316  36.561  14.863
82071W        W46004  12.704   7.354   5.285
82072W        W46005  43.934  11.655   1.391
82073W        W46006  20.149  23.704  12.065
82074W        W46007  24.215  29.670   1.770
82075W        W46008  17.681   2.796   0.287
82076W        W46009  21.043   5.248   0.856
82077W        W46010  10.176  30.595   2.729
82078W        W46011  41.294   0.931   4.837
82079W        W46012  40.875   6.780  13.007
82080W        W46013  13.797  20.689  12.010
82081W        W46014  39.452  38.837   3.276
82082W        W46015  20.234  17.292  14.016
82083W        W46016  15.692  10.747   1.728
82084W        W46017   7.366  11.131  13.501
82085W        W46018  32.552  20.177  10.984
82086W        W46019  31.049  42.391   4.113
82087W        W46020  25.208   3.721   2.800
82088W        W46021  43.997  29.035   3.779
82089W        W46022   2.285  33.498   0.923
82090W        W46023  16.689   5.716  13.436
82091W        W46024   7.258  14.229  14.315
82092W        W46025  43.960  10.217   2.783
82093W        W46026  34.440  29.081   3.300
82094W        W46027  20.574  18.673  15.000
82095W        W46028  19.699  28.608  12.847
82096W        W46029  27.451   6.813  12.873
82097W        W46030  31.530   8.885  12.078
82098W        W46031  36.098  24.065   2.835
82099W        W46032  17.590  12.617   1.892
82100W        W46033  37.985  28.579   3.299
82101W        W46034  18.747   9.680  12.444
82102W        W46035  18.710  23.122  12.403
82103W        W46036  43.843  44.340   2.882
82104W        W46037  39.049  22.684   2.824
82105W        W46038  25.494  44.316  12.842
82106W        W46039  11.775  38.060   2.752
82107W        W46040  20.231   4.747   0.438
82108W        W46041   7.407  13.152  13.509
82109W        W46042  10.712   0.748   2.834
82110W        W46043  34.379   6.412  10.421
82111W        W46044  22.588  30.997   4.210
82112W        W46045  28.459   1.370  12.851
82113W        W46046  15.183  24.060   2.222
82114W        W46047  42.806   5.811   1.258
82115W        W46048  35.568   7.238  11.877
82116W        W46049  41.014  13.125  11.868
82117W        W46050  10.191  20.128  11.022
82118W        W46051  41.483  22.557   4.284
82119W        W46052  37.453  26.015  11.108
82120W        W46053   5.318   8.225   2.237
82121W        W46054  32.118  19.202  14.380
82122W        W46055  10.153   2.339   4.606
82123W        W46056  38.374  27.511   1.893
82124W        W46057  21.574   2.844   4.787
82125W        W46058   0.249  16.160   1.295
82126W        W46059  25.585  37.446   0.964
82127W        W46060   8.373   0.868  13.457
82128W        W46061  21.244  31.467   0.403
82129W        W46062  25.020  32.010   2.405
82130W        W46063  44.852  34.968  13.983
82131W        W46064  31.147  34.547   1.337
82132W        W46065  35.529  18.545  14.958
82133W        W46066  25.187  40.877   3.219
82134W        W46067  19.267   9.326  13.350
82135W        W46068  42.431   5.270   2.812
82136W        W46069  31.934  31.595   3.680
82137W        W46070  41.913  16.220   3.205
82138W        W46071  29.933  35.007  13.910
82139W        W46072  43.876  36.436   1.786
82140W        W46073  19.637  41.337   1.362
82141W        W46074  20.123  30.491  10.434
82142W        W46075   5.316  43.790  13.950
82143W        W46076  41.473   0.942   2.324
82144W        W46077   0.424  44.389  13.973
82145W        W46078  38.363  23.621  10.427
82146W        W46079  42.352  39.809  11.960
82147W        W46080  25.682  24.688  13.031
82148W        W46081  42.023  44.314   4.284
82149W        W46082  28.975  10.692   4.115
82150W        W46083  19.674  17.236   2.260
82151W        W46084   2.390  38.524  11.063
82152W        W46085  29.438  15.782   3.366
82153W        W46086   5.863  38.987  13.442
82154W        W46087  31.907  39.393   2.220
82155W        W46088  20.177  19.549  10.055
82156W        W46089  12.325  13.252  12.419
82157W        W46090  36.056  22.739   4.334
82158W        W46091  41.019  12.742   0.799
82159W        W46092  25.971  28.062   1.739
82160W        W46093  11.267   4.850   4.329
82161W        W46094   9.685   0.386  12.998
82162W        W46095  42.511  41.396   0.285
82163W        W46096  13.651  16.753  13.809
82164W        W46097  29.023  20.214  13.439
82165W        W46098  12.181  26.134   2.804
82166W        W46099  40.508  33.997   0.287
82167W        W46100   4.909   1.764  13.815
82168W        W46101   8.785   9.231  14.465
82169W        W46102   8.219   3.232  14.496
82170W        W46103  14.201  19.150  13.857
82171W        W46104  25.490  16.178  10.556
82172W        W46105  26.201   6.295   2.262
82173W        W46106  13.332  18.193  11.515
82174W        W46107   8.655  18.145  11.090
82175W        W46108   3.773  42.933  14.866
82176W        W46109  30.920  31.937   5.089
82177W        W46110  22.702  26.152   0.354
82178W        W46111  37.461   1.384  10.642
82179W        W46112   9.188   1.962  12.938
82180W        W46113  10.747  13.211   1.847
82181W        W46114   1.812  38.829  13.808
82182W        W46115  38.049  38.950   0.404
82183W        W46116  12.796  24.657   2.670
82184W        W46117  39.894  41.390   1.866
82185W        W46118  25.150  42.353  10.494
82186W        W46119  21.748   6.791   1.325
82187W        W46120  26.684  23.189  11.965
82188W        W46121  29.606   8.357  14.975
82189W        W46122  10.295   0.318  10.892
82190W        W46123   5.393  16.111  14.780
82191W        W46124  19.614  19.645   0.828
82192W        W46125  16.770  32.410  13.854
82193W        W46126  25.053  38.420  12.348
82194W        W46127  21.681  22.127  13.332
82195W        W46128   7.761  25.139  14.803
82196W        W46129  20.254   3.371   1.906
82197W        W46130  15.260  42.870  12.871
82198W        W46131  16.115   2.291  11.504
82199W        W46132   5.259  15.278  13.374
82200W        W46133   9.687  14.589   0.282
82201W        W46134  19.212   1.483  14.825
82202W        W46135   3.840  44.884   2.317
82203W        W46136   0.959  13.127  13.517
82204W        W46137  40.850  15.728   0.741
82205W        W46138  25.210  16.229   3.692
82206W        W46139  14.173  40.850  13.392
82207W        W46140  25.217   8.194  13.037
82208W        W46141  23.687  24.718  14.942
82209W        W46142   2.785  18.234  12.425
82210W        W46143  27.985  11.678   1.861
82211W        W46144  34.013  40.970  10.444
82212W        W46145  27.975  31.958  13.844
82213W        W46146  39.007   8.183   1.358
82214W        W46147   9.686  26.558  13.064
82215W        W46148   5.233  43.968   4.325
82216W        W46149   9.207   3.742  13.060
82217W        W46150  16.117  44.889  12.022
82218W        W46151  11.315  14.794  14.487
82219W        W46152  15.807   8.871  14.338
82220W        W46153   8.789  23.057  11.018
82221W        W46154  18.626  21.038  10.054
82222W        W46155  17.161   4.333  10.468
82223W        W46156  19.570  22.535  11.918
82224W        W46157  26.484  26.655  13.419
82225W        W46158   7.690  13.219  14.448
82226W        W46159  41.485  33.016   1.320
82227W        W46160  28.044  33.986  11.122
82228W        W46161  36.510  30.526  11.058
82229W        W46162  12.782  22.247  11.427
82230W        W46163  36.020   8.738  11.445
82231W        W46164  32.510  17.602   2.305
82232W        W46165  14.216  34.426   4.838
82233W        W46166  21.202  39.856   0.840
82234W        W46167  26.049  13.310  12.903
82235W        W46168  23.701  11.751   2.226
82236W        W46169  39.954   4.710  13.434
82237W        W46170  10.148  12.708  12.561
82238W        W46171  30.165  30.144   1.919
82239W        W46172  27.969  10.259  11.561
82240W        W46173  25.695  33.556  10.554
82241W        W46174  30.939  24.187  13.424
82242W        W46175  39.872  10.841  13.502
82243W        W46176  44.864  41.377  11.584
82244W        W46177  29.479   4.941   2.832
82245W        W46178  41.841  30.113   4.612
82246W        W46179   2.911  39.847   1.283
82247W        W46180   7.198  16.665   2.779
82248W        W46181  31.629  32.061   4.324
82249W        W46182  43.454  43.379   0.755
82250W        W46183  35.101  37.040   3.776
82251W        W46184  10.340   3.246   0.328
82252W        W46185   0.407  21.090   2.366
82253W        W46186  33.033  24.579  12.831
82254W        W46187  11.722  23.083   4.705
82255W        W46188   1.747  30.102  14.021
82256W        W46189  33.487  23.618  14.866
82257W        W46190  29.118  36.573  13.407
82258W        W46191   9.680  31.536  14.029
82259W        W46192  17.701  11.774  14.512
82260W        W46193   3.228  26.604   4.132
82261W        W46194   9.345  12.695  10.900
82262W        W46195  26.140  30.429  11.859
82263W        W46196  28.001   0.875   1.902
82264W        W46197   8.378  30.573  12.061
82265W        W46198  43.910   9.184  12.000
82266W        W46199  39.479  38.023   0.892
82267W        W46200  28.491  41.449   2.779
82268W        W46201  10.797  10.765  13.990
82269W        W46202   8.254   5.401   4.185
82270W        W46203  29.943   2.456   0.896
82271W        W46204  30.520  37.022   0.793
82272W        W46205  30.017  25.084  13.959
82273W        W46206   8.250  10.174   1.234
82274W        W46207  12.327  23.557  12.472
82275W        W46208  24.612   8.851  14.999
82276W        W46209  43.878  15.821   1.318
82277W        W46210  38.892   2.852  12.564
82278W        W46211  16.201  32.392  10.903
82279W        W46212  29.141  32.518   3.345
82280W        W46213  35.995  28.555   3.723
82281W        W46214  17.570  42.983  13.914
82282W        W46215   3.371  36.565  10.414
82283W        W46216  23.536  32.084  11.027
82284W        W46217  30.157  44.875  13.839
82285W        W46218  32.579  11.146  11.121
82286W        W46219  37.394   1.969   0.767
82287W        W46220  37.031   2.274  14.372
82288W        W46221  20.762  20.584   3.384
82289W        W46222  17.605  27.024  14.510
82290W        W46223  13.210  36.935   2.354
82291W        W46224  23.724  26.522   4.169
82292W        W46225  19.741  19.566   4.252
82293W        W46226   0.780  31.478  10.448
82294W        W46227   3.400   9.259  14.951
82295W        W46228  12.146  40.024   0.834
82296W        W46229  27.480  36.504  11.916
82297W        W46230  38.879  33.555   2.400
82298W        W46231  16.273  24.201  14.948
82299W        W46232   5.701  26.504   1.890
82300W        W46233  20.742  40.942   4.681
82301W        W46234  16.689   1.769  13.835
82302W        W46235   8.742  30.571   1.817
82303W        W46236  27.634   2.931  11.511
82304W        W46237  20.639   0.976  13.507
82305W        W46238  40.522  23.612   4.329
82306W        W46239   6.786  33.582  11.868
82307W        W46240  13.746  38.023   2.294
82308W        W46241  17.692  38.528   4.298
82309W        W46242  44.813  32.454   2.345
82310W        W46243  33.572   0.884  12.548
82311W        W46244   1.877  40.811  11.444
82312W        W46245  40.531  18.694   4.184
82313W        W46246  26.672   6.875  11.410
82314W        W46247   9.363   0.447   2.670
82315W        W46248  32.015  18.180  14.445
82316W        W46249  14.255  18.719   0.867
82317W        W46250   6.863  38.562  12.024
82318W        W46251  14.153  28.596  12.521
82319W        W46252  21.675  12.657  11.405
82320W        W46253  34.994  12.191   1.443
82321W        W46254  29.576   3.400  13.791
82322W        W46255  17.295  35.965  12.049
82323W        W46256  21.152  16.228  14.908
82324W        W46257  24.691   1.865  12.935
82325W        W46258  34.976  12.202  10.527
82326W        W46259  26.586  27.965  14.827
82327W        W46260  12.227  42.500   2.345
82328W        W46261   1.309   8.182   0.848
82329W        W46262  10.384  28.957   3.691
82330W        W46263   6.782  21.232   3.355
82331W        W46264  15.125  11.712   4.770
82332W        W46265  29.614  13.767   2.305
82333W        W46266  27.149  40.410   0.908
82334W        W46267   0.826  29.648  12.926
82335W        W46268   6.878  38.424   3.200
82336W        W46269  10.710   6.423   3.688
82337W        W46270  25.677  22.602  11.453
82338W        W46271  43.510  33.018  12.538
82339W        W46272   5.375  23.689   3.673
82340W        W46273  36.014  28.551  13.024
82341W        W46274  39.044   0.323  13.546
82342W        W46275  37.018  10.784   4.630
82343W        W46276  28.630  28.177   2.751
82344W        W46277  41.001  26.531  13.030
82345W        W46278  37.966  32.530   3.867
82346W        W46279  36.879  31.016   1.799
82347W        W46280  41.322  22.168  12.995
82348W        W46281  19.718   5.907   4.691
82349W        W46282  22.008  32.588  11.951
82350W        W46283  12.755  18.219   4.731
82351W        W46284  29.116  14.313  12.521
82352W        W46285  10.348  20.123   2.673
82353W        W46286  33.017  20.245  10.444
82354W        W46287  17.572   3.350   2.748
82355W        W46288  33.604  19.262   0.806
82356W        W46289   1.823  34.866  14.291
82357W        W46290  20.171  19.758  11.108
82358W        W46291  29.949  35.994   3.750
82359W        W46292  28.465  28.581   1.343
82360W        W46293  25.048  42.386  14.281
82361W        W46294  11.792  16.609   3.747
82362W        W46295  20.072  28.468   4.328
82363W        W46296  14.281  14.710  12.968
82364W        W46297   2.360  44.869  11.434
82365W        W46298   5.864  29.926  13.064
82366W        W46299  35.933  18.751   2.404
82367W        W46300  32.920  34.445  14.399
82368W        W46301   9.276  33.475  13.881
82369W        W46302  14.601  30.413   3.750
82370W        W46303   1.735  38.873  10.893
82371W        W46304  44.903  12.614  11.558
82372W        W46305  11.363  27.175   1.728
82373W        W46306  19.731  17.690  13.362
82374W        W46307  37.405  44.996   0.322
82375W        W46308  22.601  24.049   0.387
82376W        W46309  15.627  20.221   1.800
82377W        W46310   1.331   6.812   4.697
82378W        W46311  10.141   7.749   5.282
82379W        W46312  20.763  13.273  13.024
82380W        W46313   8.839  28.088  14.313
82381W        W46314  16.785  25.543  11.476
82382W        W46315  26.014  27.156   1.751
82383W        W46316  33.945  36.400  10.473
82384W        W46317  24.105  14.784  14.945
82385W        W46318  15.245  29.074  10.518
82386W        W46319  23.723  36.867   3.200
82387W        W46320  12.727   8.783   0.288
82388W        W46321  41.014   3.270   0.478
82389W        W46322  27.150   2.869   4.811
82390W        W46323   3.345  24.585  10.441
82391W        W46324  44.924  44.488  11.522
82392W        W46325   0.254  12.189   1.710
82393W        W46326  34.956   7.171   9.950
82394W        W46327   2.429  42.844   4.219
82395W        W46328  36.421  25.611   4.230
82396W        W46329   7.857  28.154   3.341
82397W        W46330  12.347  15.791  13.461
82398W        W46331  40.912  23.735   0.742
82399W        W46332  26.676   1.417   1.445
82400W        W46333  33.890  40.904   1.743
82401W        W46334  13.811   5.777   3.237
82402W        W46335  31.539  44.997  14.412
82403W        W46336  27.086  43.792   2.267
82404W        W46337  26.048   8.204  10.632
82405W        W46338  19.118   9.844  12.027
82406W        W46339  38.877  37.516  10.068
82407W        W46340  17.160  10.213  12.369
82408W        W46341  27.554  43.425   4.274
82409W        W46342  29.441  10.243   5.305
82410W        W46343   3.795  22.505  14.979
82411W        W46344  26.019   0.442   0.253
82412W        W46345   9.753  40.007   2.345
82413W        W46346  38.352  36.991  14.378
82414W        W46347  31.428   4.744  12.367
82415W        W46348  13.191  22.252  12.502
82416W        W46349   9.200   2.355   3.717
82417W        W46350   8.825  35.576   3.802
82418W        W46351   4.762  36.393  10.465
82419W        W46352  26.552  13.703   0.438
82420W        W46353  28.583   7.846   3.291
82421W        W46354  35.048  16.175   4.223
82422W        W46355  40.804  41.481  11.864
82423W        W46356   2.749   8.243   3.743
82424W        W46357  44.421  29.585  10.482
82425W        W46358  38.466  27.084   0.923
82426W        W46359  33.077  14.143  10.590
82427W        W46360  34.939   4.892   3.827
82428W        W46361  23.987  35.886  11.485
82429W        W46362  20.533  31.621   1.316
82430W        W46363   3.338  11.753   2.390
82431W        W46364  34.009   5.742  10.504
82432W        W46365  27.125  42.424   0.283
82433W        W46366   2.845  29.122  11.006
82434W        W46367  42.002  12.127   2.794
82435W        W46368   3.347   1.331  12.403
82436W        W46369   3.455  40.839  11.546
82437W        W46370  29.591  40.956   2.789
82438W        W46371  26.133  11.147   1.212
82439W        W46372  40.414  28.555   2.787
82440W        W46373  27.960  38.880   3.370
82441W        W46374  21.209  12.338  10.455
82442W        W46375  13.685  29.027  10.449
82443W        W46376  21.170   3.832  10.969
82444W        W46377   0.788   1.272   0.814
82445W        W46378   9.771  23.149   1.929
82446W        W46379  40.427   4.714  12.939
82447W        W46380  27.686   4.305  13.057
82448W        W46381  27.584   0.451   2.396
82449W        W46382  38.876   2.448   1.357
82450W        W46383  39.536  17.132   1.858
82451W        W46384  27.521   1.321   2.388
82452W        W46385  43.462  21.163   1.348
82453W        W46386   4.780  23.572  12.863
82454W        W46387   1.424  34.921  10.523
82455W        W46388  29.534   4.747   1.377
82456W        W46389  18.098  40.548   2.278
82457W        W46390  44.431  33.465  11.895
82458W        W46391  16.231  20.140  13.869
82459W        W46392  19.678   0.315  12.847
82460W        W46393   8.194  40.428  11.996
82461W        W46394  15.244   5.897  11.049
82462W        W46395  35.581  14.180   3.147
82463W        W46396   8.845  31.049   3.650
82464W        W46397   6.360  24.983   2.389
82465W        W46398  15.665  41.905  14.860
82466W        W46399  30.648  41.876   0.368
82467W        W46400  13.273  11.210   3.339
82468W        W46401  23.062   9.773  11.045
82469W        W46402  12.302  21.750  14.292
82470W        W46403  37.396  17.200   1.859
82471W        W46404  42.470  22.237  10.999
82472W        W46405  24.677  37.063   0.270
82473W        W46406  23.219  34.110  14.326
82474W        W46407  43.908  34.563  10.572
82475W        W46408   8.895  42.884  14.361
82476W        W46409  16.605   0.852   1.257
82477W        W46410  38.824  17.128  10.932
82478W        W46411   8.364  38.990   3.670
82479W        W46412  16.811   4.358   2.334
82480W        W46413  43.332   5.297  12.382
82481W        W46414  20.703   7.670  14.433
82482W        W46415  35.435   3.404   1.852
82483W        W46416  42.925  35.434   4.684
82484W        W46417  33.511   0.861   0.732
82485W        W46418  41.923  16.248  13.996
82486W        W46419  31.035  22.149   2.760
82487W        W46420  29.504  26.984   0.365
82488W        W46421  18.657  40.339  11.420
82489W        W46422  24.153   1.387   4.336
82490W        W46423   2.911  13.348   1.357
82491W        W46424  10.199  19.717  14.463
82492W        W46425  23.047  10.345   3.857
82493W        W46426  11.675  37.879   4.656
82494W        W46427  17.653  43.856   2.258
82495W        W46428   7.201  21.062  13.318
82496W        W46429  15.720   1.327   2.735
82497W        W46430   9.722  37.569   0.893
82498W        W46431   3.284   8.402  13.019
82499W        W46432  41.481  29.940   0.760
82500W        W46433  25.673   5.296   2.748
82501W        W46434  24.978   0.386   4.281
82502W        W46435  19.658  16.158  10.480
82503W        W46436  26.157  39.887  10.935
82504W        W46437  14.161  34.947   4.830
82505W        W46438   8.215  13.329   4.338
82506W        W46439  25.591  15.099   4.303
82507W        W46440   8.401  18.236   0.273
82508W        W46441  32.888  19.575   3.857
82509W        W46442  37.966  32.429  11.985
82510W        W46443  23.570  42.406  10.548
82511W        W46444   6.236  44.775   0.851
82512W        W46445  41.516   4.714   2.192
82513W        W46446   9.832  20.601   4.327
82514W        W46447  34.078   8.243  10.420
82515W        W46448   2.305  16.750   2.784
82516W        W46449  40.380   0.815   4.345
82517W        W46450  15.815   4.354   4.694
82518W        W46451  23.089  35.043   4.676
82519W        W46452  21.606  16.767  11.118
82520W        W46453  27.992  20.585  13.859
82521W        W46454   4.279  43.844   3.309
82522W        W46455  24.163  34.084   1.399
82523W        W46456  17.621  25.626   2.844
82524W        W46457  31.963  40.319   4.332
82525W        W46458  13.715   4.211  13.358
82526W        W46459  15.794  32.409  12.074
82527W        W46460  41.942  29.927   2.204
82528W        W46461   8.832  12.800  10.029
82529W        W46462   9.185  24.114   2.800
82530W        W46463  13.304   1.807   0.428
82531W        W46464   9.233  18.180   0.769
82532W        W46465  14.320  41.377   1.776
82533W        W46466  24.153  32.924   2.877
82534W        W46467  33.050  15.276  14.797
82535W        W46468  33.911   5.260   1.298
82536W        W46469   2.253  44.398   2.853
82537W        W46470  22.615  22.538   1.271
82538W        W46471  26.176  19.666   1.246
82539W        W46472   5.831  34.042  12.994
82540W        W46473  22.105  38.973  12.895
82541W        W46474  12.669   4.418   2.817
82542W        W46475  19.726  22.542  12.571
82543W        W46476  40.526  11.729  14.876
82544W        W46477  30.911   5.794  11.937
82545W        W46478  35.912  23.039   1.840
82546W        W46479  44.470  32.105   0.369
82547W        W46480  28.107  31.563  11.545
82548W        W46481   2.370  33.957   2.419
82549W        W46482  33.077  19.648   1.842
82550W        W46483  11.848   0.786   3.699
82551W        W46484   2.352  14.257  13.848
82552W        W46485  10.743  29.598  12.440
82553W        W46486  11.743  17.668  11.536
82554W        W46487  39.939   5.891   0.361
82555W        W46488  39.909  12.293   2.199
82556W        W46489   8.683   8.720   1.917
82557W        W46490  36.989  28.132  13.315
82558W        W46491  17.221  43.388  13.852
82559W        W46492   5.316  18.675  10.947
82560W        W46493  15.637  38.424  13.319
82561W        W46494  37.516  22.702   3.358
82562W        W46495   3.918   1.412   2.860
82563W        W46496  11.756  20.535   4.296
82564W        W46497  11.711  34.054  12.367
82565W        W46498   4.796  11.652  11.942
82566W        W46499  28.931  11.644   3.167
82567W        W46500  37.376  18.631  11.880
82568W        W46501   0.893  26.201   1.251
82569W        W46502   8.656   8.698  13.409
82570W        W46503   7.191   9.182   2.310
82571W        W46504   4.926  38.332  13.365
82572W        W46505  18.202  17.237  14.776
82573W        W46506  35.006  22.588   0.840
82574W        W46507  37.544  36.946   2.739
82575W        W46508  17.774  44.981  12.019
82576W        W46509  16.191  14.225   1.847
82577W        W46510  12.709   6.875   3.870
82578W        W46511  13.800  12.146   3.191
82579W        W46512  27.597  39.034   4.723
82580W        W46513  13.618  27.580   3.341
82581W        W46514   3.940   7.794   4.744
82582W        W46515  42.354  44.953   1.890
82583W        W46516   0.855  33.065  10.445
82584W        W46517  29.489  16.663  12.088
82585W        W46518  17.152  32.022   1.793
82586W        W46519   3.360  42.527   0.419
82587W        W46520  11.280  17.775   2.231
82588W        W46521   0.401  42.892   1.296
82589W        W46522  18.572  30.524   4.726
82590W        W46523  25.689   0.322  11.964
82591W        W46524  10.773  39.899  10.625
82592W        W46525  42.801  19.072   1.796
82593W        W46526   9.646  44.289  11.600
82594W        W46527  20.740   5.377  11.071
82595W        W46528   2.872  28.137  10.480
82596W        W46529   3.840  22.069  13.406
82597W        W46530   9.193  37.887   0.923
82598W        W46531  29.126  27.128   2.803
82599W        W46532  12.198   5.264   3.764
82600W        W46533  31.011  35.380   3.173
82601W        W46534   7.208   6.401  12.835
82602W        W46535  11.180  36.862  11.017
82603W        W46536  13.748  18.220  13.322
82604W        W46537   0.853  39.400  10.134
82605W        W46538  27.682  43.365   2.418
82606W        W46539  15.084  21.657   1.797
82607W        W46540  40.325   7.368  10.552
82608W        W46541  24.498  30.605  14.288
82609W        W46542   5.924   2.253  13.530
82610W        W46543  26.489  29.445   1.246
82611W        W46544  33.971   8.800  10.896
82612W        W46545   2.386  38.901   4.800
82613W        W46546   1.846  12.692   0.965
82614W        W46547   0.918  34.883   2.318
82615W        W46548  28.567  14.748   0.848
82616W        W46549  35.038  22.642   3.631
82617W        W46550  15.184  38.374  14.851
82618W        W46551  38.561  29.670   0.826
82619W        W46552  11.708  40.949   3.849
82620W        W46553  40.508  35.871   3.195
82621W        W46554  16.145  24.985   0.743
82622W        W46555  21.582  11.216   0.896
82623W        W46556  16.734  15.768  11.879
82624W        W46557  16.614  13.298   4.327
82625W        W46558  43.793   8.226   4.608
82626W        W46559  35.915   9.267  12.465
82627W        W46560  22.240  41.311  10.939
82628W        W46561  35.595   7.745  10.966
82629W        W46562  40.401  37.036  12.483
82630W        W46563  39.461  21.574  12.902
82631W        W46564   0.279  11.311  12.404
82632W        W46565  32.488  36.446  13.434
82633W        W46566   7.867  19.562   0.247
82634W        W46567   5.909  19.605  11.077
82635W        W46568  13.609  33.977  11.546
82636W        W46569  41.479  14.325   1.394
82637W        W46570  15.309  29.174  10.981
82638W        W46571  26.996  33.423  14.277
82639W        W46572  35.059  39.064  14.770
82640W        W46573  23.541  20.747   1.852
82641W        W46574  11.801  28.106   1.239
82642W        W46575  33.546  10.301  11.074
82643W        W46576  13.829  29.441   0.893
82644W        W46577  10.656  39.045  12.531
82645W        W46578  24.226  27.649   3.737
82646W        W46579   9.357   7.809   2.790
82647W        W46580  41.377  11.706  11.513
82648W        W46581  44.930   8.660  12.537
82649W        W46582   6.862  16.160  11.024
82650W        W46583   1.457  44.278   0.343
82651W        W46584   9.753  18.620   2.669
82652W        W46585   5.931  42.869   3.215
82653W        W46586   7.729  14.315  12.340
82654W        W46587  25.070  19.060  12.863
82655W        W46588  26.459   1.857  11.048
82656W        W46589  10.805  30.914  11.971
82657W        W46590  22.505  31.921  14.327
82658W        W46591  42.818  13.236   3.169
82659W        W46592  10.190  32.590  11.553
82660W        W46593  10.828  13.726  10.978
82661W        W46594  40.801  32.935   1.781
82662W        W46595  13.734  40.803  14.318
82663W        W46596   2.235  16.102   1.359
82664W        W46597   1.743  18.075   3.815
82665W        W46598  29.133  10.223  14.286
82666W        W46599  25.119   4.221  11.981
82667W        W46600  34.873  37.508   3.204
82668W        W46601  35.966   6.762  12.932
82669W        W46602  44.470  16.086  10.611
82670W        W46603  10.650  27.573   4.708
82671W        W46604  41.324  41.891   4.684
82672W        W46605  38.038  39.505  13.819
82673W        W46606  21.237  29.497  11.472
82674W        W46607  32.410  31.424  14.809
82675W        W46608  40.045  12.819  10.520
82676W        W46609  10.239  14.273   1.763
82677W        W46610  38.986  15.811   1.770
82678W        W46611  24.638  34.895   2.382
82679W        W46612   1.852  19.710  14.851
82680W        W46613  26.016  25.499  13.863
82681W        W46614   2.791   6.686  14.927
82682W        W46615  35.368  28.601   4.699
82683W        W46616  19.711   1.394  12.074
82684W        W46617  41.414   2.766  14.889
82685W        W46618  21.677   4.349   4.673
82686W        W46619   2.245  23.609  11.999
82687W        W46620   2.346  26.637  10.921
82688W        W46621  12.329  43.917   1.347
82689W        W46622  12.731  16.615   1.431
82690W        W46623  26.658  13.609   1.804
82691W        W46624  29.057  38.909  14.991
82692W        W46625  11.801  30.959   0.429
82693W        W46626  10.738  29.574   2.719
82694W        W46627  15.651  12.844  12.923
82695W        W46628  11.626  36.564  10.003
82696W        W46629  44.933  42.300   1.210
82697W        W46630  16.610  16.137  14.331
82698W        W46631   8.162  41.863  11.472
82699W        W46632  41.394  26.090  13.046
82700W        W46633  21.678  16.146   3.219
82701W        W46634  35.959  27.051  12.844
82702W        W46635  19.142  13.760  11.416
82703W        W46636  29.607   7.266  11.942
82704W        W46637  27.186   9.330   2.314
82705W        W46638   2.339  32.979  12.848
82706W        W46639   2.910  34.069   1.242
82707W        W46640  16.248  16.194   9.951
82708W        W46641  21.545  13.642   1.234
82709W        W46642  13.237  12.716   3.262
82710W        W46643   1.824  21.155   1.247
82711W        W46644  42.516  18.682   0.843
82712W        W46645   1.977  37.026  10.449
82713W        W46646  18.135  18.570  14.953
82714W        W46647  16.119  11.356  11.962
82715W        W46648  13.197  17.671  10.633
82716W        W46649  39.548  16.775  14.798
82717W        W46650  38.562  19.119  14.400
82718W        W46651  16.148  25.041   1.283
82719W        W46652  38.831  41.475  12.427
82720W        W46653  32.605  27.097   2.355
82721W        W46654  34.474  43.286  10.956
82722W        W46655  42.876   8.250  11.455
82723W        W46656   5.845   9.170  10.643
82724W        W46657  34.111  24.577   3.830
82725W        W46658  15.124  25.489  13.321
82726W        W46659   7.757  20.587   3.789
82727W        W46660  14.597  21.040   2.273
82728W        W46661  10.693  10.697   4.828
82729W        W46662  33.003  19.682   0.352
82730W        W46663  35.038  13.318  13.393
82731W        W46664  27.476  38.465   3.355
82732W        W46665  42.967  32.080   3.705
82733W        W46666   2.434  18.785  11.381
82734W        W46667  30.506  32.071   2.351
82735W        W46668  11.206  38.344  12.419
82736W        W46669   0.320  43.949  12.908
82737W        W46670  24.519  34.978  11.424
82738W        W46671  10.165  33.604   2.318
82739W        W46672  37.414  37.392  14.760
82740W        W46673  23.590  44.922  12.538
82741W        W46674   5.414  29.522   1.260
82742W        W46675  34.906   0.896  11.033
82743W        W46676   8.328  11.368   4.269
82744W        W46677  14.827   0.987   2.668
82745W        W46678  27.474  16.732   3.335
82746W        W46679   0.453  42.962   2.346
82747W        W46680  30.939   9.850   4.714
82748W        W46681  33.582   3.726   3.631
82749W        W46682  14.626  21.516  12.976
82750W        W46683  24.064   3.460  11.580
82751W        W46684  37.451  25.094   3.795
82752W        W46685   5.299  40.872   1.226
82753W        W46686  21.618  17.241   3.171
82754W        W46687  40.804  37.849  12.054
82755W        W46688  15.817  17.653   1.301
82756W        W46689  15.768  41.384  13.548
82757W        W46690  21.561   3.882  10.545
82758W        W46691  35.527  25.155   2.371
82759W        W46692  33.536   0.334  11.873
82760W        W46693  16.181  29.441   0.754
82761W        W46694  30.160   4.315   1.402
82762W        W46695  34.893   6.700  12.978
82763W        W46696   3.344   4.928  12.490
82764W        W46697   0.414  41.404  10.923
82765W        W46698   7.669  37.069  11.595
82766W        W46699  37.352  42.469  12.075
82767W        W46700  34.498  37.071  10.578
82768W        W46701  30.513  37.566   3.220
82769W        W46702  13.232  42.964  12.079
82770W        W46703   1.828  33.013  14.464
82771W        W46704  38.932  36.584  10.429
82772W        W46705  12.704  44.386   3.295
82773W        W46706  41.894  10.184  12.488
82774W        W46707   7.864   9.740   2.216
82775W        W46708  40.039  15.620   4.638
82776W        W46709  17.092  15.316   0.281
82777W        W46710  16.570  22.238   1.243
82778W        W46711  32.983   7.847  14.029
82779W        W46712   4.399  24.195  11.584
82780W        W46713  31.921  11.255   0.824
82781W        W46714  24.533  38.920   0.795
82782W        W46715  29.982  29.145   1.879
82783W        W46716  13.342   5.816   5.113
82784W        W46717  23.169  39.993   0.311
82785W        W46718  25.174   5.312  14.306
82786W        W46719  34.914  29.159  14.800
82787W        W46720   7.791  17.709   1.730
82788W        W46721  14.605  14.330   3.256
82789W        W46722  43.454  33.044  11.535
82790W        W46723  30.047  28.046  14.285
82791W        W46724  37.460   8.828   3.763
82792W        W46725  41.922  28.518   1.823
82793W        W46726  23.504   6.363  10.473
82794W        W46727  23.088  34.112   0.846
82795W        W46728  10.221  11.284  14.836
82796W        W46729  30.962  42.421   3.353
82797W        W46730  39.524  38.875  10.427
82798W        W46731  29.585  10.304  10.020
82799W        W46732  32.044   2.906  11.378
82800W        W46733  17.594  24.218   0.872
82801W        W46734   5.923  33.024  12.840
82802W        W46735  42.014  32.015   2.208
82803W        W46736  37.859   4.333  12.571
82804W        W46737  23.682  35.462   0.462
82805W        W46738  33.100  15.251   4.191
82806W        W46739  17.172  38.059  13.928
82807W        W46740  26.561  36.415  11.596
82808W        W46741  17.085  10.697  10.109
82809W        W46742  12.808  21.094  14.773
82810W        W46743  18.281  18.757  11.927
82811W        W46744   0.752  14.180  13.428
82812W        W46745  39.986  23.652   1.881
82813W        W46746   8.273   6.885   2.892
82814W        W46747   4.420  19.104   1.406
82815W        W46748  33.037  22.571  10.595
82816W        W46749  36.026  38.900   3.333
82817W        W46750  22.530  44.862   4.336
82818W        W46751  21.248  40.004  13.520
82819W        W46752  20.590  44.451   2.686
82820W        W46753  14.605  41.842  11.920
82821W        W46754   5.780  34.084   1.421
82822W        W46755   6.819  38.505  10.495
82823W        W46756  20.617  36.402   1.371
82824W        W46757  12.302  35.073   4.165
82825W        W46758  23.562  24.150  11.103
82826W        W46759  28.671  38.910   0.876
82827W        W46760  36.095  41.466   3.208
82828W        W46761  39.851  15.751   4.141
82829W        W46762  29.521   7.814   3.245
82830W        W46763  29.470   6.747  11.073
82831W        W46764   1.409   0.889   3.683
82832W        W46765   7.849  18.168   4.190
82833W        W46766  26.968  36.347  11.039
82834W        W46767  35.939  38.881  13.957
82835W        W46768  33.462   0.285  14.356
82836W        W46769  18.723  43.474   1.867
82837W        W46770  35.436  27.513   4.786
82838W        W46771   2.893  43.401   1.697
82839W        W46772  29.596  43.928  14.336
82840W        W46773  42.919   0.298   3.161
82841W        W46774  14.274  32.962  11.445
82842W        W46775  15.656  42.294  14.786
82843W        W46776  26.677  44.321  14.858
82844W        W46777  43.001  15.712   4.796
82845W        W46778  37.878  20.549   1.921
82846W        W46779   6.343   3.751  10.997
82847W        W46780  16.182   5.250   1.250
82848W        W46781  37.409  29.143   1.900
82849W        W46782  27.019  43.955  14.775
82850W        W46783  28.541  28.102  11.546
82851W        W46784   9.766  15.775  13.817
82852W        W46785   2.250   7.319  14.005
82853W        W46786  37.459  41.795  11.601
82854W        W46787   3.804   4.245   1.914
82855W        W46788  14.678  10.256   0.400
82856W        W46789  35.596  29.548  13.805
82857W        W46790  26.644  40.834   1.731
82858W        W46791  30.455  19.069  14.334
82859W        W46792  25.141  30.613  11.872
82860W        W46793   3.417  44.319   0.466
82861W        W46794  27.487  17.743   0.819
82862W        W46795  37.460  30.610   2.180
82863W        W46796  40.050  19.084   1.328
82864W        W46797  20.559  41.501  11.465
82865W        W46798  12.251   3.394  13.986
82866W        W46799  26.617  11.711  13.033
82867W        W46800  40.334  41.383   1.731
82868W        W46801  12.345   6.212   4.226
82869W        W46802   7.751   0.289  11.054
82870W        W46803   3.230  41.828  14.486
82871W        W46804  32.411   7.402   0.965
82872W        W46805  25.554  30.490  14.027
82873W        W46806  15.109  41.939  13.799
82874W        W46807  38.860   1.332   1.327
82875W        W46808  16.128  18.735  11.967
82876W        W46809  17.259  29.073  11.509
82877W        W46810  18.124   7.355  12.457
82878W        W46811  17.212   6.702  10.513
82879W        W46812  16.268  32.584  13.915
82880W        W46813  37.516  25.060  14.397
82881W        W46814  44.472  18.064  14.491
82882W        W46815  40.549  32.994  13.815
82883W        W46816  38.419   8.783  10.540
82884W        W46817  20.736  42.352  11.412
82885W        W46818  30.068  25.172   2.705
82886W        W46819  10.819  12.718  13.367
82887W        W46820  13.212  33.061   3.243
82888W        W46821  34.382  39.930  11.431
82889W        W46822   0.941  29.517   4.163
82890W        W46823  12.235  37.898   2.716
82891W        W46824  19.749  41.406  13.482
82892W        W46825  34.937  41.024   1.931
82893W        W46826  35.473  35.877   4.617
82894W        W46827  39.040  39.027   2.859
82895W        W46828  24.086   1.246   1.429
82896W        W46829   6.819  22.154   3.287
82897W        W46830  21.072  16.748   4.336
82898W        W46831  36.876  38.881  11.087
82899W        W46832  34.954  16.803  11.500
82900W        W46833  14.195  44.945  10.458
82901W        W46834  16.712  36.359   4.137
82902W        W46835  38.948  23.095   0.828
82903W        W46836  21.715  27.168  11.906
82904W        W46837  20.076  38.058   4.124
82905W        W46838  41.468   7.696  13.358
82906W        W46839  36.075  33.926  13.472
82907W        W46840  35.456  41.018   3.329
82908W        W46841  42.401   2.441   2.768
82909W        W46842  15.790  17.624   0.966
82910W        W46843   6.724   3.866   1.347
82911W        W46844  24.142   8.668   4.208
82912W        W46845  34.982  31.632  14.354
82913W        W46846  13.249  41.511   4.272
82914W        W46847   0.846  42.510   1.354
82915W        W46848  11.827   0.968   1.787
82916W        W46849  28.145  18.580   3.282
82917W        W46850   1.278  17.181   4.121
82918W        W46851  30.118  24.645   3.262
82919W        W46852  26.697  34.908   4.650
82920W        W46853  12.664   9.253  14.810
82921W        W46854   2.445  41.382  12.874
82922W        W46855  29.025   7.281   4.728
82923W        W46856  30.026  42.521  12.419
82924W        W46857  18.642  37.359   0.781
82925W        W46858  43.884   4.248  12.930
82926W        W46859  42.840  13.770  12.843
82927W        W46860  34.042  36.503  12.505
82928W        W46861  25.661  13.190   3.177
82929W        W46862  21.095  21.232  14.500
82930W        W46863   4.268   2.373  14.413
82931W        W46864  43.335  13.147   3.792
82932W        W46865  41.516  29.101   3.636
82933W        W46866  28.155  27.127  14.363
82934W        W46867  39.063  11.369  12.830
82935W        W46868  29.112  21.712  10.894
82936W        W46869  42.488  35.416  10.027
82937W        W46870  23.509  43.421   3.357
82938W        W46871   2.336   6.766   3.219
82939W        W46872  31.018  34.400  14.933
82940W        W46873   7.858   1.808  12.429
82941W        W46874  31.015  42.888  13.461
82942W        W46875  20.581  38.336   1.935
82943W        W46876  19.594  43.886   3.772
82944W        W46877   8.177  33.018   2.280
82945W        W46878  25.551  44.983   3.263
82946W        W46879   0.452   7.202   2.179
82947W        W46880  19.166  20.555  13.906
82948W        W46881  14.822   8.753  10.966
82949W        W46882  23.199  23.085   2.893
82950W        W46883  41.787   7.667  10.443
82951W        W46884  17.563  17.787  12.451
82952W        W46885  15.807  15.735   4.630
82953W        W46886  39.542   4.432  10.465
82954W        W46887  20.203  18.183   1.317
82955W        W46888  38.853  30.461   2.249
82956W        W46889  18.247  28.673  11.889
82957W        W46890  13.600  12.835  13.401
82958W        W46891  32.008  33.502  13.360
82959W        W46892  29.147  28.442  11.578
82960W        W46893  26.097  16.612   4.623
82961W        W46894  30.910  15.612   0.881
82962W        W46895  24.156   1.471   0.829
82963W        W46896  30.996   7.328   0.755
82964W        W46897  15.110  20.694   4.725
82965W        W46898  23.114  12.145   2.887
82966W        W46899  34.447  32.980  13.409
82967W        W46900   0.264  21.511  12.559
82968W        W46901  37.925  15.319   3.193
82969W        W46902   1.459  32.471  11.377
82970W        W46903  10.190  40.396   2.178
82971W        W46904  34.598  16.265   1.442
82972W        W46905   9.692  37.527   2.848
82973W        W46906  26.562  10.243  10.518
82974W        W46907  21.208  35.015  14.976
82975W        W46908  38.826  17.157   2.355
82976W        W46909  44.918   0.852  14.789
82977W        W46910  13.819  18.711  14.865
82978W        W46911  10.271   6.208  13.949
82979W        W46912   9.806  19.597  13.440
82980W        W46913  13.232  19.268   2.734
82981W        W46914  15.133  25.587   4.794
82982W        W46915  13.132  14.210  10.045
82983W        W46916  39.911  41.037   1.357
82984W        W46917  31.955  22.018   0.274
82985W        W46918  16.241  27.544   2.846
82986W        W46919  25.007   8.694  13.931
82987W        W46920  38.842  22.011   0.910
82988W        W46921  11.156   2.729   1.762
82989W        W46922  17.717  31.979   4.763
82990W        W46923  17.075   0.808  13.975
82991W        W46924   2.343  23.696  12.392
82992W        W46925   1.286  10.186   2.361
82993W        W46926   6.821  39.402  13.874
82994W        W46927  37.841  42.949   3.360
82995W        W46928   1.920  41.870   4.245
82996W        W46929  29.116  30.150   2.850
82997W        W46930  24.510  17.154  14.508
82998W        W46931  21.611  44.824  13.320
82999W        W46932  39.376   6.253   3.750
83000W        W46933   2.301  17.595   3.293
83001W        W46934  36.859  16.762  11.958
83002W        W46935  21.023  21.152  10.897
83003W        W46936  10.655  10.640   2.890
83004W        W46937  23.087  36.953  10.611
83005W        W46938  16.571  31.996  14.331
83006W        W46939  14.623  19.582  12.981
83007W        W46940  43.842   1.832   1.784
83008W        W46941  13.680  16.195  10.960
83009W        W46942  12.645  23.501  14.489
83010W        W46943  20.678  12.654   2.375
83011W        W46944  40.368  27.990   2.277
83012W        W46945  44.953  33.957   3.382
83013W        W46946   6.841  11.763   1.836
83014W        W46947   0.341   8.795   4.208
83015W        W46948  24.028  19.194   0.756
83016W        W46949  27.028  29.448  11.983
83017W        W46950  30.551  27.691  14.975
83018W        W46951  31.469  31.577  13.914
83019W        W46952  35.960  38.373  12.577
83020W        W46953  43.427  38.993   4.334
83021W        W46954  18.093  25.587   4.625
83022W        W46955  18.571   5.253   3.206
83023W        W46956  20.663   0.333  11.596
83024W        W46957  30.527   4.944   0.370
83025W        W46958  41.432  36.528  12.363
83026W        W46959  43.897  34.478  13.486
83027W        W46960  38.951  41.413   3.263
83028W        W46961   9.649  24.539  11.064
83029W        W46962   7.746  43.836   3.782
83030W        W46963  41.349   8.282   3.379
83031W        W46964  31.464  21.516  12.826
83032W        W46965  11.857  34.541  10.578
83033W        W46966  19.587  34.034   1.235
83034W        W46967  39.330  33.926   2.710
83035W        W46968  31.093  24.606  10.582
83036W        W46969  10.158   5.772   4.723
83037W        W46970  41.002   7.398   1.801
83038W        W46971   0.391  31.483   1.889
83039W        W46972   6.813  27.125  11.537
83040W        W46973  21.665   6.282   0.263
83041W        W46974  44.940  20.166   0.783
83042W        W46975  33.608  21.725  12.390
83043W        W46976  24.604  27.499   0.949
83044W        W46977  44.367  22.699   3.291
83045W        W46978  16.140  24.123  11.066
83046W        W46979  20.039  15.311   3.344
83047W        W46980  11.367  20.538   4.304
83048W        W46981   2.733  43.437  14.011
83049W        W46982  42.380  15.743   3.217
83050W        W46983  26.139  10.323   0.368
83051W        W46984  18.577  11.643   3.848
83052W        W46985  18.593   5.737   2.229
83053W        W46986   0.948   0.924  11.383
83054W        W46987  29.091  35.927  13.806
83055W        W46988  39.520  16.707  12.576
83056W        W46989  34.053  27.488   0.898
83057W        W46990   5.341  19.657   1.356
83058W        W46991  31.604  17.717  12.064
83059W        W46992  12.643  42.889   1.385
83060W        W46993   8.213  26.625  14.348
83061W        W46994  17.802  32.600  12.479
83062W        W46995  20.643  28.669   0.732
83063W        W46996  20.579   3.767  10.507
83064W        W46997  42.447  23.519   0.397
83065W        W46998   4.800  25.041   4.697
83066W        W46999  24.573  14.618  13.008
83067W        W47000  30.636   7.372  13.428
83068W        W47001   3.376  11.360  11.104
83069W        W47002  31.078  26.163   2.838
83070W        W47003  31.531  25.505  11.988
83071W        W47004  18.765   4.827   5.152
83072W        W47005  30.150  12.264   3.242
83073W        W47006  40.958   3.838   1.887
83074W        W47007  16.105  41.953   2.699
83075W        W47008   2.879  19.072   2.741
83076W        W47009   8.165  43.363   0.726
83077W        W47010  34.898  17.613  14.874
83078W        W47011  31.080  35.853  11.483
83079W        W47012  36.420  44.318  13.934
83080W        W47013  21.706  35.873   5.147
83081W        W47014  24.158  17.116  11.597
83082W        W47015   4.351  38.528  14.433
83083W        W47016  41.810  27.186  10.476
83084W        W47017  40.428  34.448   1.276
83085W        W47018   5.254  28.040  13.829
83086W        W47019  32.021  43.942  13.007
83087W        W47020   8.704  30.507  12.015
83088W        W47021  22.717  41.320   0.854
83089W        W47022  39.326   9.779   3.295
83090W        W47023  23.726  43.501   3.714
83091W        W47024  33.917  12.134   0.784
83092W        W47025   0.331  18.190  13.315
83093W        W47026  40.432  10.814   1.808
83094W        W47027   1.788  28.481   1.430
83095W        W47028  36.012  33.874  12.534
83096W        W47029   5.409  40.853  14.811
83097W        W47030  35.033  39.556   3.356
83098W        W47031  39.946  37.966  10.553
83099W        W47032  15.226  22.133   3.738
83100W        W47033  12.127  44.906   4.159
83101W        W47034  20.105  10.791   2.858
83102W        W47035  38.917   1.898  12.488
83103W        W47036  13.171   3.740   0.842
83104W        W47037  38.851  40.305  13.343
83105W        W47038   9.687   0.751  14.982
83106W        W47039  16.159  12.782   4.271
83107W        W47040  27.481  21.220  11.061
83108W        W47041  38.427  19.052   2.777
83109W        W47042  29.090  21.733   3.313
83110W        W47043  33.592  19.644  13.524
83111W        W47044   8.267  11.209   0.782
83112W        W47045  20.130  27.585   1.854
83113W        W47046  44.001   7.733   4.792
83114W        W47047  26.075  17.297  14.860
83115W        W47048  43.889  14.330   4.343
83116W        W47049  38.491  28.658  12.040
83117W        W47050  38.029  17.064  11.860
83118W        W47051  39.428   3.309  14.005
83119W        W47052  21.073   7.699  13.490
83120W        W47053  10.675   8.205   0.258
83121W        W47054  27.527  34.452   4.214
83122W        W47055  21.089  12.210  13.924
83123W        W47056   5.827  26.145  11.060
83124W        W47057  42.837  41.005   4.614
83125W        W47058  32.476  30.967   3.657
83126W        W47059  20.733  15.654  12.894
83127W        W47060  34.906  39.414   1.846
83128W        W47061  29.588  28.468   2.238
83129W        W47062  35.483  28.457  13.321
83130W        W47063  11.246  36.855  10.522
83131W        W47064   9.674   2.908  14.839
83132W        W47065   3.806  40.050  11.494
83133W        W47066  28.947  31.415  12.929
83134W        W47067  23.055  19.738   1.808
83135W        W47068  12.200   4.300   1.220
83136W        W47069   3.800   9.820  12.549
83137W        W47070  37.995  38.548  10.539
83138W        W47071  27.954  22.161  14.323
83139W        W47072  36.434   7.287  10.559
83140W        W47073  37.959  27.489   4.833
83141W        W47074  15.793  35.974   1.744
83142W        W47075   5.756   9.679   0.944
83143W        W47076  14.293  39.487   0.831
83144W        W47077  18.281   7.819  10.111
83145W        W47078  40.507  33.388   2.229
83146W        W47079  40.407  13.137   0.869
83147W        W47080  35.985   9.204   3.796
83148W        W47081  41.339  21.190  13.419
83149W        W47082  25.197  34.605  11.947
83150W        W47083   0.751  33.553  13.010
83151W        W47084   7.715  32.566   4.246
83152W        W47085  36.586  26.039   0.432
83153W        W47086  37.469   0.369  14.969
83154W        W47087   6.824  16.637  13.449
83155W        W47088  16.268  40.015   3.270
83156W        W47089  13.309  34.065   0.940
83157W        W47090  27.607   4.373  13.383
83158W        W47091  16.594  11.216   3.771
83159W        W47092  18.647  41.341  11.395
83160W        W47093  40.480   1.914  10.976
83161W        W47094  29.612  10.247   0.852
83162W        W47095  32.030   2.333   2.691
83163W        W47096   5.817   7.393   1.290
83164W        W47097  39.556   8.371  12.553
83165W        W47098  13.169  15.139   3.381
83166W        W47099  14.654  15.137  13.365
83167W        W47100  21.727   7.741   2.407
83168W        W47101  33.082   4.921  12.941
83169W        W47102  34.408   2.389   0.845
83170W        W47103   3.798   6.211   2.850
83171W        W47104   4.911   9.281  10.929
83172W        W47105  28.985  23.142  14.001
83173W        W47106  16.224  21.530  13.329
83174W        W47107  34.007   7.689  12.452
83175W        W47108  28.936   6.238  14.005
83176W        W47109  35.373  23.064  11.102
83177W        W47110  34.065  26.966   2.888
83178W        W47111  37.013  10.740   1.740
83179W        W47112  35.526  19.151  13.327
83180W        W47113  37.963  21.743  13.462
83181W        W47114  11.178  11.248  11.021
83182W        W47115  26.606  24.153  12.371
83183W        W47116  25.634  43.492   2.862
83184W        W47117  12.176  29.085  14.022
83185W        W47118   7.811  34.900   4.802
83186W        W47119   1.424  15.748   0.329
83187W        W47120   3.877  14.716  13.931
83188W        W47121  35.954  37.051   3.339
83189W        W47122  18.749  22.030   3.708
83190W        W47123  12.636  31.055  10.547
83191W        W47124  39.535  11.721  14.759
83192W        W47125   1.799   2.270   0.259
83193W        W47126   4.300  24.565  13.347
83194W        W47127  17.691  44.924   0.409
83195W        W47128  25.568   2.432   5.257
83196W        W47129  13.135  15.223   1.875
83197W        W47130  41.372   6.825   1.838
83198W        W47131  12.636  27.547  12.535
83199W        W47132  28.610   5.387   3.728
83200W        W47133  40.053  18.198  11.064
83201W        W47134  32.908  18.171   2.263
83202W        W47135  26.087  41.794   1.861
83203W        W47136  25.979  21.101  11.871
83204W        W47137  38.552   2.397   4.639
83205W        W47138   3.859  39.028  12.045
83206W        W47139  23.201   7.185  12.085
83207W        W47140  21.627  40.960   3.683
83208W        W47141  12.345  10.754  11.101
83209W        W47142  16.609  11.621  12.846
83210W        W47143  35.493  12.846  13.506
83211W        W47144  27.563  10.836   4.318
83212W        W47145  24.643  18.592  14.306
83213W        W47146  21.676  10.848   2.794
83214W        W47147  40.362  27.552  12.838
83215W        W47148  30.616  36.426  13.967
83216W        W47149   5.353  22.052  10.905
83217W        W47150  40.525  38.871   2.413
83218W        W47151   3.726  36.852  11.410
83219W        W47152  17.673   7.393  11.513
83220W        W47153  11.312  33.034   0.349
83221W        W47154  37.514  29.618  14.811
83222W        W47155  16.641  21.261  14.412
83223W        W47156  37.029  21.200   0.435
83224W        W47157  19.082   1.938   4.640
83225W        W47158  15.302  34.450   0.274
83226W        W47159  23.088  40.488   0.911
83227W        W47160   2.317  44.333   0.828
83228W        W47161  19.122  20.641   0.814
83229W        W47162  16.186  17.695   1.438
83230W        W47163  10.364   9.281   1.390
83231W        W47164   7.411  40.363  11.098
83232W        W47165  24.553  43.821  11.489
83233W        W47166  24.479  22.023  14.914
83234W        W47167  36.579  16.741  10.948
83235W        W47168  41.968   9.850  12.003
83236W        W47169  33.019  19.130   2.415
83237W        W47170  22.732  14.218   1.758
83238W        W47171  40.446   3.767   4.340
83239W        W47172  42.510  16.215   4.295
83240W        W47173  21.727   0.475   0.383
83241W        W47174  32.501   4.305  13.312
83242W        W47175  44.329  41.810  14.970
83243W        W47176   2.370  41.952  12.544
83244W        W47177  32.900  36.007   1.820
83245W        W47178  19.773  43.019   2.286
83246W        W47179  31.899  10.875  10.541
83247W        W47180  16.269  20.734   4.723
83248W        W47181  42.430   8.263   0.866
83249W        W47182  17.693   5.433   3.770
83250W        W47183  14.802  32.051   3.821
83251W        W47184  29.125  40.540  10.420
83252W        W47185  29.549  24.719  13.444
83253W        W47186  27.092  24.176  14.786
83254W        W47187   2.273  34.022  11.949
83255W        W47188  20.140  32.517  13.974
83256W        W47189   3.371  24.218   2.243
83257W        W47190   8.689  25.144   1.704
83258W        W47191   3.414  28.168   2.252
83259W        W47192  27.972   5.385  14.886
83260W        W47193  25.700  40.496  13.432
83261W        W47194  10.144  24.605  10.608
83262W        W47195   1.255  16.746  12.081
83263W        W47196   3.815  18.230  14.973
83264W        W47197  22.521  43.973  13.512
83265W        W47198   9.218  38.372   1.228
83266W        W47199  38.955  22.661  10.487
83267W        W47200  28.113  11.143  13.047
83268W        W47201  30.582  22.042   1.427
83269W        W47202  41.849  20.554  10.984
83270W        W47203  29.166  41.308  14.776
83271W        W47204   8.303  18.781   2.270
83272W        W47205  22.024  31.540  14.797
83273W        W47206  24.135  36.368   2.675
83274W        W47207   9.233  17.282  11.439
83275W        W47208  27.044   0.341   0.320
83276W        W47209  23.083  30.025  11.047
83277W        W47210  17.607  42.880  14.984
83278W        W47211  14.820   5.394  10.416
83279W        W47212  37.998  21.062  11.419
83280W        W47213  28.456   1.290  14.881
83281W        W47214  32.541  28.502   0.376
83282W        W47215  43.427  37.024  14.291
83283W        W47216  14.336  36.534  13.851
83284W        W47217  37.457  13.636   0.265
83285W        W47218  37.074  34.112  11.954
83286W        W47219  25.133  21.255   0.755
83287W        W47220  38.509  44.460   0.329
83288W        W47221  14.752  41.292  13.806
83289W        W47222   1.800  14.174  10.484
83290W        W47223   0.378  41.297  13.921
83291W        W47224  25.095  35.576   4.341
83292W        W47225  10.694  29.111  11.876
83293W        W47226  14.824   4.262  14.361
83294W        W47227  37.832   5.410  13.944
83295W        W47228   3.336  27.032  11.470
83296W        W47229  18.576  32.554   2.719
83297W        W47230  16.636  30.516  10.630
83298W        W47231  33.075  11.197   0.390
83299W        W47232  12.312  33.069   3.244
83300W        W47233  43.942   6.184   4.210
83301W        W47234  39.351  42.334   3.206
83302W        W47235  19.069  37.530  10.051
83303W        W47236  24.069   6.373   1.835
83304W        W47237  35.020   4.252  11.611
83305W        W47238  41.528   0.451   1.261
83306W        W47239  16.286   7.899   3.262
83307W        W47240  17.103   8.362   0.309
83308W        W47241  44.798  36.859  13.855
83309W        W47242  16.750   1.358  12.029
83310W        W47243  26.545  14.649  13.006
83311W        W47244   3.789  10.155  12.883
83312W        W47245  35.971  13.139  11.963
83313W        W47246  37.473  31.983   2.794
83314W        W47247  13.346   4.328  10.963
83315W        W47248   5.793  14.108  13.880
83316W        W47249  23.133  15.795   2.275
83317W        W47250  18.120  17.758   3.222
83318W        W47251  29.492   0.308  11.942
83319W        W47252  14.765  28.662   0.411
83320W        W47253  35.901  13.684  10.513
83321W        W47254   6.763   5.333   3.356
83322W        W47255  41.344  39.050  10.510
83323W        W47256   0.489  39.920   4.651
83324W        W47257   3.315   5.867   0.959
83325W        W47258  13.305  35.412  12.498
83326W        W47259   7.263   8.861  13.791
83327W        W47260  20.535  30.023   4.735
83328W        W47261  26.061  11.229  11.044
83329W        W47262   1.826  11.818   3.324
83330W        W47263  41.469  12.159   1.870
83331W        W47264  27.044  31.469   4.345
83332W        W47265  33.441  42.901   3.840
83333W        W47266  23.139  23.041  13.344
83334W        W47267  24.988  21.648   4.698
83335W        W47268   9.229   0.856  13.357
83336W        W47269   8.699   0.332  14.945
83337W        W47270  25.125  13.626  11.021
83338W        W47271  43.459  11.234   4.313
83339W        W47272   5.702  15.171   5.130
83340W        W47273  24.479  21.121   0.927
83341W        W47274  14.134  44.880   2.232
83342W        W47275   7.668  22.185   4.740
83343W        W47276  16.767  26.666   4.121
83344W        W47277  40.414   5.689  12.504
83345W        W47278  14.607   0.971  11.994
83346W        W47279  17.575  12.770  11.880
83347W        W47280  42.506  12.783   0.251
83348W        W47281  12.291  28.063   3.353
83349W        W47282   7.708  12.623   5.259
83350W        W47283  21.620  38.351   4.263
83351W        W47284  13.280  32.097   2.777
83352W        W47285  32.926  30.100   3.755
83353W        W47286   6.891  40.908   1.432
83354W        W47287   4.407   3.775   4.139
83355W        W47288   8.316   8.668   1.834
83356W        W47289  40.915  31.097   2.752
83357W        W47290   3.723  18.581   2.274
83358W        W47291  34.979  12.790   3.379
83359W        W47292  35.479  34.400   4.693
83360W        W47293  21.254  26.562   9.511
83361W        W47294   1.368  28.147  11.433
83362W        W47295  36.017  14.744  10.428
83363W        W47296  23.185  37.955   4.352
83364W        W47297  44.900  23.651   0.958
83365W        W47298  38.414  24.533  12.995
83366W        W47299  31.563   6.867   2.206
83367W        W47300  36.943   1.945   1.830
83368W        W47301  19.683  30.985   0.456
83369W        W47302  17.592  19.099  10.404
83370W        W47303   9.742  17.305   1.335
83371W        W47304  26.144  10.254   2.729
83372W        W47305  13.789  24.191  14.307
83373W        W47306  22.114  20.236  12.024
83374W        W47307  11.164  14.104   0.896
83375W        W47308  44.330  41.788  10.574
83376W        W47309  22.015  40.970   3.208
83377W        W47310  22.148  32.401   0.814
83378W        W47311   7.674  32.967   0.764
83379W        W47312  19.634   6.915   3.171
83380W        W47313   2.774  15.136   1.218
83381W        W47314   7.336  25.103  12.482
83382W        W47315  24.692  43.505   2.730
83383W        W47316  31.633  17.783  13.505
83384W        W47317  30.573  28.637   2.382
83385W        W47318  18.726  43.944   3.328
83386W        W47319  14.186  30.134  13.522
83387W        W47320  36.482  34.596  10.528
83388W        W47321  42.973   3.901   4.129
83389W        W47322  25.096  25.007   0.385
83390W        W47323  38.377  32.971  12.051
83391W        W47324   8.742  31.081  10.488
83392W        W47325  36.027   5.326  10.426
83393W        W47326  32.405  15.326   3.643
83394W        W47327  25.197  41.969   4.823
83395W        W47328  19.665   8.796  13.812
83396W        W47329  24.149   6.356  11.398
83397W        W47330  25.123   7.906  11.376
83398W        W47331  18.076   8.378   0.867
83399W        W47332  32.007  30.924   0.957
83400W        W47333  24.154  17.253   3.834
83401W        W47334  39.051   6.678  11.035
83402W        W47335   1.771  15.287  14.475
83403W        W47336  12.162  32.012  12.515
83404W        W47337  25.570  15.182   1.272
83405W        W47338   5.250  26.139   2.362
83406W        W47339  25.634  26.473   4.633
83407W        W47340  36.358  23.993   0.851
83408W        W47341  42.471  25.175   1.808
83409W        W47342  30.445  37.446  14.408
83410W        W47343  17.068  11.724   2.889
83411W        W47344   2.422  43.481   0.899
83412W        W47345   2.722   0.348   3.253
83413W        W47346  16.163   2.269  13.009
83414W        W47347   4.244  36.424   4.720
83415W        W47348   5.848  27.621   2.743
83416W        W47349  11.630  42.347  14.899
83417W        W47350   3.242   8.165  14.857
83418W        W47351  42.895  31.621  12.358
83419W        W47352  31.047  36.502  11.988
83420W        W47353  43.339  39.033   2.272
83421W        W47354  43.927  32.072   3.640
83422W        W47355  32.059  36.869   1.342
83423W        W47356  44.310  22.556  14.329
83424W        W47357  21.560  42.289  12.461
83425W        W47358  21.152  44.309  12.547
83426W        W47359  20.643  35.082   2.380
83427W        W47360  41.812  11.649  14.366
83428W        W47361  40.979   1.934  14.506
83429W        W47362   4.405   7.174   1.696
83430W        W47363  39.448  44.438  10.007
83431W        W47364  17.183   3.225  14.790
83432W        W47365  30.975   0.877  14.386
83433W        W47366  32.019  19.041   0.370
83434W        W47367   2.861   6.813  10.902
83435W        W47368  44.854  40.916   1.300
83436W        W47369  35.460  13.722   0.909
83437W        W47370  24.616  22.620  12.464
83438W        W47371  23.559  12.120  13.398
83439W        W47372  28.995  22.520   2.901
83440W        W47373  44.967  33.995   1.362
83441W        W47374  32.445   7.368   4.326
83442W        W47375  25.016  44.830  11.926
83443W        W47376  42.814  22.675   0.261
83444W        W47377  19.118  10.720  12.875
83445W        W47378  25.600  25.121   1.226
83446W        W47379  11.129   9.839  10.966
83447W        W47380   6.352  43.452   4.601
83448W        W47381  43.464   9.228  14.381
83449W        W47382   0.402  43.277   4.351
83450W        W47383   3.363  30.494   4.299
83451W        W47384  16.250  40.878  11.916
83452W        W47385  29.044   7.310   2.267
83453W        W47386  44.777  25.994   4.694
83454W        W47387  31.569  17.217   3.246
83455W        W47388  21.537   6.336  12.047
83456W        W47389   6.690  18.288  11.932
83457W        W47390  33.085  32.593  13.797
83458W        W47391  20.261  29.528   3.292
83459W        W47392  33.400   7.340  14.932
83460W        W47393  16.126   8.338   0.280
83461W        W47394   0.453   8.372   2.197
83462W        W47395  21.734   3.907   4.171
83463W        W47396  20.576  29.038   3.686
83464W        W47397  29.041  17.199   2.769
83465W        W47398  31.975  33.477  12.946
83466W        W47399  43.951  21.204  11.473
83467W        W47400  24.723  40.940  10.573
83468W        W47401  20.601   6.298  13.423
83469W        W47402  13.711  38.989  14.427
83470W        W47403  40.964  13.765   4.810
83471W        W47404   5.310   1.752   0.936
83472W        W47405   5.395  43.015  12.374
83473W        W47406  16.205  28.181  10.623
83474W        W47407  37.407  10.778  12.576
83475W        W47408   0.783  26.539   2.253
83476W        W47409  29.642  14.290  10.116
83477W        W47410  16.170   2.916   1.765
83478W        W47411  29.999  44.882  11.950
83479W        W47412  34.968   9.222   2.376
83480W        W47413  40.819  25.644  13.062
83481W        W47414  42.304  34.582  11.908
83482W        W47415   5.758   8.313   3.209
83483W        W47416  38.560  38.006   3.746
83484W        W47417  10.674   5.260   2.671
83485W        W47418  13.666  25.598   3.211
83486W        W47419  23.622  30.561  14.278
83487W        W47420  31.411  28.086  13.027
83488W        W47421  16.729  44.955   0.748
83489W        W47422  25.975   1.865   0.441
83490W        W47423   3.949  37.028   1.222
83491W        W47424  11.776  26.991  11.489
83492W        W47425  13.128   4.216  13.010
83493W        W47426  19.277  16.714  11.086
83494W        W47427  25.082  24.214  13.825
83495W        W47428   9.693  10.316   1.899
83496W        W47429  20.228  32.036  11.420
83497W        W47430  15.165  28.033   2.676
83498W        W47431   1.862   7.697  11.600
83499W        W47432  14.627   0.908  14.885
83500W        W47433   1.852  23.576  14.309
83501W        W47434  41.837  30.989   0.402
83502W        W47435  24.508  26.639  14.385
83503W        W47436  40.381  14.301   2.667
83504W        W47437  13.692  17.608   4.177
83505W        W47438  27.675  43.962   4.315
83506W        W47439  15.591  43.324  13.827
83507W        W47440  12.240   7.402   2.822
83508W        W47441  21.132  33.078   1.276
83509W        W47442  25.051  23.523  13.937
83510W        W47443   0.349  39.451   2.705
83511W        W47444  20.054   2.458   3.683
83512W        W47445  44.942   9.693  10.922
83513W        W47446  31.626   9.248   3.224
83514W        W47447  23.101  35.425  11.927
83515W        W47448  21.662  30.582  12.073
83516W        W47449  12.253   5.698   3.788
83517W        W47450  33.029  26.507   3.256
83518W        W47451  12.667  41.416  12.078
83519W        W47452  15.084  41.893   3.849
83520W        W47453  39.828  13.328   3.767
83521W        W47454  39.053  14.229   2.664
83522W        W47455  18.200  26.559   3.813
83523W        W47456  31.520  20.734  14.972
83524W        W47457  12.150  10.216   1.896
83525W        W47458  16.078  10.835  13.062
83526W        W47459   6.713  14.747  13.981
83527W        W47460   6.423  14.114   5.633
83528W        W47461  17.281  37.567  11.005
83529W        W47462   9.675  32.925  13.477
83530W        W47463  24.039  30.435   1.381
83531W        W47464  44.853  43.889   1.399
83532W        W47465   8.760  29.114  11.903
83533W        W47466  13.242  33.917  14.440
83534W        W47467  16.290   2.321   2.400
83535W        W47468  19.651  30.531  13.375
83536W        W47469  28.178  21.606   0.881
83537W        W47470   9.839  35.468   2.771
83538W        W47471  35.538  31.940   4.168
83539W        W47472  33.904   5.722   0.880
83540W        W47473   1.847  25.635  14.793
83541W        W47474  28.569  37.467  12.534
83542W        W47475  18.143  40.958   5.635
83543W        W47476  18.088  10.843  11.582
83544W        W47477  10.185  23.718   0.836
83545W        W47478  20.141  42.862   4.640
83546W        W47479  21.640  30.023   4.169
83547W        W47480  19.094   4.880   1.902
83548W        W47481  33.985  18.085  13.855
83549W        W47482  33.916   1.877   4.310
83550W        W47483   1.335  35.967   3.790
83551W        W47484  29.633   1.406  13.927
83552W        W47485   2.960  35.990   2.746
83553W        W47486  15.761  28.022   2.728
83554W        W47487  38.988   1.946   0.843
83555W        W47488  31.495  19.085   2.309
83556W        W47489  15.146  29.037  12.363
83557W        W47490   8.831  19.077   4.188
83558W        W47491   6.336  23.531  13.926
83559W        W47492   3.734   7.415   1.836
83560W        W47493  17.573  40.914   2.404
83561W        W47494  21.136  18.098   1.277
83562W        W47495   6.350  40.353  13.958
83563W        W47496  12.837  33.522   3.684
83564W        W47497  23.641  37.576  12.405
83565W        W47498   3.442  20.264  10.887
83566W        W47499  20.689  27.632  13.961
83567W        W47500  23.190  39.940   1.881
83568W        W47501  38.027  11.250  14.410
83569W        W47502  42.893  44.799  13.514
83570W        W47503  24.491  16.660  11.446
83571W        W47504  26.653  11.296   4.184
83572W        W47505  35.504   2.903   1.248
83573W        W47506  11.229  15.289  10.576
83574W        W47507  20.216  26.521  11.947
83575W        W47508  33.542  16.791  10.439
83576W        W47509   8.295  38.945   1.788
83577W        W47510   6.312  16.568  11.987
83578W        W47511  22.579  15.114  10.007
83579W        W47512  32.047   5.882   3.838
83580W        W47513  28.554  11.204   1.831
83581W        W47514  28.446  44.849  14.445
83582W        W47515  36.057  37.553   0.910
83583W        W47516  13.611  18.593   3.643
83584W        W47517  17.222  43.841   0.254
83585W        W47518   0.387  27.597   0.260
83586W        W47519  29.592  21.186  10.627
83587W        W47520  22.672  12.121   1.366
83588W        W47521  30.056   5.411  14.295
83589W        W47522  28.005  29.939  14.375
83590W        W47523  42.921  41.519  12.545
83591W        W47524  26.668  24.982   2.832
83592W        W47525   1.805   6.219  14.004
83593W        W47526  32.938  23.985  12.514
83594W        W47527  26.642  15.282   0.778
83595W        W47528  30.115   1.797  12.012
83596W        W47529  32.411  14.813   2.388
83597W        W47530  36.485  25.471   0.404
83598W        W47531  32.466  24.517   1.421
83599W        W47532   9.207  13.294   4.829
83600W        W47533  31.490  33.115   4.305
83601W        W47534   9.226  44.772  11.596
83602W        W47535  11.226  27.163  12.831
83603W        W47536  32.462  11.797  12.916
83604W        W47537  22.680   1.396  12.018
83605W        W47538  27.091  43.929  13.953
83606W        W47539  32.428   3.375   9.957
83607W        W47540  29.061   7.197  14.026
83608W        W47541  33.095  34.032   3.316
83609W        W47542   7.228  38.935   2.290
83610W        W47543  26.072  25.578  11.512
83611W        W47544   4.754  13.263   2.880
83612W        W47545  42.512   3.792  13.335
83613W        W47546  40.521  44.380   3.777
83614W        W47547  33.608   1.368  10.429
83615W        W47548  30.996   6.241  14.491
83616W        W47549   1.396  39.028  14.383
83617W        W47550  44.917  29.464  13.353
83618W        W47551  32.437  31.144   2.718
83619W        W47552  19.709  24.610  10.158
83620W        W47553  28.977  44.990   4.730
83621W        W47554  35.051  11.670   5.322
83622W        W47555   8.744   5.793   4.117
83623W        W47556  42.481  27.148  10.558
83624W        W47557   5.375   2.829  11.894
83625W        W47558  17.722  26.077  12.559
83626W        W47559   4.304  40.992   3.642
83627W        W47560  21.187  41.328  10.626
83628W        W47561   0.822  10.693   1.816
83629W        W47562  35.012  21.600   2.808
83630W        W47563   2.924  20.766   1.716
83631W        W47564  17.289   4.728   1.213
83632W        W47565  34.955  31.613   0.939
83633W        W47566  21.232  15.167  13.941
83634W        W47567  38.393   7.719  11.610
83635W        W47568  25.635  13.601   2.790
83636W        W47569   5.371  27.559   4.607
83637W        W47570  18.070  22.682  11.900
83638W        W47571  13.203  31.026   0.967
83639W        W47572   8.220  29.630   0.935
83640W        W47573  22.117  10.162  14.027
83641W        W47574  38.960  13.647  13.040
83642W        W47575  33.590   8.207  13.981
83643W        W47576   0.930  13.253   1.899
83644W        W47577  43.909  30.419   3.157
83645W        W47578   2.948  10.220   4.175
83646W        W47579  34.941   5.303   1.310
83647W        W47580  12.141  13.135   4.159
83648W        W47581  11.300   0.294  13.413
83649W        W47582  21.225  32.976   0.897
83650W        W47583  42.870  33.130  10.573
83651W        W47584  14.833  24.668  13.966
83652W        W47585  19.256   3.755   2.664
83653W        W47586  44.009  40.918   3.356
83654W        W47587  15.774   7.763  10.923
83655W        W47588   0.333   2.296  10.449
83656W        W47589  25.007  41.886   2.179
83657W        W47590  35.517   7.839  12.917
83658W        W47591  18.173  36.083  10.617
83659W        W47592  44.336  30.019  14.437
83660W        W47593  32.625  27.585   3.813
83661W        W47594   7.680  34.095  10.627
83662W        W47595  30.991  33.427   4.625
83663W        W47596  41.531  10.365  10.603
83664W        W47597  28.103  15.261  10.958
83665W        W47598  16.583  40.860  13.018
83666W        W47599  16.290  31.421   4.146
83667W        W47600  36.365  19.040   3.672
83668W        W47601  25.018  21.140  10.586
83669W        W47602  29.434  43.798   2.307
83670W        W47603  32.514  34.389  14.274
83671W        W47604  19.133  14.138  14.349
83672W        W47605   3.250  34.897  13.823
83673W        W47606  41.412   8.341  14.405
83674W        W47607  37.037   3.424  14.496
83675W        W47608  41.318  33.420  13.834
83676W        W47609  25.582  37.939   1.440
83677W        W47610  31.029  31.980  10.506
83678W        W47611  15.780  35.431   4.771
83679W        W47612   4.855  30.473   3.751
83680W        W47613  33.025  29.057   1.389
83681W        W47614  23.647  42.412  13.873
83682W        W47615   1.274   5.721  14.424
83683W        W47616  43.365   3.942  11.472
83684W        W47617  41.411  19.649   4.610
83685W        W47618   7.364  28.063  11.090
83686W        W47619  14.674  15.112  12.087
83687W        W47620   2.313  29.971   2.397
83688W        W47621  32.922  18.067  12.923
83689W        W47622   4.830  34.469  12.888
83690W        W47623  42.373  22.093   1.333
83691W        W47624  11.734   0.774  13.427
83692W        W47625  34.920  35.424   0.424
83693W        W47626   2.392  38.411  13.846
83694W        W47627   1.341   2.828   4.207
83695W        W47628  20.728  11.787   3.759
83696W        W47629  10.357  32.624  10.945
83697W        W47630  23.189   7.196  12.468
83698W        W47631  37.996  24.548   3.372
83699W        W47632  28.544  10.726  12.568
83700W        W47633   2.723   5.372   1.435
83701W        W47634  40.835   9.383   0.803
83702W        W47635  40.460  18.773   3.710
83703W        W47636  22.168  19.681   0.816
83704W        W47637  38.907  21.755  12.442
83705W        W47638  12.653  15.689   0.939
83706W        W47639  39.447   1.345  13.890
83707W        W47640  19.204  13.777  12.988
83708W        W47641  42.942  41.515  14.853
83709W        W47642  13.290  35.921   4.714
83710W        W47643  14.668  22.026   4.624
83711W        W47644   1.291  35.897  14.380
83712W        W47645   7.885  38.396  11.117
83713W        W47646   3.841  44.979   3.260
83714W        W47647  12.351  22.061  14.294
83715W        W47648  18.195  17.654   1.886
83716W        W47649  36.997  20.223  11.377
83717W        W47650  27.037   3.769  10.978
83718W        W47651   6.719  44.448   1.424
83719W        W47652  37.999  23.191   3.811
83720W        W47653  28.659  28.578   0.936
83721W        W47654   5.778  41.901  14.296
83722W        W47655  35.896  40.937   2.336
83723W        W47656  28.100  32.895  12.375
83724W        W47657   8.829  31.081  11.554
83725W        W47658  10.687   3.824  14.860
83726W        W47659  43.843  42.301  11.896
83727W        W47660  25.568  44.374  14.382
83728W        W47661  25.025  20.172   2.744
83729W        W47662  17.557  30.975   3.312
83730W        W47663   5.236  39.820   2.829
83731W        W47664  34.978   5.911   0.479
83732W        W47665   5.760  13.140  14.767
83733W        W47666  40.032  33.021  13.833
83734W        W47667  37.563  31.456   3.275
83735W        W47668  29.550  27.584  14.393
83736W        W47669  42.829  34.959   1.321
83737W        W47670  29.155  32.447   0.897
83738W        W47671  13.753  20.763   1.309
83739W        W47672  38.989  15.700   3.208
83740W        W47673  31.060   1.738  13.830
83741W        W47674  41.851  21.645   4.683
83742W        W47675  38.874  30.035   3.202
83743W        W47676  41.317  33.491  11.956
83744W        W47677   7.902  18.745  12.017
83745W        W47678  22.039  31.572   3.164
83746W        W47679  18.563  38.348   4.346
83747W        W47680  23.600  23.126  11.872
83748W        W47681  40.902  15.251   3.831
83749W        W47682  21.132  39.560   1.844
83750W        W47683  22.133  27.952  12.406
83751W        W47684  41.533  13.351  14.509
83752W        W47685  40.395  40.047   0.735
83753W        W47686  27.580  20.628   1.740
83754W        W47687  15.147   0.871   3.866
83755W        W47688   1.454  41.905  14.301
83756W        W47689  31.154  25.043   4.259
83757W        W47690   4.435  41.470  14.840
83758W        W47691  13.662  30.597   3.752
83759W        W47692  18.107  18.585   3.230
83760W        W47693  43.406   4.286  13.947
83761W        W47694   3.941   5.772   2.348
83762W        W47695  30.033  36.041   1.900
83763W        W47696   0.984  43.458  14.419
83764W        W47697  27.990  13.335  11.049
83765W        W47698  26.121  13.703   1.829
83766W        W47699  29.562  33.924  11.413
83767W        W47700  27.599   5.756  10.471
83768W        W47701  39.966  20.218  11.990
83769W        W47702  10.363   2.304   0.898
83770W        W47703  20.540  43.355  12.017
83771W        W47704   9.787  35.020  14.820
83772W        W47705  38.445  22.723  14.947
83773W        W47706  32.483  20.050   1.397
83774W        W47707   0.926  31.997   0.335
83775W        W47708   1.819   3.358   1.419
83776W        W47709  43.861   3.445   3.756
83777W        W47710  13.345  23.687   0.298
83778W        W47711  11.310   0.983  12.090
83779W        W47712  33.505  19.536   3.383
83780W        W47713   6.364   4.357   0.948
83781W        W47714   2.412  10.715  13.360
83782W        W47715  27.459  19.664  13.980
83783W        W47716  30.006  31.603  14.978
83784W        W47717  30.131  28.137   2.267
83785W        W47718  38.953  43.286   0.448
83786W        W47719  11.677   4.920   5.210
83787W        W47720  11.822   7.275  11.091
83788W        W47721   6.752  34.514   3.849
83789W        W47722  18.615  24.633   2.901
83790W        W47723  11.212  33.911   0.437
83791W        W47724  42.443   8.197   4.751
83792W        W47725  14.606   2.341   1.373
83793W        W47726  11.151  28.072   1.411
83794W        W47727   7.722  28.583  12.058
83795W        W47728  14.269   6.270  12.977
83796W        W47729  29.604  19.589   3.735
83797W        W47730  23.723  35.903   4.273
83798W        W47731  33.051  34.505   0.275
83799W        W47732  35.594  31.531   4.293
83800W        W47733   5.725  38.014   3.289
83801W        W47734  41.013  33.092   1.337
83802W        W47735  25.008  41.375  14.307
83803W        W47736   8.214  16.673  13.868
83804W        W47737  14.325  35.490   2.697
83805W        W47738  12.163   0.782  14.847
83806W        W47739  25.988   2.851  14.403
83807W        W47740   0.903  38.007   3.166
83808W        W47741   6.417  37.466   4.604
83809W        W47742   8.363  35.528  14.952
83810W        W47743  40.319  44.326   4.198
83811W        W47744   4.349   4.207   3.672
83812W        W47745  43.511  22.571   3.352
83813W        W47746  30.929  14.752   2.186
83814W        W47747  17.662  40.502  11.488
83815W        W47748  43.387  33.450   1.912
83816W        W47749  39.371  43.773   0.398
83817W        W47750  40.866  14.684  11.380
83818W        W47751  40.923   0.866   2.303
83819W        W47752  32.625  43.493   4.635
83820W        W47753   8.363  29.163   4.628
83821W        W47754   4.775   8.201  12.573
83822W        W47755   4.898  33.532  14.508
83823W        W47756  43.413   4.410  14.940
83824W        W47757  31.927  36.032  12.482
83825W        W47758   3.836   3.236  14.805
83826W        W47759  13.172  24.700  14.396
83827W        W47760  35.907  33.022  14.475
83828W        W47761  27.147  29.562   4.818
83829W        W47762  22.674  31.070  14.916
83830W        W47763  40.368  31.109   2.194
83831W        W47764  38.530  36.529  12.381
83832W        W47765   0.750   7.671  11.497
83833W        W47766  32.524  14.096  14.020
83834W        W47767  12.645   7.707   2.187
83835W        W47768  34.921  38.510   3.369
83836W        W47769  15.673   6.359  13.368
83837W        W47770  41.923  23.505  13.038
83838W        W47771  36.461   5.707  10.488
83839W        W47772  41.889   8.862  14.432
83840W        W47773  42.972  41.480   2.332
83841W        W47774  43.012  27.146  11.585
83842W        W47775  27.061   7.903  12.063
83843W        W47776  35.098  12.647  11.415
83844W        W47777  30.070  19.268  13.407
83845W        W47778   4.843  17.692  14.991
83846W        W47779   9.885  23.665  10.920
83847W        W47780  24.015   2.748  12.508
83848W        W47781  16.700  21.031  11.077
83849W        W47782   1.922  38.465   2.418
83850W        W47783  35.395  17.180  13.456
83851W        W47784  27.113  16.664  11.126
83852W        W47785   5.865  38.490  14.369
83853W        W47786  13.291  37.984   2.232
83854W        W47787  43.989  33.128  12.035
83855W        W47788  40.807  22.045   0.395
83856W        W47789  15.663  40.859  11.048
83857W        W47790  42.423  30.481   0.908
83858W        W47791  18.207  35.528  13.806
83859W        W47792  34.067  13.680   4.205
83860W        W47793  30.928  41.847  12.540
83861W        W47794  13.122   6.916   2.278
83862W        W47795  19.254  33.042   1.868
83863W        W47796  40.033   1.757   3.717
83864W        W47797  10.822  15.119   4.747
83865W        W47798   6.384  41.945  12.084
83866W        W47799  23.618  42.462   0.406
83867W        W47800   6.419  43.925   3.317
83868W        W47801  33.494  43.013  12.824
83869W        W47802  27.194  32.041   0.779
83870W        W47803  44.800  11.255   2.332
83871W        W47804  36.987   4.324  14.925
83872W        W47805  22.131  39.537   2.407
83873W        W47806   0.794  22.730   4.829
83874W        W47807  11.851  27.186   1.747
83875W        W47808  40.451  22.200   1.818
83876W        W47809  19.743  36.472  12.516
83877W        W47810   7.772  35.969  13.353
83878W        W47811  43.303  15.687   3.282
83879W        W47812  40.305  17.755  11.484
83880W        W47813  26.699  21.183   2.262
83881W        W47814  32.938  26.666  13.865
83882W        W47815  30.970  17.281  11.931
83883W        W47816   4.295   0.900  11.544
83884W        W47817  14.098  10.145   4.351
83885W        W47818   1.838  24.653   2.182
83886W        W47819  29.632  41.959   3.746
83887W        W47820   8.763  41.939   2.891
83888W        W47821  22.111  12.691  10.901
83889W        W47822  31.590  22.111   4.754
83890W        W47823  26.615  28.935  11.531
83891W        W47824  35.464  35.995  10.582
83892W        W47825   2.235  34.524   1.363
83893W        W47826  44.383  21.080   1.760
83894W        W47827  22.632  25.632   2.700
83895W        W47828  29.985   8.211   3.221
83896W        W47829  26.179  16.227  14.972
83897W        W47830   0.474   2.422   0.293
83898W        W47831  14.710  44.960  12.481
83899W        W47832  17.294  34.408  12.043
83900W        W47833  26.963  23.032   0.823
83901W        W47834  33.972   5.299   4.238
83902W        W47835  25.990  44.460   1.400
83903W        W47836  11.288   3.388   0.796
83904W        W47837   4.314  34.891   3.681
83905W        W47838  40.427  25.002   2.231
83906W        W47839  42.938  22.159  11.957
83907W        W47840  42.883  33.079  11.976
83908W        W47841  39.408  40.851  13.867
83909W        W47842  19.718  15.693   3.286
83910W        W47843   3.861   3.743  10.009
83911W        W47844  10.329  12.728  11.871
83912W        W47845  18.145  16.585   1.892
83913W        W47846  42.777   7.175  13.848
83914W        W47847  36.909  12.303  11.453
83915W        W47848  42.860  34.395  11.966
83916W        W47849  43.289  28.058  14.426
83917W        W47850   9.781  14.323  14.017
83918W        W47851  44.287  22.998   0.746
83919W        W47852  18.573   2.807  13.426
83920W        W47853  14.663   8.656  13.867
83921W        W47854  19.576  13.116  11.434
83922W        W47855  20.727  31.923  12.531
83923W        W47856  18.598  43.318  12.999
83924W        W47857  41.870  20.578  12.421
83925W        W47858  41.837  27.130  11.578
83926W        W47859   8.253   2.796  11.084
83927W        W47860  38.016  36.930   3.287
83928W        W47861  12.120  11.294   1.777
83929W        W47862  23.094  31.918   0.386
83930W        W47863   4.250   2.337   5.294
83931W        W47864  11.340   6.400   0.856
83932W        W47865  22.210  13.111   1.844
83933W        W47866  38.019   7.194  11.429
83934W        W47867   4.810   9.657   1.228
83935W        W47868  19.649   6.203   1.857
83936W        W47869  22.585  10.828  14.400
83937W        W47870   4.723  26.998  12.010
83938W        W47871   7.371  32.960   4.248
83939W        W47872  17.780  31.456  11.461
83940W        W47873  29.071  43.947  12.090
83941W        W47874  10.332  22.050  11.566
83942W        W47875  21.634  41.913  14.831
83943W        W47876  10.245  19.059   4.266
83944W        W47877  20.084  39.056   0.774
83945W        W47878  30.927  43.937   0.772
83946W        W47879  23.029  15.679   4.340
83947W        W47880  22.046  12.650   1.754
83948W        W47881   5.877  24.700   2.185
83949W        W47882  43.343  25.678  14.826
83950W        W47883   0.337  37.354  12.890
83951W        W47884  37.945  19.206  10.418
83952W        W47885   7.792  32.064   2.668
83953W        W47886  19.104  34.590  13.503
83954W        W47887  30.156  28.516  11.500
83955W        W47888  11.318  20.752   1.297
83956W        W47889   7.342  36.018  12.379
83957W        W47890   3.412  35.545   0.308
83958W        W47891   2.298  38.022  14.869
83959W        W47892  15.622  20.685   4.713
83960W        W47893  27.978  16.731   9.949
83961W        W47894  11.729  40.331   4.671
83962W        W47895  44.490   9.681   3.699
83963W        W47896   8.256   8.222   2.665
83964W        W47897  32.076  13.604   2.337
83965W        W47898  38.491   5.320   3.255
83966W        W47899   7.324  25.525  11.022
83967W        W47900   1.321  33.923   3.681
83968W        W47901   9.361  12.181   4.653
83969W        W47902   5.419  42.383  11.910
83970W        W47903  39.355   5.737   3.776
83971W        W47904  15.755  39.005   2.384
83972W        W47905  20.199  20.096  10.592
83973W        W47906  41.807  24.542   2.689
83974W        W47907  44.299  27.025  14.379
83975W        W47908  23.055   3.437  14.872
83976W        W47909   6.190   1.415   1.237
83977W        W47910  44.376  22.683   0.766
83978W        W47911  36.932  21.144  12.517
83979W        W47912   8.279  32.998  14.963
83980W        W47913  41.819  10.874   4.674
83981W        W47914  41.947  14.815   2.309
83982W        W47915  16.647  32.005   0.776
83983W        W47916  37.057   8.766   0.305
83984W        W47917   4.367  30.101   2.681
83985W        W47918  13.139  38.339  14.826
83986W        W47919  35.067  37.456  11.539
83987W        W47920   7.410  24.009   1.739
83988W        W47921  34.586  15.725  13.436
83989W        W47922  37.569  31.559   1.269
83990W        W47923  44.279   7.784  11.892
83991W        W47924  14.738  40.416  11.390
83992W        W47925  15.306   5.429   5.244
83993W        W47926  17.294   2.446  10.453
83994W        W47927   0.277  38.486   4.614
83995W        W47928  37.857  17.798  13.394
83996W        W47929  17.576  29.467  11.940
83997W        W47930  43.364  18.683  14.852
83998W        W47931  37.527  14.765  14.464
83999W        W47932  43.794   7.848   3.700
84000W        W47933  40.314  36.460  13.504
84001W        W47934  35.553  35.082   1.370
84002W        W47935  28.513  43.970  13.511
84003W        W47936   4.333  33.935   0.263
84004W        W47937  12.131  28.590   1.346
84005W        W47938  43.337   0.415  11.888
84006W        W47939   3.294  30.544   2.273
84007W        W47940  18.176  26.028  12.044
84008W        W47941  44.815  14.306  14.285
84009W        W47942  43.399   9.755   2.816
84010W        W47943  13.345  10.634  12.520
84011W        W47944  22.072   5.332  11.996
84012W        W47945  13.671   2.774   0.335
84013W        W47946  14.289  23.722   0.466
84014W        W47947  22.188  24.068   3.792
84015W        W47948  38.034   0.960   3.343
84016W        W47949   9.816  41.301  11.477
84017W        W47950   1.425  43.375  14.027
84018W        W47951  40.808  34.115  11.432
84019W        W47952  22.075   4.895   0.816
84020W        W47953   9.362  18.786  14.967
84021W        W47954  42.880  14.221  14.030
84022W        W47955   5.350  10.814   3.790
84023W        W47956  21.672  44.763  10.903
84024W        W47957  18.190  10.703  10.500
84025W        W47958  23.698  33.418  13.490
84026W        W47959  28.993   7.828  11.879
84027W        W47960  41.910  42.872   1.262
84028W        W47961  20.649   6.749   1.313
84029W        W47962  35.394  35.979   4.172
84030W        W47963  44.459  43.863  11.070
84031W        W47964  32.612  13.708  12.010
84032W        W47965   7.901  32.404   4.795
84033W        W47966   5.339  23.553   4.803
84034W        W47967  14.232   6.791   1.732
84035W        W47968  22.746  13.669   4.221
84036W        W47969   6.352  10.796   2.670
84037W        W47970  35.446  18.290  14.489
84038W        W47971   2.291  21.743   1.255
84039W        W47972  41.450  41.945  13.401
84040W        W47973   8.876  34.051  12.541
84041W        W47974  25.709   1.863   1.435
84042W        W47975  17.244  16.723  11.966
84043W        W47976  30.157  10.226  13.896
84044W        W47977  38.999   3.338   4.694
84045W        W47978  29.441  22.563   3.207
84046W        W47979  34.933  37.856   2.343
84047W        W47980  31.516  26.109  12.866
84048W        W47981  34.493  26.618  12.484
84049W        W47982  32.493  19.732   2.203
84050W        W47983  28.625  13.295  14.886
84051W        W47984  11.129  10.345   1.740
84052W        W47985  16.703  34.899  13.309
84053W        W47986  14.610  31.910   0.916
84054W        W47987  35.059  39.026   1.835
84055W        W47988  44.314  38.941  14.376
84056W        W47989  12.264   3.819   0.396
84057W        W47990  12.755  10.669  12.925
84058W        W47991  21.169   6.862   0.352
84059W        W47992  27.486  11.311   2.794
84060W        W47993  27.105   9.872   1.777
84061W        W47994  21.753  31.519   2.844
84062W        W47995  26.135  12.831  11.544
84063W        W47996  44.503  15.084  12.844
84064W        W47997  44.449  12.834  13.426
84065W        W47998  29.603   3.369   4.720
84066W        W47999   0.986  40.918  12.566
84067W        W48000  10.355  26.462  13.014
84068W        W48001  12.835  11.371  11.118
84069W        W48002   3.221   0.442   2.365
84070W        W48003  17.730  33.107   3.342
84071W        W48004  34.520  32.059  10.532
84072W        W48005  23.152  33.492  11.019
84073W        W48006   0.294  25.013   3.841
84074W        W48007  15.117  31.048  11.111
84075W        W48008  18.600   7.311   1.253
84076W        W48009  41.044   2.255   4.179
84077W        W48010  19.117  18.275   3.841
84078W        W48011   8.305  27.067   0.479
84079W        W48012  35.856  24.178   1.379
84080W        W48013   7.177  13.802   4.197
84081W        W48014  38.873   7.384   3.304
84082W        W48015  28.459  28.560   3.724
84083W        W48016  13.784  16.639   4.764
84084W        W48017  27.023  16.107   4.315
84085W        W48018  31.111  42.878  12.535
84086W        W48019  20.153  16.683  13.323
84087W        W48020  17.573  22.531  12.480
84088W        W48021  21.102  37.970  14.458
84089W        W48022  27.997  32.627   0.809
84090W        W48023  33.418  40.331   5.104
84091W        W48024  27.671   4.758   1.779
84092W        W48025   2.442  20.760   2.823
84093W        W48026   7.376  21.072   3.289
84094W        W48027  29.437  32.579  11.057
84095W        W48028  44.759  25.992  12.037
84096W        W48029  18.722  26.990  14.830
84097W        W48030  10.324   5.258   4.742
84098W        W48031  17.740  27.447   2.771
84099W        W48032   0.484  13.811   3.860
84100W        W48033  30.431  14.131   4.138
84101W        W48034  22.128   5.400  13.858
84102W        W48035  41.417  32.477  13.915
84103W        W48036  23.020  12.696  11.018
84104W        W48037  10.244  21.161  14.867
84105W        W48038   3.350  21.576   0.359
84106W        W48039   6.193  18.230  14.367
84107W        W48040  19.741   9.801   2.417
84108W        W48041  15.640   0.762   3.805
84109W        W48042  35.986  40.367  14.894
84110W        W48043  13.617   6.904  11.590
84111W        W48044  11.193  20.209   4.690
84112W        W48045   1.473  13.351   0.275
84113W        W48046  24.134  43.347  11.872
84114W        W48047  11.815  19.625  11.878
84115W        W48048  37.577  18.731  10.412
84116W        W48049  15.698  24.550   0.342
84117W        W48050  24.528  25.016   0.334
84118W        W48051  22.249   9.769  10.929
84119W        W48052  18.239  31.983  11.573
84120W        W48053  36.952   7.275   2.199
84121W        W48054  38.350  28.929  11.491
84122W        W48055  17.792  26.117   4.604
84123W        W48056  16.309  34.121  14.277
84124W        W48057  33.014  41.888  14.506
84125W        W48058  15.724  41.494   5.254
84126W        W48059  24.495  34.046  13.933
84127W        W48060  26.614  18.051   1.426
84128W        W48061   9.381  41.999   1.354
84129W        W48062  14.697   4.450  12.511
84130W        W48063   3.726   3.936   5.685
84131W        W48064   0.928  28.135  11.990
84132W        W48065  42.330  14.816  13.791
84133W        W48066  27.634  38.460  13.507
84134W        W48067  25.054  32.949  11.390
84135W        W48068   4.800  36.034   4.287
84136W        W48069  35.591  43.406   1.697
84137W        W48070  37.473  12.318  13.908
84138W        W48071   9.311  27.515   0.439
84139W        W48072  40.992  10.152  11.991
84140W        W48073  24.000  42.476   1.289
84141W        W48074  26.207  41.823   5.314
84142W        W48075  17.640  10.379   0.806
84143W        W48076   4.804  10.832  11.393
84144W        W48077   2.365  31.560  12.037
84145W        W48078  14.217   5.780  11.989
84146W        W48079  21.029   3.328   5.134
84147W        W48080   9.263   2.860  13.430
84148W        W48081   4.336  15.677   1.931
84149W        W48082  38.040   9.715   1.847
84150W        W48083  14.798  31.037  14.500
84151W        W48084  36.576  30.609   3.386
84152W        W48085   0.329  12.247  13.043
84153W        W48086   5.353  40.979   3.638
84154W        W48087   6.352   5.418   0.309
84155W        W48088  35.546  16.739  13.452
84156W        W48089  29.999   0.896  11.077
84157W        W48090  22.652  38.497  12.937
84158W        W48091  39.020   9.651  11.507
84159W        W48092  22.512  31.998  12.486
84160W        W48093   8.763   8.865   4.325
84161W        W48094  32.472  31.021   4.810
84162W        W48095  11.237  11.204   0.290
84163W        W48096  42.969  27.511  12.855
84164W        W48097   7.195  22.252  10.637
84165W        W48098  32.522  25.663  10.950
84166W        W48099  34.028  42.419   1.237
84167W        W48100  42.449  19.189   0.740
84168W        W48101  27.109  42.871   5.157
84169W        W48102  33.002  18.774  12.489
84170W        W48103  40.337  34.410  13.015
84171W        W48104  40.524  16.142   0.285
84172W        W48105  38.995  30.154  11.121
84173W        W48106  37.389  16.658   1.379
84174W        W48107  30.912  19.144   0.464
84175W        W48108  27.526  24.139   4.317
84176W        W48109  29.477  33.948  12.859
84177W        W48110   4.332  16.777   3.765
84178W        W48111  39.014   9.645  13.976
84179W        W48112  32.977  44.870   1.902
84180W        W48113   9.227  13.173   2.818
84181W        W48114  36.861  33.408   2.900
84182W        W48115  24.136  22.627  13.532
84183W        W48116  17.104  44.279  11.484
84184W        W48117  18.548  35.422   2.184
84185W        W48118  22.629  22.061   4.799
84186W        W48119  15.595  12.696  11.529
84187W        W48120  22.739  12.349   4.714
84188W        W48121   1.945  36.493  12.367
84189W        W48122  17.238  35.503   3.702
84190W        W48123  26.084   3.258   1.281
84191W        W48124  13.795  25.172  14.009
84192W        W48125   9.323  36.977   4.689
84193W        W48126   0.938  11.701  10.505
84194W        W48127  40.874  40.926  11.506
84195W        W48128  24.660  16.703   2.246
84196W        W48129  38.379  23.059   2.263
84197W        W48130  43.293  32.095  11.513
84198W        W48131  12.741  24.496  12.072
84199W        W48132  25.997  33.448   0.931
84200W        W48133  31.532   9.155  12.981
84201W        W48134  16.567   8.345  12.522
84202W        W48135  43.297  39.538   3.838
84203W        W48136  40.955  26.511   0.263
84204W        W48137  22.049   1.385   3.711
84205W        W48138  33.115  38.868  13.050
84206W        W48139  33.561  10.212  12.444
84207W        W48140   5.817  17.111   3.776
84208W        W48141  26.464  25.617  12.350
84209W        W48142  43.410  18.765   1.395
84210W        W48143  43.917  11.657  11.981
84211W        W48144  39.040  38.363  13.871
84212W        W48145  30.554  22.224   0.479
84213W        W48146  11.846  32.557   3.204
84214W        W48147  39.957  37.045   2.290
84215W        W48148  20.121  16.608   3.770
84216W        W48149  37.985  37.854   4.761
84217W        W48150  32.103  24.987   4.753
84218W        W48151   5.333  18.664   4.630
84219W        W48152  40.312   5.340  10.538
84220W        W48153  30.033  13.681  11.022
84221W        W48154  43.343   6.838  12.410
84222W        W48155  25.095  20.217   4.153
84223W        W48156  12.204  19.638  10.508
84224W        W48157  18.725  17.653  14.445
84225W        W48158   6.277  39.929  12.011
84226W        W48159   9.193  30.428  14.023
84227W        W48160  29.008  14.226   1.728
84228W        W48161   8.756   4.728  14.990
84229W        W48162  10.871  38.381   2.265
84230W        W48163  42.454  18.581   3.771
84231W        W48164  44.830   7.184   1.920
84232W        W48165  31.559  11.633  11.950
84233W        W48166   0.902  18.100  11.993
84234W        W48167  32.413  14.216   4.188
84235W        W48168   8.315   8.240   0.289
84236W        W48169  15.268  22.741  14.388
84237W        W48170  21.035  13.180   4.631
84238W        W48171  23.614   2.797   0.247
84239W        W48172  13.701   5.346   3.369
84240W        W48173  23.152   7.822   1.369
84241W        W48174  34.040  17.249   0.924
84242W        W48175  19.631  11.212  14.369
84243W        W48176  38.045  10.809  12.459
84244W        W48177  26.586   7.897  11.063
84245W        W48178  29.123   1.976  13.538
84246W        W48179   2.247  14.137  11.421
84247W        W48180  37.922  29.922   1.843
84248W        W48181  43.011  14.138  12.073
84249W        W48182  13.261  43.953   2.280
84250W        W48183  39.981  10.848   3.833
84251W        W48184  27.481  24.125   0.811
84252W        W48185  29.580  26.090   4.293
84253W        W48186  22.053  22.103   1.779
84254W        W48187  38.012  16.265   4.759
84255W        W48188  26.066  36.971   3.186
84256W        W48189   8.239  10.231   4.761
84257W        W48190  37.486   1.897  11.014
84258W        W48191  43.492  18.058  14.762
84259W        W48192   2.805  37.531  10.930
84260W        W48193  10.295  12.648  14.276
84261W        W48194  14.141  22.583   5.102
84262W        W48195   3.334  30.101  13.909
84263W        W48196  42.410  21.246  10.477
84264W        W48197  19.558  39.858  12.415
84265W        W48198   6.340   3.260   4.304
84266W        W48199  18.294  21.084  11.562
84267W        W48200  41.390   7.891  11.951
84268W        W48201  36.920  13.325  12.948
84269W        W48202   1.918   8.196   1.797
84270W        W48203  43.790   1.395   2.696
84271W        W48204  19.568   8.782  13.545
84272W        W48205   8.746   5.337   3.703
84273W        W48206  38.076   2.872   0.845
84274W        W48207   3.366  32.543  10.638
84275W        W48208  28.597  43.303  13.965
84276W        W48209  31.058  43.283   4.741
84277W        W48210  28.022  40.981  10.417
84278W        W48211  42.002  26.531   4.207
84279W        W48212   1.337  17.194  13.534
84280W        W48213  18.098  34.040   1.359
84281W        W48214  22.564  25.150  10.127
84282W        W48215  41.397  25.618   3.843
84283W        W48216  23.579  28.591   3.231
84284W        W48217  25.668   3.373   2.360
84285W        W48218  40.419  35.436   3.291
84286W        W48219  18.082  29.470  12.387
84287W        W48220  43.486  15.266  10.973
84288W        W48221  39.480  29.001   0.242
84289W        W48222  21.747  36.926  13.989
84290W        W48223  26.478  12.281  10.065
84291W        W48224  31.065   4.367   4.705
84292W        W48225   4.228   5.837  13.933
84293W        W48226  25.030  42.939   1.451
84294W        W48227  13.630  29.590   2.219
84295W        W48228  19.758  31.026  12.385
84296W        W48229  42.330  38.359  14.388
84297W        W48230  20.107  22.662   9.996
84298W        W48231  24.005   7.761  12.930
84299W        W48232  32.136  44.878  10.466
84300W        W48233  10.717   2.359  12.409
84301W        W48234  12.315   0.359  13.061
84302W        W48235  16.701   7.412   0.408
84303W        W48236  24.072  28.152  11.117
84304W        W48237  11.259   0.787   1.820
84305W        W48238  44.367  33.564   4.759
84306W        W48239  19.599  22.134   4.770
84307W        W48240   8.659  18.656  14.844
84308W        W48241   0.425  40.049   3.186
84309W        W48242  26.691  21.731   2.663
84310W        W48243  10.338  44.295   5.271
84311W        W48244  35.015  26.496  11.563
84312W        W48245  40.304  15.231   2.368
84313W        W48246  17.263  44.423   3.307
84314W        W48247  44.278   6.211  14.510
84315W        W48248  42.788  10.209  12.412
84316W        W48249  39.534  34.527   0.851
84317W        W48250  41.908  39.557  12.046
84318W        W48251  32.485  43.921  14.408
84319W        W48252  10.297  40.024  13.511
84320W        W48253  31.617  14.728  14.507
84321W        W48254   6.833   1.753  10.415
84322W        W48255  27.516  38.052  14.285
84323W        W48256  33.597  23.728  13.995
84324W        W48257  24.121  40.016   2.897
84325W        W48258  39.466  35.503   0.362
84326W        W48259  15.672   9.158   2.341
84327W        W48260  32.046   4.761   4.306
84328W        W48261  22.185   0.955   4.116
84329W        W48262  10.368   6.898  10.412
84330W        W48263  42.348   1.242   1.761
84331W        W48264  26.619  23.165   3.666
84332W        W48265   4.343  25.149  12.468
84333W        W48266  16.257  26.048   1.862
84334W        W48267  20.150  24.147  13.330
84335W        W48268   0.299  44.841  11.561
84336W        W48269   5.410   0.976   3.169
84337W        W48270  41.925  25.606  11.090
84338W        W48271  31.605  31.002  11.589
84339W        W48272  15.322  25.540   2.787
84340W        W48273  38.015  22.043   4.309
84341W        W48274  22.557   5.693  13.448
84342W        W48275   3.302   9.730  12.572
84343W        W48276  41.324  13.281  13.976
84344W        W48277   9.855  32.625   0.442
84345W        W48278  44.956  26.988   1.254
84346W        W48279  25.619  31.427  12.094
84347W        W48280  14.605  31.639  12.922
84348W        W48281  42.841  43.817   3.269
84349W        W48282  26.617  21.534   3.368
84350W        W48283  42.335   2.812   3.173
84351W        W48284  33.107  38.829   1.251
84352W        W48285  11.218   1.866   0.301
84353W        W48286   3.434  19.242   3.250
84354W        W48287  40.546  18.752  12.990
84355W        W48288  26.635  20.736   3.634
84356W        W48289  24.495  44.824  12.497
84357W        W48290  36.089  30.466   3.724
84358W        W48291  21.532  12.832   9.539
84359W        W48292   8.206   6.408  13.937
84360W        W48293   9.752   5.905   3.182
84361W        W48294  27.196  38.896  13.318
84362W        W48295  24.100  11.364  14.505
84363W        W48296  41.358  31.918   2.197
84364W        W48297  14.635  21.243   0.285
84365W        W48298  28.166   6.247  10.997
84366W        W48299  19.233  36.850  13.383
84367W        W48300  17.129  21.223   2.741
84368W        W48301  38.971  30.909  12.406
84369W        W48302  12.211  37.338   4.825
84370W        W48303   7.174   1.460  11.423
84371W        W48304  16.685  24.492  13.946
84372W        W48305  39.332  36.506   3.343
84373W        W48306   2.323  13.697   1.332
84374W        W48307   5.927   7.299   0.472
84375W        W48308   5.724  44.471  11.960
84376W        W48309  13.268   7.895  10.642
84377W        W48310  31.905  43.925  10.906
84378W        W48311  39.933   5.405   0.751
84379W        W48312  44.945  15.199  10.582
84380W        W48313  36.939  19.710   3.187
84381W        W48314  21.043   4.228   2.773
84382W        W48315  21.636  12.303  14.834
84383W        W48316   4.754  29.663  11.972
84384W        W48317  11.368  10.140   0.440
84385W        W48318   0.773  41.000   4.754
84386W        W48319  23.090  11.681   0.968
84387W        W48320  29.455  29.646   0.892
84388W        W48321   6.876  13.707  11.484
84389W        W48322  32.057  16.232  14.431
84390W        W48323  19.541  12.730  13.495
84391W        W48324  17.769  37.998  13.505
84392W        W48325  21.047  11.309  11.088
84393W        W48326   3.253   4.941   1.928
84394W        W48327  18.759  15.295   3.170
84395W        W48328  25.991  20.188   3.281
84396W        W48329   4.797  37.969  12.001
84397W        W48330  41.425  25.016  11.587
84398W        W48331  15.261   4.812  13.054
84399W        W48332  16.214  14.674  11.074
84400W        W48333  18.579  34.013  12.502
84401W        W48334  16.288  36.538  12.393
84402W        W48335  20.698  38.879   4.283
84403W        W48336  17.076  14.170  10.090
84404W        W48337   9.209   1.322   0.256
84405W        W48338  19.119   8.689   3.181
84406W        W48339  40.970  21.121  13.337
84407W        W48340   6.375  18.616  12.050
84408W        W48341   4.913  30.161  10.422
84409W        W48342   8.895  17.280   3.227
84410W        W48343   7.224  18.628   1.753
84411W        W48344   2.245  42.310  14.816
84412W        W48345  35.000   4.253  14.512
84413W        W48346  16.673  10.851  12.980
84414W        W48347  12.788  37.471  11.032
84415W        W48348  33.588  36.936  11.926
84416W        W48349  21.208  23.994  10.541
84417W        W48350   4.728  35.476   0.897
84418W        W48351  17.071  43.843  14.458
84419W        W48352   6.320  33.064   3.735
84420W        W48353  22.190   0.812   3.633
84421W        W48354   9.190  10.817   0.825
84422W        W48355  37.373  10.720   0.362
84423W        W48356  15.658  44.265  10.914
84424W        W48357  31.153   9.378   4.735
84425W        W48358  15.316  25.493  14.281
84426W        W48359  26.479  31.484   3.729
84427W        W48360  35.467  13.148  13.816
84428W        W48361   5.750   5.417  12.012
84429W        W48362   9.846  37.958  12.846
84430W        W48363  44.768  22.664  13.536
84431W        W48364  34.969  12.851  10.135
84432W        W48365  43.415  38.438  12.957
84433W        W48366   9.683  33.543   2.185
84434W        W48367  20.550  33.515  13.363
84435W        W48368   5.420  32.985   1.337
84436W        W48369  31.580  34.014   2.834
84437W        W48370   5.336   6.426   4.131
84438W        W48371   3.228  20.537  13.503
84439W        W48372   5.439  41.327  13.376
84440W        W48373  11.741   9.394  12.049
84441W        W48374  27.087  42.404   1.702
84442W        W48375  24.059  39.317   1.857
84443W        W48376  13.763  27.504   2.813
84444W        W48377  41.992  36.979  13.827
84445W        W48378  41.315  39.318  11.418
84446W        W48379  43.011  22.629   1.411
84447W        W48380  16.770  23.714   1.319
84448W        W48381  28.435  41.312  14.496
84449W        W48382  44.276  32.482   0.378
84450W        W48383   7.804  20.254  13.027
84451W        W48384  33.072  27.048  12.429
84452W        W48385   4.440   4.702  14.807
84453W        W48386  12.118  43.803  14.380
84454W        W48387  40.526  35.560   1.819
84455W        W48388  32.053  32.522   0.828
84456W        W48389  44.008  10.289   3.294
84457W        W48390  34.985  39.993  12.417
84458W        W48391  40.440  21.255   2.219
84459W        W48392  17.177  43.804   4.597
84460W        W48393  27.499  32.062  14.286
84461W        W48394   1.432  18.565   1.825
84462W        W48395  11.135  24.664   3.203
84463W        W48396   6.339  30.462   1.706
84464W        W48397  16.789  11.691  12.572
84465W        W48398  41.382  33.009  11.112
84466W        W48399  36.350   5.700   0.376
84467W        W48400  34.010  29.587  14.968
84468W        W48401   9.292  38.996   2.232
84469W        W48402  16.660   0.881   2.256
84470W        W48403  27.558  34.890   4.664
84471W        W48404  43.830  35.480  14.930
84472W        W48405  31.403  38.465  11.100
84473W        W48406  32.064  31.086   2.733
84474W        W48407  40.442   2.299   1.251
84475W        W48408  20.633   3.772  13.536
84476W        W48409  24.688  24.656   3.710
84477W        W48410  18.749  32.446  12.446
84478W        W48411  17.232   2.312   2.777
84479W        W48412  41.887  39.320   0.290
84480W        W48413  11.209  27.561  11.523
84481W        W48414  35.369  21.125   2.694
84482W        W48415  20.168  31.544   4.314
84483W        W48416  27.174  35.106   1.389
84484W        W48417  27.141  31.449   3.272
84485W        W48418  17.169  23.666   0.813
84486W        W48419  26.972   1.406  13.312
84487W        W48420   7.231  22.671  12.905
84488W        W48421  16.772  33.923   2.237
84489W        W48422   3.892  34.533  11.961
84490W        W48423  17.293  27.021  10.128
84491W        W48424  24.482  28.950   4.126
84492W        W48425  20.069  32.597   3.234
84493W        W48426  39.375  15.271   0.307
84494W        W48427  30.070  20.174   1.907
84495W        W48428   9.231  16.640  14.960
84496W        W48429  25.613  20.690  12.990
84497W        W48430  13.836  32.910  13.400
84498W        W48431  42.963  11.657  11.009
84499W        W48432  31.093  15.703   2.295
84500W        W48433  35.532   1.906   0.934
84501W        W48434  10.185  34.904  10.408
84502W        W48435  23.127   6.237   2.788
84503W        W48436  20.724  39.966   1.336
84504W        W48437  19.628  18.599   1.418
84505W        W48438  28.995  13.247   1.331
84506W        W48439   7.753  38.569   0.333
84507W        W48440  22.173  17.208   0.284
84508W        W48441  36.454  11.277   1.227
84509W        W48442   3.886  37.567  10.419
84510W        W48443  37.354  19.692  13.350
84511W        W48444   7.822  15.681   1.321
84512W        W48445  11.167  36.549   1.357
84513W        W48446   8.340  38.964   4.217
84514W        W48447  44.453  29.524   2.180
84515W        W48448  14.198   5.226   4.155
84516W        W48449   4.243  12.121   4.300
84517W        W48450  20.710  40.980   4.334
84518W        W48451  34.608   0.321   2.698
84519W        W48452  39.055  28.155   0.309
84520W        W48453  34.027  42.283   4.338
84521W        W48454   4.804   0.847   0.744
84522W        W48455  24.032  33.032  14.773
84523W        W48456   6.891  26.662   1.224
84524W        W48457  13.128   5.758   4.273
84525W        W48458   8.395  35.372  10.419
84526W        W48459  44.455  16.075   1.326
84527W        W48460  24.160  29.654   0.809
84528W        W48461  28.456  34.063   4.162
84529W        W48462  29.631  22.732   9.979
84530W        W48463  41.029   2.374   4.646
84531W        W48464  27.476  36.863  12.991
84532W        W48465  27.600  17.060   4.747
84533W        W48466   4.304   8.240   1.825
84534W        W48467  20.544   6.421  11.036
84535W        W48468  35.563   6.268   1.929
84536W        W48469   0.776  32.434  13.511
84537W        W48470  15.249  11.788  14.924
84538W        W48471  38.396   4.434  13.927
84539W        W48472  41.927  22.229   4.235
84540W        W48473  30.146  10.760   4.198
84541W        W48474  29.099   0.826   4.809
84542W        W48475  18.746  43.767  14.295
84543W        W48476  30.445   0.370  12.526
84544W        W48477  43.366  20.625   2.269
84545W        W48478  18.166   5.309   0.428
84546W        W48479   1.241   2.742  11.988
84547W        W48480  37.562  28.505   0.824
84548W        W48481  14.260  43.478   2.723
84549W        W48482  40.430  29.936   4.247
84550W        W48483  37.049   7.672  14.501
84551W        W48484   0.867  43.385   2.324
84552W        W48485  35.992  44.787   3.719
84553W        W48486  27.568   1.744  13.317
84554W        W48487  37.478  31.441   2.891
84555W        W48488  34.387  25.685   4.637
84556W        W48489  40.988  38.888   1.356
84557W        W48490   8.826   6.224   3.217
84558W        W48491   1.902  17.710  14.847
84559W        W48492  20.149   6.289  12.043
84560W        W48493   0.412  33.487   1.299
84561W        W48494  36.920   5.231  14.386
84562W        W48495  37.510  28.452  10.939
84563W        W48496  30.495  32.399   2.662
84564W        W48497  44.864  13.661  10.526
84565W        W48498  40.042  20.561  14.825
84566W        W48499  35.029  10.296   9.945
84567W        W48500  28.554  40.306  14.305
84568W        W48501  44.287   2.376   1.324
84569W        W48502  34.950  22.040   3.278
84570W        W48503   1.777  32.079   1.305
84571W        W48504  15.729  31.945   9.998
84572W        W48505  35.524  13.273  12.036
84573W        W48506   8.314  30.464   0.471
84574W        W48507  16.247  39.847  11.389
84575W        W48508   5.897  14.262  14.910
84576W        W48509  43.359  26.019   0.775
84577W        W48510  33.561  31.609  10.944
84578W        W48511  44.374  40.398  11.948
84579W        W48512  41.511  29.460   3.682
84580W        W48513  32.516  13.200  13.926
84581W        W48514  28.080  31.123  12.872
84582W        W48515   2.373  26.001   3.658
84583W        W48516  16.089  38.959   0.302
84584W        W48517  19.592  43.866  10.939
84585W        W48518  36.525  33.545  13.449
84586W        W48519   1.893   4.223  14.795
84587W        W48520  17.274  12.357  12.934
84588W        W48521  21.642  11.752  11.111
84589W        W48522  41.840   1.290   3.305
84590W        W48523  30.415  11.231  11.423
84591W        W48524  27.157  16.735   3.374
84592W        W48525  19.179  34.610  11.124
84593W        W48526  24.997  10.821   1.280
84594W        W48527  24.974  41.917  13.531
84595W        W48528  11.177  17.259  14.787
84596W        W48529  44.377  17.785   0.895
84597W        W48530  30.959  29.142   4.650
84598W        W48531  37.854  31.971   3.223
84599W        W48532  19.744  28.550  14.012
84600W        W48533  14.220  11.772  13.466
84601W        W48534   6.843   7.828   0.828
84602W        W48535   6.758  10.848  12.998
84603W        W48536  24.668  41.338   2.326
84604W        W48537  15.761  33.382  14.512
84605W        W48538  22.089   2.316  12.385
84606W        W48539  34.931  26.184   0.937
84607W        W48540  43.973  22.999  14.969
84608W        W48541   3.353   8.865  10.969
84609W        W48542  16.798  40.810  12.488
84610W        W48543  34.482   3.796   3.821
84611W        W48544   6.238  30.912  10.993
84612W        W48545   8.765  41.037   0.794
84613W        W48546   2.368  18.655   1.785
84614W        W48547  44.260  42.923  10.522
84615W        W48548   8.329  23.577  11.942
84616W        W48549  41.812   4.378   0.854
84617W        W48550  41.447  35.907   2.275
84618W        W48551  44.423  23.175  12.478
84619W        W48552  36.969  12.361  13.320
84620W        W48553  29.953   0.393   1.889
84621W        W48554   6.779   4.881  12.483
84622W        W48555   9.751  39.057  13.044
84623W        W48556   3.381  33.915  11.866
84624W        W48557  12.615  32.583  13.002
84625W        W48558  17.616   8.769   2.274
84626W        W48559  39.446   2.750  13.519
84627W        W48560  30.147  32.597   4.664
84628W        W48561  42.366   9.182  11.592
84629W        W48562  29.664   7.691  12.092
84630W        W48563  14.767  37.411   3.329
84631W        W48564   6.345  23.505   4.828
84632W        W48565  33.456   7.306   3.643
84633W        W48566  18.268  22.576   4.204
84634W        W48567  29.617  43.316   5.313
84635W        W48568  16.673  14.705   0.948
84636W        W48569  18.069  41.954  14.930
84637W        W48570  19.214  23.649   4.343
84638W        W48571  33.943  16.297   3.342
84639W        W48572  35.997   4.774   4.252
84640W        W48573  20.659  41.948   3.703
84641W        W48574  28.502   5.339  13.391
84642W        W48575   5.227   2.368  11.029
84643W        W48576  23.225  33.478  13.945
84644W        W48577  35.380  13.616  14.880
84645W        W48578  35.948  27.575   4.185
84646W        W48579  20.567  20.148  11.410
84647W        W48580   3.944   4.269   3.712
84648W        W48581   3.325  41.866  10.641
84649W        W48582  22.154  17.702  14.782
84650W        W48583   0.398  24.685  10.414
84651W        W48584   6.255  21.602  10.553
84652W        W48585  36.488  10.352   0.306
84653W        W48586   1.271  39.956   4.726
84654W        W48587  38.034   4.873  10.449
84655W        W48588  15.625  28.439  13.046
84656W        W48589  38.442  39.981   4.175
84657W        W48590  13.147  15.693  13.463
84658W        W48591  22.179   0.469   2.893
84659W        W48592   5.808   9.741  12.851
84660W        W48593   9.766  42.863   2.808
84661W        W48594  19.234  33.991  11.518
84662W        W48595  34.540  38.428   2.310
84663W        W48596   3.911   3.830   1.355
84664W        W48597   6.895  10.220   4.820
84665W        W48598   5.813   7.399   0.758
84666W        W48599  41.408   5.354  13.394
84667W        W48600   8.847  13.784   2.253
84668W        W48601  37.364  27.480   1.436
84669W        W48602  23.675  20.767  10.477
84670W        W48603  30.949  14.322  14.370
84671W        W48604  39.511   4.764   1.934
84672W        W48605   3.453  19.040   0.914
84673W        W48606  27.170  19.621  11.951
84674W        W48607  42.404  38.860   0.269
84675W        W48608   4.913   4.402   4.170
84676W        W48609   8.389  27.471  14.424
84677W        W48610  44.465  35.516   3.331
84678W        W48611  15.633   9.672   3.837
84679W        W48612  38.922  39.038   3.761
84680W        W48613  14.245  15.586  14.453
84681W        W48614  10.314   5.736  14.361
84682W        W48615   8.862  35.389   2.718
84683W        W48616  38.478   1.358   4.121
84684W        W48617   1.816  13.191  14.499
84685W        W48618   9.802  12.276  14.783
84686W        W48619  11.314  40.362  11.579
84687W        W48620  22.056  10.753   2.340
84688W        W48621  25.006   3.721  11.594
84689W        W48622  15.190  35.092  14.392
84690W        W48623   5.375  29.529   2.291
84691W        W48624  31.046  42.303  12.386
84692W        W48625  23.610  22.203   4.173
84693W        W48626  12.254  30.040  14.476
84694W        W48627  12.741   1.740  13.458
84695W        W48628  42.281  15.606   0.857
84696W        W48629   7.905  41.997  13.388
84697W        W48630   9.847  19.539   3.229
84698W        W48631   1.249  29.076  10.552
84699W        W48632  24.090  36.985   3.177
84700W        W48633   8.663   2.254  14.298
84701W        W48634  42.491  40.958  13.372
84702W        W48635  21.686  41.899  11.480
84703W        W48636  14.610  13.716   4.735
84704W        W48637  11.806  30.050  13.814
84705W        W48638  44.431   1.845   1.704
84706W        W48639  42.832   6.771   3.822
84707W        W48640  24.154   7.183   1.292
84708W        W48641   6.804  10.638  14.297
84709W        W48642  25.474   0.323   5.147
84710W        W48643  23.669  19.116   1.224
84711W        W48644  16.606  20.173   2.349
84712W        W48645  11.218  35.912   1.908
84713W        W48646   7.715  29.597  13.425
84714W        W48647  31.090  26.680  13.327
84715W        W48648  13.818  33.537  12.507
84716W        W48649  19.624  10.847   0.385
84717W        W48650  33.391  19.233   4.237
84718W        W48651  24.092  20.065  14.881
84719W        W48652   7.176  44.284   4.752
84720W        W48653  24.205  28.552  14.972
84721W        W48654  14.770  28.061   1.712
84722W        W48655  11.645  14.216  11.906
84723W        W48656  14.104  26.508   1.301
84724W        W48657  29.538  29.509   4.680
84725W        W48658  42.466  39.439  11.606
84726W        W48659   3.413  16.318   1.340
84727W        W48660  14.665  32.976   0.453
84728W        W48661  33.045  27.051  14.984
84729W        W48662   3.284  17.740   0.843
84730W        W48663   6.826  25.122  11.999
84731W        W48664  23.208   8.728  12.871
84732W        W48665  22.084  13.827   2.197
84733W        W48666  22.555  29.650  14.024
84734W        W48667  16.575  36.399   2.876
84735W        W48668  39.521  33.422   4.283
84736W        W48669  19.637  29.539   2.706
84737W        W48670  28.676  16.223  12.514
84738W        W48671   3.346   9.879   0.326
84739W        W48672  13.646  15.608  11.550
84740W        W48673  29.520  30.115  11.585
84741W        W48674  14.593  19.650   4.273
84742W        W48675  35.385  23.988  13.803
84743W        W48676  41.792  28.152  10.150
84744W        W48677  26.486  42.020  11.947
84745W        W48678   3.347   3.265   3.669
84746W        W48679  16.185  30.055   1.389
84747W        W48680  15.591  44.342  10.578
84748W        W48681   6.854  35.596   0.905
84749W        W48682   6.305   8.291   0.415
84750W        W48683   0.425  19.089  13.409
84751W        W48684   1.886  18.136  12.367
84752W        W48685  24.678   4.880   0.930
84753W        W48686  33.587  26.575  14.352
84754W        W48687  26.150   2.925  12.442
84755W        W48688  30.474  41.484   4.632
84756W        W48689   1.936  35.403   3.223
84757W        W48690  30.096  11.337  10.473
84758W        W48691  23.004  40.822   4.318
84759W        W48692  37.392  35.587  13.492
84760W        W48693  18.123  12.318  13.892
84761W        W48694   8.216  29.962   3.650
84762W        W48695  30.999  11.825   3.723
84763W        W48696  27.577   8.747  11.112
84764W        W48697  12.645  25.989  11.458
84765W        W48698  42.502  14.214   3.294
84766W        W48699  20.038   7.369   3.649
84767W        W48700   2.754  41.992  13.848
84768W        W48701   2.413  41.447  14.441
84769W        W48702   1.388   0.312  13.830
84770W        W48703   5.271   0.317   0.750
84771W        W48704  29.609  43.887   0.341
84772W        W48705  43.435   5.692  12.026
84773W        W48706  33.616  39.448   4.818
84774W        W48707  14.723  39.856   4.680
84775W        W48708  17.670   1.757  14.976
84776W        W48709  23.538  40.417  11.043
84777W        W48710  19.627  19.066   3.760
84778W        W48711  28.071   9.346  10.485
84779W        W48712   5.891  43.287  12.065
84780W        W48713   1.348  36.396   4.627
84781W        W48714  33.606  38.531   1.350
84782W        W48715   4.911   1.425  11.539
84783W        W48716  20.140  12.809  12.987
84784W        W48717  16.166  39.444   1.911
84785W        W48718  20.242  22.522  12.946
84786W        W48719  10.724  28.106  11.998
84787W        W48720  40.422  24.540   1.409
84788W        W48721  33.618  42.492   3.242
84789W        W48722  35.984   4.279  11.415
84790W        W48723  19.553  43.856   1.368
84791W        W48724  37.513  28.175   1.930
84792W        W48725  36.897  44.804   0.784
84793W        W48726  39.410   7.376  11.469
84794W        W48727   9.350  35.479  11.609
84795W        W48728  23.078  35.506   0.894
84796W        W48729  44.491  33.537   2.669
84797W        W48730  24.000  43.798  13.015
84798W        W48731   9.277  31.108  10.432
84799W        W48732   2.733  29.090  14.336
84800W        W48733  22.696   8.764  11.505
84801W        W48734  23.718  17.169  10.536
84802W        W48735  20.030  44.391  10.131
84803W        W48736  42.417  25.128   0.358
84804W        W48737  32.064  40.346  11.508
84805W        W48738  20.750  13.662  12.577
84806W        W48739   4.731  20.667  13.534
84807W        W48740  23.678  34.613  14.515
84808W        W48741  22.136   7.795   1.791
84809W        W48742   4.209  25.527   9.965
84810W        W48743  10.199  34.103   3.334
84811W        W48744   3.919  11.166  11.580
84812W        W48745  14.618  39.042  11.374
84813W        W48746  19.745  34.033   2.215
84814W        W48747   5.283  25.038  12.422
84815W        W48748  27.172   2.732  10.936
84816W        W48749  24.229  10.796   4.163
84817W        W48750  32.105   8.662   1.716
84818W        W48751  10.715  19.118  12.854
84819W        W48752   1.849   5.419  13.447
84820W        W48753   4.900   9.232  14.884
84821W        W48754  16.607  24.175   4.779
84822W        W48755  10.671  30.481  14.897
84823W        W48756  37.913   8.716  13.547
84824W        W48757  39.839  26.029  13.315
84825W        W48758  36.012  26.525  11.897
84826W        W48759   2.725  23.532   1.225
84827W        W48760   7.879  20.594  11.926
84828W        W48761  44.980  16.117   0.885
84829W        W48762  30.026  34.920  11.479
84830W        W48763  11.735  33.995   4.270
84831W        W48764  18.291   1.327  14.468
84832W        W48765   7.774   9.677   3.777
84833W        W48766  17.115  34.371  12.563
84834W        W48767  33.559   2.462  11.979
84835W        W48768  40.004  12.305   3.681
84836W        W48769  39.029  30.456   1.882
84837W        W48770  31.586  41.838  13.341
84838W        W48771  10.738   8.739   5.236
84839W        W48772  36.590  43.868   0.437
84840W        W48773  37.472  39.972  11.394
84841W        W48774  31.031   6.389   3.730
84842W        W48775   7.684  11.697   3.336
84843W        W48776   7.695  33.445  13.456
84844W        W48777  33.070  37.909   3.800
84845W        W48778  30.951   7.690   4.201
84846W        W48779   9.371  28.512   4.608
84847W        W48780  16.651   7.367  12.979
84848W        W48781  28.482  10.170   0.749
84849W        W48782  44.975  39.006   5.254
84850W        W48783  19.060  18.288   9.437
84851W        W48784  18.791  24.199   3.230
84852W        W48785  33.458  23.576  11.454
84853W        W48786  24.050  24.120  11.528
84854W        W48787   9.379  32.038   1.221
84855W        W48788   9.293  23.235  11.869
84856W        W48789  27.056  31.515  10.483
84857W        W48790  39.024  33.527   0.835
84858W        W48791  42.953  28.053   2.361
84859W        W48792  23.033  30.921  14.964
84860W        W48793  39.467  31.548   0.814
84861W        W48794  22.610  34.578  12.498
84862W        W48795  17.062  33.983   0.727
84863W        W48796  42.479  42.820   2.747
84864W        W48797  27.188  20.173  10.891
84865W        W48798  41.786  44.312   2.837
84866W        W48799  12.203  29.516   2.816
84867W        W48800   9.267  24.029  10.639
84868W        W48801   8.229  22.100   0.319
84869W        W48802   8.726   6.700   4.113
84870W        W48803   1.783  16.114  11.930
84871W        W48804  38.842  26.173   0.324
84872W        W48805   2.820  19.196  12.559
84873W        W48806  29.945  14.721  11.372
84874W        W48807  16.798  23.498   0.756
84875W        W48808  43.803  15.305   1.258
84876W        W48809  37.913  36.941  13.812
84877W        W48810  26.028  41.417  13.029
84878W        W48811  10.340  35.946   2.702
84879W        W48812  20.076  42.776   3.733
84880W        W48813  32.505  19.661   0.279
84881W        W48814  42.945  21.514   0.851
84882W        W48815  28.966   4.741   3.652
84883W        W48816   0.932  44.288   2.331
84884W        W48817  19.078  16.705   2.267
84885W        W48818  36.054  32.954   2.190
84886W        W48819   8.349   2.885  14.403
84887W        W48820  34.437  13.750  11.555
84888W        W48821  28.141  32.095   3.775
84889W        W48822  10.835  30.575   0.905
84890W        W48823  26.687  39.422   1.793
84891W        W48824  30.948   6.354  12.830
84892W        W48825  11.146   1.874   2.782
84893W        W48826   1.241  24.983   1.706
84894W        W48827  36.566  17.712  12.002
84895W        W48828   5.347  33.011  10.587
84896W        W48829  36.557  29.061  10.423
84897W        W48830   7.718  23.589  14.423
84898W        W48831  15.197  42.973   4.299
84899W        W48832  37.835  17.598   0.452
84900W        W48833  18.720  32.897  11.099
84901W        W48834  29.615  27.105  10.629
84902W        W48835  19.696   8.677   1.859
84903W        W48836  23.712  30.977  11.403
84904W        W48837  34.929  34.581   2.886
84905W        W48838  12.350  37.516  11.952
84906W        W48839  16.107  18.173   9.571
84907W        W48840  16.297  20.252   1.707
84908W        W48841   4.777   1.839  11.895
84909W        W48842   7.758  42.893  14.884
84910W        W48843  38.557  11.762  11.056
84911W        W48844  33.995  13.147  11.375
84912W        W48845  11.168  19.579  12.873
84913W        W48846   6.317  44.900   0.246
84914W        W48847   3.804   1.392  11.603
84915W        W48848  13.692  38.363  14.463
84916W        W48849  10.860  20.250  10.418
84917W        W48850  31.142   6.226  12.376
84918W        W48851  29.589  30.162   3.706
84919W        W48852  15.687  36.060  12.346
84920W        W48853  44.490  42.333   4.125
84921W        W48854  16.179  36.519   2.204
84922W        W48855  34.901  19.192   0.928
84923W        W48856  31.065  20.768  13.488
84924W        W48857  23.701  34.965  10.415
84925W        W48858  43.967   9.300   3.284
84926W        W48859  38.024  43.482   1.418
84927W        W48860  21.057  23.672  12.902
84928W        W48861  42.461  19.204  12.834
84929W        W48862  27.137  12.280   4.762
84930W        W48863  16.196  40.016  12.368
84931W        W48864  11.861  26.981  12.851
84932W        W48865  23.628  15.591   2.824
84933W        W48866  11.370  31.420  11.968
84934W        W48867  30.617  27.940  10.039
84935W        W48868   0.449  40.363   1.752
84936W        W48869  44.931  11.800   4.267
84937W        W48870  14.253  21.157  12.019
84938W        W48871  40.413  23.605   2.345
84939W        W48872  41.366  43.326  13.322
84940W        W48873  13.619  17.270   3.638
84941W        W48874  37.426  23.634   3.175
84942W        W48875  15.226  31.433   1.721
84943W        W48876  42.819   5.422  12.429
84944W        W48877  40.405  39.517  13.418
84945W        W48878  34.529  24.981   4.622
84946W        W48879  23.583  41.295  13.942
84947W        W48880  10.795   6.289   0.913
84948W        W48881   4.731  23.523   0.361
84949W        W48882  10.215   0.885  12.867
84950W        W48883  44.771  26.164  13.482
84951W        W48884  38.929  26.510  11.948
84952W        W48885  19.277  11.318  11.392
84953W        W48886  41.366  22.540  11.899
84954W        W48887  23.735  37.058   4.721
84955W        W48888  16.260  15.640  10.156
84956W        W48889  35.934  14.681   1.880
84957W        W48890  26.636   9.804  13.388
84958W        W48891  32.428  27.029  12.554
84959W        W48892  27.547   1.261  10.080
84960W        W48893  33.606  44.801   0.349
84961W        W48894  38.496  33.435  11.894
84962W        W48895  33.875  10.754   2.865
84963W        W48896  42.813  39.893  13.877
84964W        W48897  18.168  21.677  11.537
84965W        W48898  30.092  21.130  10.942
84966W        W48899   3.384  24.607  12.473
84967W        W48900  36.058   0.748   0.966
84968W        W48901  37.998  19.612  12.363
84969W        W48902  30.081  21.741  11.003
84970W        W48903  28.086   4.422   0.915
84971W        W48904  32.908  31.427  11.104
84972W        W48905   2.434  31.645  14.365
84973W        W48906   2.232  24.651   4.598
84974W        W48907  38.407  22.023  11.593
84975W        W48908  32.934   8.696   3.717
84976W        W48909  20.616  17.635  14.445
84977W        W48910  24.508  23.498  14.453
84978W        W48911  44.929  43.778   4.732
84979W        W48912   2.319  32.061  13.843
84980W        W48913  11.761  38.438  12.970
84981W        W48914  16.745   2.292   2.247
84982W        W48915   0.467  15.292   0.422
84983W        W48916  13.239  31.494  10.428
84984W        W48917  27.128  24.645   4.700
84985W        W48918  15.650  27.040  11.950
84986W        W48919  18.290   0.345   3.295
84987W        W48920  41.526   8.822   4.730
84988W        W48921  12.616  31.080  13.364
84989W        W48922  42.390  13.166   4.116
84990W        W48923  20.121  33.582  13.896
84991W        W48924   5.773  14.142   4.257
84992W        W48925   3.871   0.924  10.543
84993W        W48926  29.657  10.704   3.206
84994W        W48927   5.869  37.879   3.729
84995W        W48928  38.870  12.792   4.339
84996W        W48929  36.352  28.531  13.489
84997W        W48930   7.175  23.690   3.632
84998W        W48931  31.631  10.875   0.345
84999W        W48932  31.568   0.404   2.318
85000W        W48933  13.142   7.363   3.665
85001W        W48934  31.464   5.919   2.882
85002W        W48935   1.455  40.318   3.663
85003W        W48936  18.060  32.573  11.126
85004W        W48937  37.410  14.329  14.912
85005W        W48938   2.721  40.985   1.377
85006W        W48939  28.554  34.477   1.413
85007W        W48940   4.837  30.558   4.711
85008W        W48941  18.714  30.601  11.111
85009W        W48942  35.547  13.792  14.307
85010W        W48943  34.561   3.222  10.429
85011W        W48944  40.829  42.838   2.858
85012W        W48945  43.361  44.795  10.595
85013W        W48946  17.651  27.603   1.758
85014W        W48947   9.304   1.367   2.858
85015W        W48948  20.603  29.961  11.008
85016W        W48949  20.536  39.385  14.481
85017W        W48950  39.319  26.544   1.830
85018W        W48951  28.666   7.387   1.432
85019W        W48952   5.782  36.373  14.427
85020W        W48953  16.191  16.133   1.445
85021W        W48954   1.333  19.691  11.856
85022W        W48955  13.795  26.196   4.294
85023W        W48956  19.088   4.702  14.933
85024W        W48957  40.871  10.183  13.526
85025W        W48958  28.535  42.488   0.477
85026W        W48959  36.007  33.490   4.202
85027W        W48960  22.601   6.404  12.034
85028W        W48961  36.898   5.418  14.012
85029W        W48962  22.654  27.071   0.266
85030W        W48963  33.484  18.076   2.362
85031W        W48964  44.809  42.954  12.090
85032W        W48965  25.116  27.986   0.273
85033W        W48966  29.998  23.225   0.345
85034W        W48967  41.948  12.725  14.514
85035W        W48968  44.300  34.516  14.980
85036W        W48969  41.811  12.755  10.552
85037W        W48970  23.670  12.323  10.437
85038W        W48971   6.301  35.923   1.270
85039W        W48972  27.557  26.526  12.493
85040W        W48973  35.961  27.453   3.228
85041W        W48974  42.515  40.444  11.074
85042W        W48975  13.828  29.616  12.513
85043W        W48976  12.847  14.801  13.516
85044W        W48977  43.927  20.662  11.045
85045W        W48978   6.881  35.920   3.640
85046W        W48979   1.356  13.253   9.565
85047W        W48980   9.825  39.974   0.849
85048W        W48981  17.268  38.544  14.993
85049W        W48982  27.176  26.620   4.312
85050W        W48983  41.979  34.947  11.013
85051W        W48984  41.308  24.045  14.508
85052W        W48985   0.775  20.546  13.925
85053W        W48986   4.807  33.428  12.857
85054W        W48987  14.307  28.073   0.806
85055W        W48988  41.915   4.384   2.750
85056W        W48989  22.150   7.680  11.943
85057W        W48990  27.977  43.783   3.702
85058W        W48991  25.045  21.672   2.230
85059W        W48992  25.544   3.451  12.840
85060W        W48993  40.404  28.080   2.893
85061W        W48994  30.641   3.311   0.438
85062W        W48995  35.543  44.865  11.951
85063W        W48996  10.192  23.055  14.921
85064W        W48997   2.801  44.443  14.780
85065W        W48998  29.037  29.615  11.402
85066W        W48999  15.137   1.963   4.156
85067W        W49000  26.138  43.821  12.844
85068W        W49001  13.688  21.112  12.878
85069W        W49002  34.074   9.164  10.890
85070W        W49003  29.026  23.127  11.441
85071W        W49004  43.976   3.734  12.399
85072W        W49005  39.046  25.033  13.054
85073W        W49006  23.024   0.309   0.916
85074W        W49007  14.709   0.913   0.370
85075W        W49008  10.876   9.812  11.884
85076W        W49009  32.534  23.023  11.550
85077W        W49010  19.717  10.647   4.600
85078W        W49011  38.047   5.382   3.768
85079W        W49012   2.308   9.871   1.219
85080W        W49013  31.632  15.249   3.804
85081W        W49014  43.879  16.082   2.402
85082W        W49015  11.765  42.374  13.907
85083W        W49016   0.356   9.251   4.673
85084W        W49017   2.744  18.572   2.669
85085W        W49018  22.653  37.542   3.164
85086W        W49019   2.788   8.270   2.734
85087W        W49020  32.002  22.607   1.369
85088W        W49021  31.604   1.900   0.356
85089W        W49022   6.777  33.616  14.770
85090W        W49023  13.744  32.031   1.933
85091W        W49024  32.511  38.838   4.657
85092W        W49025  35.874  15.235   3.166
85093W        W49026  19.760  23.116   1.416
85094W        W49027  13.343   2.851  10.628
85095W        W49028  20.654  12.712   4.153
85096W        W49029  18.065  13.186  11.941
85097W        W49030  14.215  30.491   1.234
85098W        W49031  26.099  25.092  13.045
85099W        W49032  35.548  10.684  13.800
85100W        W49033   9.388  33.051   3.785
85101W        W49034  11.170   9.833  10.426
85102W        W49035   2.963  32.897  11.982
85103W        W49036  11.661  31.456   2.858
85104W        W49037  12.222  38.530   1.374
85105W        W49038  39.937  16.286  12.570
85106W        W49039   1.304  24.556   1.247
85107W        W49040  38.985  41.390   2.676
85108W        W49041   1.414  35.477  12.371
85109W        W49042   8.748  20.211   4.305
85110W        W49043  38.020  30.923  13.545
85111W        W49044   2.244   2.367   4.661
85112W        W49045  38.065   0.784   0.890
85113W        W49046   6.736  14.242  14.345
85114W        W49047  23.681  42.332   1.407
85115W        W49048  19.251  32.440  13.025
85116W        W49049  23.014  44.892   3.673
85117W        W49050  37.445  35.587  11.501
85118W        W49051  35.482  34.951   4.114
85119W        W49052  21.127  18.239   4.680
85120W        W49053   3.869   6.715  14.872
85121W        W49054  34.092   8.729  12.381
85122W        W49055  14.170  29.171   0.456
85123W        W49056  38.838  28.128  13.011
85124W        W49057  14.780  24.539  11.484
85125W        W49058  25.988   8.201  13.479
85126W        W49059  26.576  38.839   1.379
85127W        W49060   5.426  22.048   0.866
85128W        W49061   7.408  22.561   3.841
85129W        W49062  33.548  12.235  12.564
85130W        W49063  22.170  36.407  13.481
85131W        W49064  43.935  34.113   3.285
85132W        W49065  14.601  39.521   5.739
85133W        W49066  37.927  35.491   4.703
85134W        W49067   4.284   6.190   0.255
85135W        W49068  28.934  35.087  13.010
85136W        W49069  33.101  42.827  14.976
85137W        W49070  25.561  36.360   4.181
85138W        W49071   6.748  11.190  10.904
85139W        W49072  35.939  12.156   4.281
85140W        W49073  15.236  12.739   1.293
85141W        W49074  19.244  43.440   0.451
85142W        W49075   7.854   7.355   3.309
85143W        W49076  27.129  19.200   0.910
85144W        W49077  33.492  21.541   3.150
85145W        W49078  37.990  44.265   2.265
85146W        W49079  32.432  16.700  12.414
85147W        W49080   8.788  14.125  11.525
85148W        W49081   8.832  40.350   1.295
85149W        W49082  32.488  28.598   1.414
85150W        W49083  17.719  24.018  11.973
85151W        W49084  19.607   0.844  10.528
85152W        W49085  21.680  13.663  14.899
85153W        W49086  24.103   0.842   3.850
85154W        W49087  37.531   6.862  14.779
85155W        W49088  33.386  38.046   3.290
85156W        W49089   5.238  30.967  11.917
85157W        W49090   6.250  15.780  10.574
85158W        W49091   4.218  12.233  11.488
85159W        W49092   5.213   5.711   4.678
85160W        W49093  13.700  17.169  12.514
85161W        W49094  19.735  19.689  12.345
85162W        W49095  37.456  21.259   2.191
85163W        W49096   6.218  26.979  11.856
85164W        W49097  31.522  29.652  13.001
85165W        W49098  13.255  34.500   4.741
85166W        W49099  14.133   8.698   1.698
85167W        W49100  10.303  29.464   0.305
85168W        W49101  22.999   6.359   1.794
85169W        W49102  44.794  17.625  11.991
85170W        W49103   4.241  35.960  10.579
85171W        W49104  44.477  17.145   2.857
85172W        W49105  28.051  16.734   1.822
85173W        W49106  43.869  16.292  13.791
85174W        W49107  25.564  30.127  14.491
85175W        W49108  36.855  27.111   1.896
85176W        W49109  18.718  19.605  11.499
85177W        W49110   4.921  14.747  13.441
85178W        W49111   7.199  28.076   5.166
85179W        W49112   5.402  20.540  12.066
85180W        W49113  39.395  37.034   4.221
85181W        W49114  41.941  33.390   1.914
85182W        W49115   9.866  26.598  11.409
85183W        W49116  33.502  12.678   4.307
85184W        W49117  44.999  37.476   0.409
85185W        W49118   3.419   3.295   1.300
85186W        W49119  34.403  28.079  12.041
85187W        W49120  36.588   4.299   0.376
85188W        W49121  34.018  35.515   3.237
85189W        W49122   1.861  26.593  11.428
85190W        W49123  25.077  13.695   4.717
85191W        W49124  31.147  42.502  12.861
85192W        W49125  14.201  12.646   0.876
85193W        W49126   9.818   7.805  14.867
85194W        W49127  26.527  29.532  13.382
85195W        W49128  19.160  42.292  14.920
85196W        W49129  29.522  44.335  14.964
85197W        W49130  22.664  30.020   4.201
85198W        W49131  23.649  16.161  14.870
85199W        W49132  34.560  34.372   2.692
85200W        W49133  11.317  11.747   1.784
85201W        W49134  16.123  44.264   2.720
85202W        W49135  14.134  42.790   2.308
85203W        W49136   5.274  27.521   2.732
85204W        W49137  39.504  29.658  11.097
85205W        W49138   3.792  31.030   1.334
85206W        W49139  35.865  30.459   2.407
85207W        W49140  26.649   5.300   1.285
85208W        W49141  17.130  19.534  12.019
85209W        W49142   3.311  42.495  13.375
85210W        W49143   1.371   0.804   0.741
85211W        W49144  35.890  10.772  13.999
85212W        W49145  41.866  41.499   2.263
85213W        W49146   5.301  44.316   4.250
85214W        W49147  40.461  38.881   1.699
85215W        W49148  20.656  24.491   1.315
85216W        W49149   5.294  34.395  11.868
85217W        W49150  27.561  28.504  14.995
85218W        W49151  16.258  18.737  14.952
85219W        W49152  40.426  27.564   4.238
85220W        W49153  39.952   0.250  12.551
85221W        W49154  40.962  29.621   1.407
85222W        W49155  11.860  18.586   0.854
85223W        W49156   1.966  19.712   1.751
85224W        W49157  20.127  24.662  14.853
85225W        W49158  15.182  37.078  14.427
85226W        W49159  32.448  43.407  12.954
85227W        W49160  36.960   3.283   4.831
85228W        W49161  18.165  28.971  12.543
85229W        W49162  32.597  24.182   4.306
85230W        W49163  21.109  11.712   0.958
85231W        W49164   3.276  14.251   0.864
85232W        W49165  40.927  27.529   4.308
85233W        W49166  39.809  41.524   2.814
85234W        W49167   5.826  33.381  11.925
85235W        W49168  28.478  15.659   4.598
85236W        W49169  12.765  16.231   4.246
85237W        W49170  11.850   9.772   0.345
85238W        W49171   7.795   2.928   9.989
85239W        W49172  40.981  36.058   0.393
85240W        W49173  21.184   3.789   3.302
85241W        W49174  11.357  23.040  13.057
85242W        W49175  23.510  35.902   4.640
85243W        W49176   1.822   7.702  12.086
85244W        W49177  30.440  40.302  13.044
85245W        W49178  17.219  35.040  14.367
85246W        W49179  25.188  18.168  11.388
85247W        W49180  16.706  22.204   2.203
85248W        W49181  42.427  42.861   0.809
85249W        W49182  29.622  39.955  11.101
85250W        W49183  17.100   8.329  11.068
85251W        W49184  12.854   6.248  13.467
85252W        W49185  25.062  21.152   0.390
85253W        W49186  32.396  34.417   3.664
85254W        W49187  16.134  37.543  12.532
85255W        W49188  20.585  38.398  14.876
85256W        W49189   8.690   0.412  10.122
85257W        W49190  28.954  18.130  11.528
85258W        W49191   7.333  15.651   3.847
85259W        W49192   6.245  26.020   4.718
85260W        W49193  35.008  32.014   1.395
85261W        W49194  42.331  18.274  12.427
85262W        W49195  32.486  25.579  13.863
85263W        W49196  27.688  16.579   4.650
85264W        W49197  24.981  27.072   4.659
85265W        W49198  11.669   6.315   1.853
85266W        W49199   8.698  30.150  14.002
85267W        W49200  18.698  41.408   5.301
85268W        W49201  44.829   2.755   3.799
85269W        W49202  13.627   2.414  12.886
85270W        W49203  36.958  38.450  10.500
85271W        W49204  15.088  21.193  11.011
85272W        W49205  39.860   3.850   4.712
85273W        W49206  35.565  27.195   4.171
85274W        W49207   0.315  23.714   2.900
85275W        W49208  17.156  17.103   2.694
85276W        W49209  12.856  29.949   4.313
85277W        W49210   0.339  33.898  14.307
85278W        W49211  17.728  18.287   4.137
85279W        W49212  36.579  13.342   2.302
85280W        W49213  24.120  15.192   1.282
85281W        W49214   4.699  43.835  13.794
85282W        W49215  35.429  23.531   1.769
85283W        W49216   3.742  43.876  12.867
85284W        W49217  15.668  21.686  13.960
85285W        W49218   3.719  43.007  13.985
85286W        W49219   0.470   2.743  14.403
85287W        W49220  44.895  38.059  10.027
85288W        W49221  16.287  40.430   2.867
85289W        W49222  17.760  33.488   0.960
85290W        W49223  19.762  25.469  11.566
85291W        W49224  41.832  19.086  12.028
85292W        W49225  23.063  31.016  10.958
85293W        W49226  27.579  38.445  11.120
85294W        W49227  34.970   4.380  10.923
85295W        W49228   7.835  41.825   4.174
85296W        W49229  18.192  14.257   1.414
85297W        W49230  42.776  12.784  14.802
85298W        W49231   4.728  31.520  13.485
85299W        W49232  26.128   7.717   4.230
85300W        W49233  40.913  30.034   2.856
85301W        W49234  17.069  18.733  14.862
85302W        W49235  42.349  36.051   2.701
85303W        W49236   0.947  10.830  11.493
85304W        W49237  35.084  20.030  12.889
85305W        W49238   4.253   6.386  11.048
85306W        W49239   8.275  38.422  13.316
85307W        W49240  34.084  22.092  10.914
85308W        W49241  26.009  38.565  13.532
85309W        W49242   2.323  29.502  12.905
85310W        W49243  26.476  38.499  12.017
85311W        W49244   8.891  38.860   2.315
85312W        W49245  42.920  13.633  14.016
85313W        W49246  17.216  23.225   4.687
85314W        W49247  42.998  35.922   3.269
85315W        W49248  18.732  31.931   9.935
85316W        W49249  32.890  10.652  11.403
85317W        W49250   7.186  41.849  12.374
85318W        W49251  23.513  23.235  13.505
85319W        W49252  22.239  36.465   0.960
85320W        W49253  29.074  35.590   1.761
85321W        W49254  29.448  27.165   1.449
85322W        W49255   5.328  25.092   2.830
85323W        W49256  25.680  24.659  12.472
85324W        W49257  26.533  14.210   2.389
85325W        W49258   7.262  31.909   2.338
85326W        W49259   7.214  32.892  10.469
85327W        W49260  27.490   7.280   4.254
85328W        W49261  26.693  22.032   1.297
85329W        W49262  22.199   2.231   3.742
85330W        W49263   0.890  22.101  14.288
85331W        W49264   4.732  10.271   3.646
85332W        W49265  27.623   3.335  12.972
85333W        W49266  19.178  14.602  14.004
85334W        W49267  17.303  17.688  14.410
85335W        W49268  20.550  16.085  11.944
85336W        W49269  27.689  36.397   2.740
85337W        W49270   1.974  12.854  13.011
85338W        W49271  16.278  40.547   3.290
85339W        W49272  42.287  23.060  13.856
85340W        W49273  44.475  25.468  10.576
85341W        W49274  34.050  34.530   2.266
85342W        W49275  25.166  11.630   3.373
85343W        W49276  33.005  21.262  11.048
85344W        W49277   7.370  35.393   2.207
85345W        W49278  21.201  19.053   2.296
85346W        W49279   2.873  13.743  13.307
85347W        W49280  23.693   4.256  14.329
85348W        W49281   4.391  13.689  10.898
85349W        W49282  44.291  44.923  13.952
85350W        W49283  20.085  21.585  10.514
85351W        W49284  42.458  24.705  14.814
85352W        W49285  32.626   8.352   4.794
85353W        W49286  12.189  33.938  12.938
85354W        W49287  33.978   7.396   3.242
85355W        W49288  33.381   9.798  14.941
85356W        W49289  16.708  15.216   1.734
85357W        W49290  30.574  19.579  14.319
85358W        W49291  43.437  22.133   4.640
85359W        W49292  36.854  30.475   1.831
85360W        W49293  19.172  25.129  11.606
85361W        W49294  12.844   9.156   4.187
85362W        W49295  18.640   0.936   3.232
85363W        W49296  26.594   2.287   4.659
85364W        W49297   4.269  32.417   0.378
85365W        W49298  25.478  18.557  14.999
85366W        W49299  41.969   4.772   0.952
85367W        W49300  25.702   6.276   2.730
85368W        W49301  25.154  19.264  14.279
85369W        W49302   0.420  40.337   3.312
85370W        W49303  32.584  18.171  13.862
85371W        W49304  31.141  16.640   4.125
85372W        W49305   5.934   6.710  12.933
85373W        W49306  26.064  22.019   1.396
85374W        W49307  23.058  37.894   0.316
85375W        W49308  10.356  21.245   0.338
85376W        W49309  18.579  14.133   3.308
85377W        W49310  43.828   8.276  14.391
85378W        W49311  35.558  44.838  14.976
85379W        W49312  43.324  43.881   1.272
85380W        W49313  11.175   9.644  11.581
85381W        W49314  44.939  33.002   2.216
85382W        W49315  10.207  44.935   0.321
85383W        W49316  43.810   8.655  11.440
85384W        W49317  42.005   0.919  12.073
85385W        W49318  29.653  32.108  13.480
85386W        W49319   7.224   0.288  13.430
85387W        W49320  44.460  26.676  11.608
85388W        W49321  26.014  16.094   4.786
85389W        W49322  30.614  42.900  14.949
85390W        W49323  20.562  30.451  11.048
85391W        W49324  30.653  27.049  13.477
85392W        W49325  19.608  29.004   1.758
85393W        W49326  32.530   8.378   3.634
85394W        W49327  14.620   2.341  11.889
85395W        W49328  14.174  38.932  13.064
85396W        W49329  30.978  27.537   1.744
85397W        W49330  28.486  29.625  10.951
85398W        W49331  26.998   0.270   4.139
85399W        W49332   0.412  10.259   0.792
85400W        W49333  39.944  18.658  11.876
85401W        W49334  11.342  43.997   2.268
85402W        W49335   4.416  35.876   3.355
85403W        W49336  38.862   2.459  12.521
85404W        W49337  34.593   5.359  10.582
85405W        W49338   3.292   9.363  12.939
85406W        W49339  41.453  15.106   1.262
85407W        W49340  13.194  16.623  14.483
85408W        W49341  41.315  21.520   4.631
85409W        W49342  28.674   6.909  11.024
85410W        W49343  42.391  15.229  13.355
85411W        W49344  32.445   9.860   0.749
85412W        W49345  40.310  13.719  11.917
85413W        W49346  32.035  20.722   0.749
85414W        W49347  16.777  36.426  14.840
85415W        W49348  35.922   0.349  12.467
85416W        W49349  11.836  18.291  10.475
85417W        W49350  38.980  39.476   1.306
85418W        W49351  20.127   4.899   2.689
85419W        W49352  17.270  41.845   4.674
85420W        W49353  28.027   0.456   4.334
85421W        W49354  14.119  13.603  13.440
85422W        W49355  28.645  18.589   1.896
85423W        W49356  43.819   9.797   1.862
85424W        W49357  13.222  38.899  14.888
85425W        W49358  33.105  37.573  14.993
85426W        W49359  41.823  39.949   9.929
85427W        W49360   6.235   8.681   4.225
85428W        W49361   3.325   3.819  11.911
85429W        W49362  23.104  13.335   1.809
85430W        W49363   2.344  23.665   2.795
85431W        W49364  26.683  37.941  10.984
85432W        W49365  17.693  11.654  12.520
85433W        W49366  44.858  21.110  14.939
85434W        W49367  40.998  34.381  13.506
85435W        W49368  35.515  32.410   2.268
85436W        W49369  11.325  28.490   3.166
85437W        W49370  24.099  38.023  11.608
85438W        W49371   0.315  25.627  12.082
85439W        W49372  22.574   0.361  12.471
85440W        W49373  24.485   4.447   1.906
85441W        W49374  34.918  21.707  13.018
85442W        W49375  37.435  22.644  12.408
85443W        W49376  32.412  35.409   0.284
85444W        W49377   7.846  18.561  14.010
85445W        W49378   0.902  28.538  13.966
85446W        W49379   5.244   1.463  12.514
85447W        W49380   4.408  27.547   1.322
85448W        W49381  27.172  29.004   4.303
85449W        W49382  28.998  11.708  14.945
85450W        W49383  42.979  21.552  10.533
85451W        W49384  24.721  36.435  14.798
85452W        W49385  11.804  16.713  11.974
85453W        W49386  28.545  15.171   2.782
85454W        W49387  21.061  20.258  11.488
85455W        W49388  34.519  30.004  13.546
85456W        W49389  39.065  10.341   0.244
85457W        W49390  11.672  35.060   4.819
85458W        W49391  24.689   8.179  13.411
85459W        W49392  36.879  38.872   3.821
85460W        W49393  31.932   5.368  14.495
85461W        W49394  44.808  24.156  12.029
85462W        W49395  40.919  11.345   2.670
85463W        W49396   9.886   4.304   4.331
85464W        W49397  12.814  43.823  11.041
85465W        W49398  19.616  17.228   3.272
85466W        W49399  41.933  22.253  13.307
85467W        W49400  41.529   6.760  10.926
85468W        W49401  26.028  44.495   3.713
85469W        W49402   6.795  26.084  14.481
85470W        W49403  25.212  30.100   1.800
85471W        W49404  32.913  25.181   3.192
85472W        W49405  27.080  12.772  13.810
85473W        W49406  36.899  24.689   2.212
85474W        W49407  28.098  13.208   3.208
85475W        W49408  44.319  10.257  13.457
85476W        W49409  14.298  18.726  12.579
85477W        W49410  13.625  16.213   0.316
85478W        W49411  20.075  24.512   2.683
85479W        W49412   1.292  43.383  11.583
85480W        W49413  27.656   3.850  12.020
85481W        W49414  22.219  24.505  10.636
85482W        W49415   3.923  17.253   5.181
85483W        W49416   2.961  21.024   0.913
85484W        W49417  11.137   9.652  13.381
85485W        W49418  21.048  24.052   2.313
85486W        W49419   8.695  38.554  13.319
85487W        W49420  15.142   2.234  12.493
85488W        W49421  15.721  17.736   2.358
85489W        W49422  36.854   7.225  14.917
85490W        W49423  37.074  29.028   2.668
85491W        W49424  34.610  32.095  13.055
85492W        W49425  41.873  28.098  11.129
85493W        W49426  40.813   4.733  11.600
85494W        W49427   9.246   7.680   0.807
85495W        W49428  21.127  33.122  13.791
85496W        W49429   3.269  35.856   2.293
85497W        W49430  31.489  12.154   0.853
85498W        W49431   9.350  16.123  12.382
85499W        W49432  19.149  35.926   0.734
85500W        W49433  23.728  10.658  14.916
85501W        W49434  42.513  12.301  11.941
85502W        W49435   2.341  11.854  10.977
85503W        W49436   5.368  44.498  12.479
85504W        W49437  32.114  19.579   4.830
85505W        W49438  26.623  11.181  10.509
85506W        W49439  34.870  36.914   2.674
85507W        W49440   3.250  27.164  14.872
85508W        W49441  26.519  44.778   2.774
85509W        W49442  25.668  13.694   1.250
85510W        W49443  39.946  27.980  13.060
85511W        W49444  21.231  15.097  11.978
85512W        W49445  14.739  32.113   2.393
85513W        W49446  40.924  17.117   1.844
85514W        W49447  43.815  13.635   3.694
85515W        W49448  42.028  31.406  12.950
85516W        W49449  16.193  17.772  10.998
85517W        W49450   4.910  37.431   0.869
85518W        W49451   3.426  11.645   5.176
85519W        W49452  35.485  36.428  10.531
85520W        W49453   5.870  40.958  10.461
85521W        W49454  22.652  10.705  12.828
85522W        W49455  15.653  42.339   0.835
85523W        W49456   9.794   4.822  11.036
85524W        W49457  30.566  19.136  13.064
85525W        W49458  17.163  26.470  13.457
85526W        W49459  32.581   6.428   3.158
85527W        W49460  33.416  37.053  14.779
85528W        W49461  30.426  14.772  13.810
85529W        W49462   3.327  16.804   1.933
85530W        W49463  18.092  32.405  10.475
85531W        W49464  39.057  25.108  12.438
85532W        W49465  18.269  35.942   0.818
85533W        W49466  13.750  26.103   2.397
85534W        W49467   8.720  19.595   1.256
85535W        W49468   4.205  15.738  13.444
85536W        W49469  12.620  12.170   2.369
85537W        W49470   0.374  42.446  10.534
85538W        W49471  38.433  17.241  11.017
85539W        W49472  38.898  12.626  13.862
85540W        W49473  15.209  11.197   4.739
85541W        W49474  25.180  12.339   3.797
85542W        W49475  28.068   8.703  14.025
85543W        W49476  40.029  28.667  14.441
85544W        W49477  31.150   3.906  14.957
85545W        W49478  28.624  40.969   3.732
85546W        W49479   0.872  33.959  14.029
85547W        W49480   4.775  26.951   1.227
85548W        W49481  43.848  31.107   0.484
85549W        W49482   4.239   1.445   2.211
85550W        W49483   2.228  11.211  13.893
85551W        W49484   0.279  37.062  11.070
85552W        W49485  31.450  14.827   1.727
85553W        W49486   2.323  27.154  12.344
85554W        W49487  28.494  16.812   2.784
85555W        W49488   2.876   2.779   0.804
85556W        W49489   7.729  32.411   3.328
85557W        W49490  22.060  41.372   4.705
85558W        W49491   0.362  40.040   2.238
85559W        W49492  19.778   5.725   1.849
85560W        W49493   4.377  22.554  11.569
85561W        W49494   9.888  15.241  12.837
85562W        W49495  40.823  44.890   4.834
85563W        W49496   0.934  34.508  11.419
85564W        W49497  28.145  42.341  12.909
85565W        W49498  24.714  17.629   4.749
85566W        W49499  39.501  22.022   0.291
85567W        W49500  30.495   5.217   4.617
85568W        W49501  29.613  21.058  14.910
85569W        W49502  20.679  20.533   4.730
85570W        W49503  13.629  42.956   0.329
85571W        W49504  16.734  41.305   0.825
85572W        W49505  36.072  36.098  14.030
85573W        W49506  35.420  35.961  12.058
85574W        W49507   2.948  32.135  14.275
85575W        W49508  17.788  31.569  13.887
85576W        W49509   2.305   1.923  13.959
85577W        W49510   5.933  16.316  14.871
85578W        W49511  24.045  29.029  12.463
85579W        W49512  34.547   5.206   3.667
85580W        W49513  23.558  19.200   0.877
85581W        W49514   5.886  35.408  11.422
85582W        W49515  42.827  34.603   4.712
85583W        W49516  39.927  17.748   0.360
85584W        W49517  29.454   2.831  11.116
85585W        W49518  38.338  28.093  11.094
85586W        W49519   4.837  19.772  13.357
85587W        W49520  33.112  32.603   2.730
85588W        W49521  22.662   2.287   1.259
85589W        W49522  23.072  29.017  14.891
85590W        W49523   7.319   8.798   4.116
85591W        W49524  44.457  20.205  12.038
85592W        W49525   8.292  23.623  14.461
85593W        W49526  41.309  31.538   2.680
85594W        W49527   4.336  13.143   0.476
85595W        W49528  28.540   4.937  12.057
85596W        W49529  32.898  23.666   2.706
85597W        W49530  36.950   1.420   0.287
85598W        W49531   6.848  25.545  13.050
85599W        W49532   4.442  22.578   1.769
85600W        W49533  28.627  40.864   1.295
85601W        W49534  11.768  19.624  11.021
85602W        W49535  31.494  37.981   4.322
85603W        W49536  20.559  36.971  12.951
85604W        W49537  38.523  23.107   4.180
85605W        W49538  44.306   7.322   0.306
85606W        W49539  20.147  28.104   2.779
85607W        W49540   3.728  17.215   0.448
85608W        W49541  19.601  37.061  13.501
85609W        W49542  15.643   4.232  11.440
85610W        W49543  44.486  12.356  13.332
85611W        W49544  29.459  28.472  10.898
85612W        W49545  12.628  16.627   1.922
85613W        W49546   0.870   9.723  10.437
85614W        W49547  10.276  35.539   2.364
85615W        W49548   7.216  14.617   0.754
85616W        W49549  26.514  24.127   1.748
85617W        W49550   5.393  36.015  10.549
85618W        W49551  41.493  37.911  13.318
85619W        W49552  10.270   6.217  12.951
85620W        W49553  40.926  42.296  13.402
85621W        W49554  44.366  24.074   0.252
85622W        W49555  39.951  12.805   2.390
85623W        W49556  23.566  41.862  10.974
85624W        W49557  41.997  28.028   4.199
85625W        W49558  21.590  36.441   4.247
85626W        W49559   1.897  28.027   3.748
85627W        W49560  44.299  27.581  14.498
85628W        W49561  14.663   3.782   4.713
85629W        W49562   2.748  29.083  12.427
85630W        W49563   0.449  20.091   2.666
85631W        W49564   1.252  43.924   2.740
85632W        W49565  39.466  41.379   4.144
85633W        W49566   5.315  39.838   1.450
85634W        W49567  11.789   8.356   0.783
85635W        W49568   6.817  26.042  14.841
85636W        W49569  21.624  38.988  10.490
85637W        W49570   8.824  11.719  14.027
85638W        W49571  20.239   8.691  14.342
85639W        W49572   4.837   5.922  12.408
85640W        W49573   0.337  29.605  11.559
85641W        W49574  34.416  35.944   2.400
85642W        W49575  39.055   9.307  12.965
85643W        W49576   3.333  22.672   1.254
85644W        W49577  35.538  21.230   3.848
85645W        W49578  43.852  22.133  10.979
85646W        W49579  13.608  40.485  14.359
85647W        W49580  12.713   1.380   1.317
85648W        W49581  20.556  39.403  10.581
85649W        W49582  14.158  36.886  14.781
85650W        W49583  31.105  17.734  11.078
85651W        W49584  27.054   0.878   3.828
85652W        W49585  34.937  31.115  14.810
85653W        W49586   7.292  20.113   3.164
85654W        W49587  43.338  41.420   1.212
85655W        W49588   1.763   8.777  14.809
85656W        W49589   8.394  19.267  13.016
85657W        W49590   8.367   1.862   0.786
85658W        W49591  29.977  23.536  13.819
85659W        W49592  39.899   7.242   1.381
85660W        W49593   0.297  16.179   4.155
85661W        W49594   3.426  23.609   2.214
85662W        W49595  23.997  20.208   2.210
85663W        W49596  22.229   7.327  10.470
85664W        W49597  13.769  24.098   1.935
85665W        W49598  35.957   2.349  12.985
85666W        W49599  40.491  24.526  13.872
85667W        W49600  15.217   7.760   1.270
85668W        W49601   4.223  12.254   2.838
85669W        W49602   3.375  39.980   0.885
85670W        W49603  15.737  22.654   5.296
85671W        W49604  35.360   2.297  14.321
85672W        W49605  17.638  26.668  12.365
85673W        W49606  40.010  37.067   3.345
85674W        W49607   4.293  24.717  10.983
85675W        W49608  36.407  29.638  13.942
85676W        W49609  21.255   0.352  10.146
85677W        W49610  29.118  11.781   1.235
85678W        W49611  32.122  14.696  11.054
85679W        W49612   6.691  30.476  13.386
85680W        W49613  12.288  25.630   4.756
85681W        W49614  30.976  33.594  11.596
85682W        W49615   6.370   2.393   3.197
85683W        W49616   0.394  41.861  12.030
85684W        W49617  19.650  42.436   0.812
85685W        W49618  43.320  21.673  12.472
85686W        W49619  15.228   0.304   1.346
85687W        W49620  28.593  30.498  11.478
85688W        W49621   8.881   2.302  11.419
85689W        W49622  34.526  24.124  14.513
85690W        W49623  43.513  17.282   2.335
85691W        W49624   7.724   6.919   2.696
85692W        W49625  43.953  37.901   9.553
85693W        W49626   0.263  41.340  14.979
85694W        W49627  13.667  37.988  12.974
85695W        W49628  27.626  36.369   1.701
85696W        W49629  28.143  40.309   3.808
85697W        W49630   0.853   8.312  14.797
85698W        W49631  41.518  25.610   0.823
85699W        W49632  35.364  37.999  13.404
85700W        W49633  37.003  40.801  11.861
85701W        W49634  33.006  24.192   3.664
85702W        W49635  29.971  20.090  13.882
85703W        W49636   8.892  10.189   1.909
85704W        W49637  12.150  12.342   3.314
85705W        W49638  15.291  21.583  13.401
85706W        W49639  30.006  14.700   0.738
85707W        W49640   4.226  39.353   4.170
85708W        W49641  34.084  25.182  13.859
85709W        W49642  36.997  23.995   2.365
85710W        W49643  38.513  30.909   4.184
85711W        W49644  10.194   0.465   3.289
85712W        W49645  22.534  19.563  14.468
85713W        W49646  14.194  16.122  11.047
85714W        W49647  14.141  14.180  14.439
85715W        W49648  28.087  19.158  14.966
85716W        W49649  16.269   9.841  11.994
85717W        W49650  27.982  41.914   3.686
85718W        W49651  35.401  29.057  10.419
85719W        W49652  18.771   5.874   0.415
85720W        W49653  27.624  21.040   4.602
85721W        W49654  12.841  36.447  14.419
85722W        W49655  28.161   4.941  10.997
85723W        W49656  19.743  41.372   2.411
85724W        W49657  29.960  14.205   2.806
85725W        W49658  22.132   7.183   0.244
85726W        W49659  27.086  17.272   1.360
85727W        W49660   2.362  31.629   4.210
85728W        W49661  23.067  15.120  11.877
85729W        W49662  29.996   6.405   2.828
85730W        W49663  36.986  32.123   3.656
85731W        W49664   2.893  38.361  12.010
85732W        W49665  21.089   4.306  13.023
85733W        W49666   4.854  14.661  11.412
85734W        W49667  30.027   5.689  14.015
85735W        W49668  11.177  40.904  12.363
85736W        W49669   2.408  43.343  14.487
85737W        W49670  43.867  28.964  13.340
85738W        W49671  27.030  38.839   4.217
85739W        W49672  11.230  16.100  12.531
85740W        W49673  16.747  29.167   1.713
85741W        W49674  18.284  17.754  11.047
85742W        W49675  36.842  21.744   1.931
85743W        W49676  27.121  12.612  10.598
85744W        W49677  39.338  27.027  11.531
85745W        W49678  20.723  38.505  11.480
85746W        W49679  34.938  39.440  14.486
85747W        W49680   3.846  27.150   3.779
85748W        W49681  28.184  30.141  10.050
85749W        W49682  19.621   6.709   2.814
85750W        W49683  28.065   1.948   0.389
85751W        W49684  21.199  17.164  13.336
85752W        W49685  38.005  26.612  10.526
85753W        W49686  41.457  44.760   2.776
85754W        W49687  43.020  26.204  11.884
85755W        W49688   6.282   5.725  11.901
85756W        W49689   1.340  32.949  12.395
85757W        W49690  44.894  40.399   4.180
85758W        W49691  38.884   6.345  14.026
85759W        W49692  26.035  24.215  10.987
85760W        W49693  17.274   9.318  11.520
85761W        W49694  36.459  38.018  14.780
85762W        W49695   8.291  30.576  12.923
85763W        W49696  27.987  22.234  11.450
85764W        W49697  26.129  42.903   2.728
85765W        W49698   2.878  37.540   4.696
85766W        W49699   1.288  22.739   1.229
85767W        W49700  21.161  17.728   4.282
85768W        W49701  40.453  39.556   9.950
85769W        W49702  25.571   4.300  11.511
85770W        W49703  35.073   3.449   2.699
85771W        W49704  33.964  36.941   4.218
85772W        W49705   2.786  27.117  13.370
85773W        W49706  13.788  41.416   4.271
85774W        W49707  27.111  20.274  12.572
85775W        W49708  10.649   5.764   0.910
85776W        W49709  23.019  26.043  14.801
85777W        W49710  19.203   2.855  14.019
85778W        W49711  13.120  25.044   4.800
85779W        W49712  19.677  39.469  14.821
85780W        W49713  24.654  23.574  10.971
85781W        W49714  14.744  17.797   4.694
85782W        W49715  40.860  24.604  11.949
85783W        W49716   4.896   5.433   0.318
85784W        W49717  27.690  25.170   0.916
85785W        W49718  38.038  23.571  11.602
85786W        W49719  29.148   5.735   4.223
85787W        W49720  35.864  10.220   3.823
85788W        W49721  36.097  42.396  12.456
85789W        W49722   2.830  40.018  12.853
85790W        W49723  22.186   9.706  14.365
85791W        W49724   1.266  34.589   3.752
85792W        W49725  22.025   7.213   2.289
85793W        W49726  28.441  32.443  13.806
85794W        W49727  25.616  32.520  13.036
85795W        W49728  31.048  33.950   2.314
85796W        W49729  39.896  18.566   1.926
85797W        W49730  38.008  35.979   3.188
85798W        W49731  15.803   7.793  11.567
85799W        W49732   9.344  16.729  10.446
85800W        W49733   8.816   5.798   2.306
85801W        W49734  18.078  32.988   2.774
85802W        W49735  38.443  24.152  12.967
85803W        W49736  33.914  22.191  11.479
85804W        W49737   5.700  34.370  14.427
85805W        W49738  22.032  22.132  11.446
85806W        W49739   5.437  12.666   4.722
85807W        W49740   6.851  42.980   0.932
85808W        W49741  36.512   4.205   4.215
85809W        W49742  27.621   6.800   2.284
85810W        W49743  36.360  18.061   0.730
85811W        W49744  16.179  38.378  12.409
85812W        W49745  37.523  10.768   0.939
85813W        W49746  43.864  36.954  12.389
85814W        W49747  44.323   3.452   4.219
85815W        W49748   8.311   3.254   2.718
85816W        W49749   3.300  38.838   5.116
85817W        W49750   5.418  16.699   4.118
85818W        W49751   1.753  25.475  11.436
85819W        W49752  28.469  38.848   2.215
85820W        W49753  24.491  41.385  11.600
85821W        W49754   9.773  28.140   4.650
85822W        W49755   5.256   3.758   2.744
85823W        W49756  22.554  11.241   3.273
85824W        W49757  31.938  16.632   1.731
85825W        W49758   5.774  34.399  14.950
85826W        W49759  34.873  40.840   3.306
85827W        W49760  11.746  40.452   2.853
85828W        W49761   5.786   9.724  11.434
85829W        W49762  26.961  36.443   4.707
85830W        W49763  10.284  22.549   2.769
85831W        W49764  20.572   0.856  14.999
85832W        W49765  35.015  38.958   2.708
85833W        W49766   4.341   5.407   3.316
85834W        W49767  35.026  21.178  10.579
85835W        W49768  17.594  35.413   3.385
85836W        W49769  31.619   9.150   3.748
85837W        W49770  28.064  22.100  10.083
85838W        W49771  41.446  39.338   0.963
85839W        W49772  44.371  10.636   0.455
85840W        W49773  17.675  18.633   1.215
85841W        W49774  37.524   4.925  11.472
85842W        W49775   6.879  14.634   2.356
85843W        W49776   3.757  33.941   1.258
85844W        W49777  20.181  17.792  11.452
85845W        W49778  21.608   3.449   4.233
85846W        W49779  19.259  17.169  12.019
85847W        W49780   5.299  37.046  12.940
85848W        W49781  24.057  32.954  11.378
85849W        W49782  23.091   3.894   3.782
85850W        W49783  13.320  35.566  13.792
85851W        W49784  23.563   3.930   2.724
85852W        W49785   5.916  16.680   1.272
85853W        W49786  17.769   1.838   3.826
85854W        W49787  30.562   3.954   2.823
85855W        W49788  24.134  16.226  11.908
85856W        W49789  29.021   5.286   2.289
85857W        W49790  33.020   1.469   1.222
85858W        W49791  41.306  35.076  14.354
85859W        W49792  44.815   8.749  11.096
85860W        W49793  30.529   4.717  12.845
85861W        W49794   4.356  28.626  14.342
85862W        W49795   9.228  31.154  14.435
85863W        W49796  30.155  12.303   1.843
85864W        W49797  23.204  37.425  12.526
85865W        W49798  12.198   8.274   3.165
85866W        W49799  16.730  20.735  14.357
85867W        W49800   0.807  35.450  10.531
85868W        W49801  21.609   6.406   1.750
85869W        W49802   2.369  17.706  14.329
85870W        W49803   0.780   4.798   3.771
85871W        W49804  40.304  19.232  10.463
85872W        W49805  23.657  25.007   1.829
85873W        W49806  13.787  26.629  14.303
85874W        W49807   1.347  18.163  14.988
85875W        W49808   8.831  12.232  12.880
85876W        W49809   7.171  27.966  10.124
85877W        W49810   6.405  33.121   0.446
85878W        W49811   6.255   7.702  13.431
85879W        W49812  27.987  12.299   4.771
85880W        W49813  34.573   7.792   2.375
85881W        W49814   4.732  39.475   0.947
85882W        W49815   8.221  36.093  13.000
85883W        W49816  12.645  42.866  13.872
85884W        W49817  22.231   4.815  10.594
85885W        W49818   6.857  33.536   3.351
85886W        W49819   3.803  25.000   2.752
85887W        W49820  19.271  11.804   2.876
85888W        W49821  38.948   3.243  13.538
85889W        W49822  34.414  34.424   4.668
85890W        W49823   9.178  23.625   2.250
85891W        W49824  23.552   6.687   4.636
85892W        W49825  31.987  40.835  10.528
85893W        W49826   1.419  26.090   3.369
85894W        W49827   2.336  18.787   0.324
85895W        W49828  15.227   7.834  11.052
85896W        W49829  12.335  27.639  12.410
85897W        W49830  23.038   5.261   3.245
85898W        W49831  34.979  33.413   4.692
85899W        W49832  44.807   8.298  12.426
85900W        W49833   5.732   5.395  12.989
85901W        W49834  29.523   8.781   4.270
85902W        W49835  13.312  34.896   3.802
85903W        W49836  40.336  14.655   1.306
85904W        W49837  23.516  42.803  14.831
85905W        W49838  44.003  36.088  11.503
85906W        W49839  44.899  37.988  12.578
85907W        W49840  16.719  24.020   3.162
85908W        W49841  44.496  39.534  12.091
85909W        W49842  44.382   0.373  14.304
85910W        W49843  24.019  26.023  13.495
85911W        W49844  37.480  25.982   3.155
85912W        W49845   4.899  14.264  10.010
85913W        W49846  15.086  32.588  14.420
85914W        W49847  24.649   6.303  12.004
85915W        W49848  44.426  32.437  14.829
85916W        W49849  32.074  33.467  11.099
85917W        W49850  32.626  17.754   3.720
85918W        W49851  32.025   3.264  10.639
85919W        W49852   6.402   6.191   3.301
85920W        W49853  22.636  10.375   2.337
85921W        W49854  10.658  34.573  12.051
85922W        W49855  14.316  27.990  11.058
85923W        W49856   6.811   6.390   4.720
85924W        W49857  31.573   3.779  14.833
85925W        W49858  19.706   5.748  11.432
85926W        W49859  19.566  14.170  13.911
85927W        W49860  44.871  33.522   2.865
85928W        W49861  14.826   6.310  11.115
85929W        W49862   4.226  18.695  14.484
85930W        W49863   3.889  31.085   3.277
85931W        W49864  38.820  33.977  12.050
85932W        W49865  21.137  14.193  13.502
85933W        W49866  28.487  19.776   2.251
85934W        W49867  25.168  31.982  10.945
85935W        W49868  35.063  39.343   1.223
85936W        W49869   0.393  15.680   1.329
85937W        W49870  36.524  38.976   4.143
85938W        W49871  44.264  19.253   3.798
85939W        W49872   0.967  32.116   4.298
85940W        W49873  15.241  24.160  13.947
85941W        W49874  36.432  31.508   4.689
85942W        W49875   2.414  29.627  14.910
85943W        W49876   6.391  35.531   1.281
85944W        W49877  34.937  30.480  10.068
85945W        W49878  21.218  19.218   1.908
85946W        W49879  29.617  19.778   5.225
85947W        W49880  24.050  31.995  14.818
85948W        W49881  42.015  15.594  14.788
85949W        W49882   9.756  17.101  13.314
85950W        W49883   7.734  21.659   3.870
85951W        W49884  22.744  22.046   3.776
85952W        W49885  17.575  36.466   3.677
85953W        W49886  29.165  44.499  14.504
85954W        W49887  30.944  12.674   3.316
85955W        W49888  18.135   7.912   0.795
85956W        W49889   2.887  43.854  14.804
85957W        W49890  34.917  11.184   2.874
85958W        W49891   4.317   7.907  13.355
85959W        W49892  12.680  37.405   1.776
85960W        W49893  15.173  44.001  11.593
85961W        W49894  14.294  23.100   0.285
85962W        W49895  24.196  36.982  12.417
85963W        W49896  36.453  34.102  11.969
85964W        W49897  25.564  21.679   0.389
85965W        W49898  11.161  18.158   2.337
85966W        W49899   5.391  17.287   9.955
85967W        W49900  22.045  18.603  11.439
85968W        W49901   6.293  32.096  11.995
85969W        W49902   6.820  40.430  10.576
85970W        W49903   4.901  19.155   0.839
85971W        W49904  16.246  42.454  11.119
85972W        W49905  34.033   7.257   4.254
85973W        W49906   8.786  19.229  13.318
85974W        W49907  20.149  35.582   2.673
85975W        W49908   0.918  40.423  12.013
85976W        W49909   4.392  44.309  14.930
85977W        W49910  21.213  38.976   2.264
85978W        W49911  21.017  29.037  11.066
85979W        W49912  31.617   1.363  14.301
85980W        W49913  28.998   1.427   0.477
85981W        W49914   9.757  32.583  11.119
85982W        W49915  23.649  13.655  11.066
85983W        W49916  12.274   8.789  11.536
85984W        W49917  44.886  26.660  11.509
85985W        W49918  23.530  27.577   2.194
85986W        W49919  31.578  30.994   2.301
85987W        W49920   4.239  32.109   2.687
85988W        W49921  44.778  29.007   3.366
85989W        W49922  10.693  15.777  13.433
85990W        W49923   6.193  15.707  11.488
85991W        W49924  16.156   4.929  14.885
85992W        W49925  42.414  16.728   4.231
85993W        W49926  44.309  26.992  12.037
85994W        W49927  21.083  34.915   3.796
85995W        W49928  13.756  26.569   3.699
85996W        W49929  13.639   4.889  11.467
85997W        W49930  18.294   3.250   3.147
85998W        W49931  44.324  41.380  11.395
85999W        W49932  27.068  17.138  10.963
86000W        W49933  44.369  40.053  10.119
86001W        W49934   9.870  12.323  14.344
86002W        W49935  34.421  44.762  13.059
86003W        W49936   0.901  35.951  11.041
86004W        W49937   2.459  15.185   1.843
86005W        W49938  14.690   6.910  14.894
86006W        W49939  33.046  42.786  13.544
86007W        W49940  32.516  40.847   2.365
86008W        W49941  24.625   8.734   1.279
86009W        W49942   5.911   8.670  14.936
86010W        W49943  20.726  26.173   5.294
86011W        W49944  36.074  34.527  14.858
86012W        W49945  24.671  36.493  12.512
86013W        W49946   6.845  42.448   1.838
86014W        W49947   8.381  25.033   2.210
86015W        W49948   7.313   4.302  13.457
86016W        W49949  32.105  20.581  13.793
86017W        W49950   4.795  30.485  14.386
86018W        W49951  31.127  12.835   1.356
86019W        W49952  17.682  11.309  11.865
86020W        W49953  22.514  22.592  12.474
86021W        W49954  38.996  42.479   3.198
86022W        W49955   5.419  21.096   3.212
86023W        W49956  35.097  38.357   0.814
86024W        W49957   3.933  22.554   3.787
86025W        W49958  35.417  31.536   0.400
86026W        W49959  18.613  38.835  11.040
86027W        W49960  18.163  16.641   3.714
86028W        W49961  13.240  18.575  14.960
86029W        W49962   7.404  37.039   1.728
86030W        W49963  44.432  34.557   0.845
86031W        W49964  18.215  39.870   1.317
86032W        W49965   9.784   0.923   1.398
86033W        W49966  17.578  43.821   0.272
86034W        W49967   7.399   4.288  13.925
86035W        W49968  32.922   8.290  12.005
86036W        W49969  19.572  41.510  11.969
86037W        W49970   6.370  18.186  13.039
86038W        W49971  19.771   1.371   1.887
86039W        W49972  13.618  44.911   4.676
86040W        W49973  14.218  34.501  14.945
86041W        W49974  18.087   8.368  13.356
86042W        W49975   0.410  19.625   0.889
86043W        W49976  40.864  39.448   4.660
86044W        W49977  32.977   9.339   4.240
86045W        W49978  37.927  27.530   0.826
86046W        W49979  39.911  36.374  12.980
86047W        W49980  29.456  23.732  11.099
86048W        W49981  44.792  21.175   1.406
86049W        W49982  25.598  39.330   4.723
86050W        W49983  20.046  13.673  11.017
86051W        W49984   6.324  29.948   3.155
86052W        W49985  23.208  42.871  14.498
86053W        W49986  12.282  22.612   3.676
86054W        W49987  41.953  24.199   2.200
86055W        W49988  33.595  34.116  14.490
86056W        W49989  16.226  43.855  11.461
86057W        W49990  31.909  19.220  10.526
86058W        W49991  42.813  44.378   4.672
86059W        W49992  26.136  24.706  11.555
86060W        W49993  44.794  11.767   0.330
86061W        W49994  14.213  22.057   4.770
86062W        W49995   6.881  31.043  12.462
86063W        W49996  34.400  38.869  10.422
86064W        W49997  35.876  36.456   4.719
86065W        W49998   6.725  35.986  11.125
86066W        W49999  27.663  30.623  14.801
86067W        W50000  30.067  43.440   0.888
86068W        W50001  43.321   0.494   4.264
86069W        W50002  27.672  23.601  12.407
86070W        W50003  23.064  11.342  14.393
86071W        W50004  22.683  28.613  14.396
86072W        W50005  27.005  16.262   0.264
86073W        W50006  40.420  40.916  13.844
86074W        W50007  10.329  32.514   4.353
86075W        W50008  44.310  33.940   2.192
86076W        W50009  13.296  32.964  14.823
86077W        W50010  31.021  43.415   1.709
86078W        W50011  22.997  37.337   1.300
86079W        W50012  20.601  33.603   4.813
86080W        W50013  12.226  34.533  10.492
86081W        W50014  27.552  39.342  10.929
86082W        W50015  12.824   5.248  10.978
86083W        W50016  15.698  27.146   1.287
86084W        W50017  18.645  34.471  10.436
86085W        W50018  25.071  14.132  11.515
86086W        W50019  14.610  20.562  14.916
86087W        W50020  19.214  13.235   4.800
86088W        W50021  41.955  21.226  10.480
86089W        W50022  36.885  17.249   1.850
86090W        W50023  28.112  20.137  12.011
86091W        W50024  27.631  14.248   3.177
86092W        W50025  19.585  32.025  10.927
86093W        W50026  24.575  23.225  12.454
86094W        W50027   2.365  29.486  11.517
86095W        W50028  22.243   0.463   0.398
86096W        W50029  16.100  32.930  13.520
86097W        W50030   3.439  18.102  10.580
86098W        W50031  18.594  25.210   3.286
86099W        W50032  24.039  39.982   0.283
86100W        W50033  39.847  26.590   3.706
86101W        W50034  18.737  21.181   2.299
86102W        W50035  34.923  44.986   3.707
86103W        W50036   8.678  39.032  10.485
86104W        W50037  41.502  17.241  12.889
86105W        W50038  37.535  38.957   3.859
86106W        W50039  22.745  39.537  14.838
86107W        W50040  24.566  20.703  12.826
86108W        W50041  29.594  18.106  11.908
86109W        W50042  19.218  33.381  10.415
86110W        W50043  39.540   1.244  13.460
86111W        W50044  19.277  44.350   3.269
86112W        W50045  30.521  30.022  13.444
86113W        W50046  18.676  41.946   0.426
86114W        W50047  39.347  39.486   4.834
86115W        W50048  42.351  40.915   1.921
86116W        W50049  31.938   0.395   2.230
86117W        W50050  11.716   1.834   2.184
86118W        W50051  31.593  19.609  10.489
86119W        W50052   1.259  42.370  14.301
86120W        W50053   9.768   9.308   0.930
86121W        W50054  16.173   0.849   3.799
86122W        W50055   1.391  33.928   0.836
86123W        W50056  41.458  10.299   1.398
86124W        W50057  12.252   8.658   2.336
86125W        W50058  33.515  44.839  12.543
86126W        W50059  32.510   1.395   3.340
86127W        W50060  27.187   7.823   0.282
86128W        W50061  27.116  18.229   4.114
86129W        W50062  32.963  35.553  10.624
86130W        W50063  13.636  39.883   3.771
86131W        W50064  31.528  27.612  10.421
86132W        W50065   0.870  34.384  13.314
86133W        W50066  18.252  19.196   4.119
86134W        W50067  40.340  40.376   2.771
86135W        W50068  31.430   7.883   4.249
86136W        W50069  32.114  38.554   3.781
86137W        W50070  28.620  34.478   0.461
86138W        W50071  38.364   1.290  12.364
86139W        W50072  41.790  25.163  11.103
86140W        W50073   2.458   1.429   4.338
86141W        W50074  40.013  12.315   0.824
86142W        W50075  41.886  15.818   5.211
86143W        W50076   0.857   6.328   0.747
86144W        W50077  14.316  42.847  10.476
86145W        W50078  31.025  44.326  12.936
86146W        W50079  42.519  36.362  10.448
86147W        W50080  20.159  42.994  10.930
86148W        W50081   1.839  16.577  12.033
86149W        W50082  19.117  13.688  13.986
86150W        W50083  20.265  14.668   2.218
86151W        W50084   5.836  41.434   2.364
86152W        W50085  17.696  38.461   1.339
86153W        W50086  35.602  11.656   2.238
86154W        W50087  18.219  35.573  13.047
86155W        W50088  21.186   3.923   0.385
86156W        W50089   8.660   1.410   2.385
86157W        W50090   0.463  12.335  13.816
86158W        W50091  41.833  17.069   0.473
86159W        W50092  14.739  19.543   3.380
86160W        W50093   1.337  37.462  10.016
86161W        W50094  29.545  25.484  14.468
86162W        W50095   9.290  23.125   3.205
86163W        W50096  12.119  20.053   2.798
86164W        W50097   7.724  27.179   2.875
86165W        W50098   9.654  13.153   1.339
86166W        W50099  23.495   6.395  13.017
86167W        W50100  38.858  26.170  12.457
86168W        W50101   6.699  10.316  14.874
86169W        W50102   8.876  40.797   2.215
86170W        W50103   8.866  30.919   4.294
86171W        W50104  25.698  18.717   1.900
86172W        W50105  33.515  17.772   3.695
86173W        W50106  25.067   0.754  14.780
86174W        W50107   4.282  12.656  14.891
86175W        W50108   3.449  27.670  12.456
86176W        W50109  44.426  33.008  11.976
86177W        W50110  26.180  13.105   1.240
86178W        W50111   8.227  32.977   4.732
86179W        W50112  12.848  22.636   0.463
86180W        W50113  21.073   2.444  13.016
86181W        W50114  44.359  30.110   4.824
86182W        W50115  27.641  43.420   2.726
86183W        W50116  14.685  20.044  10.474
86184W        W50117  42.335  20.178  12.467
86185W        W50118  22.172  22.673   1.915
86186W        W50119  16.288  36.890  12.835
86187W        W50120  37.844  21.590  14.306
86188W        W50121  19.606  15.230   1.318
86189W        W50122  30.111  33.975  11.395
86190W        W50123  15.727  28.176  10.933
86191W        W50124  36.501   6.390   0.735
86192W        W50125  32.928  12.174  14.283
86193W        W50126   3.268   7.739   0.786
86194W        W50127  37.529  21.645   1.798
86195W        W50128  36.938   1.421  13.892
86196W        W50129   2.756  36.401   2.395
86197W        W50130  18.273  15.136   4.779
86198W        W50131   9.326   7.856  13.531
86199W        W50132  31.996  32.404  13.520
86200W        W50133  42.867   0.469   0.258
86201W        W50134  34.371   8.163  11.891
86202W        W50135  39.831  43.463   0.398
86203W        W50136  42.505  44.767  11.541
86204W        W50137  29.632  39.500   0.463
86205W        W50138   0.928  19.744   5.135
86206W        W50139  11.270  13.770   1.805
86207W        W50140  38.462   1.379  13.896
86208W        W50141  37.459   7.863   1.300
86209W        W50142   4.731  25.035  14.986
86210W        W50143  15.607   7.850   3.145
86211W        W50144  27.172   2.899  10.488
86212W        W50145  17.091  44.497   0.945
86213W        W50146  33.073  35.042   0.963
86214W        W50147   9.855   6.188   3.167
86215W        W50148  27.573  20.213   4.211
86216W        W50149  32.095  10.699  11.060
86217W        W50150   4.860  28.455  13.425
86218W        W50151  39.465  28.968   3.366
86219W        W50152  31.980  37.924  13.986
86220W        W50153  25.155  31.038   4.744
86221W        W50154  16.285   9.841  14.475
86222W        W50155  39.025   5.919   1.372
86223W        W50156  10.805  37.855  14.452
86224W        W50157  39.427  34.504  12.051
86225W        W50158  35.433  39.418   2.369
86226W        W50159  14.153  38.034   1.784
86227W        W50160   8.326  35.853   0.896
86228W        W50161  14.735  42.434  13.854
86229W        W50162  23.582   3.410   0.771
86230W        W50163   4.761  30.147   0.450
86231W        W50164  41.858  20.750   4.766
86232W        W50165  30.540   3.434  10.472
86233W        W50166  34.992  20.205   0.792
86234W        W50167  44.885  37.025   0.798
86235W        W50168  34.599  10.182   0.857
86236W        W50169  19.639  41.857   2.903
86237W        W50170  43.453  32.049  10.030
86238W        W50171   7.351  18.555   4.759
86239W        W50172  17.605  17.616  11.606
86240W        W50173  12.739  37.446  14.276
86241W        W50174  16.097   3.338  10.604
86242W        W50175   3.794  12.204  12.456
86243W        W50176  36.458  21.526  14.468
86244W        W50177  17.752  23.607   0.927
86245W        W50178  24.702  22.085  13.377
86246W        W50179  19.258  40.813  13.485
86247W        W50180   2.726   2.430   3.338
86248W        W50181   9.644   1.253   2.787
86249W        W50182  10.309  37.861   0.412
86250W        W50183   7.833   4.804  11.502
86251W        W50184  36.879  44.396   4.837
86252W        W50185  37.035   7.900  11.494
86253W        W50186  17.795  27.077  10.982
86254W        W50187  11.764   6.404   4.699
86255W        W50188  18.680  21.701   1.357
86256W        W50189  27.622  23.076   4.350
86257W        W50190  26.975   0.828   5.119
86258W        W50191   8.359  17.225  14.843
86259W        W50192  19.767  40.025   0.900
86260W        W50193  35.967  23.128  12.391
86261W        W50194  18.623  11.753  10.410
86262W        W50195  31.964   2.374  10.469
86263W        W50196  28.559  13.790   3.691
86264W        W50197  43.013  33.904   4.704
86265W        W50198  14.302  32.552  13.008
86266W        W50199  27.615  25.602   3.719
86267W        W50200  20.675  39.360   0.963
86268W        W50201  34.377  17.618  13.521
86269W        W50202   7.289   5.347   1.375
86270W        W50203  33.612  31.415  10.642
86271W        W50204   3.351   9.879   3.785
86272W        W50205  40.850   4.784  11.046
86273W        W50206  32.948  30.945   4.617
86274W        W50207   1.320  27.451  14.832
86275W        W50208  37.563   0.292  10.891
86276W        W50209  10.172  27.144  10.564
86277W        W50210  38.836  42.938  11.059
86278W        W50211  29.044  24.537   0.809
86279W        W50212   5.808   8.327  11.391
86280W        W50213  25.668  21.605   3.859
86281W        W50214  21.035  11.699  14.867
86282W        W50215  28.518  23.229  12.469
86283W        W50216  34.880  32.511   3.697
86284W        W50217  14.238   8.833   2.335
86285W        W50218  29.000  18.605   2.329
86286W        W50219   9.259  12.153  13.493
86287W        W50220   4.844   4.840   2.206
86288W        W50221  38.924  41.443  14.025
86289W        W50222  10.796  40.852  14.375
86290W        W50223  14.326  41.959  14.770
86291W        W50224  36.531   0.312  10.600
86292W        W50225  24.578  30.001  12.502
86293W        W50226  37.467  28.438  10.629
86294W        W50227  19.103  34.068   3.292
86295W        W50228  30.929  24.702  13.435
86296W        W50229  21.719  13.605  12.397
86297W        W50230  34.571  10.762   0.822
86298W        W50231   6.887   9.772  13.411
86299W        W50232   5.438  34.419  13.354
86300W        W50233  35.906  37.463  11.459
86301W        W50234  39.370  43.787  14.462
86302W        W50235  38.047  20.271   0.899
86303W        W50236   5.326  16.625   1.719
86304W        W50237  31.403   6.705  10.630
86305W        W50238  32.124   7.287   3.225
86306W        W50239  26.673  33.461   2.733
86307W        W50240  14.710  11.654  13.963
86308W        W50241  27.677   0.301   3.271
86309W        W50242  10.232   2.233  14.309
86310W        W50243  25.517  39.003  13.437
86311W        W50244  32.620  27.515  10.971
86312W        W50245  24.089   8.840  11.066
86313W        W50246   3.900  13.131   4.826
86314W        W50247  35.538  14.105   4.691
86315W        W50248  40.547  10.818   0.427
86316W        W50249  19.257  40.799  12.523
86317W        W50250  34.437   7.728   1.794
86318W        W50251  29.493  28.179   0.810
86319W        W50252  27.466   7.281   3.328
86320W        W50253  33.545  44.368  12.561
86321W        W50254   2.387  16.654  10.526
86322W        W50255   0.903  33.963  14.895
86323W        W50256  11.194   3.822   3.766
86324W        W50257  43.502   4.772  11.407
86325W        W50258  37.968   4.342   1.418
86326W        W50259   2.731  43.845   1.878
86327W        W50260  18.697  16.635  14.479
86328W        W50261  15.200   8.360   3.656
86329W        W50262  32.516  21.562   2.336
86330W        W50263  17.079  16.696  11.463
86331W        W50264   2.284   4.758   1.879
86332W        W50265  32.404   3.823  11.125
86333W        W50266  29.119  28.644   4.769
86334W        W50267  40.951  21.602   0.392
86335W        W50268   4.282  42.385  10.618
86336W        W50269  43.429  17.624  12.084
86337W        W50270   3.237  42.446   3.715
86338W        W50271  38.968  14.635  12.377
86339W        W50272  23.052   6.710   3.782
86340W        W50273  10.672  20.629   3.750
86341W        W50274  34.967  24.508  10.618
86342W        W50275  25.590  12.273  10.450
86343W        W50276  42.918  16.604  11.406
86344W        W50277   3.253  16.580  14.816
86345W        W50278  34.572  36.448   1.364
86346W        W50279  31.618  19.226   0.289
86347W        W50280   1.278  13.271  10.072
86348W        W50281  36.910   5.867   1.742
86349W        W50282   0.753   3.323   4.644
86350W        W50283   7.888  42.947  12.909
86351W        W50284   7.177  19.607   1.425
86352W        W50285  22.527   0.786  11.517
86353W        W50286  38.536  25.033   3.372
86354W        W50287  24.578  12.847   1.913
86355W        W50288  17.062  20.148   2.319
86356W        W50289  29.484   8.367  13.338
86357W        W50290  22.029  19.541  12.388
86358W        W50291  20.730  17.143   4.246
86359W        W50292  33.587  34.426  12.389
86360W        W50293  18.056  16.278  10.961
86361W        W50294  38.904  37.488   2.307
86362W        W50295  19.759  44.317   0.339
86363W        W50296   8.882  14.813   1.707
86364W        W50297  24.146  38.887   0.347
86365W        W50298  37.980  32.016   3.700
86366W        W50299  19.548  11.742  11.445
86367W        W50300   5.801  44.473  13.961
86368W        W50301  22.522  43.017  14.443
86369W        W50302  44.770  37.513  12.917
86370W        W50303  23.672   2.956  10.448
86371W        W50304  30.545  40.424  11.966
86372W        W50305  28.975   0.258  14.864
86373W        W50306  19.250  26.032   2.215
86374W        W50307  12.140  11.746  11.544
86375W        W50308  23.673  36.077  12.063
86376W        W50309  29.559  16.299  14.329
86377W        W50310  22.619  18.765  13.425
86378W        W50311  21.734  20.147  13.324
86379W        W50312  26.509   3.224   3.727
86380W        W50313   0.314  27.507  12.867
86381W        W50314  14.694  25.496   0.400
86382W        W50315  31.513   1.855  13.529
86383W        W50316  26.620   6.344   2.882
86384W        W50317  14.323  24.649  12.442
86385W        W50318  12.253  37.083  11.018
86386W        W50319  44.310  38.858   3.150
86387W        W50320  12.296  28.971  11.107
86388W        W50321  19.760  22.142   0.789
86389W        W50322  16.096   4.841   1.868
86390W        W50323  36.053   7.704   3.870
86391W        W50324  26.206   9.794  12.386
86392W        W50325   2.835   0.989  11.419
86393W        W50326  17.629  22.576   0.745
86394W        W50327  18.209  25.170  11.916
86395W        W50328  34.880  34.414  11.088
86396W        W50329  14.751  16.731   4.246
86397W        W50330  16.268  27.112  12.522
86398W        W50331  21.534  14.272   0.353
86399W        W50332  28.048  10.161   3.644
86400W        W50333  23.169   6.776  13.830
86401W        W50334  38.987  16.272  13.468
86402W        W50335  30.579  29.086   3.707
86403W        W50336  38.976  26.542   0.298
86404W        W50337  16.082  15.595  11.443
86405W        W50338  25.488  30.931   3.239
86406W        W50339  41.791   0.267   1.764
86407W        W50340   6.239  11.220   4.253
86408W        W50341  38.873  12.332   0.766
86409W        W50342  24.993   1.441   1.803
86410W        W50343  35.383   8.254   3.670
86411W        W50344  21.558  19.112  10.533
86412W        W50345  39.454  40.484   1.434
86413W        W50346  10.317  39.958   3.719
86414W        W50347   1.768   4.812  10.588
86415W        W50348   6.216  24.098  14.446
86416W        W50349  19.057  39.865   0.907
86417W        W50350  23.492   7.752   2.841
86418W        W50351  10.307  10.186   9.937
86419W        W50352   5.802  26.089  14.835
86420W        W50353  10.338  33.613   3.709
86421W        W50354   0.899   6.748  10.479
86422W        W50355   9.871  28.627   0.831
86423W        W50356  24.714  22.621   2.850
86424W        W50357  21.157  42.850   1.712
86425W        W50358  30.618  20.578   2.805
86426W        W50359  33.592   7.862   0.861
86427W        W50360  34.907  31.491   2.195
86428W        W50361  31.408  18.260   1.853
86429W        W50362  32.101  10.812  14.509
86430W        W50363   2.268  22.073  10.967
86431W        W50364  29.613  12.339   0.756
86432W        W50365  40.040  16.178  11.983
86433W        W50366   0.306  21.547  13.976
86434W        W50367  39.915  35.883   3.723
86435W        W50368  33.540   8.183  12.902
86436W        W50369  35.068  31.096   4.749
86437W        W50370   1.380   2.272   2.234
86438W        W50371  21.019  17.214  10.562
86439W        W50372  20.046  20.039   2.866
86440W        W50373  22.650  40.830  14.468
86441W        W50374  36.017   6.846   0.276
86442W        W50375  13.349  18.255  14.963
86443W        W50376  12.339   1.740   4.624
86444W        W50377  20.182   1.964  10.454
86445W        W50378   2.365  10.798   4.711
86446W        W50379  26.500  38.490   4.247
86447W        W50380  27.140   1.745   2.194
86448W        W50381  20.127  40.900  14.388
86449W        W50382   4.765  36.009   2.699
86450W        W50383   8.880  42.326  14.895
86451W        W50384   8.710  28.591  14.451
86452W        W50385   7.242   0.883   4.210
86453W        W50386  42.842  31.008  12.907
86454W        W50387  34.100  35.869  13.990
86455W        W50388  36.004  24.561   0.384
86456W        W50389  33.602  10.818  14.392
86457W        W50390  29.152  37.885  10.432
86458W        W50391   4.767   9.348  10.514
86459W        W50392  18.069  33.578   0.371
86460W        W50393  12.704  26.100  12.879
86461W        W50394   1.915   1.299   2.358
86462W        W50395   8.660  28.674   2.885
86463W        W50396  20.154  32.473  14.856
86464W        W50397   7.907  23.730  14.833
86465W        W50398  35.484   5.920  13.944
86466W        W50399  35.415  29.492  11.507
86467W        W50400  40.016  28.074   2.749
86468W        W50401  27.647  34.077   2.700
86469W        W50402   3.321  23.054  14.855
86470W        W50403  30.544  14.094  11.513
86471W        W50404  16.778  42.802  12.869
86472W        W50405  43.799  22.106  14.477
86473W        W50406  40.028  42.910  12.406
86474W        W50407  20.711  43.807   3.304
86475W        W50408  21.733  13.664  13.450
86476W        W50409  32.476   6.369  12.010
86477W        W50410  17.259  31.465   0.966
86478W        W50411  16.244  35.914  14.866
86479W        W50412   9.180  26.123  11.086
86480W        W50413   9.333  26.675   4.242
86481W        W50414  19.702   4.854  12.847
86482W        W50415  29.919  12.695  11.610
86483W        W50416  24.017  21.073   0.378
86484W        W50417  11.306  36.581   0.482
86485W        W50418  28.060   2.851   0.803
86486W        W50419  29.139  29.524  12.478
86487W        W50420  21.565  13.773   3.290
86488W        W50421  38.558  38.432   4.783
86489W        W50422   1.904  17.798   2.201
86490W        W50423   3.865  12.168  13.854
86491W        W50424  19.610  36.353  11.032
86492W        W50425  31.957  40.521   2.747
86493W        W50426   6.840  33.434   0.889
86494W        W50427  23.503  32.416   3.731
86495W        W50428   0.914  23.579  12.932
86496W        W50429  26.178  15.614  11.981
86497W        W50430  28.618  23.698  13.320
86498W        W50431  23.160  40.832   0.784
86499W        W50432  18.588  15.697   5.724
86500W        W50433  14.812  29.579   0.806
86501W        W50434  31.589  18.783   2.348
86502W        W50435   3.826   9.355  14.457
86503W        W50436  20.180  36.360  11.926
86504W        W50437  13.824  23.505  14.396
86505W        W50438  33.112  20.230   0.365
86506W        W50439  20.525  10.327  14.932
86507W        W50440  41.356   2.232  11.482
86508W        W50441  34.915  31.997   3.664
86509W        W50442  42.775  44.947  14.275
86510W        W50443   7.294  11.761   3.237
86511W        W50444  10.767  36.969   3.798
86512W        W50445  10.694  10.298  13.809
86513W        W50446   4.774   9.701  11.602
86514W        W50447  22.173  18.063   4.332
86515W        W50448  41.917  20.135  12.440
86516W        W50449  29.932   8.670  11.392
86517W        W50450  22.131   8.677   1.220
86518W        W50451  44.846  24.973  13.926
86519W        W50452  13.151  20.143  13.525
86520W        W50453  35.061  42.496   2.381
86521W        W50454  15.265  32.518  14.032
86522W        W50455   8.682  14.598   0.937
86523W        W50456  40.029   9.683  11.120
86524W        W50457  28.523  35.036   3.174
86525W        W50458  39.021  13.765   3.284
86526W        W50459  43.888  26.690  12.003
86527W        W50460  42.438   1.783  12.373
86528W        W50461  16.173  20.159   4.768
86529W        W50462  12.155  21.185   2.807
86530W        W50463  41.939  25.194  12.464
86531W        W50464   8.877  21.125  11.927
86532W        W50465  21.588  28.565  14.941
86533W        W50466   1.793  38.473  11.520
86534W        W50467  34.067   7.724  13.384
86535W        W50468  31.028  21.566   4.754
86536W        W50469  27.150  42.411   0.762
86537W        W50470  38.532   2.863  10.427
86538W        W50471  16.625   9.388   3.213
86539W        W50472   9.299   2.923   5.113
86540W        W50473  26.532  32.076  10.144
86541W        W50474  30.488  18.765  14.778
86542W        W50475  14.160   5.424   2.799
86543W        W50476  44.894  31.108   2.187
86544W        W50477   2.807  22.094   2.375
86545W        W50478  31.509  33.962  10.423
86546W        W50479  25.038  29.529  14.374
86547W        W50480  14.641  23.722   5.277
86548W        W50481  28.584  30.658  12.390
86549W        W50482  26.039  41.318   4.604
86550W        W50483  26.035  15.142   1.882
86551W        W50484  10.813  26.144   1.245
86552W        W50485  11.694  15.681  10.411
86553W        W50486   6.368  13.804  12.956
86554W        W50487   1.745  16.138   4.642
86555W        W50488  21.572  19.703  11.470
86556W        W50489   0.953  28.486  11.054
86557W        W50490  31.502  42.001   3.260
86558W        W50491  14.697  37.061   2.666
86559W        W50492   8.659  16.719  14.778
86560W        W50493  21.728  25.088   3.367
86561W        W50494   0.389  18.074  10.567
86562W        W50495  13.202  17.114  12.387
86563W        W50496  32.066  28.079   4.133
86564W        W50497   8.686   2.740  13.026
86565W        W50498   7.761  12.611   4.174
86566W        W50499  12.306  17.303   1.703
86567W        W50500  14.686  31.592   1.331
86568W        W50501  15.145  34.883  10.979
86569W        W50502  17.224  16.774   2.881
86570W        W50503  42.497  24.066  12.485
86571W        W50504  17.789  31.564  10.996
86572W        W50505  23.719   1.302   4.261
86573W        W50506   6.386  26.208  13.474
86574W        W50507  39.336  33.089  11.456
86575W        W50508  17.673   1.273   0.343
86576W        W50509  24.193  16.095  13.416
86577W        W50510  27.629  22.128   0.835
86578W        W50511  40.006  41.348   1.442
86579W        W50512  24.221  32.062   9.954
86580W        W50513  27.982   3.759  13.050
86581W        W50514  34.413  35.961   1.380
86582W        W50515  15.579  26.688   3.763
86583W        W50516  11.657   5.424   2.758
86584W        W50517  28.499  41.797  12.939
86585W        W50518  40.811  38.437   1.913
86586W        W50519  14.782   3.355  14.330
86587W        W50520  27.557  29.533  14.446
86588W        W50521  34.087  35.876   2.395
86589W        W50522   0.478   0.443   0.730
86590W        W50523  18.273  38.919   1.365
86591W        W50524  37.451  19.779  14.431
86592W        W50525   2.922  13.173   3.730
86593W        W50526  35.515  22.743   0.432
86594W        W50527  18.201  27.622   1.367
86595W        W50528  11.643  22.056  11.490
86596W        W50529  42.473  17.716   1.418
86597W        W50530  17.733  22.144  12.950
86598W        W50531  36.571  37.029  14.860
86599W        W50532   3.920  36.976  14.329
86600W        W50533  28.977  29.017  10.561
86601W        W50534  36.049  22.206  12.426
86602W        W50535  23.069  11.774   1.918
86603W        W50536   2.888  18.177  10.965
86604W        W50537  24.577   3.866   3.228
86605W        W50538  40.481  16.675   0.759
86606W        W50539   2.382  21.568  12.483
86607W        W50540  18.712  38.403  14.812
86608W        W50541  27.639   9.750   4.640
86609W        W50542   4.823  38.500  14.940
86610W        W50543  28.597  40.501   3.311
86611W        W50544  29.029  20.544  12.422
86612W        W50545  34.958  21.172   4.202
86613W        W50546  40.048  27.067   3.335
86614W        W50547  15.227  31.465  10.558
86615W        W50548  40.322  14.154   3.652
86616W        W50549  37.978  10.343  11.385
86617W        W50550   6.276  20.131   4.699
86618W        W50551   3.279  13.817  11.990
86619W        W50552  40.928  11.751   1.408
86620W        W50553  37.433  25.581  10.463
86621W        W50554  32.035  32.016   2.694
86622W        W50555   7.291  40.984  14.995
86623W        W50556  29.963  10.633  12.956
86624W        W50557   3.459  12.845   3.781
86625W        W50558   5.312  11.672  10.569
86626W        W50559  15.261  16.651  12.019
86627W        W50560  15.153  16.781  14.365
86628W        W50561   7.262  23.723   0.841
86629W        W50562  40.394  35.937  14.016
86630W        W50563  20.251  29.614  11.911
86631W        W50564  18.288  33.421  14.859
86632W        W50565   4.353  25.651  14.010
86633W        W50566  16.714  32.077   4.626
86634W        W50567  22.650   8.287  13.966
86635W        W50568  19.091  41.820  11.934
86636W        W50569  40.496  20.711  10.407
86637W        W50570  18.091  25.542   4.194
86638W        W50571  36.359   6.778   1.729
86639W        W50572   9.830   3.366  12.364
86640W        W50573  14.700   0.869  14.502
86641W        W50574  10.849  13.342   0.304
86642W        W50575  33.579  25.139   4.319
86643W        W50576  16.170  33.019   4.255
86644W        W50577  35.093   5.293   3.714
86645W        W50578  18.182  24.153  12.831
86646W        W50579  35.064   5.340   2.196
86647W        W50580  42.908  28.676  10.410
86648W        W50581  16.766  15.774  13.506
86649W        W50582  21.047  16.771   4.779
86650W        W50583  18.063   1.929  13.824
86651W        W50584   6.703   8.885   2.675
86652W        W50585   7.817  39.352  12.889
86653W        W50586   6.254   5.297   3.744
86654W        W50587  35.853   1.306  10.974
86655W        W50588  13.286  39.916   2.247
86656W        W50589   0.478   6.906  13.404
86657W        W50590  16.231  36.908   2.352
86658W        W50591  33.586  36.350   4.715
86659W        W50592  38.887   3.824   2.403
86660W        W50593   2.390  21.587  11.011
86661W        W50594  34.401  32.541  11.125
86662W        W50595  24.712  19.738   3.248
86663W        W50596  38.543   7.718   3.755
86664W        W50597  31.154  19.193   0.958
86665W        W50598   7.835  35.096   3.317
86666W        W50599  15.144  28.949   4.624
86667W        W50600  38.876  36.446  14.936
86668W        W50601   7.324  30.435   1.272
86669W        W50602  35.102   1.916   0.285
86670W        W50603  29.992   4.737  11.947
86671W        W50604  41.851  13.743   1.889
86672W        W50605  31.513  43.327   2.782
86673W        W50606  13.699   7.345   0.452
86674W        W50607  32.561  36.967   2.179
86675W        W50608  16.788  39.844   2.391
86676W        W50609  14.133  32.053   1.278
86677W        W50610  19.253  16.699   2.876
86678W        W50611   4.424  41.946  11.043
86679W        W50612  14.660  13.643  11.121
86680W        W50613  39.867  31.401  12.497
86681W        W50614  39.322  30.503  14.408
86682W        W50615  30.105  36.412  12.079
86683W        W50616  12.139  38.425   3.833
86684W        W50617  18.280  11.714  11.554
86685W        W50618  17.089   6.912   1.441
86686W        W50619   5.269  12.841   0.358
86687W        W50620  13.704  26.054  14.824
86688W        W50621  43.936  24.123   1.308
86689W        W50622  41.472  12.785   1.882
86690W        W50623   9.319   3.334   0.937
86691W        W50624   1.784   2.462  11.108
86692W        W50625  41.039  30.982  10.914
86693W        W50626  21.654  18.278   2.889
86694W        W50627  26.662  28.585   0.358
86695W        W50628  13.235  11.687   3.870
86696W        W50629  18.241  34.073   4.772
86697W        W50630  16.573  37.073   0.846
86698W        W50631  26.954  29.969  12.410
86699W        W50632  12.666  27.034  13.414
86700W        W50633  25.571  13.251  14.437
86701W        W50634  44.754   7.754  11.380
86702W        W50635  24.705  43.516  12.395
86703W        W50636   6.883   2.736   5.213
86704W        W50637  13.234   3.847  14.875
86705W        W50638  43.431  37.061   3.265
86706W        W50639   4.795  13.278  14.847
86707W        W50640  32.534  25.191   4.674
86708W        W50641   8.795   4.874   1.437
86709W        W50642  39.941  25.027  12.086
86710W        W50643   5.230   0.955  13.925
86711W        W50644  15.188  31.980   4.825
86712W        W50645  24.216  43.922  14.892
86713W        W50646  44.317  25.552  12.544
86714W        W50647  10.380   7.255  14.419
86715W        W50648   2.455   3.763   4.312
86716W        W50649  31.585  24.649   2.233
86717W        W50650   0.971  29.175  10.629
86718W        W50651   5.834  34.012  10.962
86719W        W50652  34.112  42.860   0.441
86720W        W50653  31.535  29.665  11.419
86721W        W50654  19.734  19.676  13.423
86722W        W50655  25.651  14.140  13.905
86723W        W50656  41.309   4.754  10.913
86724W        W50657  27.454  34.415  12.518
86725W        W50658  28.978  40.811   3.741
86726W        W50659  38.039  28.156  12.386
86727W        W50660  43.783  25.474   4.629
86728W        W50661  26.598  16.607  11.995
86729W        W50662  37.035  25.669  11.457
86730W        W50663  39.064  44.886  14.293
86731W        W50664  34.956  25.515   1.393
86732W        W50665  26.196  19.659  12.381
86733W        W50666  32.933  40.537   0.470
86734W        W50667  34.970   1.758   0.770
86735W        W50668  39.431  40.883   1.702
86736W        W50669  37.387  10.371   1.412
86737W        W50670  32.141  32.983   0.849
86738W        W50671  16.209  30.493  13.914
86739W        W50672  15.284  24.512  11.940
86740W        W50673   5.694  34.580   3.669
86741W        W50674  32.083  42.965   1.872
86742W        W50675  17.716   7.240  11.058
86743W        W50676  20.665  25.693   2.730
86744W        W50677  27.011  23.625   4.806
86745W        W50678  35.868  30.440  11.055
86746W        W50679  34.512  16.303   1.843
86747W        W50680  29.926  27.027  14.354
86748W        W50681  44.980  36.496   3.370
86749W        W50682   5.815  11.793   1.754
86750W        W50683  23.237  12.796   4.249
86751W        W50684   0.844  31.015   0.897
86752W        W50685   1.873  20.533  11.557
86753W        W50686  34.966  26.157   4.821
86754W        W50687  36.031   3.862  13.041
86755W        W50688  31.458  38.983   1.769
86756W        W50689   4.795  44.280  12.981
86757W        W50690  39.843   3.916  13.421
86758W        W50691  13.610  21.228   2.392
86759W        W50692  41.959  37.059   1.827
86760W        W50693  44.874  31.059   1.719
86761W        W50694  32.526   4.368  13.841
86762W        W50695  25.980  44.285   2.689
86763W        W50696  31.638  10.146   4.727
86764W        W50697   5.727  33.541  14.495
86765W        W50698  24.054  32.482   2.689
86766W        W50699   6.297  34.032   1.785
86767W        W50700  28.100  10.169   9.997
86768W        W50701  24.500   5.743   4.639
86769W        W50702   4.364  43.886   1.902
86770W        W50703  28.129  16.756  12.040
86771W        W50704   9.756  33.005   4.125
86772W        W50705  31.591   1.917   2.744
86773W        W50706   1.908  28.130   3.365
86774W        W50707  44.846  28.471   3.361
86775W        W50708   2.326  34.071   3.191
86776W        W50709  12.288  27.672   1.406
86777W        W50710  34.416  32.527  11.435
86778W        W50711  32.025  30.596  13.806
86779W        W50712  44.370  15.267  13.501
86780W        W50713  17.616  28.131   2.664
86781W        W50714  14.615  42.496   0.744
86782W        W50715   4.731  33.444   4.209
86783W        W50716  31.096  18.150  12.890
86784W        W50717  31.986  31.007  11.021
86785W        W50718  36.433   8.191   1.694
86786W        W50719   4.254  36.574  12.349
86787W        W50720  25.007  41.306   0.255
86788W        W50721   6.248  31.931   2.372
86789W        W50722   4.284  43.013  11.382
86790W        W50723   3.275  20.742  12.019
86791W        W50724  24.012  12.221   3.213
86792W        W50725  24.557  25.683  10.903
86793W        W50726  25.519  25.100   0.252
86794W        W50727  43.854  30.426  14.995
86795W        W50728   4.292  26.527   4.324
86796W        W50729  16.257  19.078  10.934
86797W        W50730  13.323  35.465   4.828
86798W        W50731  25.196  26.981  12.526
86799W        W50732  25.209   9.160  11.489
86800W        W50733  19.194   5.861   2.282
86801W        W50734  27.161  34.897  13.052
86802W        W50735  27.013   8.774  12.339
86803W        W50736  15.202  10.271   3.162
86804W        W50737  21.740  40.328   4.651
86805W        W50738   0.913  36.904   0.414
86806W        W50739  24.015   4.834   4.114
86807W        W50740  13.842  39.843  11.087
86808W        W50741  38.543   8.211  11.907
86809W        W50742  10.672  29.611   1.804
86810W        W50743  43.994  25.205   3.690
86811W        W50744  28.608  12.813   1.834
86812W        W50745  26.694  36.095   2.809
86813W        W50746  37.957  37.407  10.984
86814W        W50747  33.015  19.766   4.824
86815W        W50748  35.575   0.815  12.021
86816W        W50749  39.843  22.719  14.775
86817W        W50750   3.321  15.664   3.674
86818W        W50751  16.282  18.604  13.905
86819W        W50752  20.056  44.822   0.439
86820W        W50753  14.724  42.515  11.385
86821W        W50754  31.119   8.825   9.952
86822W        W50755   6.838  43.819   3.809
86823W        W50756  18.208  20.705  11.867
86824W        W50757  17.713  24.115   4.834
86825W        W50758  35.854  31.531   2.406
86826W        W50759  43.936  24.076   4.802
86827W        W50760  20.183  22.123   0.322
86828W        W50761  36.592  22.587   4.293
86829W        W50762  22.137   4.403  11.066
86830W        W50763  10.739  35.089   1.290
86831W        W50764   8.770  28.010  13.991
86832W        W50765  39.460  11.259   2.717
86833W        W50766  28.052  20.583  10.147
86834W        W50767  29.659   0.365   2.787
86835W        W50768  36.985  15.581   3.319
86836W        W50769  42.297   4.378  12.931
86837W        W50770  42.869  18.208   1.840
86838W        W50771  38.949  40.394   3.284
86839W        W50772  13.641  39.438   1.827
86840W        W50773  34.463  14.095  13.409
86841W        W50774  10.340  16.630   1.799
86842W        W50775   7.670  15.606  12.426
86843W        W50776  16.735  29.476   0.927
86844W        W50777  16.212   8.768   3.151
86845W        W50778   1.818  25.189   2.798
86846W        W50779   7.774   4.302   2.666
86847W        W50780  26.085  20.076   2.790
86848W        W50781   2.888  17.774  14.461
86849W        W50782  40.981   1.781   2.372
86850W        W50783   6.264  31.905   3.714
86851W        W50784  34.543  26.131  13.932
86852W        W50785  18.731  41.394  13.969
86853W        W50786   2.725  40.011  13.483
86854W        W50787  19.189   5.404   1.728
86855W        W50788  29.538  44.871   1.769
86856W        W50789  30.927  25.976   4.173
86857W        W50790  43.919  11.215   3.803
86858W        W50791  24.678  23.213  13.962
86859W        W50792  29.086  26.522  14.500
86860W        W50793  33.035  42.371  13.517
86861W        W50794  42.486  43.288  11.002
86862W        W50795  17.268  13.765   2.341
86863W        W50796  15.288   8.684  13.387
86864W        W50797   2.897  42.442  13.392
86865W        W50798  42.793  42.356   2.244
86866W        W50799  43.789  40.034  11.450
86867W        W50800  17.275  39.534  12.394
86868W        W50801  24.586  39.952  11.077
86869W        W50802  12.653  22.124  13.855
86870W        W50803  23.684  40.870   2.703
86871W        W50804  12.647  21.663  11.082
86872W        W50805  22.732   1.735   1.430
86873W        W50806  30.161  15.279   2.331
86874W        W50807  21.105  21.063   3.688
86875W        W50808   7.700  18.774  12.826
86876W        W50809  36.001  26.556  10.644
86877W        W50810  20.573   0.282   2.417
86878W        W50811  35.016  12.319   4.825
86879W        W50812  39.541   3.384   0.756
86880W        W50813  11.660  11.320  12.530
86881W        W50814   1.782  30.432   2.237
86882W        W50815  37.054  28.943   0.851
86883W        W50816  16.727  40.521  11.375
86884W        W50817  36.905  33.116  11.441
86885W        W50818   5.881  29.493  11.126
86886W        W50819  41.830  21.183   0.900
86887W        W50820   6.355  42.028  14.823
86888W        W50821  33.080   4.235  12.043
86889W        W50822  13.825  22.200  11.405
86890W        W50823   6.241  34.544   0.844
86891W        W50824  17.614  28.529   1.329
86892W        W50825  36.996   7.334   1.732
86893W        W50826  40.837  22.508   4.764
86894W        W50827  36.384  21.710   3.320
86895W        W50828  23.120  42.298   1.407
86896W        W50829   1.315  36.982   2.233
86897W        W50830  27.027  15.116  13.452
86898W        W50831  39.434  42.338   0.275
86899W        W50832  30.643  31.911   3.679
86900W        W50833  19.212  33.547   1.410
86901W        W50834  24.135  21.086  13.444
86902W        W50835  37.838  37.413  14.467
86903W        W50836   3.267  15.112   1.895
86904W        W50837   6.740  33.073   2.784
86905W        W50838  37.476  42.912  14.314
86906W        W50839  19.247   8.866   1.210
86907W        W50840  41.974  29.135  12.844
86908W        W50841  15.581  30.989   3.636
86909W        W50842   7.765  24.690   1.216
86910W        W50843  17.625  33.064   2.314
86911W        W50844  32.950  24.060  13.022
86912W        W50845   5.814  10.724   3.794
86913W        W50846   4.822  10.139   0.328
86914W        W50847  28.674  23.656  10.448
86915W        W50848  38.948  27.522   2.311
86916W        W50849   2.272  14.759  10.508
86917W        W50850  35.103  31.072  11.597
86918W        W50851  28.111   4.902   3.812
86919W        W50852  38.863  14.737   3.857
86920W        W50853   4.378  28.619   0.943
86921W        W50854  38.069  20.214  14.027
86922W        W50855   7.703  18.106  10.446
86923W        W50856   7.266  29.041   0.786
86924W        W50857  44.323  10.661  11.892
86925W        W50858  39.444  24.120   2.788
86926W        W50859  33.893  20.084  10.908
86927W        W50860  35.944  20.717  11.058
86928W        W50861  10.163  12.302   0.870
86929W        W50862  24.530   4.446  11.073
86930W        W50863   2.797  20.081  13.368
86931W        W50864  11.222   3.299   2.843
86932W        W50865   9.688   8.266  12.912
86933W        W50866   8.215  20.593  14.359
86934W        W50867  32.046  31.142   1.346
86935W        W50868  18.095  41.347   0.358
86936W        W50869  36.399  40.041   2.297
86937W        W50870  25.143  16.604   1.323
86938W        W50871   0.855  12.172   3.170
86939W        W50872   0.285   1.378  10.915
86940W        W50873  37.525  37.992  11.612
86941W        W50874   0.456  15.245  11.447
86942W        W50875  15.311  29.089   2.767
86943W        W50876   7.897  13.701   1.752
86944W        W50877  11.130  12.813   2.181
86945W        W50878  23.185   6.868  14.777
86946W        W50879  22.605  39.897   4.612
86947W        W50880  44.996  15.688   0.935
86948W        W50881  10.649   4.229  11.526
86949W        W50882  19.253   2.403   0.416
86950W        W50883   5.406  20.627  13.955
86951W        W50884   7.867  27.163  11.039
86952W        W50885   2.780  18.592   4.768
86953W        W50886  32.487  29.563  14.500
86954W        W50887  26.964  33.049   2.668
86955W        W50888  25.132  40.846   1.862
86956W        W50889  30.483   0.803   1.286
86957W        W50890  14.817  36.887  13.398
86958W        W50891  30.914  18.715  14.020
86959W        W50892  38.935   8.244   4.620
86960W        W50893  12.661  37.075  11.900
86961W        W50894  16.157  26.050   0.766
86962W        W50895  25.984  10.358  14.020
86963W        W50896  35.883  16.317   2.726
86964W        W50897  24.621  43.359  14.336
86965W        W50898  29.629  30.601  11.584
86966W        W50899  16.572  13.206  11.910
86967W        W50900   1.334  29.063   4.156
86968W        W50901  16.197  15.798   4.739
86969W        W50902  30.632  18.557  11.489
86970W        W50903  16.172  18.193   2.701
86971W        W50904  28.150  37.071  12.369
86972W        W50905  19.274  21.660   3.304
86973W        W50906   5.418  20.051   0.892
86974W        W50907  11.300  42.490  11.018
86975W        W50908  16.159  33.004  14.815
86976W        W50909   2.366  27.131  13.939
86977W        W50910   2.460   8.402  14.854
86978W        W50911  27.639  39.529  14.417
86979W        W50912  21.160  11.669   0.396
86980W        W50913  34.491  29.085  11.893
86981W        W50914  41.494  19.580   2.304
86982W        W50915  18.259  26.467   0.862
86983W        W50916  22.684  20.260   2.714
86984W        W50917  29.524  23.707  12.366
86985W        W50918  24.633  11.297  14.028
86986W        W50919  42.398  12.828   2.889
86987W        W50920  30.011  30.014  11.557
86988W        W50921  39.442  21.024   3.662
86989W        W50922  42.840  19.056  13.376
86990W        W50923  36.036   7.200  14.449
86991W        W50924  22.186  28.936   4.232
86992W        W50925  39.438  32.891   4.730
86993W        W50926   3.841  13.599  14.027
86994W        W50927   8.251  30.537   4.741
86995W        W50928  30.625   4.730   1.791
86996W        W50929   3.945   1.350   4.313
86997W        W50930  22.631  13.199  10.471
86998W        W50931   6.802  13.655  11.921
86999W        W50932  43.834   6.396   3.174
87000W        W50933  29.500  38.001  13.429
87001W        W50934   3.894  31.421   3.240
87002W        W50935  34.069   9.685   0.885
87003W        W50936  32.417  43.872   3.326
87004W        W50937  34.975  15.691  13.981
87005W        W50938  34.572   3.290  12.536
87006W        W50939  41.983   9.378  13.442
87007W        W50940  30.490  27.060   0.939
87008W        W50941  42.782  28.994  14.289
87009W        W50942   7.171  14.765   4.297
87010W        W50943   2.955  37.067   3.330
87011W        W50944  43.488   3.956   4.800
87012W        W50945  44.312   1.910   5.290
87013W        W50946  44.377   6.242   2.293
87014W        W50947  34.863   9.226  11.600
87015W        W50948  11.188  17.624   2.806
87016W        W50949  23.128  23.175   1.807
87017W        W50950  37.053   8.250   2.399
87018W        W50951   7.197  23.115   3.794
87019W        W50952  22.024  16.614   0.916
87020W        W50953  13.797  30.024  13.891
87021W        W50954  25.576  35.904   0.481
87022W        W50955  19.625   0.752  11.023
87023W        W50956  16.616  24.973   2.371
87024W        W50957  36.894   3.386  11.947
87025W        W50958  39.496   1.829   2.208
87026W        W50959  30.524  16.709   2.801
87027W        W50960  11.752  36.863  11.900
87028W        W50961   7.268   5.192  14.859
87029W        W50962   3.949  18.585  13.396
87030W        W50963  23.588  20.134  10.940
87031W        W50964  33.418  44.872   3.789
87032W        W50965  28.032  44.929  12.419
87033W        W50966  37.416   7.824   4.827
87034W        W50967   3.742  43.767  10.897
87035W        W50968   2.242  19.605  12.499
87036W        W50969  11.699  43.918  14.011
87037W        W50970  44.456   5.342  10.943
87038W        W50971  35.890  43.775   1.786
87039W        W50972  22.568  15.810  14.354
87040W        W50973  15.814  26.639  10.635
87041W        W50974  29.475  31.413   1.280
87042W        W50975  41.841   0.325  10.900
87043W        W50976   5.222  13.269  11.432
87044W        W50977  31.014  23.630   2.275
87045W        W50978  16.127  12.143  14.343
87046W        W50979  12.171  31.427  11.122
87047W        W50980  20.171  14.162  10.439
87048W        W50981  16.218   5.696   1.723
87049W        W50982  39.495  39.394   2.807
87050W        W50983  16.573  21.570   0.412
87051W        W50984  17.717   4.297  12.991
87052W        W50985  42.473  36.033   0.283
87053W        W50986  40.444  22.712   5.209
87054W        W50987  29.517  23.626   0.396
87055W        W50988  15.262  43.453  13.442
87056W        W50989   2.786  42.866  11.591
87057W        W50990  15.275  29.943  10.931
87058W        W50991  34.903  15.591   3.200
87059W        W50992  13.263  23.687  11.408
87060W        W50993   3.411  30.960  11.985
87061W        W50994  22.538  24.221   3.156
87062W        W50995  15.171  17.306  10.093
87063W        W50996   2.820   4.718  14.950
87064W        W50997   4.327  10.246   1.841
87065W        W50998   1.739   4.754   4.354
87066W        W50999  17.645  19.051  11.596
87067W        W51000  14.620  44.760  12.873
87068W        W51001   6.805  29.622   4.649
87069W        W51002  25.701  19.057   1.799
87070W        W51003   7.905  19.584   5.317
87071W        W51004   3.255  27.966   4.182
87072W        W51005  13.604  19.085   4.351
87073W        W51006  15.700  31.587  11.611
87074W        W51007  41.314  35.076   3.292
87075W        W51008   3.820  30.532  12.559
87076W        W51009   1.907   9.713   3.284
87077W        W51010  17.705  26.143   3.824
87078W        W51011  22.662  10.824  11.894
87079W        W51012  32.041  32.488   1.801
87080W        W51013   9.206  27.075   3.182
87081W        W51014   1.859   4.929   0.872
87082W        W51015   2.958  27.611   0.776
87083W        W51016  19.216   1.928  11.423
87084W        W51017  37.874  39.061  10.574
87085W        W51018  25.533  23.018  12.859
87086W        W51019  32.555   0.419   4.684
87087W        W51020  24.711  19.769  14.790
87088W        W51021  44.504  31.435   2.862
87089W        W51022   6.863  20.618  12.060
87090W        W51023  22.613   5.437  12.995
87091W        W51024  42.844  11.235  12.504
87092W        W51025  27.091  11.369  11.951
87093W        W51026  16.077  26.977   4.311
87094W        W51027  37.339  26.504  14.443
87095W        W51028  39.888  12.665   3.178
87096W        W51029   5.842  17.071  11.055
87097W        W51030  31.903   1.400   4.767
87098W        W51031  16.287  29.173   0.422
87099W        W51032  22.149  19.551   1.419
87100W        W51033  43.398  32.069  13.465
87101W        W51034  28.128   9.294   3.788
87102W        W51035  37.066  24.620  12.488
87103W        W51036  11.705  10.340  14.486
87104W        W51037  24.090  21.537   4.744
87105W        W51038  29.446   4.322   3.340
87106W        W51039   3.339  29.154   2.281
87107W        W51040  34.587  17.175  14.371
87108W        W51041  40.337  20.751   3.633
87109W        W51042   9.310  23.069  14.304
87110W        W51043  29.918  25.138  10.943
87111W        W51044   4.820  32.523  11.507
87112W        W51045  19.177  29.601   4.719
87113W        W51046  16.769   3.749   3.182
87114W        W51047  30.535  35.912  11.115
87115W        W51048  26.997  15.201   1.825
87116W        W51049   6.327  18.739   4.653
87117W        W51050  23.240   9.697   4.254
87118W        W51051  44.398  37.438   4.190
87119W        W51052  31.514  39.027  14.910
87120W        W51053  35.027  18.643   0.767
87121W        W51054  23.668  26.464  14.434
87122W        W51055   2.757  11.801  10.461
87123W        W51056  42.377  31.946  10.578
87124W        W51057   4.407  42.011  11.593
87125W        W51058  18.191  29.956  12.923
87126W        W51059  22.196  29.432  10.492
87127W        W51060  28.061  24.721  11.045
87128W        W51061  21.094  26.697  11.588
87129W        W51062  10.369  41.039  10.591
87130W        W51063   6.910   8.299  10.897
87131W        W51064   7.295  13.703  10.923
87132W        W51065  39.919  16.218   0.798
87133W        W51066  21.528  17.681  10.936
87134W        W51067  34.928  24.056   4.337
87135W        W51068  16.215   7.249  11.905
87136W        W51069   7.879   4.791  14.778
87137W        W51070   9.196   3.947   3.854
87138W        W51071  43.976  16.706  14.457
87139W        W51072  31.517   8.266  14.374
87140W        W51073  26.626  15.805  10.960
87141W        W51074  17.097  43.415   3.650
87142W        W51075   6.751  19.053   4.264
87143W        W51076  43.821  18.199  10.468
87144W        W51077   3.711  19.236   3.283
87145W        W51078  12.750  32.574  12.382
87146W        W51079  26.082  12.343  11.876
87147W        W51080  36.889  43.780   2.311
87148W        W51081   0.880  30.012  14.515
87149W        W51082  39.362  24.675   0.356
87150W        W51083  32.086  30.998  12.430
87151W        W51084  12.164  36.384  11.013
87152W        W51085  19.723  37.963  11.100
87153W        W51086  23.115  16.147   3.285
87154W        W51087  35.907  12.131   2.671
87155W        W51088  29.568  10.339   4.776
87156W        W51089  28.079  21.259  12.059
87157W        W51090   9.697  12.251  11.862
87158W        W51091  11.232  26.551  14.441
87159W        W51092  39.935  10.355  14.821
87160W        W51093  23.639  26.513  12.451
87161W        W51094   3.928   5.931   3.685
87162W        W51095  17.102  22.241   4.332
87163W        W51096  40.322  28.549   0.363
87164W        W51097  22.739  15.603   4.680
87165W        W51098  14.829  17.583   1.280
87166W        W51099  19.077  44.893  11.019
87167W        W51100   6.856  10.170  12.551
87168W        W51101   7.306   5.809   1.917
87169W        W51102  39.518  13.721   3.656
87170W        W51103   3.225  35.913  14.926
87171W        W51104   2.850  25.712  12.521
87172W        W51105  20.121   6.182   3.745
87173W        W51106   0.846   2.876   1.722
87174W        W51107   3.332  44.901  11.110
87175W        W51108  35.081  14.718  11.998
87176W        W51109  36.053  17.704   1.711
87177W        W51110  18.256  37.051   2.281
87178W        W51111  38.408  19.280   1.802
87179W        W51112  22.522  39.031   1.219
87180W        W51113  31.636  11.211   4.694
87181W        W51114  35.980  41.350  10.927
87182W        W51115   5.729  37.556   3.805
87183W        W51116  23.160  43.870   3.180
87184W        W51117  28.129  30.155   2.293
87185W        W51118  10.756  38.862   1.230
87186W        W51119  42.848  10.376   4.350
87187W        W51120  40.003  16.581   1.929
87188W        W51121  36.016   2.282  13.339
87189W        W51122   0.949   7.720  13.827
87190W        W51123  27.548  19.740  12.503
87191W        W51124   2.409  19.178  12.375
87192W        W51125  43.420  35.010  11.053
87193W        W51126  18.285  28.939  12.877
87194W        W51127  30.933  14.600   3.631
87195W        W51128  39.446  23.164  12.453
87196W        W51129   4.892  37.510   1.695
87197W        W51130  36.574  12.707   1.420
87198W        W51131  44.496  24.523  11.460
87199W        W51132  11.764  31.402   4.156
87200W        W51133   6.234  37.080   1.834
87201W        W51134  42.926  13.654   2.894
87202W        W51135  11.212  40.309  12.848
87203W        W51136   0.879  21.249  11.403
87204W        W51137   7.347  27.123   9.942
87205W        W51138  27.649   2.930   3.756
87206W        W51139  38.469  28.168   2.393
87207W        W51140   6.240  22.128  14.991
87208W        W51141  10.786   8.705  11.408
87209W        W51142   7.846  23.002   1.244
87210W        W51143  36.381   0.941  11.077
87211W        W51144   1.810  29.641   2.839
87212W        W51145  33.950  27.996  13.970
87213W        W51146  37.566  10.776  12.925
87214W        W51147  10.201  38.383   2.756
87215W        W51148  11.158  22.574  14.914
87216W        W51149  44.894  44.942   0.949
87217W        W51150  41.416  12.808  12.982
87218W        W51151  25.532  32.076   4.178
87219W        W51152   9.222  38.045   0.243
87220W        W51153   8.227  12.153   3.219
87221W        W51154  11.682  14.118  13.507
87222W        W51155   8.217  28.624   3.643
87223W        W51156  16.159  26.075  12.546
87224W        W51157   3.846   8.722   3.734
87225W        W51158  31.633  15.763  10.497
87226W        W51159   2.910   5.274  13.903
87227W        W51160  23.608  42.923   3.268
87228W        W51161  25.146  29.629  14.787
87229W        W51162   1.925  11.196  12.826
87230W        W51163  30.413  23.614   1.876
87231W        W51164  21.027  42.999  12.491
87232W        W51165   7.790  26.168  12.962
87233W        W51166  35.995   2.723   1.425
87234W        W51167  25.495   2.359  13.493
87235W        W51168  40.900  11.735  12.467
87236W        W51169   6.257  26.598   4.336
87237W        W51170   2.909  27.627  11.558
87238W        W51171   2.343  15.297   3.241
87239W        W51172   1.947  40.844  12.579
87240W        W51173  42.978  21.728   4.612
87241W        W51174  21.534  24.692   1.445
87242W        W51175  11.778   9.720  11.523
87243W        W51176  10.305  18.746   3.649
87244W        W51177  41.428  17.276  14.887
87245W        W51178   9.197  13.178  11.430
87246W        W51179  28.509  37.422   3.703
87247W        W51180  34.948  31.959  10.425
87248W        W51181  44.010  20.228   4.327
87249W        W51182   4.712  30.972  12.414
87250W        W51183  34.531  27.576   0.938
87251W        W51184  14.152  10.770  11.383
87252W        W51185  30.582  32.907   1.235
87253W        W51186  25.158  33.920  10.414
87254W        W51187  44.310   3.790   0.298
87255W        W51188  22.150   5.712  14.931
87256W        W51189  13.342   6.723  12.493
87257W        W51190  10.877  41.528  14.787
87258W        W51191  15.681  33.000  14.815
87259W        W51192  44.918  14.612   4.308
87260W        W51193  22.008  34.068  12.403
87261W        W51194  25.591  26.675   1.420
87262W        W51195   7.280  18.749  11.952
87263W        W51196   5.362  32.410   1.878
87264W        W51197  20.736   0.252  13.852
87265W        W51198  10.256   4.865  11.513
87266W        W51199  43.472  37.374  13.322
87267W        W51200   1.370  40.486   4.238
87268W        W51201   4.451  37.384  14.898
87269W        W51202  37.052   8.350   4.278
87270W        W51203  10.838  26.041  10.993
87271W        W51204  29.662  10.717   4.746
87272W        W51205   9.185  30.493   4.161
87273W        W51206  29.596  36.465  13.952
87274W        W51207  43.368   3.921  12.915
87275W        W51208   8.699  29.618   4.177
87276W        W51209  16.594   4.237   0.827
87277W        W51210  17.202  26.006   4.660
87278W        W51211  34.499   4.205  10.446
87279W        W51212  19.589  25.177   4.186
87280W        W51213  12.361  26.084   1.445
87281W        W51214  14.292  33.034  11.992
87282W        W51215   6.354  18.578  14.866
87283W        W51216  26.565  39.882   9.924
87284W        W51217   8.187   2.910   5.122
87285W        W51218  13.154  29.486   1.444
87286W        W51219  39.381  17.103   3.854
87287W        W51220  28.093  31.150  14.348
87288W        W51221  18.615   1.321   1.728
87289W        W51222  36.424  20.746   3.172
87290W        W51223  38.010  23.675   4.690
87291W        W51224  42.959  31.557  11.101
87292W        W51225  38.547  27.670  11.464
87293W        W51226   1.864  36.394   3.231
87294W        W51227  40.486  36.401  14.306
87295W        W51228   7.855  42.014   0.916
87296W        W51229  32.455  33.476   4.261
87297W        W51230  36.918  14.638   0.354
87298W        W51231  26.458   7.249   9.964
87299W        W51232  37.393  34.533  11.407
87300W        W51233  30.615  24.096   3.326
87301W        W51234  10.718  11.362  12.366
87302W        W51235  30.413  44.432   0.443
87303W        W51236  33.437  22.595  10.943
87304W        W51237   8.175  13.228  10.613
87305W        W51238  20.069  35.084  11.078
87306W        W51239  27.170  27.682  12.567
87307W        W51240  30.985  30.477  10.599
87308W        W51241  43.461  26.664  11.452
87309W        W51242  11.209  39.838   4.234
87310W        W51243  25.155   3.712   1.748
87311W        W51244   4.821   4.921   3.334
87312W        W51245  44.972  18.233   2.903
87313W        W51246  16.189  23.235  12.433
87314W        W51247  15.283  25.481  11.073
87315W        W51248   3.232  31.137   2.862
87316W        W51249  18.103  28.963  13.547
87317W        W51250   2.876   8.364  12.008
87318W        W51251   2.839   4.273  11.609
87319W        W51252   5.850   1.945   2.404
87320W        W51253  31.638  32.106   1.705
87321W        W51254  30.982  23.719  13.382
87322W        W51255   8.684  22.162  13.368
87323W        W51256  40.345  14.716  13.398
87324W        W51257  14.830  32.045  13.028
87325W        W51258  22.998  36.001   2.873
87326W        W51259   6.412  35.021  14.391
87327W        W51260  22.523  44.399  14.478
87328W        W51261   6.842   1.471   2.319
87329W        W51262   7.369  31.984   2.813
87330W        W51263   2.440  35.416   2.785
87331W        W51264  40.406  22.524  11.005
87332W        W51265  29.558  11.301   2.372
87333W        W51266  36.574  12.716  11.554
87334W        W51267  34.110  36.947   1.787
87335W        W51268   0.346   9.734  14.455
87336W        W51269  28.463   1.473  11.119
87337W        W51270  28.610   7.197   4.138
87338W        W51271  16.098  31.515  11.101
87339W        W51272  31.150   6.869  12.071
87340W        W51273  32.430   9.858   2.874
87341W        W51274  37.026  27.556   4.727
87342W        W51275  26.516  32.448   3.182
87343W        W51276   2.354   2.376  11.012
87344W        W51277  33.000  12.672  12.944
87345W        W51278  28.025  44.834   1.877
87346W        W51279   4.320  34.078  13.851
87347W        W51280   4.413  11.850   0.944
87348W        W51281  13.718  44.007   3.350
87349W        W51282  38.472  19.193  13.841
87350W        W51283  23.707  37.982  11.561
87351W        W51284  16.575  22.158  14.845
87352W        W51285  37.088  33.953   3.339
87353W        W51286  35.524  28.016   3.795
87354W        W51287  10.663  33.475  14.835
87355W        W51288  30.004   8.786   0.403
87356W        W51289  21.665  43.398   1.896
87357W        W51290   0.392   5.735   1.903
87358W        W51291  10.640  27.979   4.701
87359W        W51292  11.242  11.248   2.855
87360W        W51293   4.217  25.508   0.900
87361W        W51294  33.970  35.020  12.546
87362W        W51295  43.386  31.542   1.864
87363W        W51296  10.668  28.469   4.694
87364W        W51297   8.860  19.163   2.849
87365W        W51298  33.893  31.956   2.381
87366W        W51299  16.281  30.064  10.947
87367W        W51300  21.627  41.536  14.002
87368W        W51301  11.737  19.040  13.432
87369W        W51302  23.516   5.816  14.802
87370W        W51303  21.719  15.697  11.018
87371W        W51304  29.508  36.576   1.810
87372W        W51305  12.734  18.269   2.731
87373W        W51306  20.177  33.605  14.480
87374W        W51307  42.425  30.941  13.433
87375W        W51308  28.100  15.256  14.931
87376W        W51309  19.586   3.878  11.424
87377W        W51310  32.028  39.372   1.801
87378W        W51311   8.232  18.698  12.960
87379W        W51312  25.181  42.467  13.052
87380W        W51313  27.559  23.163  14.297
87381W        W51314  31.401  23.602   4.317
87382W        W51315  14.223   4.205   1.820
87383W        W51316  17.567   8.828   0.822
87384W        W51317  15.652  34.081   2.332
87385W        W51318   3.382  28.482   0.472
87386W        W51319  35.946   5.357   4.328
87387W        W51320   1.321  23.684  13.379
87388W        W51321  15.598  34.035  13.404
87389W        W51322   3.862   8.713   4.838
87390W        W51323   0.782  23.149  11.528
87391W        W51324   9.349  44.787   2.741
87392W        W51325   2.451   2.933   2.870
87393W        W51326   9.717  29.049  12.922
87394W        W51327  15.700  13.729  14.321
87395W        W51328   7.870   6.916  13.376
87396W        W51329  33.916  28.507   0.324
87397W        W51330  37.931   4.366   0.263
87398W        W51331  21.735  32.069  13.045
87399W        W51332  35.434  19.100  10.509
87400W        W51333  27.587  18.235  13.440
87401W        W51334   5.844   3.258   4.238
87402W        W51335  38.531   1.272  11.420
87403W        W51336  35.531  38.530   2.382
87404W        W51337  25.127  15.101   1.865
87405W        W51338  15.266   1.306   2.808
87406W        W51339  38.033  43.984  13.011
87407W        W51340  16.624   4.929   3.190
87408W        W51341   5.360   4.808   3.321
87409W        W51342  11.698  11.353  11.565
87410W        W51343   8.372  44.304   2.317
87411W        W51344  27.585  31.922  12.412
87412W        W51345   4.875  38.509   3.790
87413W        W51346  11.664   8.212   4.117
87414W        W51347  32.942  44.949  10.517
87415W        W51348  12.761  16.171   3.175
87416W        W51349   7.671  41.333  12.507
87417W        W51350  24.668  10.687  11.530
87418W        W51351  24.005  37.080   2.887
87419W        W51352  18.723  42.968   0.303
87420W        W51353  35.075  41.512   3.244
87421W        W51354  29.546  16.588  12.920
87422W        W51355  38.519  33.600   4.129
87423W        W51356  40.038  39.370  11.967
87424W        W51357  22.179  43.369   3.639
87425W        W51358  15.152   7.759   2.752
87426W        W51359   8.386   9.795   2.825
87427W        W51360  10.822   3.400   0.247
87428W        W51361  14.737   0.304  14.435
87429W        W51362  24.662  31.940   4.807
87430W        W51363  11.168  30.511   2.847
87431W        W51364  13.321  27.565  14.926
87432W        W51365  20.100  43.944  10.540
87433W        W51366  37.376   8.752  11.576
87434W        W51367   7.785  15.312   0.438
87435W        W51368  18.559  33.114  10.410
87436W        W51369  11.776  22.657   5.110
87437W        W51370  11.845  23.012   0.810
87438W        W51371   0.889  35.862   5.204
87439W        W51372  38.983   3.830   4.696
87440W        W51373  32.948   6.873  14.842
87441W        W51374  31.577   9.213   2.346
87442W        W51375  33.885  44.867  14.796
87443W        W51376  41.989   9.386   1.880
87444W        W51377  39.426  14.254   5.251
87445W        W51378  43.867  14.744  10.460
87446W        W51379  31.959   2.287   0.432
87447W        W51380  15.661   0.480  14.954
87448W        W51381  39.531  44.765   0.755
87449W        W51382  29.445  17.125   9.922
87450W        W51383  11.805   0.928   3.354
87451W        W51384  32.560  12.353   2.868
87452W        W51385  42.784  33.567  12.379
87453W        W51386  10.369  23.511  13.942
87454W        W51387  21.588  33.389   2.282
87455W        W51388   2.883  31.152  12.375
87456W        W51389   1.361  24.502   1.927
87457W        W51390  44.993  24.977   1.283
87458W        W51391   9.298  34.988  13.973
87459W        W51392  30.635   1.367   3.690
87460W        W51393   8.737  44.497  10.533
87461W        W51394   3.931  10.768   1.816
87462W        W51395  39.426   9.748  13.819
87463W        W51396  28.528  13.119  13.468
87464W        W51397  41.350  41.455   4.148
87465W        W51398   2.308  44.396  12.393
87466W        W51399  43.395  35.575  14.979
87467W        W51400  13.260  28.034   4.775
87468W        W51401  26.013   6.791   0.435
87469W        W51402   2.864  19.271   0.967
87470W        W51403  11.364  12.694  13.930
87471W        W51404  41.858  23.502   3.263
87472W        W51405  17.741  17.106   2.205
87473W        W51406   2.249  14.594   3.337
87474W        W51407   8.184   4.820  14.500
87475W        W51408  27.075  41.479   1.905
87476W        W51409   3.930  18.255   2.679
87477W        W51410   5.390   1.299   2.679
87478W        W51411   6.900  44.290   0.820
87479W        W51412  17.233  31.077   1.765
87480W        W51413  29.992   7.256  11.930
87481W        W51414  24.076  32.402  12.431
87482W        W51415  28.045  30.637   2.682
87483W        W51416  10.729  39.912   3.783
87484W        W51417  42.814   5.369  12.024
87485W        W51418   6.736  14.099  10.458
87486W        W51419   2.848  41.357   0.374
87487W        W51420   9.261  41.981  11.921
87488W        W51421   3.941  27.111   3.382
87489W        W51422  33.130   2.380  14.948
87490W        W51423  24.175  21.085   1.777
87491W        W51424  22.061  35.437  14.778
87492W        W51425  12.857  11.329  12.955
87493W        W51426  32.568   0.463   3.275
87494W        W51427   9.769   2.784   0.829
87495W        W51428  27.513   9.848   1.233
87496W        W51429  12.708   4.269   4.353
87497W        W51430  43.914  15.269  13.829
87498W        W51431  42.431  19.664   1.407
87499W        W51432  39.380  37.896   2.371
87500W        W51433  42.458  13.634   3.719
87501W        W51434  13.829  43.944   2.203
87502W        W51435  25.562   9.751  13.365
87503W        W51436  17.113  12.761   4.197
87504W        W51437  25.984  14.676  12.508
87505W        W51438  22.538   6.804  13.814
87506W        W51439   8.163  33.031   1.913
87507W        W51440  37.479  28.024  14.505
87508W        W51441  21.166  16.686  10.134
87509W        W51442  40.825  10.357  14.884
87510W        W51443  37.383   9.738  14.292
87511W        W51444  34.056   4.381  10.561
87512W        W51445   1.858  15.752   2.276
87513W        W51446  27.556  40.452  11.530
87514W        W51447  42.991  24.064  14.451
87515W        W51448   2.731  42.381   3.190
87516W        W51449  17.571   8.852   3.330
87517W        W51450  31.447  35.090  12.910
87518W        W51451  15.131  30.043  11.508
87519W        W51452  21.516  19.556  14.993
87520W        W51453   8.367  16.134  13.373
87521W        W51454  16.252  26.677  11.541
87522W        W51455   5.282  21.638  13.425
87523W        W51456   7.278  38.976  13.793
87524W        W51457  30.062  31.142  14.315
87525W        W51458   0.807  27.627  14.763
87526W        W51459  40.872  19.210  13.946
87527W        W51460  15.273   8.815  14.854
87528W        W51461  35.887  34.918  12.863
87529W        W51462   7.866  11.156   1.253
87530W        W51463   7.351  23.575   3.188
87531W        W51464   1.372  25.110   4.685
87532W        W51465  22.568  15.591  11.958
87533W        W51466   3.249   0.426  11.987
87534W        W51467  40.450   0.952   0.796
87535W        W51468   1.893   3.739   2.369
87536W        W51469  40.921   5.273   4.776
87537W        W51470  32.488  26.678   2.333
87538W        W51471  41.039  35.406   4.267
87539W        W51472  34.539  32.887   3.825
87540W        W51473  28.635  36.450   0.878
87541W        W51474   4.283  16.228  10.070
87542W        W51475  26.677  32.046  13.830
87543W        W51476  33.896  36.020   4.608
87544W        W51477  20.752  14.800   0.940
87545W        W51478   1.883   7.382   1.291
87546W        W51479  35.482   8.169  10.949
87547W        W51480  43.387   5.414   4.763
87548W        W51481  21.109  44.979   4.812
87549W        W51482  44.350  20.187   2.791
87550W        W51483  20.721  38.403  11.912
87551W        W51484  26.669  32.445   0.437
87552W        W51485  23.547  16.291   0.865
87553W        W51486  27.029  24.198   3.745
87554W        W51487  26.023   3.427  14.504
87555W        W51488  28.619  21.093  10.472
87556W        W51489  43.772  14.608  12.994
87557W        W51490   4.337   1.788   5.219
87558W        W51491  18.295  12.759  14.957
87559W        W51492  25.623  40.304  14.026
87560W        W51493  10.651   4.278   4.186
87561W        W51494   4.364   6.213  10.140
87562W        W51495  30.503  20.524   1.230
87563W        W51496  23.015  32.519   4.343
87564W        W51497   5.303  30.540   4.171
87565W        W51498  36.945   3.877   2.729
87566W        W51499  43.370  14.616   0.831
87567W        W51500   6.252  13.295   5.132
87568W        W51501  43.921  21.239   2.869
87569W        W51502  10.819  35.395  10.603
87570W        W51503  14.300  18.053   3.197
87571W        W51504  12.658   1.343  14.013
87572W        W51505  42.936  23.559   0.374
87573W        W51506  19.672  31.085  12.089
87574W        W51507   4.827   4.439  13.530
87575W        W51508   3.783   3.310  13.462
87576W        W51509   1.271  23.721   2.221
87577W        W51510  42.025  33.614  11.025
87578W        W51511   3.284  27.509  13.844
87579W        W51512  21.594   4.939   2.324
87580W        W51513  29.947  16.727  10.457
87581W        W51514   0.432  30.644   0.259
87582W        W51515  22.026  26.693  11.429
87583W        W51516  34.424   6.248  14.032
87584W        W51517  43.765   7.330   3.152
87585W        W51518  39.004   6.222   0.899
87586W        W51519  31.076  25.669  11.412
87587W        W51520  25.042  19.167  12.365
87588W        W51521  10.801  11.332  12.963
87589W        W51522  26.101  43.829   0.768
87590W        W51523  43.015  28.457   4.817
87591W        W51524   0.299  25.589  10.513
87592W        W51525  13.798  33.026  11.020
87593W        W51526   0.375  36.525  12.483
87594W        W51527  29.627   9.742  12.902
87595W        W51528   9.304  23.677  13.942
87596W        W51529  37.837   6.333   2.224
87597W        W51530   5.861   0.789   4.164
87598W        W51531   2.925   0.352   1.920
87599W        W51532  37.516  35.906  12.372
87600W        W51533  22.577  40.328   4.753
87601W        W51534  38.562  40.478  12.517
87602W        W51535  33.417  38.984   3.251
87603W        W51536  23.584   1.836   4.348
87604W        W51537  38.990  11.830   2.828
87605W        W51538  40.471  41.855   4.191
87606W        W51539   4.737   0.794   1.763
87607W        W51540   4.328  19.283   0.397
87608W        W51541  30.924  29.462  12.439
87609W        W51542   9.257  24.576   4.707
87610W        W51543   4.778  29.970   5.301
87611W        W51544  43.925  41.831   4.287
87612W        W51545   4.260  10.688   3.661
87613W        W51546   9.304   8.794  12.365
87614W        W51547   8.232  29.051  14.851
87615W        W51548  20.057   0.839  10.600
87616W        W51549   7.867  27.678  10.642
87617W        W51550  23.213  44.396   3.208
87618W        W51551  44.795  12.183  14.392
87619W        W51552   0.983  29.565  13.834
87620W        W51553   8.851   9.245  14.903
87621W        W51554  33.611  26.555   2.243
87622W        W51555  21.180  42.439  11.421
87623W        W51556  11.283  30.154  14.508
87624W        W51557  37.037  19.701  10.943
87625W        W51558  13.843  34.056   2.812
87626W        W51559   2.388   5.821   0.777
87627W        W51560  29.580   3.939  13.924
87628W        W51561   6.777  44.929  13.321
87629W        W51562  39.469  17.230  11.503
87630W        W51563  17.146  22.668  12.502
87631W        W51564  17.568  14.787   4.162
87632W        W51565  27.076  35.512   4.248
87633W        W51566  24.533  25.015  13.527
87634W        W51567  34.478  31.566   4.205
87635W        W51568  25.985  10.181  14.375
87636W        W51569  44.006  36.948   0.260
87637W        W51570  21.628  38.325   0.738
87638W        W51571  10.341  24.540   0.431
87639W        W51572   9.855   6.810  11.922
87640W        W51573  44.306  11.864  11.548
87641W        W51574  35.994  34.035   0.823
87642W        W51575   3.820   4.724   2.234
87643W        W51576  27.678  36.054  12.362
87644W        W51577  33.904   8.673   4.198
87645W        W51578  30.473  20.669   0.859
87646W        W51579  26.195  16.701   3.221
87647W        W51580   9.847  14.294  13.333
87648W        W51581  33.972  31.998   1.850
87649W        W51582  23.155   9.648  14.999
87650W        W51583   1.456  24.723   0.336
87651W        W51584  22.075   1.315   0.335
87652W        W51585  15.658  22.580   0.951
87653W        W51586  20.596  26.651   0.791
87654W        W51587   3.925  22.512   4.835
87655W        W51588  28.612  28.540   3.373
87656W        W51589  26.952  36.452   1.413
87657W        W51590  34.032  34.513   3.345
87658W        W51591  17.670  16.230   1.715
87659W        W51592  23.206  27.012   4.753
87660W        W51593  28.977   9.705   3.634
87661W        W51594   6.684  25.555  11.378
87662W        W51595   2.398   1.753   2.776
87663W        W51596  23.622  29.116   4.781
87664W        W51597   5.815  23.020  10.583
87665W        W51598  44.931  16.115   2.272
87666W        W51599  20.613  20.098  13.504
87667W        W51600   3.389  29.549  14.957
87668W        W51601   3.751  23.658   1.426
87669W        W51602   9.645  11.257   3.348
87670W        W51603  43.333  40.029   2.221
87671W        W51604  25.052  41.307   4.197
87672W        W51605  36.477  19.120   1.922
87673W        W51606  44.392  30.583  10.064
87674W        W51607  12.709  31.481   0.852
87675W        W51608  20.720   3.224  11.557
87676W        W51609   5.884  32.399   2.194
87677W        W51610  12.265  11.334   0.917
87678W        W51611  23.196  27.155  14.915
87679W        W51612  42.410  17.640   0.818
87680W        W51613  34.023  30.475   2.690
87681W        W51614  32.607  33.128   3.241
87682W        W51615  11.297  42.477   1.706
87683W        W51616  23.578   5.300   3.379
87684W        W51617   0.744  10.752   1.282
87685W        W51618  40.441  37.068   0.338
87686W        W51619  36.434  20.756  10.492
87687W        W51620   7.199   6.797   1.720
87688W        W51621   3.320  35.536   1.778
87689W        W51622  24.638  12.662  14.816
87690W        W51623   0.749   8.712   0.729
87691W        W51624  27.661  20.662  13.421
87692W        W51625  44.828  43.328   1.926
87693W        W51626  14.639  28.998   3.707
87694W        W51627  24.087   1.462  13.504
87695W        W51628  36.353  24.574  10.420
87696W        W51629  24.168  18.711   4.225
87697W        W51630  25.056  43.299  10.101
87698W        W51631   0.406  25.653   2.763
87699W        W51632   6.893  33.044   1.377
87700W        W51633   3.859  43.929   2.261
87701W        W51634  10.382   4.938  12.484
87702W        W51635  36.583  25.151  10.026
87703W        W51636  26.631  26.111  14.942
87704W        W51637  20.664  27.179   2.351
87705W        W51638  44.310   3.373   0.291
87706W        W51639   4.806   9.836  14.470
87707W        W51640   2.844  22.646   3.239
87708W        W51641  15.788   1.373  11.859
87709W        W51642   4.700   2.956   4.181
87710W        W51643   3.386   4.350  11.021
87711W        W51644   5.425  40.355  14.302
87712W        W51645  39.913   0.369  12.075
87713W        W51646  30.005  36.566   1.787
87714W        W51647  20.754   7.721  12.521
87715W        W51648   6.851   9.836  11.971
87716W        W51649  27.088  31.902   3.211
87717W        W51650  33.613   7.302  12.070
87718W        W51651  23.512  42.280  14.863
87719W        W51652  41.823   4.415  12.523
87720W        W51653  30.003  31.518  12.085
87721W        W51654  12.329  13.688   0.781
87722W        W51655   2.428  44.270  14.015
87723W        W51656   2.338  30.038   3.284
87724W        W51657   1.474  18.713   3.747
87725W        W51658  17.631  19.644   2.895
87726W        W51659  24.121  28.047  10.521
87727W        W51660  18.743  37.463   1.268
87728W        W51661   9.307  44.410   1.320
87729W        W51662  31.053  16.084  12.861
87730W        W51663   6.293  28.679   2.370
87731W        W51664  20.203  24.558   1.372
87732W        W51665  44.328  35.058   1.740
87733W        W51666  40.878  29.130   2.857
87734W        W51667  27.472  39.861   3.306
87735W        W51668   4.909   1.287  13.825
87736W        W51669  20.596  27.010  12.525
87737W        W51670  20.197  10.348   1.701
87738W        W51671  12.199   3.856  12.963
87739W        W51672  33.574  33.037  11.477
87740W        W51673  12.211  14.236   0.452
87741W        W51674  30.575  12.731   4.607
87742W        W51675   7.407  20.594  14.923
87743W        W51676  41.361  10.286   4.635
87744W        W51677   4.244  26.699  12.980
87745W        W51678  18.281  15.708   9.569
87746W        W51679  14.592  28.051   4.675
87747W        W51680  23.725  27.066   3.816
87748W        W51681  36.093  37.960   1.386
87749W        W51682  22.533  41.937  12.488
87750W        W51683   7.710  43.324   3.309
87751W        W51684  22.235   3.323   5.136
87752W        W51685  33.415  20.097   1.700
87753W        W51686  32.455  18.687   4.185
87754W        W51687  21.133   4.931  14.938
87755W        W51688   4.264  23.008   3.733
87756W        W51689   0.916  14.736   4.691
87757W        W51690   4.837   7.740  13.999
87758W        W51691  14.672  37.856  11.421
87759W        W51692   1.458  44.892  13.314
87760W        W51693  30.488  11.703   2.700
87761W        W51694   1.475  36.384  11.417
87762W        W51695  35.019  40.880  14.294
87763W        W51696  33.090   4.406  10.593
87764W        W51697  20.133   9.820   4.681
87765W        W51698  28.617  19.200  13.540
87766W        W51699  34.992  30.426  12.999
87767W        W51700  10.337  12.803  13.332
87768W        W51701   0.861  18.732  11.062
87769W        W51702  15.706  25.580  10.892
87770W        W51703  33.478  11.280  13.513
87771W        W51704  30.621   8.286   3.812
87772W        W51705  10.163  34.450   4.288
87773W        W51706  29.015  18.067   4.822
87774W        W51707  19.757   6.687   0.265
87775W        W51708  29.430  26.190  13.325
87776W        W51709  43.339  20.221   0.905
87777W        W51710  23.603  33.506   4.743
87778W        W51711  14.118  11.848  12.861
87779W        W51712  34.370  23.567   3.852
87780W        W51713  36.593  40.970  11.599
87781W        W51714  28.146  39.948   0.950
87782W        W51715  35.980   5.926   0.966
87783W        W51716  26.179  42.008  12.405
87784W        W51717  33.551  31.972   2.412
87785W        W51718  30.431  13.106  13.366
87786W        W51719  23.490  41.982   0.775
87787W        W51720  34.427   0.884  14.958
87788W        W51721  15.120   1.759   2.839
87789W        W51722  43.982  22.091   0.476
87790W        W51723  12.320   1.415   4.656
87791W        W51724  39.494  24.104   2.227
87792W        W51725   2.905  38.324   2.180
87793W        W51726  29.619  29.918  10.899
87794W        W51727  35.995  19.722   4.694
87795W        W51728  26.192  42.312  10.909
87796W        W51729  41.025  39.452  13.314
87797W        W51730  15.802  33.960  12.372
87798W        W51731  17.246  36.956   4.663
87799W        W51732  21.719  17.627  13.344
87800W        W51733   4.715  42.904  11.386
87801W        W51734  30.601  43.946   1.389
87802W        W51735  38.054   3.436  10.971
87803W        W51736   1.238  14.177   4.635
87804W        W51737  39.990  40.021   3.241
87805W        W51738   9.270  20.250   0.955
87806W        W51739   3.348   9.365  11.421
87807W        W51740  27.556   0.900  11.474
87808W        W51741  17.070   3.949  12.017
87809W        W51742   9.300   9.221   3.148
87810W        W51743  21.142  24.537  10.441
87811W        W51744  17.300  44.369   4.641
87812W        W51745   5.224   0.915  12.509
87813W        W51746  28.445   1.784   1.704
87814W        W51747  17.188   0.819   0.289
87815W        W51748   2.869  30.653  12.920
87816W        W51749  41.968  30.966   2.267
87817W        W51750  15.093  14.647  11.489
87818W        W51751   0.276   3.431   5.136
87819W        W51752  43.362   3.414  11.486
87820W        W51753   1.447  43.981   0.889
87821W        W51754   6.842   4.708   5.641
87822W        W51755  33.620  29.164  14.380
87823W        W51756   6.220  13.146   3.809
87824W        W51757   2.231  41.966  13.891
87825W        W51758  32.595  22.223   4.342
87826W        W51759  16.190  30.440  13.368
87827W        W51760  23.588  18.286   3.290
87828W        W51761   5.420  38.449   1.727
87829W        W51762   8.344  33.080   0.459
87830W        W51763  10.177  25.157  10.002
87831W        W51764   8.822   1.359  14.917
87832W        W51765   5.401  16.095   1.903
87833W        W51766   8.693  10.665   2.357
87834W        W51767  37.915  30.149   4.740
87835W        W51768   9.700   4.826  14.865
87836W        W51769  23.037   6.825   1.283
87837W        W51770   1.942  16.606  12.980
87838W        W51771   5.399  41.517  13.012
87839W        W51772   5.702  11.816  10.984
87840W        W51773  21.724   3.802   3.755
87841W        W51774   4.729  30.416  12.022
87842W        W51775  29.959   5.841  10.961
87843W        W51776  42.302  33.418  11.019
87844W        W51777  13.805  23.542  13.393
87845W        W51778  26.077  26.587   4.275
87846W        W51779  16.674  18.256   1.288
87847W        W51780   8.662  32.018   0.332
87848W        W51781  35.374  11.774  14.349
87849W        W51782  43.810  34.042  14.350
87850W        W51783  15.172  24.706  10.975
87851W        W51784  22.504   0.774   5.292
87852W        W51785  23.147  17.743  14.393
87853W        W51786  13.708  44.887  10.579
87854W        W51787  32.928  43.978  13.842
87855W        W51788  18.098  17.737  12.363
87856W        W51789  31.520  23.113   0.846
87857W        W51790  38.483  37.855  11.009
87858W        W51791  16.808  17.614  11.434
87859W        W51792  32.574  42.464  12.561
87860W        W51793  13.645  40.969   1.394
87861W        W51794  19.226  32.443   0.354
87862W        W51795  18.599  36.943  14.513
87863W        W51796  16.759   9.199  11.446
87864W        W51797  26.696  12.789  13.518
87865W        W51798  41.502   1.909  10.492
87866W        W51799   4.823  42.909   4.241
87867W        W51800  44.984  31.971  13.423
87868W        W51801  35.110  17.800   1.301
87869W        W51802  43.931  20.237  11.958
87870W        W51803  28.551   9.847  10.433
87871W        W51804   1.275  27.645   0.444
87872W        W51805  24.507  21.066  14.874
87873W        W51806  28.951   7.904   0.355
87874W        W51807  21.096  31.494   1.407
87875W        W51808   2.759  18.612   3.261
87876W        W51809  19.140  16.241   3.767
87877W        W51810   7.242  10.669   3.185
87878W        W51811  41.892  37.867  11.913
87879W        W51812  36.588   7.701   4.159
87880W        W51813  43.887  36.041   0.750
87881W        W51814  43.347  34.876   3.277
87882W        W51815  10.811  43.803  10.580
87883W        W51816  28.055   6.709   0.349
87884W        W51817   9.797   3.271   4.830
87885W        W51818  41.335   1.948   2.388
87886W        W51819  30.521  36.347   3.676
87887W        W51820  33.125  36.959   1.872
87888W        W51821   7.254  34.594  12.946
87889W        W51822  31.007  27.596   2.411
87890W        W51823  29.985  33.456  14.972
87891W        W51824  40.992   8.656   0.836
87892W        W51825  27.137   0.823  13.966
87893W        W51826  38.074  39.557   3.181
87894W        W51827  33.942  28.993  10.930
87895W        W51828  21.692  42.512   3.333
87896W        W51829  20.202   6.832  14.871
87897W        W51830   2.338   6.359  14.487
87898W        W51831  17.183  17.746   1.277
87899W        W51832  19.136  27.631   3.304
87900W        W51833   5.781  14.729   9.464
87901W        W51834  20.620  42.855  14.963
87902W        W51835   1.909  30.654  10.536
87903W        W51836  28.109   0.330   1.229
87904W        W51837  38.926   7.690   2.285
87905W        W51838  18.638  40.836  14.491
87906W        W51839  12.276  36.547   2.736
87907W        W51840  22.055  32.120   1.405
87908W        W51841  35.530  12.787   1.349
87909W        W51842  31.608  17.095   3.848
87910W        W51843  41.902  41.907  11.515
87911W        W51844  33.384  41.372  12.482
87912W        W51845  16.693  44.349  14.019
87913W        W51846  27.485  43.461  11.100
87914W        W51847   7.409  25.500   3.358
87915W        W51848  26.468  18.671  12.870
87916W        W51849  34.092  32.450   2.769
87917W        W51850  31.982  33.500  14.412
87918W        W51851  13.241  43.416   1.341
87919W        W51852  41.926  15.124  13.905
87920W        W51853  16.689  22.741  12.026
87921W        W51854  39.990   2.750  13.927
87922W        W51855  37.064  21.237  12.981
87923W        W51856  40.048   2.252   4.772
87924W        W51857  44.312  32.095  13.993
87925W        W51858   4.213  21.146  10.964
87926W        W51859   6.902   6.898   1.716
87927W        W51860  22.227  27.672   0.770
87928W        W51861  26.096  27.127  10.961
87929W        W51862  44.890  38.459  13.396
87930W        W51863  44.409  17.287   5.102
87931W        W51864   0.820  35.488   4.190
87932W        W51865  27.195  11.829  11.453
87933W        W51866  39.839  23.611  13.520
87934W        W51867   5.883  41.874  13.872
87935W        W51868   3.920  23.517   3.179
87936W        W51869  43.917  25.975  12.839
87937W        W51870   4.243  25.969  12.578
87938W        W51871  43.283   3.271  13.950
87939W        W51872  31.510   7.769   0.818
87940W        W51873   0.826  37.488  13.819
87941W        W51874  38.413  32.133  11.449
87942W        W51875  12.673  17.234  14.952
87943W        W51876  12.855   5.715  14.387
87944W        W51877  37.409  21.139   1.401
87945W        W51878  17.148  35.595  14.279
87946W        W51879  18.102  34.078   1.782
87947W        W51880  41.809   0.787   2.881
87948W        W51881   2.397  24.583  11.583
87949W        W51882  32.936  27.050   3.737
87950W        W51883  35.105  17.102   1.796
87951W        W51884  29.065  19.633  11.066
87952W        W51885  11.318   3.748   3.288
87953W        W51886   8.885   8.233   4.789
87954W        W51887  26.666  42.022   3.357
87955W        W51888  43.377   9.300   2.328
87956W        W51889   2.832   7.874  14.395
87957W        W51890  20.170  22.595   0.408
87958W        W51891  14.225  29.081  11.446
87959W        W51892  37.066   6.761  10.531
87960W        W51893  12.839  17.261  13.393
87961W        W51894  16.119  31.074  14.357
87962W        W51895  37.061  36.980  10.959
87963W        W51896  18.164  42.841   2.797
87964W        W51897  44.301  22.701  13.058
87965W        W51898   8.322  23.991  13.869
87966W        W51899  33.526  36.477   0.731
87967W        W51900  43.496  34.582   0.808
87968W        W51901  19.576   5.737   2.665
87969W        W51902  38.415  37.456  14.763
87970W        W51903  44.778  36.485   2.336
87971W        W51904  22.137  44.870   3.698
87972W        W51905  39.901  25.163  11.072
87973W        W51906  26.133  38.973   1.878
87974W        W51907   5.430  23.673   5.303
87975W        W51908  13.261  25.009  12.963
87976W        W51909  20.574  29.607  11.108
87977W        W51910  40.917  25.115  13.797
87978W        W51911   6.425   0.968  13.020
87979W        W51912  26.690  35.980   0.311
87980W        W51913  42.032  29.167   2.234
87981W        W51914  23.987  36.398   0.423
87982W        W51915  25.164   5.309  13.056
87983W        W51916  42.019  37.989   3.191
87984W        W51917  10.711  12.738   0.421
87985W        W51918  36.995  36.005   2.386
87986W        W51919   0.891   2.454   1.325
87987W        W51920  41.912  38.506  13.333
87988W        W51921   6.878  31.534   0.872
87989W        W51922  15.682  13.125  13.873
87990W        W51923  19.621  30.534  10.500
87991W        W51924   3.787  31.939   4.605
87992W        W51925  12.841   4.901   2.883
87993W        W51926  12.723  14.819   1.404
87994W        W51927  11.760  14.670  14.485
87995W        W51928  13.692  38.933   3.242
87996W        W51929  23.222  16.779   1.253
87997W        W51930  42.495   6.309   3.241
87998W        W51931   8.352  38.398   3.707
87999W        W51932   3.234   7.811  11.080
88000W        W51933  32.397  33.928  12.461
88001W        W51934  29.559  44.282   9.923
88002W        W51935  26.611  30.013   2.664
88003W        W51936   9.372   9.696  11.928
88004W        W51937  38.521  12.223  12.441
88005W        W51938  11.354  25.102  11.592
88006W        W51939  27.052   6.326  14.976
88007W        W51940  41.317  34.443   1.259
88008W        W51941   3.312  25.577  12.894
88009W        W51942  21.604  20.092  10.465
88010W        W51943  27.526   0.429  12.479
88011W        W51944   7.814  26.650   0.775
88012W        W51945   3.783  26.593   0.844
88013W        W51946  11.168   2.783   2.721
88014W        W51947  26.986  28.598   4.177
88015W        W51948  32.541  13.776  11.389
88016W        W51949  38.501  13.130  13.826
88017W        W51950  41.314  14.790   5.164
88018W        W51951   4.350   0.443   2.772
88019W        W51952   8.701   4.934  14.312
88020W        W51953  16.150  17.756  14.313
88021W        W51954  31.007  13.743  11.497
88022W        W51955  36.501  39.538   4.743
88023W        W51956  19.171  24.642   0.315
88024W        W51957  31.899  14.605   2.407
88025W        W51958  14.759   8.238  12.867
88026W        W51959  42.879  39.978  11.490
88027W        W51960  28.469  10.845   3.232
88028W        W51961  13.694   4.909   3.319
88029W        W51962  25.611  37.341  10.580
88030W        W51963  19.601  30.652   4.686
88031W        W51964  26.113  39.365   2.837
88032W        W51965  36.850   8.192  10.404
88033W        W51966  19.168  14.279  13.501
88034W        W51967  15.597  20.126   0.733
88035W        W51968  36.453  24.140   1.914
88036W        W51969  21.113  29.167  13.064
88037W        W51970  17.107  16.124   4.760
88038W        W51971  18.776  21.192  11.406
88039W        W51972  35.905  18.196  12.016
88040W        W51973  39.315  44.892  13.838
88041W        W51974  39.848  25.516  14.943
88042W        W51975   1.452  41.521  13.838
88043W        W51976  22.205  35.924   0.483
88044W        W51977   6.905  15.285  12.934
88045W        W51978  26.055  41.449  14.017
88046W        W51979  14.293  14.779   3.639
88047W        W51980   0.871  29.532   2.220
88048W        W51981   3.297  43.893  10.521
88049W        W51982  15.647  13.250  13.308
88050W        W51983   1.817  35.879  11.062
88051W        W51984   2.435  41.009   2.733
88052W        W51985  10.758  28.969   1.849
88053W        W51986  44.268  41.461   0.459
88054W        W51987  37.351  27.134   2.717
88055W        W51988  16.704  37.041  12.035
88056W        W51989  12.296  27.517   2.691
88057W        W51990  26.579  40.442   0.483
88058W        W51991  39.827  35.548  11.082
88059W        W51992  42.426  20.756  12.880
88060W        W51993  36.062  41.443   0.906
88061W        W51994   6.863   9.177   0.322
88062W        W51995  33.986  10.670  14.379
88063W        W51996  12.626   2.865  14.513
88064W        W51997  25.155  29.626  12.521
88065W        W51998  23.696   2.914   4.237
88066W        W51999  33.129  15.224   1.762
88067W        W52000  27.066   8.223   0.300
88068W        W52001  37.963   8.896  10.078
88069W        W52002  10.163  20.536   0.935
88070W        W52003  29.448  19.173  10.455
88071W        W52004  13.304  24.519   1.825
88072W        W52005  31.120  14.232   0.963
88073W        W52006   2.911  20.228  14.875
88074W        W52007  27.572  34.505  11.938
88075W        W52008  32.623  27.974   0.431
88076W        W52009  44.312  13.603   1.907
88077W        W52010  17.587  34.401   2.393
88078W        W52011   8.773  16.715   0.805
88079W        W52012  26.106  40.031  14.306
88080W        W52013  26.590  39.513  11.469
88081W        W52014  27.062  40.994   4.741
88082W        W52015  32.604  28.575   2.842
88083W        W52016  36.945   1.890  10.525
88084W        W52017  36.938  29.522   2.343
88085W        W52018   6.786   8.756   0.315
88086W        W52019  18.089  19.263   3.822
88087W        W52020  32.596  34.483  11.881
88088W        W52021  20.203  18.779  12.070
88089W        W52022  35.907  43.438  12.475
88090W        W52023  24.663  12.145   2.802
88091W        W52024   1.946   1.405  12.078
88092W        W52025  28.069  24.125  13.882
88093W        W52026  12.807   4.900   3.644
88094W        W52027  19.712  26.043   0.322
88095W        W52028  24.108   8.768  13.055
88096W        W52029   9.763  12.274   0.316
88097W        W52030  15.762   7.257  11.439
88098W        W52031  41.930  43.878   4.698
88099W        W52032  43.508  17.563   4.729
88100W        W52033  28.017  14.306   1.757
88101W        W52034  17.275  15.751  13.845
88102W        W52035   6.243  29.607   0.314
88103W        W52036  20.718  18.757   1.759
88104W        W52037  18.083  43.012  10.911
88105W        W52038  20.230  19.578   9.543
88106W        W52039   0.454  25.043  14.762
88107W        W52040  44.800  27.650   1.715
88108W        W52041  38.483  36.873   2.268
88109W        W52042  17.246   5.812   0.347
88110W        W52043  36.860  30.114   1.451
88111W        W52044  20.531   4.741  10.553
88112W        W52045   4.354  20.706  10.976
88113W        W52046  37.978  28.054   4.774
88114W        W52047  37.407  34.573   3.172
88115W        W52048  43.919  15.629  14.920
88116W        W52049   6.348  29.629   5.150
88117W        W52050  16.277   9.179  10.919
88118W        W52051  31.095  26.520  11.938
88119W        W52052  44.761  27.611  11.489
88120W        W52053  17.632   0.276  11.489
88121W        W52054  43.463  43.862   3.187
88122W        W52055  11.747  41.789  10.978
88123W        W52056   6.231  21.126  10.463
88124W        W52057  37.902  15.774  13.463
88125W        W52058   1.383   3.748   2.871
88126W        W52059  32.549  28.001   1.707
88127W        W52060   3.277  41.874  12.904
88128W        W52061  20.233  29.562   4.715
88129W        W52062   2.769   6.380   3.223
88130W        W52063  40.492  30.124  13.969
88131W        W52064  18.777   8.775  11.999
88132W        W52065  13.128   2.850  14.999
88133W        W52066  24.626  24.585   4.683
88134W        W52067  39.447   4.255   3.373
88135W        W52068  10.803   0.835   2.326
88136W        W52069  15.283  35.407   2.384
88137W        W52070   9.334  32.429  12.497
88138W        W52071  35.913  32.107   1.847
88139W        W52072   8.668  27.109   5.643
88140W        W52073   9.813  15.126  12.513
88141W        W52074  26.106  30.078   4.710
88142W        W52075  24.034  24.723   4.225
88143W        W52076   3.764  36.908  13.872
88144W        W52077  41.341   1.960  13.383
88145W        W52078  12.336  27.474   0.940
88146W        W52079  24.978   6.276  14.274
88147W        W52080   3.414  12.740   4.148
88148W        W52081   9.691  42.345   1.795
88149W        W52082  32.986  42.338   1.738
88150W        W52083   0.986  19.175   0.253
88151W        W52084   9.834   0.367  10.603
88152W        W52085  10.321  16.685  10.016
88153W        W52086  10.303  13.735   0.347
88154W        W52087  11.837   2.866  14.423
88155W        W52088  41.506  18.566  14.812
88156W        W52089   3.903  36.577  11.025
88157W        W52090  15.318  41.963   1.935
88158W        W52091  22.206  39.901   3.733
88159W        W52092  18.195   2.425   3.789
88160W        W52093  15.677  34.523  12.577
88161W        W52094  19.117  33.112  12.069
88162W        W52095  29.445   3.401   9.946
88163W        W52096  10.351  39.506  14.823
88164W        W52097  18.293  11.815   0.729
88165W        W52098   5.739  32.076   2.675
88166W        W52099  16.119  22.580   3.747
88167W        W52100  39.982  21.608  10.576
88168W        W52101  23.239  36.933   4.157
88169W        W52102  39.361  29.050  13.862
88170W        W52103  29.036  39.946  13.525
88171W        W52104  41.827  26.091  11.995
88172W        W52105  31.075  31.511   1.359
88173W        W52106  37.944  22.564  11.496
88174W        W52107  32.067   9.193   1.793
88175W        W52108   7.317  31.636   1.225
88176W        W52109  17.733  39.913  10.898
88177W        W52110  10.318  34.948  13.022
88178W        W52111   9.272  24.560   0.756
88179W        W52112   9.236  32.428   4.166
88180W        W52113  21.571   2.829   3.674
88181W        W52114  44.811  41.528   1.307
88182W        W52115  12.637  22.678   3.214
88183W        W52116  20.239  32.008   4.161
88184W        W52117  14.825  29.109   3.365
88185W        W52118  13.246  23.589  14.777
88186W        W52119   6.402  12.237   3.322
88187W        W52120  43.416  21.662  13.363
88188W        W52121   8.706  30.594  13.373
88189W        W52122  10.820   3.238   0.789
88190W        W52123  31.019   4.396  12.571
88191W        W52124   4.294  14.301  13.817
88192W        W52125   4.873  16.200   1.217
88193W        W52126  36.886  13.634   4.252
88194W        W52127  32.892  25.604   4.789
88195W        W52128  28.929  37.504  11.396
88196W        W52129  10.764  28.123   0.868
88197W        W52130   2.866  10.300  13.381
88198W        W52131  17.096  21.052  11.914
88199W        W52132  41.898  22.124  11.069
88200W        W52133  23.642   7.400   1.306
88201W        W52134  15.762  40.968  12.093
88202W        W52135  20.257  26.196   2.723
88203W        W52136  32.134  26.037   2.903
88204W        W52137  44.335   1.917  10.614
88205W        W52138  30.547  16.602  12.374
88206W        W52139  16.603  35.516  11.111
88207W        W52140  25.472  12.230  12.464
88208W        W52141  12.630  19.652  11.478
88209W        W52142  11.361  39.840   2.227
88210W        W52143   5.326  38.553   3.269
88211W        W52144  23.149   5.240  13.332
88212W        W52145   6.363  13.159  13.418
88213W        W52146   2.732   2.419  11.098
88214W        W52147   6.905  27.608  14.958
88215W        W52148  31.435  23.660   1.335
88216W        W52149  43.456   0.886  11.109
88217W        W52150  39.434  20.686   3.669
88218W        W52151   3.857  36.880   0.863
88219W        W52152   2.373  11.253  14.896
88220W        W52153  11.151   2.355  14.973
88221W        W52154  26.680  13.130  13.321
88222W        W52155  20.690  23.176   2.846
88223W        W52156  37.832  38.555   4.791
88224W        W52157   8.194  36.859   0.968
88225W        W52158   0.419  29.480   2.292
88226W        W52159  42.860  44.451  11.544
88227W        W52160  28.064  14.318  11.064
88228W        W52161  32.102  16.094   0.355
88229W        W52162  32.461  12.325  13.365
88230W        W52163   9.790  37.900   2.266
88231W        W52164  37.033  25.623   0.363
88232W        W52165  12.786   3.242  10.502
88233W        W52166  26.575   1.831  10.596
88234W        W52167  31.458   5.421   4.750
88235W        W52168   0.793   6.778   4.698
88236W        W52169  15.743  40.855   2.231
88237W        W52170  17.178  28.168  13.477
88238W        W52171  18.098   0.265  11.394
88239W        W52172  42.018  34.412   4.742
88240W        W52173  41.470  11.845  12.094
88241W        W52174  16.198  39.504  13.837
88242W        W52175  30.060   0.365   4.659
88243W        W52176  42.030  39.398  14.933
88244W        W52177  36.852  14.673   0.931
88245W        W52178   2.226  24.486   3.682
88246W        W52179  41.477  21.708   0.393
88247W        W52180  44.903  40.961  12.839
88248W        W52181  38.875  40.844   4.653
88249W        W52182  31.451  40.035  10.933
88250W        W52183  38.067  11.817  10.080
88251W        W52184  38.850  34.009   0.963
88252W        W52185   7.889  25.474   3.245
88253W        W52186  10.673  43.830   2.381
88254W        W52187   7.203  17.662  14.012
88255W        W52188  22.072  27.953  12.096
88256W        W52189  10.138  13.172  14.846
88257W        W52190  23.515  11.312   3.248
88258W        W52191  22.639  17.299  12.011
88259W        W52192  24.222  42.885   4.221
88260W        W52193  31.956  30.572   1.397
88261W        W52194  23.687  44.500  14.339
88262W        W52195  13.634  18.655   1.418
88263W        W52196  11.627  26.592  13.420
88264W        W52197  42.496  30.146   2.729
88265W        W52198   7.206  27.955  10.592
88266W        W52199  11.218  35.947  10.973
88267W        W52200   4.725  33.501  11.102
88268W        W52201  16.805  28.606   9.995
88269W        W52202  12.291  18.709  10.437
88270W        W52203  43.277   6.808  11.113
88271W        W52204  37.045  34.409  11.930
88272W        W52205  32.431  41.875   4.759
88273W        W52206  24.585   5.892  14.499
88274W        W52207  13.723  39.940   4.712
88275W        W52208  32.512  22.011  13.339
88276W        W52209  10.797  22.077  14.788
88277W        W52210  25.493  16.695   2.193
88278W        W52211  20.679  23.594  12.538
88279W        W52212  27.528   6.232  10.984
88280W        W52213  39.936  13.323  11.525
88281W        W52214  30.429  25.471   2.872
88282W        W52215  17.220  22.747   3.797
88283W        W52216   2.387   9.155   2.736
88284W        W52217   2.450  32.028  12.411
88285W        W52218  21.229  15.126   1.399
88286W        W52219  27.986  40.865   3.853
88287W        W52220  29.926  24.100   1.237
88288W        W52221  41.431   4.745   0.252
88289W        W52222  27.035   6.347   3.643
88290W        W52223  40.450  22.703   4.730
88291W        W52224  14.718   3.305  10.045
88292W        W52225  15.293  33.924  10.599
88293W        W52226   0.822  31.597   0.442
88294W        W52227  16.120  14.145   2.690
88295W        W52228  21.019  20.753   4.746
88296W        W52229  17.140  32.459  12.469
88297W        W52230  40.982  38.435   3.191
88298W        W52231  24.192  26.460   1.709
88299W        W52232  42.291  35.921   1.862
88300W        W52233   4.848  28.102  11.088
88301W        W52234  33.543  21.656  10.949
88302W        W52235   6.843  13.791   5.758
88303W        W52236   9.761  19.252  11.917
88304W        W52237  22.703  24.488   2.688
88305W        W52238  33.554  42.962   3.345
88306W        W52239  25.711   1.465   1.228
88307W        W52240  17.091  37.928  11.028
88308W        W52241  28.932  34.453   3.170
88309W        W52242   7.266   5.277   0.849
88310W        W52243  27.062  35.582  14.343
88311W        W52244  34.441  26.530   0.322
88312W        W52245   2.426   0.809  13.419
88313W        W52246  16.675  35.878  11.391
88314W        W52247  14.598  21.555   4.310
88315W        W52248  36.944  12.311   3.708
88316W        W52249  12.255  19.169  12.017
88317W        W52250  42.993  14.288   4.166
88318W        W52251  31.609  27.125   0.472
88319W        W52252  23.171  21.072   2.886
88320W        W52253  21.059  35.074  13.989
88321W        W52254  43.509  33.441  13.820
88322W        W52255  11.862   1.774  11.999
88323W        W52256  23.178  41.035  12.524
88324W        W52257  18.193  30.534   3.368
88325W        W52258  24.041  26.969   4.162
88326W        W52259  12.743   7.198  10.602
88327W        W52260  27.146  23.490  12.959
88328W        W52261  18.091  21.079   0.325
88329W        W52262   9.734   9.354  13.463
88330W        W52263  43.839  18.787   0.763
88331W        W52264  12.354  31.466  14.291
88332W        W52265  18.296  23.071  10.446
88333W        W52266   4.725   4.356  13.986
88334W        W52267   2.760   5.784   3.146
88335W        W52268  38.488  17.205  11.598
88336W        W52269  30.642   2.803  14.283
88337W        W52270  20.195  37.991  11.900
88338W        W52271  11.724  20.134  14.434
88339W        W52272  18.705   6.825   3.740
88340W        W52273  24.070   9.658   4.191
88341W        W52274  27.659  43.308   1.262
88342W        W52275   6.841  20.703  10.942
88343W        W52276  23.711  33.521   3.294
88344W        W52277  11.226  28.121  13.428
88345W        W52278  12.793  16.596  14.862
88346W        W52279  26.690  26.955  11.937
88347W        W52280  12.176  26.089  12.060
88348W        W52281   8.716  41.298  10.936
88349W        W52282  24.671  40.384   4.628
88350W        W52283  41.909   5.848  12.515
88351W        W52284  19.120  39.540  10.985
88352W        W52285  32.607   4.407   4.167
88353W        W52286   0.920  29.589   1.384
88354W        W52287  10.871   9.868  13.050
88355W        W52288  35.994   5.242   1.755
88356W        W52289  30.999  44.977  13.423
88357W        W52290  12.716  44.825   1.256
88358W        W52291  10.175  30.614   1.430
88359W        W52292  44.414  15.731  11.890
88360W        W52293   8.365  40.953  10.903
88361W        W52294  15.128  37.892   5.715
88362W        W52295  23.656   3.875  12.092
88363W        W52296   6.408  26.153  12.537
88364W        W52297  25.157  16.609  13.445
88365W        W52298  27.609   4.797   0.439
88366W        W52299  25.066  23.161  14.305
88367W        W52300   0.286  11.697   4.734
88368W        W52301  22.518   6.865  11.895
88369W        W52302  36.960   9.292   3.304
88370W        W52303   2.749  11.146  12.406
88371W        W52304  24.559  41.928  12.454
88372W        W52305  37.037  27.052  14.376
88373W        W52306   1.242  30.990   3.676
88374W        W52307  36.988  24.691  12.022
88375W        W52308  10.721  15.609   0.311
88376W        W52309  33.592  28.117   5.267
88377W        W52310  20.624  14.727  12.838
88378W        W52311   9.383   2.325  10.902
88379W        W52312  15.253  30.458   1.880
88380W        W52313  11.775  34.405  11.392
88381W        W52314  11.643  41.531  12.080
88382W        W52315  18.064  23.501   0.907
88383W        W52316  16.630  43.940  10.452
88384W        W52317  23.230  31.497  14.407
88385W        W52318  35.966  10.299   5.273
88386W        W52319  25.013   8.323   4.691
88387W        W52320  25.149  25.563   0.272
88388W        W52321  16.730  34.463   4.723
88389W        W52322  29.426  32.101   4.343
88390W        W52323  32.556  42.304  13.971
88391W        W52324  13.135  36.364   1.416
88392W        W52325  38.045  16.803   2.338
88393W        W52326  32.485   9.756   4.689
88394W        W52327  35.393  12.286  10.598
88395W        W52328  35.420  14.637  12.040
88396W        W52329  33.439  37.010  11.403
88397W        W52330  22.107  19.044   1.794
88398W        W52331  41.895  11.230   2.679
88399W        W52332  29.457  18.580   1.766
88400W        W52333  14.807   2.725   0.959
88401W        W52334  15.727  37.462   3.784
88402W        W52335   0.831  41.956  14.761
88403W        W52336  41.966  21.066   4.600
88404W        W52337  19.636  10.211  14.761
88405W        W52338  43.807  36.508  11.528
88406W        W52339  29.471  12.361   1.832
88407W        W52340  33.891  39.042   3.355
88408W        W52341  27.075  10.375   1.305
88409W        W52342  30.499  31.470   1.250
88410W        W52343   0.912  36.092   1.350
88411W        W52344  34.416  30.582  10.888
88412W        W52345  27.520  18.096  13.883
88413W        W52346  38.432  44.289  12.405
88414W        W52347  14.255  33.386  10.439
88415W        W52348  36.862  38.336   1.246
88416W        W52349  11.817  42.931   0.829
88417W        W52350  34.034  31.056  11.987
88418W        W52351  10.769  21.161   4.643
88419W        W52352  33.121  28.091   0.354
88420W        W52353   1.373  11.689  14.307
88421W        W52354  36.920   0.806   2.302
88422W        W52355  18.091   7.293   2.744
88423W        W52356   9.661  42.342  11.123
88424W        W52357  14.136  24.054   4.763
88425W        W52358  16.773  12.775   0.346
88426W        W52359  12.640  40.930   0.282
88427W        W52360   2.429  19.700  13.329
88428W        W52361  29.142   9.843   0.907
88429W        W52362  17.569  12.692  13.451
88430W        W52363  15.111  38.525   1.414
88431W        W52364  35.403  33.484   1.699
88432W        W52365  30.547  15.696  11.590
88433W        W52366   0.907  29.607   0.729
88434W        W52367   7.763  10.707   3.184
88435W        W52368  31.119   8.277  11.122
88436W        W52369  22.235  11.798  13.386
88437W        W52370  15.607  31.088   0.454
88438W        W52371  31.026  26.522  12.415
88439W        W52372  17.638  30.582  11.451
88440W        W52373   5.360  19.767   3.375
88441W        W52374  17.759  22.729   0.479
88442W        W52375  41.356  21.049   4.239
88443W        W52376  31.536  36.896  12.831
88444W        W52377  24.090  40.853  13.307
88445W        W52378  25.118   1.344  12.943
88446W        W52379  39.037   3.357   0.914
88447W        W52380   8.244   6.816   3.321
88448W        W52381  28.106  35.866  10.129
88449W        W52382  35.966  41.018   4.808
88450W        W52383  26.603  35.071   3.309
88451W        W52384  27.075  38.981  13.854
88452W        W52385  34.063   9.258  11.520
88453W        W52386  13.120  37.389  10.510
88454W        W52387  31.096  32.610  10.599
88455W        W52388   4.333  11.714  12.053
88456W        W52389  11.219  18.255  13.045
88457W        W52390  18.275   0.816   2.788
88458W        W52391  39.510  29.537   0.788
88459W        W52392  23.512  32.627   1.421
88460W        W52393  28.481  13.723   1.355
88461W        W52394  14.612  17.657   0.800
88462W        W52395  24.153  22.553  12.084
88463W        W52396   5.688  27.469   3.380
88464W        W52397  29.576   2.442   1.899
88465W        W52398  28.520  22.715   1.372
88466W        W52399  41.967  18.637   4.627
88467W        W52400  36.537  25.173  11.535
88468W        W52401  43.418  26.176   0.403
88469W        W52402  43.422  38.065   0.369
88470W        W52403   5.309  10.764  11.968
88471W        W52404  32.631  42.890  10.011
88472W        W52405  13.762  22.191   3.352
88473W        W52406   6.710  23.677   1.352
88474W        W52407  21.563  31.590  13.384
88475W        W52408  35.455   7.340  13.805
88476W        W52409  31.981   9.858   3.752
88477W        W52410   1.368  37.061   0.358
88478W        W52411  32.399  22.072  14.805
88479W        W52412  35.572  23.066  12.421
88480W        W52413  24.022   1.899  11.058
88481W        W52414  21.040  18.227  12.077
88482W        W52415  30.143  36.075   2.837
88483W        W52416   0.286   4.733  13.456
88484W        W52417  31.469   2.776  12.478
88485W        W52418  40.039  11.795  10.477
88486W        W52419  33.409  13.825   0.775
88487W        W52420  18.706   4.828  12.344
88488W        W52421   2.395  21.249   1.263
88489W        W52422  21.045  26.156  12.485
88490W        W52423   4.408   8.222  11.939
88491W        W52424   3.833  12.683   0.312
88492W        W52425  44.787  28.185  12.513
88493W        W52426  37.500  19.580   1.418
88494W        W52427  24.698  28.007   3.277
88495W        W52428  39.884  23.050  14.407
88496W        W52429  30.956  34.537  11.417
88497W        W52430   2.858  30.507   1.811
88498W        W52431  20.032  30.070   5.584
88499W        W52432  25.505  15.727  14.030
88500W        W52433  38.889  29.516   4.277
88501W        W52434  33.080  37.873   4.734
88502W        W52435  19.049   8.241  11.547
88503W        W52436  33.598  29.976   4.694
88504W        W52437   3.369  21.519  11.424
88505W        W52438  30.159   1.832   0.867
88506W        W52439  34.437  31.945  14.024
88507W        W52440  37.010  25.534  13.970
88508W        W52441   9.180  25.539  11.996
88509W        W52442   4.205  40.438  12.982
88510W        W52443  18.755  26.506   2.317
88511W        W52444  26.062  27.164  10.536
88512W        W52445   1.341  32.403   3.353
88513W        W52446  20.118  11.835   4.730
88514W        W52447  37.545  10.689   3.706
88515W        W52448   9.188   0.317   2.358
88516W        W52449  29.929  43.289  14.478
88517W        W52450  27.532  11.137   3.775
88518W        W52451  40.358  17.573  14.837
88519W        W52452  36.961  21.207  12.037
88520W        W52453  29.101   2.736   4.151
88521W        W52454   1.921   8.773   0.963
88522W        W52455  15.811   2.341  12.896
88523W        W52456  43.917  14.634  14.828
88524W        W52457  10.289  15.270   4.775
88525W        W52458  26.180  21.645   4.209
88526W        W52459   2.798  14.298  13.454
88527W        W52460  25.498  36.533   4.641
88528W        W52461   6.687   0.888   0.918
88529W        W52462  10.330  44.840   2.731
88530W        W52463  17.647   0.447   2.839
88531W        W52464   7.359  24.488  13.502
88532W        W52465   6.803  13.760   1.728
88533W        W52466  15.282  25.565   3.815
88534W        W52467  18.735   4.248   2.411
88535W        W52468  24.659  29.652   1.266
88536W        W52469  42.427   2.472  11.040
88537W        W52470  23.176  35.109  11.496
88538W        W52471  18.608   0.330   4.121
88539W        W52472  34.466  33.599   0.952
88540W        W52473  41.383  18.190   0.893
88541W        W52474  25.130   6.230  13.878
88542W        W52475  22.230   9.376   0.887
88543W        W52476  35.979  44.951   0.917
88544W        W52477   8.391  19.698  10.412
88545W        W52478  20.058  27.586   2.864
88546W        W52479  39.333  13.724   1.239
88547W        W52480   1.877  26.164  14.981
88548W        W52481  32.889  35.977   2.692
88549W        W52482  38.473  32.075   1.822
88550W        W52483  38.898  13.600  11.888
88551W        W52484  21.709  40.815  14.951
88552W        W52485  37.471  10.361  14.956
88553W        W52486   0.979   1.294   3.630
88554W        W52487  28.445  32.391  13.468
88555W        W52488   3.236  31.954   0.433
88556W        W52489   0.808  36.093   2.329
88557W        W52490   4.904  26.046  11.512
88558W        W52491  31.478  33.493   3.163
88559W        W52492  36.954  43.881  12.471
88560W        W52493  16.651  24.022  11.469
88561W        W52494  19.574  26.616  14.424
88562W        W52495  34.570  25.193   3.373
88563W        W52496  17.777   2.940  11.088
88564W        W52497   8.244   4.413  12.824
88565W        W52498  19.151  14.679   0.789
88566W        W52499  39.421   2.356   1.793
88567W        W52500  33.442  42.508  10.935
88568W        W52501  14.670  23.224   1.787
88569W        W52502  40.527   3.391  11.435
88570W        W52503  28.500  22.718  13.003
88571W        W52504  39.896   6.677  11.894
88572W        W52505  37.975  14.283   9.948
88573W        W52506  10.794  21.588   4.350
88574W        W52507   4.747  30.627  13.886
88575W        W52508  28.070  35.587  10.923
88576W        W52509   9.314   8.310   4.212
88577W        W52510  32.424  27.564   0.759
88578W        W52511  35.090  12.770   4.806
88579W        W52512  24.592  33.541  14.822
88580W        W52513  13.599  31.644  11.926
88581W        W52514   0.263  17.690   4.143
88582W        W52515  44.877  25.964  10.619
88583W        W52516  14.292  25.198  14.320
88584W        W52517  25.170   5.800   2.687
88585W        W52518  40.940  43.337  13.865
88586W        W52519  42.377  16.604  13.534
88587W        W52520   1.874  30.129  11.412
88588W        W52521  18.155  38.029   0.446
88589W        W52522   3.804   2.446  12.862
88590W        W52523  21.162  27.978   1.424
88591W        W52524  39.548  35.521   3.305
88592W        W52525  26.672  39.901   1.235
88593W        W52526  24.078  33.553  14.957
88594W        W52527  39.875  40.921  11.408
88595W        W52528  21.123  24.721   2.673
88596W        W52529   4.437  40.358  12.075
88597W        W52530  18.758  30.037   1.898
88598W        W52531  43.407  26.526   0.294
88599W        W52532   4.410  17.558  12.925
88600W        W52533  34.415  21.263  14.815
88601W        W52534  44.760  39.407   3.215
88602W        W52535  31.446  37.520  13.326
88603W        W52536  19.219  12.662   4.164
88604W        W52537  11.200  19.083  12.869
88605W        W52538  21.197   0.861  13.307
88606W        W52539   1.402  14.280  12.466
88607W        W52540  16.269   3.719   3.189
88608W        W52541   4.867  27.025   9.580
88609W        W52542   2.815  43.014   1.351
88610W        W52543  25.099  21.170   4.697
88611W        W52544  11.738  28.634   2.745
88612W        W52545  21.229  27.195  13.024
88613W        W52546  25.979   2.301   1.913
88614W        W52547  13.779   7.369  11.394
88615W        W52548  33.445  31.094  10.585
88616W        W52549  28.056  38.342   3.855
88617W        W52550  14.332  35.520   4.732
88618W        W52551  11.373  11.284  14.853
88619W        W52552  11.365  37.399   2.397
88620W        W52553   5.850  34.091  13.967
88621W        W52554  37.467  17.638  12.010
88622W        W52555  25.967  14.102   4.292
88623W        W52556  25.638  24.488  11.519
88624W        W52557  23.583  32.099  12.903
88625W        W52558  27.636   7.398   3.674
88626W        W52559  42.791  24.053   4.775
88627W        W52560  19.111   7.377   3.675
88628W        W52561  25.962  31.461   0.449
88629W        W52562  36.585   2.733  10.618
88630W        W52563  36.061   6.679  14.803
88631W        W52564   8.779   5.799   1.260
88632W        W52565   3.344  12.337  12.475
88633W        W52566   1.878  34.441   2.191
88634W        W52567  37.391  22.177   2.730
88635W        W52568  17.166  19.609   0.284
88636W        W52569  18.740  35.984  10.508
88637W        W52570  36.391   5.404  10.517
88638W        W52571  20.183  10.224   3.348
88639W        W52572  13.213   4.424  13.512
88640W        W52573  31.455   3.437  13.324
88641W        W52574  41.889   4.346  13.922
88642W        W52575  27.532  43.984   1.210
88643W        W52576  42.979   1.970   3.688
88644W        W52577  32.934  43.501  13.050
88645W        W52578  33.104  12.355   3.323
88646W        W52579  37.902  24.577  13.882
88647W        W52580  25.602  41.808   3.294
88648W        W52581  13.632  27.171   0.365
88649W        W52582  27.625  21.112  12.076
88650W        W52583  36.970   1.381   3.807
88651W        W52584  31.005   4.804  11.590
88652W        W52585  32.480   2.942   4.776
88653W        W52586  42.925  43.912   0.916
88654W        W52587   3.785   3.245   1.881
88655W        W52588  28.541  17.293  12.501
88656W        W52589   3.226  36.413   0.308
88657W        W52590  29.561  36.054  11.924
88658W        W52591  28.500  19.095  11.438
88659W        W52592   8.405  23.163  14.319
88660W        W52593  26.113  31.933   0.307
88661W        W52594  18.564  28.492  10.948
88662W        W52595   2.735  27.652  12.877
88663W        W52596  16.140  16.770   9.994
88664W        W52597  44.769  34.918   1.295
88665W        W52598   5.354  25.625   0.320
88666W        W52599  27.473  13.754  13.350
88667W        W52600  37.871  39.990  14.799
88668W        W52601  11.318  14.808  12.378
88669W        W52602  10.800  26.131  13.046
88670W        W52603  24.175  11.658   4.817
88671W        W52604   5.824  21.656  13.042
88672W        W52605  13.197  21.218  11.417
88673W        W52606  39.363  16.195  14.940
88674W        W52607  22.623  13.244  14.842
88675W        W52608  42.312  32.530  10.997
88676W        W52609  25.624  24.565   4.177
88677W        W52610  28.439  29.512   3.759
88678W        W52611  35.087   9.349   3.858
88679W        W52612  36.985  34.093  14.457
88680W        W52613  12.196   7.383  10.902
88681W        W52614  28.548  14.665   1.274
88682W        W52615  44.385  34.976  12.570
88683W        W52616  22.251  34.438  14.459
88684W        W52617  23.634   3.313   4.632
88685W        W52618  28.555  19.731   0.880
88686W        W52619  35.539   0.906   0.477
88687W        W52620  39.811   7.670  12.479
88688W        W52621  22.249  11.189   5.614
88689W        W52622  30.971  40.498   3.221
88690W        W52623  22.708  24.051  14.390
88691W        W52624  22.038   8.671   3.721
88692W        W52625  24.562   2.406  13.384
88693W        W52626  37.546  12.321   3.250
88694W        W52627  20.523  12.765  13.054
88695W        W52628  12.804  22.717  10.540
88696W        W52629  33.388  28.098   1.395
88697W        W52630  29.114   1.244   0.929
88698W        W52631  19.108   0.912   0.812
88699W        W52632  39.352  30.148  13.888
88700W        W52633  15.189  17.219  11.548
88701W        W52634  17.563  35.965  14.431
88702W        W52635   6.856  29.644   0.384
88703W        W52636   7.808  44.393  14.947
88704W        W52637   3.758  40.547  13.330
88705W        W52638  27.140  43.358  13.986
88706W        W52639   7.365  42.498  10.602
88707W        W52640  33.030  34.110  14.760
88708W        W52641  34.445  35.589   1.341
88709W        W52642   1.764  13.741  14.330
88710W        W52643  39.887  18.204  12.900
88711W        W52644  21.253  16.285   4.237
88712W        W52645  29.439  37.424  12.875
88713W        W52646  14.325   0.865   4.684
88714W        W52647  33.525  31.542  12.908
88715W        W52648  25.520  43.914  11.118
88716W        W52649  27.987  41.442  11.012
88717W        W52650  37.931   7.259   0.417
88718W        W52651  15.127  15.592   4.118
88719W        W52652  35.452  24.989  14.890
88720W        W52653  16.211  32.427  11.974
88721W        W52654  22.234   6.771   1.759
88722W        W52655   9.709  10.725  11.066
88723W        W52656  40.434  12.304   1.898
88724W        W52657  33.435   7.756  12.887
88725W        W52658  44.495  27.594   3.638
88726W        W52659   1.289  17.772  10.561
88727W        W52660  25.614  43.274  14.006
88728W        W52661  38.462  31.920  14.885
88729W        W52662  19.108  25.984  13.456
88730W        W52663  39.929  28.443   2.316
88731W        W52664  44.010  23.195   2.345
88732W        W52665  21.567   7.868   4.636
88733W        W52666   1.753  30.650  14.881
88734W        W52667  25.605   5.262   3.226
88735W        W52668  14.155  18.750   1.890
88736W        W52669   1.901   0.338  10.496
88737W        W52670   3.779   8.359  13.920
88738W        W52671  33.037   3.380  12.973
88739W        W52672  19.637  29.001  14.939
88740W        W52673  11.760   2.799  12.531
88741W        W52674  31.539  23.057  10.572
88742W        W52675  30.650  32.572  10.476
88743W        W52676   1.930  39.823  12.578
88744W        W52677  23.019   5.796   2.378
88745W        W52678  32.447  29.044   3.319
88746W        W52679  43.874  29.572  10.919
88747W        W52680  18.741  13.842  13.988
88748W        W52681  23.157   7.910  12.029
88749W        W52682  32.073  21.081   1.920
88750W        W52683  15.782  32.886  11.488
88751W        W52684  42.019  44.899   1.817
88752W        W52685  35.942  43.020  12.978
88753W        W52686   3.734  38.838  11.564
88754W        W52687   0.834  31.117   2.218
88755W        W52688  16.081  36.590  14.967
88756W        W52689  20.112  17.306   0.768
88757W        W52690   6.353  23.690   0.389
88758W        W52691  40.324  20.144  10.993
88759W        W52692  27.116   3.885  11.588
88760W        W52693  10.358  28.036   5.105
88761W        W52694  35.604  43.946  10.455
88762W        W52695  33.958   3.387  12.404
88763W        W52696  23.554   9.686   3.818
88764W        W52697   0.453  38.517  10.582
88765W        W52698  31.456  28.459   2.692
88766W        W52699  42.488  39.003  12.073
88767W        W52700  34.095  23.620   2.411
88768W        W52701  28.452  40.457   9.964
88769W        W52702   7.851  43.499  12.541
88770W        W52703   6.336  11.747   1.219
88771W        W52704  17.555  25.988  10.629
88772W        W52705  26.699   1.866   3.786
88773W        W52706  13.706  32.396   1.241
88774W        W52707  13.225  11.755  12.028
88775W        W52708  29.450  16.806   3.276
88776W        W52709  12.851  26.155  13.844
88777W        W52710   6.361   2.840   0.753
88778W        W52711  27.048  21.107  14.816
88779W        W52712  26.058  35.421   0.963
88780W        W52713  38.063  38.953  12.456
88781W        W52714   9.259   0.792   3.319
88782W        W52715  43.831  43.891   2.735
88783W        W52716   4.267  37.581  11.949
88784W        W52717  24.978  29.562   1.827
88785W        W52718  17.130  29.107   0.937
88786W        W52719  17.694  20.250  12.942
88787W        W52720  40.511  22.067   3.345
88788W        W52721  41.857  22.062  10.484
88789W        W52722  21.026  21.127   2.317
88790W        W52723   8.877  31.402   2.243
88791W        W52724  38.358   3.813   1.917
88792W        W52725  12.656  15.691  11.570
88793W        W52726  21.597  16.668  11.929
88794W        W52727  22.023   7.171   0.866
88795W        W52728  33.891  15.110   1.404
88796W        W52729  17.580  36.884   3.805
88797W        W52730  35.875  22.542  12.370
88798W        W52731  18.189  30.565  14.440
88799W        W52732  40.307  39.016  12.426
88800W        W52733  21.058  44.487   1.872
88801W        W52734  28.620  42.317   1.319
88802W        W52735  16.804  36.991   1.826
88803W        W52736  31.630  39.422  10.965
88804W        W52737   2.462  18.086   2.845
88805W        W52738  11.664  36.882  12.345
88806W        W52739  44.465  40.413   3.701
88807W        W52740  12.326  36.410  13.877
88808W        W52741  10.823  12.336   3.749
88809W        W52742   2.313   8.401  14.407
88810W        W52743   4.280  16.284  14.917
88811W        W52744  29.080  35.966   2.711
88812W        W52745  11.355  15.671   3.267
88813W        W52746   3.789   0.358   1.728
88814W        W52747  42.469  25.596   2.813
88815W        W52748  28.100  42.328   3.767
88816W        W52749  13.228  13.622   2.785
88817W        W52750  13.722  34.530   1.730
88818W        W52751  29.503  43.942  10.995
88819W        W52752  30.573  22.584   5.255
88820W        W52753  12.778  29.553   3.661
88821W        W52754  20.028  10.639   1.316
88822W        W52755   3.845  16.673   0.774
88823W        W52756  17.598  18.282  13.341
88824W        W52757  33.033  41.931  12.970
88825W        W52758  18.095  20.055   2.723
88826W        W52759  26.005  36.491   4.697
88827W        W52760  20.062  35.499   3.185
88828W        W52761  20.036  13.754  11.990
88829W        W52762  12.230  10.354  12.062
88830W        W52763  23.157  32.528   0.384
88831W        W52764  24.149  14.786  13.408
88832W        W52765  10.141  17.306   4.133
88833W        W52766  30.147  19.742  13.417
88834W        W52767  20.124  43.444  13.433
88835W        W52768   1.914  37.904  13.494
88836W        W52769  39.922  14.316  12.912
88837W        W52770   7.292   7.881  10.565
88838W        W52771  38.002  19.122  11.890
88839W        W52772  23.002  41.477  11.971
88840W        W52773   3.319  36.503  14.985
88841W        W52774   0.770  36.907  12.943
88842W        W52775  34.901  22.744  11.533
88843W        W52776  13.316  27.526   4.176
88844W        W52777  39.825  33.119   4.829
88845W        W52778  18.138  13.187  10.519
88846W        W52779   7.679   1.440   2.219
88847W        W52780  43.973  25.197  12.349
88848W        W52781  38.333  36.498  14.032
88849W        W52782  28.469  25.537  14.839
88850W        W52783  11.841  40.812  13.413
88851W        W52784  36.507  29.090  14.275
88852W        W52785  25.982  20.040   1.919
88853W        W52786   2.926  16.715  11.997
88854W        W52787  34.469  22.505   4.135
88855W        W52788  32.967  43.941   3.796
88856W        W52789  43.869  22.686  13.462
88857W        W52790   9.701  40.321   0.757
88858W        W52791  31.968  17.184  14.901
88859W        W52792  36.015  21.206   4.621
88860W        W52793  35.377  25.004   4.301
88861W        W52794  38.367  22.617   1.842
88862W        W52795   4.836  27.494   4.674
88863W        W52796   8.805  30.555   2.727
88864W        W52797  33.511   7.776   3.283
88865W        W52798  35.562   7.898   1.399
88866W        W52799  42.018  15.578  13.471
88867W        W52800   8.241   0.918  10.469
88868W        W52801  36.925  36.857   1.356
88869W        W52802  13.348  27.145   0.347
88870W        W52803  11.341  22.598  13.491
88871W        W52804  12.172  40.535  10.412
88872W        W52805  44.370   9.712  12.521
88873W        W52806  27.593   4.807  11.490
88874W        W52807  28.655  13.707  10.502
88875W        W52808  26.133  36.040  10.517
88876W        W52809  37.374   9.348   0.796
88877W        W52810  16.612  26.687  12.052
88878W        W52811  28.162   9.744   4.677
88879W        W52812   1.899   6.182   4.325
88880W        W52813  44.868  42.869  14.887
88881W        W52814  20.640   8.838   3.734
88882W        W52815   3.886   2.467  13.858
88883W        W52816  26.477  22.179  14.356
88884W        W52817   3.319  22.659  13.357
88885W        W52818   7.314  18.079   1.748
88886W        W52819  41.844  39.363  11.118
88887W        W52820   0.961  42.862  12.457
88888W        W52821  35.597  29.573   1.281
88889W        W52822   6.785   6.832  10.066
88890W        W52823  12.817  10.333  12.085
88891W        W52824  19.138  24.030   1.432
88892W        W52825  24.511  43.358   3.860
88893W        W52826  41.937  37.885  13.504
88894W        W52827  25.119   5.381   4.657
88895W        W52828   4.268   1.838  10.920
88896W        W52829   1.765   6.823   4.177
88897W        W52830  42.481  37.867  13.307
88898W        W52831  33.050   2.785   2.863
88899W        W52832  19.186  10.660  14.467
88900W        W52833  44.426  11.839  10.617
88901W        W52834   0.357   0.970   4.206
88902W        W52835  11.781   7.808   4.291
88903W        W52836  34.407  25.545  11.463
88904W        W52837  14.653  35.910   0.728
88905W        W52838  22.084  35.569   3.839
88906W        W52839  18.257  20.197   5.295
88907W        W52840   6.281  25.599  13.927
88908W        W52841  11.301  23.991   0.363
88909W        W52842   5.719   7.711  10.449
88910W        W52843  37.052   0.478  13.405
88911W        W52844  43.401  11.296  13.543
88912W        W52845  33.388  17.774  14.311
88913W        W52846  23.527  33.460  14.872
88914W        W52847  10.761   3.900   3.305
88915W        W52848  19.635  37.564  13.916
88916W        W52849  40.366   0.274   3.778
88917W        W52850  43.974  44.768   1.830
88918W        W52851  22.180  16.143   3.806
88919W        W52852  38.423  42.027  11.897
88920W        W52853  29.666  40.412   1.358
88921W        W52854   0.340  29.069   2.808
88922W        W52855  31.981  35.018  13.408
88923W        W52856   9.239  33.601  10.473
88924W        W52857   1.266  44.493  13.342
88925W        W52858  14.188   4.333  11.005
88926W        W52859  42.954   9.801   1.709
88927W        W52860  30.968  39.853   3.789
88928W        W52861  39.999  19.687  14.363
88929W        W52862   7.820  27.503   3.324
88930W        W52863  38.541  27.025  14.337
88931W        W52864  15.658  44.927   3.361
88932W        W52865   1.426  31.060  10.916
88933W        W52866  24.163  38.488  13.548
88934W        W52867  25.063  34.118   0.250
88935W        W52868  37.015  31.153  11.437
88936W        W52869   8.305   8.658   1.271
88937W        W52870  29.536  30.658   0.855
88938W        W52871   8.341  22.505  12.350
88939W        W52872  39.522  35.437  10.620
88940W        W52873   9.746  20.237   2.236
88941W        W52874  35.039  38.466   1.784
88942W        W52875  14.099  42.800   3.788
88943W        W52876  20.644  31.967   0.303
88944W        W52877  10.677   2.934   3.630
88945W        W52878  40.996  14.205   1.832
88946W        W52879  34.094  44.478   1.842
88947W        W52880  15.736  42.912   1.228
88948W        W52881  23.047  18.788   0.399
88949W        W52882  28.581   5.918  10.950
88950W        W52883   1.834  44.897   3.684
88951W        W52884  38.418  27.944   0.366
88952W        W52885  12.796  25.696   2.809
88953W        W52886  21.722  29.650   1.855
88954W        W52887  41.039  32.041  12.442
88955W        W52888   6.202  19.130  11.998
88956W        W52889   8.241  24.192  10.975
88957W        W52890  33.081  35.542  10.924
88958W        W52891  22.180  35.436  13.375
88959W        W52892  43.396  16.309  14.858
88960W        W52893  15.257  14.800  13.905
88961W        W52894  16.631  35.382  14.997
88962W        W52895  36.509   6.236  11.005
88963W        W52896  37.912   1.313   2.247
88964W        W52897  29.090  28.517  13.826
88965W        W52898   9.665  28.556   1.224
88966W        W52899  19.656  19.204   0.333
88967W        W52900  29.603  21.631  13.977
88968W        W52901   4.711  39.825   2.884
88969W        W52902  17.719  15.188  12.351
88970W        W52903  41.922  44.360  13.044
88971W        W52904   5.814   9.810   2.747
88972W        W52905   8.266   0.348   1.769
88973W        W52906  15.634  39.359   3.297
88974W        W52907   9.768  43.397   4.607
88975W        W52908  24.038  11.627   9.569
88976W        W52909  39.855  17.136  12.495
88977W        W52910  32.519  29.925   4.187
88978W        W52911  30.657  27.567   2.242
88979W        W52912   0.982   8.723  11.045
88980W        W52913  44.332   4.240  11.371
88981W        W52914  36.566   5.915  14.276
88982W        W52915  34.424  15.756  13.940
88983W        W52916  20.109  15.636   3.780
88984W        W52917  21.738  34.918   3.858
88985W        W52918  17.083  37.497  13.437
88986W        W52919  32.592  14.607  14.923
88987W        W52920  21.107   7.854   5.197
88988W        W52921  43.516   6.804  14.845
88989W        W52922   4.397  24.573   1.373
88990W        W52923  28.152  37.862  11.389
88991W        W52924  17.738   1.815   4.681
88992W        W52925  18.087   1.742   4.838
88993W        W52926  27.196  20.676   1.797
88994W        W52927  24.633  40.422   2.225
88995W        W52928  19.731  44.966   2.180
88996W        W52929  39.449  22.996  14.975
88997W        W52930  43.782  36.883  10.945
88998W        W52931  43.452  36.590  13.937
88999W        W52932   6.770  14.271   4.192
89000W        W52933   2.439   2.373  10.493
89001W        W52934  25.620  16.754  13.345
89002W        W52935   4.762   4.798   4.298
89003W        W52936  32.515  31.025  11.427
89004W        W52937  44.979  32.556   0.743
89005W        W52938  18.752  37.890  11.897
89006W        W52939   8.762  44.262   3.853
89007W        W52940  40.436  33.117   0.414
89008W        W52941  35.940  26.518   5.251
89009W        W52942  44.777  17.598   4.232
89010W        W52943  41.844  25.603  10.486
89011W        W52944  10.654  30.558  10.404
89012W        W52945   9.202  12.623  14.285
89013W        W52946   5.757   7.339  11.078
89014W        W52947  39.390  42.829  10.993
89015W        W52948  14.733   5.321   0.351
89016W        W52949  15.689  31.950  14.504
89017W        W52950  31.614  35.587  13.897
89018W        W52951  33.985  33.025   4.748
89019W        W52952  20.645  35.917  13.387
89020W        W52953  17.766  15.280   5.118
89021W        W52954  40.533   4.733   1.405
89022W        W52955  29.474  31.442  12.369
89023W        W52956  25.973  18.180   4.207
89024W        W52957  12.674  41.958  12.466
89025W        W52958  19.705  38.437   0.340
89026W        W52959  36.455   8.889  14.446
89027W        W52960  33.510   4.768  13.930
89028W        W52961  11.664  37.868  13.049
89029W        W52962  22.696  28.617   1.818
89030W        W52963  26.648  43.874   0.443
89031W        W52964  37.844  34.482  10.465
89032W        W52965  18.604  38.389   3.188
89033W        W52966  28.014  42.961   0.928
89034W        W52967  19.748  44.998   3.166
89035W        W52968  17.143  44.909  11.510
89036W        W52969  36.517  18.599   4.598
89037W        W52970  20.745  44.990   0.295
89038W        W52971  21.679  27.983   4.343
89039W        W52972  34.554  10.151  11.939
89040W        W52973  26.599  37.016   4.622
89041W        W52974  35.062  44.006  14.833
89042W        W52975   1.402  25.018   0.863
89043W        W52976  25.166  43.008  12.960
89044W        W52977   6.262  20.185  14.946
89045W        W52978  17.642  28.610   2.810
89046W        W52979   9.159   5.240   0.370
89047W        W52980  35.361   6.398   3.660
89048W        W52981  21.745   0.915  11.080
89049W        W52982   7.279   9.395   3.159
89050W        W52983  16.275   5.784  13.383
89051W        W52984   6.868  14.739   5.590
89052W        W52985  44.945   5.222  11.953
89053W        W52986  39.439  15.815   9.978
89054W        W52987   5.694   3.710  11.460
89055W        W52988  38.374  43.372  14.376
89056W        W52989  24.658  37.875  12.078
89057W        W52990  35.603   0.350  12.407
89058W        W52991  34.956  31.470   1.315
89059W        W52992   9.870   4.307  11.075
89060W        W52993  31.021  14.623   1.908
89061W        W52994  13.614  36.909  12.935
89062W        W52995  22.611  18.154   4.792
89063W        W52996  41.405  14.141  12.046
89064W        W52997   8.814  16.314   4.653
89065W        W52998   2.795  24.604   2.864
89066W        W52999  34.492  41.859   1.243
89067W        W53000   8.804  44.488   1.446
89068W        W53001   6.269   6.378   2.738
89069W        W53002  42.799  22.218   2.701
89070W        W53003  19.648  17.578  12.060
89071W        W53004  40.840  29.934   1.806
89072W        W53005   9.874  44.976  12.355
89073W        W53006  34.387  36.486   1.892
89074W        W53007  10.708  10.873  11.509
89075W        W53008   9.211   7.351   5.280
89076W        W53009  12.783  31.497   4.682
89077W        W53010  30.555   0.482   0.253
89078W        W53011  38.957   0.286   4.204
89079W        W53012  12.196  39.418  12.517
89080W        W53013   1.789  13.807   5.116
89081W        W53014  26.995  31.013  13.459
89082W        W53015  20.101  34.579   4.279
89083W        W53016   0.758  22.720  10.477
89084W        W53017  43.446  20.261   2.766
89085W        W53018  26.579  10.295   4.113
89086W        W53019  13.822  19.718   3.360
89087W        W53020  44.413  11.366   0.812
89088W        W53021  13.238   5.761   1.928
89089W        W53022   2.953  26.604  11.440
89090W        W53023  41.400  32.609  13.418
89091W        W53024   7.712   5.702   1.879
89092W        W53025  17.707  43.401   2.262
89093W        W53026  40.863  33.054  13.843
89094W        W53027  20.233  13.175   4.724
89095W        W53028  42.956  38.935   2.409
89096W        W53029  29.046  38.330   0.422
89097W        W53030  33.121  11.631   2.742
89098W        W53031  19.077  41.509   4.214
89099W        W53032  43.869  44.996   3.333
89100W        W53033  16.146  21.168   5.184
89101W        W53034  18.624   8.781  12.540
89102W        W53035  44.957  36.937  12.520
89103W        W53036  16.109  22.557   1.802
89104W        W53037  27.570   2.439   5.706
89105W        W53038  29.492  12.689  14.297
89106W        W53039  20.054   2.439  14.404
89107W        W53040  40.044  12.300  12.895
89108W        W53041  42.439  19.618  12.538
89109W        W53042   1.789  27.090   0.401
89110W        W53043  36.353  40.006  12.886
89111W        W53044  36.927  22.201   0.741
89112W        W53045   4.709   7.292  13.329
89113W        W53046  38.933  16.620  11.063
89114W        W53047   4.794   9.716  13.940
89115W        W53048  38.343  37.566   1.785
89116W        W53049  31.455  21.745  13.542
89117W        W53050   4.271  44.500  11.554
89118W        W53051  20.138  10.661  11.915
89119W        W53052   1.381  23.616   3.818
89120W        W53053  24.144   9.200  14.005
89121W        W53054  30.583  23.089  14.494
89122W        W53055  17.578  30.500   0.480
89123W        W53056   3.845  44.450   3.285
89124W        W53057   1.429  23.015  13.385
89125W        W53058  19.577  42.431  14.377
89126W        W53059  40.453   7.281  14.900
89127W        W53060   3.741   8.230  11.020
89128W        W53061   3.779  27.622  12.888
89129W        W53062   6.851   8.790   2.249
89130W        W53063  44.259   8.868   0.944
89131W        W53064   1.346  39.385   3.801
89132W        W53065  15.195  44.934  11.028
89133W        W53066   1.826  38.378   4.134
89134W        W53067  17.170  43.419  14.873
89135W        W53068   7.806  35.359  10.601
89136W        W53069   0.428  43.899  12.485
89137W        W53070  12.192  14.653  11.410
89138W        W53071  41.369  24.024   4.296
89139W        W53072  37.433   9.293  10.529
89140W        W53073  23.129   8.825  12.494
89141W        W53074  32.925   6.731  13.384
89142W        W53075  39.009   1.449  11.965
89143W        W53076  34.902  14.258   4.793
89144W        W53077  32.035  16.151  12.908
89145W        W53078  17.252  18.664  14.280
89146W        W53079  24.975  14.705  13.535
89147W        W53080  42.936   2.785   2.265
89148W        W53081   4.395  41.886  10.584
89149W        W53082   8.792  19.182  14.287
89150W        W53083  34.406   0.860  10.469
89151W        W53084  27.462  17.727   3.653
89152W        W53085  17.633  14.245   4.661
89153W        W53086  22.073  17.151  11.533
89154W        W53087   2.317  20.149   2.189
89155W        W53088   3.891  25.097  14.842
89156W        W53089  28.626   1.969   3.761
89157W        W53090  30.572  42.910   1.451
89158W        W53091   9.189  27.035  14.015
89159W        W53092  35.968  31.136   3.345
89160W        W53093  24.092  39.424  12.559
89161W        W53094  43.814  19.755   1.424
89162W        W53095  15.194   5.745  14.769
89163W        W53096  22.656  39.976  11.954
89164W        W53097   1.349  16.273   2.793
89165W        W53098  27.574  43.995  11.590
89166W        W53099  26.700  14.201   4.685
89167W        W53100  37.838   7.718  13.060
89168W        W53101   1.811  44.949  11.440
89169W        W53102  26.614  14.326  14.385
89170W        W53103  15.110  39.825  14.897
89171W        W53104   3.291  40.341   2.901
89172W        W53105  35.904  18.082  13.508
89173W        W53106  17.190   9.191   1.865
89174W        W53107   8.747  12.801   3.743
89175W        W53108   6.409  37.547   1.362
89176W        W53109   5.353  15.116   3.858
89177W        W53110  30.431  10.285   3.206
89178W        W53111  12.731  36.953  13.968
89179W        W53112  41.414  20.232  10.935
89180W        W53113  19.559  14.767  12.346
89181W        W53114  13.112  11.621  11.077
89182W        W53115  29.064  23.579   0.295
89183W        W53116  35.881  29.023  12.487
89184W        W53117   0.976   4.721   3.163
89185W        W53118  14.183  44.930   3.310
89186W        W53119   6.336  13.256  13.969
89187W        W53120  22.064  43.980  14.806
89188W        W53121   0.952  41.900  11.413
89189W        W53122   4.721  15.176   1.344
89190W        W53123  18.596  20.581  12.085
89191W        W53124  10.764  33.593   4.300
89192W        W53125  33.544  39.456  13.974
89193W        W53126   4.210  11.866  14.486
89194W        W53127  26.650  32.540  13.473
89195W        W53128   8.746  31.475  12.383
89196W        W53129  33.616   2.726  12.868
89197W        W53130  30.930  18.295  10.524
89198W        W53131  44.888   9.294  13.800
89199W        W53132  21.172   7.798  14.455
89200W        W53133   1.371   1.260   4.777
89201W        W53134  24.721  21.047   0.473
89202W        W53135  16.128  17.717   0.868
89203W        W53136  43.386  39.982   9.933
89204W        W53137  23.530  34.558   4.340
89205W        W53138  28.009  15.679   1.925
89206W        W53139  12.316  39.382   4.744
89207W        W53140  24.622  13.605  11.424
89208W        W53141  12.360  22.238  13.985
89209W        W53142  25.030  30.129  13.830
89210W        W53143   4.890   3.407   9.656
89211W        W53144  37.030  10.865  12.367
89212W        W53145   2.320  14.819  14.986
89213W        W53146  20.734  32.486   3.643
89214W        W53147   3.847  40.053   3.792
89215W        W53148  31.482  16.162   0.336
89216W        W53149   0.955  34.953  13.443
89217W        W53150  14.120   0.895   3.861
89218W        W53151   8.759  15.261   4.727
89219W        W53152  41.855  18.565   1.845
89220W        W53153  32.123  33.907  12.849
89221W        W53154   5.195   5.839  10.608
89222W        W53155   4.853   6.234   3.746
89223W        W53156  18.773  16.087   3.837
89224W        W53157  40.369  16.110  11.911
89225W        W53158  42.443   1.935   3.811
89226W        W53159  21.527  21.757   0.449
89227W        W53160  12.714   4.361  10.562
89228W        W53161  22.015   4.217  13.351
89229W        W53162  30.965  33.559   1.243
89230W        W53163  32.408  16.073   2.366
89231W        W53164  38.523  31.126  12.862
89232W        W53165  24.529  28.450  14.474
89233W        W53166  33.112  14.689   3.780
89234W        W53167  30.427   0.473   4.185
89235W        W53168   5.888  16.663  14.368
89236W        W53169  35.047  34.944  14.933
89237W        W53170  27.068  31.529   2.411
89238W        W53171  30.549   0.869   4.268
89239W        W53172   7.684  22.639  12.342
89240W        W53173  40.482  36.041  14.902
89241W        W53174   7.681  30.596  11.858
89242W        W53175  19.732  16.253   1.782
89243W        W53176  40.531  22.035  12.480
89244W        W53177  16.306   4.307  11.957
89245W        W53178  40.395   4.820  14.356
89246W        W53179   1.408  19.213  12.095
89247W        W53180   9.882  21.725   0.730
89248W        W53181  17.170  27.662   0.293
89249W        W53182  20.188  12.345   0.907
89250W        W53183  21.562  30.146  14.924
89251W        W53184  22.557  36.423   4.786
89252W        W53185   3.718  20.555  10.946
89253W        W53186  21.199   0.914   1.774
89254W        W53187  25.543  21.722  13.932
89255W        W53188   6.838  20.083  14.978
89256W        W53189  10.742   8.778   1.429
89257W        W53190   3.865  44.287  10.567
89258W        W53191  27.522   0.343  11.032
89259W        W53192   2.407  19.658   4.689
89260W        W53193   4.392  36.394  12.092
89261W        W53194  34.976  18.121   4.248
89262W        W53195  22.113  24.122  13.954
89263W        W53196  22.996  43.366   4.759
89264W        W53197  31.595   6.684   0.315
89265W        W53198   6.862  28.177  10.080
89266W        W53199  35.523  30.149  12.841
89267W        W53200  29.520  19.116  13.808
89268W        W53201  44.297  10.154  13.007
89269W        W53202  41.943   0.387   4.836
89270W        W53203  31.535  22.719   3.355
89271W        W53204   9.273   4.829   9.475
89272W        W53205  44.940   4.712   2.851
89273W        W53206  13.154  23.022  12.551
89274W        W53207  31.941  39.065   2.715
89275W        W53208  38.836  22.575   3.153
89276W        W53209  40.904  25.066  12.915
89277W        W53210  29.533  19.209   0.802
89278W        W53211  19.225  39.459   4.663
89279W        W53212  20.621   3.363   4.315
89280W        W53213  16.763  37.349   9.657
89281W        W53214  39.813  43.399  13.380
89282W        W53215   2.744  13.282   0.361
89283W        W53216  43.354   2.857  12.048
89284W        W53217  41.856   9.677   4.333
89285W        W53218  39.318  13.247   0.448
89286W        W53219   1.336  35.090  12.860
89287W        W53220  11.373  32.959  11.936
89288W        W53221  40.942  25.202  14.780
89289W        W53222  17.158  28.953   4.714
89290W        W53223  39.963  32.509  13.389
89291W        W53224   7.188  43.871  12.387
89292W        W53225   7.835  32.086  13.940
89293W        W53226  16.166  32.621   4.157
89294W        W53227  38.524  20.165   0.281
89295W        W53228  13.823   2.377  13.509
89296W        W53229   3.888   8.659  11.413
89297W        W53230  26.502  23.079  13.530
89298W        W53231  31.570  16.739  11.597
89299W        W53232  22.160  38.840   3.202
89300W        W53233  36.415  20.185   2.873
89301W        W53234  20.552  38.880   3.197
89302W        W53235  24.987  11.789  13.840
89303W        W53236  25.478  23.716  12.375
89304W        W53237  31.904  44.983  12.880
89305W        W53238  32.502  41.524   2.681
89306W        W53239  12.857  15.211  13.054
89307W        W53240  32.968  39.476  12.567
89308W        W53241  16.119  41.385  13.368
89309W        W53242  11.681   8.345   2.314
89310W        W53243  39.498  18.608   4.334
89311W        W53244  32.047  36.842  11.968
89312W        W53245  31.957  37.338  14.884
89313W        W53246  18.231   9.276   4.837
89314W        W53247   1.259  22.162  10.626
89315W        W53248  37.357  24.692   2.214
89316W        W53249  10.701   5.203  10.956
89317W        W53250   5.734  36.506   4.829
89318W        W53251  26.555  31.644   1.925
89319W        W53252  35.481  42.491  10.496
89320W        W53253   6.687  16.143  13.970
89321W        W53254  15.113   3.825   4.186
89322W        W53255  37.474  40.984  13.307
89323W        W53256  36.541  20.540   4.191
89324W        W53257   0.936   7.865   4.272
89325W        W53258  34.567  29.944   1.253
89326W        W53259  22.658   2.844  11.060
89327W        W53260  11.860  20.269   2.377
89328W        W53261   2.810  30.564   3.147
89329W        W53262  17.268   8.387   2.189
89330W        W53263  29.155  20.135   1.709
89331W        W53264  12.715  25.486   4.243
89332W        W53265  30.940  15.765  14.394
89333W        W53266   9.889   8.176   3.343
89334W        W53267  37.877  21.073   3.717
89335W        W53268  12.632  37.842   1.820
89336W        W53269  34.993  25.213  13.038
89337W        W53270  41.313  19.125  11.406
89338W        W53271   6.815  27.959   0.944
89339W        W53272  16.087  19.543   4.215
89340W        W53273  37.923  19.130   1.723
89341W        W53274  28.101  24.505  13.467
89342W        W53275  40.373  24.660  11.072
89343W        W53276  43.878  33.075   4.290
89344W        W53277  42.922  29.986  14.920
89345W        W53278  42.497  43.817  12.419
89346W        W53279  32.060  23.596  10.503
89347W        W53280  14.698  22.191  13.493
89348W        W53281  38.075  11.712   1.810
89349W        W53282  21.568  16.277  14.824
89350W        W53283   2.741   5.898  13.055
89351W        W53284  25.141   7.742  13.390
89352W        W53285  11.363  44.315   0.331
89353W        W53286  35.863  25.693   0.431
89354W        W53287  11.740  21.543  14.404
89355W        W53288  30.976  20.684  13.872
89356W        W53289  42.791   1.463   2.287
89357W        W53290  13.327  35.983  10.149
89358W        W53291  12.193  11.360  12.904
89359W        W53292  39.811  27.170  11.512
89360W        W53293   8.168  12.650  10.952
89361W        W53294  35.090  35.865  14.836
89362W        W53295  21.031  25.637  10.540
89363W        W53296  24.492  29.543  14.496
89364W        W53297  24.989   3.363  13.466
89365W        W53298  30.073  29.125   4.644
89366W        W53299  16.263   3.341  14.471
89367W        W53300  28.436   2.854   1.747
89368W        W53301  38.429  31.615   1.251
89369W        W53302  29.580  23.112   1.824
89370W        W53303  16.616  13.680   0.325
89371W        W53304  31.411  10.161  14.392
89372W        W53305  42.817   2.299   0.429
89373W        W53306  24.992   1.357  13.467
89374W        W53307  14.231  19.596  12.840
89375W        W53308   5.207   1.946  10.114
89376W        W53309  25.708  30.556  13.051
89377W        W53310  26.591  39.364  13.525
89378W        W53311   5.412   8.382   3.371
89379W        W53312  22.234  33.406  10.506
89380W        W53313  12.197   3.761   2.387
89381W        W53314  10.198  11.286   1.303
89382W        W53315  17.198  10.836  13.366
89383W        W53316   1.394  29.956   4.336
89384W        W53317  14.204  10.266   5.197
89385W        W53318   9.375  44.762  11.957
89386W        W53319  15.196  43.936  13.478
89387W        W53320  14.125  41.861   4.686
89388W        W53321  35.589  15.098   2.761
89389W        W53322  34.068  30.600   1.261
89390W        W53323  26.518  18.051  10.500
89391W        W53324  39.354  16.148  13.045
89392W        W53325  22.694  29.466  14.895
89393W        W53326  15.084   8.837   3.284
89394W        W53327   2.833  35.920   3.717
89395W        W53328  39.018   6.321  12.503
89396W        W53329  25.491  44.924   0.380
89397W        W53330  37.528  19.703   9.937
89398W        W53331  21.260  43.272   4.696
89399W        W53332   3.765  23.712   2.260
89400W        W53333   4.724   0.893   1.407
89401W        W53334  28.102  44.872  12.898
89402W        W53335  10.353  18.097  14.400
89403W        W53336  24.675  35.595   1.380
89404W        W53337  17.268  34.422   2.245
89405W        W53338  35.535   7.709  14.371
89406W        W53339  20.665  22.153  10.962
89407W        W53340  37.922  28.105  10.041
89408W        W53341   1.855  43.954   0.462
89409W        W53342   0.767   0.797   3.838
89410W        W53343  22.606  11.225   3.851
89411W        W53344   1.333   2.735  14.418
89412W        W53345  11.194  27.615  13.421
89413W        W53346  22.509  27.087  10.965
89414W        W53347  15.292  13.655  12.977
89415W        W53348   0.743  23.537  10.960
89416W        W53349  24.685  20.211   4.187
89417W        W53350  17.117  35.476   1.924
89418W        W53351  21.686   6.886   4.304
89419W        W53352  27.121  33.047  13.832
89420W        W53353  12.286  41.396  14.996
89421W        W53354  37.435  32.995  14.884
89422W        W53355   9.795  41.394   3.653
89423W        W53356  44.814  28.496   0.480
89424W        W53357  31.503  36.932  14.782
89425W        W53358  13.611   0.315  12.062
89426W        W53359  11.358   0.272  14.808
89427W        W53360  40.433  13.111  11.862
89428W        W53361   9.392  24.561   2.205
89429W        W53362  37.346  20.650   4.790
89430W        W53363  43.391  43.290  13.045
89431W        W53364  11.867   0.289   4.718
89432W        W53365  19.127  35.035  12.535
89433W        W53366  34.119   2.422  10.404
89434W        W53367  28.653  30.941   1.898
89435W        W53368  31.932   5.195  11.608
89436W        W53369   3.423   4.304   4.129
89437W        W53370  30.443  30.985   2.718
89438W        W53371  30.582  15.172   2.745
89439W        W53372   7.180  44.331  13.372
89440W        W53373   9.811  18.683  11.052
89441W        W53374   1.758  21.644   0.321
89442W        W53375  25.602  19.199  12.865
89443W        W53376  14.656  34.392   2.206
89444W        W53377   3.271   3.397   2.305
89445W        W53378  32.897  14.271   4.213
89446W        W53379  40.017  17.788  12.061
89447W        W53380   3.822  13.154  12.006
89448W        W53381  40.799  36.943  11.434
89449W        W53382  27.470  40.414  14.808
89450W        W53383   8.245  13.146   1.774
89451W        W53384  29.476  13.275  14.978
89452W        W53385  42.407  39.318   3.335
89453W        W53386  27.499  39.442  11.525
89454W        W53387  40.303  24.039  13.532
89455W        W53388   8.857  41.373   1.220
89456W        W53389  38.565  11.840  11.585
89457W        W53390   9.693   3.444  14.797
89458W        W53391  37.356  25.700   4.220
89459W        W53392   3.939  39.488   0.449
89460W        W53393  16.759   2.323  12.085
89461W        W53394  36.591  43.823   3.677
89462W        W53395  38.453  37.467  13.958
89463W        W53396  23.610   4.228   4.790
89464W        W53397  15.146  22.685   1.277
89465W        W53398  11.370  29.964   4.649
89466W        W53399  43.896  19.772   0.377
89467W        W53400  16.191  19.562  12.847
89468W        W53401   4.727  29.146   0.422
89469W        W53402   3.378  11.830   3.347
89470W        W53403  14.136  15.819  12.549
89471W        W53404  26.637  42.858   4.749
89472W        W53405   2.240   9.816   4.765
89473W        W53406  19.739  17.083  11.058
89474W        W53407  36.872  30.146  11.519
89475W        W53408  27.039  15.795   1.333
89476W        W53409  31.010   8.380  11.997
89477W        W53410  40.322   6.202   4.688
89478W        W53411   6.863  19.546  12.516
89479W        W53412  42.424   5.787  13.495
89480W        W53413  14.330  19.221   3.754
89481W        W53414  32.584  41.498   2.192
89482W        W53415  32.614   9.394   3.685
89483W        W53416   8.725  23.220   1.913
89484W        W53417  43.854  20.687  14.285
89485W        W53418  15.308  18.075  11.878
89486W        W53419  17.127   2.966   3.755
89487W        W53420  30.009  19.600  14.022
89488W        W53421   4.730   2.838   4.659
89489W        W53422  41.043   0.256   1.313
89490W        W53423   5.363  25.594   1.321
89491W        W53424  30.119  18.545   4.717
89492W        W53425  10.339  36.861  10.024
89493W        W53426  38.877   2.337  11.484
89494W        W53427  16.203  34.055  12.516
89495W        W53428  21.141  15.291   3.643
89496W        W53429   7.884  16.253   0.353
89497W        W53430  26.072   1.841  12.397
89498W        W53431   2.472  28.439   4.664
89499W        W53432  42.016  26.578  12.526
89500W        W53433  26.530  17.608  10.564
89501W        W53434  15.327  21.147   1.410
89502W        W53435  41.486  19.626  13.881
89503W        W53436  37.922  34.060   3.195
89504W        W53437   4.821  21.154  13.437
89505W        W53438  43.437   0.890   1.840
89506W        W53439   4.260  30.428  12.841
89507W        W53440  33.887  16.567  13.842
89508W        W53441   2.862  26.074  13.441
89509W        W53442  29.444  22.609  12.862
89510W        W53443  20.247  33.988  14.488
89511W        W53444  19.673  11.152  13.516
89512W        W53445  29.509  11.259  12.358
89513W        W53446  14.157  44.995   4.341
89514W        W53447  33.088  20.739  14.419
89515W        W53448  23.656  32.614   0.312
89516W        W53449  20.148   5.417   3.725
89517W        W53450  34.079  27.639   1.803
89518W        W53451  42.341  13.631  10.947
89519W        W53452   8.232  37.848   2.375
89520W        W53453  34.021  32.959  13.806
89521W        W53454  28.652  22.631   4.648
89522W        W53455  20.157  13.207  10.631
89523W        W53456  18.647  29.031   3.147
89524W        W53457  38.546  37.945   3.236
89525W        W53458  17.261   8.667   1.251
89526W        W53459   1.418  20.657  13.835
89527W        W53460   1.867  22.096   1.287
89528W        W53461  38.550   8.812   2.297
89529W        W53462  35.512  19.277   0.935
89530W        W53463  13.831  40.514   1.278
89531W        W53464  27.603   9.829   2.748
89532W        W53465  29.510   4.424  14.356
89533W        W53466  18.121  29.650   3.807
89534W        W53467  39.368  44.981  10.542
89535W        W53468  33.897  27.641  10.895
89536W        W53469   4.412   3.249  11.916
89537W        W53470   6.381  26.956  13.370
89538W        W53471  38.966   9.364  11.420
89539W        W53472  13.825  43.992  14.838
89540W        W53473  33.997  16.667   4.628
89541W        W53474  29.503  43.333  13.045
89542W        W53475  37.972  34.450   0.310
89543W        W53476  28.182  26.150  13.904
89544W        W53477  41.534  23.031   2.257
89545W        W53478   3.277  43.289   0.954
89546W        W53479  17.232  31.996   1.435
89547W        W53480   3.938   6.314   3.866
89548W        W53481  37.473  11.643  11.452
89549W        W53482  27.992  35.545  14.803
89550W        W53483  41.862   5.249  10.411
89551W        W53484  27.570  35.038   1.815
89552W        W53485  11.693  12.743   2.223
89553W        W53486  44.435  32.965  14.805
89554W        W53487   2.442  37.952  10.580
89555W        W53488  41.406  28.025  10.589
89556W        W53489   5.395  32.414  11.380
89557W        W53490   8.187  18.265  10.579
89558W        W53491  15.180  32.950  11.544
89559W        W53492  40.471   9.309   1.756
89560W        W53493  40.321   7.238  12.557
89561W        W53494  23.232  31.463  13.044
89562W        W53495  33.391   9.173  13.497
89563W        W53496  44.943  28.648   2.791
89564W        W53497  34.088   2.359  11.865
89565W        W53498   8.227  37.374  14.361
89566W        W53499   6.243  16.757   4.797
89567W        W53500   0.480  10.179   0.244
89568W        W53501  41.483  43.020   1.703
89569W        W53502   3.433  25.522  13.357
89570W        W53503  16.708  21.103  10.498
89571W        W53504  27.059  41.003   0.375
89572W        W53505  43.403  33.483   2.687
89573W        W53506  19.044  15.136   0.746
89574W        W53507  33.970  23.022   0.346
89575W        W53508  25.038  13.189  13.354
89576W        W53509  29.546  33.022  14.024
89577W        W53510  33.961  26.541   2.813
89578W        W53511   8.388   3.282  14.017
89579W        W53512  33.127   9.884  10.519
89580W        W53513  31.646   1.772  14.338
89581W        W53514  11.186   7.285  12.523
89582W        W53515  38.877  41.978   4.597
89583W        W53516  31.550  31.093  13.538
89584W        W53517  20.525  16.710  14.467
89585W        W53518  34.987  11.790  10.148
89586W        W53519  21.725  37.421  10.558
89587W        W53520  26.126  32.466   2.778
89588W        W53521  19.596  30.488   1.778
89589W        W53522  30.146  28.094  13.360
89590W        W53523   9.173   0.756   1.812
89591W        W53524   6.709  18.575   3.801
89592W        W53525  28.150  31.107  12.565
89593W        W53526   0.979  26.146   0.357
89594W        W53527  30.619  41.857   4.626
89595W        W53528  42.952  42.517   3.313
89596W        W53529   6.314  17.212   3.778
89597W        W53530  41.987  11.203   0.776
89598W        W53531  12.294  10.151   4.608
89599W        W53532  29.959   7.289   3.291
89600W        W53533  20.234  19.174   1.851
89601W        W53534  26.187  39.910   1.791
89602W        W53535   4.796  22.055  14.776
89603W        W53536   7.882  39.556   0.825
89604W        W53537   9.825   1.951  13.497
89605W        W53538  16.271  35.571   2.895
89606W        W53539  30.659  26.955   4.678
89607W        W53540  28.942  36.955  14.817
89608W        W53541   6.389  17.129  12.469
89609W        W53542  13.747  14.259  10.611
89610W        W53543  34.039  21.245  13.427
89611W        W53544   4.714  19.131  14.795
89612W        W53545  24.662  16.767  12.554
89613W        W53546   7.698   5.338   3.309
89614W        W53547  32.942  44.416  13.020
89615W        W53548   8.887  41.473   2.718
89616W        W53549  33.395  29.163   3.681
89617W        W53550  42.928  33.431  13.327
89618W        W53551  17.783   0.279   0.865
89619W        W53552  28.459   7.325  14.510
89620W        W53553  12.281   0.277   3.158
89621W        W53554  22.617  13.758  13.496
89622W        W53555  33.538  26.087   4.165
89623W        W53556  23.989  11.678  13.367
89624W        W53557  29.479   3.332   0.893
89625W        W53558  44.809  25.654  14.780
89626W        W53559  14.307  14.673  14.759
89627W        W53560  17.187  41.521   1.749
89628W        W53561  29.120   6.683   4.296
89629W        W53562  24.497   0.783  11.414
89630W        W53563  43.477   5.862   0.890
89631W        W53564  39.811  26.162   1.241
89632W        W53565  33.603  12.856   2.899
89633W        W53566  15.184  29.554   3.157
89634W        W53567   9.279  40.325  11.545
89635W        W53568  32.591  38.873   0.896
89636W        W53569   0.961   3.298  10.631
89637W        W53570  13.146  11.198  10.574
89638W        W53571  30.420  38.435  14.408
89639W        W53572  40.330  26.200   2.205
89640W        W53573  44.772  12.619   4.656
89641W        W53574  39.005  11.360  14.387
89642W        W53575  17.230   9.268  12.515
89643W        W53576  40.364   0.413   2.344
89644W        W53577   2.285  25.205   4.768
89645W        W53578  40.365  32.400   4.791
89646W        W53579  43.352  41.009  11.954
89647W        W53580  27.513  32.985  14.999
89648W        W53581  42.831  14.675   0.277
89649W        W53582   1.310   2.471  14.300
89650W        W53583  16.275  32.890   0.427
89651W        W53584  41.812   5.789  11.937
89652W        W53585  38.025  39.044   4.661
89653W        W53586   4.869  41.954   1.855
89654W        W53587  10.294  31.474  10.418
89655W        W53588  23.159  34.414   0.326
89656W        W53589   1.477  11.756  11.570
89657W        W53590   1.927   0.981  12.577
89658W        W53591  21.740  28.016  10.905
89659W        W53592  30.017  17.221  14.950
89660W        W53593   0.417  11.251  13.444
89661W        W53594  14.213  17.123   4.670
89662W        W53595   5.399  38.570   4.328
89663W        W53596  33.125  17.116  11.585
89664W        W53597  43.771   5.898   4.697
89665W        W53598  20.254  41.445   1.872
89666W        W53599   9.301   5.283  10.411
89667W        W53600  41.532  16.314  10.469
89668W        W53601  31.460  21.096  13.053
89669W        W53602  16.794  11.316   1.366
89670W        W53603  32.030  42.423   0.258
89671W        W53604  17.642   8.822   0.452
89672W        W53605   4.913  17.139  12.493
89673W        W53606  41.913  31.027   1.366
89674W        W53607  12.632  36.943   3.810
89675W        W53608  18.271  24.207   3.190
89676W        W53609   1.390  37.465  13.989
89677W        W53610  17.099  29.618  14.478
89678W        W53611  29.010  22.235  11.435
89679W        W53612  40.317  10.762  12.863
89680W        W53613  22.037  22.071   1.213
89681W        W53614  26.558  29.949   1.863
89682W        W53615  24.093  14.166  13.002
89683W        W53616   8.901   9.770  13.895
89684W        W53617   1.783  44.340   2.258
89685W        W53618  42.977  22.571   3.813
89686W        W53619  25.183  36.904  13.011
89687W        W53620  40.810  32.455  14.491
89688W        W53621  39.506  39.983   2.763
89689W        W53622  12.132   8.160   4.608
89690W        W53623  13.758  33.444   4.221
89691W        W53624  36.552  32.910   0.895
89692W        W53625  21.121  18.598  12.361
89693W        W53626  24.550  32.016   4.242
89694W        W53627  22.684   2.867  11.611
89695W        W53628  33.488  44.787  10.568
89696W        W53629  28.966  41.373   0.480
89697W        W53630   6.685  39.420   2.865
89698W        W53631   9.386  11.819   1.731
89699W        W53632  11.318  23.210  14.394
89700W        W53633  24.056  10.215   0.825
89701W        W53634  36.024  29.981  11.962
89702W        W53635  29.918  42.929   1.221
89703W        W53636   3.293  12.301  11.609
89704W        W53637  39.363  10.265  10.462
89705W        W53638   5.721  19.674  12.494
89706W        W53639  10.317  15.240  14.410
89707W        W53640  21.092  14.791  13.824
89708W        W53641  44.327  24.520   4.669
89709W        W53642  36.423  12.202  10.917
89710W        W53643  33.965  21.745  11.529
89711W        W53644  33.510  12.612   5.139
89712W        W53645   9.390  19.110  14.487
89713W        W53646   2.770  14.167   4.134
89714W        W53647  35.105  35.405   3.651
89715W        W53648   2.275  32.996  14.918
89716W        W53649  25.100   9.673   2.874
89717W        W53650  39.857   0.867  12.010
89718W        W53651   4.357  12.316  10.130
89719W        W53652  28.076  28.184  11.944
89720W        W53653  40.998  35.545  13.816
89721W        W53654  27.181  22.197   4.324
89722W        W53655  35.886   2.965  12.070
89723W        W53656  25.047  32.607   1.820
89724W        W53657  22.093   0.959  13.895
89725W        W53658   1.442   1.459   3.215
89726W        W53659  28.031  32.591  10.406
89727W        W53660   9.863  27.065   4.707
89728W        W53661   5.240  33.125   4.787
89729W        W53662  41.940  27.008  14.853
89730W        W53663  42.892   6.265  11.528
89731W        W53664  28.952  24.095   2.798
89732W        W53665  37.469   0.358   1.726
89733W        W53666  15.660  34.419   3.809
89734W        W53667  25.532  17.588  11.399
89735W        W53668   2.261  32.012   4.175
89736W        W53669  22.540  34.377  12.052
89737W        W53670  25.527  40.544   0.312
89738W        W53671  29.525  21.708   3.719
89739W        W53672  41.889   3.936   3.290
89740W        W53673   4.718  43.322  14.335
89741W        W53674  27.569  12.799  14.961
89742W        W53675  17.098  13.230  13.009
89743W        W53676  38.445  18.273  14.847
89744W        W53677  27.026   9.737   9.676
89745W        W53678  35.069  32.617   0.462
89746W        W53679  18.206  41.790   2.855
89747W        W53680  23.207   5.900  10.890
89748W        W53681  14.178  37.499   0.879
89749W        W53682  26.077  31.992  13.483
89750W        W53683  20.040  13.715   3.197
89751W        W53684   6.342  28.583  12.927
89752W        W53685  31.979  24.151   3.328
89753W        W53686   6.182  30.634   0.771
89754W        W53687  15.324  22.605   3.175
89755W        W53688  18.651  28.553  11.862
89756W        W53689   5.208   8.740   0.441
89757W        W53690  18.141  32.451   2.722
89758W        W53691  34.416   9.326  13.351
89759W        W53692  14.717   2.315  14.024
89760W        W53693  43.016  15.804   4.124
89761W        W53694  16.638   1.756   0.434
89762W        W53695   6.334  38.976  11.122
89763W        W53696  30.511  30.505  14.781
89764W        W53697  34.088  26.200   2.283
89765W        W53698   3.433   7.321  10.106
89766W        W53699  14.783  15.714  10.419
89767W        W53700  22.595   3.726   4.772
89768W        W53701  21.745   8.739  11.935
89769W        W53702  37.555   6.885   4.276
89770W        W53703  12.286   4.430  11.584
89771W        W53704  29.482  17.695  13.341
89772W        W53705  39.941   8.665   0.863
89773W        W53706  10.170  27.668   0.476
89774W        W53707  21.190  16.724  14.800
89775W        W53708   1.843  19.682   2.381
89776W        W53709  16.247  15.315   2.666
89777W        W53710  37.969  29.062  12.066
89778W        W53711  14.146   7.172   1.831
89779W        W53712   0.887  20.152  13.506
89780W        W53713   4.824  11.627  13.868
89781W        W53714  20.623   6.227  13.984
89782W        W53715  13.629  36.863  14.491
89783W        W53716  19.164  26.151   5.727
89784W        W53717   5.264  35.948   2.229
89785W        W53718  44.006  40.938  14.812
89786W        W53719  10.154  10.862  14.032
89787W        W53720  26.487  30.633   3.232
89788W        W53721  29.125  20.090  11.397
89789W        W53722  26.187   0.373  10.113
89790W        W53723   0.416   1.307   0.803
89791W        W53724  20.708  32.451  10.590
89792W        W53725   5.744  25.606   3.729
89793W        W53726  38.562   4.244   1.911
89794W        W53727  33.900  26.183   1.249
89795W        W53728  39.912  17.601  14.010
89796W        W53729  37.975  28.677   2.811
89797W        W53730  19.627  19.198   4.610
89798W        W53731  33.492   2.233   1.748
89799W        W53732  18.597  41.354  14.386
89800W        W53733  22.627   5.723  14.824
89801W        W53734  43.914  33.992   2.710
89802W        W53735  24.480  44.955  11.444
89803W        W53736  23.192   2.839  14.827
89804W        W53737   7.407  36.399   2.209
89805W        W53738  40.394  14.696   0.369
89806W        W53739  37.374  16.132   1.792
89807W        W53740   8.802  41.532  10.079
89808W        W53741  12.347  20.567   4.144
89809W        W53742  29.600  12.311  12.987
89810W        W53743  36.893   9.321  13.906
89811W        W53744  34.955  23.598   5.314
89812W        W53745   7.715  16.697   1.786
89813W        W53746  22.539   0.437  11.450
89814W        W53747  13.612   5.835   2.312
89815W        W53748  29.601  41.934   1.378
89816W        W53749  19.770   8.206  10.944
89817W        W53750  36.012  21.190  12.878
89818W        W53751   2.387  30.426   2.800
89819W        W53752  11.328  40.924  13.911
89820W        W53753  16.787  30.951   2.706
89821W        W53754   1.968  35.494   2.370
89822W        W53755  12.713  23.590  13.457
89823W        W53756  30.627  43.901  10.642
89824W        W53757  39.849  17.599  12.905
89825W        W53758  28.612  19.279  10.962
89826W        W53759   7.213  38.498   1.901
89827W        W53760   2.455   1.864   0.376
89828W        W53761  16.636   2.438   4.197
89829W        W53762  21.042  20.028   4.773
89830W        W53763  16.278  31.587  14.349
89831W        W53764   0.793   7.239   0.442
89832W        W53765  28.518   0.307   5.276
89833W        W53766  23.608  33.053   0.777
89834W        W53767  33.587  39.938  11.532
89835W        W53768  42.459  24.028  14.889
89836W        W53769  38.851  39.949   4.212
89837W        W53770  29.580  17.096   2.873
89838W        W53771  34.908  25.160   3.774
89839W        W53772  27.030   7.401   3.635
89840W        W53773  31.084  42.904   5.161
89841W        W53774   9.721  20.153   0.765
89842W        W53775  15.605  13.154   0.746
89843W        W53776  24.624  23.132   3.657
89844W        W53777  31.940  42.836  10.479
89845W        W53778  26.178  36.972  14.365
89846W        W53779  38.005  29.440  12.062
89847W        W53780   3.283  31.559  12.524
89848W        W53781  36.412  27.635   4.706
89849W        W53782  27.153   7.218   4.204
89850W        W53783   2.458  30.036  12.032
89851W        W53784  25.708  18.240  14.934
89852W        W53785  11.268  22.042  12.935
89853W        W53786  43.490  36.468   1.331
89854W        W53787  26.513  11.225  12.360
89855W        W53788  18.292  19.189   0.456
89856W        W53789  17.730  16.692   2.301
89857W        W53790  33.530   9.192   0.321
89858W        W53791  14.611  26.205  13.831
89859W        W53792  12.753  43.807   4.761
89860W        W53793  29.130  41.791  12.418
89861W        W53794   0.795  42.820  14.955
89862W        W53795  41.032  24.125  11.530
89863W        W53796  40.537   7.850  14.898
89864W        W53797  21.738   8.381  13.347
89865W        W53798  34.082  25.595  13.442
89866W        W53799   6.772  31.485  14.344
89867W        W53800   8.870  29.589   2.182
89868W        W53801   4.417   2.410   2.249
89869W        W53802  12.710  34.453  11.972
89870W        W53803  32.950  14.310  12.930
89871W        W53804  18.555   9.206  14.280
89872W        W53805   4.753  24.217   1.290
89873W        W53806  36.983  43.002  10.509
89874W        W53807  29.025  38.370  10.548
89875W        W53808  19.199   5.423  13.359
89876W        W53809   0.458  40.913   0.426
89877W        W53810  35.039   3.250   3.734
89878W        W53811   1.925  19.261   4.697
89879W        W53812  41.536  42.956  11.888
89880W        W53813   3.414  23.682  14.422
89881W        W53814  24.585  30.558  12.366
89882W        W53815  30.547  14.831   5.244
89883W        W53816  21.049  42.324   3.348
89884W        W53817  23.603  20.623  11.888
89885W        W53818   1.755   0.786   4.288
89886W        W53819  29.532  27.542  13.038
89887W        W53820   0.932  25.471  14.940
89888W        W53821  20.041  29.099   1.258
89889W        W53822  42.006  15.208   2.746
89890W        W53823   6.757  14.161   1.293
89891W        W53824  23.522  12.740  13.954
89892W        W53825  14.188  34.438  13.393
89893W        W53826  29.071  24.188   3.271
89894W        W53827  11.242  31.959  14.946
89895W        W53828  40.383  34.959  11.994
89896W        W53829  17.089  43.847   1.359
89897W        W53830  41.903  26.621   1.272
89898W        W53831  35.073  36.357  11.581
89899W        W53832  38.979  42.299  10.618
89900W        W53833  28.678  12.273   3.703
89901W        W53834  11.159  34.493   0.259
89902W        W53835  44.910  25.711   3.742
89903W        W53836  38.526  37.002  13.866
89904W        W53837   0.402   0.411  14.933
89905W        W53838   5.919   6.324   3.708
89906W        W53839  19.220  32.395  13.931
89907W        W53840  36.489  32.093  13.055
89908W        W53841  10.678  34.013  12.422
89909W        W53842   4.221  37.883   3.709
89910W        W53843  18.655  30.984  13.840
89911W        W53844  42.869   1.449  13.928
89912W        W53845  44.444  25.635   2.720
89913W        W53846  31.038  15.272   2.314
89914W        W53847  15.240  33.465   2.676
89915W        W53848  22.606   4.870   2.762
89916W        W53849  44.824  25.550  11.893
89917W        W53850  14.331  28.143   2.722
89918W        W53851  33.067  34.463   3.631
89919W        W53852   6.723  30.155   2.419
89920W        W53853   6.373  34.422  10.520
89921W        W53854  11.172  17.213  10.618
89922W        W53855  23.734  27.154  12.022
89923W        W53856   5.847  40.862  13.490
89924W        W53857  26.628  25.690  11.892
89925W        W53858   7.408  25.690  12.396
89926W        W53859  41.922  33.534  14.355
89927W        W53860  33.031   3.917   0.329
89928W        W53861  11.322  34.424  10.483
89929W        W53862  36.950  23.727  11.446
89930W        W53863  24.049  11.300  14.899
89931W        W53864  38.328   0.253  11.501
89932W        W53865  41.949  18.776  12.920
89933W        W53866  40.506  39.391   9.671
89934W        W53867  19.597  16.602   1.924
89935W        W53868  44.864  43.981  14.415
89936W        W53869  35.599   2.268   3.234
89937W        W53870  28.043  32.057  14.341
89938W        W53871  31.405  19.279  11.551
89939W        W53872  28.665  11.665  13.063
89940W        W53873   7.326  33.010  13.398
89941W        W53874  30.129  42.489   1.222
89942W        W53875   5.885   5.283  13.914
89943W        W53876  43.788  34.113   1.351
89944W        W53877  18.700  28.447   1.704
89945W        W53878  31.459  17.285  11.417
89946W        W53879  14.162   9.725  13.502
89947W        W53880  35.871  38.019  13.011
89948W        W53881  28.512   9.191  12.537
89949W        W53882  16.160   6.905  13.982
89950W        W53883  29.511  14.715  14.325
89951W        W53884   4.859  41.334  13.907
89952W        W53885  27.148   9.652   0.455
89953W        W53886  15.696   2.374   4.193
89954W        W53887  10.324  22.719   0.906
89955W        W53888  43.953  35.866   1.370
89956W        W53889  18.642  33.048  13.045
89957W        W53890  23.492  13.137  12.067
89958W        W53891  36.466  40.373  12.557
89959W        W53892  42.914  12.618  11.586
89960W        W53893  17.080  20.123  13.879
89961W        W53894   8.250  22.141   3.868
89962W        W53895  33.605  38.507   3.172
89963W        W53896  41.396  23.629  14.302
89964W        W53897  37.449   1.259  13.425
89965W        W53898  11.787  13.325  13.348
89966W        W53899  26.056  23.693  14.344
89967W        W53900  37.340  37.569  11.502
89968W        W53901  33.009  14.822   2.229
89969W        W53902  19.084  34.465  12.868
89970W        W53903  38.473  39.357  14.027
89971W        W53904  16.190   6.742  12.879
89972W        W53905   9.748  13.325  11.482
89973W        W53906   5.408  20.272  14.325
89974W        W53907  19.570  42.777  14.497
89975W        W53908  44.301   5.228  13.400
89976W        W53909  10.381  18.628   1.333
89977W        W53910  19.114  38.917   0.921
89978W        W53911  11.834  15.797   0.938
89979W        W53912   0.910  42.852   4.695
89980W        W53913  16.743  36.456   3.730
89981W        W53914   2.312  28.027   0.928
89982W        W53915  15.280  37.346   4.783
89983W        W53916   5.827  15.587   2.253
89984W        W53917  26.988  17.573  10.464
89985W        W53918   8.835  31.978   5.225
89986W        W53919  27.489  22.045  10.973
89987W        W53920  12.130  38.839  11.472
89988W        W53921  12.693   0.332   4.120
89989W        W53922  27.123  32.538  12.029
89990W        W53923  16.636   4.808  12.012
89991W        W53924  38.393  20.758   4.774
89992W        W53925  28.033   8.891   0.384
89993W        W53926  15.722  30.439   2.243
89994W        W53927  40.407  12.648  14.379
89995W        W53928  12.615  12.220  11.521
89996W        W53929  17.748  23.573  14.820
89997W        W53930  23.068  22.043   1.218
89998W        W53931  36.579  41.005   3.351
89999W        W53932  31.430  35.432   0.743
90000W        W53933   2.316  36.062   1.235
90001W        W53934  22.211   0.772   0.288
90002W        W53935   4.369  38.370   4.216
90003W        W53936  33.494   8.396  14.790
90004W        W53937  27.043  17.727  12.919
90005W        W53938  14.260  34.531   0.340
90006W        W53939  26.985  24.094   1.703
90007W        W53940  33.613  19.185  10.605
90008W        W53941  38.849  17.641  11.019
90009W        W53942   1.943  24.624  13.796
90010W        W53943   7.301   0.866   2.813
90011W        W53944  40.797  22.244   0.770
90012W        W53945  31.402  28.458   0.816
90013W        W53946  19.765  32.552   0.444
90014W        W53947  10.784  44.356  13.373
90015W        W53948  43.377  39.447  10.568
90016W        W53949  30.034  33.431  12.912
90017W        W53950   6.398  31.085   3.863
90018W        W53951   0.388  31.603  11.412
90019W        W53952  44.356  44.438  10.538
90020W        W53953  13.346  29.542  13.022
90021W        W53954   9.849  13.177   2.854
90022W        W53955  26.961  16.176   2.319
90023W        W53956  21.121  24.719  13.528
90024W        W53957  33.499  19.698  13.888
90025W        W53958   5.208  40.027   1.785
90026W        W53959   4.283  35.890   4.765
90027W        W53960  11.752  37.555  13.514
90028W        W53961   8.160  27.991   3.249
90029W        W53962  23.157  43.980  12.012
90030W        W53963  39.394  16.628   2.376
90031W        W53964  27.543  32.446   0.845
90032W        W53965  35.064  18.109  11.520
90033W        W53966  21.726  32.635   3.196
90034W        W53967  38.963  17.708  12.396
90035W        W53968  27.600   8.799  13.508
90036W        W53969  27.080   3.709   4.173
90037W        W53970  14.309   6.783  13.849
90038W        W53971   3.411  12.173  13.035
90039W        W53972  35.425   9.176  14.320
90040W        W53973  39.048  28.134  11.389
90041W        W53974  20.100  41.393   0.785
90042W        W53975   5.315  21.214  10.617
90043W        W53976  37.984   2.799   0.271
90044W        W53977  30.550  42.381  11.907
90045W        W53978   7.687   7.239  10.564
90046W        W53979  19.630  29.641   4.223
90047W        W53980  41.379  26.654   1.424
90048W        W53981  32.001  23.701   1.907
90049W        W53982  22.501  13.763  12.856
90050W        W53983  29.135  29.948   3.725
90051W        W53984  22.169   5.195  11.590
90052W        W53985   3.306  10.359  14.804
90053W        W53986  15.799   5.809  11.981
90054W        W53987  25.006  40.351   0.954
90055W        W53988  26.144  23.044   1.223
90056W        W53989  35.911  27.965   4.602
90057W        W53990  14.680  31.109  13.476
90058W        W53991  24.482  31.060  12.486
90059W        W53992  28.491  27.569  14.512
90060W        W53993   7.853   0.934   4.330
90061W        W53994   7.285  31.958   5.269
90062W        W53995  30.526  18.677  12.827
90063W        W53996  32.506  10.234   0.290
90064W        W53997  37.948  43.495   4.200
90065W        W53998   5.690  30.100  14.896
90066W        W53999   5.315  16.637  11.901
90067W        W54000  25.161  11.685  12.952
90068W        W54001  15.152  40.916  14.019
90069W        W54002  16.165   5.772   5.666
90070W        W54003  15.701  25.681  14.886
90071W        W54004  27.527   9.172   3.845
90072W        W54005  10.335  27.986  14.779
90073W        W54006  42.363  27.948  10.487
90074W        W54007  32.486   5.774   3.711
90075W        W54008  23.728   6.910   3.653
90076W        W54009   8.316  18.155   2.693
90077W        W54010  43.509  29.040   2.831
90078W        W54011  35.887  20.710  13.925
90079W        W54012  29.955  22.239   4.622
90080W        W54013  17.558   0.848  11.050
90081W        W54014  43.814  43.925  10.989
90082W        W54015  21.024   1.292  11.426
90083W        W54016   1.934  32.617  11.488
90084W        W54017  13.189   7.393  13.493
90085W        W54018  38.376  21.209   1.787
90086W        W54019  27.467  34.048   4.697
90087W        W54020  33.424  20.143  14.478
90088W        W54021  15.132   3.787  12.364
90089W        W54022  20.042  32.008  14.326
90090W        W54023  33.091  31.135  12.880
90091W        W54024   5.313  40.812  10.590
90092W        W54025  39.406   9.690  14.906
90093W        W54026  20.686   1.257   3.733
90094W        W54027  28.183  37.082   3.327
90095W        W54028   1.381  23.205  14.801
90096W        W54029  40.801  37.897   0.866
90097W        W54030  37.967  36.490  12.572
90098W        W54031  35.073  21.728  14.448
90099W        W54032  15.215   0.880  12.376
90100W        W54033  37.477  24.141   5.143
90101W        W54034  16.209  18.711  14.484
90102W        W54035  26.020  18.609   0.403
90103W        W54036  11.131  37.015   4.620
90104W        W54037  31.124   5.369  12.379
90105W        W54038  37.542  32.973   4.197
90106W        W54039  37.485  21.244  12.895
90107W        W54040  19.762  40.340   0.294
90108W        W54041  38.511  20.116  14.966
90109W        W54042  32.438  29.562  12.889
90110W        W54043  43.427  15.090   4.790
90111W        W54044  13.734   9.691   3.350
90112W        W54045   5.423  28.532  11.937
90113W        W54046  44.928  19.622   3.686
90114W        W54047  24.014   8.267  11.552
90115W        W54048  11.767  10.758  10.014
90116W        W54049   3.331  30.575   0.765
90117W        W54050  12.236   1.955  13.931
90118W        W54051  11.195  30.078   2.368
90119W        W54052  30.127  33.955  14.848
90120W        W54053  29.472  29.045   0.352
90121W        W54054  29.499  35.415  12.893
90122W        W54055   1.377  12.352  10.982
90123W        W54056   6.369  35.937   0.843
90124W        W54057  31.414  31.084   4.151
90125W        W54058  37.040  43.879  13.063
90126W        W54059   5.219  22.637  11.871
90127W        W54060  41.843  38.042  11.567
90128W        W54061  14.645   3.288   0.258
90129W        W54062  27.984   5.829   4.216
90130W        W54063  20.171  35.981   2.313
90131W        W54064  44.940   9.255  11.124
90132W        W54065  32.937  33.448   2.698
90133W        W54066  13.294  21.198   0.962
90134W        W54067   0.742  36.528   3.633
90135W        W54068   5.821  28.618  10.468
90136W        W54069   4.786  25.603   4.693
90137W        W54070   8.692   1.302   3.280
90138W        W54071  28.469  31.412   2.232
90139W        W54072  10.736  41.936  11.012
90140W        W54073  34.458  13.290   4.764
90141W        W54074   4.215   0.451   4.749
90142W        W54075  35.900  38.932   2.325
90143W        W54076  29.059   7.272  11.530
90144W        W54077  11.757  15.271  11.926
90145W        W54078  44.454  31.411   4.331
90146W        W54079  12.185  43.854   0.891
90147W        W54080  42.944  21.143  11.924
90148W        W54081  35.031  41.386  13.985
90149W        W54082   7.830  41.886  10.938
90150W        W54083  13.763   1.794  11.920
90151W        W54084  38.833  38.482   3.214
90152W        W54085  21.045  36.054   4.714
90153W        W54086   1.811  39.357  12.827
90154W        W54087  23.493  24.072  14.441
90155W        W54088  29.006  32.636  12.044
90156W        W54089  17.166  26.695  11.119
90157W        W54090  27.046  38.848   3.199
90158W        W54091  38.490  25.484   4.750
90159W        W54092  35.940  41.826  10.511
90160W        W54093  12.655  40.960  13.946
90161W        W54094  27.669   3.312   1.809
90162W        W54095  20.169  43.449   4.686
90163W        W54096  21.696   8.810  10.155
90164W        W54097   4.829   2.918   5.169
90165W        W54098  21.213  39.992  14.871
90166W        W54099  42.854  31.061   3.362
90167W        W54100  28.666  14.198   2.748
90168W        W54101  28.965  17.163   4.614
90169W        W54102  42.847  23.500   0.839
90170W        W54103   4.287  39.832  14.764
90171W        W54104  18.662  34.931   1.399
90172W        W54105   0.272  10.315  12.940
90173W        W54106   0.347   0.258  12.528
90174W        W54107  37.866  41.876   2.672
90175W        W54108  14.325  10.816  14.289
90176W        W54109  38.540  23.154   0.820
90177W        W54110  39.873  25.702   1.762
90178W        W54111  10.378  37.057  12.445
90179W        W54112   0.919  26.582   3.244
90180W        W54113  43.822  27.449  12.825
90181W        W54114  11.314  24.143  11.559
90182W        W54115  20.096  33.930   3.743
90183W        W54116  43.433  22.150   4.122
90184W        W54117  21.262  30.453   1.247
90185W        W54118   8.383  30.612   1.765
90186W        W54119  33.397   7.285   4.225
90187W        W54120  13.610  18.269   1.381
90188W        W54121   0.884   9.378   1.342
90189W        W54122  32.465  18.214   3.691
90190W        W54123  44.478   3.321   4.620
90191W        W54124  20.581  33.575   0.910
90192W        W54125  25.117  42.838   5.125
90193W        W54126  41.903  42.833  11.007
90194W        W54127  35.575  33.987  13.464
90195W        W54128  41.425  30.133  13.498
90196W        W54129  25.540  26.008  14.275
90197W        W54130   5.705  32.635   4.703
90198W        W54131  34.524   2.433  14.275
90199W        W54132  11.128   4.920   2.346
90200W        W54133   7.203  27.498   0.816
90201W        W54134  33.945  41.328  10.907
90202W        W54135   8.199  13.295  14.300
90203W        W54136   5.912   0.442   0.428
90204W        W54137  33.991  39.035  11.599
90205W        W54138  29.942  27.685  14.325
90206W        W54139  24.701  41.018   2.363
90207W        W54140   4.417  21.051  12.525
90208W        W54141  33.950   1.864   4.838
90209W        W54142   3.778  14.652   0.847
90210W        W54143  35.509  38.952   1.701
90211W        W54144   1.911  33.518   1.285
90212W        W54145  33.389  35.991  13.883
90213W        W54146  11.857  20.049   3.284
90214W        W54147   9.875   7.895  10.484
90215W        W54148  40.836  43.430   4.323
90216W        W54149  42.302  10.841   4.765
90217W        W54150   8.671   4.356  10.435
90218W        W54151  26.695  19.135   1.860
90219W        W54152  24.152  35.063   0.745
90220W        W54153  12.193  35.435   1.853
90221W        W54154  24.673  39.953  14.381
90222W        W54155  36.978  40.052  10.963
90223W        W54156  27.520   4.288  12.504
90224W        W54157  26.131   5.266   1.812
90225W        W54158   8.866   7.297  10.523
90226W        W54159  37.434  32.459   0.822
90227W        W54160  35.574   1.320  12.353
90228W        W54161  25.621   2.446  11.457
90229W        W54162  36.983  44.282   2.738
90230W        W54163  30.623  15.278  11.110
90231W        W54164  44.804  37.481   3.729
90232W        W54165  28.150   4.818   4.189
90233W        W54166  13.796   9.313  11.875
90234W        W54167  15.609   3.439  10.082
90235W        W54168   2.898   7.757   0.455
90236W        W54169  16.792  26.500   0.903
90237W        W54170  18.713   8.405   0.391
90238W        W54171  34.084  10.700   3.844
90239W        W54172   1.971  22.559   1.320
90240W        W54173  30.116   2.926  10.411
90241W        W54174   5.299   8.394   0.465
90242W        W54175  40.520  19.590   4.218
90243W        W54176  13.179  44.000  12.458
90244W        W54177  21.122  34.044   0.804
90245W        W54178  35.532  23.609  11.519
90246W        W54179   2.774   6.915  11.890
90247W        W54180  23.586  23.124   1.860
90248W        W54181  33.570   9.857  13.961
90249W        W54182  42.295   2.733   4.753
90250W        W54183  25.990  25.987   4.791
90251W        W54184  18.546  15.228   4.123
90252W        W54185  13.762  14.655   1.879
90253W        W54186   8.390  33.511  13.331
90254W        W54187  19.224  39.355   3.329
90255W        W54188  43.842  30.580  12.525
90256W        W54189  15.587  39.338  13.456
90257W        W54190   2.866  15.297   2.684
90258W        W54191  14.284   1.282   4.265
90259W        W54192  35.478  29.153  13.884
90260W        W54193  14.266  33.915  13.488
90261W        W54194  44.781  16.728  13.326
90262W        W54195  15.263  11.710   0.805
90263W        W54196  35.992  26.625   2.317
90264W        W54197  13.207  30.139   4.815
90265W        W54198  38.516  21.058  13.311
90266W        W54199   2.404  31.492  11.475
90267W        W54200   3.297   2.964   2.205
90268W        W54201  40.803  25.669   2.787
90269W        W54202  28.499  12.824   0.779
90270W        W54203  20.732   6.816   4.734
90271W        W54204  20.643  22.106   3.387
90272W        W54205   2.377   9.670  14.864
90273W        W54206  29.985  14.598  12.576
90274W        W54207  30.554  44.869  14.401
90275W        W54208  19.581  24.525  12.093
90276W        W54209  23.588  15.706   4.669
90277W        W54210  36.580   2.400  13.063
90278W        W54211  26.960  34.594  11.024
90279W        W54212   6.741  31.975  11.950
90280W        W54213  43.795  28.964   0.958
90281W        W54214  24.201  21.056   2.671
90282W        W54215  15.154  39.867  13.806
90283W        W54216  15.737  25.964   2.205
90284W        W54217  12.224  14.339  11.081
90285W        W54218  13.735  25.035   4.746
90286W        W54219  11.648  40.314   0.349
90287W        W54220  28.002  23.020  11.942
90288W        W54221   0.283  37.918  12.407
90289W        W54222   6.317  37.520   9.933
90290W        W54223  31.059  38.864   5.120
90291W        W54224  13.141  30.630   3.859
90292W        W54225   2.426  17.098   0.808
90293W        W54226  34.553  38.011   4.169
90294W        W54227  30.507   0.958   0.311
90295W        W54228  25.119  22.010  10.946
90296W        W54229  33.119  17.730   0.768
90297W        W54230  24.494  39.403  10.903
90298W        W54231  44.893  18.690  13.834
90299W        W54232   3.343  40.948   4.284
90300W        W54233  39.063   5.873  11.581
90301W        W54234  44.772   1.429   1.935
90302W        W54235  24.009  34.545   3.153
90303W        W54236  18.576   8.336   3.868
90304W        W54237  44.288   5.275  13.793
90305W        W54238  14.246   5.290   1.409
90306W        W54239   8.855  18.226   1.881
90307W        W54240  38.535  30.515   3.702
90308W        W54241  34.406   3.277   3.370
90309W        W54242  24.176  42.428  10.953
90310W        W54243  18.166  41.531   5.183
90311W        W54244  35.092  10.847  12.997
90312W        W54245  11.677  27.658   1.711
90313W        W54246  27.995  23.111  13.940
90314W        W54247  33.431   8.836   2.738
90315W        W54248  26.182  20.042   0.291
90316W        W54249  18.132  20.056   1.933
90317W        W54250  29.576  29.997  12.533
90318W        W54251  30.503   9.195  13.837
90319W        W54252   6.218   9.184  13.538
90320W        W54253  41.435  39.869  10.556
90321W        W54254   2.801  19.285   3.172
90322W        W54255  11.720  32.549   0.297
90323W        W54256  25.626  44.311  12.007
90324W        W54257  21.618  23.731   0.868
90325W        W54258   6.254  23.129  13.985
90326W        W54259  20.265  18.580  10.483
90327W        W54260  15.322  38.907  14.339
90328W        W54261  18.182   0.403  14.477
90329W        W54262  39.437  30.448  11.611
90330W        W54263  35.398  13.288   1.765
90331W        W54264  26.584  12.306  11.501
90332W        W54265   8.841  24.166   1.845
90333W        W54266   3.299   1.895  14.415
90334W        W54267   3.326  22.119   2.237
90335W        W54268  35.988   6.331  11.991
90336W        W54269   0.401  12.198  10.951
90337W        W54270  15.752   2.739  11.469
90338W        W54271  14.202   9.319  13.336
90339W        W54272   0.460  30.058  10.471
90340W        W54273  25.090  16.683  10.570
90341W        W54274  18.200  38.950   3.354
90342W        W54275  13.201  44.872   2.374
90343W        W54276   4.413   3.716  10.134
90344W        W54277   5.713  33.053   2.272
90345W        W54278  44.475  40.807   1.383
90346W        W54279  34.905  39.930   3.735
90347W        W54280  10.235  13.771  14.346
90348W        W54281  40.901  21.260  10.511
90349W        W54282   6.366  19.233  13.033
90350W        W54283  10.730   7.668   0.402
90351W        W54284   5.813  38.428  10.579
90352W        W54285  35.018  36.505   1.292
90353W        W54286  21.580   8.669  12.347
90354W        W54287   4.382  14.681  10.923
90355W        W54288   0.349  29.474  14.951
90356W        W54289   5.872   6.379   2.867
90357W        W54290   8.317  18.100   0.959
90358W        W54291  18.135  15.293   5.257
90359W        W54292  18.118   9.777  10.462
90360W        W54293  26.623   7.868   0.353
90361W        W54294  12.193  26.684  12.556
90362W        W54295  25.106  25.660  13.387
90363W        W54296  39.990  41.502   4.637
90364W        W54297  39.511  27.600   0.383
90365W        W54298   9.189  36.472   4.838
90366W        W54299   1.263  26.135  14.938
90367W        W54300   4.326  11.182   3.266
90368W        W54301  13.348   6.216   1.290
90369W        W54302  35.015  14.602  11.394
90370W        W54303  21.582  33.020  12.514
90371W        W54304   9.182   4.755   2.244
90372W        W54305   1.377   9.686  11.904
90373W        W54306  21.614  23.100   2.222
90374W        W54307  10.175  42.470  10.922
90375W        W54308   2.835   7.834  12.488
90376W        W54309   8.863   4.444  13.972
90377W        W54310  16.744  10.289  13.969
90378W        W54311  32.922  32.927   3.221
90379W        W54312  10.348   2.949  13.808
90380W        W54313  11.353  25.573  14.809
90381W        W54314  17.238  30.565   1.330
90382W        W54315  12.793  34.468   1.372
90383W        W54316  42.938  23.521  14.334
90384W        W54317  17.717   1.352   2.771
90385W        W54318  40.396  24.103  12.053
90386W        W54319  19.714  12.753  13.984
90387W        W54320  13.816  25.637  13.054
90388W        W54321  11.255  30.908   1.729
90389W        W54322  10.765  32.055  12.961
90390W        W54323   0.856  11.625  14.503
90391W        W54324  21.186  27.157   1.355
90392W        W54325  21.546  44.833   4.185
90393W        W54326   3.944   2.266  10.532
90394W        W54327  13.200   4.718   3.158
90395W        W54328  43.443  15.131  11.496
90396W        W54329  44.310   0.424   3.259
90397W        W54330  35.102  25.573  12.060
90398W        W54331   6.920  31.623   2.383
90399W        W54332  25.152   8.805   3.723
90400W        W54333  17.657  23.651  14.388
90401W        W54334   3.334   8.766  12.012
90402W        W54335   4.431  20.655   1.869
90403W        W54336  39.541  18.648  13.502
90404W        W54337  13.227  34.477   2.824
90405W        W54338  24.123   1.853   2.843
90406W        W54339  26.597   5.699  14.800
90407W        W54340   0.974   2.281   2.820
90408W        W54341   7.689  23.172  10.998
90409W        W54342  33.457   1.811   0.325
90410W        W54343  38.443   4.399   3.256
90411W        W54344   7.720   0.894  13.064
90412W        W54345   2.740   1.299  14.372
90413W        W54346  13.237   5.394   3.331
90414W        W54347   5.828   3.852   4.310
90415W        W54348  14.159  19.553  10.614
90416W        W54349  10.217  43.423   1.846
90417W        W54350  13.146  43.276  11.466
90418W        W54351  26.146  18.600  11.042
90419W        W54352  30.034   7.218   1.381
90420W        W54353  41.907  22.023   1.234
90421W        W54354  26.668  27.050   3.850
90422W        W54355  15.823  30.071   2.798
90423W        W54356  39.962   3.282   0.445
90424W        W54357  11.799  30.957   4.779
90425W        W54358  30.969  22.066  14.505
90426W        W54359  17.653  14.227   2.715
90427W        W54360  14.779  24.555   4.150
90428W        W54361  38.350   9.831  13.491
90429W        W54362  36.393  30.162  12.871
90430W        W54363  32.107  44.813  13.530
90431W        W54364  17.745  15.637   1.233
90432W        W54365   5.335   7.345  11.578
90433W        W54366  15.772  33.463   4.217
90434W        W54367  40.021   3.781   1.346
90435W        W54368  24.659   4.296   0.936
90436W        W54369   9.792  12.225   3.807
90437W        W54370  33.032   7.353   4.707
90438W        W54371  32.545  40.372   0.338
90439W        W54372   1.871  15.232  13.062
90440W        W54373  37.346   5.770  10.974
90441W        W54374  16.232  31.904  11.557
90442W        W54375   5.294   6.773  11.869
90443W        W54376  37.455   9.870  11.856
90444W        W54377  25.176  30.924   0.338
90445W        W54378  37.038  18.056  10.417
90446W        W54379  34.421  15.293  11.891
90447W        W54380  31.500   9.799   0.333
90448W        W54381  37.839  40.362   1.448
90449W        W54382   5.804   4.345  13.494
90450W        W54383   9.156  41.398  11.938
90451W        W54384  25.031  44.891   0.404
90452W        W54385  22.142  36.448   2.246
90453W        W54386  14.153  39.963  12.071
90454W        W54387  34.113  43.946   1.920
90455W        W54388  37.363  32.034  10.161
90456W        W54389  26.131  37.994  13.485
90457W        W54390   2.449  38.372  13.459
90458W        W54391  10.672  35.001   3.286
90459W        W54392  10.723   1.918  14.374
90460W        W54393  12.678  15.310   0.247
90461W        W54394  16.171  10.323   4.605
90462W        W54395  22.207   4.393   3.799
90463W        W54396   6.267  10.777  14.379
90464W        W54397   8.260   1.351  10.953
90465W        W54398  32.627  24.525  14.308
90466W        W54399   8.816  26.555  11.431
90467W        W54400   9.730   5.852   1.887
90468W        W54401  23.137   4.339  12.947
90469W        W54402  13.771  15.759  13.963
90470W        W54403   4.368   4.398  13.871
90471W        W54404  35.402  15.750   1.259
90472W        W54405  32.006  38.905   0.900
90473W        W54406  11.818   2.373   1.783
90474W        W54407  14.240  42.990   4.193
90475W        W54408  22.056  29.550   4.707
90476W        W54409  42.775  28.131  14.449
90477W        W54410  14.631  10.310  12.538
90478W        W54411  34.999  30.547   3.743
90479W        W54412   0.433  35.552   0.430
90480W        W54413  39.948  36.348   3.850
90481W        W54414   7.770  20.641  14.920
90482W        W54415  10.725  21.075  14.964
90483W        W54416   2.830   0.831  14.506
90484W        W54417  17.652  38.508   2.882
90485W        W54418  16.300   6.226  14.015
90486W        W54419  31.931  25.708   3.328
90487W        W54420   6.826   3.455  14.026
90488W        W54421  12.743  25.535  11.438
90489W        W54422  16.638  37.428   0.794
90490W        W54423   9.254  31.485   1.354
90491W        W54424  35.064   3.449   2.266
90492W        W54425  34.508   5.899   2.327
90493W        W54426  23.079   2.447  14.780
90494W        W54427  42.383  31.407  10.472
90495W        W54428  18.186  24.128   2.261
90496W        W54429  27.584  19.705   3.370
90497W        W54430  22.103  41.529  13.883
90498W        W54431   3.836   8.659  12.491
90499W        W54432   9.261  21.122   5.302
90500W        W54433  12.704   3.805   4.663
90501W        W54434   2.850  22.680  11.032
90502W        W54435  17.699  33.391  14.818
90503W        W54436  30.439  34.561   1.244
90504W        W54437   4.424  23.032  11.410
90505W        W54438  13.601  37.383   2.707
90506W        W54439   4.295  43.842  13.874
90507W        W54440  14.752   4.399  13.823
90508W        W54441  38.382  29.019  14.784
90509W        W54442  34.039   2.265  12.356
90510W        W54443  43.943  32.391   3.284
90511W        W54444   4.938  11.227  12.533
90512W        W54445   4.394  21.643   1.866
90513W        W54446  31.490  42.487   1.257
90514W        W54447   6.718  15.646   2.212
90515W        W54448  28.157  17.307  12.492
90516W        W54449   8.816  44.762   1.293
90517W        W54450  10.305   7.860   3.644
90518W        W54451  21.225  29.955  13.987
90519W        W54452  17.790   3.951   3.183
90520W        W54453  35.432  12.710  12.539
90521W        W54454  27.192   9.211  12.489
90522W        W54455  39.997  12.763  12.362
90523W        W54456  32.903  15.579  12.033
90524W        W54457  42.505  39.360  14.859
90525W        W54458  10.175  39.406   1.873
90526W        W54459  13.677  25.109  11.538
90527W        W54460  13.629  14.742  12.477
90528W        W54461  38.425  11.862   2.864
90529W        W54462   9.207  14.110   0.756
90530W        W54463  31.929  45.000  14.784
90531W        W54464  27.610  26.530   0.874
90532W        W54465  19.058  19.248  13.505
90533W        W54466  18.188  29.169   3.150
90534W        W54467  34.610  11.798  12.897
90535W        W54468  38.069   3.862  10.518
90536W        W54469  43.929  18.215   2.247
90537W        W54470  23.124  22.082   2.246
90538W        W54471   2.424  31.420  11.075
90539W        W54472  39.466  20.626   0.858
90540W        W54473  35.033  44.379  10.097
90541W        W54474  17.799  27.523   0.286
90542W        W54475  29.938   3.251   2.733
90543W        W54476   7.368   6.812  14.313
90544W        W54477  18.194   6.288  13.403
90545W        W54478   8.378  38.510   0.258
90546W        W54479  18.610  10.271   1.877
90547W        W54480   8.406  14.626  12.579
90548W        W54481  42.913  31.593   3.296
90549W        W54482  24.072  36.068   1.801
90550W        W54483  32.394  38.522  12.054
90551W        W54484  40.895  31.032   0.867
90552W        W54485  32.120  17.765  11.501
90553W        W54486   1.862  19.095  10.903
90554W        W54487  21.167   2.409  14.331
90555W        W54488  11.694  17.155  13.404
90556W        W54489  36.576  10.167  14.306
90557W        W54490  19.685  38.555  13.461
90558W        W54491  31.994  34.114   1.855
90559W        W54492  16.195  11.182  12.988
90560W        W54493  15.163  17.715  12.008
90561W        W54494  37.437  11.220  10.620
90562W        W54495   9.819  40.495  13.533
90563W        W54496   4.910  36.959   3.833
90564W        W54497  38.412  26.180   4.817
90565W        W54498  24.038  20.729  14.481
90566W        W54499   9.866  13.763  12.853
90567W        W54500  40.927  13.177  14.777
90568W        W54501  12.805   5.239  12.438
90569W        W54502   3.236  14.285  13.432
90570W        W54503  44.823  42.437  10.908
90571W        W54504  27.546  24.646  11.023
90572W        W54505  12.247  32.045   3.704
90573W        W54506  31.972   1.391  11.125
90574W        W54507  40.444   3.831   2.883
90575W        W54508  11.249  29.173  11.072
90576W        W54509   4.868  26.496   3.667
90577W        W54510  15.238  12.135   1.386
90578W        W54511  40.883   6.403   1.895
90579W        W54512  34.875   4.881   2.799
90580W        W54513  34.401  11.747  13.827
90581W        W54514  33.963   4.206   1.411
90582W        W54515  22.534  33.049  13.889
90583W        W54516  31.429  18.779  12.879
90584W        W54517  25.621  42.789   1.776
90585W        W54518  11.248  36.007   1.375
90586W        W54519   0.380  37.870   4.671
90587W        W54520  22.678  22.238  14.333
90588W        W54521   9.669   6.766   3.660
90589W        W54522   6.688  43.450   1.383
90590W        W54523  28.945  11.777   4.693
90591W        W54524  29.473  43.371  12.501
90592W        W54525  18.622  29.031  11.963
90593W        W54526  30.914  29.444   1.816
90594W        W54527   8.373  34.458   4.223
90595W        W54528  14.097   5.436  14.925
90596W        W54529  31.579  17.299  12.494
90597W        W54530  23.515   7.216   1.707
90598W        W54531  33.919  44.007   0.261
90599W        W54532  40.494   7.198  10.936
90600W        W54533  16.149   7.378  13.399
90601W        W54534   2.825  44.871   0.905
90602W        W54535  11.280   7.787  14.987
90603W        W54536  19.549  29.669  11.988
90604W        W54537  23.733  37.455   3.173
90605W        W54538  20.198  13.285  14.514
90606W        W54539  28.987  17.168  14.855
90607W        W54540  32.581  34.912   4.804
90608W        W54541  13.259  30.625  11.598
90609W        W54542  31.986  15.744   4.161
90610W        W54543  15.270  36.376   4.223
90611W        W54544  38.880  43.917   4.732
90612W        W54545  11.717  42.969  13.955
90613W        W54546  33.950  39.455  11.990
90614W        W54547  38.828  44.308   1.886
90615W        W54548  31.982  21.677   4.196
90616W        W54549  11.798  29.933   1.709
90617W        W54550  38.476  21.229   4.775
90618W        W54551  16.275  42.281  12.433
90619W        W54552  44.374  35.457   9.923
90620W        W54553  35.462   5.690   3.803
90621W        W54554  34.430  25.051  13.020
90622W        W54555  32.619  41.958   1.766
90623W        W54556  30.968  43.492  14.422
90624W        W54557  14.611  12.320   4.286
90625W        W54558   7.339  19.599  13.026
90626W        W54559  27.985  43.814   0.809
90627W        W54560  21.068   3.831  12.446
90628W        W54561  12.844  30.011   1.927
90629W        W54562  25.176  26.601  11.111
90630W        W54563   4.863  26.572  10.964
90631W        W54564   1.836   2.776   3.321
90632W        W54565  31.956   7.718   0.251
90633W        W54566   3.314  18.062   0.367
90634W        W54567  29.973  24.602   1.279
90635W        W54568  27.516  16.684  10.406
90636W        W54569  28.509  23.101  13.516
90637W        W54570  32.968  23.610   0.768
90638W        W54571  38.059  22.093   3.843
90639W        W54572  22.083  37.440  13.900
90640W        W54573  25.643  33.441   2.800
90641W        W54574  16.309  23.045  13.864
90642W        W54575  37.853   3.262  14.434
90643W        W54576  12.638  31.011  13.009
90644W        W54577  22.692  10.842   0.409
90645W        W54578  35.856  39.833  13.412
90646W        W54579  35.562  22.245  12.439
90647W        W54580  10.335  31.415  14.988
90648W        W54581  34.079  16.092  12.096
90649W        W54582  30.598  22.534  12.416
90650W        W54583  13.229  16.706   1.340
90651W        W54584  35.364  13.668   1.320
90652W        W54585  42.507   9.236  10.580
90653W        W54586  22.128   7.839   0.770
90654W        W54587  20.199  16.733  10.412
90655W        W54588  30.069  42.414  11.937
90656W        W54589  11.373  39.449   2.179
90657W        W54590   7.267  12.153  14.339
90658W        W54591  19.633  33.575   1.418
90659W        W54592  17.671  40.861   3.835
90660W        W54593  33.913  44.934   0.869
90661W        W54594  40.815  10.796  10.942
90662W        W54595  15.127  20.207   0.348
90663W        W54596  35.950  22.664   2.349
90664W        W54597  39.974  35.476   4.352
90665W        W54598  35.078  20.112   0.340
90666W        W54599  21.192  30.483   3.316
90667W        W54600  43.796  32.984   1.790
90668W        W54601  33.921  39.971   0.393
90669W        W54602   6.186  42.871  12.861
90670W        W54603  42.846  26.621  14.485
90671W        W54604  17.799  30.068   3.793
90672W        W54605   3.781  26.134  10.965
90673W        W54606  11.654  34.100   4.827
90674W        W54607  34.116   4.253  13.822
90675W        W54608  35.568  39.063   0.935
90676W        W54609  43.364  42.515   2.193
90677W        W54610  31.935  39.394  13.887
90678W        W54611   9.800   7.317   4.777
90679W        W54612  17.567  23.188   3.766
90680W        W54613  25.576  12.661  11.108
90681W        W54614  19.249  39.006  11.967
90682W        W54615   8.760   2.939  11.996
90683W        W54616   6.824   7.366  14.848
90684W        W54617  39.341  43.828   4.253
90685W        W54618  41.456  28.951   0.925
90686W        W54619   0.351  33.069   3.673
90687W        W54620  21.208  28.994  12.517
90688W        W54621  41.460  10.242  10.046
90689W        W54622  36.439   7.336   2.259
90690W        W54623  26.517  10.378   1.366
90691W        W54624  26.170  21.709  14.031
90692W        W54625  33.052  27.611  13.529
90693W        W54626  22.139  26.207   9.667
90694W        W54627  17.663  14.616  10.952
90695W        W54628  37.917  25.632   0.745
90696W        W54629   5.431  12.177  10.539
90697W        W54630  26.657   9.683  12.006
90698W        W54631  39.941  30.612   5.211
90699W        W54632  44.912  28.450   1.364
90700W        W54633  37.978  15.633   3.283
90701W        W54634   3.732  22.152   1.918
90702W        W54635  15.285  28.959  11.990
90703W        W54636  33.601  21.231  12.511
90704W        W54637  36.578  17.269   1.284
90705W        W54638  44.452  44.287  11.988
90706W        W54639  28.154   2.735   1.403
90707W        W54640   6.326  28.152  13.037
90708W        W54641  37.561  41.436  12.050
90709W        W54642  21.037  30.164  11.897
90710W        W54643  43.487  30.590  13.361
90711W        W54644  38.413  34.951   4.792
90712W        W54645  13.738   1.408   0.373
90713W        W54646  36.922  32.592  11.529
90714W        W54647  21.101   6.376  11.533
90715W        W54648  10.299  40.979  14.436
90716W        W54649  39.032   8.774   3.156
90717W        W54650  35.925  27.129  10.945
90718W        W54651  30.646  43.019   1.856
90719W        W54652  25.202  12.282  11.567
90720W        W54653  26.090  37.369   0.425
90721W        W54654  40.030  39.890  11.414
90722W        W54655  41.806   3.756  12.870
90723W        W54656  28.630  31.139  12.484
90724W        W54657  33.593   2.420   3.376
90725W        W54658  14.654  12.617  11.414
90726W        W54659   5.402   5.750  13.020
90727W        W54660  34.045  10.282   3.358
90728W        W54661  29.512  42.867   2.832
90729W        W54662  41.461  38.949   0.958
90730W        W54663  12.619  26.007   3.835
90731W        W54664  18.142  31.000  14.797
90732W        W54665   1.840  32.400   3.218
90733W        W54666  15.174  35.565  11.550
90734W        W54667  29.553  42.913   3.729
90735W        W54668   8.851  28.460  13.813
90736W        W54669  17.673  15.670  12.458
90737W        W54670  35.558  35.993  11.562
90738W        W54671   9.203  42.366   0.866
90739W        W54672  18.571  17.694  11.882
90740W        W54673  39.514  43.776   1.920
90741W        W54674  19.568  34.406  10.417
90742W        W54675  11.155  14.609   2.674
90743W        W54676  10.758  33.526  10.037
90744W        W54677   0.845  38.974  14.420
90745W        W54678  42.434  30.005  14.308
90746W        W54679  10.657  17.596   4.603
90747W        W54680  28.451  25.124   2.395
90748W        W54681  41.872  31.996   1.781
90749W        W54682   4.317  30.511   2.328
90750W        W54683  41.834   8.382   1.880
90751W        W54684  43.867  14.290   1.220
90752W        W54685  16.607  24.227   0.904
90753W        W54686  15.680  44.428  12.527
90754W        W54687  32.552   2.451  11.972
90755W        W54688  25.990  44.816   1.722
90756W        W54689   9.367   8.809   3.818
90757W        W54690  15.206  13.726   0.813
90758W        W54691   2.904  16.101   4.654
90759W        W54692   7.328  42.928  13.821
90760W        W54693  21.030  41.516   3.747
90761W        W54694   0.410  32.423  11.540
90762W        W54695  18.051  37.956  14.436
90763W        W54696  19.776  28.945   5.179
90764W        W54697  33.480   4.357  10.452
90765W        W54698  36.390  19.656   2.267
90766W        W54699   1.272  34.555  10.608
90767W        W54700  20.592  15.314   2.294
90768W        W54701  19.088  12.141  12.404
90769W        W54702   9.766  10.833   4.221
90770W        W54703  29.037  33.052   2.747
90771W        W54704  16.319  13.269   3.231
90772W        W54705   4.307   4.341  12.431
90773W        W54706  23.592  18.296   2.412
90774W        W54707  42.851  22.009  10.575
90775W        W54708  33.565  24.524   4.719
90776W        W54709  40.014   9.308   4.261
90777W        W54710  27.994  41.394   1.906
90778W        W54711  28.615  35.089   4.214
90779W        W54712   9.802  14.658  11.061
90780W        W54713   2.357  24.178  14.323
90781W        W54714  19.763  39.336  12.493
90782W        W54715  16.636  42.979  12.369
90783W        W54716   0.442  26.600   3.228
90784W        W54717  34.088  40.034  11.427
90785W        W54718   3.851  13.708   4.180
90786W        W54719   2.256   7.799  13.468
90787W        W54720  37.470  41.038  11.471
90788W        W54721  35.080  35.995   5.138
90789W        W54722  32.405  37.942  14.485
90790W        W54723  32.040  11.141   4.833
90791W        W54724  20.766  44.867  13.037
90792W        W54725   6.718  35.470   1.719
90793W        W54726  21.724   7.778  12.898
90794W        W54727  26.170  14.240  13.366
90795W        W54728  40.845   1.738   4.170
90796W        W54729  38.389  17.269   2.218
90797W        W54730  22.693  11.346  12.519
90798W        W54731  41.410  37.894  13.974
90799W        W54732  23.032  44.279  12.078
90800W        W54733  20.716  29.977  11.493
90801W        W54734  20.250   3.427  13.924
90802W        W54735  36.368  39.061  14.488
90803W        W54736  27.018  10.669  10.467
90804W        W54737  41.931  32.925   4.654
90805W        W54738  41.297  13.805  12.845
90806W        W54739   0.773  18.107  11.427
90807W        W54740  38.904  35.421   3.243
90808W        W54741  42.286   1.873  13.505
90809W        W54742  17.752   9.794  11.586
90810W        W54743  44.280  14.168  13.815
90811W        W54744  20.573   9.218  13.008
90812W        W54745   3.739  40.946   2.409
90813W        W54746   4.831  19.754  14.505
90814W        W54747   0.350  36.068   1.889
90815W        W54748  15.685  21.152   1.881
90816W        W54749  35.090  27.137  11.096
90817W        W54750  36.899  17.213   2.795
90818W        W54751  42.496  37.079   1.711
90819W        W54752  33.441  22.604  14.792
90820W        W54753  40.044  26.603  14.315
90821W        W54754  23.602  19.163  10.456
90822W        W54755   1.342  22.681  11.078
90823W        W54756  27.138   7.341   3.285
90824W        W54757  12.613  21.079   0.273
90825W        W54758  44.785  17.167   3.323
90826W        W54759  26.972   0.763  11.876
90827W        W54760  34.937  15.785  10.128
90828W        W54761  32.592  44.946   3.359
90829W        W54762  41.317  23.039  10.982
90830W        W54763  41.977   5.341  11.570
90831W        W54764   7.297  37.560  13.346
90832W        W54765   5.916  17.129   1.763
90833W        W54766  12.203  29.101   4.768
90834W        W54767   7.800   7.788  14.456
90835W        W54768  32.947  41.357  13.856
90836W        W54769  37.433  17.755   1.909
90837W        W54770  41.844   0.759  14.346
90838W        W54771  22.571   4.746   5.149
90839W        W54772   7.348  27.569  10.598
90840W        W54773   4.435  16.737   2.751
90841W        W54774  24.220  20.684   0.881
90842W        W54775   9.741   2.464   4.784
90843W        W54776   4.754  11.801  14.847
90844W        W54777   7.245  43.420  12.342
90845W        W54778   3.307  23.529  13.010
90846W        W54779  21.658  19.093  12.852
90847W        W54780   8.663   2.237   3.824
90848W        W54781  21.533  40.799   4.697
90849W        W54782  36.908  40.486  12.030
90850W        W54783  40.365  41.508  12.995
90851W        W54784   5.277  19.173   4.766
90852W        W54785  11.317  12.854  14.384
90853W        W54786  29.527   2.358  13.540
90854W        W54787  35.386  25.477   2.742
90855W        W54788  24.121   9.755  14.778
90856W        W54789  29.944  39.915   3.816
90857W        W54790  34.983  23.733   3.316
90858W        W54791  43.766  18.101   0.922
90859W        W54792  26.519   1.411  11.038
90860W        W54793   9.856  40.847  13.915
90861W        W54794  27.073  22.569  12.451
90862W        W54795  10.661  41.508   1.446
90863W        W54796  30.651   5.228  11.500
90864W        W54797  37.980   8.212   1.311
90865W        W54798  33.880  19.217   3.195
90866W        W54799  44.945  19.251   1.439
90867W        W54800  20.680  17.269  13.049
90868W        W54801  10.247  30.156   3.324
90869W        W54802  35.580  39.558  13.952
90870W        W54803  11.687  26.077   1.293
90871W        W54804  15.293  26.033  13.992
90872W        W54805  34.453  41.418   2.348
90873W        W54806  20.074   3.263   2.724
90874W        W54807  31.929  23.056  14.860
90875W        W54808   6.300  38.030  14.961
90876W        W54809   4.941  38.397   2.291
90877W        W54810   0.466  27.534  14.991
90878W        W54811  40.959  16.205   0.361
90879W        W54812  34.556  11.758   2.666
90880W        W54813  15.617  44.444  13.889
90881W        W54814  10.147  11.633  13.385
90882W        W54815  30.936  41.898  13.842
90883W        W54816  37.368  22.596   5.197
90884W        W54817  38.401  35.000   2.197
90885W        W54818  37.919  43.866   4.245
90886W        W54819   0.844   7.357  11.445
90887W        W54820  43.983  24.042  11.951
90888W        W54821   2.254  37.949   0.465
90889W        W54822  37.084  29.952  14.388
90890W        W54823  42.519  39.371  14.339
90891W        W54824  13.782   9.218   4.253
90892W        W54825  16.689  16.292   2.236
90893W        W54826  23.114   5.828   1.282
90894W        W54827  14.632   6.278  13.018
90895W        W54828  22.078  33.533   3.817
90896W        W54829  29.497  23.993  13.494
90897W        W54830   7.805  23.554   4.131
90898W        W54831  24.142  15.761   1.352
90899W        W54832   8.726  17.640  10.630
90900W        W54833   8.774  20.705  10.936
90901W        W54834  37.492  13.334   2.301
90902W        W54835  11.161  36.560   2.686
90903W        W54836  35.048  43.407   3.216
90904W        W54837  13.208  33.438  10.635
90905W        W54838   1.884  26.127   3.692
90906W        W54839   6.358  10.271  14.331
90907W        W54840  43.010  33.997   2.181
90908W        W54841   4.755  32.971   0.836
90909W        W54842  20.157   8.226  13.029
90910W        W54843  29.127  36.533  14.382
90911W        W54844   8.735  42.923   4.818
90912W        W54845  24.703  20.113  14.934
90913W        W54846  34.943  18.069   5.310
90914W        W54847  19.073   4.252  11.113
90915W        W54848  25.181   2.416   3.705
90916W        W54849  27.622   6.875  11.939
90917W        W54850  36.362  38.872  12.512
90918W        W54851  40.397  14.154   5.299
90919W        W54852   5.934  19.243   4.711
90920W        W54853  26.560  33.536   3.291
90921W        W54854  11.786  39.025  12.096
90922W        W54855  11.767  30.128   0.382
90923W        W54856   6.381  18.626  11.500
90924W        W54857  12.207  25.678  13.981
90925W        W54858   1.388  42.966  11.073
90926W        W54859  27.618   7.218  11.917
90927W        W54860  22.140  19.153  10.440
90928W        W54861  33.463   4.386   1.921
90929W        W54862   5.277  17.639  14.306
90930W        W54863  16.251  20.125  10.511
90931W        W54864   6.910  13.162   9.624
90932W        W54865  22.187  25.530  11.946
90933W        W54866   4.894  24.083  11.019
90934W        W54867  41.910  20.085  14.969
90935W        W54868  19.654  40.506  14.824
90936W        W54869   2.906  15.725   4.655
90937W        W54870  44.263  39.351   0.761
90938W        W54871  24.138  43.437  13.967
90939W        W54872  35.984  27.025  14.917
90940W        W54873  25.517  23.575  14.452
90941W        W54874  23.991  16.202  12.536
90942W        W54875  16.169  18.214   3.790
90943W        W54876  23.012   5.729  12.041
90944W        W54877  11.639  42.893  14.847
90945W        W54878   0.767  18.138   0.319
90946W        W54879  29.035  12.651   2.394
90947W        W54880  26.547  16.637   0.765
90948W        W54881  29.633  42.020   0.309
90949W        W54882  39.817  35.935   2.364
90950W        W54883  17.287   3.461   0.916
90951W        W54884  30.102  10.746  10.552
90952W        W54885  13.798  12.629   0.838
90953W        W54886  22.684   3.247  14.327
90954W        W54887  30.434   7.314   4.301
90955W        W54888  44.780  33.080  13.471
90956W        W54889  29.585  15.702  11.882
90957W        W54890   2.741  20.720   2.792
90958W        W54891  27.496   6.236  11.856
90959W        W54892   9.675   3.733  10.570
90960W        W54893  13.725   0.794  12.879
90961W        W54894  20.591  37.082   0.360
90962W        W54895  22.601  10.186  14.318
90963W        W54896  21.726  14.148  14.403
90964W        W54897  12.344  24.599  14.361
90965W        W54898  11.156  44.486  11.070
90966W        W54899  20.624  29.438   1.228
90967W        W54900  41.861  10.692   2.190
90968W        W54901  35.473   0.365   1.420
90969W        W54902  28.090   9.334  10.934
90970W        W54903  16.079   8.800   2.201
90971W        W54904  12.218   2.436  11.046
90972W        W54905  25.156  33.988  11.099
90973W        W54906  20.669  17.203   4.644
90974W        W54907   9.665   7.291   2.261
90975W        W54908  43.414  37.359  11.044
90976W        W54909  40.995   4.721  12.540
90977W        W54910  14.264  11.681  12.055
90978W        W54911   9.803  12.187   0.940
90979W        W54912  32.129  22.543  14.924
90980W        W54913  44.309  17.208   4.233
90981W        W54914  17.731  23.116  11.940
90982W        W54915   4.411  15.153  10.583
90983W        W54916   3.251  12.289  10.044
90984W        W54917  14.104  25.113   4.775
90985W        W54918  22.164  22.742  11.883
90986W        W54919  22.541  40.469  10.980
90987W        W54920  26.457   7.363  13.855
90988W        W54921  39.854   5.246   4.117
90989W        W54922  38.920  34.866   2.703
90990W        W54923  25.701   5.379   4.325
90991W        W54924   5.380  41.494   0.917
90992W        W54925  12.350   7.908  13.811
90993W        W54926  31.989   8.676   3.328
90994W        W54927  23.065   6.402  11.464
90995W        W54928  32.030   0.343  12.460
90996W        W54929  37.362  29.463  13.486
90997W        W54930  35.002  31.984   5.242
90998W        W54931  44.789  36.911  11.423
90999W        W54932  15.244  42.804  11.494
91000W        W54933  32.585   7.300  14.885
91001W        W54934  37.007   3.459  10.483
91002W        W54935  12.711  26.103  14.485
91003W        W54936  18.729  12.190   0.414
91004W        W54937   4.714  41.470   0.411
91005W        W54938  27.671  25.084  12.875
91006W        W54939  33.529  29.475  10.519
91007W        W54940  17.078   9.161   0.961
91008W        W54941  35.497  44.807   2.842
91009W        W54942   0.449  35.958  12.984
91010W        W54943   2.282  33.048  14.023
91011W        W54944  34.529  26.668  13.883
91012W        W54945   8.832  42.480   0.282
91013W        W54946  27.688  14.628  11.575
91014W        W54947  24.075  30.544   5.298
91015W        W54948  11.230  41.823   4.635
91016W        W54949  39.016   9.191  14.428
91017W        W54950  31.499   3.877  11.960
91018W        W54951  14.716   0.748  12.412
91019W        W54952  37.386  29.510   0.857
91020W        W54953   0.938   1.974   4.700
91021W        W54954   8.842  18.587  13.368
91022W        W54955   9.204  14.669  14.394
91023W        W54956   7.294   8.749   1.829
91024W        W54957  17.709  38.050  12.529
91025W        W54958  16.746  40.803   0.743
91026W        W54959  11.143  34.374   1.446
91027W        W54960  18.065  21.733   4.629
91028W        W54961   5.433  23.055  13.833
91029W        W54962  28.960  44.425  12.968
91030W        W54963  38.435  33.623   0.247
91031W        W54964  39.922  35.443  14.355
91032W        W54965  15.781  28.636  10.546
91033W        W54966  20.769  34.926   3.753
91034W        W54967  22.709  31.993  12.830
91035W        W54968  13.281   2.925   4.209
91036W        W54969  18.099  10.711   2.676
91037W        W54970  33.123  17.181  10.967
91038W        W54971  19.666  43.876  12.921
91039W        W54972  32.487  24.045  11.009
91040W        W54973  15.084  26.557  11.965
91041W        W54974  11.256  24.569   4.640
91042W        W54975  19.731  27.675   2.898
91043W        W54976  16.598  20.095  14.299
91044W        W54977  36.544  15.637   1.883
91045W        W54978  25.694  17.792  11.998
91046W        W54979  14.265  25.499  12.506
91047W        W54980  36.069  40.447   0.475
91048W        W54981   3.393  28.475   2.786
91049W        W54982  21.023  28.603  11.892
91050W        W54983  26.493   0.785   4.706
91051W        W54984  41.956   7.728  13.855
91052W        W54985  30.545   9.658  14.444
91053W        W54986  22.126  26.560  11.088
91054W        W54987   0.252  43.516  11.913
91055W        W54988  34.031  12.228  10.594
91056W        W54989   2.933  44.471  13.326
91057W        W54990   8.184  39.966   1.813
91058W        W54991   9.862  29.968  10.944
91059W        W54992   2.433  12.157   1.721
91060W        W54993  37.853  37.388   4.742
91061W        W54994  27.601  20.583  14.872
91062W        W54995  30.510  27.177   4.313
91063W        W54996  15.761   5.212   3.259
91064W        W54997   0.797   5.761  10.040
91065W        W54998   8.204  43.458  14.920
91066W        W54999   1.371  38.512   2.195
91067W        W55000  41.898  13.684  13.881
91068W        W55001  15.629  12.321  14.419
91069W        W55002  18.154   3.918  11.025
91070W        W55003  32.423  38.926  11.013
91071W        W55004  21.576  40.471  11.080
91072W        W55005  40.842  23.241  14.818
91073W        W55006  22.089  25.534   9.451
91074W        W55007  20.150  18.249   2.406
91075W        W55008  17.607  24.157  11.538
91076W        W55009  28.053  37.510   1.774
91077W        W55010  28.676  18.684  14.842
91078W        W55011   2.412  17.193  14.281
91079W        W55012  41.479   1.295   2.312
91080W        W55013  43.967  24.628   1.804
91081W        W55014  40.885  12.229  13.836
91082W        W55015  12.742   2.288   1.812
91083W        W55016  38.058  34.990  14.934
91084W        W55017  25.701  16.695  11.022
91085W        W55018  24.609  16.138  13.440
91086W        W55019  40.975   5.764  13.975
91087W        W55020  20.689   4.847  11.049
91088W        W55021  32.115  15.688  12.923
91089W        W55022  10.230  44.477  11.433
91090W        W55023  16.075  13.281  10.994
91091W        W55024  11.816  18.786  12.884
91092W        W55025  28.966  29.163   2.844
91093W        W55026  33.397  13.747   1.389
91094W        W55027  15.094  32.541  12.075
91095W        W55028  18.112  11.769  10.972
91096W        W55029  26.967   5.311  13.048
91097W        W55030  27.094  18.647   4.248
91098W        W55031  23.022  33.047   3.689
91099W        W55032  44.897   1.879   2.384
91100W        W55033  20.649  26.669  12.014
91101W        W55034   9.307  44.389  14.894
91102W        W55035  40.957   3.719   3.268
91103W        W55036  41.465  41.862  12.417
91104W        W55037  44.978  33.935   2.330
91105W        W55038  15.192  28.660   3.378
91106W        W55039  15.084   0.367  13.008
91107W        W55040  24.717   5.741  11.923
91108W        W55041  21.642  23.028  12.019
91109W        W55042  30.017   9.714   4.683
91110W        W55043  44.757  41.529   4.190
91111W        W55044  21.684  27.649   0.462
91112W        W55045  37.436   1.776  14.847
91113W        W55046  43.326   1.971  10.622
91114W        W55047   5.691  21.097  11.933
91115W        W55048  19.177   1.300  14.339
91116W        W55049  40.913   4.942  13.008
91117W        W55050  39.361  10.375   0.740
91118W        W55051  19.251  23.564  12.360
91119W        W55052  25.713   6.874  12.476
91120W        W55053  13.692  42.838   1.396
91121W        W55054  34.501   7.300   2.320
91122W        W55055  20.653  44.865   4.632
91123W        W55056  44.810  33.603  10.428
91124W        W55057  32.575  39.847  14.450
91125W        W55058  22.042  19.177  11.387
91126W        W55059  30.162  38.386  11.576
91127W        W55060   9.298  25.023  12.958
91128W        W55061  11.804  43.786   2.413
91129W        W55062  11.178  33.991  11.487
91130W        W55063  20.580  25.536   3.652
91131W        W55064  31.632   1.456  10.471
91132W        W55065  40.383   4.806   4.716
91133W        W55066   0.881  40.000  12.002
91134W        W55067  42.429  22.604  10.938
91135W        W55068  25.476   0.375  13.450
91136W        W55069  43.479  33.903   1.807
91137W        W55070  15.738  16.079   0.732
91138W        W55071  30.156   4.899  10.611
91139W        W55072  44.408   0.870   0.390
91140W        W55073   9.681  41.989   2.734
91141W        W55074  17.196  14.832   0.845
91142W        W55075  18.215  35.587   2.391
91143W        W55076   5.363   6.229  14.279
91144W        W55077  12.275  28.501  14.901
91145W        W55078  40.908  25.081   1.320
91146W        W55079  36.002  42.341   4.597
91147W        W55080  23.109  20.205   2.261
91148W        W55081  31.013  11.132  10.421
91149W        W55082   4.304   3.949   3.845
91150W        W55083  22.252  38.502   2.879
91151W        W55084  31.629  12.773  10.443
91152W        W55085   8.245   9.238  14.777
91153W        W55086  42.468  26.060  14.763
91154W        W55087  20.719  37.067  11.567
91155W        W55088  32.496  24.090  13.862
91156W        W55089  10.379   2.950   4.115
91157W        W55090  14.669  38.521   2.187
91158W        W55091  42.868  43.413   2.405
91159W        W55092  18.272  12.258   4.269
91160W        W55093  44.865  39.926   0.355
91161W        W55094  14.141  31.105  10.522
91162W        W55095  37.466  21.088  11.594
91163W        W55096   6.420   1.805   0.452
91164W        W55097   9.781  26.666   4.298
91165W        W55098   5.925  38.057  13.845
91166W        W55099  43.790   1.920  13.949
91167W        W55100  42.470  37.496  10.432
91168W        W55101  43.805  37.056  11.571
91169W        W55102  40.914  15.603  14.479
91170W        W55103  22.519  24.095   4.761
91171W        W55104  32.625   3.293  12.951
91172W        W55105  12.230  10.779   3.844
91173W        W55106  29.636  15.279   3.823
91174W        W55107  11.704  25.021   4.639
91175W        W55108  19.751  30.515   4.309
91176W        W55109  13.154  43.446  12.426
91177W        W55110  40.038  32.036  13.790
91178W        W55111   8.887  15.256   4.225
91179W        W55112  19.163  30.605   1.832
91180W        W55113  27.591  20.744  11.544
91181W        W55114  21.513  28.035   2.795
91182W        W55115  24.203  44.376  11.466
91183W        W55116  23.575   2.838   3.719
91184W        W55117  28.168  19.576  11.906
91185W        W55118  25.167   4.292  12.829
91186W        W55119  29.145  15.659   4.714
91187W        W55120  14.196   7.288   2.203
91188W        W55121   6.689  17.679   4.134
91189W        W55122  42.352  32.140  11.067
91190W        W55123  24.054  26.613  12.473
91191W        W55124  31.431  38.498  11.914
91192W        W55125  42.497  24.514  10.414
91193W        W55126  43.331  40.034  14.848
91194W        W55127  15.106  29.580  13.843
91195W        W55128  23.142  15.229  14.453
91196W        W55129  39.826  27.602   0.874
91197W        W55130  40.549  12.805   1.715
91198W        W55131   4.435  25.482   5.102
91199W        W55132  24.575   9.337  14.318
91200W        W55133  41.814   8.255  11.922
91201W        W55134  17.229  40.453  13.899
91202W        W55135  38.027  13.749  14.921
91203W        W55136  31.921  11.795  11.478
91204W        W55137  23.695  30.141  11.952
91205W        W55138  39.438  13.633  11.878
91206W        W55139  11.849  43.512  12.873
91207W        W55140  33.614  43.853   1.218
91208W        W55141  42.778  19.172  11.431
91209W        W55142  26.634  42.032   0.898
91210W        W55143  26.135  13.322   1.786
91211W        W55144  33.998  11.712   1.881
91212W        W55145  40.035   6.874  14.304
91213W        W55146  35.387  29.453  14.979
91214W        W55147  10.801  27.989   2.697
91215W        W55148  15.246  35.426  11.014
91216W        W55149  44.960  28.625  12.972
91217W        W55150   5.925  31.457  11.430
91218W        W55151  40.819  41.027  14.323
91219W        W55152  35.418  18.604  13.499
91220W        W55153  32.594  29.151  13.015
91221W        W55154  30.026  33.418   0.768
91222W        W55155  41.838  20.183   0.771
91223W        W55156   6.731  15.658   1.222
91224W        W55157   8.278  38.918  13.449
91225W        W55158  16.098  44.328  13.393
91226W        W55159  18.605  17.572  12.495
91227W        W55160  43.329  20.714   0.299
91228W        W55161  13.704  19.540  13.454
91229W        W55162  23.178   6.368  14.866
91230W        W55163   3.898  10.853   0.729
91231W        W55164  29.639  18.293  12.518
91232W        W55165  34.506  35.022  13.962
91233W        W55166  42.330  16.713  13.823
91234W        W55167  43.384  31.045  14.320
91235W        W55168  25.548   9.354  11.391
91236W        W55169  18.551  24.106  14.345
91237W        W55170  21.047  21.123  13.905
91238W        W55171   1.956   6.366   3.234
91239W        W55172  12.241  36.462  13.437
91240W        W55173  36.032  35.432   0.469
91241W        W55174  14.115  31.503   2.728
91242W        W55175   9.654   6.395   2.895
91243W        W55176  34.078  22.641   0.328
91244W        W55177  20.116   1.962   3.302
91245W        W55178   6.298  44.355   4.711
91246W        W55179  21.609   1.907  10.609
91247W        W55180   4.877  31.476  13.017
91248W        W55181   0.934   5.820  14.281
91249W        W55182  35.586   6.365  10.565
91250W        W55183  30.916  14.688   0.344
91251W        W55184  20.680  37.085   3.187
91252W        W55185  43.355  12.786   3.772
91253W        W55186  43.429  43.020  10.942
91254W        W55187  44.323   6.355   4.276
91255W        W55188  41.858   1.816  11.381
91256W        W55189  23.105   2.271  10.449
91257W        W55190  26.184  12.123  12.465
91258W        W55191  42.514   0.424  13.321
91259W        W55192  43.975  39.548   0.384
91260W        W55193  23.553  21.232   0.904
91261W        W55194  29.476   1.745  14.503
91262W        W55195  35.957  27.465   2.185
91263W        W55196  11.326   9.828   0.946
91264W        W55197  23.236   0.361  10.562
91265W        W55198  28.952  20.201  12.574
91266W        W55199  24.649  27.051   4.653
91267W        W55200  32.585  32.508  14.885
91268W        W55201  33.887  35.924   0.885
91269W        W55202  10.869  19.155  10.412
91270W        W55203  15.122   0.313   2.214
91271W        W55204  22.121  22.662   2.698
91272W        W55205  12.781  21.235  13.386
91273W        W55206  25.607   0.885   2.249
91274W        W55207  36.931  12.659  11.888
91275W        W55208   4.799  23.584  12.394
91276W        W55209  32.126   5.309   1.381
91277W        W55210  11.648  11.289   1.269
91278W        W55211  18.575  20.569  10.964
91279W        W55212  16.656  29.990  11.929
91280W        W55213  41.409   6.678   2.391
91281W        W55214  18.630  15.318  14.945
91282W        W55215  11.325  23.236   1.333
91283W        W55216   5.290  24.561   2.221
91284W        W55217  43.893  31.496   1.708
91285W        W55218  42.399  31.023   4.796
91286W        W55219  26.053  17.071  12.562
91287W        W55220   9.207  31.134  10.983
91288W        W55221   4.304   8.333  14.981
91289W        W55222   5.223  34.105  12.382
91290W        W55223  23.073  31.966  10.020
91291W        W55224  43.436   6.256  10.456
91292W        W55225   3.933  19.188   1.903
91293W        W55226   7.222  12.856   1.888
91294W        W55227   3.253  30.001   4.725
91295W        W55228  16.610  32.908   2.363
91296W        W55229  39.518   3.898   3.367
91297W        W55230  39.049  15.606   4.119
91298W        W55231  22.680  16.614  14.326
91299W        W55232  15.758  37.384  11.435
91300W        W55233  17.269  40.363  12.376
91301W        W55234  44.754   2.967  12.562
91302W        W55235  12.708   5.826   4.815
91303W        W55236  42.913   3.814   0.318
91304W        W55237  40.502  31.909   0.766
91305W        W55238   5.863  19.270  13.423
91306W        W55239  22.126  13.287  10.479
91307W        W55240  24.118   1.282  11.605
91308W        W55241  17.657   9.271   4.602
91309W        W55242  36.379  38.569   1.256
91310W        W55243  16.712   9.686  14.469
91311W        W55244  19.734  16.690   4.609
91312W        W55245   2.940   9.798  12.536
91313W        W55246  24.708   3.944  14.832
91314W        W55247  44.396  21.049   2.391
91315W        W55248   9.715  44.780   1.753
91316W        W55249  40.034  19.230  13.333
91317W        W55250  12.817  40.333   4.163
91318W        W55251  10.190  20.233  12.916
91319W        W55252  11.728  25.029  14.762
91320W        W55253  41.459  38.426   3.346
91321W        W55254   7.882  20.089   4.724
91322W        W55255  42.462  39.542  10.912
91323W        W55256   9.742  11.705   4.201
91324W        W55257  24.619  41.439  10.628
91325W        W55258  19.553  18.657  12.031
91326W        W55259  18.200  34.414  12.900
91327W        W55260  15.777  27.585   9.948
91328W        W55261  29.108  13.211  11.111
91329W        W55262   4.252  14.639   1.853
91330W        W55263  32.475  13.292  14.483
91331W        W55264  40.845  31.633  14.938
91332W        W55265   2.330  35.595   3.336
91333W        W55266  23.596   8.736   5.706
91334W        W55267   6.222   7.342   1.214
91335W        W55268  35.879  43.323  11.387
91336W        W55269  34.478  32.564   4.253
91337W        W55270  39.825   7.680   3.199
91338W        W55271  34.953  29.436  13.540
91339W        W55272  18.152  21.110   3.316
91340W        W55273  15.157  38.977  11.592
91341W        W55274  24.217  31.609  11.025
91342W        W55275  17.113  24.522  10.978
91343W        W55276   9.860  27.529  10.559
91344W        W55277   6.719  44.774  11.101
91345W        W55278  37.893  21.614  11.084
91346W        W55279  33.050   4.865  13.403
91347W        W55280  11.839  31.022  12.841
91348W        W55281   8.671  31.604   1.248
91349W        W55282   6.232   2.742  14.333
91350W        W55283  31.102   7.788  11.472
91351W        W55284  17.298  25.681   0.483
91352W        W55285   5.211  23.993   0.410
91353W        W55286   7.370   2.879  14.511
91354W        W55287  29.124  30.048  12.889
91355W        W55288  42.967  20.759  10.433
91356W        W55289  10.815  21.124  10.959
91357W        W55290  25.062  11.343   3.171
91358W        W55291   3.949  19.771  12.529
91359W        W55292  40.341  13.278  10.920
91360W        W55293  28.444  38.995  13.343
91361W        W55294  18.277  24.180  11.382
91362W        W55295  39.353   0.307   3.178
91363W        W55296   5.267  19.118   0.897
91364W        W55297  26.589  33.434   2.284
91365W        W55298  20.041  31.643  10.998
91366W        W55299   7.316  27.172  11.066
91367W        W55300  40.837  24.068   3.860
91368W        W55301  35.097   3.223  10.449
91369W        W55302  28.638  12.856  12.826
91370W        W55303  12.672  25.008  13.363
91371W        W55304  22.604  26.597  14.997
91372W        W55305  44.995  22.656  12.378
91373W        W55306   4.745   3.453   3.832
91374W        W55307  38.532  33.897  14.993
91375W        W55308   9.390  43.516  13.006
91376W        W55309  12.116  26.087  12.568
91377W        W55310  19.618  20.154   0.925
91378W        W55311  24.081  11.334   2.788
91379W        W55312  11.242  21.107   4.184
91380W        W55313   3.407  13.351   3.669
91381W        W55314   4.424  11.328   0.933
91382W        W55315  39.455  11.134   3.757
91383W        W55316  25.560   8.397   3.261
91384W        W55317  18.122  34.474  13.818
91385W        W55318  10.633  39.822  10.907
91386W        W55319  36.423  21.066   2.193
91387W        W55320   1.878  24.666   3.767
91388W        W55321  33.441  15.601   4.672
91389W        W55322  35.457  24.173  13.051
91390W        W55323  28.435  25.106  12.870
91391W        W55324  35.410  35.094  13.879
91392W        W55325  24.512  23.590  14.788
91393W        W55326  40.381   1.452   4.601
91394W        W55327  32.007  22.524  13.394
91395W        W55328   7.789   5.314  11.500
91396W        W55329   7.794  28.008   5.261
91397W        W55330  13.678  27.136   1.266
91398W        W55331   9.730  34.062   3.189
91399W        W55332  23.078  44.297   4.807
91400W        W55333  33.529  35.587   2.702
91401W        W55334   4.832  39.846   2.298
91402W        W55335   6.695  40.832  14.944
91403W        W55336  21.581  24.668  14.477
91404W        W55337  42.494   4.267   0.387
91405W        W55338  36.440   2.775  11.471
91406W        W55339  25.020  16.624   3.839
91407W        W55340  10.203  24.724  13.464
91408W        W55341  15.326   6.357   1.412
91409W        W55342  36.592  12.724  10.907
91410W        W55343  22.523   6.248   5.314
91411W        W55344  35.089  38.337   4.173
91412W        W55345  14.288  35.477   3.333
91413W        W55346  31.643  37.856   3.701
91414W        W55347  20.599  39.998  14.407
91415W        W55348   8.248   7.204   4.155
91416W        W55349   7.844  12.809  14.405
91417W        W55350  39.323  35.600  12.410
91418W        W55351   7.306  36.422  14.951
91419W        W55352  15.130  17.795   1.748
91420W        W55353  25.569   4.903   4.265
91421W        W55354   1.739  29.141  14.310
91422W        W55355  31.634  18.094  13.548
91423W        W55356  11.279  24.204   0.889
91424W        W55357  37.831  27.662  11.407
91425W        W55358  42.411   6.260  12.536
91426W        W55359  42.449  24.575  12.563
91427W        W55360   2.787  16.757  13.991
91428W        W55361  43.457  11.354  11.120
91429W        W55362   0.330   6.867   4.756
91430W        W55363   7.722  42.443  12.470
91431W        W55364  40.421   3.753  12.555
91432W        W55365   1.352  20.592   0.921
91433W        W55366  43.274  38.953  13.047
91434W        W55367  35.994  30.160   0.392
91435W        W55368  18.592  31.916   1.825
91436W        W55369  30.060   7.273  12.441
91437W        W55370   3.813  19.093   4.627
91438W        W55371  12.314  28.534   2.695
91439W        W55372   4.919  10.864  14.921
91440W        W55373  24.612  32.567  13.366
91441W        W55374  20.749   8.279  12.853
91442W        W55375  30.575  41.430  14.828
91443W        W55376  14.658  11.269  12.479
91444W        W55377  14.632  25.972  10.938
91445W        W55378   2.375   8.715  13.328
91446W        W55379  21.136   8.855  12.972
91447W        W55380  31.963   2.890   3.221
91448W        W55381  15.223  23.122   3.722
91449W        W55382  22.152  23.216  10.470
91450W        W55383  40.826   7.257  11.540
91451W        W55384   6.683  24.545  13.396
91452W        W55385   7.877  19.242  14.308
91453W        W55386  30.156   6.830   1.750
91454W        W55387  10.775  16.785   4.694
91455W        W55388   1.917  35.031   3.281
91456W        W55389  19.750  20.757   2.259
91457W        W55390  11.757  26.653   2.869
91458W        W55391  11.629  35.923   2.664
91459W        W55392  10.332   4.266   2.314
91460W        W55393   7.306  23.225  13.544
91461W        W55394  12.296   5.413   1.242
91462W        W55395  18.216  20.628  13.976
91463W        W55396  30.966  36.378  13.425
91464W        W55397  42.954   6.921  11.905
91465W        W55398  17.648  34.962   0.923
91466W        W55399  15.311  12.637   0.805
91467W        W55400  19.567  38.055   4.129
91468W        W55401  35.954   6.844  11.440
91469W        W55402  19.634   2.726  12.093
91470W        W55403  30.062  39.474  13.371
91471W        W55404  17.299  16.180  10.553
91472W        W55405  37.393  16.682  12.960
91473W        W55406  18.554  25.599   3.725
91474W        W55407   7.281  42.296   1.345
91475W        W55408   2.949  20.254  10.914
91476W        W55409  23.696  34.526  14.789
91477W        W55410  14.117  34.902  13.438
91478W        W55411  38.417  23.726  11.079
91479W        W55412   1.737  43.475  11.866
91480W        W55413  35.889  34.395  10.905
91481W        W55414   2.249  33.900  11.009
91482W        W55415   5.369  27.060   1.227
91483W        W55416  42.987   6.417   3.199
91484W        W55417  25.703  25.003   0.751
91485W        W55418  44.342   2.953   3.360
91486W        W55419  12.817   9.275  12.935
91487W        W55420   8.882   4.863   2.758
91488W        W55421   2.407   9.236   3.835
91489W        W55422  32.453  25.677   1.865
91490W        W55423   5.787  23.052  11.400
91491W        W55424  20.628  30.517  13.839
91492W        W55425  42.796  19.537  13.859
91493W        W55426  30.032  29.092   0.883
91494W        W55427  19.551   1.418   2.816
91495W        W55428  25.989   9.743  11.081
91496W        W55429  21.737  36.362  10.552
91497W        W55430   9.660  19.229  12.825
91498W        W55431  31.548  44.919  11.537
91499W        W55432  11.751  33.997  14.456
91500W        W55433   4.867  35.957  10.072
91501W        W55434  37.936  34.069   2.401
91502W        W55435   0.307  14.273  14.892
91503W        W55436  22.717  38.047   3.246
91504W        W55437  14.124  23.170  12.016
91505W        W55438  33.064  41.522  11.562
91506W        W55439  23.516  41.806  12.574
91507W        W55440  29.993  44.393   0.906
91508W        W55441   6.325  31.009  14.015
91509W        W55442   4.437  13.740  12.453
91510W        W55443   3.779  23.620   2.891
91511W        W55444   9.827  23.531   0.314
91512W        W55445  22.652   4.799   1.778
91513W        W55446  17.581  27.601  13.442
91514W        W55447  11.688   1.346   3.766
91515W        W55448   0.486  25.710  14.769
91516W        W55449  35.461  22.231  13.860
91517W        W55450  42.316  39.390   0.375
91518W        W55451  19.262  26.109  11.454
91519W        W55452  23.004  14.613  11.608
91520W        W55453  41.034   6.294   3.239
91521W        W55454  15.251  14.155  13.473
91522W        W55455  19.153  28.593   5.575
91523W        W55456  28.481  24.981   4.750
91524W        W55457  11.846   5.757   3.214
91525W        W55458  44.374  27.105  12.826
91526W        W55459  18.249  14.190   4.113
91527W        W55460  26.517  20.632   3.311
91528W        W55461  36.954   7.346   0.354
91529W        W55462   1.804  15.136   4.723
91530W        W55463  36.390  12.691  14.276
91531W        W55464   4.434  12.707   0.425
91532W        W55465  14.263  41.422   0.966
91533W        W55466   0.825   9.775   3.216
91534W        W55467  22.043  30.425  12.504
91535W        W55468  39.510  37.389  11.906
91536W        W55469  13.700  33.515  11.050
91537W        W55470   4.713   2.468   0.257
91538W        W55471   1.339   3.435  14.784
91539W        W55472  17.621  23.158  11.377
91540W        W55473  17.691   9.256  13.492
91541W        W55474  27.667  17.070  13.540
91542W        W55475  19.068  28.470  11.992
91543W        W55476  42.335   0.475   4.718
91544W        W55477  14.222  15.128   0.481
91545W        W55478  11.369  32.630   1.919
91546W        W55479  13.134   1.898   0.794
91547W        W55480  24.504  14.700   2.366
91548W        W55481  30.162   2.318  13.829
91549W        W55482  26.489  33.881   1.307
91550W        W55483  31.500  36.522   0.398
91551W        W55484  20.562  30.918  10.578
91552W        W55485  26.571  22.151   2.183
91553W        W55486  20.752  32.391   1.417
91554W        W55487  27.522  40.875  11.896
91555W        W55488   7.782  34.562   0.387
91556W        W55489  18.230  15.282   2.267
91557W        W55490  38.981   0.947  11.079
91558W        W55491  35.099  35.556  14.810
91559W        W55492  36.450  31.996   3.730
91560W        W55493  34.020   0.259   0.754
91561W        W55494  31.588  14.106  10.900
91562W        W55495   8.329  24.223   0.909
91563W        W55496  36.402  11.338   3.682
91564W        W55497  30.087  39.913  13.309
91565W        W55498  38.012   9.160   4.256
91566W        W55499  32.489  37.425   0.288
91567W        W55500  34.486   2.867  14.873
91568W        W55501  13.726   1.741   3.149
91569W        W55502   6.728   3.219   1.923
91570W        W55503  14.715  11.781   4.637
91571W        W55504  32.068  23.612   0.336
91572W        W55505   5.896  21.753  12.344
91573W        W55506  35.514  22.021  15.000
91574W        W55507  11.206  32.085  11.033
91575W        W55508  44.948  41.989   3.813
91576W        W55509  15.162  27.045   3.277
91577W        W55510  24.151  40.987   2.740
91578W        W55511  26.682  44.858   0.834
91579W        W55512  44.338  36.083  11.054
91580W        W55513  20.746  39.530   1.408
91581W        W55514  35.494  37.528  14.808
91582W        W55515  39.860  33.453  14.871
91583W        W55516  17.142  38.974  13.856
91584W        W55517  33.443  44.797  14.830
91585W        W55518   6.893  10.693   1.230
91586W        W55519  40.342  30.477   0.892
91587W        W55520  13.779  12.215   0.876
91588W        W55521   6.771  42.871   5.095
91589W        W55522  13.655  33.875  10.536
91590W        W55523  31.594  29.112  14.940
91591W        W55524  10.665  22.560  10.525
91592W        W55525   5.291  17.097   2.694
91593W        W55526  30.989  16.567  14.001
91594W        W55527  19.545   9.656   0.744
91595W        W55528  35.104  24.050  11.553
91596W        W55529  31.618  36.490   0.926
91597W        W55530  10.322   8.737   3.351
91598W        W55531  23.721   8.287   2.795
91599W        W55532  43.020  24.005   4.153
91600W        W55533  34.096  39.557  12.890
91601W        W55534  30.513  30.126  13.919
91602W        W55535  40.462   4.776  12.401
91603W        W55536  27.194  31.499  12.566
91604W        W55537  23.513  21.610   3.869
91605W        W55538  19.577   2.326  11.117
91606W        W55539  23.706  41.958   0.300
91607W        W55540  26.599  15.293   1.221
91608W        W55541   2.912  33.608  12.879
91609W        W55542  34.462  31.451  10.471
91610W        W55543  34.988  11.747  14.023
91611W        W55544  10.822   9.813  13.431
91612W        W55545  36.396  29.977  13.512
91613W        W55546   2.472   6.850  14.974
91614W        W55547  12.290   3.734  14.938
91615W        W55548  12.303  38.995  14.290
91616W        W55549  25.025  18.786  14.319
91617W        W55550  30.137  37.889  12.529
91618W        W55551   1.912  18.647  12.443
91619W        W55552  44.482  43.396  12.085
91620W        W55553  24.109  10.204   2.344
91621W        W55554  26.597  21.249   2.889
91622W        W55555  24.216  38.947  10.135
91623W        W55556   2.911   4.233   1.231
91624W        W55557   9.352  42.369   4.783
91625W        W55558   6.325   0.441  11.401
91626W        W55559  18.279  13.266   1.379
91627W        W55560   6.720  33.435  13.046
91628W        W55561   4.438  43.829   4.627
91629W        W55562   5.825  43.954  13.500
91630W        W55563  18.141  12.825   4.708
91631W        W55564  17.131  33.050  14.023
91632W        W55565  37.845   6.251   1.911
91633W        W55566   1.460   9.681  13.998
91634W        W55567  19.730  39.940  12.842
91635W        W55568  15.698  14.705   2.715
91636W        W55569  36.903  22.542  14.414
91637W        W55570  24.032  31.049   1.787
91638W        W55571  24.126  15.741  13.868
91639W        W55572  43.325  39.043   0.893
91640W        W55573  33.958  42.466   0.319
91641W        W55574  28.566  35.395   0.773
91642W        W55575  36.094  10.664  12.429
91643W        W55576  12.780   1.770   1.760
91644W        W55577  28.541  11.667   2.749
91645W        W55578  19.689  32.559  11.599
91646W        W55579   0.750  38.026  14.892
91647W        W55580  34.949  41.506  12.444
91648W        W55581  30.919   9.649  10.634
91649W        W55582  29.953   8.815  14.898
91650W        W55583  12.774   6.869   0.873
91651W        W55584   1.353  41.840   1.716
91652W        W55585   4.932  10.730   3.708
91653W        W55586  35.894  11.857   4.333
91654W        W55587  38.896  17.186  13.380
91655W        W55588  44.469   9.823  13.448
91656W        W55589   7.750  19.617  10.507
91657W        W55590  30.529  13.774   1.744
91658W        W55591  19.182  31.940   4.691
91659W        W55592   7.852  20.711   0.748
91660W        W55593  31.956  42.360   2.179
91661W        W55594  13.305  29.936  13.882
91662W        W55595  30.977  32.974   2.326
91663W        W55596   5.307   1.903  13.822
91664W        W55597   8.749  40.545   1.744
91665W        W55598  38.896   3.832   4.137
91666W        W55599   6.231  17.245   2.337
91667W        W55600  40.989  21.567  13.548
91668W        W55601  11.681  21.563  12.021
91669W        W55602  11.729   0.306  13.049
91670W        W55603  17.063   0.445  11.520
91671W        W55604   7.822  38.029   2.352
91672W        W55605  36.072  30.971   4.767
91673W        W55606   0.380   1.833   3.225
91674W        W55607   5.338  15.718   1.794
91675W        W55608  14.713  40.522  10.434
91676W        W55609   8.773   7.674   2.313
91677W        W55610  15.298  28.950  13.945
91678W        W55611   1.743   5.197  12.952
91679W        W55612  43.277   1.313   1.839
91680W        W55613  23.510  43.926   4.695
91681W        W55614  28.936  29.991  14.404
91682W        W55615  33.441  21.136   0.415
91683W        W55616  10.251  24.058  13.826
91684W        W55617   0.475  44.957   2.289
91685W        W55618  34.945   4.421   0.312
91686W        W55619  24.709  16.278  14.830
91687W        W55620   9.377   1.293   3.817
91688W        W55621  14.115  11.749   2.415
91689W        W55622  13.127  17.615   0.246
91690W        W55623  18.176  11.296  12.040
91691W        W55624  13.338  37.483   3.176
91692W        W55625  17.166  44.293  14.351
91693W        W55626  14.635  14.154   5.268
91694W        W55627   1.951  25.215  11.030
91695W        W55628  18.742  24.068  11.434
91696W        W55629  16.178  23.093  11.014
91697W        W55630  29.496  23.500  11.552
91698W        W55631  29.470  30.078  13.929
91699W        W55632  14.116  34.599  10.495
91700W        W55633  12.140  28.083  12.975
91701W        W55634  26.175  41.483  14.495
91702W        W55635  10.837  20.043  13.828
91703W        W55636  13.191  23.635   4.755
91704W        W55637  41.008  44.891   3.202
91705W        W55638   8.774  24.199   4.147
91706W        W55639  28.140   5.320  11.909
91707W        W55640  19.093  34.115   1.286
91708W        W55641  43.330   2.966  13.475
91709W        W55642  17.083  31.607   2.306
91710W        W55643   3.431  17.078   1.229
91711W        W55644  11.827  28.579   0.805
91712W        W55645  25.584  41.526  12.547
91713W        W55646   9.299   0.820  11.931
91714W        W55647  22.519  31.111  11.885
91715W        W55648  30.041  37.487  11.970
91716W        W55649  10.210  32.532   0.263
91717W        W55650  29.040  35.967  10.910
91718W        W55651  38.506  27.518   3.331
91719W        W55652  19.563  18.725   2.812
91720W        W55653  39.909  37.025  10.515
91721W        W55654  41.347  12.169   0.730
91722W        W55655  11.828  25.182  12.091
91723W        W55656  31.953   4.299   0.922
91724W        W55657  38.567  13.686  11.479
91725W        W55658  42.984  28.493   1.787
91726W        W55659  32.002  43.337  12.368
91727W        W55660   2.338  36.480  13.542
91728W        W55661  14.632  21.154  14.017
91729W        W55662  38.840  28.997   3.818
91730W        W55663  36.005  39.361   2.242
91731W        W55664   2.336  24.997  14.970
91732W        W55665  32.634   6.355  13.030
91733W        W55666  37.385   6.678  13.049
91734W        W55667  26.493  28.653  11.088
91735W        W55668   6.293  11.681  11.029
91736W        W55669  20.099  31.512  14.332
91737W        W55670  16.315   9.673   5.278
91738W        W55671  33.969  35.095   3.279
91739W        W55672  40.037  34.528  12.402
91740W        W55673  16.725  12.698   2.255
91741W        W55674  37.385  17.692  14.422
91742W        W55675   2.770  31.593   3.701
91743W        W55676  25.677  41.449  11.420
91744W        W55677  40.046   5.414   2.373
91745W        W55678  41.824  41.300   0.759
91746W        W55679  26.666  44.397  11.026
91747W        W55680  15.185  37.868  14.499
91748W        W55681  27.944  16.180  14.791
91749W        W55682  40.479  21.577  13.480
91750W        W55683  10.636  17.190  10.538
91751W        W55684   8.226  37.553  13.446
91752W        W55685   5.707  22.103  14.339
91753W        W55686  13.235  34.999   4.805
91754W        W55687  38.559  25.545   1.730
91755W        W55688  16.743  17.625   4.260
91756W        W55689   2.304  17.290  13.514
91757W        W55690  15.717   2.368   2.742
91758W        W55691  30.096  21.646   3.846
91759W        W55692   3.338  20.044  11.969
91760W        W55693  16.620   0.257  13.435
91761W        W55694  42.340  27.616  14.329
91762W        W55695  37.371   7.199   0.297
91763W        W55696  25.192  25.100   0.958
91764W        W55697   3.217   8.757   1.850
91765W        W55698  38.443   9.794  12.001
91766W        W55699   5.280  16.268  11.465
91767W        W55700  34.059  31.104  10.455
91768W        W55701  16.639  12.774   3.224
91769W        W55702   5.700  44.268   1.268
91770W        W55703  15.598  25.072  11.579
91771W        W55704  15.276   7.234  11.969
91772W        W55705   1.276  31.616  11.079
91773W        W55706  29.156  35.411  12.435
91774W        W55707   5.199  25.094  12.939
91775W        W55708  27.089  41.523   4.220
91776W        W55709  21.721  36.934   1.773
91777W        W55710  26.594  17.186  11.061
91778W        W55711   7.229  42.781   4.193
91779W        W55712  15.751   7.309   2.849
91780W        W55713  39.032  36.002   2.689
91781W        W55714   7.725  37.445  11.572
91782W        W55715   3.266  17.693  11.508
91783W        W55716  34.396   3.253  13.977
91784W        W55717  13.645  22.094   2.330
91785W        W55718  20.159  37.453  10.061
91786W        W55719  21.718   9.331   3.168
91787W        W55720  33.467  11.742  14.405
91788W        W55721  16.142  44.420  14.371
91789W        W55722  43.894  26.036  10.441
91790W        W55723   4.875  24.680   4.259
91791W        W55724  28.470  12.752  14.358
91792W        W55725  26.683  36.457  11.075
91793W        W55726  16.198   1.745  13.912
91794W        W55727  43.460  28.010   3.830
91795W        W55728   1.480  40.827   1.768
91796W        W55729   7.786  13.175   2.284
91797W        W55730  11.779  17.220  10.597
91798W        W55731  10.873  16.136  11.494
91799W        W55732  23.617  30.591   3.228
91800W        W55733  43.492  23.067   1.846
91801W        W55734   8.353  44.828  14.448
91802W        W55735  15.695  30.570  13.983
91803W        W55736  11.178  13.688   2.367
91804W        W55737  40.507  19.129   1.752
91805W        W55738   6.357  39.917   4.782
91806W        W55739  39.962  41.479  13.314
91807W        W55740  17.171  35.009  12.933
91808W        W55741  41.898  18.191   4.682
91809W        W55742  27.055  11.189  13.977
91810W        W55743  43.768  10.333  14.884
91811W        W55744  24.487  42.824  13.383
91812W        W55745   1.267  37.832  12.516
91813W        W55746  24.579  37.353  11.384
91814W        W55747  24.212   4.361  11.453
91815W        W55748  24.130  42.414   1.810
91816W        W55749   7.285  16.684  13.053
91817W        W55750   0.332  35.440  13.943
91818W        W55751  29.921  22.155   0.887
91819W        W55752  19.075  23.513  13.988
91820W        W55753  39.359  21.070  12.848
91821W        W55754  25.477  40.002  10.500
91822W        W55755  21.633  34.384   0.439
91823W        W55756  30.493  13.166  12.877
91824W        W55757  44.985  18.201   4.837
91825W        W55758  18.670   9.783   1.871
91826W        W55759   1.423  13.623  14.918
91827W        W55760  29.027  18.626  12.475
91828W        W55761  41.866  24.561   2.326
91829W        W55762   6.306  43.922   4.172
91830W        W55763  25.108  19.273   1.446
91831W        W55764  23.107   7.775  10.469
91832W        W55765  30.915  37.896   1.782
91833W        W55766   2.850  11.155   4.748
91834W        W55767  34.495   1.752  11.897
91835W        W55768  43.468  43.935  14.399
91836W        W55769  37.895  34.572   2.311
91837W        W55770  43.839  21.164   4.312
91838W        W55771  11.638  12.196   0.747
91839W        W55772  20.690  24.715   4.763
91840W        W55773   0.929  24.092   3.800
91841W        W55774  31.437   5.804  14.796
91842W        W55775  26.020  10.297   3.181
91843W        W55776  17.071  25.015   0.900
91844W        W55777  26.633  23.183  11.427
91845W        W55778  19.693   0.444   0.365
91846W        W55779  31.460  14.221   0.254
91847W        W55780  12.218  29.017   3.728
91848W        W55781   1.807   5.236   4.759
91849W        W55782   2.296  12.692   0.811
91850W        W55783   8.184   3.850   4.175
91851W        W55784  26.057  39.496   2.358
91852W        W55785  38.488  23.213  12.069
91853W        W55786   9.803  35.527  10.992
91854W        W55787   2.769  34.101  12.942
91855W        W55788   3.758  32.633   4.732
91856W        W55789   5.893  42.808  13.482
91857W        W55790  43.285  37.424   1.327
91858W        W55791  19.542   3.789  12.504
91859W        W55792  11.198  34.995   2.674
91860W        W55793  21.585  41.474   2.752
91861W        W55794  39.384   8.845  13.876
91862W        W55795  20.215   7.695   0.351
91863W        W55796  42.921  14.728   0.967
91864W        W55797  43.796  25.567  13.927
91865W        W55798  10.817   8.765  14.928
91866W        W55799  30.427  18.679   1.820
91867W        W55800  32.564  36.919   1.423
91868W        W55801  16.678  38.825  11.536
91869W        W55802  15.642   8.238  10.000
91870W        W55803   1.237  20.635   4.298
91871W        W55804  13.747  30.556   0.937
91872W        W55805   2.326  15.679   3.353
91873W        W55806   3.341   8.264   1.926
91874W        W55807   3.417  40.548  11.043
91875W        W55808  16.191  42.519   4.147
91876W        W55809  42.804  31.573  14.836
91877W        W55810   3.357  24.114   4.354
91878W        W55811  34.087  16.144  12.556
91879W        W55812   8.694  27.573  10.435
91880W        W55813  30.949  17.168   1.848
91881W        W55814  24.217  13.193   2.261
91882W        W55815  19.673  31.082   1.232
91883W        W55816  23.023   4.929   2.765
91884W        W55817  12.846   9.682   2.710
91885W        W55818  25.552  37.521   4.332
91886W        W55819  12.219  40.493   1.704
91887W        W55820  17.070  24.071  13.839
91888W        W55821  37.913  42.964   4.620
91889W        W55822  24.058   1.904   4.201
91890W        W55823  11.323   5.258   0.859
91891W        W55824  13.833   2.791   2.248
91892W        W55825  42.401  29.135   1.322
91893W        W55826  13.710  31.498  11.574
91894W        W55827  19.060  35.412  12.013
91895W        W55828  15.177   4.324   9.960
91896W        W55829  15.278  13.687  12.559
91897W        W55830  35.101  29.997   1.919
91898W        W55831  34.599   7.266  12.467
91899W        W55832   0.984  37.476  13.377
91900W        W55833  24.631  13.738  10.081
91901W        W55834  27.676  38.492  14.515
91902W        W55835  22.068  35.558  12.560
91903W        W55836  20.142  36.845  11.012
91904W        W55837  36.050  37.025  12.534
91905W        W55838  22.661  28.136  13.975
91906W        W55839  33.065  26.995  10.601
91907W        W55840  24.210  31.544  13.995
91908W        W55841  29.924  32.493  13.842
91909W        W55842  29.004   5.380  10.586
91910W        W55843  37.482   5.778   2.674
91911W        W55844  44.838  33.088  14.846
91912W        W55845  22.115   3.216   3.772
91913W        W55846  30.542  38.460   3.201
91914W        W55847  23.499  41.491   1.249
91915W        W55848  19.176  11.673   1.382
91916W        W55849  23.710   1.953  14.395
91917W        W55850  25.538  31.517  14.844
91918W        W55851  27.097   7.233  10.467
91919W        W55852  23.195  39.558   2.321
91920W        W55853  24.696  38.022   0.871
91921W        W55854   0.907  14.295  14.402
91922W        W55855  25.554  15.674  12.876
91923W        W55856  10.870  12.708  11.504
91924W        W55857  32.007  34.070   2.306
91925W        W55858  19.736  29.973  11.499
91926W        W55859   2.780  25.179  14.865
91927W        W55860  37.945  23.581  10.946
91928W        W55861  37.898  31.053  12.082
91929W        W55862  20.250  24.996  12.086
91930W        W55863  14.658  23.009  14.833
91931W        W55864  41.497   3.394   2.196
91932W        W55865  24.067  11.148   1.451
91933W        W55866  27.005   1.315   4.770
91934W        W55867  10.377  24.669  13.041
91935W        W55868  16.625   6.784  13.048
91936W        W55869  20.250  38.850  12.881
91937W        W55870  28.186  26.003  10.448
91938W        W55871  44.986  43.958   3.215
91939W        W55872  15.187   3.816   3.799
91940W        W55873  14.758  11.302   9.933
91941W        W55874   0.408  37.078  12.343
91942W        W55875  44.440  28.602   2.817
91943W        W55876  14.222  43.362  11.609
91944W        W55877   5.349   3.849  12.036
91945W        W55878  17.198  20.590  14.276
91946W        W55879   9.693  40.973   0.857
91947W        W55880  14.204  26.188  14.335
91948W        W55881  15.743  33.888   2.833
91949W        W55882  43.355   0.903   0.963
91950W        W55883  18.652   2.828   4.804
91951W        W55884   1.251   6.310  12.841
91952W        W55885  18.587  11.177   0.750
91953W        W55886  22.511  28.993  12.851
91954W        W55887   0.343  19.584   1.717
91955W        W55888  39.351  30.060  11.420
91956W        W55889   1.322  18.774   3.378
91957W        W55890  22.509  19.547   4.240
91958W        W55891  27.104  32.087  12.835
91959W        W55892  42.840  10.839   2.415
91960W        W55893  39.546   4.803   2.681
91961W        W55894  18.115  24.491  12.981
91962W        W55895  20.709  25.525   1.830
91963W        W55896  20.760  31.924   3.170
91964W        W55897   1.887  35.918   3.705
91965W        W55898  40.884  25.084  12.490
91966W        W55899   2.750  17.773  10.904
91967W        W55900  18.565  13.740   0.891
91968W        W55901  39.926   8.722  13.443
91969W        W55902  26.980  32.062   1.289
91970W        W55903  32.493  24.128   2.856
91971W        W55904  32.095  16.583  11.128
91972W        W55905  25.038  14.296   0.794
91973W        W55906  42.392  18.626  10.421
91974W        W55907  39.972  11.336   1.388
91975W        W55908  29.991  14.702  13.348
91976W        W55909  29.150  18.091   0.275
91977W        W55910  42.802   5.333  11.071
91978W        W55911  12.145  15.185   3.180
91979W        W55912  12.763   4.762  11.593
91980W        W55913   8.796   5.893  14.805
91981W        W55914   8.254  39.025  12.943
91982W        W55915  13.629  27.610   4.759
91983W        W55916  21.631  36.483  14.287
91984W        W55917  11.139  34.053   1.794
91985W        W55918  22.152  35.481  11.533
91986W        W55919  39.377  15.803   4.204
91987W        W55920  36.065  16.711  12.902
91988W        W55921  20.106  15.223   9.972
91989W        W55922  42.818   5.904  10.491
91990W        W55923  24.504   4.330   3.301
91991W        W55924  18.778  40.438  14.378
91992W        W55925  20.235   4.892   1.243
91993W        W55926   3.454  26.150   0.477
91994W        W55927  25.058  28.112  12.075
91995W        W55928  35.047   6.358   0.913
91996W        W55929  17.128  44.865  10.521
91997W        W55930  16.099  31.503  11.437
91998W        W55931   5.267  42.285   0.805
91999W        W55932  35.368  39.854  12.914
92000W        W55933   1.915   1.303  11.442
92001W        W55934  11.283  21.729   2.414
92002W        W55935   0.344   8.376  12.451
92003W        W55936   4.450  36.548   3.840
92004W        W55937   5.409  15.683   0.277
92005W        W55938   8.884  18.776   2.779
92006W        W55939  14.743  21.608   1.712
92007W        W55940  12.836  35.893  14.967
92008W        W55941  13.140  34.429   1.775
92009W        W55942  32.941  19.279   4.658
92010W        W55943   0.475   6.294   4.629
92011W        W55944   0.401  36.416   9.546
92012W        W55945   5.413  27.016  14.781
92013W        W55946  23.624  12.696  14.976
92014W        W55947  31.112   4.435  13.898
92015W        W55948   5.379  21.644   0.397
92016W        W55949  19.766   0.743  14.403
92017W        W55950  20.156  16.780   2.408
92018W        W55951  42.379   8.821  13.923
92019W        W55952  27.541  14.312   4.676
92020W        W55953  36.544  27.069  11.513
92021W        W55954  36.398  20.169   4.663
92022W        W55955   2.393  32.140   5.233
92023W        W55956  15.157  32.081   2.872
92024W        W55957  12.220  16.272  11.592
92025W        W55958  25.183  38.456   4.163
92026W        W55959  18.289  37.010  14.763
92027W        W55960  39.933   5.745  10.890
92028W        W55961  39.321  36.898  10.973
92029W        W55962  21.093  11.724  11.946
92030W        W55963  33.558  42.924  11.048
92031W        W55964  14.244   5.332   3.780
92032W        W55965   7.687  27.988   1.779
92033W        W55966  39.966   0.405   4.674
92034W        W55967  42.347  21.068  12.466
92035W        W55968  36.961   4.375   4.768
92036W        W55969   0.396  11.707  13.389
92037W        W55970  19.045  17.088  11.492
92038W        W55971   1.249  25.506   3.656
92039W        W55972  14.700  21.544  10.553
92040W        W55973  32.080  24.656   2.721
92041W        W55974  31.098  19.683  10.504
92042W        W55975  16.638  41.938  12.449
92043W        W55976  43.827   6.693  14.312
92044W        W55977  28.061   1.930  13.893
92045W        W55978   1.250  37.864  11.580
92046W        W55979  28.645  41.015  12.394
92047W        W55980  10.803  22.604   3.207
92048W        W55981  44.852  36.422  10.635
92049W        W55982  37.508  21.592   2.880
92050W        W55983  12.800  15.693  10.523
92051W        W55984  17.083   5.358   0.812
92052W        W55985  19.665  17.222  12.882
92053W        W55986  35.447  31.645  14.478
92054W        W55987  33.395  27.650  10.125
92055W        W55988  35.069  43.320  13.809
92056W        W55989  18.596  43.389  13.515
92057W        W55990  23.128  44.856  13.967
92058W        W55991   6.410  14.665   1.836
92059W        W55992  28.544  13.790   4.818
92060W        W55993  14.138   7.217  12.351
92061W        W55994   2.237  36.403   2.356
92062W        W55995  12.678  32.125   1.853
92063W        W55996  21.079  27.150   4.150
92064W        W55997  14.671  41.851  14.486
92065W        W55998  30.080   3.849  13.425
92066W        W55999  36.529  15.634  11.868
92067W        W56000  27.635  34.085   0.369
92068W        W56001  29.175  29.973  11.514
92069W        W56002  37.883  10.238   4.702
92070W        W56003  26.965  18.630   1.224
92071W        W56004   0.429  40.938   0.829
92072W        W56005  41.439  41.320  13.965
92073W        W56006   0.458  28.951   3.169
92074W        W56007  19.682   7.739  10.496
92075W        W56008  11.841  18.673  10.641
92076W        W56009  17.061  20.745  12.350
92077W        W56010  38.974   5.852   4.140
92078W        W56011  12.279  42.285  13.309
92079W        W56012  15.819  21.581  10.432
92080W        W56013  43.010  13.304  11.406
92081W        W56014  30.614  38.833  14.296
92082W        W56015  18.172  39.902  11.547
92083W        W56016  42.806  13.814   0.349
92084W        W56017  32.024  26.165   0.801
92085W        W56018  37.046  22.728   0.321
92086W        W56019   2.395  34.556   3.190
92087W        W56020  37.013  42.799   4.813
92088W        W56021  38.991  25.662   1.872
92089W        W56022  36.405  30.151  10.441
92090W        W56023  34.437  16.275   0.256
92091W        W56024   3.715  25.138  12.951
92092W        W56025  25.542   1.894   2.242
92093W        W56026  24.097  23.087  14.936
92094W        W56027  34.981  33.126   2.270
92095W        W56028  31.089  31.093  11.426
92096W        W56029  12.124  22.698  13.423
92097W        W56030  32.139  11.683  11.914
92098W        W56031  38.378  32.935   1.790
92099W        W56032  30.937  14.686   3.290
92100W        W56033  37.374  20.611  13.527
92101W        W56034  20.653   3.848   3.233
92102W        W56035  43.877  13.803  14.815
92103W        W56036  10.154  33.494   3.203
92104W        W56037  14.689   1.432   1.697
92105W        W56038  40.349  34.548  10.489
92106W        W56039  38.044  12.318   2.219
92107W        W56040   8.203  26.109   0.848
92108W        W56041  29.934  39.901   4.749
92109W        W56042  10.168  16.780   4.269
92110W        W56043  11.752  29.165   1.369
92111W        W56044  44.377  41.790  11.576
92112W        W56045  40.843  13.337  12.549
92113W        W56046  44.335  12.742  10.013
92114W        W56047  13.297  11.135  13.988
92115W        W56048   3.930  19.042   4.244
92116W        W56049  16.804  40.010  10.518
92117W        W56050   2.300  42.866  14.017
92118W        W56051   3.343  22.169  12.850
92119W        W56052  43.818  32.037  13.938
92120W        W56053  21.587   9.389  13.516
92121W        W56054  42.503  37.413  12.429
92122W        W56055  42.818  25.086   2.323
92123W        W56056   9.696  41.497  13.525
92124W        W56057  40.937  42.935  11.571
92125W        W56058   2.278  26.183  13.834
92126W        W56059  12.847   2.441   2.373
92127W        W56060   0.955  34.117  11.426
92128W        W56061  34.931  23.136   0.354
92129W        W56062  32.012  10.743   0.413
92130W        W56063   7.400  14.677  14.849
92131W        W56064  34.391   9.334  13.954
92132W        W56065  10.150   3.837  12.946
92133W        W56066  18.212  31.504  12.548
92134W        W56067  13.691   4.762  12.501
92135W        W56068  35.452   3.736  14.305
92136W        W56069  14.262  38.912  10.554
92137W        W56070  34.567   0.280   4.333
92138W        W56071  32.498  19.220   1.327
92139W        W56072  40.805  39.057   0.276
92140W        W56073  17.567  41.931  10.585
92141W        W56074   7.194  24.030   2.854
92142W        W56075   3.426   1.740  10.554
92143W        W56076   2.900  32.123   0.912
92144W        W56077   2.854   7.672  13.007
92145W        W56078  13.616  41.392   1.403
92146W        W56079  18.263  30.564  12.993
92147W        W56080  37.001  42.870   0.388
92148W        W56081   5.197   1.352  12.952
92149W        W56082  43.006   3.796  14.032
92150W        W56083   0.928  34.569  13.051
92151W        W56084   7.248   1.895   3.358
92152W        W56085   9.363  28.075  10.890
92153W        W56086  41.880  28.950  10.584
92154W        W56087  20.672  22.188  13.370
92155W        W56088   2.447   6.291   0.473
92156W        W56089  22.145  39.970   1.312
92157W        W56090  31.077  13.622   4.286
92158W        W56091   2.323   8.673  12.956
92159W        W56092  11.640  19.725   2.186
92160W        W56093  35.980  18.628  13.325
92161W        W56094   4.370  18.572   0.482
92162W        W56095  38.053   3.948  12.996
92163W        W56096   7.803  43.964  12.925
92164W        W56097  43.970  13.662   0.900
92165W        W56098  25.492   8.168   2.198
92166W        W56099  42.418  21.682   0.864
92167W        W56100  37.024  41.381   0.431
92168W        W56101   9.233  35.858   2.195
92169W        W56102  27.683  26.485  14.016
92170W        W56103  17.302  23.509  11.969
92171W        W56104  18.621  10.659   1.887
92172W        W56105  33.542   4.789  10.936
92173W        W56106  38.006  32.636  13.810
92174W        W56107  41.830   4.904   2.265
92175W        W56108  26.998  26.679   2.408
92176W        W56109  37.049  41.043   3.384
92177W        W56110  10.855  23.583   4.272
92178W        W56111  36.410  14.814   2.240
92179W        W56112  21.573  27.016  12.339
92180W        W56113  21.073  32.920   2.903
92181W        W56114  42.301   8.723   0.913
92182W        W56115  26.122  20.601  12.533
92183W        W56116  27.612  24.536   4.817
92184W        W56117   8.839  19.642   2.734
92185W        W56118  15.597  12.770   2.673
92186W        W56119  22.125  10.355  14.441
92187W        W56120  29.130  41.026  14.296
92188W        W56121   5.760  22.506  12.092
92189W        W56122  28.481   3.277  14.432
92190W        W56123  24.648  42.401  14.891
92191W        W56124  37.015  16.138  10.938
92192W        W56125   0.744  34.386   0.953
92193W        W56126  36.040  14.621   3.849
92194W        W56127  14.737  33.041  13.853
92195W        W56128  35.456  24.123   0.750
92196W        W56129  42.293   9.285   1.240
92197W        W56130  13.351  28.092  12.889
92198W        W56131  11.324  37.963   4.165
92199W        W56132  39.484  44.465  13.001
92200W        W56133  38.975  37.892  12.933
92201W        W56134  34.934   2.369   2.860
92202W        W56135  19.634  25.516  12.034
92203W        W56136  29.506   5.723  14.808
92204W        W56137  26.205  29.585   4.716
92205W        W56138  14.736  23.130  10.427
92206W        W56139  27.620  35.023  13.536
92207W        W56140  12.174  10.188  10.900
92208W        W56141  43.344  19.673  12.445
92209W        W56142  27.958  13.660  12.941
92210W        W56143  40.513  43.275  12.394
92211W        W56144  29.022  30.112  11.864
92212W        W56145  19.226  21.178   0.250
92213W        W56146  37.353  20.712   1.210
92214W        W56147  25.003  24.053  10.907
92215W        W56148  20.690  21.235  14.771
92216W        W56149   3.849  44.869   1.796
92217W        W56150  40.350   8.719   0.430
92218W        W56151  22.720  36.989  13.060
92219W        W56152  29.648   0.488  13.355
92220W        W56153  19.700  42.332  13.982
92221W        W56154  38.961  12.831  13.463
92222W        W56155  15.220   9.161  10.890
92223W        W56156   3.774  35.017   0.966
92224W        W56157  35.963  11.160  12.869
92225W        W56158   7.253  39.345  14.350
92226W        W56159  36.859  25.989   2.234
92227W        W56160  25.010  20.617   2.859
92228W        W56161   9.316  33.946  13.878
92229W        W56162  21.563   5.823   3.773
92230W        W56163  31.533  40.445  12.381
92231W        W56164  11.263   0.442  11.508
92232W        W56165  10.312  32.620  11.857
92233W        W56166  34.454  33.404  11.962
92234W        W56167  44.976   0.285   0.959
92235W        W56168  28.168   7.749   0.729
92236W        W56169  37.009  39.503   4.713
92237W        W56170   1.905  39.482   1.340
92238W        W56171  11.729  38.011   3.358
92239W        W56172  23.696  21.029   4.260
92240W        W56173  23.518  23.209   2.413
92241W        W56174  18.259  16.607   4.152
92242W        W56175  32.626   0.315   1.339
92243W        W56176  44.829  40.539   3.289
92244W        W56177   6.407  44.327   0.948
92245W        W56178  12.615  19.557   0.847
92246W        W56179  13.827  30.968   2.669
92247W        W56180  43.459  39.435   1.286
92248W        W56181  21.566  13.336  14.822
92249W        W56182  13.689  14.669  13.320
92250W        W56183   0.374  41.504  12.497
92251W        W56184  29.638   1.955   1.229
92252W        W56185  40.861  14.726  11.995
92253W        W56186  22.573  20.640  10.499
92254W        W56187  13.184  39.001  11.050
92255W        W56188  28.505  17.586   2.274
92256W        W56189  42.282  26.036   4.654
92257W        W56190  14.613  29.494   1.882
92258W        W56191  21.108  23.591   1.807
92259W        W56192   6.285  27.156  14.002
92260W        W56193  44.362  35.867   3.632
92261W        W56194  32.018  33.396   1.363
92262W        W56195  12.753  28.039   0.838
92263W        W56196   8.168   4.307  14.303
92264W        W56197   4.426   7.249   4.233
92265W        W56198  17.597  11.204  12.393
92266W        W56199  10.662  12.361  13.345
92267W        W56200  38.919  17.614  13.471
92268W        W56201  10.147  16.627   0.835
92269W        W56202  24.110  12.231  11.994
92270W        W56203  21.155  31.611   3.311
92271W        W56204  26.079  28.505  14.834
92272W        W56205  28.030  39.940   1.450
92273W        W56206  15.226  31.417   4.316
92274W        W56207  32.625   4.417  14.399
92275W        W56208  11.256  21.610   1.816
92276W        W56209  37.576  19.129   3.239
92277W        W56210  27.088  33.047   1.716
92278W        W56211   8.728  44.867   3.279
92279W        W56212  14.309  24.122  14.345
92280W        W56213  14.782   2.771  13.858
92281W        W56214  19.116  11.302   2.207
92282W        W56215  20.750   7.893   4.785
92283W        W56216  14.196  38.988   3.686
92284W        W56217  34.976  38.345   2.721
92285W        W56218  30.642  16.138   2.184
92286W        W56219  40.485  32.488   0.736
92287W        W56220  40.446   6.184  14.407
92288W        W56221  33.554  11.287  11.577
92289W        W56222   4.234  29.065  13.824
92290W        W56223  25.035  13.654  11.563
92291W        W56224   7.755  33.978   2.681
92292W        W56225  10.781  42.805  14.961
92293W        W56226   5.247  14.627  14.987
92294W        W56227   0.902  40.309   1.262
92295W        W56228  29.510  16.246  14.997
92296W        W56229  35.545  12.791  14.386
92297W        W56230  23.719  41.313   3.301
92298W        W56231   3.871   7.906   4.338
92299W        W56232  11.325  25.549  13.390
92300W        W56233  30.444  43.500   0.260
92301W        W56234   8.681  29.013   3.680
92302W        W56235  17.285   3.925   3.854
92303W        W56236  31.402  11.654   0.290
92304W        W56237  28.609  30.655  10.602
92305W        W56238  35.568  42.396   4.659
92306W        W56239  14.605  43.803   2.729
92307W        W56240  35.092   3.889   1.765
92308W        W56241   9.703  34.540  13.933
92309W        W56242   2.261  27.037  12.828
92310W        W56243  15.328  25.215  13.910
92311W        W56244  16.753   3.456  14.437
92312W        W56245  21.716  10.799   0.912
92313W        W56246  28.132  40.446   4.311
92314W        W56247  28.010   0.826  10.463
92315W        W56248  39.967  24.705  11.408
92316W        W56249   3.819  19.761  14.449
92317W        W56250  38.899  39.404  14.482
92318W        W56251  21.225  39.444   0.904
92319W        W56252  33.989  18.075   3.816
92320W        W56253  11.797  16.180  11.593
92321W        W56254   3.391   3.217   3.322
92322W        W56255  35.389  32.031   1.725
92323W        W56256  43.276  27.980  14.906
92324W        W56257  15.680  13.624  10.453
92325W        W56258   3.753  30.927  11.938
92326W        W56259  29.983   1.332  10.422
92327W        W56260  30.011  35.033   2.179
92328W        W56261   0.887  29.104   1.424
92329W        W56262  14.179   5.783  13.503
92330W        W56263  21.684  33.085  13.468
92331W        W56264  42.980   4.353  13.873
92332W        W56265  13.711  18.670  13.376
92333W        W56266  17.196  11.799  14.459
92334W        W56267   3.357  25.004  14.383
92335W        W56268  12.238  25.195  14.394
92336W        W56269  32.076  40.333  14.835
92337W        W56270  16.315   9.681   2.809
92338W        W56271   1.809  17.088  10.599
92339W        W56272  12.228   7.803   4.220
92340W        W56273  34.540  21.737  11.090
92341W        W56274  29.977  20.640  12.071
92342W        W56275  10.366  23.091   2.409
92343W        W56276  13.273   1.745  12.902
92344W        W56277  39.997  33.381  11.949
92345W        W56278  11.146  18.109  14.344
92346W        W56279  15.085  44.380  11.073
92347W        W56280  26.165   2.764  11.438
92348W        W56281  39.475  42.872   2.719
92349W        W56282  23.633  37.513  11.887
92350W        W56283   0.491   1.764  10.589
92351W        W56284  38.880  42.949  12.968
92352W        W56285   1.848  29.425   5.168
92353W        W56286  30.089   2.922  12.358
92354W        W56287  37.486  13.623  12.924
92355W        W56288  43.843  29.101  11.393
92356W        W56289  44.351   2.800  11.374
92357W        W56290  12.200  17.729  11.864
92358W        W56291   6.393   2.911  10.032
92359W        W56292  27.086  36.464   3.145
92360W        W56293   4.776  36.007   1.323
92361W        W56294   7.375  32.055  10.478
92362W        W56295  15.628  16.286   1.241
92363W        W56296   4.876   9.208   4.138
92364W        W56297  33.401  39.461  11.598
92365W        W56298   0.799   2.941   4.262
92366W        W56299  35.493  24.485  13.359
92367W        W56300  28.669  31.129   4.249
92368W        W56301  42.791  13.296   0.743
92369W        W56302  22.192  44.930  14.377
92370W        W56303  23.024  23.084  11.453
92371W        W56304  23.125  30.621   3.662
92372W        W56305  23.110  23.729  14.992
92373W        W56306   7.248  33.595  10.485
92374W        W56307  23.111   7.269   4.609
92375W        W56308   6.676  38.433   2.849
92376W        W56309  36.923  11.762   4.149
92377W        W56310   3.420  31.446   2.667
92378W        W56311  41.036  22.708  10.457
92379W        W56312  28.061  25.163   4.276
92380W        W56313  29.005  27.609  12.982
92381W        W56314  28.038  24.510   3.313
92382W        W56315  38.565  40.525   1.271
92383W        W56316   0.278  19.634  13.957
92384W        W56317   9.177  19.771  11.593
92385W        W56318  16.731  24.564  11.009
92386W        W56319  19.633   4.387   0.259
92387W        W56320  43.345  24.579  14.759
92388W        W56321  27.109  14.145  14.450
92389W        W56322  14.749  11.175   4.280
92390W        W56323   6.327   8.330  12.022
92391W        W56324  29.966   2.878   0.477
92392W        W56325  35.464  20.608  11.017
92393W        W56326  18.758  26.598   3.382
92394W        W56327  20.725   9.871   0.870
92395W        W56328  37.508  37.851   2.885
92396W        W56329  37.357  15.671  11.017
92397W        W56330  37.476  43.420   2.821
92398W        W56331  23.617  38.847   3.651
92399W        W56332  31.914  17.282   2.255
92400W        W56333  13.747  34.104   3.295
92401W        W56334   0.816   5.409   4.759
92402W        W56335  19.650   5.416   2.772
92403W        W56336  29.442  12.158  13.843
92404W        W56337   8.398  33.952   2.181
92405W        W56338  36.965  44.440   2.207
92406W        W56339  30.463   5.195  14.448
92407W        W56340  26.574  14.130   1.790
92408W        W56341  24.606  33.459   2.410
92409W        W56342  42.441  37.340   4.345
92410W        W56343  10.753  29.991  13.383
92411W        W56344  28.660  38.454  10.409
92412W        W56345  42.513   0.888   0.395
92413W        W56346   2.900  31.975  14.024
92414W        W56347   8.760  35.079  14.945
92415W        W56348  34.112   7.758  14.880
92416W        W56349  36.494  18.227   1.871
92417W        W56350   8.170   5.268   0.922
92418W        W56351   7.867  33.088  14.917
92419W        W56352  16.785  15.581   3.146
92420W        W56353  27.075  38.413   0.264
92421W        W56354  24.206  24.579   2.724
92422W        W56355  33.076   6.679   2.253
92423W        W56356  13.132  21.021  13.056
92424W        W56357  12.346   3.874   1.929
92425W        W56358  26.468  15.287   4.265
92426W        W56359  20.219  24.700   9.530
92427W        W56360  27.632  36.388  11.116
92428W        W56361  29.981  39.922   2.266
92429W        W56362   9.267  39.962   2.860
92430W        W56363  44.323  16.705  12.500
92431W        W56364   3.289   4.810  10.598
92432W        W56365  15.736   4.321  10.137
92433W        W56366  13.346  27.944   1.272
92434W        W56367  34.568   6.208  12.833
92435W        W56368  12.157  40.454  11.059
92436W        W56369   0.780   3.874  13.947
92437W        W56370  41.017   3.911  13.980
92438W        W56371  28.622  20.201  12.931
92439W        W56372  30.643   5.838  13.482
92440W        W56373  24.610  33.562  14.005
92441W        W56374   8.771  39.873  11.939
92442W        W56375   5.354  22.576   2.283
92443W        W56376  26.463  39.025   3.213
92444W        W56377  30.969  37.512   1.235
92445W        W56378  12.722   3.284   3.748
92446W        W56379  44.260  41.495  13.460
92447W        W56380  37.389  39.017  12.057
92448W        W56381  36.989  20.103  12.564
92449W        W56382  42.895  32.099  12.844
92450W        W56383  26.157   4.880  10.625
92451W        W56384   4.408  13.772   1.806
92452W        W56385  24.092   2.868   1.292
92453W        W56386   2.433  32.078  10.454
92454W        W56387  29.931  30.534   0.297
92455W        W56388  33.472  22.213   1.227
92456W        W56389  39.981  20.642  13.049
92457W        W56390  19.183  10.838   1.750
92458W        W56391  19.616  16.731  11.457
92459W        W56392   7.788  27.116   5.248
92460W        W56393  13.627  38.853  12.391
92461W        W56394  13.157  32.503   4.722
92462W        W56395  23.511   9.850  14.429
92463W        W56396  17.630  14.756   1.252
92464W        W56397  42.803  29.130   4.152
92465W        W56398  36.908  35.094   2.372
92466W        W56399  25.483  42.787  11.588
92467W        W56400   9.697  13.644   1.216
92468W        W56401  38.412  25.028  14.974
92469W        W56402  17.608   8.896  12.938
92470W        W56403  36.524  22.091  11.445
92471W        W56404   6.779   5.308   5.096
92472W        W56405  10.790   3.421  12.042
92473W        W56406  13.178  22.711   2.663
92474W        W56407  39.001  25.158   1.417
92475W        W56408  32.541  24.212   3.798
92476W        W56409   8.254  42.989  10.161
92477W        W56410   9.245  31.481   0.282
92478W        W56411   5.360  23.726  13.013
92479W        W56412  18.590  18.083  12.872
92480W        W56413  44.386  34.536  13.510
92481W        W56414  31.928   3.295  12.078
92482W        W56415  10.256  26.995   3.316
92483W        W56416  24.642   7.288  14.428
92484W        W56417  22.716  37.020   3.807
92485W        W56418  32.592  32.555  10.968
92486W        W56419   9.359  23.510   1.793
92487W        W56420  32.044  24.687  12.448
92488W        W56421   4.248  26.666  11.076
92489W        W56422  43.862   2.364   0.373
92490W        W56423  27.098  36.010   0.824
92491W        W56424  23.579  16.103  14.441
92492W        W56425  40.347  19.226  12.389
92493W        W56426  21.592  22.008   0.772
92494W        W56427  44.293  12.130   2.190
92495W        W56428  42.026  42.283   4.316
92496W        W56429  36.571  11.252   2.245
92497W        W56430  23.628  21.021  11.574
92498W        W56431   8.242  17.241  10.998
92499W        W56432  30.652  33.454  13.911
92500W        W56433   2.351  36.535  10.512
92501W        W56434  26.617  23.241   4.146
92502W        W56435  28.538  28.979  14.293
92503W        W56436  13.676  24.636   3.732
92504W        W56437  24.608  32.486  11.876
92505W        W56438  27.447   3.450   4.279
92506W        W56439  31.129  14.214  10.097
92507W        W56440  40.508  39.530  12.538
92508W        W56441  18.625  39.465  12.566
92509W        W56442  13.695   8.825   0.262
92510W        W56443  27.667   5.339   2.414
92511W        W56444  20.051  40.836   2.781
92512W        W56445  10.265  12.813   2.831
92513W        W56446   0.935  18.233   4.747
92514W        W56447  25.532   5.889   4.693
92515W        W56448  37.370   4.353  11.527
92516W        W56449  28.580  18.263  12.567
92517W        W56450   1.823   4.928   1.802
92518W        W56451  32.071  28.526  10.423
92519W        W56452  16.674  13.664  13.307
92520W        W56453   2.856  39.028  14.434
92521W        W56454  17.601  24.007   0.454
92522W        W56455  40.050  41.298  12.930
92523W        W56456  12.146  16.595   4.798
92524W        W56457   8.175  21.032  14.857
92525W        W56458  21.621  43.019  11.433
92526W        W56459  15.290  18.100  12.444
92527W        W56460   2.270  27.677   0.806
92528W        W56461  10.302  38.336  13.541
92529W        W56462  27.034  25.156  11.559
92530W        W56463  20.240  41.903   1.253
92531W        W56464  11.634  35.860  10.908
92532W        W56465  34.003  11.832  11.994
92533W        W56466  22.725  42.780   0.942
92534W        W56467  28.165  37.052  13.368
92535W        W56468  22.052  44.300   2.311
92536W        W56469  11.218  44.843  10.901
92537W        W56470  40.007  11.777  11.509
92538W        W56471  34.525  33.072   2.661
92539W        W56472  28.554  32.526   4.289
92540W        W56473   4.882  13.159   4.229
92541W        W56474  19.237  13.615   3.643
92542W        W56475  20.583  37.489   1.727
92543W        W56476   2.313  10.739   2.322
92544W        W56477   4.291  11.735   3.726
92545W        W56478  23.124  34.370  14.780
92546W        W56479  33.064  29.594  14.324
92547W        W56480  39.815  34.895   1.322
92548W        W56481  22.089  41.031  13.389
92549W        W56482  38.020  36.081   0.349
92550W        W56483  21.666   0.779   4.605
92551W        W56484  15.187   7.187  10.451
92552W        W56485  29.065  40.540  14.828
92553W        W56486  28.137  31.068   2.816
92554W        W56487  12.734  25.152   3.631
92555W        W56488  16.807  14.102   3.179
92556W        W56489  26.550  38.483   1.324
92557W        W56490  13.126  34.033  12.077
92558W        W56491   5.780  36.453  12.534
92559W        W56492  38.044   8.680  11.954
92560W        W56493   6.785  23.685   2.885
92561W        W56494   3.344   1.845   4.287
92562W        W56495   1.415  32.916  10.992
92563W        W56496   8.859   7.204   4.311
92564W        W56497  38.037  33.039  12.577
92565W        W56498  42.520  19.587  13.062
92566W        W56499  25.552  32.000   4.791
92567W        W56500  41.851  35.425   3.676
92568W        W56501  22.701   3.929   3.652
92569W        W56502  14.641   9.720  14.495
92570W        W56503   2.907   8.773   0.415
92571W        W56504  29.425  17.745  14.847
92572W        W56505  38.394  32.560   3.326
92573W        W56506  26.600  19.249   0.755
92574W        W56507  26.979  33.595   3.222
92575W        W56508  25.215  18.276  10.560
92576W        W56509  44.278  12.856   3.854
92577W        W56510  17.189   9.364   2.201
92578W        W56511  32.126  32.915   9.998
92579W        W56512  15.288   2.760   4.342
92580W        W56513  31.104  14.625  13.014
92581W        W56514  17.632  40.469  13.795
92582W        W56515  41.507  36.077  11.023
92583W        W56516  23.674   8.303   0.856
92584W        W56517  38.871  26.134  13.462
92585W        W56518  18.599  19.647   4.153
92586W        W56519  39.988  29.949  11.482
92587W        W56520  30.983  31.006  10.974
92588W        W56521  25.616  25.662  12.506
92589W        W56522  39.357  11.189  10.548
92590W        W56523  22.138   0.948  13.417
92591W        W56524  44.777  11.828   3.804
92592W        W56525   7.210  30.111   3.209
92593W        W56526   2.889  21.033   1.695
92594W        W56527   5.920  17.145  14.451
92595W        W56528  40.029   4.270   3.251
92596W        W56529   4.266  16.096   4.757
92597W        W56530  24.135   4.934  10.553
92598W        W56531  14.829  32.592  12.075
92599W        W56532  43.430  35.937   4.674
92600W        W56533  26.193   6.197  11.045
92601W        W56534  39.989  37.515   0.812
92602W        W56535  32.007  16.110   0.810
92603W        W56536  24.991   3.889  12.060
92604W        W56537  34.445  23.723   4.294
92605W        W56538  12.813  14.220  13.810
92606W        W56539  14.680  39.360  11.112
92607W        W56540   4.251  34.936  10.924
92608W        W56541  12.254  10.828   0.899
92609W        W56542  14.171   5.399   3.242
92610W        W56543  33.389  19.275  13.845
92611W        W56544  13.770  12.737  10.486
92612W        W56545  29.162  17.615  12.928
92613W        W56546   9.646  32.578  13.485
92614W        W56547  24.071  35.536  12.943
92615W        W56548  32.591   0.793   4.824
92616W        W56549  35.965  36.471  11.437
92617W        W56550  35.394   3.753  11.452
92618W        W56551  22.050  32.068  11.542
92619W        W56552  10.221  15.278  13.031
92620W        W56553   1.302  40.882  13.339
92621W        W56554  42.905   8.387   0.428
92622W        W56555  20.587  17.147  11.439
92623W        W56556  12.614  22.026   1.357
92624W        W56557  18.182   2.456   2.722
92625W        W56558  15.651  20.260   2.266
92626W        W56559  42.803  30.634  10.530
92627W        W56560  16.144  38.978   1.872
92628W        W56561  39.371  30.975   0.427
92629W        W56562  19.078  39.351  12.344
92630W        W56563   7.313  36.970  13.481
92631W        W56564   6.879  30.531  14.286
92632W        W56565  17.252   4.848   4.732
92633W        W56566  28.006  22.161   1.263
92634W        W56567  20.235  35.941  14.295
92635W        W56568  33.947  35.519  13.947
92636W        W56569  38.000   9.152  12.082
92637W        W56570  19.114  38.933   1.237
92638W        W56571  29.046   8.694   0.333
92639W        W56572  13.179  17.611   3.170
92640W        W56573  21.125  18.611   2.677
92641W        W56574  26.497  16.190   2.722
92642W        W56575  28.464  24.056  11.469
92643W        W56576  18.702  33.462   2.720
92644W        W56577  30.936  19.628  13.389
92645W        W56578  10.725   0.906  10.644
92646W        W56579  19.273  29.083  10.450
92647W        W56580   4.256   9.849   4.712
92648W        W56581  23.551  37.005   2.854
92649W        W56582   2.241  21.540  12.885
92650W        W56583   4.326   3.794   0.902
92651W        W56584  35.383   3.827   1.812
92652W        W56585   4.324  44.909  13.970
92653W        W56586   3.353  20.193   3.202
92654W        W56587  23.202  36.414  10.426
92655W        W56588  17.217   4.204   3.768
92656W        W56589  40.044  24.051   0.478
92657W        W56590   8.834   0.489   3.781
92658W        W56591  41.874  28.076  14.804
92659W        W56592  42.379  15.618   3.699
92660W        W56593  31.477  13.114   2.718
92661W        W56594   5.792   0.378  13.907
92662W        W56595   9.647  28.575  10.502
92663W        W56596  43.286  28.516  10.643
92664W        W56597  40.820  43.946   2.848
92665W        W56598  22.548  35.963   3.185
92666W        W56599  25.586  18.194  14.374
92667W        W56600  35.444  11.227   1.751
92668W        W56601  35.931  39.393   3.300
92669W        W56602   1.313  39.988  13.505
92670W        W56603   6.816   9.885  10.417
92671W        W56604  11.690  31.902   1.758
92672W        W56605  35.571  43.771   3.791
92673W        W56606  23.513  19.155   4.618
92674W        W56607  16.748  11.689   2.903
92675W        W56608  14.825   7.846   4.306
92676W        W56609  43.928   5.348   3.851
92677W        W56610  37.080   2.795  12.357
92678W        W56611  35.949   6.242  12.413
92679W        W56612  36.901  26.972   0.873
92680W        W56613  27.030  41.523  10.030
92681W        W56614  11.778   9.184   0.414
92682W        W56615  36.387  35.100  14.853
92683W        W56616  15.130  26.014  13.426
92684W        W56617  36.083  30.464  14.434
92685W        W56618   4.741   2.354  11.892
92686W        W56619  28.568  16.775  13.422
92687W        W56620  24.202  13.813   3.641
92688W        W56621   5.922  22.522  14.003
92689W        W56622  43.403  33.505   4.262
92690W        W56623  28.596  28.072   4.126
92691W        W56624  28.618  12.225  13.329
92692W        W56625  15.715  43.940   0.478
92693W        W56626  35.583  20.154  12.040
92694W        W56627   5.786   9.274   0.873
92695W        W56628  44.476  21.696   1.802
92696W        W56629  28.509  24.556   3.771
92697W        W56630  40.373   1.926   0.258
92698W        W56631  17.227  31.961   0.748
92699W        W56632  40.900  10.359   0.419
92700W        W56633   5.313  23.044   2.283
92701W        W56634   5.707  23.039  13.351
92702W        W56635   5.917  10.752  13.456
92703W        W56636  22.687  29.086   0.259
92704W        W56637  35.029  10.834   3.844
92705W        W56638  36.369  27.643  10.907
92706W        W56639  14.668   1.974  14.360
92707W        W56640  31.054  34.031   3.631
92708W        W56641  31.433  39.014   3.782
92709W        W56642  44.338  32.026   1.694
92710W        W56643   8.849  37.897  13.033
92711W        W56644  34.048  34.901  10.454
92712W        W56645  30.559  26.185  12.881
92713W        W56646   8.249  25.668  14.438
92714W        W56647   6.765  40.038   3.294
92715W        W56648   2.373  40.370   0.334
92716W        W56649   7.250  22.588  13.541
92717W        W56650  30.453   1.469  10.419
92718W        W56651  35.569  14.678  13.393
92719W        W56652  37.559  10.878   1.827
92720W        W56653   3.265   8.886  14.298
92721W        W56654  44.323  16.780   1.344
92722W        W56655  40.316  27.618   4.816
92723W        W56656   9.773  40.534   4.327
92724W        W56657  26.113  18.241  12.048
92725W        W56658  18.617  34.486  12.352
92726W        W56659   3.845  42.970   1.757
92727W        W56660  25.631  27.570  11.418
92728W        W56661  29.138  21.059  14.834
92729W        W56662  28.980  29.509   3.838
92730W        W56663  20.207  17.261  12.358
92731W        W56664  18.172   0.835  11.974
92732W        W56665  29.494  41.846   2.733
92733W        W56666  15.647  37.493   0.806
92734W        W56667  35.886  27.449   2.847
92735W        W56668  15.755  38.977   1.217
92736W        W56669  38.851   5.439  12.433
92737W        W56670  15.584  32.396   4.789
92738W        W56671  32.124  41.447  14.302
92739W        W56672  25.184  32.513  14.000
92740W        W56673  15.742  20.163  10.101
92741W        W56674  27.656  39.422   4.351
92742W        W56675   2.808   3.403   3.639
92743W        W56676  26.587  29.997   3.742
92744W        W56677   9.756  22.554   2.227
92745W        W56678   0.886  13.675  14.812
92746W        W56679  14.201  35.415  11.868
92747W        W56680   6.794  17.118   0.271
92748W        W56681  14.763  34.398  14.948
92749W        W56682   3.255  26.083  12.899
92750W        W56683  20.709  32.971  10.481
92751W        W56684  16.584  15.292  14.474
92752W        W56685   2.376  33.461  14.340
92753W        W56686  10.856  34.925  14.485
92754W        W56687  37.373   6.820  11.568
92755W        W56688  36.991   8.754   4.352
92756W        W56689  14.189  40.975  12.427
92757W        W56690  35.084  37.998  10.512
92758W        W56691  16.776   5.354   2.730
92759W        W56692   5.907   7.227  14.867
92760W        W56693   8.267  33.082  11.015
92761W        W56694   7.306  31.025  10.912
92762W        W56695  12.648  16.118  11.097
92763W        W56696  27.679  33.094  12.019
92764W        W56697  10.828  11.316  14.018
92765W        W56698   4.390  21.208  10.405
92766W        W56699  29.052  28.579   3.290
92767W        W56700   2.779   0.430  11.019
92768W        W56701  33.483  28.144   0.335
92769W        W56702  37.463  14.622  11.437
92770W        W56703  12.149   7.788   9.928
92771W        W56704  16.300  38.459   2.194
92772W        W56705   8.327  23.134  11.410
92773W        W56706  23.210  28.027   1.245
92774W        W56707  18.250  27.970   5.099
92775W        W56708  44.009  10.182  10.426
92776W        W56709   0.825  43.965   1.897
92777W        W56710   3.423  22.103   3.199
92778W        W56711  10.326   9.275  14.831
92779W        W56712  13.335   6.414  14.811
92780W        W56713  20.272  31.143  14.510
92781W        W56714  17.081  26.039   1.359
92782W        W56715  19.280  21.063  14.352
92783W        W56716   3.743  14.768   4.146
92784W        W56717  10.317   6.780  13.505
92785W        W56718  33.487  28.451   2.202
92786W        W56719  31.938  27.981  13.941
92787W        W56720  34.965  40.523  11.001
92788W        W56721  39.822   2.226  10.600
92789W        W56722   6.343   4.722  14.869
92790W        W56723  35.061  29.106   0.870
92791W        W56724  27.643  24.614   1.908
92792W        W56725   4.366  27.095   1.710
92793W        W56726   4.206  25.115   4.771
92794W        W56727  39.354  39.852   4.174
92795W        W56728  42.457  42.822   3.161
92796W        W56729  40.799  27.972  14.516
92797W        W56730  20.152  25.982  11.906
92798W        W56731  41.505   1.347  14.776
92799W        W56732   0.921  21.155   0.926
92800W        W56733  33.531  25.604  11.502
92801W        W56734  43.419   2.883   1.850
92802W        W56735  27.036  38.856   2.782
92803W        W56736  14.253  20.159   2.283
92804W        W56737  39.370  39.509   0.442
92805W        W56738   7.803  22.550   9.958
92806W        W56739  33.976  28.081   3.207
92807W        W56740   6.905   2.945   4.737
92808W        W56741   1.861   3.425   4.645
92809W        W56742  10.736  43.788  12.038
92810W        W56743  14.739  31.985  11.980
92811W        W56744  23.686   0.809   4.633
92812W        W56745  23.719  32.510  10.609
92813W        W56746  44.911   3.300  12.896
92814W        W56747   5.203  26.693   4.831
92815W        W56748  22.142  28.573  11.976
92816W        W56749  14.769  13.197   1.827
92817W        W56750  37.928  37.964   2.682
92818W        W56751  19.752  24.655   5.268
92819W        W56752   6.385  33.398   5.167
92820W        W56753  26.132   6.723  11.580
92821W        W56754  36.959   7.398   2.817
92822W        W56755  17.224  32.601  12.979
92823W        W56756   7.689  12.163  14.822
92824W        W56757  23.075  24.616   4.616
92825W        W56758  44.853   3.746  13.960
92826W        W56759  41.885  39.021  10.894
92827W        W56760  41.844  17.146  12.547
92828W        W56761  40.350   2.389   2.751
92829W        W56762  23.630   5.752   4.735
92830W        W56763  42.390  37.850   1.872
92831W        W56764  34.526  20.054   3.196
92832W        W56765  37.870  26.473  13.327
92833W        W56766   2.299   2.935   3.658
92834W        W56767  30.472  25.608   2.192
92835W        W56768  43.398   3.357  11.859
92836W        W56769  30.949  35.975  10.908
92837W        W56770  18.588  31.018   2.243
92838W        W56771  17.739   8.860  12.081
92839W        W56772  33.917  22.124   4.232
92840W        W56773  26.583   0.456   2.866
92841W        W56774   9.876  40.906  10.631
92842W        W56775  31.596  34.928   0.455
92843W        W56776  26.692  19.610  14.336
92844W        W56777  13.770  32.535   0.302
92845W        W56778  14.187  30.056   2.230
92846W        W56779  10.750  37.885   0.475
92847W        W56780  12.829  36.559   0.925
92848W        W56781  12.748  20.133  13.444
92849W        W56782  10.263  27.595  10.622
92850W        W56783  13.255  20.153  11.995
92851W        W56784  41.382  12.619  13.470
92852W        W56785  40.531   2.404   3.803
92853W        W56786  13.633  10.758   2.268
92854W        W56787  43.824  39.518  14.943
92855W        W56788   3.766  38.893  10.086
92856W        W56789  34.539  41.835  12.959
92857W        W56790  32.633  31.962   3.291
92858W        W56791  18.712  24.710  14.452
92859W        W56792  18.779  34.575  11.472
92860W        W56793  42.477   3.368   0.798
92861W        W56794  38.928  24.565  12.875
92862W        W56795  22.610  23.640   0.876
92863W        W56796  12.192  13.286   0.379
92864W        W56797  18.080   3.359   0.882
92865W        W56798   4.389  14.140   9.608
92866W        W56799  33.422  40.524   3.153
92867W        W56800  22.740  39.813   1.776
92868W        W56801  31.019   1.950   2.371
92869W        W56802   2.439  37.028   0.249
92870W        W56803  33.929   0.957   4.761
92871W        W56804   3.412  37.437   4.600
92872W        W56805  31.564  16.159   3.720
92873W        W56806  36.018   8.727   1.895
92874W        W56807   7.370  41.811   4.206
92875W        W56808  11.240  28.038  11.857
92876W        W56809  21.732  18.104   0.297
92877W        W56810   5.413  33.079  13.912
92878W        W56811   8.235  43.987  10.952
92879W        W56812  15.322  37.977  14.944
92880W        W56813  19.739  18.115   3.280
92881W        W56814   6.871  11.687   2.272
92882W        W56815  26.195  17.703   1.697
92883W        W56816  20.085  13.309  12.018
92884W        W56817  30.118  28.575   1.812
92885W        W56818  41.393  11.180  13.842
92886W        W56819  23.689  36.865  12.484
92887W        W56820   2.467  26.678  13.822
92888W        W56821  28.523  38.010   1.247
92889W        W56822  32.494  35.516  12.069
92890W        W56823  23.022   9.313  10.934
92891W        W56824  44.805   9.345   2.713
92892W        W56825  40.442  14.216  12.571
92893W        W56826   3.900   5.394   4.808
92894W        W56827  27.562  21.696  11.947
92895W        W56828  21.653  29.145   3.834
92896W        W56829  28.186  44.483   3.177
92897W        W56830  29.944  26.159  11.046
92898W        W56831  12.200  44.485  14.421
92899W        W56832   9.182   6.351   1.333
92900W        W56833  21.052  10.725   3.168
92901W        W56834  14.772  10.688   0.819
92902W        W56835  30.142  31.444  12.417
92903W        W56836   3.928  36.353   1.744
92904W        W56837  31.607  40.376  10.631
92905W        W56838  25.582  27.462   4.609
92906W        W56839  43.464  38.461  14.927
92907W        W56840  11.251   6.890  13.959
92908W        W56841  10.657  40.822   1.254
92909W        W56842  41.934  18.265   2.840
92910W        W56843  31.954   2.305   5.092
92911W        W56844   9.762  37.039  13.924
92912W        W56845  15.311  16.731  10.009
92913W        W56846  15.175  24.663  10.403
92914W        W56847   7.375  21.170  14.361
92915W        W56848  35.017  23.235   3.222
92916W        W56849  23.717  21.564  14.378
92917W        W56850  18.549   0.831   4.805
92918W        W56851  14.242   1.357   1.741
92919W        W56852  25.200   5.745   4.608
92920W        W56853  28.077  15.820  13.994
92921W        W56854  24.486   7.783   0.243
92922W        W56855   0.435   9.162  14.902
92923W        W56856  22.241  38.532  14.858
92924W        W56857   5.761   2.354   4.645
92925W        W56858  33.431  41.507   3.197
92926W        W56859  10.878  18.668  10.516
92927W        W56860  12.140  38.560  11.991
92928W        W56861  18.060  44.334   2.766
92929W        W56862  19.634   1.266   3.280
92930W        W56863  38.870  31.122   3.679
92931W        W56864   2.776  33.430  14.900
92932W        W56865  20.715   5.430   2.301
92933W        W56866  35.375   7.396   1.360
92934W        W56867  20.546  22.725  14.403
92935W        W56868  28.013  33.495  13.358
92936W        W56869  13.184  10.829   1.810
92937W        W56870  36.005  44.426   3.864
92938W        W56871   0.873  28.060  10.610
92939W        W56872  29.953  41.919  10.930
92940W        W56873  40.009   9.793   3.687
92941W        W56874  34.381  21.032   4.726
92942W        W56875  22.709   5.279   2.698
92943W        W56876  31.023  10.159  14.274
92944W        W56877  15.203   3.444   4.681
92945W        W56878  41.322  23.238  12.478
92946W        W56879   2.456  28.961  14.032
92947W        W56880  13.241  34.031   0.368
92948W        W56881  37.893  15.799  14.799
92949W        W56882  22.631  10.744   2.266
92950W        W56883  28.470  39.905   0.738
92951W        W56884  21.673   7.254   2.281
92952W        W56885  40.812  35.408   1.784
92953W        W56886  40.987  31.442   1.329
92954W        W56887  23.994  33.578   1.445
92955W        W56888  12.312  10.292  11.419
92956W        W56889  17.197  34.371  14.289
92957W        W56890  21.713  29.632  14.962
92958W        W56891  34.113  22.713   2.865
92959W        W56892  32.461  30.971  14.935
92960W        W56893  42.031  30.465   0.261
92961W        W56894   2.877  18.205   2.753
92962W        W56895  19.619  32.084   5.210
92963W        W56896   4.906   1.975   0.291
92964W        W56897   9.331   3.882   3.379
92965W        W56898   1.346  10.649   0.915
92966W        W56899  16.796  12.721  14.340
92967W        W56900  21.145  14.648   0.374
92968W        W56901  19.286   9.388   1.929
92969W        W56902  15.739  31.443  13.001
92970W        W56903   1.264  10.160  10.960
92971W        W56904  31.644   0.886   0.789
92972W        W56905  36.019  31.957   5.133
92973W        W56906  29.992   0.923   1.775
92974W        W56907  37.944   7.900  12.086
92975W        W56908  17.200   3.947   1.237
92976W        W56909  39.897  32.458   0.740
92977W        W56910  37.831  25.531   3.173
92978W        W56911   1.790   9.715  13.361
92979W        W56912  15.712  27.141  14.837
92980W        W56913   3.281  41.988   3.262
92981W        W56914   4.924  25.708   2.254
92982W        W56915  26.679  16.709  10.631
92983W        W56916   3.799  18.156  10.101
92984W        W56917  44.421  30.562  11.075
92985W        W56918  11.684   4.882  10.026
92986W        W56919  32.106  20.736  14.306
92987W        W56920  16.651  27.019  11.452
92988W        W56921  18.704  41.000   1.755
92989W        W56922  22.028   3.777   0.345
92990W        W56923   2.966  23.213   1.234
92991W        W56924   9.298  34.597   1.427
92992W        W56925   1.817   9.659  11.108
92993W        W56926   3.278  13.635  11.512
92994W        W56927  42.014   4.740  10.521
92995W        W56928  37.403  39.496  12.522
92996W        W56929  38.988   8.768  10.899
92997W        W56930  22.211   0.249  13.044
92998W        W56931  33.565   9.782   2.197
92999W        W56932  12.337  27.476  13.373
93000W        W56933  11.769  15.800   3.310
93001W        W56934  42.341   8.867  13.411
93002W        W56935  31.010  29.034  12.043
93003W        W56936  34.930   8.194  12.031
93004W        W56937  23.013  38.888   4.280
93005W        W56938  30.078  20.670   0.758
93006W        W56939  11.631  34.495  11.860
93007W        W56940  15.785  37.028  10.483
93008W        W56941  37.928  25.205   3.809
93009W        W56942  16.567  38.055  14.818
93010W        W56943  22.585  13.127   0.737
93011W        W56944  34.374  14.158  12.861
93012W        W56945  15.150  23.640  13.854
93013W        W56946  36.441   3.751  11.090
93014W        W56947  31.604   1.899  11.432
93015W        W56948   4.436  13.143  12.965
93016W        W56949  34.049  16.703   2.669
93017W        W56950  31.646  16.274  10.454
93018W        W56951  23.002  17.104  12.565
93019W        W56952  32.899  29.566   4.662
93020W        W56953  36.049  39.326  10.423
93021W        W56954  17.295  27.101   5.312
93022W        W56955   7.675  11.176   3.377
93023W        W56956  43.796  36.524  14.883
93024W        W56957   4.802  15.640  11.464
93025W        W56958  22.577  11.665   0.396
93026W        W56959   3.776  21.566   0.810
93027W        W56960   2.965  31.130  10.547
93028W        W56961  37.504   4.935   2.190
93029W        W56962   8.217  21.191  12.063
93030W        W56963  43.986  29.465  13.059
93031W        W56964  17.127  39.533  13.023
93032W        W56965  10.155  35.430  11.037
93033W        W56966  15.715  17.272  10.154
93034W        W56967   4.936  25.511   3.353
93035W        W56968   6.856  40.957  11.513
93036W        W56969  20.134  32.964   1.728
93037W        W56970  11.197  26.183  11.114
93038W        W56971  39.898  23.004  12.986
93039W        W56972  12.647  24.566  11.596
93040W        W56973  15.580  12.274  14.819
93041W        W56974  28.473  10.788   4.599
93042W        W56975  35.440  11.175  13.880
93043W        W56976   3.861   2.457   1.750
93044W        W56977  40.429  39.897   4.207
93045W        W56978   2.809  41.428   1.276
93046W        W56979  40.900  21.614  12.835
93047W        W56980  18.203  17.098  11.907
93048W        W56981  17.266   2.770   1.325
93049W        W56982  41.007  23.544   1.256
93050W        W56983  39.469  15.755   4.759
93051W        W56984   1.401  39.426  12.535
93052W        W56985   3.361  22.512   0.357
93053W        W56986  29.127  29.981   1.400
93054W        W56987  35.439  41.316  11.031
93055W        W56988  37.003  30.589   2.313
93056W        W56989  23.046  39.934   0.747
93057W        W56990   7.779  37.399   3.711
93058W        W56991  32.107  28.477   1.701
93059W        W56992  19.775  23.995  13.331
93060W        W56993  16.649  41.002  13.985
93061W        W56994  32.128   8.222  14.973
93062W        W56995  36.377   4.788  11.445
93063W        W56996  14.794  31.014   4.224
93064W        W56997  24.595   4.337   4.763
93065W        W56998  32.960   5.768  12.431
93066W        W56999  10.313  21.581  12.052
93067W        W57000   8.217  35.603   1.922
93068W        W57001   5.815  28.536  14.783
93069W        W57002   5.708   6.305  11.597
93070W        W57003  34.594  13.653   3.694
93071W        W57004  15.292  43.886   3.805
93072W        W57005   4.707   4.804  13.337
93073W        W57006  38.374  41.376   1.815
93074W        W57007  26.530   8.284   1.353
93075W        W57008   0.932   9.770   3.826
93076W        W57009   4.235  32.530  10.428
93077W        W57010  44.943  23.167  12.979
93078W        W57011  21.128  18.677  10.570
93079W        W57012   4.297  36.972  13.488
93080W        W57013   9.183  16.258   1.757
93081W        W57014  13.140   4.240   3.270
93082W        W57015   2.252  40.498  12.513
93083W        W57016   6.237  30.481  11.994
93084W        W57017  22.051  18.749  13.543
93085W        W57018   0.493  29.026   3.733
93086W        W57019  25.055  21.596   1.437
93087W        W57020  27.637  32.436  11.960
93088W        W57021  14.750  40.337   0.407
93089W        W57022  31.057  31.023   2.342
93090W        W57023  11.150  31.143  14.821
93091W        W57024   4.248  37.968   1.848
93092W        W57025   1.437  16.296  13.952
93093W        W57026  10.750  18.603  14.362
93094W        W57027  40.851  40.960   0.811
93095W        W57028  43.367  28.587   1.858
93096W        W57029  40.940  13.693   2.195
93097W        W57030  35.934  20.741   2.893
93098W        W57031  14.780   1.357   3.820
93099W        W57032   7.255   7.695  11.076
93100W        W57033   4.342   6.695  13.828
93101W        W57034  10.674  33.057   0.728
93102W        W57035  25.617  19.093   4.116
93103W        W57036  28.102  17.169  13.415
93104W        W57037  34.380  14.824  10.443
93105W        W57038   4.733  28.968  12.039
93106W        W57039  31.954   0.413   2.792
93107W        W57040  37.900  20.122   2.709
93108W        W57041   0.286  37.460   0.315
93109W        W57042  13.119  15.586  14.013
93110W        W57043  30.962  30.068  10.569
93111W        W57044  15.267  16.578  10.559
93112W        W57045  33.907  36.039   4.268
93113W        W57046   7.804  39.881   1.243
93114W        W57047  24.210  30.633  10.524
93115W        W57048  40.375  16.295   1.405
93116W        W57049   3.805   0.356   3.868
93117W        W57050  19.556  33.004   4.286
93118W        W57051  28.523  24.490  10.556
93119W        W57052  22.016   3.884  10.569
93120W        W57053  31.097  21.165   4.788
93121W        W57054   7.763  23.044   3.678
93122W        W57055  18.274  16.088   0.434
93123W        W57056  32.957  25.596   1.779
93124W        W57057  33.408   4.806   0.437
93125W        W57058   5.779  25.132  11.585
93126W        W57059  30.114   0.888   0.388
93127W        W57060  24.600  14.628   0.474
93128W        W57061  38.394  11.129   0.853
93129W        W57062  42.483  19.123   3.658
93130W        W57063  34.602  31.498   1.405
93131W        W57064  17.733  36.970   3.355
93132W        W57065  26.605   8.186  12.891
93133W        W57066  25.635  33.511   0.940
93134W        W57067  40.488  19.651  13.363
93135W        W57068   2.948   6.204   2.310
93136W        W57069  14.244   8.655  10.978
93137W        W57070   5.427  24.517   1.369
93138W        W57071   3.946  15.729  11.439
93139W        W57072  42.448  37.955   2.363
93140W        W57073  15.141  28.609  11.069
93141W        W57074  18.282  31.629   0.863
93142W        W57075  34.004  22.523   0.770
93143W        W57076  14.240   4.383   3.722
93144W        W57077  27.074   9.730   3.740
93145W        W57078  26.673  27.024  14.802
93146W        W57079  27.116  35.887  12.911
93147W        W57080   4.844  21.024  13.840
93148W        W57081  30.945  22.202   3.629
93149W        W57082   5.380   5.243  13.413
93150W        W57083  31.992   2.931  12.984
93151W        W57084  14.289  32.426  10.490
93152W        W57085  15.765  22.610  14.990
93153W        W57086  32.919  13.753  12.495
93154W        W57087  39.974  16.743   2.220
93155W        W57088   6.366  12.846  11.544
93156W        W57089   7.833  14.273  15.000
93157W        W57090  39.375  19.745  13.479
93158W        W57091  34.089  43.503   1.261
93159W        W57092  14.832   3.912  13.430
93160W        W57093   2.856  20.204   3.686
93161W        W57094   8.341  17.263   4.694
93162W        W57095  10.862   1.742  11.939
93163W        W57096   7.806  31.982   4.816
93164W        W57097  25.994  21.250  11.118
93165W        W57098   6.850  38.376  11.497
93166W        W57099  34.902  37.441   0.816
93167W        W57100  27.578  12.740  11.537
93168W        W57101  23.174  33.601   2.354
93169W        W57102  13.731  40.972   4.319
93170W        W57103  16.668  31.470  13.429
93171W        W57104  30.920  35.080   2.861
93172W        W57105  23.025  41.319   4.812
93173W        W57106   9.802  26.130  10.030
93174W        W57107  28.994  37.549   0.350
93175W        W57108  27.574  32.125   0.353
93176W        W57109  25.147   8.885  10.460
93177W        W57110  22.110  34.058  10.598
93178W        W57111  14.163  13.771   2.820
93179W        W57112  35.950  36.470  13.498
93180W        W57113  15.720   4.429   3.729
93181W        W57114  32.894  24.138   2.887
93182W        W57115   7.677  44.383  13.990
93183W        W57116  35.901   5.768   3.850
93184W        W57117   6.680  18.694  14.305
93185W        W57118  26.952  27.559  13.445
93186W        W57119  29.488   0.916   1.857
93187W        W57120  31.477  43.977  10.515
93188W        W57121   2.824  25.086   2.302
93189W        W57122  19.765  18.726  13.544
93190W        W57123   5.730   2.307   2.418
93191W        W57124  34.015  42.815   1.248
93192W        W57125  37.023  24.072   1.267
93193W        W57126  30.613   0.259  13.821
93194W        W57127  14.646  40.313  12.968
93195W        W57128   4.737  35.538  11.493
93196W        W57129   2.792  27.544   2.757
93197W        W57130   2.762  24.201  14.900
93198W        W57131  24.523  43.898   0.932
93199W        W57132  27.445  40.421  12.861
93200W        W57133  14.703   1.901   2.776
93201W        W57134   1.926  41.858   1.803
93202W        W57135  23.037   9.831  10.610
93203W        W57136   1.388   5.433   0.460
93204W        W57137  44.914  29.517   1.794
93205W        W57138   3.401   6.394   4.701
93206W        W57139  33.450  13.118   2.884
93207W        W57140   8.196   5.327   2.731
93208W        W57141  19.588  11.690  14.020
93209W        W57142  32.422  29.555   3.274
93210W        W57143  24.081   0.383   3.718
93211W        W57144  41.795  23.032  14.952
93212W        W57145  13.795  25.548   1.810
93213W        W57146  44.848  38.987  12.471
93214W        W57147   8.840  33.479  14.332
93215W        W57148   8.266  22.536   1.828
93216W        W57149   6.377  35.904  14.278
93217W        W57150  30.442   9.713  11.886
93218W        W57151  39.494   4.356  13.905
93219W        W57152  25.568  43.819  11.920
93220W        W57153  31.141   9.810  14.381
93221W        W57154   8.795  10.306   4.295
93222W        W57155  32.433  27.517  13.885
93223W        W57156  19.223  15.227   3.817
93224W        W57157   2.841   7.353   4.621
93225W        W57158  34.002  35.420   1.299
93226W        W57159  24.156   1.303  13.935
93227W        W57160  40.037  26.174  10.496
93228W        W57161  26.674  21.599   0.770
93229W        W57162  14.177  11.308  11.609
93230W        W57163  39.431   2.783   0.386
93231W        W57164  28.630  19.226  12.353
93232W        W57165   4.240   4.420  12.947
93233W        W57166  24.134   5.738   4.698
93234W        W57167   1.376   3.244   1.272
93235W        W57168  19.764  40.534   4.234
93236W        W57169  36.882  33.422   0.345
93237W        W57170   3.230  34.614  12.838
93238W        W57171   5.224  37.010  13.886
93239W        W57172  35.941  16.699  11.943
93240W        W57173  37.554  17.269   2.771
93241W        W57174   5.726   2.852  10.912
93242W        W57175   9.709   2.437  12.493
93243W        W57176  42.476   4.781  11.547
93244W        W57177  12.663   7.668  13.939
93245W        W57178  15.241  13.697   1.915
93246W        W57179  13.657  24.202  10.450
93247W        W57180   4.303  28.960   3.698
93248W        W57181  34.914  30.435   3.324
93249W        W57182  14.334   5.748  10.991
93250W        W57183  15.136  26.017  14.369
93251W        W57184  27.503  32.392   3.202
93252W        W57185  11.196  23.044   2.744
93253W        W57186  28.457  25.997   3.705
93254W        W57187  14.773  33.118  13.548
93255W        W57188  33.615  18.194  11.566
93256W        W57189  31.557  43.307  14.441
93257W        W57190   3.731  23.021  14.409
93258W        W57191  13.125  40.044  13.964
93259W        W57192  19.734   4.917  13.813
93260W        W57193   7.325  19.222  13.830
93261W        W57194  13.130  17.172   4.671
93262W        W57195  37.053   8.784  10.497
93263W        W57196   9.723  36.877  10.581
93264W        W57197  25.599  40.861  14.496
93265W        W57198  18.057  34.028  14.313
93266W        W57199  33.569   9.191  14.992
93267W        W57200  21.165  24.032  12.914
93268W        W57201  17.659  36.952  11.066
93269W        W57202  35.079  21.541   4.287
93270W        W57203   0.472  18.715  12.469
93271W        W57204   1.471  25.579  12.910
93272W        W57205  38.833  43.323   1.228
93273W        W57206   7.248  23.563  10.081
93274W        W57207  27.555  32.896  14.301
93275W        W57208  31.416  12.660  14.460
93276W        W57209  20.153   0.481   1.742
93277W        W57210  14.593  23.123   0.331
93278W        W57211  43.811  18.688   2.664
93279W        W57212  37.492  44.377  14.364
93280W        W57213   0.845  22.515  10.146
93281W        W57214   5.807  21.025   0.835
93282W        W57215  13.213   3.822   3.638
93283W        W57216  42.799   3.367   3.829
93284W        W57217  20.717  37.351   3.793
93285W        W57218   5.370  14.751  11.042
93286W        W57219  33.444  30.572   1.783
93287W        W57220  35.972  44.830  13.030
93288W        W57221  19.752  12.272  14.415
93289W        W57222   4.891  36.423   3.303
93290W        W57223  19.659  12.339  10.451
93291W        W57224  41.826  42.459  12.506
93292W        W57225  15.582  20.635   2.760
93293W        W57226  29.949  22.585  11.885
93294W        W57227  23.233  11.676   1.289
93295W        W57228  43.932  18.294  11.412
93296W        W57229  35.878  11.196  11.861
93297W        W57230  14.678  34.110  12.916
93298W        W57231  44.935  39.316  10.416
93299W        W57232  39.048  19.593  10.561
93300W        W57233  12.819  25.596  14.398
93301W        W57234  10.233   1.470   4.604
93302W        W57235   4.287   7.902  12.037
93303W        W57236   6.245  11.350   4.628
93304W        W57237  44.480  37.462  13.329
93305W        W57238   9.745  42.298   1.315
93306W        W57239  17.655  12.242  14.472
93307W        W57240   3.229  29.044  12.463
93308W        W57241  18.180   8.686  14.465
93309W        W57242  39.406  44.467  14.491
93310W        W57243  27.131   1.745  12.485
93311W        W57244  34.102  27.029  12.388
93312W        W57245  21.073  16.569  12.836
93313W        W57246  25.003  23.996   0.944
93314W        W57247  29.632  27.015  12.863
93315W        W57248  13.127  13.297  12.038
93316W        W57249  12.752  27.468   2.377
93317W        W57250  39.065  13.618   1.867
93318W        W57251  26.067  34.073   3.160
93319W        W57252  29.443   5.336  13.861
93320W        W57253  21.641  36.942   1.252
93321W        W57254  13.631  44.853  11.407
93322W        W57255  29.066  28.025   3.632
93323W        W57256  12.694  10.164   4.274
93324W        W57257  18.163  41.311  13.374
93325W        W57258   3.761  21.752   2.397
93326W        W57259  12.117  32.615  12.936
93327W        W57260  26.548  38.394   3.716
93328W        W57261  34.040  14.101  10.407
93329W        W57262   6.342  10.216  12.986
93330W        W57263   7.748   2.243  12.959
93331W        W57264  13.624  25.974   3.797
93332W        W57265  41.826  21.054  10.985
93333W        W57266  36.024  27.028   2.225
93334W        W57267  35.590  34.032   4.649
93335W        W57268  35.022  19.644   5.268
93336W        W57269  37.955  14.188  14.371
93337W        W57270  42.316  31.142  13.963
93338W        W57271  28.621  38.054  14.498
93339W        W57272  35.980   7.906   4.235
93340W        W57273   6.367  41.846   0.305
93341W        W57274  27.012  23.678  14.418
93342W        W57275  28.154  42.982   4.127
93343W        W57276  19.138  41.381  12.010
93344W        W57277  17.285  10.809  10.910
93345W        W57278  31.949   2.305  14.833
93346W        W57279   4.830  39.322  12.542
93347W        W57280  29.650  25.196  13.503
93348W        W57281  16.147  15.212   4.625
93349W        W57282  11.328  36.568   4.658
93350W        W57283   5.729  35.403  14.325
93351W        W57284  13.142   9.838  12.066
93352W        W57285  10.143  31.532   4.654
93353W        W57286  26.662   3.409  13.516
93354W        W57287   9.655   2.248  14.487
93355W        W57288  16.683  28.967  10.452
93356W        W57289  33.625  28.097  11.572
93357W        W57290  28.611   1.355   3.783
93358W        W57291  37.355  21.066  13.937
93359W        W57292  40.361  43.347   0.808
93360W        W57293  43.980   9.649  10.989
93361W        W57294  37.853   8.223  14.921
93362W        W57295   4.337  36.841   0.737
93363W        W57296  18.136   4.887  14.021
93364W        W57297   9.253  41.411  14.982
93365W        W57298  21.646  28.102   0.770
93366W        W57299  14.671  38.920  13.510
93367W        W57300  43.802  42.775   0.903
93368W        W57301  17.789  34.891  12.005
93369W        W57302  21.229   2.390  12.344
93370W        W57303   2.824  40.484   3.641
93371W        W57304  23.994  22.508  13.868
93372W        W57305   4.769  43.270  11.905
93373W        W57306   4.833  44.805   1.354
93374W        W57307  34.504  43.345   1.220
93375W        W57308  13.260  41.379   4.777
93376W        W57309  36.545   3.895  14.796
93377W        W57310  43.989  32.935  11.433
93378W        W57311  34.062  24.700   3.164
93379W        W57312  37.896   6.394  13.919
93380W        W57313  37.377  42.858  11.936
93381W        W57314  38.982  36.906   3.707
93382W        W57315  17.680  12.277  13.882
93383W        W57316  44.965  41.394  10.612
93384W        W57317  33.985  42.797   3.376
93385W        W57318  16.671  16.303   0.828
93386W        W57319  23.225  15.664   1.362
93387W        W57320  25.036   6.405   1.769
93388W        W57321  25.213  35.589   0.428
93389W        W57322   1.358   4.752  12.353
93390W        W57323  33.949  32.027  14.468
93391W        W57324  25.137   2.258  12.931
93392W        W57325  21.199  17.663  13.030
93393W        W57326  12.246  31.636  13.392
93394W        W57327  21.718  23.074  13.826
93395W        W57328  31.648   4.921  12.982
93396W        W57329  29.540  38.013   2.291
93397W        W57330  12.742  25.676   3.813
93398W        W57331  31.947  25.536  13.367
93399W        W57332  22.170  10.166  13.497
93400W        W57333  24.559  13.105   1.781
93401W        W57334  14.124  37.958   5.256
93402W        W57335  19.132  22.059   2.718
93403W        W57336  26.584   0.316   3.199
93404W        W57337  26.586  11.197   1.260
93405W        W57338  41.872   6.772   3.321
93406W        W57339   5.719  33.024   3.149
93407W        W57340   2.722  34.033  14.966
93408W        W57341  20.270  23.218   0.299
93409W        W57342  17.578  21.610   2.779
93410W        W57343  26.642   7.205  10.970
93411W        W57344   0.446  37.483   1.278
93412W        W57345  21.236  20.190  12.036
93413W        W57346  23.120  34.566   2.872
93414W        W57347   8.769  19.617  14.428
93415W        W57348  30.630  31.972  13.846
93416W        W57349   7.817  42.398   1.425
93417W        W57350  35.935   6.709   1.832
93418W        W57351  23.633   2.271   2.335
93419W        W57352   5.344  37.422  13.803
93420W        W57353   8.234  39.550   2.408
93421W        W57354   7.830  22.595   4.313
93422W        W57355   0.318  11.301  12.839
93423W        W57356  17.122  11.226   1.427
93424W        W57357  28.559  42.868   0.246
93425W        W57358   4.927  34.574   4.664
93426W        W57359  12.651  31.594   3.683
93427W        W57360   3.720  21.545  11.066
93428W        W57361  29.663   8.730  13.817
93429W        W57362  34.986  35.024   0.811
93430W        W57363  38.943  25.072   0.262
93431W        W57364  22.533  30.083   1.398
93432W        W57365   4.291   9.343   2.682
93433W        W57366  28.460  15.724  11.877
93434W        W57367  21.716  27.184  14.305
93435W        W57368  32.090  34.463  10.968
93436W        W57369  17.110   1.777  13.448
93437W        W57370  19.739  24.063  12.416
93438W        W57371   4.913  43.325   2.197
93439W        W57372  13.174  22.587   0.744
93440W        W57373   6.792  22.058  14.422
93441W        W57374   5.819   7.350  10.476
93442W        W57375   1.798  21.731  11.973
93443W        W57376   0.934  21.723   4.724
93444W        W57377  34.531   4.922   2.368
93445W        W57378  38.048  16.212  10.589
93446W        W57379  16.682  24.597   2.670
93447W        W57380  10.730  16.106   1.368
93448W        W57381  27.976  40.974  14.797
93449W        W57382  39.847  44.922  11.550
93450W        W57383  25.104  17.258   0.771
93451W        W57384  23.062  17.639  14.817
93452W        W57385  22.043  19.623   3.866
93453W        W57386   0.294   0.385  13.986
93454W        W57387  34.045  12.620  10.590
93455W        W57388  24.047  24.668   2.222
93456W        W57389   9.645  25.694  11.978
93457W        W57390   8.221  17.143   0.256
93458W        W57391  19.272  37.544  12.449
93459W        W57392  22.595  36.914  14.473
93460W        W57393  31.954  39.993   0.785
93461W        W57394  33.081   2.465   3.709
93462W        W57395   4.783  34.965   3.341
93463W        W57396  10.870  40.519   3.692
93464W        W57397  20.054   1.330  14.283
93465W        W57398  29.669   8.167   1.304
93466W        W57399  19.704   2.843   3.148
93467W        W57400  20.653  32.050   4.280
93468W        W57401   2.256  18.772  12.356
93469W        W57402  42.466  39.432   1.783
93470W        W57403   9.386  42.432  10.939
93471W        W57404  26.684  35.864   4.184
93472W        W57405  34.966  25.996  12.021
93473W        W57406  35.022  40.372   5.221
93474W        W57407  15.767  20.264   4.709
93475W        W57408  27.517   3.941  11.418
93476W        W57409  42.401  14.183  12.417
93477W        W57410   1.844   5.389  11.118
93478W        W57411  24.668   1.833   2.414
93479W        W57412   5.831  12.623   2.207
93480W        W57413   7.770  10.826   4.244
93481W        W57414  33.889  44.354   1.327
93482W        W57415  35.015  25.207   0.782
93483W        W57416  37.348  28.547   1.401
93484W        W57417  16.658  22.654  14.763
93485W        W57418  34.887  32.011  10.093
93486W        W57419  44.933   8.708  14.847
93487W        W57420  37.875  30.435   2.293
93488W        W57421  41.391  36.539   9.943
93489W        W57422   0.401  34.609   2.851
93490W        W57423   4.858  15.703  12.095
93491W        W57424  14.772  12.722  10.967
93492W        W57425  32.024  29.964   0.297
93493W        W57426  18.681  32.402   4.703
93494W        W57427  43.482  28.669  13.847
93495W        W57428  32.587  17.771  14.854
93496W        W57429   8.671  13.253  10.597
93497W        W57430  38.832  13.252  11.402
93498W        W57431  39.322   3.250   0.365
93499W        W57432   4.352  42.508  13.518
93500W        W57433  29.617  10.284   1.815
93501W        W57434  11.652  30.586   0.881
93502W        W57435  17.301   8.848  10.447
93503W        W57436  30.041  11.177   1.798
93504W        W57437   4.330  27.062   2.371
93505W        W57438  30.503  26.457   3.220
93506W        W57439   9.826   7.890   4.744
93507W        W57440  20.664   4.733  13.970
93508W        W57441  31.526  17.281   1.364
93509W        W57442  43.424  43.910  13.518
93510W        W57443  37.340  33.573  14.997
93511W        W57444  42.009  22.229  12.446
93512W        W57445  28.943  38.437   0.775
93513W        W57446  35.055   0.273   4.674
93514W        W57447   3.314   3.398   0.837
93515W        W57448   8.263  19.539  14.478
93516W        W57449  14.192  35.969   1.752
93517W        W57450  34.093  44.846   4.726
93518W        W57451  39.432   0.969  14.814
93519W        W57452  34.386  26.052  13.312
93520W        W57453  27.618  20.760   0.245
93521W        W57454  32.465  42.947  10.499
93522W        W57455  23.151  26.528  11.897
93523W        W57456  42.987  26.517   2.728
93524W        W57457  15.168  44.281   4.187
93525W        W57458   9.208  29.155  13.020
93526W        W57459  10.214   6.346   2.259
93527W        W57460   5.387   8.793  12.354
93528W        W57461  32.114   7.247   2.355
93529W        W57462  31.426   5.420  11.516
93530W        W57463  33.111  31.098  14.995
93531W        W57464  12.122  31.631   3.354
93532W        W57465  32.134   4.713  14.477
93533W        W57466  11.297  35.940  14.759
93534W        W57467  39.941  35.863   4.654
93535W        W57468  32.407   5.324  10.598
93536W        W57469  19.206  27.148  12.350
93537W        W57470  38.867  37.545  11.544
93538W        W57471  12.758  32.569   1.362
93539W        W57472   4.843   7.255   4.188
93540W        W57473  42.433  31.416  11.902
93541W        W57474  26.678  37.918  14.302
93542W        W57475  43.415  16.705  12.067
93543W        W57476  44.464   7.692   2.396
93544W        W57477  33.598  44.001  13.505
93545W        W57478  21.622   8.372   3.815
93546W        W57479  11.199  13.237  14.936
93547W        W57480  37.053   2.828  14.905
93548W        W57481   7.813  34.061   0.754
93549W        W57482  31.972  35.383  12.897
93550W        W57483  39.488  44.346  10.477
93551W        W57484  13.618   7.682  12.857
93552W        W57485   8.799  43.954   3.735
93553W        W57486  35.054  30.979   3.701
93554W        W57487  23.038  29.161   1.439
93555W        W57488  40.044   4.218   1.235
93556W        W57489   4.821  16.138   2.864
93557W        W57490  20.228  23.178   2.698
93558W        W57491  20.551  14.289   1.314
93559W        W57492  40.000  17.293   3.274
93560W        W57493  37.983  19.539   5.085
93561W        W57494  29.635  27.561  10.404
93562W        W57495   9.690  27.177   0.949
93563W        W57496  35.889  25.615  14.968
93564W        W57497  23.709  18.649  12.076
93565W        W57498   2.743   9.837  14.332
93566W        W57499   9.728   3.416  10.608
93567W        W57500   6.911  35.963  11.922
93568W        W57501  43.399  36.557  11.884
93569W        W57502  30.599  11.165  13.457
93570W        W57503  34.419  10.836   4.755
93571W        W57504  30.479  38.847  11.516
93572W        W57505  21.629   4.370  13.328
93573W        W57506  38.425  31.556   3.735
93574W        W57507  17.600  31.559   2.270
93575W        W57508  43.361  16.711   2.268
93576W        W57509  12.636   0.494  12.980
93577W        W57510  19.656   8.849   2.773
93578W        W57511  34.046  35.414  12.835
93579W        W57512   2.802   8.241  10.518
93580W        W57513   9.248  25.485  12.958
93581W        W57514  20.536  38.842   1.221
93582W        W57515  44.944  10.632  12.091
93583W        W57516   8.405  30.958  10.903
93584W        W57517  36.533  27.540   0.429
93585W        W57518  20.146   2.867   4.116
93586W        W57519  27.005  36.095   4.702
93587W        W57520   7.320  24.111  13.863
93588W        W57521  11.655  23.601   3.323
93589W        W57522  24.080  27.592  12.911
93590W        W57523  39.066   0.383   0.897
93591W        W57524  27.951  35.879   1.330
93592W        W57525  29.618   3.236  13.489
93593W        W57526  18.101  10.244   5.163
93594W        W57527  23.020  34.985  12.577
93595W        W57528  28.973  31.095  13.973
93596W        W57529  34.104   0.778   1.345
93597W        W57530  25.625   3.255   4.778
93598W        W57531  18.633   6.886   1.219
93599W        W57532  44.919  35.471   1.698
93600W        W57533   9.366  27.136   0.465
93601W        W57534  44.441  39.519   1.274
93602W        W57535   8.665  38.864   1.867
93603W        W57536  14.602  20.172   2.674
93604W        W57537  28.445  44.274   4.195
93605W        W57538  44.505  20.059  12.827
93606W        W57539  29.148  15.762   0.399
93607W        W57540  12.633  26.683   0.286
93608W        W57541  18.290  34.392   3.373
93609W        W57542  14.136   2.299  13.810
93610W        W57543  10.750  13.150  11.533
93611W        W57544  15.689  14.708   2.290
93612W        W57545  32.099  20.243   4.736
93613W        W57546  17.672   3.915   2.224
93614W        W57547   2.947  43.514   2.207
93615W        W57548   2.419   3.837   1.326
93616W        W57549  23.715   8.892   5.117
93617W        W57550  42.327  15.717   9.983
93618W        W57551   3.267  22.678  14.988
93619W        W57552   5.920   8.740   4.697
93620W        W57553  39.913  34.524  11.040
93621W        W57554  23.177   8.251  13.547
93622W        W57555  26.110  44.911   2.814
93623W        W57556  21.224  20.230   4.189
93624W        W57557  11.670  23.543  14.772
93625W        W57558   1.361  37.907  13.346
93626W        W57559   6.798  28.491   3.206
93627W        W57560  18.763   5.700  12.394
93628W        W57561  19.111  10.138  12.426
93629W        W57562  26.577  40.908  13.881
93630W        W57563  44.318  27.135   1.928
93631W        W57564  26.643  33.065  11.438
93632W        W57565  11.275  20.188   0.888
93633W        W57566  10.720   9.203  14.352
93634W        W57567   6.790  25.472   3.239
93635W        W57568  40.404   5.246  14.816
93636W        W57569  26.463  21.248   1.241
93637W        W57570  34.445   3.293   2.770
93638W        W57571  19.707  40.902  12.023
93639W        W57572  32.406  19.597   2.724
93640W        W57573  24.706  30.477   0.275
93641W        W57574  33.537  40.331   9.959
93642W        W57575  20.639   3.289  12.019
93643W        W57576  15.765  20.686   1.907
93644W        W57577  31.944  38.338   4.696
93645W        W57578  43.470  41.904   0.347
93646W        W57579  25.554  33.059  13.528
93647W        W57580  21.549   1.883   2.863
93648W        W57581  21.619  14.775   4.125
93649W        W57582  25.591  21.093   1.354
93650W        W57583  39.972  29.173  11.075
93651W        W57584  36.938  14.266  11.072
93652W        W57585  24.138   6.412  10.569
93653W        W57586  44.500  15.245   2.325
93654W        W57587  33.073   1.456   2.312
93655W        W57588  11.127  37.064   0.927
93656W        W57589   6.326  40.966  13.479
93657W        W57590  30.160  22.522   0.736
93658W        W57591  26.048   9.283  13.838
93659W        W57592  25.086  14.112  13.545
93660W        W57593  21.676  22.679   4.308
93661W        W57594  21.169   6.855  11.024
93662W        W57595  44.956  16.173  14.764
93663W        W57596   1.748  17.629  10.964
93664W        W57597   8.669  31.509  14.946
93665W        W57598  23.682  28.171  10.460
93666W        W57599  12.252  17.704   2.886
93667W        W57600   1.876  19.115  14.953
93668W        W57601  27.176   2.956   4.247
93669W        W57602  24.529   3.225  14.322
93670W        W57603  10.375  10.147   1.406
93671W        W57604  22.570  35.549   2.774
93672W        W57605  20.230  39.819  14.974
93673W        W57606  28.943  13.683  12.535
93674W        W57607  39.465  24.604   1.214
93675W        W57608  30.967   5.234  11.979
93676W        W57609  19.596  44.485   2.311
93677W        W57610  23.198  38.016   2.348
93678W        W57611  15.132  26.512  13.509
93679W        W57612  42.294  10.729   1.934
93680W        W57613  29.007   8.814  13.953
93681W        W57614   5.923  24.109  13.520
93682W        W57615  27.188  17.712   4.166
93683W        W57616  21.075  28.175  11.926
93684W        W57617  36.940  28.173   3.803
93685W        W57618   0.950  33.512  14.362
93686W        W57619  16.700   6.347  13.992
93687W        W57620   5.841  13.141  12.505
93688W        W57621  40.813  27.524  11.402
93689W        W57622  18.790  22.581   3.738
93690W        W57623  23.018  36.937   1.905
93691W        W57624  10.340  31.140  14.808
93692W        W57625  40.441  39.494   2.215
93693W        W57626  35.520  36.942   1.402
93694W        W57627   6.822  42.359  12.955
93695W        W57628   4.315  20.580  10.514
93696W        W57629  36.416  32.412   0.409
93697W        W57630  28.026  17.251   4.195
93698W        W57631   5.426  25.603  11.068
93699W        W57632  21.669  34.867  13.058
93700W        W57633  23.649   0.456   0.967
93701W        W57634  31.081  10.254   3.375
93702W        W57635  18.083  25.040  10.524
93703W        W57636  38.545   1.974   2.388
93704W        W57637  27.502  37.888  10.575
93705W        W57638   9.650  19.675   2.773
93706W        W57639  26.982  21.630  14.344
93707W        W57640   1.861  38.964  14.371
93708W        W57641  21.245  20.597   2.840
93709W        W57642   2.435   4.366  12.359
93710W        W57643  12.742  40.417   0.798
93711W        W57644  19.062   3.923   0.806
93712W        W57645   1.446  30.108   2.900
93713W        W57646  13.215  37.980   2.862
93714W        W57647  29.524   5.351   0.957
93715W        W57648   3.850  21.020   3.794
93716W        W57649  33.428  16.095   1.923
93717W        W57650  39.541  36.881  12.529
93718W        W57651  30.485  13.672   0.295
93719W        W57652  36.975  39.063   2.219
93720W        W57653  18.605  19.592   1.345
93721W        W57654  12.134  24.227  13.524
93722W        W57655  26.115  38.924   1.319
93723W        W57656  30.472  30.079   3.633
93724W        W57657  37.008  38.513   2.361
93725W        W57658  33.421  21.039   4.243
93726W        W57659   7.291   9.757   3.281
93727W        W57660   3.820  42.461  13.441
93728W        W57661   2.880   6.192   4.811
93729W        W57662   0.395  38.832   0.364
93730W        W57663  26.576  14.257  13.834
93731W        W57664   2.454  41.016   4.684
93732W        W57665  14.767  42.526   3.227
93733W        W57666   7.189   6.380   5.676
93734W        W57667  21.075  18.571  14.324
93735W        W57668  28.027   6.785   2.797
93736W        W57669  23.662  13.109  10.477
93737W        W57670  34.064  35.108  13.326
93738W        W57671  35.422   6.330  11.586
93739W        W57672  33.440   7.262  11.577
93740W        W57673   6.784  37.351  12.967
93741W        W57674  28.958  37.544   1.864
93742W        W57675  36.427   6.245  14.912
93743W        W57676  27.576   5.413   0.257
93744W        W57677  44.772  15.201  13.497
93745W        W57678  31.424  16.663   1.746
93746W        W57679   7.742  16.092  12.060
93747W        W57680  11.710  28.962   2.899
93748W        W57681  22.094  40.522   2.859
93749W        W57682  24.036   3.874  10.508
93750W        W57683  16.801  38.507   1.792
93751W        W57684  39.476  38.967   2.871
93752W        W57685  24.224   9.361  13.388
93753W        W57686  19.633  19.660   2.246
93754W        W57687  21.714  41.944  12.844
93755W        W57688   9.824  40.313  12.976
93756W        W57689  21.230  12.718   1.428
93757W        W57690  33.979  21.020  12.441
93758W        W57691  17.728   1.334   2.267
93759W        W57692   7.298   9.850   0.421
93760W        W57693  20.696  24.151  13.325
93761W        W57694  33.548   7.687   4.835
93762W        W57695  25.483  24.076   2.404
93763W        W57696   2.752  31.972   2.233
93764W        W57697  31.426  10.826  11.871
93765W        W57698  31.558  39.055   4.132
93766W        W57699  27.649  32.458  11.072
93767W        W57700  11.151  43.869   4.729
93768W        W57701  39.838  14.749  11.008
93769W        W57702  25.609  30.013  14.965
93770W        W57703   3.927  38.921   1.431
93771W        W57704  34.920  15.133   3.678
93772W        W57705  30.148  11.724   2.715
93773W        W57706  29.473   2.741   0.885
93774W        W57707   7.179  20.108  14.785
93775W        W57708  26.479  44.427   0.957
93776W        W57709  34.509   6.775  10.932
93777W        W57710  12.640  12.649  10.970
93778W        W57711   9.327  24.693  10.476
93779W        W57712   9.311  39.483  13.035
93780W        W57713  12.279  38.564   4.149
93781W        W57714   0.824  31.902   3.661
93782W        W57715  44.330   8.383   2.215
93783W        W57716  13.672   1.384  11.581
93784W        W57717  22.640  41.842   3.325
93785W        W57718  20.074  41.350  11.460
93786W        W57719  15.639  22.016  12.853
93787W        W57720  26.611  37.999   2.267
93788W        W57721   9.646  43.849   4.626
93789W        W57722   7.669  27.470  10.984
93790W        W57723  43.008  29.436   4.822
93791W        W57724   9.857  31.503   2.274
93792W        W57725  15.805  43.008  12.842
93793W        W57726   9.649  31.095  10.636
93794W        W57727  31.637  18.266   0.252
93795W        W57728  11.666  26.553  11.901
93796W        W57729  24.989  13.704  13.056
93797W        W57730  13.663  44.395  14.960
93798W        W57731  29.636  39.495  12.942
93799W        W57732   3.294  31.615   0.307
93800W        W57733  32.629   1.927  12.428
93801W        W57734  44.954   1.908  11.923
93802W        W57735   1.903  20.611   4.683
93803W        W57736  28.526  21.213   2.334
93804W        W57737  15.083  13.349  12.414
93805W        W57738  35.505  39.991  11.028
93806W        W57739  44.357  18.767   3.200
93807W        W57740  15.189   9.721  14.439
93808W        W57741  24.548  27.004  10.965
93809W        W57742  12.287   1.410  10.521
93810W        W57743  39.859  41.803   3.335
93811W        W57744  13.216  31.141  14.778
93812W        W57745  27.157  15.651  13.538
93813W        W57746  42.893   0.357  13.846
93814W        W57747  40.317   4.925  11.928
93815W        W57748   9.249   9.192   4.744
93816W        W57749  37.053  27.641   0.437
93817W        W57750   4.371   3.927   5.693
93818W        W57751   4.252  25.565   3.861
93819W        W57752  19.100  17.715   0.853
93820W        W57753  25.597  23.059   0.282
93821W        W57754  36.494  23.025  10.522
93822W        W57755  34.068  14.596  14.008
93823W        W57756  32.471  34.002  13.027
93824W        W57757  43.802  16.117   1.926
93825W        W57758  32.496  34.014   3.147
93826W        W57759   7.891  17.761  13.056
93827W        W57760  15.790  13.783   3.342
93828W        W57761  11.246   3.905  10.479
93829W        W57762  31.626  19.133   1.931
93830W        W57763  27.501  34.473   2.689
93831W        W57764  30.422  44.488  14.307
93832W        W57765  26.051  38.519  14.890
93833W        W57766  38.951   9.198  10.893
93834W        W57767  15.090  39.538  13.854
93835W        W57768  39.985  15.615   9.930
93836W        W57769  27.550  22.516   4.733
93837W        W57770  27.949  25.673   2.367
93838W        W57771  12.235   9.879  13.837
93839W        W57772  24.568  31.588  14.963
93840W        W57773  16.096  12.799   4.640
93841W        W57774   0.433  34.965  13.376
93842W        W57775  27.592  15.307   4.308
93843W        W57776  40.339  12.729  10.412
93844W        W57777  43.957  21.205  14.999
93845W        W57778   5.233  41.031   1.807
93846W        W57779   4.851  15.651  14.277
93847W        W57780  30.555  37.366  14.981
93848W        W57781  34.587  22.731   1.441
93849W        W57782  34.913  23.992   1.249
93850W        W57783  24.542  15.266  10.628
93851W        W57784  24.194   2.788  10.549
93852W        W57785   9.235  15.243   1.405
93853W        W57786  25.555   1.322   2.771
93854W        W57787  12.821  39.010   0.727
93855W        W57788  12.308  41.493   2.251
93856W        W57789  21.527  33.467   3.791
93857W        W57790   4.295   5.428   1.811
93858W        W57791  42.993  24.581  10.997
93859W        W57792  40.313  21.571   2.221
93860W        W57793   2.232  38.952   4.125
93861W        W57794  12.856  32.113   1.317
93862W        W57795  37.846  44.901  10.952
93863W        W57796  40.525  38.957  10.147
93864W        W57797  35.999  37.046   4.830
93865W        W57798   7.177  23.603  12.878
93866W        W57799  20.665   8.797  12.949
93867W        W57800  19.279  29.174   4.232
93868W        W57801  27.565  31.498  11.381
93869W        W57802  29.464  42.302   4.220
93870W        W57803  23.666  32.527  12.006
93871W        W57804  27.159  30.056   1.854
93872W        W57805  19.622  28.037  11.908
93873W        W57806  16.624  26.187   0.788
93874W        W57807  41.950  15.172   3.322
93875W        W57808  26.000  14.129   3.299
93876W        W57809  12.232  32.926   0.801
93877W        W57810  38.056  41.363  13.031
93878W        W57811  14.663  41.517   0.460
93879W        W57812  18.185  29.620  12.970
93880W        W57813  35.013  30.580   2.276
93881W        W57814   3.350  21.186  13.060
93882W        W57815  27.587   7.720   3.712
93883W        W57816  28.993  26.975  11.556
93884W        W57817  16.777  29.121  13.474
93885W        W57818  29.116  43.296   3.674
93886W        W57819  37.943  27.079   0.788
93887W        W57820   1.418   1.321  12.406
93888W        W57821  39.963  28.561   4.707
93889W        W57822   6.206  24.991  14.902
93890W        W57823   0.304   7.721  14.375
93891W        W57824   4.729  15.096   5.248
93892W        W57825   4.268  18.724  10.914
93893W        W57826  41.905  34.947  13.419
93894W        W57827  34.536  20.077   2.839
93895W        W57828  36.010  12.742   2.673
93896W        W57829   9.790  37.521  13.051
93897W        W57830  34.973  30.443   0.893
93898W        W57831  44.416  43.912  14.501
93899W        W57832  23.568  14.166  14.471
93900W        W57833  22.633   0.359   3.147
93901W        W57834  28.610  32.487   2.842
93902W        W57835   2.310   7.812   0.404
93903W        W57836  36.079   7.242   1.847
93904W        W57837   0.886  34.890  12.090
93905W        W57838  30.650  14.688   1.292
93906W        W57839  12.218  13.305  12.014
93907W        W57840   8.265  14.097   2.733
93908W        W57841   3.881   5.295  12.001
93909W        W57842  27.192   9.268   3.759
93910W        W57843  25.023  27.559  13.033
93911W        W57844  29.949  32.513  13.523
93912W        W57845  28.031  26.178   2.703
93913W        W57846   0.370   5.249  12.855
93914W        W57847  16.270  23.668  11.126
93915W        W57848  11.803  39.437  14.761
93916W        W57849  16.737  27.467   4.742
93917W        W57850  40.901  30.478   1.859
93918W        W57851  15.216  26.064   1.876
93919W        W57852  35.045  14.822   0.338
93920W        W57853   0.844  10.149  12.972
93921W        W57854  43.941   3.894  10.980
93922W        W57855   4.797   7.377   0.944
93923W        W57856   6.815  11.164   4.290
93924W        W57857  12.689  33.618  12.942
93925W        W57858  31.022  32.995  11.080
93926W        W57859  19.593  20.639  14.016
93927W        W57860  30.960  15.143  11.053
93928W        W57861   0.905  36.494  13.801
93929W        W57862  10.249  34.017   0.807
93930W        W57863  34.613  43.282  13.537
93931W        W57864  18.692  10.251  10.059
93932W        W57865  11.775  12.244  14.009
93933W        W57866   8.310  35.946   2.794
93934W        W57867   3.425  13.287   0.320
93935W        W57868  11.252  39.545   3.259
93936W        W57869  24.050  21.122  10.097
93937W        W57870  44.384  35.091  11.954
93938W        W57871  43.013  12.302  14.959
93939W        W57872   5.751  27.480   4.659
93940W        W57873  31.456  18.223   0.837
93941W        W57874  31.940  16.731  12.573
93942W        W57875  21.569  14.317   4.232
93943W        W57876  27.177  17.754   0.335
93944W        W57877   1.759  30.149  10.558
93945W        W57878   9.819   7.870   0.405
93946W        W57879  39.956  15.199   1.451
93947W        W57880  13.618   3.266   4.115
93948W        W57881   7.179  26.105   5.638
93949W        W57882  23.635  41.798  10.512
93950W        W57883  27.639  28.077  12.420
93951W        W57884  43.998  37.009   4.340
93952W        W57885   6.380   2.736  13.316
93953W        W57886   4.918  42.447  13.417
93954W        W57887  40.028  43.291   3.214
93955W        W57888   5.369  44.777  14.802
93956W        W57889  15.271  16.691  11.051
93957W        W57890  43.987   0.911  10.533
93958W        W57891  18.694   1.246   0.817
93959W        W57892  19.756  11.348   2.845
93960W        W57893   4.716  35.001  12.020
93961W        W57894   5.245  24.994  14.355
93962W        W57895  26.668   9.322  12.398
93963W        W57896  27.957  23.567  14.946
93964W        W57897  31.549  43.842  14.515
93965W        W57898  43.455  34.600  14.019
93966W        W57899  36.519  44.356   0.947
93967W        W57900  29.082  38.444  13.911
93968W        W57901   3.842  36.014   1.774
93969W        W57902  15.271  21.176  12.980
93970W        W57903  23.182   1.325  10.528
93971W        W57904   6.869   6.732  11.372
93972W        W57905   9.287  15.164   1.728
93973W        W57906  44.488  28.490  13.529
93974W        W57907  11.834  43.450   0.298
93975W        W57908  38.548  25.136  13.867
93976W        W57909  29.973  22.579  12.871
93977W        W57910  21.082   2.745  13.851
93978W        W57911   6.375   6.297   4.247
93979W        W57912   1.792  32.893   1.717
93980W        W57913  24.642  42.858   4.837
93981W        W57914  32.135  15.113   4.697
93982W        W57915  36.971  36.965  13.048
93983W        W57916   2.723  39.369  14.344
93984W        W57917  13.327  41.977   4.318
93985W        W57918  10.669   7.676   2.897
93986W        W57919  10.201   9.794   3.690
93987W        W57920  42.899  15.191  10.958
93988W        W57921  16.667  18.170   9.437
93989W        W57922  10.784   1.441  12.569
93990W        W57923   1.380  33.938  11.082
93991W        W57924  20.140  33.428  12.844
93992W        W57925  25.037   7.352   4.336
93993W        W57926  20.727   7.360  12.444
93994W        W57927  33.920  21.205  11.941
93995W        W57928   9.874  14.647   3.311
93996W        W57929   3.835  38.018  12.486
93997W        W57930  33.092   6.910   1.790
93998W        W57931  14.304  43.800   0.359
93999W        W57932   1.862   0.369  12.571
94000W        W57933  30.593  42.892   0.275
94001W        W57934  14.203  27.944  13.012
94002W        W57935  30.093  24.614  12.374
94003W        W57936  11.834  36.867  10.460
94004W        W57937  22.521  21.709  14.440
94005W        W57938  15.326  35.003  11.413
94006W        W57939  35.398  39.523  14.376
94007W        W57940   0.480  30.501  10.441
94008W        W57941   2.806   9.788   4.271
94009W        W57942  14.204   4.724  10.460
94010W        W57943  28.438  33.901  11.003
94011W        W57944  36.548   5.736  11.921
94012W        W57945   5.702   8.793   4.199
94013W        W57946   4.209  31.959  12.539
94014W        W57947  11.307  30.114   4.294
94015W        W57948  29.487  35.428   4.153
94016W        W57949   8.837   4.381   3.232
94017W        W57950  38.484   7.181  12.491
94018W        W57951  41.493  42.388  13.439
94019W        W57952  18.081  22.087   1.255
94020W        W57953  22.679  31.979   1.755
94021W        W57954   4.752   9.719   3.227
94022W        W57955  12.247  11.191   4.805
94023W        W57956  31.432   4.321  12.886
94024W        W57957  44.865  42.285   2.685
94025W        W57958  40.028   9.329   3.657
94026W        W57959  44.413   3.924   1.346
94027W        W57960  20.639  34.539   3.687
94028W        W57961  23.494   4.939  14.868
94029W        W57962  16.578  24.062   3.806
94030W        W57963  16.208  32.567   3.857
94031W        W57964  36.923  11.690  12.366
94032W        W57965  21.633  14.826  13.340
94033W        W57966  35.463  29.486  11.929
94034W        W57967   0.361  11.158   1.835
94035W        W57968  18.750  34.596   1.768
94036W        W57969  15.735  10.668  11.962
94037W        W57970   2.946   0.319  11.979
94038W        W57971  18.249  35.430   1.851
94039W        W57972  20.230  16.194   4.277
94040W        W57973  13.118  20.130   3.335
94041W        W57974  35.860   3.811  14.438
94042W        W57975  15.288  27.634  13.499
94043W        W57976  36.350  36.903  12.077
94044W        W57977  38.453  11.685   2.282
94045W        W57978  32.018  26.183  11.478
94046W        W57979  21.564  10.786  13.843
94047W        W57980  22.701  22.560  14.286
94048W        W57981  42.925  39.544  14.299
94049W        W57982   4.406   9.227  12.007
94050W        W57983  10.801  25.077   0.483
94051W        W57984  27.943  24.638   2.345
94052W        W57985  28.530  41.813   3.357
94053W        W57986  43.009  31.469   0.750
94054W        W57987   6.896  33.525  13.412
94055W        W57988  43.469  24.696  10.531
94056W        W57989  34.947  25.581  13.456
94057W        W57990   6.252  12.234   1.397
94058W        W57991  34.960  27.972  13.499
94059W        W57992  11.809  34.887   0.428
94060W        W57993  38.536  38.978  10.900
94061W        W57994  30.610  39.370  11.459
94062W        W57995  43.280  15.132  12.004
94063W        W57996  12.246  33.065   3.817
94064W        W57997  15.622  15.735   3.352
94065W        W57998  11.139  14.195   1.905
94066W        W57999   0.772  12.685  11.095
94067W        W58000  41.011  33.508   4.603
94068W        W58001  33.617  41.997  11.417
94069W        W58002  45.000   3.366  11.068
94070W        W58003   1.860  17.756   4.625
94071W        W58004  34.109  30.549  12.380
94072W        W58005  41.818  37.336   1.269
94073W        W58006   7.401   7.669   4.609
94074W        W58007  40.390  21.248  12.388
94075W        W58008  19.779  16.762  14.474
94076W        W58009  34.999  42.917   0.259
94077W        W58010  39.358  19.545  12.408
94078W        W58011   6.918  29.615   2.758
94079W        W58012  12.275  42.390   0.278
94080W        W58013   6.912  32.471  12.066
94081W        W58014  33.054   9.745   0.833
94082W        W58015  15.192  41.418   0.355
94083W        W58016   1.418  13.270   3.192
94084W        W58017  12.284  28.454   2.410
94085W        W58018  12.142   7.253   1.416
94086W        W58019   2.311   8.289   0.267
94087W        W58020   7.198  15.196   0.443
94088W        W58021  20.086  36.994   4.158
94089W        W58022  22.230  33.025   2.874
94090W        W58023  29.468  38.365   4.249
94091W        W58024  38.442   0.345  14.003
94092W        W58025  24.575  29.436  14.781
94093W        W58026  17.676  15.183  10.017
94094W        W58027  17.303  16.129  10.111
94095W        W58028   3.322  23.011  10.561
94096W        W58029   7.764  34.450  12.407
94097W        W58030   1.834  14.707  11.489
94098W        W58031  41.032   6.898   3.321
94099W        W58032   1.792  16.792   3.716
94100W        W58033  21.647   4.212  13.815
94101W        W58034   1.412   0.966   3.193
94102W        W58035  15.113  21.210   1.701
94103W        W58036  23.226  29.527   4.199
94104W        W58037  44.770   3.325   1.403
94105W        W58038  34.055  10.704  12.520
94106W        W58039  21.091  39.545  12.509
94107W        W58040   5.928  25.202   1.896
94108W        W58041  12.674   8.246  12.419
94109W        W58042  17.246  25.651   4.731
94110W        W58043  31.933  42.929   3.340
94111W        W58044  36.867  42.370   3.241
94112W        W58045  24.608  42.330  13.987
94113W        W58046  31.105   1.747   0.260
94114W        W58047  42.936  29.128   3.204
94115W        W58048  39.001  20.525  13.834
94116W        W58049  22.677  44.329   1.326
94117W        W58050   2.775   5.930  10.982
94118W        W58051  33.102  12.739   2.184
94119W        W58052  40.925  26.661   1.442
94120W        W58053  33.974  38.409  10.579
94121W        W58054   3.804  35.060   2.753
94122W        W58055  32.011  30.494   0.792
94123W        W58056  44.945  28.625  14.778
94124W        W58057   0.906   0.293  12.368
94125W        W58058  20.574  24.648   3.668
94126W        W58059  24.695  13.631  13.347
94127W        W58060   0.493  10.821  14.514
94128W        W58061   7.268  13.832   2.374
94129W        W58062  44.393  23.626  13.372
94130W        W58063  15.742   9.889   0.956
94131W        W58064  36.491  29.008   4.745
94132W        W58065  23.517  36.575  13.438
94133W        W58066  14.738  37.844   3.208
94134W        W58067  38.494  33.520  11.556
94135W        W58068  16.175  24.983  13.826
94136W        W58069  21.142  33.555  13.308
94137W        W58070  23.115  30.060   4.785
94138W        W58071   1.844   4.872   2.772
94139W        W58072  15.656  43.273   4.785
94140W        W58073  44.281  24.559   5.290
94141W        W58074  42.390  43.875   0.371
94142W        W58075   7.346   6.388  14.287
94143W        W58076   8.217  19.774  13.861
94144W        W58077  14.254  27.990   4.657
94145W        W58078  26.977  13.331   4.201
94146W        W58079  22.736  10.290   3.755
94147W        W58080  29.461  42.816  13.815
94148W        W58081  32.112   4.443  12.560
94149W        W58082  38.821   2.415   3.201
94150W        W58083   6.262  19.649   1.378
94151W        W58084  17.667   5.313   1.935
94152W        W58085  12.247  41.538   3.843
94153W        W58086  19.691  35.046   0.430
94154W        W58087  17.163  23.027  14.414
94155W        W58088  21.687  10.716   9.925
94156W        W58089  28.959  40.477  12.952
94157W        W58090  40.481   3.274   2.269
94158W        W58091   5.811  28.993  11.926
94159W        W58092   9.753   8.254  14.395
94160W        W58093  41.792  11.248   2.206
94161W        W58094  13.630   4.829  14.433
94162W        W58095  23.069  20.619   4.189
94163W        W58096   3.865  21.088   4.667
94164W        W58097  30.071  40.469  11.046
94165W        W58098  29.655  33.130  11.881
94166W        W58099  43.436  15.131   0.824
94167W        W58100   1.899  27.576  12.421
94168W        W58101   8.396  30.050  13.843
94169W        W58102  16.227  23.619  14.445
94170W        W58103   4.366   2.280  11.020
94171W        W58104   7.308  13.673   4.611
94172W        W58105   3.780  25.510  13.964
94173W        W58106  32.517   1.846   4.815
94174W        W58107  37.382   2.838   3.322
94175W        W58108   9.154  40.549  10.949
94176W        W58109  21.657  15.815  11.523
94177W        W58110  37.538  11.839  10.585
94178W        W58111  33.904   4.368   0.817
94179W        W58112  39.396  16.701   0.347
94180W        W58113  27.082  37.938  13.335
94181W        W58114  11.863  17.655   1.348
94182W        W58115  15.314  28.135  11.390
94183W        W58116  38.011  34.971  13.045
94184W        W58117  26.534   8.872   0.399
94185W        W58118  35.438   0.954  14.301
94186W        W58119   3.797  29.450   3.641
94187W        W58120  10.359  43.816  11.573
94188W        W58121  35.962  42.806   1.907
94189W        W58122   7.252  42.820   3.690
94190W        W58123  16.714  10.278  12.064
94191W        W58124  16.603  29.083   2.225
94192W        W58125   4.895  23.112   1.920
94193W        W58126  43.323  21.724  13.990
94194W        W58127   2.238  28.657  14.875
94195W        W58128   2.732  35.500  13.862
94196W        W58129  33.449  32.623   4.644
94197W        W58130  36.439  25.001  13.920
94198W        W58131  37.885  20.233   3.257
94199W        W58132  38.346  28.521   1.901
94200W        W58133  37.397  31.433  13.312
94201W        W58134   3.415  31.102   1.726
94202W        W58135   4.729  23.193  12.388
94203W        W58136  36.361  37.521   2.676
94204W        W58137  28.063  13.260   1.701
94205W        W58138  43.347  22.050   0.249
94206W        W58139  20.593   3.835  12.442
94207W        W58140  20.735  25.158   2.316
94208W        W58141  14.664  25.551  14.484
94209W        W58142  33.040  40.411  12.508
94210W        W58143  22.533  14.605  13.533
94211W        W58144  12.775   6.920  12.921
94212W        W58145   8.796   1.294   0.309
94213W        W58146  34.977  26.656  14.442
94214W        W58147  20.681  30.519  14.811
94215W        W58148   8.891  32.104  14.844
94216W        W58149  27.019  43.442   3.785
94217W        W58150  34.527  36.402   3.245
94218W        W58151  35.893   9.308   2.666
94219W        W58152   5.336  40.984   2.793
94220W        W58153  43.982  34.603   4.189
94221W        W58154  42.830  33.086   3.765
94222W        W58155  27.682   0.852  10.460
94223W        W58156  20.609  34.528   4.259
94224W        W58157  27.958  31.130  11.989
94225W        W58158  39.909  32.554  14.955
94226W        W58159   2.813  28.150  14.327
94227W        W58160  23.581   2.826  10.888
94228W        W58161  26.598  22.671  12.997
94229W        W58162  18.618  37.062   4.215
94230W        W58163  37.512  43.816  10.594
94231W        W58164  37.923  22.232   1.318
94232W        W58165   8.240  39.828  14.779
94233W        W58166   9.790  32.065   2.230
94234W        W58167   6.888  33.561  11.397
94235W        W58168  22.114  22.134   4.189
94236W        W58169  18.286  12.805  14.334
94237W        W58170  28.075  17.607  11.509
94238W        W58171  32.468  23.047   0.869
94239W        W58172  39.821   3.293  14.925
94240W        W58173  19.245   6.188  12.411
94241W        W58174   9.232  14.835   3.718
94242W        W58175  13.647   8.841   2.351
94243W        W58176  27.041  18.297  10.135
94244W        W58177  38.334  24.983   0.440
94245W        W58178  18.071  32.107   0.747
94246W        W58179  15.656  44.472  12.994
94247W        W58180  34.062   9.308   1.749
94248W        W58181  25.061   7.303   0.955
94249W        W58182  41.873  16.776   1.781
94250W        W58183  42.028   8.367   3.785
94251W        W58184  17.730  15.216  10.947
94252W        W58185  16.157  24.714  12.435
94253W        W58186  28.069  22.617  13.895
94254W        W58187  10.227   5.810   9.973
94255W        W58188  27.119  27.123   0.798
94256W        W58189   8.204   6.279   2.184
94257W        W58190   6.261  36.517   9.980
94258W        W58191  32.015  21.640  12.056
94259W        W58192  36.975  15.819  14.892
94260W        W58193  20.619  38.450  14.032
94261W        W58194  19.733  10.333   1.806
94262W        W58195   3.906  12.255   2.746
94263W        W58196  14.722  43.796   4.237
94264W        W58197  26.160  23.547  14.839
94265W        W58198  44.410  26.625   0.822
94266W        W58199  16.219  21.618   3.653
94267W        W58200  16.231  19.129   0.833
94268W        W58201   2.957  24.606  11.577
94269W        W58202  24.507  42.866  14.873
94270W        W58203  39.906  29.160  14.466
94271W        W58204  22.553  32.605  11.392
94272W        W58205  41.456   3.215  14.460
94273W        W58206  19.152  39.867  12.997
94274W        W58207  23.647   5.837  11.112
94275W        W58208  26.173  21.726   0.861
94276W        W58209  11.150   9.376   1.329
94277W        W58210  30.113  15.289  13.836
94278W        W58211  43.808  14.772  14.284
94279W        W58212  15.324  16.715   5.238
94280W        W58213  40.015  34.071   0.827
94281W        W58214  30.926   8.231  14.433
94282W        W58215   6.244  11.824   2.301
94283W        W58216  21.098  27.989   4.659
94284W        W58217   9.693   1.958  14.286
94285W        W58218  44.299   6.282  11.995
94286W        W58219  32.920  26.624   4.119
94287W        W58220  39.847  23.177   4.282
94288W        W58221  22.713  31.056   2.185
94289W        W58222  18.664   0.278   4.797
94290W        W58223  42.366   4.236   3.783
94291W        W58224  13.116  35.013  12.939
94292W        W58225  30.161  31.492   2.712
94293W        W58226   5.847   1.291   3.342
94294W        W58227  29.963  22.671  11.051
94295W        W58228  44.403  43.406  14.780
94296W        W58229  44.008  39.541  13.468
94297W        W58230  21.205  40.869   3.670
94298W        W58231   9.661  28.631  13.051
94299W        W58232  25.105   0.861   3.244
94300W        W58233  31.118  10.823  13.996
94301W        W58234   4.435  15.626   2.754
94302W        W58235  39.954   6.311   0.936
94303W        W58236  42.444  43.969   4.322
94304W        W58237   5.393  22.556   0.889
94305W        W58238  27.951  42.420   1.228
94306W        W58239  11.855  33.880  10.626
94307W        W58240  21.665  38.475   0.380
94308W        W58241   0.947  27.686  13.884
94309W        W58242  35.394  42.918   1.830
94310W        W58243  28.058  11.819  14.298
94311W        W58244  31.621  11.208   1.792
94312W        W58245  43.962  23.182  12.552
94313W        W58246   1.931  16.272   1.888
94314W        W58247  35.887  36.005  12.407
94315W        W58248  27.000   2.377   4.231
94316W        W58249  42.291  36.560   1.450
94317W        W58250  29.114  38.412  12.020
94318W        W58251  33.077   8.828   1.378
94319W        W58252  13.284   3.775  10.990
94320W        W58253  16.179  16.748   4.245
94321W        W58254  15.186  26.190  11.022
94322W        W58255  38.471  25.681  13.015
94323W        W58256  16.172  37.564   3.845
94324W        W58257  39.932  14.171  13.524
94325W        W58258   5.246  41.846  12.385
94326W        W58259  28.114  23.018  10.948
94327W        W58260  43.845  42.998  13.496
94328W        W58261  17.296  35.592   0.816
94329W        W58262  16.758  32.443  11.062
94330W        W58263  20.578  25.197   3.755
94331W        W58264  32.403  37.462   4.284
94332W        W58265   7.906  41.387  14.329
94333W        W58266  34.071  28.016   1.440
94334W        W58267  32.610  24.143  14.341
94335W        W58268  14.727  14.594   2.311
94336W        W58269  40.326  39.322   3.710
94337W        W58270  41.325  14.100   4.217
94338W        W58271  13.818  20.054  12.547
94339W        W58272  18.082  33.069   3.198
94340W        W58273  22.157  26.976   4.801
94341W        W58274  29.655  43.977   2.687
94342W        W58275  37.456   1.469   3.375
94343W        W58276  24.988  22.602  14.776
94344W        W58277  30.412  26.530   4.798
94345W        W58278  23.114  16.207  14.356
94346W        W58279  44.760  20.165  14.907
94347W        W58280   9.817   3.307  11.604
94348W        W58281  40.376  27.032  12.848
94349W        W58282  19.181  20.270  13.379
94350W        W58283  36.075  36.891  10.544
94351W        W58284   4.716  42.899  12.973
94352W        W58285   1.253  33.551   3.816
94353W        W58286  24.044  14.156   3.296
94354W        W58287  18.632  22.542   5.209
94355W        W58288  10.334  11.130  11.993
94356W        W58289  25.548  20.269   1.803
94357W        W58290  38.919  17.563   1.921
94358W        W58291  27.016  39.354   3.167
94359W        W58292  16.300  39.997  14.418
94360W        W58293   6.720  12.813  11.882
94361W        W58294  29.498  33.027   2.803
94362W        W58295   8.350  14.222   0.749
94363W        W58296  17.130  26.971  14.354
94364W        W58297  11.282  32.405   0.259
94365W        W58298  29.423   8.658   2.764
94366W        W58299  34.525  21.719   2.318
94367W        W58300  39.944  34.888   0.290
94368W        W58301  16.734  41.852   1.733
94369W        W58302  42.407  37.884   0.477
94370W        W58303   4.906   0.435  10.624
94371W        W58304   9.386   3.846  10.617
94372W        W58305   1.336  16.795  10.952
94373W        W58306  13.788   9.308  12.912
94374W        W58307  30.939  24.095  14.424
94375W        W58308   0.365  26.959   0.257
94376W        W58309  19.053  21.645  14.875
94377W        W58310  14.225  18.207  12.385
94378W        W58311  29.930  31.950  13.939
94379W        W58312  27.031  28.055   4.734
94380W        W58313  36.920  10.371   1.418
94381W        W58314  29.065  26.043  14.326
94382W        W58315  19.647  30.483   0.922
94383W        W58316  38.547  15.611   3.218
94384W        W58317  36.493  30.554  10.602
94385W        W58318   7.247  19.277   1.756
94386W        W58319  44.926   2.834  11.029
94387W        W58320  18.546   2.318   3.350
94388W        W58321  41.871  11.303  14.477
94389W        W58322  30.099  13.778   3.282
94390W        W58323  31.035  21.677   3.854
94391W        W58324  21.213  17.585   3.802
94392W        W58325  21.620  25.561  12.549
94393W        W58326  42.485  14.173  11.405
94394W        W58327  18.195   1.373   1.318
94395W        W58328  40.037  42.797  10.412
94396W        W58329   7.263  12.651  14.275
94397W        W58330  32.130  14.126   3.247
94398W        W58331  10.852  22.085   2.209
94399W        W58332  40.458  37.554   9.961
94400W        W58333  39.477   5.327  11.020
94401W        W58334   4.790  31.585  13.871
94402W        W58335  24.638  38.857   4.338
94403W        W58336   8.310   4.762   1.741
94404W        W58337   2.907   5.430   2.719
94405W        W58338  13.126  12.238   4.117
94406W        W58339  32.490  18.547   2.210
94407W        W58340  15.613  23.643  10.996
94408W        W58341  33.919  15.139   3.796
94409W        W58342  18.092  36.971  13.970
94410W        W58343  17.687  15.671   5.682
94411W        W58344  24.165  13.291   2.790
94412W        W58345  21.656  10.152   0.865
94413W        W58346  36.359  43.852  12.546
94414W        W58347  10.738  28.477  12.030
94415W        W58348  19.105  13.124   0.433
94416W        W58349  43.286  22.730  14.017
94417W        W58350  43.487  17.648  12.570
94418W        W58351  43.282   5.862  12.958
94419W        W58352  13.119   7.348  10.094
94420W        W58353  44.772  16.252  11.859
94421W        W58354   5.385   4.857  11.470
94422W        W58355   0.766  25.502   0.428
94423W        W58356  17.684  37.478   5.209
94424W        W58357   3.907  13.322   2.218
94425W        W58358  31.963  24.624   4.213
94426W        W58359   8.840  16.266  13.406
94427W        W58360  18.064  16.681  13.438
94428W        W58361  39.394  41.304  11.900
94429W        W58362  40.860  29.148   0.840
94430W        W58363   8.368  44.907   2.236
94431W        W58364  41.352   3.860  14.847
94432W        W58365  19.582  25.042  11.122
94433W        W58366  17.157   4.739  11.559
94434W        W58367  31.965  25.101  14.837
94435W        W58368  17.745   3.273  12.062
94436W        W58369  36.373  25.195  10.594
94437W        W58370  26.493  36.571   4.269
94438W        W58371  23.160  36.357  12.023
94439W        W58372   6.323  25.996  12.896
94440W        W58373   5.406  26.484   1.845
94441W        W58374  39.534  26.492   4.807
94442W        W58375   6.898  16.678   1.348
94443W        W58376  34.521  38.900   1.380
94444W        W58377  27.636  25.573  12.031
94445W        W58378  36.937  28.118  12.999
94446W        W58379   7.172   1.921   4.758
94447W        W58380  38.848   5.427  10.561
94448W        W58381  36.476   0.422  12.522
94449W        W58382  26.519  24.665   0.934
94450W        W58383  34.525  17.636  12.465
94451W        W58384  14.225  10.731  12.890
94452W        W58385  29.135  31.100   4.197
94453W        W58386  41.023  41.877  11.441
94454W        W58387  34.462  23.530   2.386
94455W        W58388  28.586  19.756  13.525
94456W        W58389  23.645   5.204  13.936
94457W        W58390  19.168  37.505   3.761
94458W        W58391   6.878  43.833  14.834
94459W        W58392  42.993  12.136   3.170
94460W        W58393  30.918  14.217  12.854
94461W        W58394  15.087  24.159   4.644
94462W        W58395  16.174  33.941   1.368
94463W        W58396  19.103   0.862   2.870
94464W        W58397  24.658  12.127   0.443
94465W        W58398  13.230  39.413  10.551
94466W        W58399  27.968  40.020   0.368
94467W        W58400  23.184  27.974   3.853
94468W        W58401  17.601  32.026  14.902
94469W        W58402  39.833  10.200   4.771
94470W        W58403  29.021   3.757  11.897
94471W        W58404  27.041  24.000  13.851
94472W        W58405  24.630  14.221   0.922
94473W        W58406  32.998   7.377  10.921
94474W        W58407  14.312  10.355  14.347
94475W        W58408   9.815  28.168   3.269
94476W        W58409  13.835  25.993  11.887
94477W        W58410  32.473  27.193   4.738
94478W        W58411  37.424  37.472  11.897
94479W        W58412  16.673  34.382   3.649
94480W        W58413  34.376  11.261   0.894
94481W        W58414   6.851  17.571  14.350
94482W        W58415  38.405  22.095   4.259
94483W        W58416  36.001  23.577   0.355
94484W        W58417  34.054   3.452  13.425
94485W        W58418  34.578  10.639   2.195
94486W        W58419  39.890  35.366   1.415
94487W        W58420   9.670   4.286  13.382
94488W        W58421   5.708  32.469  12.904
94489W        W58422  23.215  39.967  12.423
94490W        W58423  40.940  33.389  12.538
94491W        W58424  18.572  19.538   5.312
94492W        W58425  37.434  21.092  14.829
94493W        W58426   1.740  33.623  14.861
94494W        W58427  35.480   9.358   3.333
94495W        W58428  11.858   1.945   1.842
94496W        W58429  37.368  32.516  12.827
94497W        W58430  26.628  24.213   3.219
94498W        W58431  32.959   1.355   0.447
94499W        W58432  27.571  27.030   2.301
94500W        W58433  32.531   6.921  12.375
94501W        W58434  23.627  37.975   4.829
94502W        W58435  16.699  21.653  10.600
94503W        W58436  27.043   7.263  11.028
94504W        W58437   2.289  11.262  14.509
94505W        W58438  19.731  37.081   4.815
94506W        W58439   8.295  14.796  11.437
94507W        W58440  37.346   0.415   4.301
94508W        W58441  18.269   9.149   2.877
94509W        W58442  32.543  16.141   1.709
94510W        W58443  41.341  43.341   1.425
94511W        W58444  17.660  19.148   3.259
94512W        W58445   3.312   3.215  11.884
94513W        W58446  18.656  40.926   3.831
94514W        W58447  17.730   6.832  10.930
94515W        W58448  11.188  17.603   1.699
94516W        W58449  19.618  23.593  10.525
94517W        W58450   7.253   9.319   3.727
94518W        W58451  40.347   3.372   5.200
94519W        W58452   8.722  40.005   2.213
94520W        W58453  21.077   5.254  12.571
94521W        W58454  16.296  33.589  14.928
94522W        W58455   8.804  42.787   3.188
94523W        W58456  32.905  36.957   2.720
94524W        W58457  13.751  17.623  13.925
94525W        W58458  26.531  38.508  13.324
94526W        W58459  31.475  24.198   4.267
94527W        W58460  11.802  17.746  14.814
94528W        W58461  29.993  17.788   2.818
94529W        W58462  43.470  12.678   4.765
94530W        W58463  28.633  23.144   1.349
94531W        W58464  37.540   5.372   3.790
94532W        W58465  25.211  20.647  13.815
94533W        W58466  11.776  18.665  10.944
94534W        W58467  23.136  22.044   3.328
94535W        W58468  31.993  22.523   5.311
94536W        W58469  28.643   7.739   0.333
94537W        W58470  26.135  13.190   5.304
94538W        W58471  35.408  31.632  13.060
94539W        W58472  26.564   7.907   1.845
94540W        W58473   0.465  40.541  11.061
94541W        W58474  35.055  39.877  11.447
94542W        W58475  38.832  29.554  12.049
94543W        W58476  34.034   7.742   2.811
94544W        W58477  18.200  38.003   3.368
94545W        W58478  38.002  41.345  12.342
94546W        W58479  33.899  22.167   4.615
94547W        W58480   1.391  16.580  12.502
94548W        W58481  34.592  30.533   0.248
94549W        W58482  10.633  37.025   2.326
94550W        W58483  37.470  39.407  14.516
94551W        W58484  13.671  41.329  13.327
94552W        W58485   5.200  32.526  14.976
94553W        W58486  28.047  16.261  10.455
94554W        W58487   3.726  38.893   3.805
94555W        W58488  17.268  23.227  11.918
94556W        W58489   2.744  38.056   4.655
94557W        W58490  23.692  28.487   4.315
94558W        W58491  39.945  26.552  14.860
94559W        W58492  27.492  12.287  13.334
94560W        W58493   3.433  31.566   3.790
94561W        W58494  11.780  33.529  13.475
94562W        W58495  19.099  23.234   0.742
94563W        W58496  32.002  17.106   0.755
94564W        W58497  11.319  22.012  11.022
94565W        W58498   0.749  35.576   1.834
94566W        W58499  31.450  20.594   2.676
94567W        W58500  36.093  12.353  11.395
94568W        W58501  32.545  16.151   0.854
94569W        W58502  10.822  19.190   2.197
94570W        W58503  30.037   5.740  14.934
94571W        W58504  22.661  38.364  10.992
94572W        W58505  16.175   2.961   0.307
94573W        W58506  40.798  18.060  13.902
94574W        W58507  39.888  43.855   2.296
94575W        W58508  41.492  28.068  14.330
94576W        W58509   1.885   7.872   1.369
94577W        W58510   0.436   9.250   4.128
94578W        W58511  44.971  42.450  14.841
94579W        W58512  33.023  40.814  10.576
94580W        W58513  33.509  22.147   1.734
94581W        W58514  24.641  38.377  13.545
94582W        W58515  33.600   4.427  11.564
94583W        W58516  36.079  27.028  11.929
94584W        W58517   6.229  38.888   1.814
94585W        W58518  24.662  32.010  13.800
94586W        W58519  23.538  39.992  13.841
94587W        W58520   9.186   5.769  10.467
94588W        W58521   0.345  44.490   2.418
94589W        W58522  37.937  18.122  11.534
94590W        W58523   7.819  39.809  12.515
94591W        W58524   2.348  15.761   2.765
94592W        W58525  39.467  30.057   4.780
94593W        W58526  25.509   2.799   1.719
94594W        W58527  20.629  44.813  13.370
94595W        W58528  20.546   1.900   4.147
94596W        W58529  39.530  40.002  13.505
94597W        W58530   4.343  36.012   4.146
94598W        W58531  41.915  37.068  12.356
94599W        W58532   4.890  28.626   3.356
94600W        W58533  22.694  38.856   3.780
94601W        W58534  33.404   6.294  14.393
94602W        W58535  43.423  31.559  10.948
94603W        W58536  11.265  44.865   4.185
94604W        W58537   2.892  42.812  12.407
94605W        W58538  39.848  24.614  13.341
94606W        W58539   2.229   0.400   0.963
94607W        W58540  28.052   1.371   0.870
94608W        W58541  42.990  13.767  10.427
94609W        W58542   5.392  20.088  14.999
94610W        W58543  35.059  32.927   0.918
94611W        W58544   1.841  20.637  11.011
94612W        W58545  33.975  17.660  11.105
94613W        W58546  19.129  37.440  11.898
94614W        W58547  11.258  24.557   2.731
94615W        W58548  34.374  32.013  12.460
94616W        W58549  10.759  36.916   1.228
94617W        W58550   2.312  43.282   1.351
94618W        W58551   8.294  41.478  13.902
94619W        W58552  19.222  44.358   4.804
94620W        W58553  43.905  17.577  14.898
94621W        W58554  26.962  41.985   3.173
94622W        W58555  26.529  43.514   1.386
94623W        W58556  40.489  20.654   4.640
94624W        W58557  27.631  33.934   4.272
94625W        W58558  21.704  19.092  14.316
94626W        W58559  20.135  14.282   4.731
94627W        W58560   4.274  17.771  11.912
94628W        W58561  36.864  12.652  13.459
94629W        W58562  22.132  15.620  13.427
94630W        W58563  34.020  20.267   0.474
94631W        W58564  13.193  11.837   0.277
94632W        W58565  35.983  25.206   3.383
94633W        W58566   3.238  25.191   3.319
94634W        W58567   8.209  26.063   1.379
94635W        W58568  22.164  30.538   3.664
94636W        W58569   2.347  40.370   4.168
94637W        W58570   1.451  23.031   4.258
94638W        W58571  43.959  37.860   5.805
94639W        W58572  20.258  25.002   5.275
94640W        W58573   2.840  23.214  11.002
94641W        W58574  28.062   1.827  12.051
94642W        W58575  15.145  14.141   0.846
94643W        W58576  27.672  14.759   2.858
94644W        W58577  31.153  38.423  10.472
94645W        W58578  29.945  28.548   2.815
94646W        W58579  22.111  19.158  14.829
94647W        W58580  39.836  10.344   2.804
94648W        W58581  17.660  17.260  13.525
94649W        W58582  34.120  16.732   0.944
94650W        W58583  41.041  31.002  12.026
94651W        W58584  42.950   9.890  14.026
94652W        W58585   5.823  30.996   0.467
94653W        W58586  18.702  36.569  14.911
94654W        W58587  27.663   8.300   2.315
94655W        W58588  17.794  13.269  13.792
94656W        W58589  11.361  36.591   0.799
94657W        W58590   9.379  30.651   1.704
94658W        W58591  38.343   8.836  11.925
94659W        W58592  27.166  19.252   2.727
94660W        W58593  24.546  15.785  12.370
94661W        W58594   5.910  31.149   0.926
94662W        W58595   4.212  18.553   0.748
94663W        W58596  19.711  41.818   0.755
94664W        W58597  28.621  17.797  13.440
94665W        W58598  40.382  44.979   3.681
94666W        W58599  31.606  25.217  13.434
94667W        W58600  33.478  37.998  10.914
94668W        W58601  20.227  42.864  10.438
94669W        W58602  33.502   5.360   3.234
94670W        W58603   2.406   3.917  14.009
94671W        W58604  35.975  10.225  10.425
94672W        W58605  22.013   3.328   1.703
94673W        W58606  30.606  36.081  14.448
94674W        W58607  19.591  27.651   1.317
94675W        W58608   5.808  29.019   4.218
94676W        W58609  10.275  34.987  13.985
94677W        W58610  18.131  42.332  13.933
94678W        W58611  43.468  29.139  13.344
94679W        W58612  34.458  24.626   0.889
94680W        W58613  44.913  35.463   4.753
94681W        W58614  15.240  38.414  13.823
94682W        W58615  27.454   7.789  14.806
94683W        W58616  26.981  36.959   4.147
94684W        W58617  19.101  29.564  12.875
94685W        W58618  22.165  19.181  12.563
94686W        W58619  30.108  17.799   4.738
94687W        W58620  30.583  25.037   1.862
94688W        W58621  38.484  40.419   4.261
94689W        W58622  33.927  38.006   0.797
94690W        W58623  44.484   0.967  12.429
94691W        W58624  32.407  35.025   4.342
94692W        W58625  21.727  33.533  13.420
94693W        W58626  28.506   2.835  11.484
94694W        W58627  11.364  11.744  12.878
94695W        W58628  16.137  44.290  10.999
94696W        W58629  14.813  26.953   2.320
94697W        W58630  36.471  40.344  11.022
94698W        W58631  40.397   1.334   3.853
94699W        W58632  30.933  27.546  10.942
94700W        W58633  36.895   4.402  11.997
94701W        W58634  26.098   4.204  14.375
94702W        W58635  27.120  43.856  12.026
94703W        W58636  31.144  39.051  13.920
94704W        W58637  16.686   4.240  13.314
94705W        W58638  30.037   1.289   4.302
94706W        W58639  29.524  22.203  10.516
94707W        W58640  12.633  24.644  13.356
94708W        W58641  14.744  39.323   0.741
94709W        W58642  41.533  14.250   1.784
94710W        W58643  20.676   4.902   1.753
94711W        W58644  20.242  13.670   4.792
94712W        W58645  37.832   8.755   4.275
94713W        W58646  22.511  32.041   9.956
94714W        W58647  41.482  30.048  12.054
94715W        W58648   6.227  34.570  14.932
94716W        W58649  14.664  25.560  13.929
94717W        W58650  18.772  29.597   4.744
94718W        W58651  21.573  25.470  11.096
94719W        W58652   3.350  36.525  11.535
94720W        W58653  36.506   2.761  13.391
94721W        W58654  38.466  20.108   1.412
94722W        W58655  31.030  36.979   1.279
94723W        W58656  19.607  44.391  11.520
94724W        W58657  14.111  18.167  13.512
94725W        W58658  25.538  17.254   3.646
94726W        W58659   5.729  28.634   2.699
94727W        W58660  16.792   0.746   4.766
94728W        W58661   9.847  33.014  11.866
94729W        W58662  18.286   0.922  13.318
94730W        W58663  27.035  40.326  12.392
94731W        W58664  19.232  31.995  11.009
94732W        W58665  30.039  24.024   2.798
94733W        W58666  21.116   6.220  14.999
94734W        W58667   0.840  44.374   0.465
94735W        W58668  13.303  38.896   2.182
94736W        W58669   7.784  13.180   0.303
94737W        W58670  38.035  19.173  14.368
94738W        W58671   9.724   4.358  11.984
94739W        W58672  15.094  33.411   1.352
94740W        W58673  23.657  12.801  12.536
94741W        W58674  14.246   9.221   4.140
94742W        W58675  43.869   6.183   1.911
94743W        W58676  39.994  10.349  11.856
94744W        W58677  16.171  13.696   1.717
94745W        W58678  44.316   8.182  13.515
94746W        W58679  36.920  39.925   4.699
94747W        W58680  12.166  43.365  14.915
94748W        W58681  28.447   6.252   0.793
94749W        W58682  27.459  13.321   0.921
94750W        W58683  34.464   2.850  12.051
94751W        W58684   7.302  15.148   2.232
94752W        W58685  12.614   0.427   3.218
94753W        W58686   8.832  32.133   1.230
94754W        W58687   4.295  25.476  14.964
94755W        W58688  11.269  37.068   3.252
94756W        W58689  44.374  14.155   3.348
94757W        W58690  36.890  39.386   2.204
94758W        W58691   6.778  20.679   0.429
94759W        W58692  14.203  24.578   2.817
94760W        W58693  24.168   7.670   1.695
94761W        W58694  24.157  39.045   4.831
94762W        W58695  27.573  30.625  10.537
94763W        W58696   9.373  10.336   4.819
94764W        W58697  17.561  29.037  11.431
94765W        W58698  15.218  35.997   2.232
94766W        W58699  43.007  40.336  14.351
94767W        W58700  44.443  39.889  12.978
94768W        W58701  38.997  41.882   3.192
94769W        W58702  12.653  24.621  10.629
94770W        W58703  19.117  35.949   5.258
94771W        W58704  36.448  17.169  12.894
94772W        W58705  43.316  20.056   2.312
94773W        W58706  30.078  30.093   3.648
94774W        W58707  44.909  25.048  11.392
94775W        W58708   4.776  25.603   4.114
94776W        W58709  28.026  38.986   5.306
94777W        W58710   5.223  22.502   1.779
94778W        W58711  39.989  34.111  12.346
94779W        W58712  14.656  12.667  14.296
94780W        W58713  35.363  12.785   2.881
94781W        W58714   1.923  25.701   3.767
94782W        W58715  15.759  32.542   1.805
94783W        W58716   6.795   9.380  11.586
94784W        W58717  34.049  21.718   4.116
94785W        W58718  27.627   7.357   2.371
94786W        W58719  15.669  33.106   4.766
94787W        W58720  43.495  42.484  10.492
94788W        W58721  14.685  41.993   1.360
94789W        W58722   7.737  29.014   4.319
94790W        W58723  23.025  16.076  11.001
94791W        W58724  26.161  18.163  13.439
94792W        W58725  32.050   1.299   3.713
94793W        W58726   0.465  28.109   1.745
94794W        W58727  40.826  19.142  14.388
94795W        W58728  33.612  32.929  13.830
94796W        W58729  42.816  29.043   1.838
94797W        W58730   2.747  16.743  13.404
94798W        W58731  29.478  31.565   3.704
94799W        W58732   7.264   1.761   0.780
94800W        W58733  15.219   2.231  12.988
94801W        W58734   1.292  41.477  10.604
94802W        W58735  40.946  40.486  13.059
94803W        W58736   7.900  30.066   1.233
94804W        W58737  23.568  41.821  14.811
94805W        W58738  20.274  38.921   2.696
94806W        W58739  39.867  36.073   2.826
94807W        W58740  22.065  14.631   3.330
94808W        W58741   9.155  21.585   2.200
94809W        W58742  44.351   4.771  11.078
94810W        W58743  23.087  36.019   0.386
94811W        W58744  36.455   7.813   1.339
94812W        W58745  32.501  36.455  11.493
94813W        W58746   8.878  28.108   0.908
94814W        W58747   1.272  29.949  13.800
94815W        W58748  33.024   0.777  11.564
94816W        W58749  32.068  28.178   4.831
94817W        W58750   8.716   6.711  13.446
94818W        W58751  29.551   7.233  12.908
94819W        W58752  41.442  20.657   4.657
94820W        W58753  30.555  34.946   3.204
94821W        W58754  15.137  43.505  10.947
94822W        W58755  20.612  44.968  11.556
94823W        W58756   6.685  40.424   1.793
94824W        W58757  31.029  10.777  13.511
94825W        W58758  17.794   2.791  13.534
94826W        W58759  37.337  35.081  14.511
94827W        W58760  44.389  19.133   1.212
94828W        W58761   8.794  26.048  10.586
94829W        W58762  37.352   2.800  11.439
94830W        W58763  34.091   4.322   2.295
94831W        W58764  33.068   9.243   0.929
94832W        W58765  14.327  12.610  13.371
94833W        W58766  39.555  41.972   4.263
94834W        W58767  27.476  35.885  11.863
94835W        W58768   3.289  11.304  13.423
94836W        W58769  36.588  44.818   3.851
94837W        W58770  25.143   4.786  14.784
94838W        W58771  23.173   0.912   2.249
94839W        W58772  14.823  43.380   4.707
94840W        W58773  35.422  19.583   2.722
94841W        W58774   4.360  42.418  13.055
94842W        W58775   2.418  40.530   1.229
94843W        W58776  23.033   0.894  13.343
94844W        W58777  38.530  16.164  12.013
94845W        W58778  30.501  16.256  13.842
94846W        W58779  29.626   8.379  12.922
94847W        W58780  26.026  37.416  14.941
94848W        W58781  10.225  38.903   3.722
94849W        W58782  21.532  40.343  13.879
94850W        W58783  24.609  21.681   1.715
94851W        W58784   9.840   8.677   1.853
94852W        W58785  35.519   2.907  13.795
94853W        W58786  32.039  10.217   4.805
94854W        W58787  44.858   1.347   2.394
94855W        W58788  22.075  29.108   0.403
94856W        W58789  10.358  14.760  12.874
94857W        W58790   6.818  34.574   2.727
94858W        W58791  38.453  21.071  10.063
94859W        W58792  21.099  25.973   4.345
94860W        W58793  22.085  39.439  10.526
94861W        W58794   4.287  17.707   2.835
94862W        W58795  34.041  34.442  13.354
94863W        W58796  25.150   8.328   1.268
94864W        W58797   8.320  12.782  14.305
94865W        W58798  18.704  11.736  11.498
94866W        W58799  26.031   1.787  11.966
94867W        W58800  42.805  10.870   3.288
94868W        W58801   0.893  38.450   3.208
94869W        W58802  18.234  29.043   1.416
94870W        W58803  31.994   6.270  13.961
94871W        W58804  30.453   4.843  11.582
94872W        W58805  16.792  29.130  13.948
94873W        W58806   2.837  15.307  11.489
94874W        W58807   2.836  44.974   0.334
94875W        W58808   7.208  27.114  13.978
94876W        W58809   9.655  11.842  14.310
94877W        W58810  37.531   4.395   3.647
94878W        W58811  14.769  44.307   0.910
94879W        W58812  14.150  41.034  12.000
94880W        W58813  34.035  43.374   2.664
94881W        W58814  30.428  37.562   3.845
94882W        W58815  14.273  41.902   3.218
94883W        W58816  25.491   0.351   0.262
94884W        W58817  40.435  16.232  12.952
94885W        W58818  30.443  24.639   2.847
94886W        W58819  14.140  44.761  14.407
94887W        W58820  36.509   6.677   0.851
94888W        W58821  11.303  44.806  14.470
94889W        W58822   6.399  23.999  12.390
94890W        W58823  11.665  12.759  11.910
94891W        W58824   8.690  44.494  14.895
94892W        W58825   6.343   0.955   4.270
94893W        W58826   8.680  17.181  14.417
94894W        W58827   7.297   9.666   4.839
94895W        W58828  21.169   8.377  11.983
94896W        W58829  35.015  38.963  11.495
94897W        W58830  22.510  36.423  13.001
94898W        W58831   0.949   6.920  13.954
94899W        W58832  31.018   1.971  10.618
94900W        W58833   8.161  12.646  13.423
94901W        W58834  31.474  17.798   2.839
94902W        W58835  14.211  22.243  13.476
94903W        W58836  31.004  14.320   1.357
94904W        W58837  26.603  12.624  11.108
94905W        W58838  40.934   5.833   1.344
94906W        W58839  23.504  37.489  13.533
94907W        W58840  15.720  40.844   4.824
94908W        W58841  33.003  32.051   1.412
94909W        W58842  25.201   6.706  12.419
94910W        W58843  39.906  17.753  10.631
94911W        W58844   0.394  25.072  12.854
94912W        W58845  26.130  37.339   2.790
94913W        W58846  20.653  28.654  14.023
94914W        W58847  39.944   0.815  14.866
94915W        W58848  41.834  10.158  11.869
94916W        W58849  26.142   8.767  13.037
94917W        W58850  37.856  38.859  13.318
94918W        W58851  26.481  16.810   0.438
94919W        W58852   8.734  23.680   3.253
94920W        W58853  24.670  16.710  11.912
94921W        W58854  19.583  41.464   0.305
94922W        W58855  37.577  25.068  10.535
94923W        W58856   6.894  29.512  11.081
94924W        W58857   4.300  13.289   4.134
94925W        W58858   1.780  17.773  13.846
94926W        W58859   9.188   1.413   4.836
94927W        W58860  43.845  36.564   4.793
94928W        W58861  36.538  30.932  12.512
94929W        W58862  23.149  28.451  12.989
94930W        W58863  29.999  39.427  13.873
94931W        W58864  23.726  33.881  14.911
94932W        W58865   7.264  24.141   2.192
94933W        W58866  27.178   8.228  11.970
94934W        W58867  44.333   6.923  10.931
94935W        W58868  18.770  25.610  13.923
94936W        W58869  24.681  34.532  10.622
94937W        W58870  27.627  33.968   1.908
94938W        W58871   6.365   0.348  11.041
94939W        W58872   0.777   5.780  14.810
94940W        W58873  17.596  27.026   1.233
94941W        W58874  36.868  12.806   2.672
94942W        W58875  25.069  44.840  13.026
94943W        W58876  28.438  19.219  11.917
94944W        W58877  29.085  12.788  14.760
94945W        W58878  37.954  35.979  13.398
94946W        W58879  35.529  21.139   2.337
94947W        W58880  28.562  28.510  13.513
94948W        W58881  28.124   6.296  14.504
94949W        W58882  37.871  39.391  11.944
94950W        W58883  31.440  23.131   2.239
94951W        W58884   7.843  18.196   2.773
94952W        W58885  12.646   2.753   0.372
94953W        W58886  41.342   6.680   4.716
94954W        W58887   9.738  34.963  10.461
94955W        W58888  31.012  28.607   3.700
94956W        W58889  31.472   2.961  10.935
94957W        W58890  40.384   7.209  11.992
94958W        W58891  25.991  17.731  14.372
94959W        W58892  13.608  19.703  14.427
94960W        W58893  15.263  15.664  13.010
94961W        W58894  31.117  43.484   1.358
94962W        W58895  18.288  12.344  14.949
94963W        W58896  17.144  25.083  13.947
94964W        W58897  41.894  36.068   3.689
94965W        W58898  23.576  26.073   0.950
94966W        W58899  19.588  35.906  11.950
94967W        W58900  25.494  19.542   3.312
94968W        W58901  33.497  36.927   0.825
94969W        W58902  42.025  14.127   1.864
94970W        W58903  12.248  14.660   3.216
94971W        W58904  38.363  19.215  13.023
94972W        W58905   6.250   4.721   4.638
94973W        W58906  24.979  37.436   0.265
94974W        W58907   4.357  14.228  10.108
94975W        W58908   1.448  23.664   4.218
94976W        W58909  33.056   4.309  14.489
94977W        W58910  23.656  43.916  12.568
94978W        W58911  32.511  18.775  14.950
94979W        W58912   6.192   3.888  14.814
94980W        W58913  43.957  29.094  12.024
94981W        W58914  21.236  31.401   2.246
94982W        W58915  38.538  37.572   3.829
94983W        W58916  10.224  32.523   1.376
94984W        W58917  14.102  40.363  11.885
94985W        W58918  27.986  43.010   1.241
94986W        W58919  28.980   1.439  10.994
94987W        W58920  17.184  39.489  10.950
94988W        W58921  18.730  29.006  13.539
94989W        W58922  30.032  24.646  13.810
94990W        W58923  32.028  10.794   1.217
94991W        W58924  30.045  16.131  14.807
94992W        W58925   6.872  44.872  14.853
94993W        W58926  17.066  27.611   4.784
94994W        W58927  38.485  23.668  11.502
94995W        W58928  32.953  29.024   0.419
94996W        W58929  35.920  26.539  12.465
94997W        W58930  36.468  19.275  12.573
94998W        W58931   3.820  44.414   1.859
94999W        W58932   8.189  34.391   4.742
95000W        W58933  14.691  43.391  14.462
95001W        W58934  27.507  19.269  11.888
95002W        W58935   1.386  13.271  12.457
95003W        W58936  16.250  35.107  10.097
95004W        W58937  25.612  34.907   0.906
95005W        W58938   8.379  18.160  11.962
95006W        W58939  19.085   6.246  10.595
95007W        W58940  15.697  42.861  11.460
95008W        W58941  10.293  20.721   4.728
95009W        W58942  37.342  20.687  12.906
95010W        W58943   9.167  33.018   2.891
95011W        W58944  38.966  32.618  13.381
95012W        W58945  43.480  25.092   1.348
95013W        W58946  10.738  30.035   0.378
95014W        W58947   6.742  40.812   4.197
95015W        W58948  17.069   1.320  13.344
95016W        W58949  13.147   5.273  11.471
95017W        W58950  13.209  32.082   2.272
95018W        W58951   3.737  29.158  12.503
95019W        W58952  22.561  33.432   4.727
95020W        W58953  21.081  41.524   0.838
95021W        W58954   9.884   8.192  12.553
95022W        W58955  38.922  40.308  11.580
95023W        W58956   4.911  11.168   2.341
95024W        W58957  10.176   5.428  13.958
95025W        W58958  44.334  42.798  13.359
95026W        W58959  15.621  11.674   2.370
95027W        W58960  21.741  19.534   2.772
95028W        W58961  12.643  40.005   1.288
95029W        W58962  14.306  34.922  12.092
95030W        W58963  28.658  20.217  11.875
95031W        W58964  26.674  25.219  12.439
95032W        W58965  33.419   8.343  14.472
95033W        W58966  17.264   9.871   4.280
95034W        W58967  28.670  19.558  12.478
95035W        W58968  42.908  35.455  12.413
95036W        W58969  38.948  23.603   1.281
95037W        W58970  29.043  21.180  13.530
95038W        W58971  36.452  14.260   0.242
95039W        W58972  11.226   3.758   4.611
95040W        W58973  38.506  25.509  14.815
95041W        W58974   4.823   8.301  13.810
95042W        W58975  22.211  24.697  13.329
95043W        W58976  24.486  42.439  11.484
95044W        W58977  44.435  40.445   0.798
95045W        W58978   8.205   1.241   2.328
95046W        W58979  14.741  44.859   4.752
95047W        W58980   4.923  19.543  11.950
95048W        W58981  37.937  30.511  14.813
95049W        W58982   3.761  10.203  13.813
95050W        W58983  15.098  16.285  13.501
95051W        W58984  34.431  25.526  14.286
95052W        W58985  44.388  36.881   3.798
95053W        W58986  44.400  39.931  11.887
95054W        W58987  11.322  44.793   1.345
95055W        W58988   4.398  40.538   3.733
95056W        W58989   9.685  31.041  13.904
95057W        W58990  22.084  21.221  12.468
95058W        W58991  27.142  35.545  10.919
95059W        W58992  24.488  27.111   3.194
95060W        W58993   3.721  21.182  14.964
95061W        W58994  23.996  32.927   1.824
95062W        W58995  26.697  44.281   4.145
95063W        W58996  36.997  40.857   1.384
95064W        W58997  38.985  30.067   4.652
95065W        W58998  41.406  14.148  10.463
95066W        W58999  12.129  32.938   2.780
95067W        W59000  26.470  30.420  12.544
95068W        W59001  30.632  11.272   3.385
95069W        W59002  28.074  16.586   3.179
95070W        W59003   5.274  15.249   1.891
95071W        W59004  41.841  32.433   3.698
95072W        W59005  27.108  20.595   1.340
95073W        W59006  44.996  31.484  13.988
95074W        W59007  37.443  24.069  14.441
95075W        W59008  44.897  17.193  10.613
95076W        W59009  22.730   9.674  10.957
95077W        W59010  18.157   4.762   4.745
95078W        W59011  18.592  15.153  11.418
95079W        W59012  38.049  33.038   3.340
95080W        W59013  20.099  41.859  13.921
95081W        W59014  36.848  15.808   2.217
95082W        W59015  25.593  24.689  10.917
95083W        W59016   5.391   2.300  13.856
95084W        W59017   6.734   1.440   4.349
95085W        W59018  16.653  17.263  12.536
95086W        W59019  33.417  26.536  13.062
95087W        W59020  35.914  22.538   4.620
95088W        W59021  36.545  34.579  11.957
95089W        W59022  23.099  39.053  10.144
95090W        W59023  39.485  41.817  11.016
95091W        W59024  15.777  25.205  14.296
95092W        W59025  25.101  31.027   3.682
95093W        W59026   5.307  28.678  14.816
95094W        W59027  11.781   7.803   0.284
95095W        W59028   9.781  24.565  14.417
95096W        W59029  14.662  15.589   1.427
95097W        W59030   4.347  17.581  14.839
95098W        W59031  36.955  22.567   4.815
95099W        W59032   0.491  35.602  14.422
95100W        W59033   4.778  29.644   4.642
95101W        W59034  11.222  29.465  11.055
95102W        W59035   2.806   7.702   3.301
95103W        W59036  35.879  24.000  14.859
95104W        W59037   9.737   7.281   1.389
95105W        W59038  44.769  17.123  12.512
95106W        W59039   3.902  16.655   3.718
95107W        W59040   6.915  27.190   1.369
95108W        W59041   1.882  26.072   0.760
95109W        W59042  33.983   0.412  10.932
95110W        W59043   9.818   9.842   3.233
95111W        W59044  25.018  40.341  13.029
95112W        W59045  12.701  16.709   4.222
95113W        W59046  29.030  31.046  14.988
95114W        W59047  31.544  13.335   1.242
95115W        W59048  19.177  15.187   1.748
95116W        W59049  31.114  28.662  11.536
95117W        W59050  43.465   5.344   1.275
95118W        W59051  12.294  25.501  10.553
95119W        W59052  33.511  38.438   1.724
95120W        W59053  23.578  19.179  14.319
95121W        W59054  32.075  43.837  10.161
95122W        W59055  27.114   5.394   2.259
95123W        W59056   4.411  25.500  11.559
95124W        W59057  31.046  19.672  12.419
95125W        W59058  33.961  41.018  12.930
95126W        W59059  36.434  41.978   2.794
95127W        W59060  41.862  10.333   2.417
95128W        W59061  36.993  33.958   2.313
95129W        W59062  24.179  25.552  13.540
95130W        W59063  24.696  36.987  14.414
95131W        W59064   2.807  32.582  13.051
95132W        W59065  22.026   8.757  14.859
95133W        W59066   2.947   9.374  11.046
95134W        W59067  22.093  21.547   1.766
95135W        W59068   5.193   0.752  13.011
95136W        W59069  39.008  39.028  12.456
95137W        W59070  38.893  39.844   0.293
95138W        W59071  21.619  12.356   0.916
95139W        W59072  33.425  23.603   0.905
95140W        W59073  25.060  43.333  12.039
95141W        W59074  44.999   9.774  14.929
95142W        W59075  10.161  14.257   3.265
95143W        W59076  30.964  40.951  12.862
95144W        W59077  30.943  11.147  12.911
95145W        W59078   4.444  10.156  14.291
95146W        W59079   3.394  43.812   0.821
95147W        W59080  10.679   2.735  12.072
95148W        W59081  14.207  10.785  12.340
95149W        W59082  22.995  17.594   1.824
95150W        W59083   8.811  14.730  12.367
95151W        W59084  29.575  14.651  11.936
95152W        W59085  29.047  15.587  12.069
95153W        W59086  12.290  40.915  14.398
95154W        W59087  31.075  23.636  10.894
95155W        W59088  33.385  37.847   3.853
95156W        W59089  16.307  11.841   0.842
95157W        W59090  14.304  37.398   0.402
95158W        W59091  15.166   1.404   2.390
95159W        W59092  33.585  40.822   0.786
95160W        W59093  30.107   1.774  11.468
95161W        W59094  17.126   6.409  12.576
95162W        W59095  29.579  24.159   0.940
95163W        W59096   8.258  19.656  11.016
95164W        W59097   9.843  12.814   0.776
95165W        W59098  13.250   5.784  12.867
95166W        W59099  28.975  44.379  10.452
95167W        W59100  37.503  15.319   0.403
95168W        W59101  21.537  43.297   4.734
95169W        W59102   8.349  42.795  13.377
95170W        W59103  33.982  39.024  12.451
95171W        W59104  22.079  14.310  10.622
95172W        W59105  14.639  28.027   4.291
95173W        W59106  23.135  38.918   4.784
95174W        W59107  16.685   3.859  11.441
95175W        W59108  32.534  24.052  14.874
95176W        W59109  11.184  40.021  13.477
95177W        W59110  41.870   7.408  10.134
95178W        W59111  36.552   6.327   2.729
95179W        W59112  33.086  44.953  13.992
95180W        W59113  44.469  25.626  13.315
95181W        W59114   7.746  37.867   4.352
95182W        W59115  41.819  13.308   2.704
95183W        W59116  21.606  14.708  10.613
95184W        W59117  31.104  42.819  13.884
95185W        W59118  27.947   7.881  14.820
95186W        W59119  40.307   5.905   2.727
95187W        W59120  26.511  16.762  12.832
95188W        W59121   5.691  15.095  14.009
95189W        W59122  20.038  27.974   3.266
95190W        W59123  40.875  18.284  10.925
95191W        W59124  34.533  43.400   3.156
95192W        W59125   6.773  42.011  14.312
95193W        W59126  19.608  14.096   4.155
95194W        W59127  23.685  18.619   3.186
95195W        W59128  35.381  14.306  11.103
95196W        W59129   9.780  33.130   4.616
95197W        W59130  33.428   7.358  12.434
95198W        W59131   5.314   2.847  13.502
95199W        W59132  28.004  16.708  13.480
95200W        W59133  33.981   5.409  14.512
95201W        W59134  27.056  41.409   0.349
95202W        W59135  33.440  28.069   3.355
95203W        W59136  36.898  14.715   1.363
95204W        W59137   4.851  23.513   1.346
95205W        W59138  14.277   3.873   3.824
95206W        W59139  20.119   6.195   5.306
95207W        W59140  21.164  20.756  10.543
95208W        W59141   9.801  40.471   0.337
95209W        W59142   1.821  35.951  14.863
95210W        W59143  34.991  18.162  12.010
95211W        W59144  18.702   9.776   0.788
95212W        W59145  24.204  43.307   2.366
95213W        W59146   7.219  44.855   2.361
95214W        W59147  38.533  29.657  14.424
95215W        W59148  16.647   5.784  12.891
95216W        W59149  23.620  14.291  13.819
95217W        W59150  41.420  23.588  13.432
95218W        W59151  16.080  28.985  12.925
95219W        W59152   7.284  28.656  14.868
95220W        W59153   0.813  23.085  13.971
95221W        W59154  43.813  44.821  11.431
95222W        W59155  31.026  11.159   2.370
95223W        W59156  42.324   3.284  14.305
95224W        W59157   0.307  36.030   1.368
95225W        W59158  30.623  37.972  10.408
95226W        W59159   6.701  19.060   3.326
95227W        W59160   8.845  33.543   1.836
95228W        W59161  42.480  40.897   3.203
95229W        W59162  10.781  24.679   0.414
95230W        W59163  44.464  26.561   1.857
95231W        W59164  24.670  25.093  14.976
95232W        W59165  32.571  33.468  13.891
95233W        W59166   4.931  43.446  14.910
95234W        W59167  34.950  32.082  13.446
95235W        W59168  27.152   8.337  11.438
95236W        W59169  10.378  23.212  13.342
95237W        W59170  35.047  25.567   1.906
95238W        W59171  43.981  16.802  11.062
95239W        W59172  11.335  27.577   2.791
95240W        W59173  17.234  38.850  14.998
95241W        W59174  44.385  29.158   4.246
95242W        W59175  33.044  22.701   2.313
95243W        W59176  40.885  34.039   3.256
95244W        W59177  29.461   3.941   4.282
95245W        W59178   7.212  20.609   4.141
95246W        W59179  14.196  32.459   3.200
95247W        W59180   7.317  11.811   4.261
95248W        W59181  14.109  25.633  14.759
95249W        W59182  43.346   1.945   0.760
95250W        W59183  25.110  21.220   1.745
95251W        W59184   2.312  21.196  10.570
95252W        W59185   9.176  18.764   0.855
95253W        W59186  38.433  31.011   1.758
95254W        W59187  18.653  32.975   1.895
95255W        W59188  43.303  26.179  12.967
95256W        W59189   5.857  43.384  11.027
95257W        W59190   3.722  25.533   2.819
95258W        W59191  37.536  15.719   1.252
95259W        W59192  36.415  16.778  12.883
95260W        W59193  32.085  27.089   1.703
95261W        W59194   6.320  26.689  12.858
95262W        W59195  32.095  40.325   2.296
95263W        W59196  39.323  36.497   0.473
95264W        W59197   1.404   0.290  11.458
95265W        W59198   7.757  10.648   4.801
95266W        W59199   3.764  31.962   3.635
95267W        W59200  14.606  19.612   1.712
95268W        W59201  25.006   0.785   0.951
95269W        W59202  32.443  42.779  12.425
95270W        W59203  35.078  11.628   3.764
95271W        W59204   2.226  27.542   3.179
95272W        W59205  13.314  30.458   2.227
95273W        W59206  40.046  34.886   1.921
95274W        W59207  41.815  15.737  14.354
95275W        W59208   0.468   2.339  13.442
95276W        W59209  17.775  16.103   5.204
95277W        W59210   7.399  15.261  10.947
95278W        W59211   6.262  21.212  12.433
95279W        W59212   5.876  21.669   3.860
95280W        W59213   9.350  41.311   2.389
95281W        W59214  34.095   9.205  10.573
95282W        W59215  37.466  30.041  13.873
95283W        W59216  33.132  10.667   2.841
95284W        W59217   2.725   1.269  13.344
95285W        W59218  28.631  39.399  11.052
95286W        W59219   3.231  29.599  12.847
95287W        W59220  27.608   1.918   1.860
95288W        W59221  28.046  39.476  11.006
95289W        W59222   9.728  13.111  14.832
95290W        W59223   6.195  34.461   0.304
95291W        W59224   8.850   7.757   3.308
95292W        W59225   5.234   0.909  11.899
95293W        W59226  24.570   6.689   3.725
95294W        W59227  41.972  36.852   0.328
95295W        W59228  10.801  37.415  13.994
95296W        W59229  43.828   7.867  13.403
95297W        W59230  16.294   2.325   4.782
95298W        W59231   7.908  30.534   5.313
95299W        W59232  30.126   0.812   3.856
95300W        W59233  16.078   8.804  12.065
95301W        W59234  42.868  13.148  14.886
95302W        W59235  31.579  41.330   3.226
95303W        W59236  14.726  32.960   1.899
95304W        W59237  39.519  13.650  12.948
95305W        W59238  12.824  44.758   3.780
95306W        W59239   8.356   8.671   0.822
95307W        W59240  15.704  21.073  10.494
95308W        W59241  35.993  30.062  13.992
95309W        W59242  29.655  35.523  14.467
95310W        W59243  36.084  16.668   2.876
95311W        W59244  44.847  15.101   1.768
95312W        W59245  35.571  39.992   0.908
95313W        W59246  28.449  18.281  13.045
95314W        W59247  16.222   9.308  12.346
95315W        W59248  38.398  17.299   1.912
95316W        W59249  32.136   4.804   3.268
95317W        W59250  38.071  31.402  10.556
95318W        W59251   3.736   3.268  14.024
95319W        W59252  27.101   7.377   5.258
95320W        W59253  35.084  12.694  12.942
95321W        W59254   2.854   9.302  11.546
95322W        W59255  26.632  24.202  10.908
95323W        W59256  15.614   4.864   0.301
95324W        W59257  13.656  14.805  10.935
95325W        W59258  14.683  15.597  14.335
95326W        W59259  35.597  17.582  11.904
95327W        W59260  35.437  16.711  12.031
95328W        W59261  19.626  38.915  11.584
95329W        W59262  10.187   3.783   3.651
95330W        W59263   2.802   7.312  13.420
95331W        W59264  41.359  36.371  14.966
95332W        W59265   5.311  18.110  14.967
95333W        W59266  25.093  37.037   2.390
95334W        W59267  43.765  24.982   2.672
95335W        W59268  35.899  24.627  11.992
95336W        W59269  20.142  31.542  12.943
95337W        W59270  35.950  43.857  14.397
95338W        W59271  15.276  44.492  10.458
95339W        W59272  38.446  22.623   0.869
95340W        W59273  10.199  10.689   4.668
95341W        W59274  18.772  15.577  12.576
95342W        W59275  18.158  44.918   1.786
95343W        W59276   5.213   2.291   2.311
95344W        W59277  40.987  13.624  12.563
95345W        W59278  14.620  44.901  13.873
95346W        W59279  17.106  37.467   9.463
95347W        W59280  30.074  18.173  12.487
95348W        W59281  15.152  33.062   0.280
95349W        W59282  11.702  32.419  12.427
95350W        W59283  43.006  17.707   3.315
95351W        W59284  43.913  24.556   0.923
95352W        W59285  10.279   8.335  13.503
95353W        W59286  14.822  40.418  13.419
95354W        W59287  36.458  31.426  10.526
95355W        W59288  14.790  26.660  12.396
95356W        W59289  27.154  32.525  10.447
95357W        W59290  41.383  17.089   2.384
95358W        W59291  26.994  32.948   1.340
95359W        W59292  22.030  43.001  12.825
95360W        W59293  31.030  28.451  13.403
95361W        W59294  22.140  42.882   0.802
95362W        W59295  16.604  23.992  14.461
95363W        W59296  42.996  44.413  11.924
95364W        W59297  31.032  22.702   4.813
95365W        W59298  27.575  11.731  13.813
95366W        W59299  32.943  24.486  13.452
95367W        W59300  21.072  22.209   3.172
95368W        W59301   9.329  42.860  12.409
95369W        W59302   5.852   0.973   1.431
95370W        W59303  41.031  41.894  14.310
95371W        W59304   2.904   5.819  12.435
95372W        W59305   1.346  22.701  13.916
95373W        W59306  14.674  11.281   2.705
95374W        W59307  42.011  22.678   3.857
95375W        W59308   7.894  11.737  10.997
95376W        W59309  35.890  25.546   1.741
95377W        W59310  19.670  13.266   4.253
95378W        W59311  36.036  11.155   3.861
95379W        W59312  36.028  29.518   0.881
95380W        W59313  19.665  11.772   2.883
95381W        W59314  36.973  24.652  10.406
95382W        W59315  19.718  37.571   2.725
95383W        W59316  36.962  26.182  13.477
95384W        W59317   6.275  44.971  11.044
95385W        W59318  24.533  13.638   2.184
95386W        W59319  39.398   8.655   0.395
95387W        W59320  37.540  39.461  14.029
95388W        W59321   2.466  43.960  14.883
95389W        W59322  35.948  23.200  12.896
95390W        W59323   0.909  22.706   1.376
95391W        W59324  11.737  22.219  12.883
95392W        W59325  10.165   8.780  12.081
95393W        W59326  25.550  19.125   2.178
95394W        W59327  34.409  30.153  11.887
95395W        W59328  19.761  13.695   1.250
95396W        W59329   2.902  41.922   0.294
95397W        W59330  24.046  25.627  13.959
95398W        W59331  28.678  43.877   0.356
95399W        W59332  44.352  23.167  13.046
95400W        W59333   9.669  21.704   2.693
95401W        W59334  35.103   7.388  12.971
95402W        W59335  36.075  44.347   4.329
95403W        W59336  22.012  26.576   1.240
95404W        W59337  26.624  20.061   1.237
95405W        W59338  34.115  25.052  11.954
95406W        W59339  32.056  25.218   3.248
95407W        W59340   7.242  28.547  11.993
95408W        W59341   2.382  20.102  11.864
95409W        W59342  22.696   5.695   3.234
95410W        W59343   7.688   2.275  11.495
95411W        W59344   0.252  22.625   3.287
95412W        W59345  29.608   4.733   2.353
95413W        W59346  31.901  12.133   5.171
95414W        W59347  44.444  19.150  13.927
95415W        W59348  40.315  38.878  14.482
95416W        W59349  29.148  34.987   2.230
95417W        W59350  24.979  38.475   0.384
95418W        W59351  41.443  41.979   4.148
95419W        W59352  29.568   5.730  13.406
95420W        W59353   0.460  29.554   2.674
95421W        W59354  28.680  44.465  14.836
95422W        W59355  18.738  33.907  10.925
95423W        W59356  26.038  36.882  12.958
95424W        W59357  18.271   5.761  11.021
95425W        W59358  39.818  14.603   0.790
95426W        W59359   7.745  38.516  11.547
95427W        W59360  36.031   4.275   3.862
95428W        W59361   3.420   5.358   1.701
95429W        W59362  15.814  33.090  10.992
95430W        W59363  39.982   7.294  14.357
95431W        W59364   0.452  22.010  10.510
95432W        W59365  14.098  30.001  12.426
95433W        W59366  16.190  20.741   3.356
95434W        W59367  44.277  42.414  14.010
95435W        W59368   7.261  20.262  10.485
95436W        W59369  35.887   4.222   4.338
95437W        W59370   3.365   5.210  11.067
95438W        W59371   2.745   1.886  10.469
95439W        W59372  19.073   0.757   0.478
95440W        W59373  22.657  43.887   3.751
95441W        W59374  17.669  19.739   5.760
95442W        W59375  26.075  20.568   2.833
95443W        W59376  37.840  35.453   4.243
95444W        W59377  29.610  37.054  14.884
95445W        W59378   3.352  36.026   3.815
95446W        W59379   7.178  11.361  14.805
95447W        W59380   2.925   4.764   3.688
95448W        W59381  17.774   8.296   2.759
95449W        W59382  25.211  20.754   2.350
95450W        W59383  13.817   3.350  14.892
95451W        W59384  39.560   9.805  12.893
95452W        W59385   2.288  35.951   0.297
95453W        W59386  37.977   8.346  10.452
95454W        W59387  32.034  41.004  14.449
95455W        W59388  29.522  29.552  11.009
95456W        W59389   7.415  37.391  14.370
95457W        W59390  19.694  42.412   0.335
95458W        W59391   4.449  28.941  11.451
95459W        W59392  33.530  32.428  11.964
95460W        W59393  34.403  30.007  14.387
95461W        W59394   0.967  43.804  14.467
95462W        W59395   0.755   9.808  14.938
95463W        W59396  38.888   3.319   0.475
95464W        W59397  36.570  17.705  12.850
95465W        W59398  16.629  35.986   2.733
95466W        W59399  36.363   3.238   4.340
95467W        W59400  42.922  35.903  10.141
95468W        W59401  37.978   6.765   4.650
95469W        W59402  31.938  30.079  10.527
95470W        W59403  33.420   3.885  12.065
95471W        W59404   8.260  15.110  11.403
95472W        W59405  17.278  33.437  14.512
95473W        W59406  22.654  10.185   3.206
95474W        W59407  15.181  32.487  10.473
95475W        W59408   1.789   3.311  10.635
95476W        W59409  32.885  20.259  14.824
95477W        W59410  26.105  39.043  13.040
95478W        W59411  44.315  36.364   2.823
95479W        W59412  39.517   6.198   0.393
95480W        W59413   8.385   4.308  12.373
95481W        W59414   1.295  28.039   3.765
95482W        W59415  39.460  40.984   4.695
95483W        W59416  41.884  44.436  12.458
95484W        W59417  16.244   1.248  14.969
95485W        W59418  21.120  40.530   2.366
95486W        W59419   5.195   7.843  12.061
95487W        W59420  30.038   2.295   2.773
95488W        W59421  41.879  22.120   3.200
95489W        W59422  34.935  43.491   0.299
95490W        W59423   2.310  40.390  13.514
95491W        W59424  32.037   8.257  12.402
95492W        W59425  36.954  37.455  14.831
95493W        W59426   8.836  24.193   3.647
95494W        W59427  35.064  35.879  11.087
95495W        W59428   5.272  20.197   2.793
95496W        W59429  35.478  38.841   4.159
95497W        W59430   0.257   9.353   0.946
95498W        W59431  20.261  30.998  12.376
95499W        W59432  10.217   3.364   0.766
95500W        W59433  29.990  39.932  12.899
95501W        W59434  13.601  36.547   2.418
95502W        W59435  13.263   2.788  13.341
95503W        W59436   5.383  34.009   1.699
95504W        W59437  27.090  38.400  14.473
95505W        W59438  21.029  24.613   2.389
95506W        W59439  14.754  17.065   9.996
95507W        W59440  34.602  18.697   0.426
95508W        W59441  10.244  24.486  14.416
95509W        W59442  35.936   5.798  11.479
95510W        W59443  27.990  40.397  14.386
95511W        W59444  32.117  28.034   0.306
95512W        W59445  27.647  22.523  12.861
95513W        W59446  37.474  37.550   4.642
95514W        W59447   6.397  17.299   4.625
95515W        W59448   4.381  44.299   0.433
95516W        W59449  14.235  13.828   1.888
95517W        W59450  13.818   5.338  14.797
95518W        W59451  32.480  29.050  13.963
95519W        W59452  38.877  30.499  11.550
95520W        W59453  27.682  17.066  13.046
95521W        W59454  23.119   8.322   4.336
95522W        W59455  15.818  37.458   3.296
95523W        W59456  20.584  17.671   3.240
95524W        W59457   7.369  12.655   2.733
95525W        W59458  16.603   2.731  12.389
95526W        W59459  18.056   3.271  12.014
95527W        W59460  33.619  11.288   3.853
95528W        W59461  36.017   6.238   0.371
95529W        W59462   7.781  18.747  13.391
95530W        W59463  13.836  34.935   0.795
95531W        W59464  21.652  34.996   4.326
95532W        W59465  11.694  10.165  13.883
95533W        W59466  27.685   2.367  12.537
95534W        W59467   9.232   0.802   2.747
95535W        W59468  28.176  34.100   2.787
95536W        W59469  30.547   1.458  12.040
95537W        W59470  21.700   0.768  13.902
95538W        W59471  39.989  19.538  10.538
95539W        W59472  28.952   7.884   4.707
95540W        W59473   7.206  13.219  11.986
95541W        W59474  11.358  36.467  14.947
95542W        W59475  12.664  36.555  12.023
95543W        W59476  38.900  42.896   0.434
95544W        W59477  40.902  34.420   1.311
95545W        W59478  37.511  10.669  10.450
95546W        W59479  18.282   9.825   2.792
95547W        W59480   6.400   6.856  12.452
95548W        W59481   6.898  13.297   0.293
95549W        W59482   3.333  22.553  11.859
95550W        W59483  23.154   8.852  13.842
95551W        W59484  38.521  30.658  10.975
95552W        W59485  37.927  40.375   3.672
95553W        W59486  28.470   0.358   1.823
95554W        W59487  28.602  38.484   1.310
95555W        W59488  32.500  39.040   2.317
95556W        W59489  26.618  31.087  12.570
95557W        W59490  28.963  14.096  11.086
95558W        W59491   3.386  43.967  12.013
95559W        W59492  36.443   0.327   4.650
95560W        W59493  16.669  20.137  12.079
95561W        W59494  37.065  35.527  12.901
95562W        W59495   4.791  32.398   0.831
95563W        W59496  36.033  18.745   0.841
95564W        W59497   0.403  15.156   2.223
95565W        W59498  28.116  31.466  13.941
95566W        W59499   5.881  39.351  14.780
95567W        W59500  16.612   4.907   2.265
95568W        W59501  22.686   3.408  11.979
95569W        W59502   1.439  18.616   0.479
95570W        W59503  36.531   8.788   9.979
95571W        W59504  10.368   0.317   3.757
95572W        W59505  37.579  33.955  14.949
95573W        W59506  16.662  16.292   2.883
95574W        W59507   0.810  37.957   0.939
95575W        W59508   4.209  29.600   2.696
95576W        W59509   7.710  26.625  14.327
95577W        W59510  26.519   0.770   0.473
95578W        W59511  44.287  26.513  13.498
95579W        W59512  13.671  42.293   0.475
95580W        W59513  42.451  33.996  10.614
95581W        W59514   2.847   1.863   2.266
95582W        W59515  39.028  18.145   3.869
95583W        W59516  17.592  28.950   0.740
95584W        W59517  28.167  26.116  11.013
95585W        W59518  28.581  15.171   3.201
95586W        W59519   6.838  36.033   2.745
95587W        W59520  17.601  33.997   0.330
95588W        W59521  21.629  18.786   4.195
95589W        W59522  21.605  20.137   1.244
95590W        W59523  10.753   5.702  14.502
95591W        W59524  15.813  16.683  12.357
95592W        W59525  21.647  12.356  13.025
95593W        W59526  13.223   6.242   4.234
95594W        W59527  15.796  37.932  12.958
95595W        W59528  28.590  23.642   3.824
95596W        W59529  34.024   2.351  14.976
95597W        W59530   6.772  42.985  10.540
95598W        W59531  33.932  16.298   4.798
95599W        W59532   4.899  17.600  10.048
95600W        W59533   4.350  13.339  10.891
95601W        W59534   3.733  28.558  13.353
95602W        W59535  26.488  29.946   3.195
95603W        W59536  42.376  22.746  14.360
95604W        W59537  42.388  13.246  11.035
95605W        W59538  44.421  21.069   4.155
95606W        W59539  20.227  10.799   4.636
95607W        W59540  28.597   5.330  13.911
95608W        W59541  41.876  15.672   0.472
95609W        W59542  31.988   2.805   1.911
95610W        W59543  21.153  34.997   0.859
95611W        W59544  26.526  15.198  13.392
95612W        W59545  19.763  18.275  12.928
95613W        W59546  13.828  40.009   2.315
95614W        W59547  32.115  10.870   2.714
95615W        W59548   5.907   9.882   1.374
95616W        W59549  10.686   1.243   3.173
95617W        W59550  40.419  17.238   0.881
95618W        W59551  27.513  43.380  14.461
95619W        W59552  14.828  23.117  11.928
95620W        W59553   9.312  34.880  10.912
95621W        W59554  44.854  17.273  13.953
95622W        W59555   1.429  31.993  12.977
95623W        W59556   6.407   9.660  13.833
95624W        W59557  32.548  18.641  14.312
95625W        W59558  20.054  37.548  10.415
95626W        W59559  39.329  24.086   1.912
95627W        W59560  42.480  27.609  14.987
95628W        W59561   9.655  16.313   1.409
95629W        W59562   6.279  44.843  14.785
95630W        W59563  24.553  37.480  10.422
95631W        W59564   1.914   2.905  14.023
95632W        W59565   2.814  25.480   0.849
95633W        W59566   2.750   6.375  10.897
95634W        W59567  17.673  40.546   2.852
95635W        W59568  39.478  30.031  14.956
95636W        W59569  19.101  44.945  10.534
95637W        W59570   6.210   3.889  14.454
95638W        W59571   3.299  11.771  10.514
95639W        W59572  18.569  36.954   0.941
95640W        W59573  19.041   1.734   3.293
95641W        W59574  33.041   9.227  13.865
95642W        W59575   4.226   5.252  13.887
95643W        W59576  28.036  24.230  13.447
95644W        W59577   7.402   7.884  13.840
95645W        W59578   0.268  34.398   2.289
95646W        W59579  22.709  43.811  12.495
95647W        W59580  38.890  15.683  13.009
95648W        W59581  36.578  37.077   2.805
95649W        W59582  19.595  23.198   1.884
95650W        W59583  42.872  39.547   9.962
95651W        W59584  23.069   0.877   4.222
95652W        W59585   2.303  25.485   4.166
95653W        W59586  31.571   5.210  12.076
95654W        W59587  30.555  40.378  10.485
95655W        W59588   3.767  37.482   5.147
95656W        W59589  28.547  10.797   3.806
95657W        W59590   7.799  22.663  14.306
95658W        W59591  38.514  13.635  13.534
95659W        W59592  16.760  25.201  10.944
95660W        W59593  12.642   4.858  12.458
95661W        W59594   6.345  12.709   4.122
95662W        W59595  37.483  33.020  11.025
95663W        W59596  17.194   5.412  11.941
95664W        W59597  12.298  24.158   1.732
95665W        W59598  24.524  24.023  13.945
95666W        W59599  11.723   4.280   2.800
95667W        W59600  31.526  32.109  14.363
95668W        W59601  32.460  41.866  13.856
95669W        W59602  26.120  22.513   2.185
95670W        W59603   4.863  21.017  14.888
95671W        W59604  16.257  39.402  12.561
95672W        W59605  28.473  22.511  11.444
95673W        W59606  43.958  30.987   0.789
95674W        W59607  21.706  43.284  11.600
95675W        W59608  14.605  43.855  11.383
95676W        W59609  13.688   4.438  14.454
95677W        W59610  10.762  36.902   2.838
95678W        W59611  37.000  38.925  14.031
95679W        W59612  13.613   6.908  14.479
95680W        W59613   3.909   1.966   5.259
95681W        W59614   4.245  37.876  14.867
95682W        W59615  27.522   7.345  13.950
95683W        W59616   1.251  43.446   3.639
95684W        W59617  43.865   9.193  13.330
95685W        W59618   9.881  17.770  13.838
95686W        W59619  38.020  40.386  13.405
95687W        W59620  28.040  20.721   3.337
95688W        W59621  26.664   0.820   2.418
95689W        W59622  38.847  19.709   3.845
95690W        W59623  39.869  39.888  11.858
95691W        W59624   4.705   0.304  11.512
95692W        W59625  19.662  39.440   3.762
95693W        W59626  29.129  15.770   4.189
95694W        W59627  29.921  22.527   4.645
95695W        W59628  21.251   0.317   0.250
95696W        W59629  28.449  39.351   2.726
95697W        W59630   0.970   2.741  12.904
95698W        W59631   6.770  39.949   1.791
95699W        W59632   9.670  14.143   2.899
95700W        W59633  22.110  23.560  11.578
95701W        W59634   7.382  22.114   0.364
95702W        W59635  40.844  38.426   2.854
95703W        W59636  30.067  14.305  12.972
95704W        W59637  21.148  24.227  11.917
95705W        W59638  21.709  40.366  13.533
95706W        W59639  38.881   9.670  13.421
95707W        W59640   2.860  32.086   3.699
95708W        W59641  37.935  31.580  13.311
95709W        W59642  10.642  10.223  11.079
95710W        W59643  36.930  21.747  12.023
95711W        W59644   0.910  32.490   3.207
95712W        W59645   9.317  33.937   4.276
95713W        W59646  16.232  25.489  11.414
95714W        W59647  44.973  23.674   1.447
95715W        W59648  30.087   2.726  11.502
95716W        W59649  23.612  20.551  11.471
95717W        W59650  31.043  17.800   4.661
95718W        W59651   8.168   9.342   0.451
95719W        W59652  37.503   4.382  14.984
95720W        W59653  26.955  17.156   0.837
95721W        W59654  31.521   4.433  14.281
95722W        W59655   9.829   3.829   0.260
95723W        W59656  27.676  17.265   3.336
95724W        W59657  23.156  27.525   0.765
95725W        W59658  44.827   9.703   2.242
95726W        W59659   5.369   7.889   1.796
95727W        W59660  10.182  30.429  11.094
95728W        W59661  41.807  25.547  11.917
95729W        W59662  13.840  37.894  13.910
95730W        W59663  18.584   8.193   1.432
95731W        W59664  31.064  22.507   0.950
95732W        W59665  22.167   1.404   3.300
95733W        W59666   8.367  13.620  12.909
95734W        W59667  40.364  40.436  11.396
95735W        W59668   8.292  41.899  11.934
95736W        W59669   5.923  40.831   1.737
95737W        W59670  12.809  40.952  12.024
95738W        W59671   0.420  32.578   3.796
95739W        W59672  23.586   7.267  11.061
95740W        W59673  21.528  27.553  13.450
95741W        W59674  23.614  41.869   1.740
95742W        W59675  26.999  42.923  10.456
95743W        W59676  11.343  38.982   4.221
95744W        W59677  35.587  38.468  11.504
95745W        W59678  26.614  18.580   1.300
95746W        W59679   9.200  14.205  14.307
95747W        W59680   0.489   7.290  12.463
95748W        W59681  25.193  26.096   0.780
95749W        W59682  25.571  26.018   4.238
95750W        W59683   5.240  23.636  14.396
95751W        W59684  39.923  41.388   0.244
95752W        W59685  30.958  11.348   0.371
95753W        W59686  43.388   2.779   0.369
95754W        W59687   2.781   8.396   0.265
95755W        W59688  20.031   6.381  13.983
95756W        W59689  29.128   5.426  14.474
95757W        W59690  11.163  21.228  10.545
95758W        W59691  27.511  41.342  14.830
95759W        W59692  29.095  26.052   4.243
95760W        W59693  43.778   6.390   2.187
95761W        W59694   9.661  34.008  11.450
95762W        W59695   3.270  13.804   1.908
95763W        W59696  25.544   7.889   2.761
95764W        W59697  43.936  34.595   2.734
95765W        W59698  28.668   9.779   2.265
95766W        W59699  42.814   7.689  10.467
95767W        W59700  16.763  38.010   1.698
95768W        W59701  36.077   3.418   3.228
95769W        W59702   0.786  31.481   3.861
95770W        W59703  10.699  22.030   1.921
95771W        W59704  22.698  11.324  14.964
95772W        W59705   4.748  28.964   3.242
95773W        W59706  29.647  28.025  14.807
95774W        W59707   7.766  39.439   0.271
95775W        W59708  12.741  28.591   2.881
95776W        W59709  31.147  19.547   3.155
95777W        W59710  27.195   9.390  11.550
95778W        W59711  41.477  21.601  14.847
95779W        W59712  37.364  39.393  12.963
95780W        W59713  44.779  28.989   1.719
95781W        W59714   1.964  12.134   4.292
95782W        W59715  44.502  18.602  10.963
95783W        W59716   2.303  10.709   0.873
95784W        W59717  17.067  28.584  10.458
95785W        W59718  31.969  39.051  11.599
95786W        W59719   0.416  37.489  13.311
95787W        W59720   5.422   1.771  11.002
95788W        W59721  41.842   2.759  13.798
95789W        W59722  37.030  19.213  13.996
95790W        W59723  29.932  36.510   1.220
95791W        W59724  14.291  14.186   2.739
95792W        W59725  41.828  10.320  10.626
95793W        W59726   5.369   0.248  13.029
95794W        W59727  27.482  35.438  12.521
95795W        W59728   0.439   2.319  11.421
95796W        W59729  43.513  32.897   2.229
95797W        W59730  44.331  23.647  10.919
95798W        W59731  44.310  18.705   4.141
95799W        W59732  17.192  12.151   2.324
95800W        W59733   6.786  19.602   2.307
95801W        W59734  32.434  36.396  12.451
95802W        W59735  26.660  18.059  11.440
95803W        W59736  39.837  43.793   0.959
95804W        W59737   8.865  16.705   3.793
95805W        W59738  19.699  10.815  11.497
95806W        W59739  15.128  22.091  11.540
95807W        W59740   2.861  12.326  13.416
95808W        W59741  19.183  16.705  12.064
95809W        W59742   5.804  23.616   2.873
95810W        W59743  26.987   0.343  14.866
95811W        W59744  21.752  39.559   2.885
95812W        W59745  37.491  14.751   3.330
95813W        W59746  25.661  36.986   2.317
95814W        W59747   7.823  33.966  13.013
95815W        W59748  10.209  26.000   0.935
95816W        W59749  14.622   1.795  13.875
95817W        W59750  23.727  39.413   3.704
95818W        W59751  27.124  11.185   4.237
95819W        W59752  33.568  39.493  10.129
95820W        W59753  28.161   9.842   0.966
95821W        W59754   6.313  33.102   1.449
95822W        W59755   9.225  25.488   1.411
95823W        W59756  18.544  39.340  14.325
95824W        W59757  33.528  16.801  10.930
95825W        W59758  23.530  24.187  10.459
95826W        W59759   3.793   1.968  11.891
95827W        W59760   3.930  20.083  13.996
95828W        W59761  33.888  12.643   0.950
95829W        W59762  14.123  36.974  13.410
95830W        W59763   5.837  13.251   5.215
95831W        W59764  13.701  44.448  13.791
95832W        W59765  16.191  13.248   2.332
95833W        W59766  30.077  33.881  10.911
95834W        W59767   9.249  15.779  13.341
95835W        W59768  20.219   5.892  11.893
95836W        W59769  13.275   3.370  11.009
95837W        W59770  26.995  12.283  13.466
95838W        W59771   0.338   9.748   3.860
95839W        W59772   5.688  32.432   1.860
95840W        W59773  30.481  21.553   4.138
95841W        W59774  40.934  23.223  12.918
95842W        W59775  16.711  23.123   3.224
95843W        W59776   3.262  18.147  14.842
95844W        W59777  17.146  11.158  13.817
95845W        W59778  33.607  19.201   1.718
95846W        W59779  22.710   2.783  14.025
95847W        W59780  24.205  17.710  11.603
95848W        W59781  29.115  34.434   1.374
95849W        W59782   6.744   7.383  10.637
95850W        W59783  38.538  10.290  11.006
95851W        W59784  17.729  42.940   0.772
95852W        W59785  31.934   4.345   4.729
95853W        W59786   5.256  40.432   4.195
95854W        W59787  24.499   8.807   3.870
95855W        W59788  16.601  14.192  11.855
95856W        W59789  36.355  38.490  13.058
95857W        W59790  11.668  42.511  10.018
95858W        W59791  19.668  26.021   4.703
95859W        W59792   6.398  44.989  14.028
95860W        W59793  18.222   8.733   1.868
95861W        W59794  29.514  29.051   3.699
95862W        W59795  38.378  10.360  12.402
95863W        W59796  19.753  25.689  12.521
95864W        W59797  36.077  10.673   4.117
95865W        W59798  10.658  25.131   3.798
95866W        W59799  20.181   7.191   5.277
95867W        W59800   8.331  23.099   2.385
95868W        W59801  10.181  18.168   2.379
95869W        W59802  39.828  30.910  12.005
95870W        W59803  43.392   6.718   4.308
95871W        W59804  11.176  42.967  11.467
95872W        W59805  13.628   5.829  10.502
95873W        W59806  15.689  19.195  11.543
95874W        W59807  20.088   8.783  11.880
95875W        W59808   4.247  38.427  12.833
95876W        W59809  19.060  10.342  10.945
95877W        W59810   1.893   8.348  13.825
95878W        W59811  43.008   7.688  14.367
95879W        W59812  31.432  20.742   3.750
95880W        W59813  38.873   5.864  13.928
95881W        W59814  41.424   1.368  11.440
95882W        W59815  40.307  33.385  12.981
95883W        W59816  25.538  43.866  13.795
95884W        W59817  23.544   9.311   0.742
95885W        W59818  34.896  16.720  14.483
95886W        W59819   4.866  27.651  11.939
95887W        W59820  22.570   7.838  13.473
95888W        W59821  41.477  33.026   0.937
95889W        W59822  37.468   9.798   3.192
95890W        W59823  12.745  10.333  14.399
95891W        W59824   2.252  38.057   1.882
95892W        W59825  34.576   2.903  12.448
95893W        W59826  29.634  28.490   4.735
95894W        W59827   1.969  35.571   0.376
95895W        W59828  33.876  22.641  12.834
95896W        W59829  28.159  10.783   1.784
95897W        W59830  19.122  40.445   0.309
95898W        W59831   7.718  26.984  10.619
95899W        W59832   7.300  41.430   0.414
95900W        W59833  18.268  33.460  11.868
95901W        W59834  17.588   9.658   1.825
95902W        W59835  24.561  43.975  12.477
95903W        W59836  27.077   5.844  14.884
95904W        W59837  42.367  38.907   2.415
95905W        W59838  25.063  32.522  14.342
95906W        W59839  25.202  24.711  13.945
95907W        W59840  21.220  11.252   0.749
95908W        W59841  30.139  25.514  14.806
95909W        W59842  40.012   0.417  10.948
95910W        W59843   1.949  39.842   4.669
95911W        W59844  17.736  24.612  12.051
95912W        W59845  32.038  28.980   0.318
95913W        W59846  25.194  32.094   4.771
95914W        W59847  12.780  27.675   4.184
95915W        W59848  41.938  28.988   2.802
95916W        W59849  17.700  33.605   0.322
95917W        W59850   3.877  23.140   0.875
95918W        W59851  22.668   8.269   4.642
95919W        W59852  42.330  44.479  12.400
95920W        W59853   2.767  16.239  13.916
95921W        W59854  21.646   3.259   1.805
95922W        W59855  11.787  20.694   2.194
95923W        W59856  34.065  26.991  13.458
95924W        W59857  36.858  14.591   2.718
95925W        W59858  22.065  38.945   3.706
95926W        W59859  37.530   4.383   0.774
95927W        W59860   4.823  43.450  14.029
95928W        W59861  17.062  19.573  13.021
95929W        W59862   2.830  33.429  10.641
95930W        W59863  12.297  17.287   2.708
95931W        W59864  26.018  23.091   3.166
95932W        W59865  37.542  20.525   1.853
95933W        W59866   9.245   9.283   2.723
95934W        W59867  40.016  41.905   1.776
95935W        W59868  21.212  38.929  11.580
95936W        W59869  12.221  11.749  13.548
95937W        W59870  42.914  37.410   2.848
95938W        W59871  33.449  15.811  14.823
95939W        W59872  36.894  30.423  13.024
95940W        W59873  31.023  12.251  13.510
95941W        W59874  31.046   2.267   2.813
95942W        W59875  21.519  13.743  14.367
95943W        W59876   5.269  22.221   4.623
95944W        W59877   4.926  17.097   9.969
95945W        W59878  44.948  43.003  13.809
95946W        W59879  41.398   8.162   4.747
95947W        W59880  12.744  35.032  13.545
95948W        W59881  15.621  17.663   5.262
95949W        W59882  44.759  17.075   2.342
95950W        W59883  30.428  11.209   4.744
95951W        W59884  13.261  27.623   4.686
95952W        W59885   1.317  41.505  12.905
95953W        W59886  40.307  19.753   0.744
95954W        W59887   7.414  21.595  13.968
95955W        W59888  37.053  20.097   0.784
95956W        W59889  44.879  43.331   1.372
95957W        W59890  26.469  22.145   2.877
95958W        W59891  26.522  21.551  12.436
95959W        W59892  36.402  40.447   2.713
95960W        W59893  34.407  38.434  13.315
95961W        W59894  24.180  28.957   0.784
95962W        W59895   7.765   9.205  13.533
95963W        W59896  11.218  37.503  12.971
95964W        W59897  31.456  16.273  13.371
95965W        W59898   2.819   9.752   4.746
95966W        W59899  27.170  44.899  11.116
95967W        W59900   8.237  27.143  11.891
95968W        W59901  11.340   8.877   1.353
95969W        W59902   9.759  31.598   3.213
95970W        W59903  31.100  41.293  13.311
95971W        W59904  32.473  31.519   4.241
95972W        W59905  20.723  24.483  13.845
95973W        W59906   5.707  37.474  10.931
95974W        W59907  26.616  16.627  14.784
95975W        W59908  26.017  12.730   1.402
95976W        W59909  38.043  37.055   4.725
95977W        W59910  31.549   5.417  14.295
95978W        W59911   2.848  41.428   3.325
95979W        W59912  14.797  38.387  13.001
95980W        W59913  42.480  10.729  14.494
95981W        W59914  23.013  11.831   2.674
95982W        W59915   0.430  42.001  14.974
95983W        W59916  27.003  26.570   2.799
95984W        W59917  42.934  20.698  13.963
95985W        W59918  17.705  36.078  13.368
95986W        W59919  11.155  27.544   4.336
95987W        W59920  39.393  12.316   0.335
95988W        W59921   0.769  27.582   3.641
95989W        W59922  43.962  25.567  11.959
95990W        W59923  20.271  18.153  11.518
95991W        W59924  27.590  30.926  10.926
95992W        W59925  39.850   5.690   4.352
95993W        W59926  17.305  26.120   9.960
95994W        W59927  42.331  10.359  10.444
95995W        W59928  12.838  12.827  12.569
95996W        W59929   4.706  42.978  10.917
95997W        W59930  16.809  38.009  12.865
95998W        W59931  17.203  20.748  14.974
95999W        W59932  30.491  22.709   3.303
96000W        W59933  35.948  19.617   2.404
96001W        W59934  26.466  37.564  12.351
96002W        W59935  23.016  17.709  12.010
96003W        W59936   1.289  31.576   0.289
96004W        W59937  37.961  44.278  11.469
96005W        W59938  21.646   5.430  13.882
96006W        W59939  17.101  22.661  11.916
96007W        W59940  37.448  10.313   0.395
96008W        W59941  22.505  40.450   1.349
96009W        W59942  34.484  43.862  13.314
96010W        W59943  30.431  31.533   0.807
96011W        W59944  21.043   0.849  13.953
96012W        W59945  12.646  34.886   1.720
96013W        W59946   9.666  19.770  10.490
96014W        W59947  16.788  21.116  13.956
96015W        W59948  17.061  32.023  10.915
96016W        W59949  42.365  31.941  14.762
96017W        W59950  10.375  15.657  11.563
96018W        W59951  37.871  40.998   4.781
96019W        W59952   6.329  39.019  13.042
96020W        W59953  17.261  17.101  13.791
96021W        W59954   7.836  39.943  11.896
96022W        W59955   2.327   1.874   3.858
96023W        W59956  14.285  24.629   1.761
96024W        W59957  15.598   8.801  12.447
96025W        W59958   5.238   7.415  12.349
96026W        W59959   8.874  16.299   3.156
96027W        W59960   1.427  16.169   3.338
96028W        W59961  40.020  29.931   0.302
96029W        W59962  20.534   3.851  11.001
96030W        W59963   8.182  41.910  13.839
96031W        W59964  33.023  31.518   1.423
96032W        W59965   2.811   5.267   0.302
96033W        W59966  18.645  20.136   1.843
96034W        W59967  30.649   0.770  13.800
96035W        W59968  32.005   1.391   3.354
96036W        W59969  37.427  11.266  11.055
96037W        W59970  19.665  27.596  10.970
96038W        W59971  27.675   3.309   3.790
96039W        W59972   6.347  36.850  12.857
96040W        W59973   0.754  36.361  14.429
96041W        W59974  25.526  16.080   2.246
96042W        W59975  16.763   6.870  13.878
96043W        W59976  32.008  19.608   0.834
96044W        W59977  34.070  38.433   0.745
96045W        W59978  27.664  42.875  11.582
96046W        W59979  31.971  21.742   4.790
96047W        W59980   1.402  24.030  11.421
96048W        W59981  19.545  17.119   1.278
96049W        W59982  40.995  22.610  14.466
96050W        W59983   1.251  21.132   2.183
96051W        W59984  27.186  26.583  11.512
96052W        W59985  35.556  29.646  11.046
96053W        W59986  33.558  20.628  14.462
96054W        W59987   3.811  16.196   4.821
96055W        W59988  23.735   6.241  11.983
96056W        W59989  15.183  33.519  14.476
96057W        W59990   9.812  13.123  12.341
96058W        W59991  34.427  41.948   2.764
96059W        W59992   9.357  12.755   1.839
96060W        W59993  31.622   5.255   0.942
96061W        W59994  41.831  24.642  11.950
96062W        W59995   8.831  41.306   3.373
96063W        W59996   3.740  22.019   4.720
96064W        W59997  30.951  43.428   3.699
96065W        W59998  36.909   8.203  14.306
96066W        W59999  20.070  21.701  13.435
96067W        W60000   1.892  20.629   4.221
96068W        W60001  33.925  11.766  14.452
96069W        W60002  27.655  13.126   1.821
96070W        W60003   2.277  14.115  12.548
96071W        W60004   5.843  37.887   4.178
96072W        W60005  13.700  17.225  11.548
96073W        W60006   5.358   3.306   3.672
96074W        W60007  36.852  43.854  13.409
96075W        W60008   3.386  42.891  13.371
96076W        W60009   0.945  31.087   1.290
96077W        W60010  22.715  38.524  12.534
96078W        W60011  29.443  12.665  12.563
96079W        W60012   4.864   1.961  12.549
96080W        W60013  15.311  11.704   3.726
96081W        W60014  33.984  32.139   0.936
96082W        W60015   8.303  13.723  10.566
96083W        W60016  21.555  35.404   2.222
96084W        W60017  44.270  20.709  13.371
96085W        W60018   8.207  37.012   2.338
96086W        W60019  14.185   9.862   4.835
96087W        W60020  44.953  39.522   0.426
96088W        W60021  25.670   6.195  14.394
96089W        W60022  13.110   9.783   0.361
96090W        W60023  10.146   0.265  14.417
96091W        W60024  29.598  17.628  12.415
96092W        W60025   7.810  38.991   0.405
96093W        W60026  21.557  16.144  13.543
96094W        W60027  10.819  38.845   3.861
96095W        W60028  17.096  12.267  10.588
96096W        W60029  40.510  20.597   1.882
96097W        W60030  26.085  35.032  11.968
96098W        W60031   9.723  19.205   2.801
96099W        W60032   9.674   9.785   1.796
96100W        W60033  40.379  42.946  13.514
96101W        W60034  16.712  16.298   1.318
96102W        W60035  17.695  12.337   0.842
96103W        W60036  20.730  34.375   4.809
96104W        W60037  22.101   7.851  14.799
96105W        W60038  28.639  42.815  14.985
96106W        W60039  25.591  28.129  14.494
96107W        W60040  32.131  35.427   1.777
96108W        W60041  25.990   3.230  11.053
96109W        W60042   3.268  22.246   1.746
96110W        W60043  29.488  30.114  14.342
96111W        W60044  27.082  41.818  11.392
96112W        W60045  14.711   8.346   1.774
96113W        W60046  35.489  15.319  12.512
96114W        W60047  11.785  26.519  12.532
96115W        W60048   1.256  33.625  12.465
96116W        W60049  13.767  14.701   0.378
96117W        W60050  31.036   8.656  12.049
96118W        W60051  29.965  16.203   3.313
96119W        W60052  16.697   9.681   0.391
96120W        W60053   0.463  31.994   0.880
96121W        W60054  27.180   3.228   1.332
96122W        W60055   1.477   1.864   2.755
96123W        W60056  11.756  20.715  14.333
96124W        W60057  41.452  32.089   4.337
96125W        W60058   0.897  16.292  14.385
96126W        W60059  27.497  20.125   2.347
96127W        W60060  35.948  43.785  10.903
96128W        W60061  16.306   4.841  11.551
96129W        W60062  24.683  33.478   3.817
96130W        W60063  31.621  40.352   1.779
96131W        W60064   5.726   2.290  10.594
96132W        W60065  16.090  40.984   1.276
96133W        W60066  18.755   7.235  14.785
96134W        W60067  20.703   1.250  13.033
96135W        W60068  41.493  39.359   3.806
96136W        W60069   2.774  42.920  13.017
96137W        W60070  34.477  25.075   1.745
96138W        W60071   0.956   3.733   3.150
96139W        W60072   5.811   2.820  11.993
96140W        W60073  40.981  44.818  10.410
96141W        W60074  26.509  10.380  12.449
96142W        W60075  29.479  17.079  12.974
96143W        W60076  24.694  30.504  13.520
96144W        W60077  10.709  26.592  11.501
96145W        W60078  11.734  20.177  12.067
96146W        W60079  10.677  21.635  14.026
96147W        W60080  27.455   6.292  13.315
96148W        W60081  33.545  28.533  12.007
96149W        W60082   3.372  17.622   3.270
96150W        W60083  12.646   8.735  14.427
96151W        W60084  27.479  37.544  14.978
96152W        W60085  40.932  29.082  10.552
96153W        W60086   9.198  22.503   2.898
96154W        W60087   5.755   3.883  13.836
96155W        W60088  41.356  21.122   4.617
96156W        W60089  42.476  17.212   4.681
96157W        W60090  20.143  32.617  14.468
96158W        W60091  14.591  19.551  10.437
96159W        W60092  14.281  18.664  10.637
96160W        W60093   7.228  31.994  11.375
96161W        W60094  19.744  12.651  10.526
96162W        W60095  17.085  16.587  13.512
96163W        W60096   2.873   4.835   2.861
96164W        W60097  32.516  44.959   3.792
96165W        W60098  36.049  43.344  12.897
96166W        W60099  10.828  20.218   2.309
96167W        W60100  31.987   0.267   1.301
96168W        W60101  10.838  14.814  12.022
96169W        W60102  10.144  28.615  12.498
96170W        W60103  26.193  20.651   4.304
96171W        W60104  36.522  41.021  12.898
96172W        W60105   2.731   6.915   2.359
96173W        W60106   6.823   0.334   0.784
96174W        W60107   5.738  31.970  14.491
96175W        W60108  14.123  17.153   2.762
96176W        W60109  14.825  18.167   1.832
96177W        W60110   6.681  25.012  13.882
96178W        W60111  22.056  10.198  10.959
96179W        W60112  35.426  18.157   4.350
96180W        W60113   7.385  39.480   3.376
96181W        W60114  30.432  21.666   4.670
96182W        W60115  41.897   0.821   3.243
96183W        W60116   5.368  18.718  14.802
96184W        W60117  32.044  39.926  14.506
96185W        W60118  37.453  35.893  13.035
96186W        W60119   9.654  43.384   0.808
96187W        W60120  37.530  32.614   2.342
96188W        W60121  20.110   7.296  13.537
96189W        W60122  41.977   0.284   0.314
96190W        W60123  39.468   1.960   0.438
96191W        W60124  38.501   0.858   2.769
96192W        W60125  11.706  40.954   1.801
96193W        W60126   0.818  11.744   4.254
96194W        W60127  12.792   0.789  12.091
96195W        W60128  30.949  31.083   4.327
96196W        W60129  33.124  26.980  12.829
96197W        W60130  39.501   4.805  13.431
96198W        W60131   9.306   8.673   2.764
96199W        W60132  29.442  33.575   3.706
96200W        W60133   5.703   2.257   5.625
96201W        W60134  25.652  22.686  14.345
96202W        W60135  28.515  22.156   3.217
96203W        W60136  20.122  22.078   4.714
96204W        W60137  15.738  18.111  14.433
96205W        W60138  41.337  41.803   0.755
96206W        W60139  43.844   5.807  11.958
96207W        W60140  10.723  21.560  10.467
96208W        W60141   2.253  20.699   4.723
96209W        W60142  21.215  20.190  12.850
96210W        W60143  41.508  28.565  12.395
96211W        W60144   2.820  11.671   0.463
96212W        W60145  34.382  41.514  13.428
96213W        W60146  17.075  33.917   1.922
96214W        W60147  17.302  44.391  11.956
96215W        W60148   2.341  17.717   1.843
96216W        W60149  32.560  38.527  10.425
96217W        W60150  40.028  31.032  14.970
96218W        W60151  39.456   2.247   2.409
96219W        W60152  11.730   1.850   5.136
96220W        W60153  16.277  21.728  12.422
96221W        W60154  19.619   4.790   0.927
96222W        W60155   9.653  44.279   1.321
96223W        W60156  32.046  22.049  14.484
96224W        W60157   1.288   3.306   0.339
96225W        W60158   7.331   2.440   2.849
96226W        W60159   7.177  15.678   0.956
96227W        W60160  11.211  27.018  14.021
96228W        W60161  31.493  37.912   0.870
96229W        W60162  27.655  21.518  10.985
96230W        W60163  25.196  14.309   1.243
96231W        W60164   6.316  14.782   2.865
96232W        W60165   1.798  14.783  14.433
96233W        W60166  35.857  20.225  14.282
96234W        W60167  28.630  39.959  13.341
96235W        W60168  41.295  14.256  14.857
96236W        W60169  28.026  19.742   1.448
96237W        W60170  13.827   9.245   1.782
96238W        W60171   7.345  20.549  10.549
96239W        W60172  37.955   0.306  11.475
96240W        W60173  27.041   5.847  10.448
96241W        W60174  19.158  29.109  11.976
96242W        W60175  24.708  16.162   0.477
96243W        W60176  42.885  22.556  11.608
96244W        W60177  42.490  31.012  12.873
96245W        W60178  19.587   2.262   3.742
96246W        W60179   1.402  10.769  10.939
96247W        W60180  33.080   2.940   0.351
96248W        W60181   8.767  12.246  13.840
96249W        W60182   6.922  26.001  13.947
96250W        W60183  15.769  12.353  11.500
96251W        W60184  18.260  32.045  14.508
96252W        W60185  24.622  17.705   3.358
96253W        W60186  29.516  34.424  14.374
96254W        W60187  35.900  25.608  13.811
96255W        W60188   5.244  25.129  11.457
96256W        W60189  27.940  11.845  12.912
96257W        W60190  18.191  30.919  12.094
96258W        W60191  24.495  26.526   3.864
96259W        W60192  28.647   1.865   0.363
96260W        W60193  13.218  15.097  12.047
96261W        W60194  42.976  20.072  13.029
96262W        W60195   4.352   0.823   2.415
96263W        W60196  23.046  21.042   0.907
96264W        W60197  34.371  40.429  11.907
96265W        W60198  37.881  44.436   1.788
96266W        W60199  39.317  41.794  13.986
96267W        W60200  37.470  31.051  11.106
96268W        W60201  40.021  18.060   3.365
96269W        W60202  10.673  44.900   4.239
96270W        W60203  33.930  19.590   0.892
96271W        W60204  29.132  20.076   4.637
96272W        W60205  31.614   0.948   1.836
96273W        W60206  31.100  37.067  14.301
96274W        W60207  25.570  44.887  11.868
96275W        W60208  41.299  36.499  11.465
96276W        W60209  17.240   0.954   3.308
96277W        W60210  14.810   5.309   2.876
96278W        W60211  12.783  32.407   3.707
96279W        W60212  18.155  39.382   1.423
96280W        W60213  10.326  36.908  11.981
96281W        W60214  21.546   3.728   2.378
96282W        W60215  14.171   8.679  12.944
96283W        W60216   4.908  27.983   4.679
96284W        W60217  27.975   4.863  11.990
96285W        W60218  35.066  42.815  14.006
96286W        W60219  34.597  39.545  14.792
96287W        W60220  21.138   7.213   1.251
96288W        W60221  29.072   5.319  12.010
96289W        W60222   8.405  21.100   0.364
96290W        W60223  12.337  21.262   3.762
96291W        W60224  20.059  32.969  12.348
96292W        W60225  31.996  13.209   3.331
96293W        W60226  30.948  38.374  12.416
96294W        W60227  44.464   3.767  13.005
96295W        W60228  32.605  21.194   4.634
96296W        W60229  33.473   1.238  12.408
96297W        W60230  39.515  18.229  10.409
96298W        W60231  27.109   6.764  12.547
96299W        W60232  16.778  44.262   1.316
96300W        W60233  33.029  37.955  14.462
96301W        W60234  16.771   9.201   4.141
96302W        W60235  40.019  24.633  11.058
96303W        W60236  37.531  44.482  10.487
96304W        W60237  23.671  10.854  13.547
96305W        W60238  18.196   2.369  14.955
96306W        W60239  20.101  16.583   0.261
96307W        W60240  37.344   7.804   3.726
96308W        W60241  22.634  20.547  14.477
96309W        W60242  33.550  17.261   0.264
96310W        W60243  13.143   5.312   1.696
96311W        W60244   2.908  35.978   0.792
96312W        W60245  20.681  22.614   1.402
96313W        W60246  41.487  43.278   3.186
96314W        W60247   4.217   6.722   3.860
96315W        W60248  44.898  33.999   0.733
96316W        W60249  30.655  29.032   1.843
96317W        W60250   3.795  28.983   2.862
96318W        W60251  33.928   2.875  10.921
96319W        W60252  44.849  34.561   1.855
96320W        W60253  42.395   8.885   2.670
96321W        W60254  44.295  38.890  11.022
96322W        W60255  11.167   1.784   4.271
96323W        W60256   8.696   9.763   2.813
96324W        W60257   5.926  41.498  12.036
96325W        W60258  32.632  37.068  12.368
96326W        W60259  37.374   6.747  12.063
96327W        W60260  31.025  16.742  12.561
96328W        W60261   9.256  43.875  13.958
96329W        W60262   4.835  37.909  11.372
96330W        W60263  10.270  30.077  14.888
96331W        W60264  33.396  32.605  10.538
96332W        W60265  37.486   8.398   4.605
96333W        W60266  17.664  34.038   2.267
96334W        W60267  17.148  10.647  12.988
96335W        W60268  15.619  18.735   5.314
96336W        W60269  14.104  16.739  12.494
96337W        W60270   1.279  18.695   4.802
96338W        W60271   5.268  17.280  11.484
96339W        W60272   3.236  37.029  12.937
96340W        W60273  39.895  31.035  12.505
96341W        W60274  33.565  18.165   5.088
96342W        W60275  44.008  16.074  12.950
96343W        W60276   2.888  20.259   4.666
96344W        W60277  34.385  35.401  10.442
96345W        W60278  22.071   1.480  11.880
96346W        W60279   5.700  30.442  14.387
96347W        W60280  12.809  41.503  14.400
96348W        W60281  20.122   9.244  13.493
96349W        W60282  26.682  43.835   4.697
96350W        W60283  41.972  34.901   1.859
96351W        W60284  32.920  32.426  14.348
96352W        W60285  10.314  26.019  13.997
96353W        W60286  39.508  37.977   0.476
96354W        W60287  42.427  27.042   3.748
96355W        W60288  41.034  11.290  11.106
96356W        W60289  22.138  29.652  14.468
96357W        W60290  40.044  13.688  10.553
96358W        W60291  22.233  18.664   2.264
96359W        W60292  31.913  19.165   0.873
96360W        W60293  40.411  33.942   3.636
96361W        W60294   2.898  39.373  10.508
96362W        W60295  14.309  17.689  13.794
96363W        W60296   5.266  29.926   0.279
96364W        W60297  42.385  30.160  14.015
96365W        W60298  40.400   3.453   1.286
96366W        W60299  37.853  43.943   1.845
96367W        W60300  23.674  42.467  12.481
96368W        W60301   1.380   7.271   4.273
96369W        W60302  24.098  39.554  11.493
96370W        W60303   5.378  43.003   4.187
96371W        W60304   6.862  30.607   0.361
96372W        W60305  29.109  10.185   3.748
96373W        W60306  11.809  29.920   2.222
96374W        W60307  27.551  22.726  14.949
96375W        W60308  31.488  25.467   1.425
96376W        W60309  30.625  38.529   4.143
96377W        W60310  28.029   4.333  12.540
96378W        W60311  34.544  14.100   3.351
96379W        W60312  11.177  42.290  11.384
96380W        W60313  13.261  22.695   4.333
96381W        W60314  16.753  24.151   1.315
96382W        W60315  41.472  36.972  11.476
96383W        W60316  43.966  42.964   2.279
96384W        W60317   3.924  38.819  10.504
96385W        W60318  10.189  42.860   1.739
96386W        W60319  40.889   9.653   0.438
96387W        W60320  29.655  39.974  11.518
96388W        W60321  23.222   6.366  13.870
96389W        W60322   6.801  33.619  12.556
96390W        W60323   2.369  34.980   0.328
96391W        W60324  22.217  32.541   4.348
96392W        W60325  36.846  40.358   3.722
96393W        W60326  13.269   7.874  11.539
96394W        W60327  40.852   0.482  11.943
96395W        W60328  38.015  17.576   1.891
96396W        W60329   9.357  27.136   5.624
96397W        W60330  30.925  15.303   0.961
96398W        W60331  26.991  38.380   2.833
96399W        W60332  17.129  22.154  11.883
96400W        W60333  36.874  17.723   2.219
96401W        W60334  29.027  36.359   0.862
96402W        W60335  32.474  36.054  13.425
96403W        W60336  42.928  31.984   2.384
96404W        W60337  11.639   9.155   3.259
96405W        W60338  43.978  29.648   1.216
96406W        W60339  31.120  33.988  12.053
96407W        W60340  15.794  41.472  14.924
96408W        W60341   5.395  15.819   3.306
96409W        W60342  26.477  10.723   0.449
96410W        W60343   0.345   8.734   0.405
96411W        W60344  15.297  41.358  11.401
96412W        W60345  13.146  36.940   0.847
96413W        W60346  10.272  43.355  13.830
96414W        W60347  12.633  41.458   1.845
96415W        W60348  32.981  41.393   4.628
96416W        W60349  26.661  42.943  12.019
96417W        W60350  17.172  15.758   2.413
96418W        W60351  21.196  27.509  13.822
96419W        W60352  15.157   0.365   4.247
96420W        W60353  17.260  34.600  10.473
96421W        W60354   1.938  38.402  12.539
96422W        W60355  30.493  26.549   5.091
96423W        W60356   6.706  41.956   0.282
96424W        W60357  23.593  32.579  13.939
96425W        W60358  33.930  12.296  12.430
96426W        W60359  38.941  31.522   2.747
96427W        W60360  12.218  14.736   0.333
96428W        W60361   1.806  14.231  12.019
96429W        W60362  37.994   2.855  13.904
96430W        W60363   0.865   9.805   0.915
96431W        W60364  21.230  21.539   0.378
96432W        W60365  31.010  12.303   3.633
96433W        W60366  10.706   4.334  13.894
96434W        W60367  27.111  21.515   4.635
96435W        W60368  39.949  23.694  14.796
96436W        W60369  28.989  33.080  14.869
96437W        W60370  36.000  14.649  14.495
96438W        W60371   6.224  22.195   4.712
96439W        W60372  24.216   9.726   5.625
96440W        W60373  34.079  19.537  11.419
96441W        W60374  35.565   9.258   2.805
96442W        W60375   0.748  30.982  14.012
96443W        W60376  33.621   4.217  13.325
96444W        W60377  40.381  18.152   5.132
96445W        W60378  23.553  28.566  10.504
96446W        W60379  36.551  29.985   3.387
96447W        W60380  19.061  22.188   4.672
96448W        W60381  25.473  16.634  11.450
96449W        W60382  36.063   7.771  13.917
96450W        W60383  31.015  36.454   1.212
96451W        W60384   1.829   5.812  10.971
96452W        W60385   5.930  37.968  14.825
96453W        W60386   8.874  10.357   5.225
96454W        W60387   8.373   9.657  12.422
96455W        W60388  16.669  43.317   3.160
96456W        W60389   2.742   9.348   2.785
96457W        W60390  10.818  34.470  10.411
96458W        W60391  30.996   6.337   4.125
96459W        W60392   5.775   5.780   4.756
96460W        W60393  32.633  20.272   2.308
96461W        W60394  41.504   8.171   2.819
96462W        W60395   1.807  11.818   1.718
96463W        W60396   5.845   9.256   1.424
96464W        W60397  20.528  24.148   2.416
96465W        W60398  35.903  37.904  12.014
96466W        W60399   8.874  38.985   1.239
96467W        W60400  20.702  16.234   4.653
96468W        W60401  15.715  39.993  11.002
96469W        W60402  11.217  44.821  10.617
96470W        W60403  17.666  13.245  11.991
96471W        W60404  22.608  17.676   1.361
96472W        W60405   6.901   0.489  11.962
96473W        W60406  33.946  25.573   0.383
96474W        W60407  29.946  38.349   4.228
96475W        W60408  22.123   8.755  10.007
96476W        W60409  32.597  14.270  11.430
96477W        W60410   4.815  34.557   0.475
96478W        W60411   0.372  30.982   3.722
96479W        W60412  25.076   2.829  12.993
96480W        W60413   2.235  11.729   4.120
96481W        W60414  34.553   9.886  12.065
96482W        W60415  40.450  30.545  11.972
96483W        W60416  13.306  43.947   3.648
96484W        W60417  43.960   1.393   1.440
96485W        W60418  30.926   3.889   3.769
96486W        W60419  37.472  19.203   0.937
96487W        W60420  12.227  10.351   2.329
96488W        W60421   8.664  18.583  11.610
96489W        W60422  30.583   5.334   0.811
96490W        W60423  14.750  25.540  12.500
96491W        W60424  37.487   4.440  14.505
96492W        W60425   5.765  44.915  10.452
96493W        W60426  38.889  19.614   5.250
96494W        W60427  24.177  42.971   4.654
96495W        W60428  37.054  21.695  11.612
96496W        W60429  24.563  14.245  11.468
96497W        W60430   6.326  23.051  12.893
96498W        W60431  43.962  28.559  13.327
96499W        W60432  32.632  16.716   3.359
96500W        W60433  40.861   5.822  14.873
96501W        W60434  43.284  36.926   0.275
96502W        W60435  17.170   0.375  13.413
96503W        W60436  22.105  43.776  11.487
96504W        W60437   1.313   1.932  11.106
96505W        W60438   8.660  44.940  12.441
96506W        W60439  13.274  35.487  14.329
96507W        W60440  31.988  37.575   4.763
96508W        W60441   2.288  42.921  12.351
96509W        W60442  11.865  26.064   2.248
96510W        W60443  34.039  29.987   2.219
96511W        W60444  34.447  21.618  14.895
96512W        W60445  11.131  30.584   3.189
96513W        W60446  12.232  36.542   4.795
96514W        W60447  22.651  38.008   0.736
96515W        W60448   4.438  28.123  14.388
96516W        W60449   7.267  14.155  12.019
96517W        W60450  35.435  31.988   0.933
96518W        W60451  21.577  32.544  13.035
96519W        W60452  33.406  38.344  13.911
96520W        W60453  22.246  18.651  10.927
96521W        W60454  40.456  22.239  14.363
96522W        W60455  36.013  17.579   1.262
96523W        W60456  31.139   3.860  12.981
96524W        W60457   9.800  41.533  12.443
96525W        W60458  31.084  41.831  13.541
96526W        W60459  20.758  21.512  12.574
96527W        W60460  26.503  17.197   1.332
96528W        W60461  26.557  10.728  14.925
96529W        W60462   7.190  41.424  12.895
96530W        W60463  30.003   0.265   3.257
96531W        W60464   2.364  24.156  10.411
96532W        W60465  41.380  41.532  11.397
96533W        W60466  38.483   4.764  14.439
96534W        W60467  42.971  20.704   4.826
96535W        W60468  38.517  33.488   3.371
96536W        W60469  20.200  18.622   1.265
96537W        W60470  29.107  43.315  10.419
96538W        W60471  28.077   7.239  14.332
96539W        W60472  20.655  19.281  12.434
96540W        W60473   6.690  21.557  11.917
96541W        W60474  29.921  26.691   4.199
96542W        W60475  39.444  27.987   3.841
96543W        W60476  12.639  22.200  10.446
96544W        W60477  39.400  13.756  14.897
96545W        W60478  16.316  19.613  14.797
96546W        W60479   8.202  42.788   0.352
96547W        W60480  44.869   7.826  10.460
96548W        W60481  23.140  22.126  12.952
96549W        W60482   0.389  14.815   1.854
96550W        W60483   0.882  24.518   4.258
96551W        W60484  31.627  35.002   3.771
96552W        W60485  34.924  43.455  11.471
96553W        W60486   6.419   1.378  10.916
96554W        W60487  35.406   4.308  12.426
96555W        W60488  40.016  23.145  13.839
96556W        W60489  21.120  29.453   3.215
96557W        W60490   5.762  32.393  10.979
96558W        W60491   1.431   7.862   3.184
96559W        W60492  30.442  18.077  13.341
96560W        W60493  37.065  37.903  12.498
96561W        W60494  33.495  15.313   4.720
96562W        W60495  18.228   7.186   1.840
96563W        W60496  35.106   8.204   1.800
96564W        W60497  14.629  39.981   5.154
96565W        W60498  18.186  20.543  11.126
96566W        W60499  25.132  42.933   0.885
96567W        W60500   3.313  15.172   1.449
96568W        W60501  32.996   2.842  13.798
96569W        W60502  17.581  12.750   1.235
96570W        W60503  12.120  24.160   0.354
96571W        W60504  42.369   6.832  10.431
96572W        W60505  26.663  31.092  13.822
96573W        W60506  27.037  12.189  14.803
96574W        W60507  43.424  34.965  10.068
96575W        W60508  20.563  11.626  12.899
96576W        W60509  36.047  15.301   2.250
96577W        W60510  24.155  37.911   1.216
96578W        W60511  32.940  33.436   2.283
96579W        W60512   5.926  38.879  11.058
96580W        W60513  20.111  37.004   2.791
96581W        W60514   4.288  14.761   4.145
96582W        W60515  42.437  18.665   1.385
96583W        W60516  16.706   6.690  12.489
96584W        W60517  10.741  14.781  10.492
96585W        W60518  15.219  24.011  11.010
96586W        W60519  42.417   0.837  10.998
96587W        W60520   1.881  21.603   3.268
96588W        W60521  28.934  44.432   1.329
96589W        W60522  21.144  38.927  11.093
96590W        W60523  32.919   8.764   3.265
96591W        W60524   3.285   7.875   4.134
96592W        W60525  32.485  35.418   2.243
96593W        W60526  44.993   2.427   0.754
96594W        W60527  19.724   2.393  12.059
96595W        W60528  19.262  28.959  10.920
96596W        W60529  42.481  42.402   1.284
96597W        W60530  35.412  24.154  10.944
96598W        W60531  15.318   1.287  13.441
96599W        W60532  15.804  11.689   4.675
96600W        W60533  22.664  12.286  13.398
96601W        W60534  25.059  39.410   2.384
96602W        W60535  41.850  29.513  12.507
96603W        W60536   7.804  14.593   4.623
96604W        W60537  35.871  29.129   2.802
96605W        W60538   2.295   2.926  11.861
96606W        W60539  25.982  14.735  12.961
96607W        W60540   3.333  24.708   3.165
96608W        W60541  10.746  19.558  11.000
96609W        W60542  36.464  21.675   1.446
96610W        W60543  44.881   7.386  11.612
96611W        W60544  17.599  28.492   2.229
96612W        W60545  28.943  17.118  12.352
96613W        W60546  29.167   8.296   3.770
96614W        W60547  31.423  15.138  14.928
96615W        W60548  22.551  10.222   1.295
96616W        W60549  39.519  44.424   4.320
96617W        W60550  36.912  42.500  14.869
96618W        W60551  23.692  39.548  14.332
96619W        W60552  22.083  33.592   2.769
96620W        W60553  36.934  16.193   0.891
96621W        W60554   7.278  27.681   4.241
96622W        W60555  39.384  13.691   0.789
96623W        W60556  30.950  19.580   4.755
96624W        W60557  35.960  16.164  12.550
96625W        W60558  20.263  26.697  13.361
96626W        W60559   2.355  37.018   2.302
96627W        W60560  23.721   3.460   0.359
96628W        W60561   2.851   1.781   1.886
96629W        W60562  23.040  39.863  12.871
96630W        W60563  44.968  14.621   0.374
96631W        W60564  22.106  35.975   1.405
96632W        W60565  34.864   0.811   3.253
96633W        W60566  30.162  37.542  13.032
96634W        W60567  31.444  20.090   0.825
96635W        W60568   6.393  27.165  12.973
96636W        W60569   7.242  39.013   0.895
96637W        W60570  26.640  10.275   3.674
96638W        W60571   1.793  18.561  14.308
96639W        W60572  37.573  39.487   0.913
96640W        W60573  42.848  34.100   3.632
96641W        W60574  11.227  26.171  12.573
96642W        W60575  32.064  41.358  10.479
96643W        W60576  32.915   2.759  14.806
96644W        W60577  44.897  21.718  10.471
96645W        W60578  36.528   8.682  11.052
96646W        W60579  16.141  26.072  10.981
96647W        W60580  14.136  36.080  14.992
96648W        W60581  30.979   1.393   4.731
96649W        W60582   6.711  37.435  14.788
96650W        W60583   7.740  10.265   0.855
96651W        W60584   0.278  27.670   0.867
96652W        W60585  28.646   8.245   2.246
96653W        W60586  11.767  36.550  14.763
96654W        W60587  23.216  33.901   3.147
96655W        W60588  16.295  43.331   0.934
96656W        W60589  41.461  29.595  11.549
96657W        W60590  15.260  38.357  10.994
96658W        W60591   7.242  18.583   3.151
96659W        W60592  18.158  37.544   5.246
96660W        W60593  41.345  30.980  13.395
96661W        W60594  38.346   0.768   3.194
96662W        W60595  14.719   4.848  12.473
96663W        W60596  43.800  28.642  11.506
96664W        W60597  41.961  29.068   3.715
96665W        W60598  23.495   8.700   0.879
96666W        W60599   0.750  30.415   0.417
96667W        W60600  30.948   7.291  13.959
96668W        W60601  19.620  36.404   4.798
96669W        W60602  29.144  13.688  12.836
96670W        W60603  21.595  44.850   0.830
96671W        W60604  28.562   0.394   4.675
96672W        W60605  43.772  18.079   3.180
96673W        W60606  24.517   6.786   1.382
96674W        W60607  12.772  19.089   2.255
96675W        W60608   9.230  42.836   1.706
96676W        W60609   6.389  41.411  14.430
96677W        W60610  38.454  12.849   4.207
96678W        W60611  40.400   1.745  10.447
96679W        W60612  10.172   9.339   2.670
96680W        W60613  15.659  44.281  14.286
96681W        W60614  37.553  44.995   1.420
96682W        W60615   0.395   5.896   0.360
96683W        W60616  13.254  44.479   3.185
96684W        W60617  40.966  42.900  13.866
96685W        W60618  14.773   2.918  12.051
96686W        W60619  12.820  18.664  12.926
96687W        W60620  22.713  13.807   1.220
96688W        W60621  36.985  30.084   2.771
96689W        W60622  26.597   1.816   0.753
96690W        W60623  14.232   9.779   1.256
96691W        W60624  39.016  33.536   3.272
96692W        W60625  34.555  41.297  11.900
96693W        W60626   9.238  28.121  11.553
96694W        W60627  29.657  32.514   4.223
96695W        W60628  29.045  31.090   4.631
96696W        W60629   7.792  26.077   1.730
96697W        W60630  13.703  15.742  14.301
96698W        W60631  17.688   1.735  13.918
96699W        W60632  22.582  39.351   4.263
96700W        W60633   0.305  21.643  14.417
96701W        W60634  25.597   7.829   4.602
96702W        W60635  40.329  29.963   1.778
96703W        W60636  41.853  43.428   4.749
96704W        W60637  30.095  12.693  14.426
96705W        W60638   4.938  16.659   4.733
96706W        W60639  36.559  41.527  14.424
96707W        W60640   1.805  29.152   3.675
96708W        W60641   8.862  30.024  13.446
96709W        W60642   6.337  37.842  14.506
96710W        W60643  22.578  27.150  13.400
96711W        W60644  14.284  40.358   5.252
96712W        W60645  27.986  10.328  10.468
96713W        W60646  28.624  15.690   3.299
96714W        W60647  17.793  18.157   1.799
96715W        W60648   6.235  10.208   3.287
96716W        W60649   0.366  28.640  11.426
96717W        W60650  32.491  27.549   2.384
96718W        W60651  24.147  19.564   0.318
96719W        W60652  39.044   6.244   3.211
96720W        W60653   0.457  42.305   0.736
96721W        W60654  39.468   9.333  10.553
96722W        W60655  18.776  39.358   1.780
96723W        W60656  25.494   4.259  12.824
96724W        W60657   7.268   4.914   0.260
96725W        W60658  10.149  24.594   0.751
96726W        W60659   1.972  44.787  14.782
96727W        W60660  44.908  31.489  11.963
96728W        W60661   3.873   1.855   3.281
96729W        W60662  41.526  39.058  14.855
96730W        W60663   6.889  14.709   9.510
96731W        W60664  13.603  34.978   4.684
96732W        W60665   6.722  26.484  11.483
96733W        W60666   3.773   1.787   3.767
96734W        W60667  10.211   7.394  11.033
96735W        W60668   7.790  32.394   0.920
96736W        W60669   0.924  23.605   4.333
96737W        W60670  29.113  36.579  13.962
96738W        W60671   2.798  12.241  13.048
96739W        W60672  15.256   8.315   2.227
96740W        W60673   5.256  16.143   0.465
96741W        W60674  37.347  39.527   4.803
96742W        W60675  13.626  37.531   0.261
96743W        W60676  16.789   6.413   0.790
96744W        W60677  37.892  12.128  12.096
96745W        W60678  28.564  32.916  13.469
96746W        W60679  36.521  35.397  14.939
96747W        W60680  18.276  19.091   2.812
96748W        W60681  31.094  28.183   4.335
96749W        W60682  10.851  15.094   2.694
96750W        W60683  15.283  11.367   0.727
96751W        W60684   2.382  40.007  14.979
96752W        W60685  18.614   9.362  11.870
96753W        W60686   5.749  26.969  12.355
96754W        W60687  36.368  44.314  13.501
96755W        W60688  30.930   2.925  11.865
96756W        W60689   1.973  44.274   4.694
96757W        W60690  26.556  23.158  12.441
96758W        W60691  32.125  31.982  13.938
96759W        W60692  19.536  20.124   5.129
96760W        W60693  14.768  26.196  10.561
96761W        W60694  16.074  23.183   0.271
96762W        W60695  36.938  42.290   0.734
96763W        W60696  40.325  37.020   4.657
96764W        W60697  43.325  37.416   0.434
96765W        W60698  18.156  30.453   1.733
96766W        W60699  41.515  26.168   2.178
96767W        W60700  22.650  18.729   4.740
96768W        W60701   9.856  30.981   1.380
96769W        W60702   0.251  27.575  11.429
96770W        W60703  37.524  33.074   2.818
96771W        W60704   6.211  30.608   4.343
96772W        W60705  11.816  41.323   0.774
96773W        W60706  20.642  27.580  13.332
96774W        W60707   5.329  15.679  11.441
96775W        W60708   7.730  27.126  13.840
96776W        W60709  43.831   0.835  14.981
96777W        W60710   8.339  30.625  11.478
96778W        W60711  10.371  11.169   2.865
96779W        W60712  28.562  22.161   0.425
96780W        W60713   0.941  21.183   3.711
96781W        W60714   2.755  42.898  10.517
96782W        W60715  16.566   4.884  14.819
96783W        W60716  26.010  30.920  11.972
96784W        W60717  36.458  14.710   0.453
96785W        W60718  30.963  21.638   0.295
96786W        W60719   4.287  14.752   0.840
96787W        W60720  34.545  18.561   4.743
96788W        W60721  19.582  14.154   1.330
96789W        W60722   4.335  26.045  13.444
96790W        W60723  41.301   1.915   1.930
96791W        W60724  41.023  40.449  13.395
96792W        W60725  35.025  36.063  13.487
96793W        W60726  13.754  29.633   4.822
96794W        W60727  36.006   6.865   2.833
96795W        W60728  39.524  25.475   2.410
96796W        W60729  28.648  18.555   4.728
96797W        W60730  32.031  22.148  14.806
96798W        W60731  18.623  37.974  14.830
96799W        W60732  41.415   1.427  13.477
96800W        W60733  27.583  21.531  12.842
96801W        W60734  44.825  24.718  13.920
96802W        W60735  21.057  17.740  13.370
96803W        W60736  13.215  25.498   4.601
96804W        W60737   1.919  38.540  11.065
96805W        W60738   4.914  43.937  12.075
96806W        W60739  38.495  23.159  10.641
96807W        W60740  39.060  39.887  12.415
96808W        W60741  13.252  26.533  11.993
96809W        W60742   8.835  32.896  14.306
96810W        W60743  32.910  17.200  13.912
96811W        W60744   4.749  18.215   9.999
96812W        W60745  29.602  34.898   3.201
96813W        W60746  27.187  43.500   2.241
96814W        W60747  36.497  17.266  13.978
96815W        W60748  17.782   0.488   1.347
96816W        W60749  17.099  44.905  13.794
96817W        W60750  10.284   9.858   2.704
96818W        W60751  12.778  35.600  12.076
96819W        W60752  33.088  10.147  10.990
96820W        W60753  11.166  20.137   4.242
96821W        W60754  42.515  41.799  13.022
96822W        W60755   3.228   4.814   3.386
96823W        W60756  18.717  15.656  11.525
96824W        W60757  26.668  41.315   0.436
96825W        W60758   4.876  16.718   3.255
96826W        W60759   6.897  36.589   1.346
96827W        W60760  21.041  18.699   5.290
96828W        W60761  12.320  43.932   4.269
96829W        W60762  29.518  18.705   3.195
96830W        W60763  40.862  39.420  12.375
96831W        W60764  26.077   6.224   3.840
96832W        W60765  25.031  23.087  10.529
96833W        W60766  31.907  40.511   4.606
96834W        W60767  38.484  40.967   2.331
96835W        W60768  15.115  24.496  13.430
96836W        W60769   1.847  41.828   0.367
96837W        W60770  40.912  33.520  10.933
96838W        W60771  40.985  38.489  11.051
96839W        W60772  30.488  15.641   2.756
96840W        W60773  31.484  14.228   0.925
96841W        W60774  44.359  34.543   3.825
96842W        W60775   5.235  37.977  12.397
96843W        W60776  19.119  39.047  14.861
96844W        W60777   1.315  29.051  12.439
96845W        W60778  16.811   8.276   1.384
96846W        W60779  11.662  14.608   0.296
96847W        W60780  41.928   4.215   2.296
96848W        W60781   7.850  36.935   0.898
96849W        W60782  33.100  15.189  12.963
96850W        W60783  39.339  35.604  13.040
96851W        W60784   7.673  10.718  14.980
96852W        W60785  37.972  36.043   3.746
96853W        W60786   1.742  18.554   3.247
96854W        W60787  44.829   7.888   4.337
96855W        W60788  18.770   9.321   1.412
96856W        W60789  37.839  26.645   3.708
96857W        W60790  40.995   9.741  10.978
96858W        W60791  35.038  33.464   1.903
96859W        W60792   4.329  24.009  11.960
96860W        W60793  43.312   3.838  13.936
96861W        W60794  28.006  13.297  12.387
96862W        W60795  29.048  34.915   4.710
96863W        W60796  26.105  40.487  14.763
96864W        W60797  40.479  10.310  13.966
96865W        W60798  21.154  37.460   3.697
96866W        W60799  40.312  38.524   1.735
96867W        W60800  23.614  43.837   0.763
96868W        W60801  27.608  35.369  14.348
96869W        W60802  20.057  39.857   1.812
96870W        W60803  30.557   4.804   4.627
96871W        W60804  32.400   3.789  13.480
96872W        W60805  28.066  11.322  11.537
96873W        W60806  36.074  22.669   0.295
96874W        W60807  37.931   7.786   2.662
96875W        W60808   3.807   1.783  13.440
96876W        W60809  35.040   4.904   5.287
96877W        W60810  40.497  34.415   2.186
96878W        W60811   3.829  29.543   4.187
96879W        W60812  41.345  10.251  13.343
96880W        W60813  31.040   6.806  13.355
96881W        W60814  40.927  25.570  11.595
96882W        W60815  43.392  18.094   2.805
96883W        W60816  30.511  35.481   2.269
96884W        W60817  40.448  31.120   3.151
96885W        W60818  38.846  16.660   3.317
96886W        W60819   7.693  14.171   3.754
96887W        W60820  10.330   5.912   0.307
96888W        W60821  11.779  29.495  12.451
96889W        W60822  12.189  40.409   1.366
96890W        W60823   6.865  44.869   4.287
96891W        W60824   9.185  22.025   3.189
96892W        W60825  13.291   5.824  13.381
96893W        W60826  27.512  41.881   4.237
96894W        W60827  30.524  16.604   0.445
96895W        W60828  31.942  15.602  13.412
96896W        W60829  23.557  41.322  11.537
96897W        W60830  20.105  14.098  13.856
96898W        W60831   6.382  25.582  14.373
96899W        W60832   9.738  12.676  12.868
96900W        W60833  32.564   6.859   1.735
96901W        W60834  39.810  35.909   1.448
96902W        W60835  42.295  36.873  13.345
96903W        W60836  20.059  40.430   1.246
96904W        W60837  12.775  25.467   0.757
96905W        W60838  11.622  40.807  11.561
96906W        W60839   1.961  42.460   1.309
96907W        W60840   3.326  33.909   1.413
96908W        W60841   1.438  24.567   4.334
96909W        W60842  41.028  32.428  13.481
96910W        W60843  18.152  43.307  10.479
96911W        W60844  44.772  26.490   4.655
96912W        W60845  25.969  30.594   2.286
96913W        W60846  44.385   5.840   1.250
96914W        W60847  11.342  34.890  10.482
96915W        W60848  33.524  14.146   3.789
96916W        W60849   2.307   9.228   2.254
96917W        W60850  36.917   5.869   3.709
96918W        W60851  37.441  16.261  13.968
96919W        W60852   0.855  30.082   4.636
96920W        W60853  32.087  32.048   0.270
96921W        W60854  19.214   6.726  14.456
96922W        W60855  17.212  31.939  14.495
96923W        W60856  15.165  19.764   1.707
96924W        W60857  20.071  32.452  13.022
96925W        W60858  26.051  24.988  13.976
96926W        W60859  40.371  13.729   3.700
96927W        W60860  37.545  17.136   4.791
96928W        W60861  35.553  41.448   0.474
96929W        W60862  34.461   0.805   3.683
96930W        W60863  13.291  37.545   3.860
96931W        W60864   1.256  29.079   1.840
96932W        W60865  18.150  20.058   4.833
96933W        W60866   2.866   0.832   2.319
96934W        W60867  34.998  42.368   0.952
96935W        W60868  42.008  24.574  12.466
96936W        W60869  37.859  16.244  11.056
96937W        W60870  23.238  31.931  12.041
96938W        W60871  40.358  14.102  11.967
96939W        W60872  30.111  31.072  10.910
96940W        W60873  18.296  42.893  13.381
96941W        W60874  40.314   0.962  11.461
96942W        W60875  26.049  14.646   0.891
96943W        W60876  36.548   3.901   0.476
96944W        W60877  25.070  36.088  13.507
96945W        W60878  10.341  30.587   2.246
96946W        W60879  44.892  39.370   9.557
96947W        W60880  34.594  13.277  12.432
96948W        W60881  43.516  21.241   4.191
96949W        W60882   9.756  28.553   3.155
96950W        W60883  22.504  37.997   4.275
96951W        W60884  10.144  21.109   1.219
96952W        W60885  39.436  12.161   2.280
96953W        W60886  29.176   2.302  10.914
96954W        W60887  22.067  31.938  13.525
96955W        W60888  36.389  30.639  13.835
96956W        W60889   1.896  44.003  14.957
96957W        W60890   9.273  12.358   2.890
96958W        W60891  44.002  23.593  11.893
96959W        W60892  10.693  16.204   3.238
96960W        W60893  22.632   6.316  10.911
96961W        W60894   2.877  44.010   0.760
96962W        W60895  41.959  17.597  12.973
96963W        W60896  15.587  12.245   0.758
96964W        W60897  39.348  31.970  12.966
96965W        W60898  27.650  18.561   4.838
96966W        W60899   5.267  36.929   0.261
96967W        W60900  13.263  10.320  10.024
96968W        W60901  40.319  36.004  12.915
96969W        W60902   6.693  15.188   3.742
96970W        W60903   8.310  24.112  13.435
96971W        W60904  20.213  21.714   2.278
96972W        W60905  24.652  21.124  13.967
96973W        W60906  25.965  28.985   3.349
96974W        W60907   5.697  26.093  14.452
96975W        W60908   5.760   4.403   2.829
96976W        W60909  43.463  44.829   3.837
96977W        W60910  12.843  16.703  12.865
96978W        W60911   6.873  26.076   5.213
96979W        W60912  14.660  22.587   2.664
96980W        W60913  27.063  41.966   4.184
96981W        W60914   3.228  24.590   2.863
96982W        W60915  21.045  43.867  11.953
96983W        W60916   0.760  28.609  12.501
96984W        W60917  44.008  29.039  12.396
96985W        W60918  38.884  35.534  13.041
96986W        W60919   2.442  36.421   0.863
96987W        W60920  23.218  20.585   2.812
96988W        W60921  42.790  15.124  10.566
96989W        W60922   0.899  44.410  13.403
96990W        W60923  35.020  26.461  13.482
96991W        W60924   8.724  44.262   3.152
96992W        W60925   6.797  32.570   1.869
96993W        W60926  42.953  27.066   0.967
96994W        W60927  41.293  15.122   0.925
96995W        W60928  36.097  18.094   4.748
96996W        W60929  21.077  29.038  14.304
96997W        W60930  21.527  31.516   4.249
96998W        W60931  16.154  23.669   0.762
96999W        W60932  36.566  23.154  12.837
97000W        W60933  30.639  22.099  12.985
97001W        W60934  22.523  32.937   2.727
97002W        W60935  43.928  36.439   3.312
97003W        W60936  38.892  15.660   2.294
97004W        W60937  24.208   8.838   0.248
97005W        W60938   0.805  10.642   3.172
97006W        W60939  23.668   1.420  13.406
97007W        W60940  13.631  34.549   2.350
97008W        W60941  28.491  34.044  11.456
97009W        W60942  32.579  25.108   5.270
97010W        W60943   6.886  24.718  11.503
97011W        W60944  34.483  43.398  10.550
97012W        W60945  22.745  30.999   3.826
97013W        W60946  27.497   4.869  11.064
97014W        W60947   3.379  20.527   3.214
97015W        W60948   8.275  40.033  11.112
97016W        W60949  44.403  30.456  11.423
97017W        W60950  26.103   6.185  12.551
97018W        W60951  21.226  42.875   0.757
97019W        W60952  13.759  31.523  13.938
97020W        W60953   3.348  41.042  13.960
97021W        W60954  11.311  36.950   4.269
97022W        W60955  15.581  10.380  12.877
97023W        W60956  19.669  23.151   2.787
97024W        W60957  13.116   8.183   3.869
97025W        W60958  13.755  37.529  14.336
97026W        W60959  25.092  29.504  10.566
97027W        W60960  31.997  16.693   4.180
97028W        W60961  12.220  13.207  14.767
97029W        W60962  36.452  36.420   1.900
97030W        W60963   7.714  29.552   0.286
97031W        W60964  13.707  10.290   3.311
97032W        W60965  44.478  33.539   5.282
97033W        W60966   0.491  37.975  10.088
97034W        W60967  17.733  28.937   3.166
97035W        W60968  26.484  22.648   5.243
97036W        W60969  12.686  40.821  11.586
97037W        W60970   3.887  21.568   0.300
97038W        W60971  14.608  21.566   1.402
97039W        W60972  11.289   9.718   4.739
97040W        W60973  44.260  29.067  11.515
97041W        W60974  18.554  38.458  11.888
97042W        W60975  29.161  12.193   0.418
97043W        W60976   9.323  39.879  13.794
97044W        W60977  26.482  37.084  14.016
97045W        W60978  20.633  31.532   1.901
97046W        W60979  20.201   0.340  12.064
97047W        W60980   4.727   3.938   1.721
97048W        W60981  14.625  37.361   2.680
97049W        W60982  30.453  33.093   2.199
97050W        W60983  44.010  19.101  13.953
97051W        W60984  40.887  16.297   1.404
97052W        W60985   7.222  15.096   3.268
97053W        W60986  15.184  32.976   4.316
97054W        W60987  25.025  30.918   0.837
97055W        W60988  37.997   6.718  12.941
97056W        W60989  37.425  19.253  10.988
97057W        W60990   3.412  43.275   1.411
97058W        W60991  33.601  44.479   2.380
97059W        W60992  13.168  24.024   4.694
97060W        W60993  23.652   7.281   2.351
97061W        W60994  36.053  40.466  13.032
97062W        W60995  29.512  31.911  11.127
97063W        W60996  42.784   5.750  10.920
97064W        W60997  12.661  33.960  12.094
97065W        W60998  33.124  17.183  10.475
97066W        W60999  32.922  15.627   3.730
97067W        W61000  18.648  42.512   1.329
97068W        W61001  13.143  37.481   2.796
97069W        W61002  41.995  23.986  12.833
97070W        W61003   6.793   3.730   0.387
97071W        W61004   8.795  35.896  14.970
97072W        W61005  38.955  26.063   2.178
97073W        W61006  40.850  36.347   2.350
97074W        W61007  18.631  21.727   4.162
97075W        W61008  29.638  31.056   0.772
97076W        W61009  44.444  21.165   1.292
97077W        W61010  42.815  44.832   4.142
97078W        W61011  43.371  42.443   4.668
97079W        W61012  27.076  26.466   4.821
97080W        W61013  39.503  33.500   0.734
97081W        W61014  18.573   0.388   9.988
97082W        W61015   2.756   8.661   4.193
97083W        W61016  43.417  35.391   4.723
97084W        W61017   7.802  28.548  12.484
97085W        W61018  35.526  24.081  14.864
97086W        W61019  43.487  21.689   3.731
97087W        W61020  30.446   0.816  12.577
97088W        W61021  37.527  13.684   1.372
97089W        W61022  39.413  27.014  12.826
97090W        W61023  43.782  26.075   1.870
97091W        W61024  44.259  11.774   4.700
97092W        W61025  27.581   5.700  11.934
97093W        W61026  15.086  28.462   3.714
97094W        W61027   0.383  39.018  10.591
97095W        W61028  32.937   0.355  11.118
97096W        W61029  37.351   5.875   3.365
97097W        W61030  37.490   6.192  14.409
97098W        W61031  28.499  20.610  14.791
97099W        W61032   8.171  12.322  11.098
97100W        W61033   2.789  10.373   3.194
97101W        W61034   2.414  29.445   4.646
97102W        W61035   0.300  38.053   1.750
97103W        W61036  31.941   9.257  12.520
97104W        W61037  36.402  35.457   2.784
97105W        W61038  34.574  34.429   0.817
97106W        W61039  34.505  32.946   4.151
97107W        W61040  16.183  39.914   5.240
97108W        W61041   6.407  14.703  14.856
97109W        W61042   8.685   9.342   1.881
97110W        W61043   2.308  13.749   2.260
97111W        W61044  12.764   1.804   0.941
97112W        W61045   1.923  32.467   0.892
97113W        W61046  23.215  34.024   0.389
97114W        W61047  42.884  38.397   0.431
97115W        W61048  38.076  15.242  13.035
97116W        W61049  10.310  19.660  12.990
97117W        W61050  29.466  28.073  12.470
97118W        W61051  31.479  38.015  14.303
97119W        W61052  30.934  22.602  14.969
97120W        W61053  41.932  19.209  14.505
97121W        W61054  13.688  24.154   3.783
97122W        W61055  11.759   3.952   2.898
97123W        W61056  26.531   2.959   4.291
97124W        W61057  29.060  32.932   3.721
97125W        W61058   0.956  35.938  11.571
97126W        W61059  18.773   1.315   1.279
97127W        W61060  10.168  37.077   4.148
97128W        W61061   9.846  31.117   3.746
97129W        W61062  11.774  33.538  14.841
97130W        W61063  42.943   9.201   0.318
97131W        W61064   5.868  38.928   4.786
97132W        W61065  34.874  44.292  14.391
97133W        W61066  35.410  26.006   2.305
97134W        W61067  10.638  34.594   0.936
97135W        W61068  35.406  17.300   4.318
97136W        W61069  39.913  24.652   4.740
97137W        W61070  39.990  37.438   4.775
97138W        W61071   7.329  11.367   0.458
97139W        W61072  41.513   9.771   1.261
97140W        W61073  21.626   3.440   0.369
97141W        W61074   0.981  23.999   1.781
97142W        W61075  23.989   2.940  14.952
97143W        W61076  28.537  38.470   4.216
97144W        W61077  15.586  19.592  13.530
97145W        W61078  26.470  32.989  13.464
97146W        W61079  10.272  14.696   4.709
97147W        W61080  10.699  40.363   2.697
97148W        W61081  38.471  25.109   4.251
97149W        W61082  41.523  43.820  10.474
97150W        W61083  13.625  36.900  12.573
97151W        W61084  42.503  21.530  11.022
97152W        W61085  34.079  16.278  14.978
97153W        W61086  43.288  30.918   2.263
97154W        W61087  41.303   7.338   4.715
97155W        W61088  37.347  19.206   4.598
97156W        W61089  28.014  13.115  13.962
97157W        W61090  22.640   6.883   9.950
97158W        W61091   2.874  25.968   1.931
97159W        W61092   5.712  19.628   0.854
97160W        W61093  28.057   5.797  13.339
97161W        W61094  30.002  19.533   1.718
97162W        W61095  24.534   6.372  12.916
97163W        W61096  10.313  17.232  10.552
97164W        W61097   4.805  24.682   1.439
97165W        W61098   2.739  34.119   2.258
97166W        W61099  22.544  25.999   3.251
97167W        W61100   2.356  19.096   4.247
97168W        W61101   2.837  38.326   0.787
97169W        W61102  24.218  23.996   1.326
97170W        W61103  30.613  14.758   2.853
97171W        W61104  11.732  13.190  14.920
97172W        W61105  31.023  24.138   1.807
97173W        W61106   1.774  12.800  10.045
97174W        W61107   8.301  40.546   0.325
97175W        W61108  15.263   2.726   2.718
97176W        W61109  42.504  22.164   2.746
97177W        W61110  23.140  30.162   0.418
97178W        W61111   6.922   3.243  10.968
97179W        W61112  16.720   1.901   3.871
97180W        W61113  15.672  37.051  11.942
97181W        W61114  39.484  13.269   4.760
97182W        W61115  23.231  11.179  11.013
97183W        W61116   3.754  38.328   1.384
97184W        W61117   7.233  18.059   0.274
97185W        W61118  35.961   1.290  10.514
97186W        W61119  39.062   6.217  11.407
97187W        W61120  41.002  16.766   0.458
97188W        W61121  10.731  35.560  11.973
97189W        W61122  30.043   0.961  10.525
97190W        W61123   4.255   3.808   1.891
97191W        W61124  17.170   9.889  14.329
97192W        W61125   6.226  20.165   0.966
97193W        W61126   2.866   2.299  10.637
97194W        W61127   0.384  37.011   2.351
97195W        W61128  11.798  32.115   0.967
97196W        W61129  30.009  12.757  10.621
97197W        W61130  10.189   6.796  12.008
97198W        W61131  10.772  26.497   9.984
97199W        W61132  23.694  35.358  13.885
97200W        W61133  13.121   7.880  13.006
97201W        W61134  14.255   2.406   0.861
97202W        W61135  21.615  15.698   3.375
97203W        W61136   1.875  23.065  13.414
97204W        W61137  34.431  42.325  11.546
97205W        W61138   6.312  44.810  13.508
97206W        W61139  31.128  26.155   3.275
97207W        W61140   4.253   7.259  12.025
97208W        W61141  33.117   1.482  14.445
97209W        W61142  30.023  39.421   0.846
97210W        W61143   6.725  35.998  12.953
97211W        W61144  36.883   0.855   0.955
97212W        W61145  38.073  41.346   4.719
97213W        W61146  10.324   3.424  14.325
97214W        W61147  31.928  40.322   0.427
97215W        W61148  18.135   7.852  14.781
97216W        W61149  33.876  24.001  13.460
97217W        W61150  43.848  20.232  11.525
97218W        W61151   7.837   3.268   2.671
97219W        W61152  20.690  38.015   4.252
97220W        W61153  18.083  20.529  10.546
97221W        W61154  24.994  27.114   1.365
97222W        W61155  44.369  17.668  10.982
97223W        W61156  25.151  18.276   4.252
97224W        W61157  14.668   8.806   3.245
97225W        W61158  27.669  24.999  11.379
97226W        W61159  44.833  16.689   2.400
97227W        W61160  23.220  10.757   1.850
97228W        W61161  12.177  18.677   2.412
97229W        W61162  23.517  34.086  12.528
97230W        W61163  19.102  19.591  13.434
97231W        W61164   8.377  15.734   4.681
97232W        W61165  40.800  41.816   3.847
97233W        W61166  27.616  25.481  11.420
97234W        W61167  28.116  36.364   1.812
97235W        W61168  39.439  37.074   2.807
97236W        W61169   5.310  41.982  11.907
97237W        W61170  15.789  11.706  12.514
97238W        W61171   9.749  35.959   2.328
97239W        W61172  44.833  36.972   3.187
97240W        W61173   1.796  14.329  13.353
97241W        W61174  30.428  13.105  10.452
97242W        W61175  10.655  19.663   0.395
97243W        W61176  24.074   0.855  14.800
97244W        W61177  22.096  43.513  12.572
97245W        W61178  42.298  19.048   0.326
97246W        W61179  12.190  22.140  12.392
97247W        W61180  39.021  21.024  10.083
97248W        W61181  41.491  26.036  13.842
97249W        W61182  44.937   1.461  10.513
97250W        W61183   4.380  36.497  14.379
97251W        W61184  13.192  41.516   0.748
97252W        W61185  43.823  33.516   1.405
97253W        W61186  15.263  37.082   9.970
97254W        W61187   0.842  22.652  14.912
97255W        W61188  15.262   8.707   1.768
97256W        W61189  34.905  34.590  14.298
97257W        W61190  36.852   5.239  14.958
97258W        W61191   8.677  17.692   2.787
97259W        W61192  34.424  40.801  14.840
97260W        W61193  31.960  29.500   0.248
97261W        W61194   4.348  11.734  10.476
97262W        W61195  41.880  17.788   1.899
97263W        W61196  21.755  36.066   0.357
97264W        W61197  43.451   9.827  10.489
97265W        W61198   1.880  10.190   2.871
97266W        W61199   9.822  40.374   2.365
97267W        W61200  38.918  38.043   0.332
97268W        W61201  20.170  39.331   0.934
97269W        W61202  35.004  16.639   2.351
97270W        W61203   9.335  28.006   1.297
97271W        W61204  12.346  22.694  12.511
97272W        W61205  37.844  23.065  13.806
97273W        W61206  29.978  12.831   2.237
97274W        W61207  41.963   7.214  14.007
97275W        W61208  14.613   8.304   4.641
97276W        W61209  23.682  38.331  12.945
97277W        W61210  15.799  31.610   2.405
97278W        W61211  43.904   8.862   3.290
97279W        W61212  15.176   8.659  13.971
97280W        W61213  19.624   5.338  14.001
97281W        W61214  18.636  44.320   0.951
97282W        W61215  17.669  29.919  13.458
97283W        W61216  27.170  41.831   5.635
97284W        W61217  20.759  14.774  10.917
97285W        W61218  29.538  29.602   3.348
97286W        W61219  41.849  37.383   3.347
97287W        W61220  21.184  36.094  13.451
97288W        W61221  20.706  17.066  13.809
97289W        W61222  20.105  33.985  14.799
97290W        W61223   3.318  15.585  13.377
97291W        W61224  20.731  16.587  12.387
97292W        W61225  30.556  11.633  12.477
97293W        W61226   9.255  32.900  11.948
97294W        W61227   9.786  23.668   3.770
97295W        W61228  43.408  12.232  13.017
97296W        W61229  23.559   9.851   2.730
97297W        W61230   9.387  33.013  12.399
97298W        W61231  36.085  32.946   1.300
97299W        W61232  23.030  40.404  10.435
97300W        W61233  23.212  14.787   2.830
97301W        W61234  22.080  13.792  14.874
97302W        W61235  24.984  38.415  11.081
97303W        W61236  25.987  33.610  13.430
97304W        W61237  29.024  33.969  13.398
97305W        W61238  11.324  18.641   1.374
97306W        W61239  30.459  18.162   1.300
97307W        W61240  43.773  16.686   2.367
97308W        W61241   2.937  12.120   3.291
97309W        W61242  34.026   0.359   1.280
97310W        W61243  11.660   3.426   0.774
97311W        W61244  22.252   1.834  12.976
97312W        W61245  33.999  31.906  10.563
97313W        W61246  18.241  25.626   2.404
97314W        W61247  24.983  24.206   3.737
97315W        W61248  14.258  16.652  14.984
97316W        W61249  13.641  33.018   4.688
97317W        W61250  29.631   0.261  13.001
97318W        W61251  12.130  26.014  13.537
97319W        W61252  31.556  27.543   1.404
97320W        W61253  36.087  38.341  11.090
97321W        W61254   6.783  24.151  11.463
97322W        W61255  16.095  27.098   0.321
97323W        W61256   7.329  32.571  14.369
97324W        W61257  10.347  35.905  13.892
97325W        W61258  28.047  18.568   0.377
97326W        W61259  43.473  25.012  11.940
97327W        W61260  38.984  31.116  10.427
97328W        W61261  14.095  18.279   2.365
97329W        W61262  22.088  20.097  10.481
97330W        W61263  25.622   2.789  13.389
97331W        W61264  24.005  38.030   0.437
97332W        W61265  16.801   6.301  12.518
97333W        W61266  17.577  38.046   0.911
97334W        W61267  14.125  13.796  11.435
97335W        W61268  29.147   9.730   4.163
97336W        W61269   1.266  28.666   2.690
97337W        W61270   8.247  30.033  14.962
97338W        W61271  24.668  19.748  12.557
97339W        W61272  30.091  17.579   4.181
97340W        W61273   5.414   3.355  13.948
97341W        W61274   0.273  38.826   3.267
97342W        W61275  33.466   7.233   3.324
97343W        W61276  30.101  40.476  13.401
97344W        W61277  13.200  26.966  10.569
97345W        W61278   9.320  41.483  10.617
97346W        W61279  21.593  44.473   3.205
97347W        W61280  44.886  14.304   3.801
97348W        W61281  10.214  28.947  10.493
97349W        W61282  39.898  24.591  12.515
97350W        W61283  34.114  35.395   0.859
97351W        W61284  25.092  44.974  12.377
97352W        W61285  42.506  12.258   4.773
97353W        W61286   8.388  33.490  13.965
97354W        W61287  27.464  42.791  14.779
97355W        W61288   2.872   6.809  12.392
97356W        W61289   9.647  39.956   4.193
97357W        W61290  34.011   4.937  14.943
97358W        W61291  32.501   5.240   2.882
97359W        W61292  19.739  27.459  14.872
97360W        W61293  41.884  17.235   4.231
97361W        W61294   2.889  27.002  14.828
97362W        W61295  19.080  35.035  11.962
97363W        W61296  26.194  21.534   2.883
97364W        W61297   9.153  12.630  13.478
97365W        W61298  27.542   9.391   4.162
97366W        W61299  39.035   5.835   2.765
97367W        W61300   4.424   3.383   5.238
97368W        W61301  16.192  11.749   1.928
97369W        W61302  13.642  11.208  13.309
97370W        W61303   4.354   1.760  12.930
97371W        W61304  16.805  39.820   1.263
97372W        W61305  42.432  38.389   2.869
97373W        W61306  22.555  31.145   0.897
97374W        W61307  10.745  17.246  13.858
97375W        W61308  21.178  35.030  12.882
97376W        W61309  26.514  34.011  12.382
97377W        W61310   1.281  18.618   0.749
97378W        W61311  28.445  19.199   3.790
97379W        W61312  28.675  28.466  14.416
97380W        W61313  23.689  21.050   3.206
97381W        W61314  28.943  25.606  11.008
97382W        W61315  21.187  33.951  10.459
97383W        W61316  26.598  34.092  11.931
97384W        W61317  15.690  25.973   3.221
97385W        W61318  37.074  38.963  10.530
97386W        W61319  25.580  20.031  12.423
97387W        W61320  40.987  13.703  13.956
97388W        W61321  14.603   7.850   3.762
97389W        W61322  44.271   8.382   3.268
97390W        W61323  31.405  42.405  12.555
97391W        W61324  35.888   3.848   1.927
97392W        W61325  30.638  27.098  12.987
97393W        W61326  38.933  40.429   5.093
97394W        W61327  16.605  12.629  13.469
97395W        W61328  34.872  43.445   4.344
97396W        W61329  38.944  35.910  10.410
97397W        W61330  39.377  12.335  11.120
97398W        W61331  15.244  38.414   9.602
97399W        W61332   6.735  26.585   5.709
97400W        W61333  37.533   3.231  14.331
97401W        W61334   0.437   7.831  13.062
97402W        W61335  37.830  34.890  11.888
97403W        W61336  14.659  35.520   1.726
97404W        W61337  30.977  33.555  10.936
97405W        W61338   7.702   3.831  12.042
97406W        W61339  28.582   3.782   4.638
97407W        W61340   2.886   7.712   4.345
97408W        W61341  43.282   6.383  10.095
97409W        W61342  34.402  21.183  10.544
97410W        W61343  28.035  38.475  12.540
97411W        W61344  25.000  24.201  11.996
97412W        W61345  15.702  37.422   4.328
97413W        W61346  35.523   3.271  10.441
97414W        W61347   7.696  40.953   2.247
97415W        W61348  12.185  17.619  12.953
97416W        W61349   1.829   4.745   3.846
97417W        W61350  33.989  31.943   3.674
97418W        W61351  13.734  30.059   1.390
97419W        W61352  44.941  22.032  14.421
97420W        W61353  33.618  33.416   3.843
97421W        W61354  32.964   5.345  12.070
97422W        W61355   4.383   2.797   1.326
97423W        W61356  32.424  16.733   4.225
97424W        W61357  29.543  11.296  10.626
97425W        W61358  15.599   6.814  11.563
97426W        W61359  29.445   0.305   4.185
97427W        W61360  12.335  37.902   4.322
97428W        W61361  14.834   9.271  14.929
97429W        W61362  18.190   0.338  14.006
97430W        W61363  10.853   8.223  14.822
97431W        W61364  35.894   0.314   2.795
97432W        W61365  39.864  43.380  13.912
97433W        W61366  21.727  35.577   4.771
97434W        W61367   3.217  11.679  13.414
97435W        W61368  40.545  26.101  13.531
97436W        W61369  39.023  44.416   0.342
97437W        W61370  23.511  12.206  11.503
97438W        W61371  35.024  37.018  13.837
97439W        W61372  20.248  42.327  11.960
97440W        W61373  28.161  31.966   0.342
97441W        W61374  27.619   7.882  13.000
97442W        W61375  43.453   5.778  13.422
97443W        W61376   5.432  42.976  11.054
97444W        W61377  31.424  36.095   0.452
97445W        W61378  39.483  41.449   2.771
97446W        W61379  44.401  24.602  13.424
97447W        W61380  40.415  15.684   0.793
97448W        W61381   7.209  34.085   2.697
97449W        W61382   9.785  35.861  13.443
97450W        W61383  17.790   9.794   0.358
97451W        W61384  33.132  33.950   4.347
97452W        W61385  12.619  14.191   1.838
97453W        W61386   0.429  20.603   3.834
97454W        W61387   0.912  30.986  14.839
97455W        W61388   7.283  39.530  10.575
97456W        W61389  26.512  39.894  11.904
97457W        W61390  18.140  40.030  12.413
97458W        W61391  31.564  14.785  12.544
97459W        W61392  33.576  12.254  11.040
97460W        W61393  20.132  17.139  14.503
97461W        W61394  33.557  28.483   2.768
97462W        W61395  18.689  38.019   5.209
97463W        W61396   7.362   2.472   1.799
97464W        W61397  20.581   7.273   0.245
97465W        W61398  30.537  28.169   4.633
97466W        W61399   9.818  27.623   0.272
97467W        W61400  17.561  35.107  12.928
97468W        W61401   6.328  31.608   2.893
97469W        W61402  32.961  37.983  13.357
97470W        W61403  19.215   7.343  13.419
97471W        W61404  11.301  20.065   0.356
97472W        W61405  43.491   6.309  11.534
97473W        W61406  35.072  12.800   3.729
97474W        W61407  15.326   9.361  10.136
97475W        W61408  10.846  39.924   0.809
97476W        W61409  31.644  28.590  11.520
97477W        W61410  25.670   5.745  13.039
97478W        W61411  27.055  23.097  14.934
97479W        W61412  10.700  40.863  13.388
97480W        W61413  39.418   8.175   3.276
97481W        W61414  11.811   3.885  14.914
97482W        W61415  43.870  20.693  12.544
97483W        W61416   2.302  22.520  12.860
97484W        W61417  18.605  14.109   5.238
97485W        W61418  10.730  16.653   3.168
97486W        W61419   6.355   5.720  14.914
97487W        W61420  34.461  40.843   2.880
97488W        W61421   4.705  35.603  12.016
97489W        W61422  21.179  42.922  11.928
97490W        W61423  44.919  38.852  10.133
97491W        W61424  20.722  18.249  11.486
97492W        W61425   0.304  29.170  11.428
97493W        W61426  44.875  17.285   2.673
97494W        W61427  25.567  16.727  14.786
97495W        W61428   7.209   3.782   2.767
97496W        W61429  27.516  21.217   3.809
97497W        W61430  16.285  39.483  13.380
97498W        W61431  16.135   4.300  12.369
97499W        W61432  34.444  39.500  11.010
97500W        W61433  31.996  14.305  12.430
97501W        W61434  17.121  34.062  11.971
97502W        W61435   4.937  22.163  13.943
97503W        W61436  35.865  15.752  11.443
97504W        W61437  23.526  26.028  13.418
97505W        W61438   5.774  27.610  13.967
97506W        W61439  15.233   6.787  14.428
97507W        W61440  32.032  39.345  13.442
97508W        W61441  26.048   0.423  11.008
97509W        W61442  30.574  25.969   2.253
97510W        W61443  26.531   4.793  14.774
97511W        W61444  23.156  22.743   3.667
97512W        W61445  26.057   8.200  11.043
97513W        W61446  13.687   6.777   2.749
97514W        W61447  44.981  29.999   1.227
97515W        W61448  11.230  14.224   1.410
97516W        W61449  18.658   0.421  13.819
97517W        W61450   7.389  30.108  13.475
97518W        W61451   9.337  14.263  11.427
97519W        W61452  19.046  26.153   5.087
97520W        W61453  19.244  29.584  11.881
97521W        W61454  43.394  14.748  12.831
97522W        W61455   1.398  30.594  11.949
97523W        W61456   7.308   1.777  13.978
97524W        W61457  33.903  34.382  13.985
97525W        W61458  17.298  40.999   3.216
97526W        W61459   8.240  15.799  10.587
97527W        W61460  28.158  11.800   4.200
97528W        W61461  12.713  43.914   0.834
97529W        W61462  35.512  24.634  12.023
97530W        W61463  26.998  10.154   4.317
97531W        W61464   0.464  24.688  11.507
97532W        W61465  19.548  13.695   2.826
97533W        W61466  41.942  23.006   3.311
97534W        W61467  36.491  18.171  10.004
97535W        W61468   9.344  26.984  10.627
97536W        W61469  23.687   0.351  12.392
97537W        W61470  15.150  31.422   2.832
97538W        W61471  34.058   4.315   4.658
97539W        W61472  37.453   7.334   2.262
97540W        W61473  10.380  14.669   5.209
97541W        W61474   6.390  36.053  14.002
97542W        W61475  40.378  40.829  14.984
97543W        W61476  16.193  17.659   4.248
97544W        W61477  44.287  42.308   2.303
97545W        W61478  16.242  29.050  13.359
97546W        W61479  17.117   0.283  12.866
97547W        W61480  28.557  41.943  11.084
97548W        W61481  10.260  41.970   2.237
97549W        W61482  36.924  39.000   0.389
97550W        W61483  15.657  16.623   3.163
97551W        W61484  12.294  39.334   1.282
97552W        W61485  42.349  17.659   1.711
97553W        W61486  33.483  24.630  14.511
97554W        W61487  30.535  32.485  13.493
97555W        W61488  32.974  40.886  11.476
97556W        W61489  41.538  27.561  14.870
97557W        W61490  15.243  14.222   1.222
97558W        W61491  18.563  13.119   3.189
97559W        W61492  26.584   5.310   3.771
97560W        W61493  17.622  20.737   2.220
97561W        W61494   3.879  18.610   0.386
97562W        W61495  35.899  12.287   4.631
97563W        W61496  24.675  41.852   1.890
97564W        W61497   2.295  23.558   4.825
97565W        W61498  25.560  32.037  10.133
97566W        W61499  35.577  12.773   3.341
97567W        W61500  33.387  33.388  10.545
97568W        W61501   0.309  44.422  11.092
97569W        W61502  31.124   4.782   2.215
97570W        W61503  34.019  32.933   0.312
97571W        W61504  25.082  43.944  12.375
97572W        W61505  16.620  38.022   1.270
97573W        W61506   1.966  24.190   2.211
97574W        W61507  27.987   1.307   0.298
97575W        W61508  29.152  33.527  13.541
97576W        W61509   5.313  21.140  13.482
97577W        W61510  36.521  41.904  14.901
97578W        W61511  34.087  41.522   2.224
97579W        W61512  15.329  39.535   5.249
97580W        W61513  39.833  44.290   3.761
97581W        W61514  17.673  32.137   2.783
97582W        W61515  40.460  19.280  11.889
97583W        W61516  12.217  42.471   1.252
97584W        W61517  16.628  41.926  11.071
97585W        W61518  37.432  22.507  13.509
97586W        W61519  18.113  31.125   2.330
97587W        W61520  32.614   3.767  14.318
97588W        W61521  20.732  32.609  13.542
97589W        W61522  30.101  15.286   1.800
97590W        W61523   8.656  23.635   2.182
97591W        W61524  36.367  25.028   4.627
97592W        W61525  30.554  26.150  11.888
97593W        W61526  44.912  14.149   4.725
97594W        W61527  17.279  18.684   2.859
97595W        W61528   0.766  22.209   2.817
97596W        W61529   7.711  41.376  11.545
97597W        W61530  38.548   3.422   0.849
97598W        W61531   3.843  39.515   1.302
97599W        W61532  38.506  12.343   2.199
97600W        W61533  27.687  24.992  13.836
97601W        W61534  10.302  38.912  13.421
97602W        W61535   2.901  41.381  10.918
97603W        W61536  32.443   7.736  11.965
97604W        W61537  31.003  23.603   1.851
97605W        W61538  23.543  24.096  12.960
97606W        W61539  15.275  33.078   1.405
97607W        W61540  20.692   0.448  10.603
97608W        W61541   5.877  29.170  14.779
97609W        W61542  30.417  41.900  12.512
97610W        W61543  30.521   5.750  14.938
97611W        W61544  12.338  23.216   2.889
97612W        W61545  14.216  32.461   1.702
97613W        W61546  39.040  15.294   0.465
97614W        W61547  17.075   0.839  12.486
97615W        W61548   3.318  14.737   2.413
97616W        W61549  20.163  37.916   1.916
97617W        W61550  35.951  37.975  10.500
97618W        W61551  10.291  28.467  10.645
97619W        W61552  32.073  22.078   3.235
97620W        W61553  14.705  41.835   2.882
97621W        W61554  11.285  31.092   3.793
97622W        W61555  14.219  30.026  11.549
97623W        W61556  20.169  40.922  14.786
97624W        W61557  10.331   7.200   1.713
97625W        W61558   9.800  41.033   1.739
97626W        W61559  12.328  40.418   2.277
97627W        W61560  43.864  21.181  14.431
97628W        W61561  44.834  16.641   1.834
97629W        W61562   3.311  16.252  12.377
97630W        W61563  27.540  10.194   0.338
97631W        W61564  20.154  16.707  12.475
97632W        W61565  28.562  19.657  14.952
97633W        W61566  21.711  41.914   2.836
97634W        W61567  35.490  14.145   1.336
97635W        W61568  20.110  27.609  12.461
97636W        W61569  15.214  23.690  14.999
97637W        W61570  29.012  17.602   3.631
97638W        W61571  26.076  20.084  12.559
97639W        W61572  25.492   7.393   5.171
97640W        W61573  44.339  15.608   2.833
97641W        W61574  36.997  32.560  12.986
97642W        W61575   4.915  14.773  14.836
97643W        W61576  40.415   5.901   2.396
97644W        W61577  23.547  23.053   0.249
97645W        W61578  44.000  20.662   4.628
97646W        W61579  41.397  32.623  12.841
97647W        W61580   3.864  39.999  10.461
97648W        W61581   8.664   3.453  10.118
97649W        W61582  22.240  14.797   4.207
97650W        W61583  36.416  33.592  11.928
97651W        W61584  13.190   8.387  12.062
97652W        W61585  39.357   2.899   1.779
97653W        W61586  22.643  29.981   2.327
97654W        W61587  17.180  10.824   1.311
97655W        W61588   1.817  39.911  11.972
97656W        W61589  14.685  32.577  13.366
97657W        W61590  18.702  24.603   1.303
97658W        W61591   7.805  11.753   1.916
97659W        W61592  22.692  26.506  10.410
97660W        W61593  15.636  39.002  10.950
97661W        W61594  24.003  12.853  11.420
97662W        W61595  21.730  29.512  10.158
97663W        W61596   7.720  25.024   3.634
97664W        W61597  40.893  19.658  14.878
97665W        W61598  30.982  43.505   2.186
97666W        W61599  39.370  11.710   1.925
97667W        W61600  33.554  42.839  12.439
97668W        W61601  13.215  42.391  13.377
97669W        W61602  36.386  34.995   2.367
97670W        W61603  20.666  32.094  10.644
97671W        W61604   8.398  37.992   1.324
97672W        W61605  34.600  42.469   2.302
97673W        W61606  28.547  25.569   3.227
97674W        W61607  11.149  35.592  13.471
97675W        W61608   6.318   1.756   9.561
97676W        W61609  23.000   5.907  10.405
97677W        W61610  24.610  35.905  11.109
97678W        W61611  42.434   3.354  10.913
97679W        W61612  32.497   1.892  12.068
97680W        W61613  25.085  35.014  11.574
97681W        W61614  13.302  23.632  13.791
97682W        W61615  24.494   3.266   0.907
97683W        W61616   4.351  13.782  13.987
97684W        W61617  15.702  18.253   2.848
97685W        W61618  39.962   7.393  13.404
97686W        W61619  13.706  15.308   3.849
97687W        W61620  35.410  24.487   1.703
97688W        W61621  29.033  31.950  10.929
97689W        W61622   1.790   0.799  13.380
97690W        W61623  30.616  26.187  11.441
97691W        W61624   6.677  11.651   4.340
97692W        W61625  36.556  13.750  13.921
97693W        W61626  41.443  40.942   4.303
97694W        W61627  38.396  43.336   0.768
97695W        W61628   8.671  33.887   4.644
97696W        W61629  20.069  28.144   1.701
97697W        W61630   0.405  33.428  12.351
97698W        W61631  25.656  24.074  13.468
97699W        W61632   7.788  36.504  12.980
97700W        W61633   9.332   3.303   1.793
97701W        W61634  37.513  11.748  14.003
97702W        W61635   7.235  23.133   4.729
97703W        W61636  19.114  19.086   1.839
97704W        W61637  44.806  19.611  13.406
97705W        W61638  20.567   9.753  11.987
97706W        W61639  38.882  31.471  11.466
97707W        W61640  32.601  39.410   3.829
97708W        W61641  30.157  37.856  14.423
97709W        W61642  13.119  26.628  11.410
97710W        W61643  40.351  13.220   0.366
97711W        W61644  13.252  16.595   1.792
97712W        W61645  34.519   4.848   1.785
97713W        W61646  15.790   3.432   3.348
97714W        W61647  12.220  33.883   4.190
97715W        W61648  30.939  28.099   3.671
97716W        W61649   5.767   7.901  12.380
97717W        W61650   2.872  20.166   3.305
97718W        W61651  13.247   3.845  13.902
97719W        W61652  36.577  37.449   1.275
97720W        W61653   3.751  10.692  12.460
97721W        W61654  15.265  11.348  13.489
97722W        W61655   5.438  12.304   0.834
97723W        W61656  33.456  20.174  14.967
97724W        W61657   6.760  23.159  13.867
97725W        W61658  27.013   4.302  12.907
97726W        W61659  33.569  30.519   2.370
97727W        W61660  37.952   0.453   1.891
97728W        W61661  27.586   3.816   1.349
97729W        W61662  34.909   3.940  13.330
97730W        W61663   4.392  12.795   9.613
97731W        W61664  18.611  44.439  12.989
97732W        W61665  10.203   5.228   1.272
97733W        W61666  33.512  22.209   4.324
97734W        W61667   3.333  37.862   0.754
97735W        W61668  39.973   3.384  12.023
97736W        W61669  34.425  16.130  13.316
97737W        W61670  33.555  23.016   1.302
97738W        W61671  24.562  28.521   4.254
97739W        W61672  28.110  14.199  13.017
97740W        W61673  11.207  44.263   4.810
97741W        W61674  23.094   2.253   1.928
97742W        W61675  34.936  15.214  10.409
97743W        W61676  40.934  12.166  12.393
97744W        W61677  42.284  33.604   2.738
97745W        W61678  30.546  16.120  12.960
97746W        W61679  34.929   4.237  13.800
97747W        W61680   4.840  31.470  12.506
97748W        W61681  42.831  26.459  14.961
97749W        W61682   0.843  43.284  12.398
97750W        W61683  30.455  15.670  11.945
97751W        W61684  21.060  33.575   0.440
97752W        W61685  41.478  12.252   1.301
97753W        W61686  35.573   5.217  13.437
97754W        W61687  40.394   2.405  12.069
97755W        W61688  22.514  17.559   4.693
97756W        W61689  44.420  19.697   0.729
97757W        W61690  26.145  10.791   0.390
97758W        W61691   6.791  13.200   4.279
97759W        W61692   1.932   9.232  14.471
97760W        W61693  18.098  12.671  13.966
97761W        W61694  27.471  36.962   2.749
97762W        W61695  25.213  20.682  10.485
97763W        W61696   4.749   2.447  13.898
97764W        W61697  30.418  35.032   4.352
97765W        W61698   1.408  12.187   2.191
97766W        W61699  35.886  17.296   5.303
97767W        W61700  21.230  20.608  14.840
97768W        W61701  37.006  23.685   4.129
97769W        W61702  22.241  31.566  12.830
97770W        W61703  44.928   3.344  12.400
97771W        W61704  44.792  36.060  13.410
97772W        W61705   5.897  22.549   3.278
97773W        W61706   3.349  31.404   2.367
97774W        W61707  14.197  17.761  11.418
97775W        W61708  36.350  10.769  12.410
97776W        W61709  36.382   5.915  12.477
97777W        W61710  13.305  33.521  14.935
97778W        W61711  16.762  17.242   2.294
97779W        W61712  12.252  15.121   0.421
97780W        W61713  22.719  37.337   2.200
97781W        W61714   3.295  13.125   2.282
97782W        W61715   3.300   3.368  10.109
97783W        W61716  30.568  32.557   0.294
97784W        W61717  41.379  39.414   0.451
97785W        W61718  34.401  44.294   3.294
97786W        W61719   0.873   5.783  10.643
97787W        W61720  19.272   3.358  11.585
97788W        W61721  29.612  40.897  10.623
97789W        W61722  37.866  28.649   1.342
97790W        W61723  14.181  41.346  13.310
97791W        W61724  17.256  21.710  12.476
97792W        W61725  41.339  17.599   0.735
97793W        W61726  11.285  24.558  11.611
97794W        W61727  16.084  35.946  11.965
97795W        W61728   9.814  24.664   3.666
97796W        W61729  32.989   1.438  13.999
97797W        W61730  19.752  22.533  11.612
97798W        W61731   7.205  32.537   2.803
97799W        W61732  25.008  42.953   1.803
97800W        W61733  38.353  10.212   0.762
97801W        W61734   5.202  21.177   1.817
97802W        W61735  20.647  25.217   0.893
97803W        W61736  33.920  28.482   1.332
97804W        W61737  33.913  32.959  14.800
97805W        W61738  21.156  35.109  14.381
97806W        W61739   7.711   9.279  12.053
97807W        W61740  14.225  29.585  13.324
97808W        W61741  44.836  35.426  14.961
97809W        W61742   5.340  34.485   3.754
97810W        W61743  19.057  34.372  12.473
97811W        W61744  37.984  18.094   5.230
97812W        W61745  40.949  17.641   4.666
97813W        W61746  32.589  31.025   0.884
97814W        W61747  25.490  33.968  10.909
97815W        W61748   4.789  38.413   0.747
97816W        W61749  25.968  33.593  10.978
97817W        W61750  31.080  36.937   2.230
97818W        W61751   8.795  30.112   3.711
97819W        W61752  16.195  34.905   4.143
97820W        W61753  22.586  22.669  13.522
97821W        W61754  44.392  32.451  12.923
97822W        W61755  24.588  29.964  13.949
97823W        W61756   9.806  25.003   4.686
97824W        W61757  34.930  29.573   0.863
97825W        W61758  37.372  17.244  14.372
97826W        W61759   9.158  20.175   2.254
97827W        W61760  44.283  22.049  10.559
97828W        W61761  37.413  37.345  11.102
97829W        W61762   2.413  36.563  11.987
97830W        W61763  30.134  23.581  14.888
97831W        W61764  35.856   0.479   0.472
97832W        W61765  17.207  39.381  14.851
97833W        W61766  24.183  24.064  12.933
97834W        W61767  27.577  42.345   2.319
97835W        W61768  41.497  15.180  12.841
97836W        W61769  25.121  29.016   4.683
97837W        W61770   5.328  16.588   2.337
97838W        W61771  37.085  30.573  13.981
97839W        W61772   0.782  36.353   1.330
97840W        W61773  28.527  27.458   2.260
97841W        W61774  14.247  39.956  14.301
97842W        W61775  35.071   5.805   1.916
97843W        W61776  13.270  28.532   1.304
97844W        W61777  32.046   8.827  12.431
97845W        W61778  29.571  39.557   3.768
97846W        W61779  10.840  26.069   2.718
97847W        W61780  11.793  32.930   3.747
97848W        W61781  35.601  30.950  13.449
97849W        W61782  12.847  32.993  11.490
97850W        W61783  34.377  29.037  14.354
97851W        W61784   4.252  19.157  12.554
97852W        W61785   9.161  30.585  12.899
97853W        W61786  30.917  10.263   4.716
97854W        W61787  15.680  29.126  14.448
97855W        W61788  17.744  22.027   2.209
97856W        W61789   2.852  38.072   4.265
97857W        W61790  25.070  31.578   3.198
97858W        W61791  34.560  29.130  13.931
97859W        W61792  38.900  20.612   0.450
97860W        W61793   4.767  35.477  10.038
97861W        W61794  35.078   9.653  13.440
97862W        W61795  41.338   3.257  13.514
97863W        W61796  35.020  25.987  10.941
97864W        W61797  23.001  28.457  14.429
97865W        W61798  25.054  30.497   4.697
97866W        W61799  16.807   2.442   4.670
97867W        W61800  41.498  40.315   1.771
97868W        W61801  15.608  39.875  13.008
97869W        W61802   3.258  25.650   3.282
97870W        W61803  26.621   0.280  10.447
97871W        W61804   3.918  18.789  10.468
97872W        W61805   9.183  28.671   1.891
97873W        W61806  14.726  30.569   5.082
97874W        W61807  41.306   6.876  13.466
97875W        W61808  12.707  30.518  11.077
97876W        W61809  43.841  12.742  10.632
97877W        W61810  24.002  43.927   2.310
97878W        W61811  18.579  22.110  11.536
97879W        W61812   2.896  11.152  11.062
97880W        W61813  11.780  32.565  12.986
97881W        W61814   9.299   7.175  13.345
97882W        W61815  42.931  32.481   4.618
97883W        W61816  42.455  27.021  13.962
97884W        W61817   9.252  43.308  14.338
97885W        W61818   6.200  17.094  11.420
97886W        W61819  44.468   2.308   3.821
97887W        W61820  41.867  16.631  12.575
97888W        W61821  31.565  10.360   1.869
97889W        W61822  22.546  24.654  12.421
97890W        W61823  24.020  40.476  11.946
97891W        W61824  17.133  18.055   2.820
97892W        W61825  24.488   8.888   9.585
97893W        W61826   4.699  38.447   2.883
97894W        W61827   8.284  30.474   3.161
97895W        W61828  11.689  21.207   4.774
97896W        W61829  39.535  20.665   1.868
97897W        W61830  20.570  18.143   4.638
97898W        W61831   9.816   8.685   1.451
97899W        W61832  12.733   2.868  13.051
97900W        W61833   8.901  30.455  10.547
97901W        W61834  13.195  25.702   3.257
97902W        W61835  19.177  32.924  13.474
97903W        W61836  14.816  32.060  13.357
97904W        W61837  22.164  25.008   0.460
97905W        W61838   8.835  20.247   4.674
97906W        W61839  38.445  20.085  12.015
97907W        W61840  38.400  12.161  12.053
97908W        W61841  10.256  43.378  14.819
97909W        W61842   4.732   5.257  11.982
97910W        W61843   5.192  21.038  12.900
97911W        W61844  15.768  32.024  12.870
97912W        W61845  28.068  39.818  12.373
97913W        W61846  20.657  41.494   0.416
97914W        W61847  18.066  14.313   3.376
97915W        W61848  14.683  29.526  13.956
97916W        W61849  16.800   3.433  13.810
97917W        W61850  18.656  13.657  11.072
97918W        W61851   1.753  28.476   3.784
97919W        W61852  36.388   6.237   4.178
97920W        W61853  23.618   8.804  14.777
97921W        W61854  23.094  23.715   1.814
97922W        W61855  40.499  30.504   2.735
97923W        W61856   0.484  31.140   3.384
97924W        W61857  28.656   4.851   4.205
97925W        W61858  18.625  29.156   3.764
97926W        W61859   2.827  22.129   3.864
97927W        W61860  34.073  26.124  11.962
97928W        W61861  38.543  17.244  14.474
97929W        W61862  30.493  33.101   0.755
97930W        W61863  24.168  33.589   3.366
97931W        W61864  43.858  11.250  10.955
97932W        W61865  25.671  40.967  14.863
97933W        W61866  34.021  11.788  12.421
97934W        W61867  39.975  29.593   2.688
97935W        W61868  11.139  14.125   4.269
97936W        W61869   3.747  35.529  12.916
97937W        W61870  20.208  42.897   2.789
97938W        W61871  33.901  15.130   2.262
97939W        W61872  42.862  40.860   0.392
97940W        W61873   9.380   1.250  13.036
97941W        W61874   6.236  21.111  13.500
97942W        W61875  10.283   6.732   1.842
97943W        W61876  18.167  35.994  13.322
97944W        W61877   5.713  25.481  13.510
97945W        W61878  19.592  10.199   4.656
97946W        W61879   0.902   9.333  11.565
97947W        W61880  33.885  44.888   0.482
97948W        W61881  44.377  32.925  13.880
97949W        W61882  25.688  23.121  14.970
97950W        W61883  11.246  21.555  14.492
97951W        W61884  32.125  28.135   1.319
97952W        W61885   6.785  19.063  13.026
97953W        W61886  23.524  14.698   4.233
97954W        W61887  32.024  25.679  13.897
97955W        W61888  15.289   1.255  14.913
97956W        W61889  14.691  34.410   4.328
97957W        W61890  40.825  45.000  11.030
97958W        W61891  41.038  22.143   2.673
97959W        W61892  11.204  28.177   0.884
97960W        W61893  32.069  12.793  12.878
97961W        W61894  17.209  10.684   3.385
97962W        W61895  32.084  41.531   1.230
97963W        W61896  39.355  32.991  14.831
97964W        W61897  19.124  17.628  10.944
97965W        W61898  44.000  41.007  13.459
97966W        W61899  12.352  23.700  12.867
97967W        W61900  17.730  14.137  11.532
97968W        W61901  12.719  20.050   3.167
97969W        W61902  34.001  18.690   2.337
97970W        W61903   0.250   4.942  13.050
97971W        W61904  38.370   2.279  10.983
97972W        W61905  41.984  17.740  14.389
97973W        W61906  31.899   8.298   2.392
97974W        W61907  14.323  40.914   3.860
97975W        W61908  41.481  34.374  12.974
97976W        W61909  13.707  43.828  10.964
97977W        W61910  17.774   5.696   2.739
97978W        W61911  15.210  43.375   4.247
97979W        W61912   3.790  20.240   3.222
97980W        W61913   8.193   5.432  13.833
97981W        W61914  19.182  10.637  13.350
97982W        W61915   9.824  17.205   2.883
97983W        W61916  28.034  15.180  13.013
97984W        W61917   5.282  13.765  11.551
97985W        W61918  27.134  33.026   3.313
97986W        W61919  39.351  22.703  12.493
97987W        W61920  27.526   1.338   4.323
97988W        W61921   3.281  11.219   0.954
97989W        W61922  22.240  19.065   3.783
97990W        W61923  22.692  14.325  12.862
97991W        W61924   3.418  33.082   3.711
97992W        W61925  36.936  18.182   0.931
97993W        W61926  14.188   8.899   3.238
97994W        W61927  34.087  43.999   2.349
97995W        W61928   5.392  10.633  10.601
97996W        W61929  38.039  28.955   5.142
97997W        W61930  34.098  30.011   0.864
97998W        W61931  19.044  18.784   5.221
97999W        W61932   1.855  27.173   3.379
98000W        W61933  33.543  34.535   9.975
98001W        W61934   4.885  31.631   2.704
98002W        W61935  15.676  21.174   3.805
98003W        W61936   1.461   0.302  14.817
98004W        W61937  44.284  27.589  14.998
98005W        W61938  28.567  15.119  14.804
98006W        W61939  11.726  41.503  14.347
98007W        W61940  15.719  15.160   4.290
98008W        W61941   2.771  14.323   0.319
98009W        W61942   3.235  11.663  11.476
98010W        W61943  12.123  30.158   1.308
98011W        W61944  14.685  14.329   1.280
98012W        W61945  21.681  33.386   0.730
98013W        W61946  24.547  17.639  11.418
98014W        W61947  38.900  28.995   0.893
98015W        W61948  17.652  19.606   9.505
98016W        W61949   7.241   0.358  13.945
98017W        W61950  24.692  31.957  10.891
98018W        W61951  32.943   3.354  11.471
98019W        W61952  29.950   1.940   3.746
98020W        W61953   3.298  10.234   2.332
98021W        W61954  31.525  29.062   1.286
98022W        W61955   5.419  32.626   3.372
98023W        W61956   5.242   7.909  11.087
98024W        W61957   4.879   9.298   4.741
98025W        W61958  12.175   8.858   0.792
98026W        W61959   3.403  22.148  13.359
98027W        W61960   7.331  29.111  12.469
98028W        W61961  24.621  16.775   1.891
98029W        W61962   7.803  36.465   2.824
98030W        W61963  42.952  36.556   1.841
98031W        W61964  33.025  16.776  12.538
98032W        W61965  12.746  15.312  11.980
98033W        W61966  40.804  42.936  10.429
98034W        W61967  40.315   8.806  10.622
98035W        W61968  35.381  15.256   3.658
98036W        W61969  12.134  16.678   3.779
98037W        W61970  28.178  44.426  11.467
98038W        W61971  21.741  33.436  14.381
98039W        W61972  25.486  26.470  12.486
98040W        W61973  12.225  43.846   1.737
98041W        W61974   1.346  35.430   2.882
98042W        W61975   1.326  23.164   1.924
98043W        W61976  38.452   5.804   4.778
98044W        W61977  20.659   6.374   0.937
98045W        W61978  36.529  25.685   2.382
98046W        W61979   8.754  28.574  10.957
98047W        W61980  12.171   3.285   0.814
98048W        W61981  39.981  44.995   0.749
98049W        W61982  33.938  38.554  14.307
98050W        W61983  39.323  26.603   4.193
98051W        W61984  15.297  34.990  13.385
98052W        W61985  18.754  41.339  11.944
98053W        W61986  34.550  29.038  14.773
98054W        W61987  39.905  28.147  14.001
98055W        W61988  11.664   8.661   2.396
98056W        W61989  15.822   9.849  14.429
98057W        W61990   1.337   9.211   4.214
98058W        W61991  35.947   6.354   2.862
98059W        W61992  23.217  43.779   4.353
98060W        W61993  14.212  38.447  14.785
98061W        W61994  36.425  44.772  12.525
98062W        W61995  13.602   1.353  14.975
98063W        W61996  10.299  34.613   1.354
98064W        W61997   5.360  20.716   3.347
98065W        W61998  15.698  18.151  11.531
98066W        W61999  20.166  37.002  12.408
98067W        W62000  36.065  10.140   1.852
98068W        W62001  12.181  11.130  11.385
98069W        W62002   2.320  43.786   3.247
98070W        W62003  24.650   5.805   1.442
98071W        W62004   5.741  18.201   3.863
98072W        W62005   4.902   6.868  11.086
98073W        W62006   0.494  38.982   4.682
98074W        W62007  27.050   9.184   2.811
98075W        W62008  33.099  40.811   1.387
98076W        W62009  17.083  37.485  14.949
98077W        W62010  28.528   9.799   0.404
98078W        W62011  27.087  26.672  13.484
98079W        W62012  30.044   1.929  12.889
98080W        W62013   4.864   1.888   3.805
98081W        W62014   1.351  25.207  12.565
98082W        W62015  37.550  37.915  13.371
98083W        W62016  25.049  30.963  12.515
98084W        W62017  39.895  20.209   4.631
98085W        W62018   6.284  15.152  13.839
98086W        W62019  37.963  17.196   1.804
98087W        W62020   2.325  30.569   0.376
98088W        W62021  37.858   8.186  14.012
98089W        W62022  19.186   6.221   1.322
98090W        W62023   5.413   6.412   1.801
98091W        W62024  36.848  18.672   4.644
98092W        W62025  16.155  42.367  14.300
98093W        W62026  27.979  35.484   1.281
98094W        W62027  37.042  33.605   1.230
98095W        W62028  29.935   8.187  14.858
98096W        W62029   0.263  43.768   1.299
98097W        W62030  37.987  41.528   1.378
98098W        W62031  42.799  39.056   5.574
98099W        W62032  19.626  38.571  10.517
98100W        W62033  15.586  31.584   4.781
98101W        W62034  22.672  29.536  12.371
98102W        W62035  13.348  36.968   2.884
98103W        W62036  24.514  32.518   2.382
98104W        W62037  21.656  10.166  12.840
98105W        W62038   4.726   0.875   0.377
98106W        W62039  43.401   3.744  10.569
98107W        W62040  25.654  25.005   5.172
98108W        W62041  17.589  21.097  14.952
98109W        W62042  40.364  41.969   1.750
98110W        W62043  42.482  31.531   2.364
98111W        W62044   6.309  40.804   1.739
98112W        W62045   8.259  16.284  13.967
98113W        W62046  28.642  17.753  13.847
98114W        W62047  43.940  24.502  12.424
98115W        W62048   6.326  24.075   1.248
98116W        W62049  40.871  28.579  14.516
98117W        W62050  34.098  24.653   2.868
98118W        W62051  23.716  15.249  11.494
98119W        W62052  16.138  31.907  14.873
98120W        W62053  23.985  28.538   0.904
98121W        W62054  36.880  14.649  13.893
98122W        W62055  24.081  28.444  13.443
98123W        W62056  22.687  18.786   1.841
98124W        W62057  42.983   9.185   2.784
98125W        W62058  14.741  17.755  14.005
98126W        W62059  22.528  23.115   4.274
98127W        W62060   7.684  25.557  12.073
98128W        W62061   7.216   2.765   1.825
98129W        W62062  37.486  38.398  10.586
98130W        W62063   4.377  15.763  10.542
98131W        W62064   9.783  28.944   3.663
98132W        W62065  21.044   9.280  12.348
98133W        W62066  26.068  12.667   4.152
98134W        W62067  35.895  39.876   3.852
98135W        W62068  29.651   1.893   9.969
98136W        W62069  38.071   8.297   4.168
98137W        W62070   5.337  37.365  10.506
98138W        W62071  29.599  15.816  11.055
98139W        W62072  31.919  35.461   2.895
98140W        W62073  43.854   3.909  11.408
98141W        W62074  19.109  28.126   2.678
98142W        W62075  11.643   8.700  11.080
98143W        W62076  19.619  17.216  14.928
98144W        W62077   4.449  36.513  12.920
98145W        W62078  18.230  11.700   1.768
98146W        W62079  32.410   9.717   3.261
98147W        W62080  14.276  37.005   0.840
98148W        W62081  40.006  28.023  14.974
98149W        W62082   3.442  29.141   1.822
98150W        W62083  25.154  10.686   2.843
98151W        W62084  26.166   8.818   0.816
98152W        W62085  36.975  43.433  10.919
98153W        W62086  10.285  31.021  11.465
98154W        W62087  41.957  14.725  13.006
98155W        W62088  37.337  14.734  12.448
98156W        W62089  24.620   8.265  10.477
98157W        W62090  11.778  34.974  14.501
98158W        W62091  44.783  19.752  10.916
98159W        W62092  27.971  24.636  11.383
98160W        W62093  14.709  33.918  14.455
98161W        W62094   5.839   9.803  14.438
98162W        W62095  32.421  20.719  11.122
98163W        W62096   8.308  27.537  10.573
98164W        W62097  18.247  10.785   0.424
98165W        W62098  34.945  28.161  11.606
98166W        W62099   7.843  37.567   5.158
98167W        W62100  41.316   3.279   0.748
98168W        W62101  13.799  34.090  13.336
98169W        W62102  32.021   9.710  14.927
98170W        W62103  19.643   1.769  13.801
98171W        W62104   5.423  21.218   1.349
98172W        W62105  34.446  29.519  12.089
98173W        W62106  43.285  28.986   3.336
98174W        W62107  15.649  13.169   0.246
98175W        W62108  17.250  21.659   2.679
98176W        W62109  12.639   3.735   3.744
98177W        W62110  23.553  31.476  11.966
98178W        W62111  19.231   3.772  14.436
98179W        W62112   6.254   7.875   1.788
98180W        W62113  21.601  27.076   5.710
98181W        W62114  37.346  19.751  10.941
98182W        W62115  44.334  10.223  10.961
98183W        W62116   3.232   5.287  10.106
98184W        W62117   4.404  15.604  11.003
98185W        W62118  31.974  21.263   2.201
98186W        W62119   0.463  35.509  13.007
98187W        W62120  43.305   7.391   4.152
98188W        W62121  27.051   3.912   3.661
98189W        W62122  30.159   1.440  13.333
98190W        W62123   4.356  30.547  12.527
98191W        W62124   2.251  38.457   4.207
98192W        W62125  15.163   6.417   4.792
98193W        W62126   6.260  37.520   0.441
98194W        W62127  25.063  24.724  11.956
98195W        W62128  12.698  20.669  14.938
98196W        W62129  30.098  40.956  14.852
98197W        W62130  21.251  22.530   5.114
98198W        W62131  32.888   1.355  10.639
98199W        W62132  41.973  20.552  14.946
98200W        W62133  21.097  38.537  12.566
98201W        W62134   5.395  28.663  12.833
98202W        W62135  26.600  31.147   4.322
98203W        W62136  36.924  44.496   3.323
98204W        W62137  15.747  19.767   0.746
98205W        W62138   4.702  43.939   0.852
98206W        W62139  15.735  18.571  13.797
98207W        W62140  21.532  29.619  11.480
98208W        W62141  27.971   3.333   0.873
98209W        W62142  27.469  16.154  13.445
98210W        W62143  21.747  17.207  13.795
98211W        W62144   9.270  34.063   0.401
98212W        W62145  42.924  34.452   1.722
98213W        W62146  40.315  24.480   4.228
98214W        W62147  44.933  41.850   3.271
98215W        W62148   7.838   1.812   4.834
98216W        W62149  19.540  32.441  13.933
98217W        W62150  14.288  12.264   4.741
98218W        W62151  37.010   9.736  13.459
98219W        W62152  12.238   5.312  14.309
98220W        W62153  15.245  17.209   1.408
98221W        W62154   8.345  24.051   1.272
98222W        W62155  32.558   7.807   4.128
98223W        W62156  23.695  44.892   4.671
98224W        W62157   4.245  33.914   2.291
98225W        W62158  36.534  42.336  11.953
98226W        W62159   4.843  30.133   2.403
98227W        W62160  26.180  27.581   4.263
98228W        W62161  40.450  39.324   3.252
98229W        W62162  16.714  42.516  14.453
98230W        W62163  19.063   7.305   0.922
98231W        W62164  43.381  43.300  14.774
98232W        W62165  17.746  20.573  13.308
98233W        W62166  44.910  23.188   2.367
98234W        W62167   9.306  10.725   1.267
98235W        W62168  14.118  22.655  12.532
98236W        W62169  23.578  32.075   1.784
98237W        W62170  18.644  25.037   2.675
98238W        W62171  38.939   9.764  12.913
98239W        W62172  17.108  15.199  14.990
98240W        W62173  33.954  15.818  12.851
98241W        W62174  32.932   9.863  14.364
98242W        W62175  17.065  33.889  14.377
98243W        W62176  15.162  13.116   0.315
98244W        W62177  20.238  35.000  14.945
98245W        W62178  20.173  11.812   4.240
98246W        W62179   8.345  10.316   0.811
98247W        W62180  16.791   1.956  10.552
98248W        W62181  24.143  34.993  13.972
98249W        W62182  42.848  21.221   3.379
98250W        W62183  22.062  13.666  12.462
98251W        W62184  13.212  15.109  10.589
98252W        W62185   1.237  21.577  11.382
98253W        W62186   6.343   6.283   1.758
98254W        W62187   0.822  40.036  11.451
98255W        W62188  24.124  41.791   2.750
98256W        W62189   4.818  25.971  10.624
98257W        W62190  33.456  11.867  13.505
98258W        W62191   2.798  12.777   2.364
98259W        W62192  35.952  20.123   1.415
98260W        W62193  32.500   0.926   1.450
98261W        W62194  18.102   3.301   2.351
98262W        W62195  32.437   0.967  11.552
98263W        W62196  42.012  13.755   2.782
98264W        W62197  23.590  40.510   4.666
98265W        W62198  43.352  10.208   5.164
98266W        W62199  20.046  30.958   0.411
98267W        W62200  20.625  38.525   4.626
98268W        W62201  32.966  33.431  11.105
98269W        W62202  37.435  29.969  13.011
98270W        W62203  41.929  14.681   1.328
98271W        W62204  38.332  33.942  12.825
98272W        W62205  15.694  12.299   1.776
98273W        W62206  18.578  29.137  10.557
98274W        W62207  28.009  12.333  10.528
98275W        W62208  20.732  41.313   2.418
98276W        W62209   6.222  29.449  13.908
98277W        W62210  30.993  10.808  11.489
98278W        W62211  31.513  10.778  12.523
98279W        W62212  27.644  34.863  10.643
98280W        W62213  44.753   6.281   0.360
98281W        W62214  20.640  26.161   1.427
98282W        W62215   1.879  32.445   0.367
98283W        W62216  25.547  40.522   0.824
98284W        W62217  26.694  40.005  12.429
98285W        W62218  22.546   4.231   2.369
98286W        W62219  28.112  43.999  11.467
98287W        W62220  34.592  34.491  13.535
98288W        W62221  32.989  43.511   2.721
98289W        W62222  22.530  29.471   5.274
98290W        W62223   0.792  18.782  10.428
98291W        W62224  36.002  22.700   1.358
98292W        W62225   3.387  26.457   4.675
98293W        W62226  20.591   2.849  10.559
98294W        W62227   2.287  24.203  12.514
98295W        W62228  25.478  25.538  11.532
98296W        W62229  24.172  41.326   2.199
98297W        W62230  22.601  30.510  12.529
98298W        W62231  20.231  39.055  13.800
98299W        W62232  12.675  14.736  12.832
98300W        W62233   2.734  44.381  11.493
98301W        W62234  26.532  42.505   0.892
98302W        W62235  30.645  33.000  14.020
98303W        W62236  32.920  22.624   3.833
98304W        W62237   3.859  36.050  12.454
98305W        W62238   3.893  11.364   4.734
98306W        W62239  29.025  30.477   3.641
98307W        W62240  12.674   7.398  11.591
98308W        W62241  28.105  30.427  14.431
98309W        W62242  44.998  24.539   2.707
98310W        W62243  27.571  28.026   2.188
98311W        W62244  16.718  25.518  12.522
98312W        W62245  16.145  11.252   0.859
98313W        W62246  21.711  27.670  11.580
98314W        W62247   9.272  22.742  14.927
98315W        W62248  40.902  36.437  13.456
98316W        W62249  21.738  26.108   2.816
98317W        W62250  23.499  16.149   1.335
98318W        W62251  36.406  35.462  11.090
98319W        W62252  21.253   4.809  11.503
98320W        W62253  42.486  29.470   2.774
98321W        W62254  40.054  37.984  11.465
98322W        W62255  25.083   4.915  12.364
98323W        W62256  26.624  38.863  10.450
98324W        W62257  18.548  23.224   3.759
98325W        W62258  42.351  39.021   3.373
98326W        W62259  17.622  36.988   4.836
98327W        W62260  44.358  21.586  14.297
98328W        W62261   3.797   4.722   4.696
98329W        W62262  30.615   3.898  14.352
98330W        W62263  43.782  42.469  11.390
98331W        W62264  17.140  19.213   4.153
98332W        W62265  31.448   3.321   0.297
98333W        W62266   9.730  22.226  14.866
98334W        W62267  37.372  17.151  13.029
98335W        W62268  24.718   7.770   0.786
98336W        W62269  15.591  33.094   3.804
98337W        W62270  18.280  19.557   2.204
98338W        W62271  34.058   0.333   2.187
98339W        W62272   8.197   4.427   2.351
98340W        W62273  19.148  42.463   4.679
98341W        W62274  44.835  33.596   0.479
98342W        W62275   3.933  22.701   2.233
98343W        W62276  25.165  40.491   5.300
98344W        W62277  12.661  43.008   2.398
98345W        W62278   0.858   9.278  10.922
98346W        W62279  22.995  31.628  10.975
98347W        W62280  36.082   4.786   1.215
98348W        W62281  17.779   6.247   1.392
98349W        W62282  25.217  31.095  12.997
98350W        W62283  12.832  43.387   2.191
98351W        W62284  41.525  40.385   2.814
98352W        W62285   2.916  30.015  12.952
98353W        W62286  43.983   2.434  11.923
98354W        W62287  29.654  33.479   5.277
98355W        W62288  10.640  13.177  12.538
98356W        W62289  41.852   3.323  11.389
98357W        W62290  25.016  25.701   4.285
98358W        W62291  43.337  11.648   4.233
98359W        W62292   0.332  10.655   4.215
98360W        W62293  39.047   0.988  10.410
98361W        W62294   4.823  44.759   3.721
98362W        W62295  10.167  22.654   4.761
98363W        W62296  38.905  38.960   2.306
98364W        W62297  30.908  10.285  10.410
98365W        W62298  26.654  40.986   1.427
98366W        W62299  26.606   0.796   1.426
98367W        W62300  14.675  14.318   0.375
98368W        W62301  22.672  14.230  14.393
98369W        W62302   2.794  11.178   0.411
98370W        W62303  21.541  43.482   1.431
98371W        W62304  38.017  17.102  12.548
98372W        W62305   4.755  19.210   3.284
98373W        W62306   7.701  38.850  14.377
98374W        W62307  38.473  13.776   0.341
98375W        W62308  25.196  19.583  10.579
98376W        W62309  21.184  37.061   0.346
98377W        W62310  12.299  21.153   0.822
98378W        W62311  20.619  31.550   0.726
98379W        W62312  15.089  12.189   4.775
98380W        W62313  25.624   1.390   4.236
98381W        W62314  37.060  40.804   4.303
98382W        W62315  21.741  11.356  13.913
98383W        W62316  29.429  42.292   3.812
98384W        W62317  34.006   5.829   1.846
98385W        W62318  41.447  40.857  11.126
98386W        W62319  15.767  20.152   3.730
98387W        W62320   4.806  27.658  10.090
98388W        W62321   1.734  41.321   4.336
98389W        W62322  29.006  18.666   4.123
98390W        W62323  26.042  20.695  12.002
98391W        W62324  14.190   3.941   0.452
98392W        W62325  23.038   0.947   4.741
98393W        W62326  34.432   2.344   1.346
98394W        W62327  38.861  32.896  11.418
98395W        W62328  14.108  13.151   0.458
98396W        W62329  11.181  12.735  12.384
98397W        W62330   3.360  40.828   3.804
98398W        W62331  36.921  27.455   2.728
98399W        W62332  32.462   2.335  13.983
98400W        W62333   0.253  19.273   4.708
98401W        W62334  20.262  11.314   0.344
98402W        W62335  42.783  37.005  10.480
98403W        W62336  15.690  39.440  11.542
98404W        W62337  41.389  22.644  13.792
98405W        W62338   5.375  11.300   3.371
98406W        W62339  35.033  28.582   4.321
98407W        W62340   7.409  10.195  11.508
98408W        W62341  34.899  42.778  13.490
98409W        W62342  41.010  18.557  13.436
98410W        W62343  31.586  38.932  10.544
98411W        W62344  40.023   9.353  13.471
98412W        W62345  34.504  13.646   1.806
98413W        W62346  43.793  13.164   2.377
98414W        W62347   7.825   4.340  13.882
98415W        W62348  41.869  26.681   4.828
98416W        W62349  26.059   5.883   1.308
98417W        W62350   4.919  35.537  14.874
98418W        W62351  20.144  26.604  14.511
98419W        W62352  25.182  31.612   4.340
98420W        W62353  43.909  15.262   3.664
98421W        W62354  23.167  24.546  13.025
98422W        W62355  17.227  33.433   5.303
98423W        W62356  18.758   9.162   2.369
98424W        W62357  42.439  42.842  14.445
98425W        W62358  12.300  33.912  11.065
98426W        W62359  30.024   0.908   4.250
98427W        W62360  34.462  39.007  12.509
98428W        W62361  35.388   8.177  12.088
98429W        W62362  33.446  36.523  14.952
98430W        W62363   9.298   1.334  12.383
98431W        W62364  22.613  12.693  11.906
98432W        W62365  43.896  23.520   2.802
98433W        W62366  21.145   8.249  14.856
98434W        W62367  14.202   7.721  14.297
98435W        W62368   9.346  24.114   5.166
98436W        W62369   6.381   1.890  12.566
98437W        W62370  33.883  37.038  11.896
98438W        W62371   6.238  11.777  11.943
98439W        W62372  35.100  25.642  11.050
98440W        W62373  21.672  17.659   2.834
98441W        W62374   4.744  23.511   0.903
98442W        W62375  38.031  34.463   2.837
98443W        W62376  25.993  42.972  10.998
98444W        W62377  17.082  29.166   0.427
98445W        W62378  36.579   6.722   4.652
98446W        W62379  28.109  18.199  12.446
98447W        W62380  15.203  23.120  12.577
98448W        W62381  23.040  11.847   2.268
98449W        W62382  30.621  20.036  13.975
98450W        W62383  37.889  19.569  14.322
98451W        W62384   4.829  37.575   3.803
98452W        W62385  31.447  25.515   2.807
98453W        W62386  10.751  40.405  12.872
98454W        W62387  42.958  35.922  13.057
98455W        W62388  11.645  40.855   2.240
98456W        W62389  14.783   1.344  10.533
98457W        W62390   2.720  29.072  13.948
98458W        W62391  39.865  18.587  13.936
98459W        W62392  31.900  16.193   2.346
98460W        W62393  42.964   1.263   1.770
98461W        W62394  36.863  35.590  14.781
98462W        W62395  24.591  39.334  14.435
98463W        W62396  24.699   8.858   5.732
98464W        W62397  20.153  12.683  10.442
98465W        W62398  39.056  27.516   2.746
98466W        W62399  40.462  11.776   5.176
98467W        W62400  27.524   0.796   2.307
98468W        W62401  25.140   4.907  14.386
98469W        W62402  32.977  16.752  11.464
98470W        W62403  17.792  29.492  10.622
98471W        W62404  14.174  15.712  12.919
98472W        W62405  34.390  26.662   0.885
98473W        W62406  20.106  35.448  13.511
98474W        W62407  11.350   5.708   4.650
98475W        W62408   9.646  18.588  10.620
98476W        W62409  28.004  15.220  12.353
98477W        W62410  13.176   1.811   3.365
98478W        W62411  16.253  23.991  11.592
98479W        W62412  16.284  30.488   4.709
98480W        W62413  30.073  24.507   0.309
98481W        W62414   9.292  39.520   1.897
98482W        W62415  27.477   7.387   4.782
98483W        W62416  26.674  28.106   0.470
98484W        W62417  13.699  21.180  11.466
98485W        W62418  24.500  32.059   1.833
98486W        W62419   0.464  16.208   0.297
98487W        W62420  20.633  21.190   2.307
98488W        W62421  13.128   8.819   0.897
98489W        W62422  28.574  10.305   2.754
98490W        W62423  20.081  32.511   4.651
98491W        W62424   3.426  18.166  13.521
98492W        W62425  17.128   4.844  12.921
98493W        W62426   8.670  21.529   4.827
98494W        W62427  11.234  42.966   4.623
98495W        W62428   7.319  12.179  10.975
98496W        W62429   3.394  37.495  11.454
98497W        W62430  25.474  28.053   9.966
98498W        W62431   4.285  25.119  14.018
98499W        W62432  22.098  37.956  11.454
98500W        W62433  31.928  33.016   4.634
98501W        W62434  23.026  21.573  14.820
98502W        W62435  25.210  32.465  12.343
98503W        W62436  22.211  44.910   4.619
98504W        W62437  40.900  34.464  12.922
98505W        W62438   9.280   5.206  11.419
98506W        W62439   9.689  16.802   1.754
98507W        W62440   3.833  21.120   0.775
98508W        W62441  34.968   8.302   3.800
98509W        W62442  39.855  15.201  14.824
98510W        W62443  32.017  15.123   0.325
98511W        W62444  16.147  20.529   4.252
98512W        W62445   8.851  38.983  14.470
98513W        W62446  17.690   7.216   1.755
98514W        W62447   9.803   5.233  11.996
98515W        W62448  33.096  39.430  13.310
98516W        W62449  32.578  14.733   1.841
98517W        W62450  34.389  19.658  14.814
98518W        W62451  20.749  24.643  11.888
98519W        W62452   3.325  36.375   3.827
98520W        W62453  44.343   5.355   0.358
98521W        W62454  38.485  35.460   0.312
98522W        W62455  31.560   6.920  12.457
98523W        W62456  42.472  37.884   2.692
98524W        W62457  27.171  15.724   9.998
98525W        W62458  13.302  16.201  11.493
98526W        W62459   4.323  31.982   2.330
98527W        W62460  38.844  25.082   3.302
98528W        W62461   1.775  24.633  14.998
98529W        W62462   3.215   5.704  10.013
98530W        W62463   6.295  15.282   1.294
98531W        W62464   6.750   2.325  11.041
98532W        W62465   2.872  31.494   3.378
98533W        W62466  41.035   8.203   0.925
98534W        W62467  42.026  29.127   4.242
98535W        W62468  30.473   9.724   2.393
98536W        W62469  27.029  11.677   0.341
98537W        W62470  29.473  24.187  12.576
98538W        W62471  37.467  40.820   1.884
98539W        W62472  31.565  15.612  14.320
98540W        W62473  34.035  44.416  12.894
98541W        W62474  17.588  43.282   0.730
98542W        W62475  27.518  17.061   2.743
98543W        W62476   9.866   4.892   3.189
98544W        W62477   5.216   3.735  13.346
98545W        W62478  38.863  30.517  13.801
98546W        W62479   5.925  19.214  10.907
98547W        W62480  43.384   1.951  13.872
98548W        W62481  20.589  21.550  12.874
98549W        W62482  37.542   5.281  11.001
98550W        W62483  14.786  34.447   1.327
98551W        W62484  24.159  31.516   1.231
98552W        W62485  21.154  41.931   2.723
98553W        W62486  38.476  31.593   2.670
98554W        W62487  22.207  34.525  12.559
98555W        W62488   2.930   7.206  12.053
98556W        W62489  15.264  24.015  12.408
98557W        W62490  15.774  31.642   1.816
98558W        W62491   4.811  27.190  14.886
98559W        W62492  32.046   5.933  14.905
98560W        W62493   0.979   5.872  11.502
98561W        W62494   8.202  40.031   2.714
98562W        W62495   5.287   3.712  12.339
98563W        W62496  36.086  33.546   4.794
98564W        W62497  16.664   5.357   1.809
98565W        W62498  13.725  33.891  14.280
98566W        W62499  34.506   1.482   2.721
98567W        W62500  40.814  14.240  12.486
98568W        W62501  44.305   9.216   2.279
98569W        W62502  14.697  24.596   1.705
98570W        W62503  29.161   9.294  11.524
98571W        W62504  44.489  37.899   9.477
98572W        W62505  38.889  11.667  10.454
98573W        W62506  44.407   9.841  12.908
98574W        W62507  17.715  42.457   2.903
98575W        W62508  40.801   6.396   4.298
98576W        W62509   5.687   2.296  14.451
98577W        W62510  43.879  29.932   4.835
98578W        W62511  14.811  35.082  12.537
98579W        W62512  24.567  14.643   4.616
98580W        W62513  42.955  12.670  12.873
98581W        W62514  42.435  20.091   3.298
98582W        W62515  36.857  33.884  13.956
98583W        W62516  21.623  34.948  10.912
98584W        W62517  43.923  21.537  10.495
98585W        W62518  16.672   3.373  10.467
98586W        W62519  23.712  18.228  13.906
98587W        W62520  34.890  35.501   0.728
98588W        W62521  32.951  29.938   0.242
98589W        W62522   2.764  41.806  12.366
98590W        W62523   0.401  44.324  14.408
98591W        W62524  14.675   5.918  13.010
98592W        W62525  32.985  36.082   1.285
98593W        W62526  24.008  12.619   3.798
98594W        W62527  10.293  39.989  12.092
98595W        W62528  10.172  34.104   3.639
98596W        W62529   2.399  39.813  10.968
98597W        W62530  20.137  37.343   2.701
98598W        W62531   0.355  21.061   3.638
98599W        W62532  33.120  41.833   0.418
98600W        W62533   6.263  38.820  10.022
98601W        W62534  31.952   2.738   3.638
98602W        W62535   7.843  33.121   4.196
98603W        W62536  13.168  41.911  14.329
98604W        W62537  26.457  30.451  14.977
98605W        W62538  13.223   4.722   1.711
98606W        W62539  35.056   5.377  12.992
98607W        W62540  33.542  11.361   0.753
98608W        W62541  15.712  23.725   4.768
98609W        W62542   4.344  33.482  13.527
98610W        W62543   0.421  18.670  13.491
98611W        W62544  17.295  44.376   2.367
98612W        W62545  25.180  19.663  13.354
98613W        W62546  14.116  29.570  10.474
98614W        W62547  18.207  40.839   1.262
98615W        W62548  19.624   6.406  13.456
98616W        W62549  34.421  16.092  11.060
98617W        W62550  28.654  36.501  11.928
98618W        W62551  37.517   6.782  12.387
98619W        W62552  40.384  43.514  13.936
98620W        W62553  32.565  19.751  10.426
98621W        W62554  27.531  41.328   1.211
98622W        W62555  25.541  14.812  12.071
98623W        W62556  34.475  25.201   0.245
98624W        W62557  25.574  36.060   3.381
98625W        W62558  10.718  43.964  14.790
98626W        W62559  30.471  43.812  14.989
98627W        W62560  27.956   7.406  10.607
98628W        W62561   3.310  28.469   0.831
98629W        W62562  43.362  44.953   2.270
98630W        W62563  24.534  37.579   4.649
98631W        W62564  13.782  37.077   4.715
98632W        W62565   2.939  39.955  10.590
98633W        W62566  19.603  44.466   2.847
98634W        W62567  21.662  15.285   4.243
98635W        W62568  40.866  16.287  14.501
98636W        W62569  36.885  21.038   2.303
98637W        W62570  36.036  18.604   2.727
98638W        W62571  39.356  26.101   2.764
98639W        W62572  22.608  44.492  12.363
98640W        W62573  15.198  35.104  14.903
98641W        W62574  10.813  19.618   3.641
98642W        W62575   6.351   3.225   2.862
98643W        W62576   0.806   2.728   0.449
98644W        W62577  33.008  43.504   0.830
98645W        W62578  11.818  23.506  12.930
98646W        W62579   6.305  41.384  13.474
98647W        W62580  26.006  10.308   2.324
98648W        W62581  33.991  32.426   3.738
98649W        W62582  11.130   0.867  14.944
98650W        W62583  24.083  24.693  12.963
98651W        W62584  25.974  25.615   1.805
98652W        W62585  19.595   8.331  13.486
98653W        W62586  28.591  21.532  12.942
98654W        W62587  33.438  27.494  11.485
98655W        W62588  33.913  25.012  12.965
98656W        W62589  44.994  25.080   4.627
98657W        W62590  16.109   6.871   1.845
98658W        W62591  21.142  37.943  14.815
98659W        W62592  14.339   8.884  14.460
98660W        W62593   1.940  22.653  10.437
98661W        W62594  36.430  34.955   1.927
98662W        W62595  43.839   0.314  10.572
98663W        W62596  21.609   0.295  14.896
98664W        W62597   9.719  16.186  11.419
98665W        W62598  36.966  20.268  14.283
98666W        W62599  34.105  36.381   2.219
98667W        W62600  10.875  10.325  14.433
98668W        W62601  19.192  12.817   4.735
98669W        W62602   7.812  31.551  13.044
98670W        W62603  42.810  44.333   3.275
98671W        W62604  43.849  13.128  14.001
98672W        W62605  28.536   0.438   1.340
98673W        W62606   3.252  37.414  14.004
98674W        W62607   8.332  36.034   3.764
98675W        W62608  44.460   0.933   2.217
98676W        W62609  14.303  39.344  13.464
98677W        W62610  38.847  14.174  13.958
98678W        W62611  16.628  23.209   0.417
98679W        W62612   8.212  17.232  14.426
98680W        W62613   9.365  44.315  10.631
98681W        W62614  39.374  32.422   1.797
98682W        W62615  16.119   9.656  13.837
98683W        W62616  39.850  20.148  14.375
98684W        W62617  23.581  39.482  13.034
98685W        W62618   9.385   3.370  10.497
98686W        W62619  39.988   7.300  11.863
98687W        W62620  26.105   1.793  13.992
98688W        W62621   7.405  17.563   1.440
98689W        W62622  20.151  13.829  13.899
98690W        W62623  42.494  23.031   3.384
98691W        W62624   1.451   5.761   1.802
98692W        W62625   3.380   3.414   2.756
98693W        W62626   8.278  20.201   1.928
98694W        W62627  14.769  32.429   0.475
98695W        W62628  43.334  34.426  11.449
98696W        W62629  38.331  21.675  14.927
98697W        W62630   8.310  12.843  14.761
98698W        W62631  33.923  10.377   4.210
98699W        W62632   0.800  17.222  10.034
98700W        W62633  38.500  30.053  11.062
98701W        W62634  26.467   8.327   2.417
98702W        W62635  28.672  24.639   2.287
98703W        W62636   3.839   3.359  11.427
98704W        W62637   4.441  10.663   0.929
98705W        W62638  36.957  31.625  12.982
98706W        W62639  28.096  21.237  12.851
98707W        W62640  25.568  12.674   2.364
98708W        W62641   0.927   8.330   3.203
98709W        W62642   6.874   4.834  11.558
98710W        W62643  15.708  23.717  13.548
98711W        W62644  14.767   8.797   3.758
98712W        W62645  37.546  41.880   5.155
98713W        W62646  38.410  34.051  10.543
98714W        W62647  37.885  41.481   3.264
98715W        W62648   3.808  24.518   0.930
98716W        W62649  10.149  11.739  11.524
98717W        W62650  44.389   4.723   5.113
98718W        W62651  32.014   6.912  11.014
98719W        W62652  33.987   1.452   3.630
98720W        W62653  23.992   2.865  11.009
98721W        W62654   6.711  41.515  14.001
98722W        W62655  23.005   2.730   2.741
98723W        W62656  22.637  23.083  10.592
98724W        W62657  29.539  32.054   3.196
98725W        W62658  43.431  36.024  10.017
98726W        W62659  11.748  32.636   1.407
98727W        W62660  23.004  30.522  12.041
98728W        W62661  18.166  33.011  11.003
98729W        W62662  18.754  22.736   1.885
98730W        W62663  13.794  43.282   0.921
98731W        W62664  28.035  28.064  12.551
98732W        W62665  25.025  37.078  14.866
98733W        W62666  19.585  37.365   1.915
98734W        W62667  18.656  11.236   1.906
98735W        W62668  18.177  28.556   1.784
98736W        W62669  43.841  14.121   2.681
98737W        W62670  26.692   5.709   0.846
98738W        W62671  23.719  32.936   1.441
98739W        W62672  28.644   5.766  11.385
98740W        W62673   1.860  17.665   4.336
98741W        W62674  38.061   8.347  12.995
98742W        W62675  13.673   4.417   1.341
98743W        W62676  15.683  38.926  11.901
98744W        W62677  11.679  14.337   0.392
98745W        W62678  31.417   1.852  11.977
98746W        W62679   8.224  26.642   1.822
98747W        W62680  27.189   3.413   2.742
98748W        W62681   8.200   3.797  13.355
98749W        W62682   2.770  38.997  13.050
98750W        W62683  42.373  16.213   0.422
98751W        W62684   3.454  23.134   2.674
98752W        W62685  32.900  39.463   0.955
98753W        W62686  17.564  15.274  11.988
98754W        W62687  14.332  11.154   2.197
98755W        W62688  36.388  14.685   4.141
98756W        W62689  42.439  30.949  11.932
98757W        W62690   2.300   4.720   5.236
98758W        W62691  10.193  17.707  12.396
98759W        W62692  36.003  14.160   1.871
98760W        W62693  15.665  25.654   3.181
98761W        W62694   2.942  11.733  11.398
98762W        W62695  35.473  28.612  14.844
98763W        W62696  30.944  11.814  14.885
98764W        W62697  20.535  13.823   3.247
98765W        W62698   6.390   9.358   4.805
98766W        W62699  31.436  14.254  14.428
98767W        W62700  36.014   7.296  11.402
98768W        W62701  18.069  39.826  14.985
98769W        W62702  33.920  17.265  11.997
98770W        W62703  28.005  29.460  13.459
98771W        W62704  15.294  15.167   0.288
98772W        W62705  27.643  39.410   3.666
98773W        W62706  35.441   8.264   0.301
98774W        W62707  16.221   9.654  11.528
98775W        W62708  34.418   2.278   4.808
98776W        W62709  34.562  30.551   2.214
98777W        W62710  33.543   4.809   1.816
98778W        W62711  36.892  36.538   3.740
98779W        W62712  43.948  31.523  14.964
98780W        W62713  18.083  20.674   1.790
98781W        W62714  13.256   9.786   1.364
98782W        W62715   4.239   9.184   4.338
98783W        W62716  35.863   1.835  14.835
98784W        W62717  14.295   4.845  12.532
98785W        W62718   6.215   7.366  10.066
98786W        W62719  33.571   5.406   0.812
98787W        W62720   1.753   4.246  11.910
98788W        W62721  43.795  37.080   2.765
98789W        W62722   7.745  30.533   0.844
98790W        W62723  12.272  37.398  13.355
98791W        W62724  43.281  29.928  14.367
98792W        W62725  22.638   6.695   1.892
98793W        W62726   3.770  22.694  10.938
98794W        W62727  41.960   4.326  14.354
98795W        W62728  16.187  17.119  12.384
98796W        W62729  16.121  33.974   4.287
98797W        W62730  34.444  29.502   2.298
98798W        W62731  33.906   7.274  10.980
98799W        W62732  36.999   0.418   1.307
98800W        W62733  18.669  34.880   4.302
98801W        W62734  38.046  43.505  14.431
98802W        W62735  40.999  36.414  12.505
98803W        W62736   1.298   4.336  12.880
98804W        W62737  14.738  24.496  11.081
98805W        W62738   0.761  11.345   4.740
98806W        W62739   6.253   7.909   2.701
98807W        W62740  25.525  10.712  11.574
98808W        W62741  17.687   0.864   2.863
98809W        W62742  33.072  33.404   4.758
98810W        W62743  13.153   9.814  10.551
98811W        W62744  27.495  26.497   2.356
98812W        W62745  26.007  29.520  12.029
98813W        W62746  18.733   1.457  11.469
98814W        W62747  15.259  38.498   2.840
98815W        W62748  26.186  11.706   0.437
98816W        W62749   7.855  16.092   4.115
98817W        W62750  40.504  28.042   1.213
98818W        W62751  19.222   0.331  11.023
98819W        W62752  31.447   4.724   3.702
98820W        W62753  34.879  26.597   2.220
98821W        W62754   0.821  39.559   3.347
98822W        W62755   6.311  40.854  14.967
98823W        W62756   3.949   2.460   3.866
98824W        W62757  27.175   7.767   4.806
98825W        W62758  35.494  22.094  11.049
98826W        W62759   7.303   4.725  14.276
98827W        W62760   1.889   7.842   5.145
98828W        W62761  11.338  11.215   1.286
98829W        W62762  17.710  25.694   2.389
98830W        W62763  26.168   9.754   1.887
98831W        W62764  31.645  38.478  10.522
98832W        W62765  42.499  28.591   4.259
98833W        W62766  30.486  40.986  12.832
98834W        W62767  26.968  30.134   0.365
98835W        W62768  40.897  22.555   3.269
98836W        W62769  31.149  22.050  10.492
98837W        W62770  34.609  22.686   2.703
98838W        W62771  44.409  17.761  13.856
98839W        W62772  35.414  18.068  13.470
98840W        W62773  38.369  30.990   2.703
98841W        W62774   9.795  25.130   3.254
98842W        W62775  29.115  26.138   1.292
98843W        W62776  20.649   1.472   0.931
98844W        W62777   7.254   6.377  13.313
98845W        W62778  13.654   4.749  14.001
98846W        W62779  34.931  26.572  12.557
98847W        W62780  43.776  34.436  11.880
98848W        W62781  22.608  29.503   0.914
98849W        W62782  11.197  20.553   3.361
98850W        W62783  36.497  30.083   3.789
98851W        W62784  41.024   5.876  14.423
98852W        W62785  39.869  44.855   1.752
98853W        W62786   7.843  39.859   0.345
98854W        W62787  32.974   5.312  14.907
98855W        W62788  34.871  20.591   3.679
98856W        W62789  26.601  44.489  10.640
98857W        W62790   7.673  26.682  13.819
98858W        W62791  26.047  21.621   1.274
98859W        W62792  13.349  22.182   1.274
98860W        W62793   9.340  29.947   1.292
98861W        W62794  34.085  20.129  11.477
98862W        W62795  19.571  29.593   0.327
98863W        W62796   1.926  24.618  14.438
98864W        W62797  18.082  33.010  13.893
98865W        W62798   3.879  41.335   0.399
98866W        W62799  39.320  30.928  10.924
98867W        W62800  23.159  28.963   4.797
98868W        W62801  12.846  15.659   2.849
98869W        W62802  19.244  24.651   2.208
98870W        W62803  29.068  39.362   3.360
98871W        W62804  31.138  44.444   1.316
98872W        W62805  24.060   2.247   1.370
98873W        W62806  28.531  18.728  12.890
98874W        W62807  23.665   5.829   0.268
98875W        W62808  40.449  15.645  10.937
98876W        W62809  26.471  16.084  10.418
98877W        W62810  25.168   4.309  13.328
98878W        W62811  21.578   5.363   2.766
98879W        W62812  33.007  23.717   4.321
98880W        W62813  18.679  14.315   2.272
98881W        W62814  32.500   1.832   2.798
98882W        W62815   6.829  27.986   2.791
98883W        W62816  28.069  40.962  11.491
98884W        W62817  16.286  36.854  11.481
98885W        W62818   3.426  37.905  10.920
98886W        W62819   3.931  40.950  13.406
98887W        W62820  11.693   6.806   4.640
98888W        W62821  17.083  11.719  12.408
98889W        W62822  29.494  27.996  11.386
98890W        W62823  22.167  42.488   4.639
98891W        W62824  36.374  36.027   3.264
98892W        W62825  36.883  12.212   2.828
98893W        W62826  28.495  32.588   3.661
98894W        W62827   4.223   1.756   0.424
98895W        W62828   5.317  34.962  12.465
98896W        W62829  18.182   4.934  10.456
98897W        W62830  24.078  37.543  14.430
98898W        W62831  29.001  10.316   2.859
98899W        W62832   6.340  10.350   0.885
98900W        W62833  14.111  14.246  14.914
98901W        W62834  13.766  33.396  14.846
98902W        W62835   5.422  33.596  14.766
98903W        W62836  35.561  44.987  13.496
98904W        W62837  19.618  37.920   3.702
98905W        W62838  18.694  29.612   0.876
98906W        W62839  39.350  17.183  11.920
98907W        W62840  22.095   0.759  11.935
98908W        W62841   8.325   8.365  12.824
98909W        W62842  42.491  12.257  13.532
98910W        W62843  15.139   5.231   0.433
98911W        W62844  19.645  36.013   3.799
98912W        W62845  26.109  34.372   2.185
98913W        W62846  27.637  11.742  14.372
98914W        W62847  10.694  20.642  14.447
98915W        W62848  13.836  34.495   1.366
98916W        W62849  44.779  15.753  12.842
98917W        W62850  24.557  26.470   2.748
98918W        W62851  19.220  39.488  11.476
98919W        W62852  14.600   9.868   4.341
98920W        W62853  40.806   3.333  12.533
98921W        W62854  16.704  19.647  13.393
98922W        W62855  39.927  13.197  13.961
98923W        W62856  22.511  41.869   3.850
98924W        W62857  16.297   9.885   1.837
98925W        W62858   0.367  10.667   1.320
98926W        W62859  28.457   1.836  11.939
98927W        W62860  36.498  42.335  11.497
98928W        W62861   4.820  23.192   4.668
98929W        W62862  16.316   3.772   3.735
98930W        W62863  42.957  11.157  13.544
98931W        W62864  14.734  32.011  10.533
98932W        W62865  28.097   5.746   1.410
98933W        W62866  42.392  41.499  14.282
98934W        W62867  44.773  19.777   0.465
98935W        W62868  28.491  40.430  12.506
98936W        W62869  34.106  33.063  11.123
98937W        W62870  11.162  32.434   4.133
98938W        W62871  23.025   3.880  12.036
98939W        W62872  18.567  31.550  12.073
98940W        W62873  27.123   8.167   1.323
98941W        W62874  32.957  16.278  14.895
98942W        W62875  22.184   1.825   0.805
98943W        W62876  27.164  23.081   4.719
98944W        W62877  40.921  17.627   2.360
98945W        W62878  34.991   4.716  10.125
98946W        W62879  32.033  28.675   4.342
98947W        W62880   2.722  39.327   1.364
98948W        W62881  39.976  40.449   4.141
98949W        W62882  37.939  22.608  12.407
98950W        W62883  26.479  43.876   5.126
98951W        W62884   3.766  30.100  13.838
98952W        W62885  31.947  32.910  13.360
98953W        W62886  25.563  25.219  13.847
98954W        W62887  43.462  32.003   1.911
98955W        W62888  34.527  16.215   3.378
98956W        W62889  36.402   8.202   4.227
98957W        W62890  35.934   4.433  13.003
98958W        W62891   3.319  38.896  12.924
98959W        W62892  24.222   6.726  11.580
98960W        W62893  44.316  34.107   0.424
98961W        W62894  44.363   6.860   1.740
98962W        W62895  11.131   0.841  12.570
98963W        W62896   7.715  34.599  12.908
98964W        W62897  42.416  12.125  10.586
98965W        W62898   1.759   5.735   0.444
98966W        W62899   1.854  29.106   4.817
98967W        W62900  37.498  15.790   2.331
98968W        W62901  14.236  24.694   3.266
98969W        W62902   0.793  22.082  13.502
98970W        W62903  17.560  25.071  11.992
98971W        W62904  20.198  43.369   0.737
98972W        W62905   5.205  20.141   3.757
98973W        W62906   6.922  35.461   0.433
98974W        W62907  17.748  44.361   1.826
98975W        W62908  36.938  20.627   1.735
98976W        W62909  17.286   5.346   9.942
98977W        W62910  15.277  29.648  12.870
98978W        W62911  22.234  37.989  14.004
98979W        W62912   4.745  35.876   1.806
98980W        W62913  32.010  38.486  14.511
98981W        W62914  32.006  38.352  11.394
98982W        W62915  15.153  14.148  11.488
98983W        W62916  17.560  17.754  11.964
98984W        W62917  29.109  42.848  10.147
98985W        W62918  32.630  37.852  13.308
98986W        W62919  18.620  21.685  11.083
98987W        W62920   3.917  37.478  12.360
98988W        W62921  19.650   8.740  14.300
98989W        W62922  34.903   5.238  11.913
98990W        W62923  34.573  41.984  10.994
98991W        W62924  13.178  27.941  11.461
98992W        W62925  18.738   8.740  11.387
98993W        W62926  22.150  36.500  10.470
98994W        W62927   2.853  44.907  12.382
98995W        W62928  33.533  10.348   2.365
98996W        W62929   2.800  41.501  10.480
98997W        W62930  10.331  38.348   1.737
98998W        W62931  21.681  12.158   4.353
98999W        W62932  11.240  19.651  11.863
99000W        W62933  30.647   1.242   2.374
99001W        W62934  20.665   1.800  12.065
99002W        W62935  22.625  29.164  11.077
99003W        W62936  11.701  18.270  13.340
99004W        W62937   2.734  25.020   4.160
99005W        W62938  34.483  43.958  12.518
99006W        W62939  32.973  11.716   4.832
99007W        W62940  38.458   7.736   4.633
99008W        W62941   3.312  39.905   4.177
99009W        W62942  30.003  43.862   4.135
99010W        W62943  28.590  33.409  11.938
99011W        W62944  33.101  35.599   4.800
99012W        W62945   0.911  12.853  12.533
99013W        W62946  26.974  44.927  13.792
99014W        W62947  10.334  32.081   1.895
99015W        W62948  44.755  12.618  12.566
99016W        W62949   3.874  30.473  12.874
99017W        W62950  38.368   6.746   2.319
99018W        W62951  37.559  10.220  12.095
99019W        W62952  30.022   1.406   0.385
99020W        W62953  31.120  25.640  13.339
99021W        W62954  26.692  11.691  11.074
99022W        W62955  32.632  22.139  13.839
99023W        W62956  24.665  39.887   3.798
99024W        W62957  27.143   1.909   1.355
99025W        W62958  41.854  14.238   1.357
99026W        W62959  12.341   1.973   2.777
99027W        W62960  32.486  19.770  12.060
99028W        W62961  16.140  17.292  14.814
99029W        W62962   4.788  16.255  14.414
99030W        W62963   8.291  37.833  13.357
99031W        W62964  34.042  23.085  12.566
99032W        W62965  42.412  18.581   2.298
99033W        W62966  18.681  14.623  12.466
99034W        W62967  41.325  21.074  10.550
99035W        W62968  39.464  30.919  11.934
99036W        W62969  36.468  41.980   0.473
99037W        W62970  43.889  39.326  11.998
99038W        W62971  35.484  39.012  11.004
99039W        W62972  13.782   9.199  10.538
99040W        W62973  30.058  28.621  10.906
99041W        W62974  36.373  13.812   0.277
99042W        W62975  21.261  36.487   3.306
99043W        W62976   9.805  29.542   1.847
99044W        W62977  14.650  29.164   1.764
99045W        W62978  36.944   5.290  11.893
99046W        W62979   7.846  13.706   4.237
99047W        W62980  21.758   0.358   3.673
99048W        W62981  29.032   0.753   2.322
99049W        W62982  41.879   3.777  13.813
99050W        W62983  41.325   0.871  12.885
99051W        W62984  34.446  31.104  10.911
99052W        W62985  13.323  37.474   1.862
99053W        W62986  34.465  33.081  10.487
99054W        W62987  14.337  36.380  14.284
99055W        W62988  14.236  40.307   1.777
99056W        W62989   6.731  34.982  10.949
99057W        W62990  40.962  39.874   1.448
99058W        W62991   4.896  43.837   4.320
99059W        W62992  31.075   1.839  13.446
99060W        W62993  29.500  25.499   4.712
99061W        W62994  11.829  28.517  14.488
99062W        W62995  11.646  25.555   2.844
99063W        W62996   4.768   9.336  14.464
99064W        W62997  40.481  44.886   3.185
99065W        W62998  27.639   6.789   3.371
99066W        W62999  16.138  27.546   2.201
99067W        W63000  44.000  31.490  14.387
99068W        W63001  34.945   6.353  13.508
99069W        W63002  40.414  15.655   3.332
99070W        W63003   7.359   1.377  10.600
99071W        W63004  43.866  30.448   0.770
99072W        W63005  30.583  13.671  12.548
99073W        W63006  27.588   3.431  13.318
99074W        W63007   0.749   0.770  14.410
99075W        W63008  19.643  11.767   4.599
99076W        W63009  38.904  42.465  12.980
99077W        W63010  25.544   3.454   1.233
99078W        W63011  35.023  34.962   4.704
99079W        W63012  11.675   2.299   3.295
99080W        W63013  43.489  17.289  12.993
99081W        W63014  14.834   4.247   9.920
99082W        W63015   3.907   0.844   3.297
99083W        W63016  12.780  43.831   3.854
99084W        W63017  24.679  28.120  11.376
99085W        W63018  30.150  15.195   3.787
99086W        W63019  37.831  40.941  10.441
99087W        W63020  16.078   6.725  12.350
99088W        W63021  10.854   5.207  11.488
99089W        W63022  26.972  10.332  12.991
99090W        W63023  19.731  10.637  12.526
99091W        W63024  42.775  38.435   2.864
99092W        W63025  32.913  18.635   2.790
99093W        W63026  21.547   0.434   4.174
99094W        W63027   1.943  17.743   1.442
99095W        W63028   9.711   2.413   4.246
99096W        W63029  43.806   2.851  10.916
99097W        W63030  17.113  43.821   9.935
99098W        W63031  42.517   3.903  12.979
99099W        W63032  13.641  28.008  12.535
99100W        W63033  10.196   9.202  12.039
99101W        W63034   3.803  40.526   2.388
99102W        W63035  41.933   0.844  13.340
99103W        W63036  28.182  40.054   4.802
99104W        W63037  32.925  14.123   3.733
99105W        W63038  38.988  30.981  14.470
99106W        W63039  38.474  14.150  12.401
99107W        W63040  28.674  44.945   5.242
99108W        W63041  29.518   0.252  14.954
99109W        W63042  25.607  42.012   1.705
99110W        W63043  19.136  18.213   2.690
99111W        W63044  23.053  38.486   2.819
99112W        W63045  14.813  37.425   1.744
99113W        W63046   4.275  29.999  11.464
99114W        W63047  43.022  28.653   2.411
99115W        W63048  33.941  26.633  12.544
99116W        W63049  24.082  17.234  14.888
99117W        W63050  42.513  18.544   2.750
99118W        W63051  35.853  29.102   0.745
99119W        W63052  19.247   9.281  14.919
99120W        W63053  39.445  11.765  13.398
99121W        W63054  35.602   5.262   1.916
99122W        W63055   6.202  36.482   1.699
99123W        W63056   9.674  35.966   1.724
99124W        W63057  24.078  22.705  14.782
99125W        W63058  17.259   7.668  10.152
99126W        W63059  15.179  28.638  10.617
99127W        W63060  10.695   5.911   1.276
99128W        W63061   3.254   0.468   4.666
99129W        W63062  36.950  40.051   4.298
99130W        W63063  32.984  28.954   4.661
99131W        W63064  31.964  14.611   0.783
99132W        W63065   1.460  11.301   0.378
99133W        W63066   8.775  35.920   1.299
99134W        W63067   4.331  13.204   5.714
99135W        W63068  33.502   2.943   0.278
99136W        W63069  42.341  40.927   0.849
99137W        W63070  30.064  42.951   3.802
99138W        W63071  41.838  43.406  10.924
99139W        W63072  28.616  27.602  12.933
99140W        W63073  22.570  20.105  14.028
99141W        W63074  33.399  26.679  13.423
99142W        W63075  11.322  33.616   3.812
99143W        W63076  11.184   8.753  12.026
99144W        W63077  28.482  25.164   3.849
99145W        W63078   3.371  38.954  10.449
99146W        W63079  34.537  10.732  11.561
99147W        W63080   0.329  28.083   2.251
99148W        W63081  19.686  38.939   0.784
99149W        W63082  29.670  35.000  11.992
99150W        W63083  44.892   5.392   0.455
99151W        W63084   7.240  12.125  13.319
99152W        W63085  37.394  14.627  10.893
99153W        W63086  31.940  27.474  12.346
99154W        W63087   8.205  12.311   4.218
99155W        W63088  11.780  20.661  10.423
99156W        W63089  24.219  26.157   3.282
99157W        W63090  35.478   3.273  12.434
99158W        W63091  15.806  28.126   1.390
99159W        W63092  24.035  23.536   1.436
99160W        W63093  25.019  41.952   1.754
99161W        W63094   7.808   8.891  11.566
99162W        W63095  25.995  31.939  13.915
99163W        W63096  37.402  21.715  14.835
99164W        W63097  23.608   9.241  10.515
99165W        W63098  31.538  27.943  14.893
99166W        W63099  43.891  36.463   0.351
99167W        W63100  30.429   7.333   3.832
99168W        W63101  34.045  36.982   2.861
99169W        W63102  16.114  11.691   2.719
99170W        W63103  30.075  36.075  11.557
99171W        W63104  12.731  20.237   3.744
99172W        W63105   9.734   3.430  10.912
99173W        W63106  43.373  41.944   4.163
99174W        W63107  17.144  38.557   4.117
99175W        W63108  27.976  16.135   0.355
99176W        W63109  31.621  37.841  11.446
99177W        W63110  40.503  37.366  11.043
99178W        W63111  39.882  10.829  13.883
99179W        W63112   9.228  34.880   3.769
99180W        W63113  29.449  25.179  12.543
99181W        W63114   6.292  17.187  12.005
99182W        W63115  43.851  11.173  13.429
99183W        W63116  16.609  38.005   3.190
99184W        W63117  16.224   6.196   0.812
99185W        W63118  31.446   6.854   2.849
99186W        W63119  39.418  26.195  11.552
99187W        W63120   0.899  25.648  11.126
99188W        W63121   3.734  35.574   1.393
99189W        W63122  14.667   8.840  11.911
99190W        W63123  16.311  43.285  13.422
99191W        W63124  26.645  11.630  14.023
99192W        W63125  17.585   7.400   2.856
99193W        W63126  21.542   2.379   1.783
99194W        W63127   2.427  41.433   0.777
99195W        W63128  34.880  16.299   0.897
99196W        W63129   9.220  43.802  13.413
99197W        W63130  13.262  18.287  12.499
99198W        W63131  14.747  27.124  11.088
99199W        W63132  24.997  35.985  12.960
99200W        W63133  26.688  22.221  11.123
99201W        W63134  34.582   6.196   3.796
99202W        W63135  26.630   2.924   1.761
99203W        W63136  22.239  15.257  10.434
99204W        W63137  19.227  40.909   0.803
99205W        W63138  41.319  10.184  12.453
99206W        W63139  37.010  44.828  11.091
99207W        W63140  10.314   4.834   0.865
99208W        W63141  18.787  31.048  14.398
99209W        W63142  36.865  10.791   0.245
99210W        W63143   5.262  42.886   4.676
99211W        W63144  33.550  26.594   0.381
99212W        W63145   2.883   0.417  14.797
99213W        W63146  33.582   4.280   9.957
99214W        W63147  24.030  34.505   0.841
99215W        W63148  42.896  38.327   4.742
99216W        W63149  29.655  43.868   4.318
99217W        W63150  18.746  23.692  13.012
99218W        W63151  42.398  22.621   2.195
99219W        W63152  34.016  38.509   3.769
99220W        W63153  17.250   0.988  11.123
99221W        W63154  39.448  39.949   3.765
99222W        W63155   3.885  26.598  14.788
99223W        W63156  32.966  19.200   2.704
99224W        W63157   6.195  35.931  11.478
99225W        W63158  41.876   9.884   3.155
99226W        W63159  29.474  14.791  12.460
99227W        W63160  35.594  35.062   0.372
99228W        W63161   6.799   5.193   2.864
99229W        W63162   4.874   0.933  11.976
99230W        W63163   4.734  41.826   1.448
99231W        W63164  10.765  13.168  14.930
99232W        W63165  43.990  26.496   4.715
99233W        W63166  12.612  41.006   3.823
99234W        W63167  37.971  18.702  13.449
99235W        W63168  32.436   3.717   4.807
99236W        W63169  38.914  10.172   2.845
99237W        W63170  44.769  21.516  12.960
99238W        W63171  24.038   1.262   2.352
99239W        W63172  44.787  27.657  13.318
99240W        W63173  28.601  36.065   0.395
99241W        W63174  30.009   0.868  13.849
99242W        W63175  29.972  41.322  10.982
99243W        W63176  36.355   9.858  14.989
99244W        W63177  28.586   0.311  11.445
99245W        W63178   5.296  11.847  12.384
99246W        W63179   0.853   4.786  12.955
99247W        W63180  37.469  18.685  12.988
99248W        W63181  24.525  21.669   3.329
99249W        W63182  20.725  26.499   2.299
99250W        W63183  37.975   3.412   0.439
99251W        W63184  19.246  22.548   2.682
99252W        W63185  43.937  21.645   2.336
99253W        W63186  24.034   8.669   4.648
99254W        W63187  31.450  11.655  10.540
99255W        W63188  43.470   5.316  11.392
99256W        W63189  36.090   7.392   3.723
99257W        W63190   1.954  34.942  11.880
99258W        W63191  11.301  11.713   3.265
99259W        W63192  31.140   7.173  11.953
99260W        W63193   5.833  44.007  10.546
99261W        W63194  41.410   7.704  14.977
99262W        W63195  24.030  30.543   4.176
99263W        W63196  25.127  44.995   5.160
99264W        W63197   9.245  36.944   2.251
99265W        W63198  22.728  18.249   1.212
99266W        W63199   5.262  14.818  11.572
99267W        W63200  37.895  16.135  14.912
99268W        W63201  32.435   6.394  10.928
99269W        W63202  20.049  32.532   1.796
99270W        W63203  15.199  43.387   2.864
99271W        W63204  10.334  18.057  12.572
99272W        W63205  27.651  22.623   2.743
99273W        W63206  25.599   5.255  11.425
99274W        W63207   9.709  26.124   2.829
99275W        W63208  37.985  23.215   4.160
99276W        W63209   4.242  28.952   4.312
99277W        W63210   3.932  24.520   0.366
99278W        W63211  27.505  20.035   3.862
99279W        W63212  10.774  32.506  12.938
99280W        W63213  44.952  10.159  11.525
99281W        W63214  13.222  15.146  13.427
99282W        W63215  33.533   1.316  14.341
99283W        W63216   7.807  39.368   2.365
99284W        W63217   6.197   6.811   3.750
99285W        W63218  18.692  35.977  10.950
99286W        W63219  23.657  17.574   1.856
99287W        W63220  13.132   2.457  10.468
99288W        W63221   6.705  35.922   2.363
99289W        W63222  13.650  31.936   3.275
99290W        W63223  28.442   3.450  10.636
99291W        W63224  15.311   1.466   0.299
99292W        W63225  34.571  15.605   2.269
99293W        W63226  23.584  15.134   4.723
99294W        W63227  35.590  25.052  10.586
99295W        W63228   9.802  17.171   2.229
99296W        W63229   5.859  38.356  13.382
99297W        W63230  17.650   0.806   1.869
99298W        W63231  43.823  15.628   1.924
99299W        W63232  43.890   4.395   0.906
99300W        W63233  36.011  28.042  13.816
99301W        W63234  21.513   2.271   0.389
99302W        W63235  29.070   0.440  13.796
99303W        W63236  22.588  44.393  12.836
99304W        W63237  18.654  30.579  11.983
99305W        W63238  22.012  16.230  12.834
99306W        W63239   2.364  40.926   2.361
99307W        W63240  38.979  30.628   4.226
99308W        W63241  18.636  44.809   0.844
99309W        W63242  24.581  37.573  11.924
99310W        W63243  23.669   1.440  14.343
99311W        W63244  11.365  29.522   2.313
99312W        W63245  27.588  36.921   3.690
99313W        W63246   2.942  40.032  12.012
99314W        W63247  40.808   5.261   2.288
99315W        W63248  17.802   3.415  13.386
99316W        W63249  30.567  11.819  10.910
99317W        W63250  22.238   4.758   3.359
99318W        W63251  28.155  13.769   1.916
99319W        W63252   1.906   2.948   1.274
99320W        W63253  14.334  14.636  13.933
99321W        W63254  23.148  40.363   1.755
99322W        W63255   4.441  33.914  11.875
99323W        W63256  15.086  35.910   4.146
99324W        W63257   8.746  27.132  11.401
99325W        W63258  16.113  32.632   0.727
99326W        W63259  32.119  13.235   5.127
99327W        W63260   6.190  37.086   0.364
99328W        W63261   0.759  31.445   0.735
99329W        W63262   4.942  23.232   2.241
99330W        W63263  17.253  27.562  13.017
99331W        W63264   1.365   6.308  12.469
99332W        W63265  12.361  33.548  11.122
99333W        W63266  28.153  17.738   1.363
99334W        W63267   1.426  31.447  14.990
99335W        W63268  44.826  40.401  11.521
99336W        W63269  11.263   4.772   1.305
99337W        W63270  41.829  42.012  13.878
99338W        W63271  28.452  22.597  14.997
99339W        W63272  28.012   8.855  14.909
99340W        W63273   7.281  24.121  11.982
99341W        W63274   9.213  26.199  14.433
99342W        W63275  22.507  26.587   2.212
99343W        W63276  41.984  16.765  10.919
99344W        W63277  28.497  25.010   4.152
99345W        W63278  34.959  19.169   4.276
99346W        W63279  34.959  12.761  13.920
99347W        W63280  10.810  41.456   3.709
99348W        W63281  12.238  11.775   1.251
99349W        W63282   3.813  38.501   4.162
99350W        W63283   9.856  40.871   3.713
99351W        W63284  36.365   4.825  11.118
99352W        W63285   6.225  35.590   0.425
99353W        W63286   6.293   0.957   0.363
99354W        W63287  20.729  19.680  12.415
99355W        W63288  23.608  23.190  14.440
99356W        W63289  41.035   8.398   0.464
99357W        W63290  18.738  44.396  14.764
99358W        W63291  44.353   5.381   4.283
99359W        W63292   4.858  38.426  14.031
99360W        W63293  22.176  43.811  14.434
99361W        W63294   3.737  37.968   3.711
99362W        W63295  14.225   9.264   0.761
99363W        W63296  36.593  39.018  11.033
99364W        W63297  43.902  43.991  11.997
99365W        W63298   3.759  11.241  14.437
99366W        W63299  25.652  11.337   0.285
99367W        W63300   8.251  25.212  14.408
99368W        W63301  23.731  20.263  11.425
99369W        W63302  26.623   4.337   0.390
99370W        W63303  15.191  41.898  10.575
99371W        W63304   5.908  14.665   4.217
99372W        W63305  24.718  16.709   3.370
99373W        W63306  17.575  22.202  14.925
99374W        W63307  26.973  33.462   3.813
99375W        W63308  37.848  32.595   3.183
99376W        W63309  22.073  14.818   4.703
99377W        W63310  18.141  12.689   0.399
99378W        W63311  16.770  23.544  12.891
99379W        W63312  17.780  31.041  12.961
99380W        W63313   2.765  11.622   2.687
99381W        W63314  28.077   3.857   3.672
99382W        W63315  27.552  27.024   1.814
99383W        W63316  36.031  40.488  11.089
99384W        W63317   7.810  15.661   4.683
99385W        W63318  22.664  21.663   4.180
99386W        W63319  10.261  32.073  10.906
99387W        W63320  38.501  20.572   2.883
99388W        W63321  16.642  17.300  12.856
99389W        W63322  36.455  10.359   1.772
99390W        W63323  15.694  13.605   1.746
99391W        W63324  15.305  37.341  12.471
99392W        W63325  40.487  27.154  14.441
99393W        W63326  29.964   2.265   4.133
99394W        W63327  18.149  14.314   0.309
99395W        W63328  13.250  18.717  14.378
99396W        W63329  31.975  11.129  12.565
99397W        W63330  12.733  27.067  12.392
99398W        W63331  41.880  39.560   4.139
99399W        W63332   4.937   1.346   4.167
99400W        W63333  21.518   2.229  12.394
99401W        W63334   8.223  14.782  13.793
99402W        W63335  41.517   2.839   2.896
99403W        W63336  32.958  11.683   2.324
99404W        W63337  30.506  44.838   0.790
99405W        W63338  25.040  30.102  12.044
99406W        W63339   1.759  43.428   3.179
99407W        W63340  10.719  22.717  11.113
99408W        W63341  26.006  34.936   0.362
99409W        W63342  30.602  11.824   1.717
99410W        W63343  43.817  38.372   0.248
99411W        W63344   5.296   0.864   1.230
99412W        W63345   4.365  29.503   0.814
99413W        W63346   5.414  36.012  12.898
99414W        W63347  21.159   4.237  11.555
99415W        W63348  14.720  14.651  11.957
99416W        W63349  20.707  44.975   4.298
99417W        W63350  41.986  19.550  11.980
99418W        W63351  20.721  25.088  12.005
99419W        W63352  39.357  33.445   1.874
99420W        W63353  16.609  38.409   0.336
99421W        W63354  26.201   1.799  14.937
99422W        W63355  43.802  35.036  12.983
99423W        W63356   6.856  27.024  10.032
99424W        W63357  35.910   0.489  14.910
99425W        W63358  41.926  27.540   2.414
99426W        W63359  41.516  37.532   3.638
99427W        W63360  10.245  34.938  13.444
99428W        W63361  16.113   1.791   2.820
99429W        W63362  44.946  38.415  12.380
99430W        W63363  19.740   4.447  13.948
99431W        W63364  29.085  23.681   2.337
99432W        W63365   3.807  39.823  13.366
99433W        W63366  21.065  44.956  12.387
99434W        W63367  43.455  12.310   0.954
99435W        W63368  33.509  44.459  10.011
99436W        W63369  12.636  22.249   4.164
99437W        W63370  29.978  29.522  13.317
99438W        W63371  17.234  39.822  10.457
99439W        W63372  39.902  30.525   3.649
99440W        W63373  36.023  39.927   4.629
99441W        W63374  19.073   9.260   4.327
99442W        W63375  36.048   2.327  14.904
99443W        W63376  22.193  32.136   4.735
99444W        W63377  40.960  32.069   2.353
99445W        W63378  23.522  43.833   1.762
99446W        W63379  37.343  26.112   4.125
99447W        W63380   5.425   0.928   3.783
99448W        W63381   0.407  24.083  13.506
99449W        W63382  34.114  35.503  11.466
99450W        W63383  24.666   2.880   3.765
99451W        W63384  25.963  28.971  10.575
99452W        W63385  25.179  40.473  12.542
99453W        W63386  29.629   4.724   0.428
99454W        W63387   3.403  18.609  11.930
99455W        W63388   3.925  10.647   0.298
99456W        W63389  27.996  27.000   4.657
99457W        W63390  28.575  36.359  13.934
99458W        W63391  31.930  31.442  10.420
99459W        W63392  20.708  34.975   0.738
99460W        W63393  33.554  22.076   2.714
99461W        W63394   1.796  44.325   3.631
99462W        W63395  15.685  29.015  11.074
99463W        W63396  29.492  19.146   2.790
99464W        W63397  27.059  22.157   2.805
99465W        W63398  41.835   3.353  13.448
99466W        W63399  26.643  11.712   1.923
99467W        W63400  27.142  12.317  14.277
99468W        W63401  23.230  14.589  14.839
99469W        W63402   6.810  43.829  14.349
99470W        W63403  32.566  20.134  12.873
99471W        W63404  17.140  29.075  13.997
99472W        W63405  31.539   3.773   3.207
99473W        W63406  40.000  19.737  13.364
99474W        W63407   0.299  22.516  10.641
99475W        W63408  21.075  13.631   3.270
99476W        W63409  41.938  35.374   1.879
99477W        W63410  41.958  43.945  13.355
99478W        W63411  41.028  14.186   4.725
99479W        W63412  31.056  39.861   5.262
99480W        W63413   9.750  36.003  13.983
99481W        W63414  41.420  38.432   5.233
99482W        W63415   3.901  37.895   3.386
99483W        W63416  10.228  21.692   3.666
99484W        W63417  22.532  13.201  12.435
99485W        W63418  31.896   5.758  12.898
99486W        W63419  17.267  18.602  12.536
99487W        W63420   0.965  20.544   2.769
99488W        W63421   5.234  15.720   4.709
99489W        W63422  14.632  43.291   0.746
99490W        W63423  27.947  31.554  12.882
99491W        W63424  22.090  17.597  12.467
99492W        W63425  33.451  20.735   2.369
99493W        W63426  26.627  15.127   4.717
99494W        W63427  37.078   9.267   4.354
99495W        W63428  34.979  37.378   4.261
99496W        W63429   6.901  33.908  14.955
99497W        W63430   8.196  35.482  13.862
99498W        W63431   8.378   3.248   2.352
99499W        W63432  39.051  14.295   4.277
99500W        W63433   7.227  29.105   2.228
99501W        W63434   5.705  25.097   3.254
99502W        W63435  23.563  22.180  12.030
99503W        W63436  37.052  15.153   0.797
99504W        W63437  39.520  11.850   2.706
99505W        W63438  35.890  33.494  14.435
99506W        W63439  15.619  16.593  14.351
99507W        W63440  23.603  18.079   0.320
99508W        W63441  43.475  19.112   4.202
99509W        W63442  16.801  43.822  14.917
99510W        W63443  20.601   6.794  12.401
99511W        W63444  12.647  19.253  13.927
99512W        W63445  39.967  11.690   1.740
99513W        W63446   8.194  12.276   4.667
99514W        W63447  39.820  25.980  11.585
99515W        W63448  20.710   0.388  12.904
99516W        W63449  18.274  33.482  11.110
99517W        W63450  31.984  15.182  10.640
99518W        W63451  26.530  10.805  10.410
99519W        W63452   9.789   6.908   3.281
99520W        W63453  40.456   0.258   4.305
99521W        W63454  33.013   1.401   4.783
99522W        W63455  30.520  31.609  11.883
99523W        W63456  24.115  18.713  11.931
99524W        W63457  13.788  22.612  11.474
99525W        W63458  27.589   6.776   4.309
99526W        W63459  24.699  43.958  11.051
99527W        W63460  35.095   6.682   2.398
99528W        W63461  13.335  31.452   2.750
99529W        W63462  21.154  11.756  12.443
99530W        W63463  28.449   4.258  14.479
99531W        W63464  14.273  14.727   2.742
99532W        W63465  41.444  40.425  12.866
99533W        W63466   0.313  35.917  13.357
99534W        W63467  28.990  12.123   4.708
99535W        W63468  36.899   4.422  10.444
99536W        W63469   7.358  38.917  10.447
99537W        W63470  25.679  29.552   1.449
99538W        W63471  19.181  35.401  13.346
99539W        W63472  36.388  13.693   1.229
99540W        W63473  13.107  41.794  13.051
99541W        W63474   6.791  39.339  13.388
99542W        W63475  24.199  43.824  12.011
99543W        W63476  14.226  36.491   3.864
99544W        W63477  17.732  36.878  12.443
99545W        W63478  13.631  40.412  13.462
99546W        W63479  15.635   1.770   1.815
99547W        W63480  39.882   6.313  10.993
99548W        W63481  37.376  29.640   2.677
99549W        W63482   1.291  12.638   4.616
99550W        W63483   2.882   5.704   0.371
99551W        W63484   9.758  16.133  14.835
99552W        W63485   4.425  12.119  11.978
99553W        W63486  28.130   1.308   2.362
99554W        W63487   3.385  35.362  13.507
99555W        W63488  19.192  43.431  13.391
99556W        W63489  37.971  13.730   3.381
99557W        W63490  40.017  21.596   0.447
99558W        W63491  22.530   4.224  10.145
99559W        W63492  14.758  18.241  10.570
99560W        W63493  40.877  21.622  11.611
99561W        W63494  41.385  41.511  12.960
99562W        W63495   3.421  32.026  14.426
99563W        W63496  23.549  32.393  11.520
99564W        W63497  18.619  40.806  12.022
99565W        W63498  37.353  12.262  13.489
99566W        W63499   0.954  37.947   3.797
99567W        W63500  12.342  34.106  10.408
99568W        W63501  11.813  16.748   2.399
99569W        W63502  29.132   2.805  12.369
99570W        W63503  32.631  38.922   3.296
99571W        W63504  13.670  19.061  11.910
99572W        W63505  21.570   3.349  11.984
99573W        W63506   0.368   9.701   1.836
99574W        W63507  27.096  42.381   9.995
99575W        W63508  17.556  30.124  11.096
99576W        W63509  21.615  20.607  10.471
99577W        W63510  16.601  28.015  12.446
99578W        W63511  17.734   3.830   3.737
99579W        W63512  26.508  41.897  13.336
99580W        W63513  30.525  32.119   4.192
99581W        W63514  39.441   9.774   0.955
99582W        W63515  14.166  12.124  10.564
99583W        W63516   1.955   1.351   0.924
99584W        W63517   9.794  35.489   1.696
99585W        W63518  39.322  43.356   3.266
99586W        W63519  42.920  18.743   1.362
99587W        W63520   2.402  40.500  11.530
99588W        W63521  40.399  12.130   0.919
99589W        W63522  28.674   8.276  14.501
99590W        W63523   5.839  30.444  10.538
99591W        W63524   0.982  25.514   4.259
99592W        W63525  32.523  35.886   4.342
99593W        W63526   2.815  44.387   2.291
99594W        W63527  24.512  22.082  10.896
99595W        W63528   7.284  28.994   4.287
99596W        W63529   0.840  28.502  12.996
99597W        W63530  24.067  33.021   0.404
99598W        W63531  30.945   8.288   0.841
99599W        W63532  34.912   6.412  12.825
99600W        W63533   9.231  19.218   2.878
99601W        W63534  42.364  23.097  14.493
99602W        W63535  27.033  36.561   2.710
99603W        W63536  17.602  28.102   4.352
99604W        W63537  40.392   0.873   3.250
99605W        W63538  15.306   0.784  12.986
99606W        W63539  13.326  18.181  14.338
99607W        W63540  25.122  44.864   4.218
99608W        W63541  43.423  23.237  13.393
99609W        W63542  25.503  33.074  11.574
99610W        W63543  20.594  31.514   2.672
99611W        W63544  38.015   8.678   2.755
99612W        W63545  43.884   7.841  11.050
99613W        W63546  31.111   3.287   2.719
99614W        W63547  18.083   3.216   4.230
99615W        W63548  27.620   3.741  12.536
99616W        W63549  11.800  13.791   3.190
99617W        W63550  17.108  44.432  13.909
99618W        W63551  18.203   0.373  10.476
99619W        W63552  33.537  25.571   4.203
99620W        W63553  16.110  34.876  14.922
99621W        W63554  33.899  14.821  12.578
99622W        W63555   7.357  39.873  13.058
99623W        W63556  37.424  22.182  11.394
99624W        W63557  14.208  21.562  14.483
99625W        W63558  20.040  18.758   3.786
99626W        W63559  42.468  19.751  10.906
99627W        W63560  23.029  31.498   4.345
99628W        W63561  42.027   7.724   1.746
99629W        W63562  39.899  14.143   1.248
99630W        W63563   6.741  24.481  12.937
99631W        W63564  27.692  41.534  12.381
99632W        W63565   6.731  18.630   2.370
99633W        W63566   3.879  41.028   2.693
99634W        W63567  12.298  29.642  12.384
99635W        W63568  13.624  25.096   1.389
99636W        W63569  13.835   5.689  11.928
99637W        W63570  34.066  26.585  10.458
99638W        W63571  11.745  28.942   4.128
99639W        W63572  15.602  28.016   2.200
99640W        W63573  35.995  30.975  10.554
99641W        W63574  13.229  15.742   2.751
99642W        W63575  26.554  40.998  10.545
99643W        W63576  37.919  41.924   0.806
99644W        W63577  24.977  16.278  10.953
99645W        W63578  10.873  39.512   3.289
99646W        W63579  32.101  10.256   2.902
99647W        W63580  40.404  33.930  12.542
99648W        W63581  18.281   1.811   0.843
99649W        W63582   9.819  12.187   3.165
99650W        W63583  44.432   7.835   3.762
99651W        W63584  14.137  39.391  14.319
99652W        W63585   9.661  26.680   0.929
99653W        W63586  22.559  41.032   3.640
99654W        W63587  43.986  23.224  11.891
99655W        W63588   7.791  10.291   2.392
99656W        W63589   9.667  17.289   1.849
99657W        W63590  37.536  26.055   4.746
99658W        W63591  24.164  44.870   9.588
99659W        W63592  38.857  11.834  14.325
99660W        W63593  33.527  13.620   2.356
99661W        W63594  19.650  19.063  14.992
99662W        W63595   8.195   8.773   4.816
99663W        W63596  39.527  32.401  13.942
99664W        W63597  31.568  36.068   2.778
99665W        W63598  24.480   7.288  12.064
99666W        W63599  30.048  44.330   4.804
99667W        W63600   5.292  17.608   3.658
99668W        W63601  35.955   7.345  12.562
99669W        W63602  13.209  19.125  11.531
99670W        W63603  23.644   7.231   0.321
99671W        W63604  32.579  36.015  13.914
99672W        W63605   9.276  36.860  14.412
99673W        W63606  21.677   7.359   1.437
99674W        W63607  37.985  17.799  12.897
99675W        W63608  41.404  35.490   1.363
99676W        W63609  42.930  20.089  14.382
99677W        W63610   8.206  31.433  11.986
99678W        W63611   2.816  19.706  13.346
99679W        W63612  27.953  29.017  10.100
99680W        W63613  17.645  44.869   3.714
99681W        W63614  13.242  23.629   4.282
99682W        W63615  15.636  14.744   4.179
99683W        W63616  24.069  20.146  12.061
99684W        W63617  19.633  40.831  14.448
99685W        W63618  38.845  41.422  11.517
99686W        W63619  38.958  16.792   1.866
99687W        W63620  35.524   9.188   4.804
99688W        W63621  24.064   8.742  10.120
99689W        W63622   5.930  28.171   2.210
99690W        W63623   9.224  43.798   3.678
99691W        W63624  19.048  30.086  14.352
99692W        W63625  37.516  16.790  11.490
99693W        W63626  15.314  23.035  13.475
99694W        W63627  13.613  41.500   1.913
99695W        W63628   9.882  21.539  11.371
99696W        W63629  44.417  31.516  12.471
99697W        W63630   0.258  29.467   0.462
99698W        W63631  12.776  44.427  12.451
99699W        W63632  33.935  14.126  13.854
99700W        W63633  30.474   6.313   2.757
99701W        W63634  35.478  19.160   2.312
99702W        W63635  14.334  24.698  12.857
99703W        W63636   3.221  24.156  14.865
99704W        W63637  39.465  23.083   3.312
99705W        W63638   7.780   2.775   3.844
99706W        W63639  14.152  24.058   2.868
99707W        W63640  18.620  18.094  13.419
99708W        W63641  42.808  43.953   0.266
99709W        W63642  20.273  30.569  12.829
99710W        W63643  14.213  29.137   0.863
99711W        W63644  34.031  16.808  11.927
99712W        W63645  27.950   2.306   4.162
99713W        W63646  28.046  16.616   0.341
99714W        W63647  35.016  27.033   4.121
99715W        W63648  28.098  16.609  14.342
99716W        W63649  31.906  23.672  11.972
99717W        W63650  36.490   5.889   2.365
99718W        W63651  31.134   9.207  13.021
99719W        W63652  17.188  16.658   0.391
99720W        W63653  37.475  13.783   3.244
99721W        W63654  29.148  22.536   3.383
99722W        W63655  22.649  15.280  11.513
99723W        W63656  17.600   0.777   3.651
99724W        W63657  15.301  24.111  13.009
99725W        W63658  39.556  40.859   2.403
99726W        W63659  28.678  26.656  11.551
99727W        W63660   9.241  32.430   3.173
99728W        W63661   0.936  38.952  13.950
99729W        W63662  44.808  27.650  10.551
99730W        W63663  40.367  15.635  11.410
99731W        W63664  44.465  43.477   4.340
99732W        W63665  18.706  27.479  12.034
99733W        W63666  19.757  13.152   1.259
99734W        W63667   1.350  24.181   1.305
99735W        W63668  14.781   8.839   4.833
99736W        W63669  29.438  41.423  12.458
99737W        W63670  15.131  26.524   4.230
99738W        W63671  40.427  23.050   3.281
99739W        W63672  42.459  27.492  13.384
99740W        W63673  18.225  42.319  11.046
99741W        W63674  15.285  14.755   4.835
99742W        W63675  40.309  27.141  11.564
99743W        W63676  32.608  33.505  10.904
99744W        W63677  43.011  26.491   4.259
99745W        W63678  35.926   3.364   1.791
99746W        W63679  29.960  43.827  11.505
99747W        W63680  17.563  37.404   9.592
99748W        W63681  40.515  15.625   2.413
99749W        W63682  22.539  39.849  10.050
99750W        W63683  11.221  10.847   2.699
99751W        W63684   5.928  43.958  12.372
99752W        W63685  29.106   3.821   4.210
99753W        W63686   9.292  22.121   3.800
99754W        W63687  41.513  31.096  13.841
99755W        W63688  20.234   5.759   0.417
99756W        W63689   5.278  25.627   3.656
99757W        W63690  11.750  41.319  14.975
99758W        W63691  34.963  13.737  12.012
99759W        W63692  16.110  22.729  14.834
99760W        W63693   9.234   9.655   2.410
99761W        W63694  32.611  14.817   4.228
99762W        W63695  18.175   8.778   2.308
99763W        W63696  17.718  10.742  10.561
99764W        W63697  44.376  17.159   1.423
99765W        W63698   6.212  41.856  13.051
99766W        W63699  14.277   1.804   2.301
99767W        W63700  37.890  34.612  12.007
99768W        W63701  17.655  44.427  14.304
99769W        W63702   2.428  24.662   0.815
99770W        W63703  30.975  29.431   1.400
99771W        W63704  18.626  44.482   1.694
99772W        W63705  24.986  14.612   1.312
99773W        W63706  25.193  31.034   2.798
99774W        W63707  27.541  21.700  14.339
99775W        W63708   5.823   0.923  13.401
99776W        W63709  34.881   0.824   4.736
99777W        W63710   1.263  43.459   0.362
99778W        W63711  34.069  24.659  10.472
99779W        W63712  13.148  19.180  12.540
99780W        W63713  13.655   1.822   1.281
99781W        W63714  19.543  32.462   3.780
99782W        W63715   4.912  18.204   5.321
99783W        W63716   7.665  17.135   1.861
99784W        W63717  32.455  12.747  11.401
99785W        W63718  27.654  37.995   0.871
99786W        W63719  32.975  21.203  11.392
99787W        W63720   3.800  19.722   0.309
99788W        W63721  20.547  20.573  11.094
99789W        W63722  41.429  38.946  13.815
99790W        W63723  39.912  30.525  14.857
99791W        W63724  35.103  11.329  12.894
99792W        W63725  26.029  10.196  11.533
99793W        W63726  15.179   4.255   0.828
99794W        W63727  12.246   0.824  10.993
99795W        W63728  18.737  25.528  10.481
99796W        W63729  36.866  40.497   1.890
99797W        W63730  13.351   9.727  11.537
99798W        W63731  22.505  10.191  11.581
99799W        W63732   5.765  30.095   1.876
99800W        W63733  23.093   7.906  12.483
99801W        W63734  42.017   1.241  11.427
99802W        W63735  29.171  32.622   1.346
99803W        W63736  27.034  24.221   4.815
99804W        W63737  25.515  26.138  13.323
99805W        W63738  19.714  35.484  10.926
99806W        W63739  30.548  27.595  12.076
99807W        W63740  42.984  34.986   4.726
99808W        W63741  37.890   4.917  12.450
99809W        W63742  39.450   6.796  12.987
99810W        W63743  39.553  27.506  10.628
99811W        W63744  22.224  44.416   1.393
99812W        W63745  17.174   1.422  14.891
99813W        W63746  27.092  18.127   1.243
99814W        W63747  33.396   9.696   4.233
99815W        W63748  41.007  13.195   0.869
99816W        W63749  15.782  12.702  14.321
99817W        W63750   6.743  43.349  13.999
99818W        W63751  34.059   6.324  14.398
99819W        W63752  15.672  23.723   3.288
99820W        W63753   3.935   4.713   1.895
99821W        W63754  34.957   2.275   5.141
99822W        W63755  16.246  44.944  12.380
99823W        W63756  20.610  13.837   4.729
99824W        W63757  33.485  44.354   0.438
99825W        W63758   3.395   4.791   2.345
99826W        W63759  29.646  40.871   1.754
99827W        W63760   4.227  24.716  10.554
99828W        W63761  30.032  34.975  12.884
99829W        W63762  10.663  43.885  12.342
99830W        W63763  29.049   2.225   2.676
99831W        W63764  43.952  30.024   4.226
99832W        W63765   1.928  21.745  12.948
99833W        W63766  19.150  31.456   3.800
99834W        W63767   2.966  31.130  14.427
99835W        W63768  10.140  13.321  13.870
99836W        W63769  38.354  17.692   0.756
99837W        W63770  15.814  15.199   0.800
99838W        W63771   0.315  14.204  12.438
99839W        W63772  23.656  14.830  11.885
99840W        W63773  28.990  35.030  14.356
99841W        W63774  42.979  35.035  10.053
99842W        W63775  44.007  12.121   2.223
99843W        W63776  43.395   9.377  12.850
99844W        W63777  24.123  30.536  12.894
99845W        W63778  12.621  40.364  11.894
99846W        W63779  28.083   6.286   1.799
99847W        W63780   2.915  34.072   2.808
99848W        W63781   3.365   0.811   0.782
99849W        W63782   3.746  20.213   4.834
99850W        W63783  35.385  38.899   2.747
99851W        W63784  16.227  12.217   0.326
99852W        W63785  15.256  21.525   2.233
99853W        W63786  43.515  21.027   4.787
99854W        W63787  44.870  21.060   3.343
99855W        W63788  36.548  37.947  13.429
99856W        W63789  33.002  17.723  14.302
99857W        W63790   8.878  22.648  11.861
99858W        W63791  36.946  26.529   1.339
99859W        W63792  18.064  31.057   3.358
99860W        W63793  40.336   3.863  10.584
99861W        W63794  28.578  33.506   4.122
99862W        W63795   8.690  27.033   1.827
99863W        W63796  41.488  19.063   3.869
99864W        W63797  18.202  35.501  10.989
99865W        W63798  11.681   8.895   5.286
99866W        W63799  38.450  20.177  12.557
99867W        W63800  38.857  20.124   0.283
99868W        W63801  36.901  41.454   2.899
99869W        W63802  18.632  18.611   5.180
99870W        W63803   3.436  17.189   2.308
99871W        W63804   1.341  23.686  11.904
99872W        W63805  19.075   7.286  11.542
99873W        W63806  16.245  15.618  14.428
99874W        W63807  38.899  31.598   1.740
99875W        W63808  24.211  20.223  12.511
99876W        W63809  25.168   3.395   0.734
99877W        W63810  42.973  33.467   2.369
99878W        W63811   5.808  23.133  11.968
99879W        W63812   5.888  39.894  13.900
99880W        W63813  42.354   8.172  10.517
99881W        W63814  42.450  12.665   4.341
99882W        W63815  22.999  16.161  13.049
99883W        W63816   6.712  17.651   0.741
99884W        W63817   1.972  11.133   2.884
99885W        W63818  31.005   1.911  12.004
99886W        W63819   4.788  28.561  12.081
99887W        W63820   4.784  23.167  13.541
99888W        W63821  24.667  22.568  12.906
99889W        W63822  15.108  36.977   2.380
99890W        W63823  29.658  32.962   3.686
99891W        W63824  43.848  14.673   4.319
99892W        W63825  20.030  12.683  11.431
99893W        W63826  19.041  19.122  13.003
99894W        W63827  24.601  30.096   1.726
99895W        W63828   2.471  32.515  14.029
99896W        W63829  14.147  27.059   0.767
99897W        W63830   0.493  30.061   0.789
99898W        W63831  29.074  39.838  14.395
99899W        W63832   1.411  21.615   1.303
99900W        W63833  18.706  22.582  13.321
99901W        W63834  28.085  15.774  12.406
99902W        W63835  16.721  42.828   2.403
99903W        W63836   5.760  12.241  11.447
99904W        W63837  29.535  11.355   3.856
99905W        W63838  25.543  31.516  14.404
99906W        W63839   3.900  29.986  14.459
99907W        W63840  38.048   5.730   0.277
99908W        W63841  26.649  31.615   1.342
99909W        W63842  33.965  43.794   3.186
99910W        W63843  36.847  35.883  10.488
99911W        W63844  44.812  37.000  12.090
99912W        W63845   6.357  20.542   4.114
99913W        W63846  17.289  12.242   3.343
99914W        W63847  32.037  16.797   3.770
99915W        W63848  35.360  23.073   0.336
99916W        W63849   1.408  39.343   0.252
99917W        W63850  14.826  18.668   3.321
99918W        W63851  16.600  30.024  14.892
99919W        W63852  35.453  31.444   3.700
99920W        W63853  11.639   7.213   3.855
99921W        W63854  37.887  14.115   0.308
99922W        W63855  21.162  35.943   3.725
99923W        W63856  43.773  22.180  14.821
99924W        W63857  31.530  37.374  11.486
99925W        W63858  34.912  43.300   3.804
99926W        W63859  25.486  14.664   1.914
99927W        W63860  22.049  14.236  14.837
99928W        W63861  40.914  24.069   2.882
99929W        W63862  12.350  25.561   2.385
99930W        W63863  38.025  11.758  12.885
99931W        W63864  42.285  20.220   3.835
99932W        W63865  42.432  43.449   0.255
99933W        W63866   3.252  10.772  13.469
99934W        W63867  13.119  16.139   0.802
99935W        W63868  11.161  11.761  11.444
99936W        W63869  36.002  16.174  11.996
99937W        W63870   8.271  11.778  11.481
99938W        W63871  28.187   0.767   0.327
99939W        W63872   7.253   7.798  14.838
99940W        W63873  44.847   5.870  10.951
99941W        W63874  32.471  32.429   4.769
99942W        W63875   6.918  16.651   0.964
99943W        W63876   2.444  23.075  12.960
99944W        W63877   0.950  28.108  13.310
99945W        W63878  41.526  24.012  11.083
99946W        W63879  36.041  32.970  11.891
99947W        W63880  41.020  14.192  14.293
99948W        W63881   5.274  15.737  14.811
99949W        W63882  19.750  16.250  13.807
99950W        W63883   8.226   0.788  11.874
99951W        W63884  29.998  32.432  12.027
99952W        W63885  42.352  17.203   1.876
99953W        W63886  30.614  42.948  13.992
99954W        W63887  27.159  40.358  12.025
99955W        W63888  13.228  42.799  10.120
99956W        W63889  11.236   6.281   4.197
99957W        W63890  18.143  43.308  12.529
99958W        W63891  18.269   1.315  12.558
99959W        W63892  19.714  23.661  11.112
99960W        W63893   3.416  35.543   1.267
99961W        W63894   6.765  37.481  13.426
99962W        W63895   2.830   7.216  12.537
99963W        W63896   4.772  16.276   4.254
99964W        W63897  32.491  37.957   3.653
99965W        W63898   7.362   0.469   0.422
99966W        W63899  11.286  21.648  14.837
99967W        W63900   3.324  38.500   3.867
99968W        W63901  21.152   1.357   1.278
99969W        W63902   1.421  28.008   4.836
99970W        W63903  44.900   1.936   1.220
99971W        W63904  43.894  36.354   0.932
99972W        W63905  15.617   8.235   0.425
99973W        W63906  35.471  40.977   2.733
99974W        W63907  21.126  42.811  14.502
99975W        W63908  22.073  27.107   4.263
99976W        W63909   8.370  24.497  12.521
99977W        W63910   9.274  10.329   0.394
99978W        W63911  40.489  38.031  12.989
99979W        W63912  13.171   6.380  14.355
99980W        W63913   5.428  18.591  13.798
99981W        W63914  27.062  23.084   3.837
99982W        W63915  33.898  16.786   3.699
99983W        W63916  19.694  33.495  10.975
99984W        W63917  19.105  13.209  13.791
99985W        W63918  32.630  33.476  12.966
99986W        W63919  39.510  10.715   2.297
99987W        W63920  39.379  13.270  14.905
99988W        W63921  24.115   9.273  10.495
99989W        W63922   5.319  22.723   3.347
99990W        W63923  15.268  41.398  14.860
99991W        W63924  23.150  31.029  12.398
99992W        W63925  27.512  27.674   1.748
99993W        W63926  16.091  41.965   0.414
99994W        W63927   3.832  18.067   0.960
99995W        W63928  35.953  30.131   2.341
99996W        W63929  42.966  12.702  10.575
99997W        W63930  15.802  33.892  10.454
99998W        W63931   9.668   1.365  14.427
99999W        W63932  30.983  12.827  11.535
    0W        W63933  44.294  25.201   3.753
    1W        W63934   2.777  14.314  14.760
    2W        W63935  40.535  25.532  14.443
    3W        W63936  35.581   9.761   3.158
    4W        W63937  40.459  14.215   2.407
    5W        W63938  13.618  37.942  12.465
    6W        W63939  17.271   7.345  13.546
    7W        W63940  19.543  38.851  13.984
    8W        W63941  25.171  14.826   2.341
    9W        W63942  24.525  43.349  14.862
   10W        W63943   0.784  18.675  12.823
   11W        W63944  27.560  33.917  13.035
   12W        W63945  18.684  16.142   0.378
   13W        W63946   4.771  31.622  11.444
   14W        W63947  41.833  31.898  11.060
   15W        W63948  28.558   9.266  10.491
   16W        W63949  35.513  37.876   2.756
   17W        W63950  10.718  28.058   3.687
   18W        W63951  12.121  36.550   1.309
   19W        W63952  40.344  34.940   4.800
   20W        W63953   4.238  23.503   0.246
   21W        W63954  14.688  12.625   0.785
   22W        W63955  37.552  43.884   1.219
   23W        W63956  21.529   8.883   1.321
   24W        W63957   1.945  27.102   1.317
   25W        W63958   6.847  28.000   5.296
   26W        W63959   9.878  39.360   4.255
   27W        W63960   7.834  39.022  11.060
   28W        W63961  40.345  33.406  11.547
   29W        W63962  40.922  13.675   2.712
   30W        W63963  10.349  32.904   0.889
   31W        W63964  35.475  30.620   0.413
   32W        W63965  30.540  25.156   3.337
   33W        W63966  14.781  13.692   1.405
   34W        W63967  13.795  15.201   4.298
   35W        W63968  29.557  19.653   1.819
   36W        W63969   4.730  10.330   0.739
   37W        W63970  11.708  35.922  13.872
   38W        W63971   2.931  29.013  11.941
   39W        W63972   3.408  28.186   0.814
   40W        W63973  20.725  39.464   4.747
   41W        W63974  31.494   7.275  10.571
   42W        W63975  29.013   2.754  10.593
   43W        W63976  11.700  17.202   0.414
   44W        W63977  11.275  36.522   2.376
   45W        W63978   5.887   7.796   2.284
   46W        W63979  12.841  33.119  14.904
   47W        W63980  13.134  42.524  14.821
   48W        W63981  36.007  11.755   1.250
   49W        W63982  15.274   4.317  12.897
   50W        W63983   6.739  27.638   1.803
   51W        W63984  23.526  23.117  11.038
   52W        W63985   2.295  34.015  13.359
   53W        W63986   7.788   0.826   2.353
   54W        W63987  17.062  44.411  12.578
   55W        W63988  17.140   2.306  14.389
   56W        W63989   5.715  22.554  10.478
   57W        W63990  44.478  30.065   1.913
   58W        W63991  20.620  12.775   1.237
   59W        W63992  36.976  14.145  11.600
   60W        W63993   1.307  17.781   4.780
   61W        W63994  23.143  32.590   4.688
   62W        W63995  14.688   8.744  14.382
   63W        W63996  36.863  22.693   3.700
   64W        W63997  38.512  13.724  10.538
   65W        W63998  18.257  10.642   4.296
   66W        W63999  26.526   4.334   3.743
   67W        W64000  21.066   1.812   1.412
   68W        W64001   9.820  38.523   4.271
   69W        W64002  40.955  30.076   1.231
   70W        W64003  20.186   7.905   4.610
   71W        W64004  35.374  43.344  13.495
   72W        W64005   1.952  36.500   4.624
   73W        W64006  12.345   4.420  12.861
   74W        W64007  20.233  42.365   4.154
   75W        W64008  33.114  18.552   3.760
   76W        W64009  28.078  18.075   3.653
   77W        W64010  43.498  34.534  14.471
   78W        W64011  34.472  27.578   2.267
   79W        W64012  44.780  14.164  12.857
   80W        W64013  38.027  24.551  11.544
   81W        W64014  12.752   4.273   1.355
   82W        W64015  44.850   4.847  12.087
   83W        W64016  36.442  12.639  13.030
   84W        W64017  28.958  41.015  11.454
   85W        W64018  35.419  34.945  13.446
   86W        W64019  38.327  37.839  13.529
   87W        W64020  30.531  18.187   3.252
   88W        W64021  18.056  13.314   4.618
   89W        W64022  42.345   6.415  11.105
   90W        W64023  29.617  18.262  12.909
   91W        W64024   8.853  39.406  13.420
   92W        W64025  37.523  38.003   2.363
   93W        W64026  24.028  34.963  12.378
   94W        W64027   6.210   4.253  11.043
   95W        W64028  31.639  42.812  13.059
   96W        W64029  29.514  18.742  11.943
   97W        W64030  11.666  10.800   1.919
   98W        W64031   6.844  42.916  12.574
   99W        W64032  13.707  21.145   0.955
  100W        W64033  36.956  33.960  12.557
  101W        W64034  23.618  27.987  12.907
  102W        W64035  20.753  11.674  11.545
  103W        W64036  17.583  35.569  13.403
  104W        W64037  40.912  13.302   2.215
  105W        W64038  14.171  19.189  14.353
  106W        W64039  25.081  10.828   1.850
  107W        W64040   4.234  23.605  11.503
  108W        W64041  42.493  32.894  14.819
  109W        W64042   4.212  13.128  14.311
  110W        W64043   8.873   6.899   0.934
  111W        W64044  19.056  16.651  14.832
  112W        W64045  23.518   3.924  14.782
  113W        W64046  38.485   4.793  14.785
  114W        W64047   1.771   3.442   3.218
  115W        W64048  19.063  44.489  14.842
  116W        W64049  37.535   6.333   1.889
  117W        W64050  29.110  34.542   2.753
  118W        W64051  16.178  12.138  13.520
  119W        W64052   2.799   0.280   4.754
  120W        W64053  13.713   4.321   1.859
  121W        W64054  24.588  37.356   9.973
  122W        W64055   2.278  13.752  10.103
  123W        W64056   4.367  15.709   5.594
  124W        W64057  20.702  10.211   0.419
  125W        W64058   6.325  28.127  11.864
  126W        W64059  23.225  21.129  13.508
  127W        W64060  14.336  31.628   2.247
  128W        W64061  41.893  16.157  10.539
  129W        W64062  27.079  19.263  14.805
  130W        W64063  20.149   6.858   3.758
  131W        W64064  41.824  35.095   3.188
  132W        W64065  36.460  25.118  12.929
  133W        W64066   3.915  25.595   1.378
  134W        W64067   1.473  24.690  13.461
  135W        W64068  35.884  28.171   1.216
  136W        W64069   5.926   2.885   0.850
  137W        W64070  27.502  27.614  13.024
  138W        W64071   3.797  30.623  11.116
  139W        W64072  24.130  38.539  14.986
  140W        W64073  10.261  29.918   2.279
  141W        W64074  28.022   3.811  12.418
  142W        W64075  31.586  38.450   1.776
  143W        W64076  36.083  40.941  10.979
  144W        W64077  38.436  42.951   1.819
  145W        W64078   1.383  37.869   1.260
  146W        W64079   6.759  31.036  11.605
  147W        W64080  27.553  11.301  13.038
  148W        W64081  34.598  35.868  13.032
  149W        W64082  20.537  27.115   1.443
  150W        W64083  34.389  29.035  13.352
  151W        W64084   5.257   4.365   2.709
  152W        W64085  12.344  15.816   4.244
  153W        W64086  21.074  21.051  12.902
  154W        W64087   6.250   8.842   2.373
  155W        W64088   7.227  16.081  14.287
  156W        W64089  36.504  43.332   2.338
  157W        W64090   4.918  23.729  13.533
  158W        W64091  22.056  34.033  11.573
  159W        W64092   8.687  21.512   1.866
  160W        W64093  21.651  20.721  11.923
  161W        W64094  39.021   6.891   1.415
  162W        W64095   7.389  25.627  12.059
  163W        W64096  37.388  21.098  10.496
  164W        W64097  37.490   7.842   0.462
  165W        W64098  12.177   5.756   1.257
  166W        W64099  27.606  30.431  13.516
  167W        W64100   1.334   9.190   0.747
  168W        W64101  14.109   1.351  12.900
  169W        W64102  21.603  38.958   0.885
  170W        W64103   3.358  17.668   3.660
  171W        W64104  41.930  36.355  10.941
  172W        W64105  15.637  11.213   3.313
  173W        W64106  16.290  26.951  11.397
  174W        W64107  44.330  15.703   4.689
  175W        W64108  44.949  17.242  14.953
  176W        W64109   0.788   8.655  11.860
  177W        W64110  25.057  22.566   4.203
  178W        W64111   1.315  10.309  14.461
  179W        W64112  13.120  40.882  12.907
  180W        W64113  41.907  15.135  14.284
  181W        W64114   8.713  38.957   3.372
  182W        W64115  19.186  22.739  14.932
  183W        W64116  19.132  43.016   0.807
  184W        W64117  39.983   1.426   4.831
  185W        W64118  41.412  22.642   3.665
  186W        W64119  24.578  23.158   0.418
  187W        W64120  39.932  36.499   2.332
  188W        W64121  16.580  41.516  11.500
  189W        W64122  35.921   3.422  14.821
  190W        W64123  42.919  41.991  14.464
  191W        W64124   0.396  34.994   3.297
  192W        W64125  31.464  39.546   3.201
  193W        W64126  34.020  10.317  12.392
  194W        W64127  17.630  40.993  14.897
  195W        W64128   8.309   6.798  11.380
  196W        W64129  38.561   3.410   1.349
  197W        W64130  28.464  13.779   2.349
  198W        W64131   6.385   8.877  13.371
  199W        W64132  39.889  15.729  14.028
  200W        W64133  17.241  35.991   4.331
  201W        W64134  10.727  36.549  12.346
  202W        W64135  36.447  26.141  14.322
  203W        W64136  44.919  35.520   4.218
  204W        W64137  43.964  30.916  10.637
  205W        W64138  21.613  19.243   4.153
  206W        W64139  42.854  32.142  10.477
  207W        W64140  14.708  35.901  12.018
  208W        W64141  22.649  26.095   3.706
  209W        W64142  33.946  37.438   0.287
  210W        W64143  11.209  40.907   2.253
  211W        W64144  18.602  11.273  12.014
  212W        W64145   6.832  42.476  12.519
  213W        W64146  25.052  19.674  12.076
  214W        W64147  22.055  16.218  10.976
  215W        W64148  32.135  42.456  11.868
  216W        W64149  22.071  11.272   4.140
  217W        W64150   0.885  39.992   0.807
  218W        W64151   4.364  15.666   5.192
  219W        W64152  21.085   9.765  10.003
  220W        W64153  28.618  44.843   3.764
  221W        W64154  27.983  34.904   2.402
  222W        W64155  36.056  25.625   4.199
  223W        W64156  36.072  30.493  13.444
  224W        W64157   1.253  18.790  11.034
  225W        W64158  29.062  43.972   1.931
  226W        W64159  34.480  16.609  12.913
  227W        W64160   5.880  24.052  13.810
  228W        W64161   9.306  39.409   4.279
  229W        W64162  28.120  13.115  13.502
  230W        W64163  37.548  18.589  12.350
  231W        W64164  13.187  33.932   2.887
  232W        W64165  39.984  35.541  13.422
  233W        W64166  16.582  37.409  12.004
  234W        W64167  38.382  36.008   0.753
  235W        W64168  44.962   8.347   2.844
  236W        W64169  39.430  14.315   4.115
  237W        W64170   8.886  21.146   2.805
  238W        W64171  11.724  41.361   3.240
  239W        W64172  22.175  20.580  12.508
  240W        W64173   3.332  39.890  12.051
  241W        W64174  41.346  27.999  12.527
  242W        W64175  17.234  19.248  11.565
  243W        W64176  35.454  21.584   3.242
  244W        W64177  14.693   3.832  13.902
  245W        W64178   8.700  23.185  12.388
  246W        W64179  24.054  32.525  14.024
  247W        W64180  22.586  26.579  13.514
  248W        W64181   1.863  17.795   2.774
  249W        W64182  17.783  25.155   1.867
  250W        W64183  43.404  13.822   1.420
  251W        W64184   8.295   1.242   0.325
  252W        W64185  30.017  26.158   0.873
  253W        W64186  10.188  13.699   2.324
  254W        W64187   1.927  37.002  14.992
  255W        W64188  29.509  10.793  12.358
  256W        W64189  22.558  13.732  12.499
  257W        W64190  17.137  30.023  12.536
  258W        W64191   6.749  17.172   2.211
  259W        W64192  30.611   2.449   4.121
  260W        W64193  30.105   2.297  11.602
  261W        W64194   0.876  34.552   2.841
  262W        W64195   1.452   2.468  12.385
  263W        W64196  36.558   3.781  11.527
  264W        W64197  29.622  40.829  11.972
  265W        W64198  20.068  33.084  11.886
  266W        W64199  13.775   3.779   1.862
  267W        W64200  24.136  39.032   1.766
  268W        W64201  44.799   9.709   1.314
  269W        W64202  29.505  15.166  10.549
  270W        W64203   3.835  38.472  13.833
  271W        W64204   8.812  15.260  11.076
  272W        W64205  17.164  22.042  10.440
  273W        W64206  37.917   0.369   3.237
  274W        W64207  17.285  22.052  13.910
  275W        W64208  35.603   4.805  12.843
  276W        W64209  35.453  26.079   2.749
  277W        W64210  40.522  19.561  10.925
  278W        W64211  40.837  27.996  14.001
  279W        W64212  17.632  21.514  13.406
  280W        W64213  32.077  18.667   3.253
  281W        W64214  10.664  40.042  13.062
  282W        W64215  35.535   5.784  12.458
  283W        W64216  37.883  26.029   0.911
  284W        W64217  24.718  28.097  12.045
  285W        W64218   4.802  17.123   1.429
  286W        W64219   4.778  31.648  10.467
  287W        W64220  22.050  14.835   1.925
  288W        W64221  25.086  31.424  11.554
  289W        W64222  21.084  35.514   3.807
  290W        W64223  17.798  41.927   4.255
  291W        W64224   7.802  38.841  11.574
  292W        W64225  24.701  38.565  14.445
  293W        W64226  35.497  24.706   2.677
  294W        W64227  24.713   0.799  13.836
  295W        W64228  40.997   5.798   0.755
  296W        W64229   5.433  36.084  14.903
  297W        W64230  32.896   5.251   0.760
  298W        W64231  37.381  13.715   2.338
  299W        W64232   6.245  12.127  11.519
  300W        W64233   0.814  16.615  11.077
  301W        W64234   3.848  21.622  14.032
  302W        W64235  42.973  35.420   9.478
  303W        W64236  22.166  32.585  13.480
  304W        W64237   8.288  39.387   4.796
  305W        W64238  43.832   7.352   2.783
  306W        W64239  24.691  26.484  10.430
  307W        W64240  22.237   3.868   4.770
  308W        W64241  36.893   4.273   3.244
  309W        W64242  33.999  39.033   1.900
  310W        W64243  32.550   3.236  10.478
  311W        W64244   2.250  22.110  13.868
  312W        W64245  10.823  28.012   0.317
  313W        W64246   7.745  14.186   4.228
  314W        W64247  29.004  35.937   4.250
  315W        W64248  20.585   1.880  13.832
  316W        W64249  19.551  43.352  10.902
  317W        W64250  40.931  17.210   2.334
  318W        W64251   2.724  16.106  14.453
  319W        W64252  41.931  38.845  12.064
  320W        W64253  15.588  13.648   4.707
  321W        W64254  42.389  20.582  11.913
  322W        W64255  42.805  10.159  13.421
  323W        W64256   6.764  29.970  13.010
  324W        W64257  13.333  23.569  12.378
  325W        W64258  24.178  11.808   3.641
  326W        W64259  34.884  20.679   2.799
  327W        W64260  12.218  40.838  11.945
  328W        W64261  40.016   4.769  13.944
  329W        W64262  24.045   6.893  14.446
  330W        W64263  13.347  24.633  11.466
  331W        W64264   0.273  13.818   2.274
  332W        W64265  35.101  30.980  14.004
  333W        W64266   0.787  15.712   3.748
  334W        W64267  43.914  38.826   4.645
  335W        W64268  36.462  38.072  11.992
  336W        W64269  26.979  16.738  14.892
  337W        W64270  25.982  37.840  12.372
  338W        W64271   4.445  10.646  14.020
  339W        W64272   5.412  13.325   3.832
  340W        W64273  15.801  19.665  10.548
  341W        W64274  16.798  40.979   0.378
  342W        W64275  24.534   9.363  10.087
  343W        W64276  10.718   6.856   4.346
  344W        W64277  34.877  21.593  13.400
  345W        W64278   3.451   4.780   0.741
  346W        W64279  33.589   0.920   0.267
  347W        W64280  32.960  30.516  12.863
  348W        W64281  44.973   8.675   1.236
  349W        W64282  16.706  20.546   4.741
  350W        W64283  28.678  24.000  12.990
  351W        W64284  10.313  28.566  13.010
  352W        W64285  12.817  15.708   3.339
  353W        W64286  33.037   7.670   1.728
  354W        W64287  24.164  30.627  14.974
  355W        W64288  41.361  28.532  11.424
  356W        W64289  40.445  12.644  12.923
  357W        W64290  22.539  21.205  12.066
  358W        W64291  39.509   7.366   3.720
  359W        W64292  21.086   4.387  12.414
  360W        W64293  14.277  13.817  12.882
  361W        W64294   3.937  32.085  14.013
  362W        W64295  23.105  12.834   3.221
  363W        W64296  33.419  16.083   2.343
  364W        W64297  15.750  30.446  14.337
  365W        W64298  21.723  16.716  10.496
  366W        W64299  40.023  38.821   0.259
  367W        W64300   4.751  27.543  10.451
  368W        W64301  24.631   1.768  14.865
  369W        W64302  37.009  29.495   1.725
  370W        W64303  31.402  41.799  13.805
  371W        W64304   8.391  23.987   3.342
  372W        W64305  20.648  40.423  11.569
  373W        W64306   8.835  11.811   4.299
  374W        W64307  13.787  14.609   4.691
  375W        W64308  44.495  14.646   2.812
  376W        W64309   0.318  21.073   4.799
  377W        W64310  23.222   9.188   4.198
  378W        W64311  29.032  33.000  10.568
  379W        W64312  19.107  29.164   4.652
  380W        W64313  31.579  17.620   3.725
  381W        W64314  22.184  39.955  13.385
  382W        W64315  17.096  15.132   4.605
  383W        W64316  26.046  22.679   2.756
  384W        W64317  13.227  37.541  13.890
  385W        W64318  12.312   3.723  13.405
  386W        W64319  38.457  18.581  11.012
  387W        W64320  31.076   2.245   3.340
  388W        W64321  22.636  38.017  11.106
  389W        W64322  20.044  34.495   2.398
  390W        W64323   5.221   9.288  10.638
  391W        W64324  30.510  31.432  14.800
  392W        W64325  37.564  13.829  10.615
  393W        W64326   9.842  39.367   1.798
  394W        W64327  12.836  19.669  14.951
  395W        W64328   0.336   4.787   4.679
  396W        W64329   3.424  22.006  14.380
  397W        W64330  21.554  23.562   0.482
  398W        W64331   5.316  21.701  14.925
  399W        W64332  17.061  29.964   3.844
  400W        W64333  17.599  29.526  12.470
  401W        W64334  15.087  15.738   4.763
  402W        W64335  15.109  31.912   3.865
  403W        W64336  25.992   1.276   1.894
  404W        W64337  14.307  16.746  10.403
  405W        W64338  36.523  20.264  12.424
  406W        W64339  37.062  43.382  10.436
  407W        W64340  31.938  31.981  11.502
  408W        W64341  13.754  44.884   0.471
  409W        W64342  40.945   9.731   1.932
  410W        W64343  17.708  11.693   3.280
  411W        W64344  13.322  38.836   1.293
  412W        W64345  24.630   2.965  12.851
  413W        W64346  15.229  34.411  13.888
  414W        W64347  22.073   8.249   3.327
  415W        W64348  26.097   9.395   0.282
  416W        W64349  21.103   9.791  11.985
  417W        W64350  19.574   8.187   0.858
  418W        W64351  21.565  30.601  11.531
  419W        W64352  10.725   2.749  14.457
  420W        W64353  14.281  26.139   3.780
  421W        W64354  22.511   3.955   4.339
  422W        W64355  26.635  25.647   5.112
  423W        W64356  42.485  24.494  11.417
  424W        W64357   9.779  12.700  11.523
  425W        W64358  31.475  18.141   3.693
  426W        W64359  16.674  31.005  12.429
  427W        W64360  43.861  29.153  14.789
  428W        W64361  37.081   6.341  14.871
  429W        W64362   8.716  37.575   3.777
  430W        W64363   3.925  24.012   2.667
  431W        W64364  11.699  18.255   3.238
  432W        W64365   8.274   9.780   0.455
  433W        W64366   3.295  20.735   3.675
  434W        W64367   7.867  15.718  11.891
  435W        W64368  12.831   5.760   0.917
  436W        W64369   6.255  21.221  11.520
  437W        W64370  40.304   6.694  14.874
  438W        W64371  41.893  30.064   3.684
  439W        W64372  32.065  24.509  14.845
  440W        W64373  33.421   7.829   1.907
  441W        W64374  12.251   8.856   3.187
  442W        W64375  40.868  17.128   1.266
  443W        W64376  40.319  33.505   5.316
  444W        W64377  29.561  28.117  10.556
  445W        W64378   6.863   3.426  12.986
  446W        W64379  15.773  31.412  14.789
  447W        W64380  39.997   6.324   4.279
  448W        W64381   5.817   2.788   5.675
  449W        W64382  31.466  20.187   3.374
  450W        W64383  35.036  19.665   1.240
  451W        W64384   4.902  24.608   9.961
  452W        W64385  27.994  41.528   2.723
  453W        W64386  14.807  30.936   2.187
  454W        W64387  16.811  41.477   1.727
  455W        W64388  16.705  15.695   0.880
  456W        W64389  29.040   5.395   4.815
  457W        W64390  30.643  26.637  14.858
  458W        W64391  26.589   7.308  11.967
  459W        W64392  26.994   6.892  12.071
  460W        W64393  29.503   2.445   3.344
  461W        W64394  26.178  13.251  13.817
  462W        W64395   5.409  29.582  11.041
  463W        W64396  17.594   1.450  14.299
  464W        W64397   9.217   4.321   5.275
  465W        W64398  33.906  19.564   1.332
  466W        W64399  41.360   5.930   4.122
  467W        W64400   8.174  10.280   4.322
  468W        W64401  10.794  22.572  12.824
  469W        W64402  18.758  10.180   2.870
  470W        W64403   4.378  40.927  11.893
  471W        W64404  28.015   7.693   0.258
  472W        W64405  11.674   2.874  13.850
  473W        W64406  14.336   1.282   2.662
  474W        W64407  22.240   4.224   3.276
  475W        W64408   8.661   5.246   2.232
  476W        W64409  18.198   5.902  14.456
  477W        W64410  17.637  17.177  14.889
  478W        W64411  41.363   5.712   2.841
  479W        W64412   9.178  41.802  11.075
  480W        W64413   4.441   1.864   0.817
  481W        W64414  33.438  30.472   4.223
  482W        W64415  43.332  35.522  12.849
  483W        W64416  21.536  26.607  13.504
  484W        W64417  26.126  13.157   3.848
  485W        W64418  29.617   2.406   2.359
  486W        W64419   0.415  19.186  14.372
  487W        W64420  44.998  42.821  12.907
  488W        W64421  15.587  35.936  11.544
  489W        W64422   7.204  43.393  14.395
  490W        W64423   7.405  37.449  11.959
  491W        W64424   9.221   3.943   2.818
  492W        W64425  21.166   5.294   4.194
  493W        W64426  25.486  15.113  11.016
  494W        W64427  37.373  28.051   4.681
  495W        W64428  22.168  16.117   4.269
  496W        W64429   6.750  41.853   4.308
  497W        W64430  37.403  30.507  11.038
  498W        W64431  35.040  18.182   3.842
  499W        W64432  12.633  39.466  11.516
  500W        W64433  27.063  32.997  14.377
  501W        W64434  44.261  27.187  10.600
  502W        W64435  36.441  22.649   5.187
  503W        W64436  42.395  33.104   0.428
  504W        W64437  18.547  37.532  12.538
  505W        W64438  27.496   7.210  13.051
  506W        W64439  30.048   5.204   4.141
  507W        W64440  20.168  30.159  11.556
  508W        W64441  16.622  17.227  14.377
  509W        W64442  44.319  17.141  13.309
  510W        W64443   7.825   3.942   4.308
  511W        W64444  34.875  39.351  12.396
  512W        W64445  17.154   8.695  12.967
  513W        W64446  15.668  19.675   5.191
  514W        W64447  40.540  11.747   2.320
  515W        W64448  33.579   2.929  10.643
  516W        W64449  21.610  15.796  10.601
  517W        W64450  41.348  23.625  11.898
  518W        W64451   5.324  36.984   3.643
  519W        W64452  12.783  37.530   3.776
  520W        W64453   9.878  41.895  14.893
  521W        W64454  24.177   4.436   4.679
  522W        W64455  33.463  29.115  12.886
  523W        W64456   7.389   0.884  12.506
  524W        W64457  15.096  22.518  14.807
  525W        W64458  15.218  43.839  14.868
  526W        W64459  32.488  30.998   1.777
  527W        W64460   4.859   0.930  14.282
  528W        W64461   0.784   8.178  12.372
  529W        W64462  16.225  24.155   2.707
  530W        W64463  24.479  26.100   0.778
  531W        W64464  22.020   4.313  12.552
  532W        W64465  38.830  18.629   1.711
  533W        W64466  18.667  10.723  14.899
  534W        W64467  41.332  38.435   1.219
  535W        W64468  12.159   9.697  14.452
  536W        W64469   6.281  23.117   2.215
  537W        W64470  24.599  25.136   1.353
  538W        W64471  43.491  41.003   4.603
  539W        W64472   2.452  42.988   2.761
  540W        W64473  11.765  37.855   2.185
  541W        W64474  43.022  43.853  12.971
  542W        W64475  15.262  15.620   0.894
  543W        W64476   3.437   4.276   0.366
  544W        W64477  16.776  21.695   4.683
  545W        W64478  14.719  32.582  14.800
  546W        W64479  38.530  24.646  13.356
  547W        W64480   8.359  26.127  13.844
  548W        W64481  24.709  12.856  13.358
  549W        W64482  31.500   7.212  13.890
  550W        W64483  23.160  12.838  14.936
  551W        W64484   3.955  33.885  12.374
  552W        W64485  34.420  41.835   3.316
  553W        W64486  25.068   3.926   4.129
  554W        W64487  41.330  11.342   4.171
  555W        W64488  11.156  37.530   4.307
  556W        W64489   8.232  20.057   0.291
  557W        W64490  26.494  37.996   4.328
  558W        W64491   9.811  14.331   3.637
  559W        W64492   5.781   4.424   0.890
  560W        W64493  12.133  31.997   1.830
  561W        W64494   8.817  34.086  11.469
  562W        W64495  21.634  27.514   3.184
  563W        W64496  18.200  23.497  12.918
  564W        W64497  41.993  22.521  12.432
  565W        W64498  19.592  24.621  14.959
  566W        W64499  41.940  15.788   3.169
  567W        W64500  30.984  23.088  14.374
  568W        W64501  38.853  32.137  10.141
  569W        W64502  41.429  37.539   2.195
  570W        W64503  15.625  32.048   1.864
  571W        W64504  24.124   4.384  12.574
  572W        W64505  34.416  27.456  11.936
  573W        W64506  39.959  15.187  11.021
  574W        W64507  17.674  36.921   0.968
  575W        W64508   3.836  29.627   0.944
  576W        W64509  14.184  35.569  12.826
  577W        W64510  20.592   5.789  13.842
  578W        W64511  44.435  16.300   3.793
  579W        W64512  34.426  18.279   0.925
  580W        W64513  42.425   8.735  11.872
  581W        W64514  23.609  44.266   2.709
  582W        W64515  29.486  30.468  11.951
  583W        W64516  28.630  21.696  11.568
  584W        W64517  37.400   5.913  12.427
  585W        W64518  24.644   7.276  14.827
  586W        W64519  10.757  26.487  11.962
  587W        W64520  14.631  26.677  11.470
  588W        W64521   9.706  11.306   1.751
  589W        W64522   8.316  11.799  12.078
  590W        W64523  18.680  40.870  13.792
  591W        W64524   6.856  11.845  11.965
  592W        W64525  11.257   8.668  14.324
  593W        W64526   4.359   3.828  12.498
  594W        W64527  44.859   8.221   0.864
  595W        W64528  36.426  33.384   3.323
  596W        W64529  12.227  30.063   0.965
  597W        W64530  13.280   2.791  11.114
  598W        W64531  44.759  12.821  10.982
  599W        W64532   2.739   7.795  11.118
  600W        W64533  19.558  42.376  13.353
  601W        W64534  14.597  43.879  12.025
  602W        W64535   6.902  27.612  12.943
  603W        W64536  12.621   7.737   1.749
  604W        W64537   0.944   1.930  11.102
  605W        W64538   2.233  41.833   3.853
  606W        W64539  12.171  13.261  13.055
  607W        W64540  33.389   3.786   1.249
  608W        W64541  20.136  21.652   1.310
  609W        W64542   6.817   1.826   1.826
  610W        W64543  40.967   3.765   0.320
  611W        W64544  25.473   8.655  11.928
  612W        W64545  30.511  23.707   2.669
  613W        W64546  21.254  24.000   1.717
  614W        W64547  15.242   8.232   9.531
  615W        W64548  19.738  15.295   0.941
  616W        W64549  36.063  36.979  14.924
  617W        W64550  31.416  17.196  10.486
  618W        W64551   5.236   4.855  11.004
  619W        W64552  15.635  17.792  14.864
  620W        W64553  42.889  25.001  12.090
  621W        W64554  32.597  32.992   1.885
  622W        W64555  13.325  43.282   4.764
  623W        W64556  40.486  25.004   0.867
  624W        W64557  20.725   3.406   2.806
  625W        W64558  29.026  31.466   2.349
  626W        W64559  18.193   1.876   2.269
  627W        W64560  36.946  24.556  13.902
  628W        W64561  16.682  33.907   0.875
  629W        W64562   0.320  24.210  10.407
  630W        W64563  31.514  11.811   4.815
  631W        W64564  38.452  40.822  10.417
  632W        W64565  39.364  29.485   3.644
  633W        W64566  39.477  42.450  11.082
  634W        W64567   4.928  28.675   5.285
  635W        W64568  27.513  31.445  12.896
  636W        W64569  33.086  10.150  12.404
  637W        W64570   2.867  32.064  13.483
  638W        W64571  14.828   9.809   2.400
  639W        W64572  31.962  32.985   2.841
  640W        W64573  38.986   8.734   2.759
  641W        W64574   8.283  42.442  13.799
  642W        W64575  36.462  37.906  13.794
  643W        W64576  16.789  24.019  10.414
  644W        W64577  43.512  16.760   0.478
  645W        W64578  33.619  36.048   3.731
  646W        W64579  36.042  11.788   2.407
  647W        W64580  30.635   3.836   2.340
  648W        W64581  38.015  30.476  14.360
  649W        W64582  24.681  33.537   3.295
  650W        W64583   5.243  31.918   4.249
  651W        W64584   2.258  30.036  13.023
  652W        W64585  26.463   0.401   4.160
  653W        W64586  38.878  16.591  11.447
  654W        W64587   1.738  44.856   4.736
  655W        W64588   7.761  39.003  10.457
  656W        W64589   3.858  42.798   1.313
  657W        W64590  20.591  43.907   1.273
  658W        W64591  42.418  16.624  11.121
  659W        W64592  16.180  29.127   1.851
  660W        W64593   5.893   1.743   0.371
  661W        W64594   5.298   7.770   2.867
  662W        W64595  30.554  38.016   2.772
  663W        W64596  23.641  34.452  10.990
  664W        W64597  38.423  15.647  10.892
  665W        W64598  19.229  26.189  10.077
  666W        W64599   5.335  28.610   2.208
  667W        W64600  17.764  38.519  13.460
  668W        W64601  35.988  40.878  12.986
  669W        W64602  23.995  12.818   2.666
  670W        W64603  38.017  17.668  11.564
  671W        W64604  30.909  32.992  12.906
  672W        W64605  35.996  34.505  11.427
  673W        W64606  11.221   1.908   3.640
  674W        W64607  23.190  33.595   3.736
  675W        W64608  13.159  32.017   3.723
  676W        W64609  41.897   9.772  12.827
  677W        W64610  43.497   9.263  11.503
  678W        W64611  39.900  19.753  10.973
  679W        W64612  19.123   2.799  10.602
  680W        W64613  34.388  36.357   3.804
  681W        W64614   0.974  10.696   0.796
  682W        W64615  17.107  29.103  12.949
  683W        W64616  39.320  29.020  13.541
  684W        W64617  17.199  19.536   1.760
  685W        W64618  30.011  16.263   4.635
  686W        W64619   4.274   3.385  10.124
  687W        W64620  39.409  14.229  14.928
  688W        W64621  33.953  26.525   1.296
  689W        W64622  10.759   3.950  14.413
  690W        W64623   6.810   2.241  14.367
  691W        W64624  21.207   5.223   2.288
  692W        W64625  39.418  28.658  12.912
  693W        W64626   1.293  26.466   0.434
  694W        W64627   1.306  14.094  14.465
  695W        W64628   2.926  37.061  10.940
  696W        W64629  27.963   7.339   3.187
  697W        W64630  43.928  10.691   4.198
  698W        W64631  42.509  22.068  11.444
  699W        W64632  40.905  27.447   4.814
  700W        W64633  42.963  10.653  13.482
  701W        W64634  40.838   8.762  13.395
  702W        W64635  11.224   4.737   2.776
  703W        W64636  14.662  37.850  11.994
  704W        W64637  10.868  44.362  10.067
  705W        W64638   7.400  13.248  14.480
  706W        W64639   7.891  42.989   1.700
  707W        W64640  40.423  34.916  14.904
  708W        W64641  15.156  40.961   4.215
  709W        W64642  43.396   4.255   1.843
  710W        W64643  12.818  21.210  12.884
  711W        W64644  30.919  17.711  11.371
  712W        W64645   7.233  41.532  14.834
  713W        W64646   4.270  31.412   2.697
  714W        W64647   0.274  16.703  10.494
  715W        W64648  37.934   1.925  14.962
  716W        W64649  15.174  36.512  14.765
  717W        W64650  34.453  29.015   0.269
  718W        W64651   7.678   7.337   0.730
  719W        W64652  37.422  37.039  14.966
  720W        W64653  11.244  22.064   2.868
  721W        W64654  33.009   8.776  10.945
  722W        W64655  32.491  41.908  11.490
  723W        W64656  21.613  34.576  14.452
  724W        W64657  22.547   3.890   2.338
  725W        W64658   9.729  42.419   3.695
  726W        W64659  43.013  40.036   2.261
  727W        W64660   9.339   9.149   2.398
  728W        W64661  25.709  43.369   3.325
  729W        W64662  43.949  35.013  11.482
  730W        W64663   6.280  16.583   2.296
  731W        W64664  44.905  42.492  12.076
  732W        W64665  37.365  33.443   4.195
  733W        W64666  28.563  22.236  12.354
  734W        W64667   8.783  26.547  11.093
  735W        W64668  11.716  44.999  13.381
  736W        W64669  27.060  31.576   2.851
  737W        W64670  33.969  23.519  11.480
  738W        W64671   5.753  44.790  14.015
  739W        W64672  10.829  20.193   4.668
  740W        W64673  21.057  10.282  13.837
  741W        W64674  16.791  10.692   2.898
  742W        W64675   6.285  30.995   4.279
  743W        W64676  19.050  18.185   1.247
  744W        W64677   9.889  21.110   2.800
  745W        W64678  18.054  31.582   3.868
  746W        W64679   4.244   9.831   0.451
  747W        W64680  33.413   3.747   0.729
  748W        W64681  15.259  42.777   4.745
  749W        W64682   6.233  41.016   1.442
  750W        W64683  32.074   8.246  11.553
  751W        W64684  36.871   7.220  11.508
  752W        W64685  10.354  37.038   0.258
  753W        W64686  29.574  43.515  10.558
  754W        W64687   7.321   1.825  12.418
  755W        W64688   2.962   2.297  11.457
  756W        W64689  32.125   9.392  14.311
  757W        W64690  12.342  15.149  13.429
  758W        W64691  24.628   5.765   2.725
  759W        W64692  27.016  29.563   0.921
  760W        W64693  34.061  21.048   2.283
  761W        W64694  37.959  35.081   2.739
  762W        W64695  37.512   2.271   5.279
  763W        W64696   7.831  36.927   1.831
  764W        W64697   0.350   1.844   4.689
  765W        W64698  22.009  17.796  11.983
  766W        W64699  30.575  26.971   3.862
  767W        W64700   5.719  23.088   2.272
  768W        W64701  12.181  27.996   4.738
  769W        W64702  26.960  39.486  11.907
  770W        W64703  11.303  42.915  13.482
  771W        W64704  40.449   5.227   0.290
  772W        W64705  21.602   4.867  11.491
  773W        W64706   6.427  25.117  12.070
  774W        W64707  10.210  26.582   4.784
  775W        W64708  32.508  35.014   1.390
  776W        W64709  42.990  30.000   1.829
  777W        W64710  26.547   8.775   1.254
  778W        W64711   1.747  11.237   3.256
  779W        W64712  15.628  42.846  12.029
  780W        W64713  22.704  37.929  12.841
  781W        W64714  38.443   8.344   1.916
  782W        W64715  11.824   2.823   1.755
  783W        W64716  21.035  30.009  12.483
  784W        W64717  35.451  15.193   4.809
  785W        W64718  16.644  12.300  14.935
  786W        W64719  24.497  35.017   3.723
  787W        W64720  36.425  25.586  13.930
  788W        W64721  38.887  11.310   0.379
  789W        W64722   5.264  13.259  12.996
  790W        W64723  15.282  14.797  10.616
  791W        W64724  14.752  26.689   4.258
  792W        W64725   2.252   4.734  11.503
  793W        W64726  13.618   0.485   1.225
  794W        W64727  10.876  11.364  11.992
  795W        W64728  23.539  23.077   2.853
  796W        W64729   0.284  22.057   3.386
  797W        W64730  24.508  14.599  10.537
  798W        W64731  44.397  42.953  14.398
  799W        W64732  24.658  32.066  11.914
  800W        W64733  14.108  31.085  14.925
  801W        W64734   0.899  38.875   1.757
  802W        W64735  26.505   0.311  14.782
  803W        W64736   5.432   9.889   2.208
  804W        W64737  21.631  37.417   2.846
  805W        W64738  36.053  21.216   3.816
  806W        W64739  11.343  29.587  14.426
  807W        W64740  15.684  40.306   0.876
  808W        W64741  15.701  16.185  14.987
  809W        W64742  28.141   9.211  12.911
  810W        W64743  44.390   7.806  12.494
  811W        W64744  18.728  20.548   1.303
  812W        W64745  27.140  34.386  14.291
  813W        W64746  42.398  14.723   4.338
  814W        W64747  40.542  33.557  10.490
  815W        W64748  29.604   5.727  14.322
  816W        W64749  26.658  43.392   3.814
  817W        W64750  14.682  33.579   4.114
  818W        W64751  35.369  26.553  10.904
  819W        W64752  26.017  11.862  12.048
  820W        W64753  29.595  44.416  13.316
  821W        W64754  14.295  33.539   2.356
  822W        W64755   1.277  18.281   1.259
  823W        W64756  39.060  12.845   1.789
  824W        W64757  43.390   3.415   2.882
  825W        W64758  17.718  16.115  12.004
  826W        W64759   9.844   6.396  12.955
  827W        W64760   8.688  35.559  14.887
  828W        W64761  41.974  19.699   1.436
  829W        W64762  28.041  25.060   2.374
  830W        W64763  36.448  42.802  13.029
  831W        W64764  30.013  18.634   1.348
  832W        W64765   6.299  24.500   0.312
  833W        W64766   6.327  19.202   2.333
  834W        W64767  27.468   3.774   4.327
  835W        W64768  42.485   5.259  12.556
  836W        W64769   8.373   4.423   9.677
  837W        W64770  41.983  26.982   1.817
  838W        W64771  35.885  17.216   2.211
  839W        W64772   4.917  22.112   3.374
  840W        W64773  15.803  17.674   3.284
  841W        W64774  15.634  26.063  14.830
  842W        W64775  36.851  43.365   1.708
  843W        W64776  28.550  11.265   0.368
  844W        W64777   3.930   2.232   3.262
  845W        W64778  42.360  27.519   4.724
  846W        W64779  44.305  12.653  13.797
  847W        W64780  14.808  37.869   4.700
  848W        W64781  30.924  33.932   1.383
  849W        W64782  36.977   9.795   0.883
  850W        W64783  44.892  28.008  11.933
  851W        W64784  18.052  16.313  14.783
  852W        W64785  42.887  40.339   3.766
  853W        W64786  34.487   8.821   1.233
  854W        W64787  39.490  15.698   0.839
  855W        W64788   4.698  44.396   1.274
  856W        W64789   7.325   8.823  14.874
  857W        W64790  36.857  28.026   1.875
  858W        W64791  26.629  12.309   0.320
  859W        W64792  34.521  18.068   1.260
  860W        W64793  26.486  44.886   5.706
  861W        W64794   6.227  30.164   2.178
  862W        W64795  21.525   2.836  12.462
  863W        W64796   7.770  10.201  10.958
  864W        W64797  23.698  41.012   3.334
  865W        W64798   6.198  24.525  14.315
  866W        W64799  30.465   8.880  12.054
  867W        W64800  43.336  28.077   1.294
  868W        W64801  29.459  12.140  12.081
  869W        W64802  22.623   7.246   1.381
  870W        W64803  43.378  28.080  13.924
  871W        W64804   9.886   9.313   3.853
  872W        W64805  39.318  16.271   0.847
  873W        W64806  44.892  23.165  10.482
  874W        W64807  11.146  34.073  13.980
  875W        W64808  39.012  41.406   3.845
  876W        W64809  31.973  31.122   5.212
  877W        W64810  21.674  28.659   4.169
  878W        W64811  30.522  30.978  11.391
  879W        W64812  28.092  41.488  11.962
  880W        W64813  15.799  40.471   3.841
  881W        W64814   5.255  38.076   4.134
  882W        W64815  32.046  44.839  11.882
  883W        W64816  26.697  16.718   3.646
  884W        W64817   7.827  30.006   0.778
  885W        W64818  20.124  33.582   0.744
  886W        W64819  21.600  13.200  12.969
  887W        W64820  17.109   2.954  12.508
  888W        W64821  25.150  38.996  12.372
  889W        W64822  44.851   0.930   0.800
  890W        W64823  33.527  28.444   3.769
  891W        W64824  11.690  39.932  11.960
  892W        W64825  13.770  36.517  14.502
  893W        W64826  22.508   9.395   4.672
  894W        W64827   0.402  23.507  10.630
  895W        W64828  19.752  41.487   2.808
  896W        W64829  19.587   3.898  13.926
  897W        W64830  44.956  18.778  14.769
  898W        W64831  41.453  34.592   1.700
  899W        W64832  40.367  28.096  11.465
  900W        W64833  32.948   8.389   1.337
  901W        W64834  30.477   4.350  10.541
  902W        W64835  24.631   8.248   3.675
  903W        W64836  38.430   5.862  10.938
  904W        W64837  20.063  15.133  13.538
  905W        W64838  16.678  26.142  11.489
  906W        W64839  15.108   6.382  13.875
  907W        W64840  13.821   5.428  11.607
  908W        W64841  14.172  36.002  11.978
  909W        W64842  13.216  40.982  14.437
  910W        W64843  23.044  28.502   3.317
  911W        W64844  13.155  24.708   4.303
  912W        W64845  17.675  28.586  12.403
  913W        W64846  25.554  44.319   0.847
  914W        W64847  27.051  28.637  10.457
  915W        W64848   6.407   2.727   4.670
  916W        W64849  39.439  38.002   1.807
  917W        W64850  41.009  26.542   0.901
  918W        W64851  24.184  12.203  13.375
  919W        W64852  22.199  37.890   2.298
  920W        W64853  37.405  20.068   0.964
  921W        W64854   0.351   3.242   4.665
  922W        W64855  34.587  14.803   1.796
  923W        W64856  34.038  10.677  13.827
  924W        W64857   9.851  23.543   5.204
  925W        W64858  12.776  42.480  13.393
  926W        W64859  43.867  18.559   4.189
  927W        W64860  30.154  13.610  11.954
  928W        W64861  31.509  19.281   4.315
  929W        W64862  24.573  44.332   0.354
  930W        W64863  40.869  31.940  11.007
  931W        W64864  26.079  20.104  10.952
  932W        W64865   9.836  29.170   0.807
  933W        W64866  39.836  34.456   4.258
  934W        W64867  14.294  22.537   4.820
  935W        W64868  14.783  10.220   4.268
  936W        W64869  23.632  26.179  13.967
  937W        W64870   3.348  21.137   2.348
  938W        W64871   0.766  37.405  14.303
  939W        W64872  17.075  17.591  12.917
  940W        W64873  32.576  13.140  10.424
  941W        W64874   4.442   6.781   3.362
  942W        W64875  10.223  21.656  14.788
  943W        W64876  43.326   4.368   3.841
  944W        W64877  28.640  18.252  13.958
  945W        W64878  26.497  29.555  11.984
  946W        W64879  43.478  42.429   3.278
  947W        W64880   7.846  26.627   5.109
  948W        W64881   0.754  33.895   0.435
  949W        W64882  34.867  10.155   2.283
  950W        W64883  21.751  13.808  11.864
  951W        W64884   7.809  44.467  12.502
  952W        W64885  19.748   7.263  13.462
  953W        W64886  42.004  13.253   1.829
  954W        W64887  17.649  39.496   4.243
  955W        W64888  21.611  18.653  13.035
  956W        W64889  21.154  43.979  13.491
  957W        W64890  24.517  19.183   1.915
  958W        W64891  12.248   3.435  12.517
  959W        W64892  20.110   5.900   4.601
  960W        W64893  33.030  11.853   0.746
  961W        W64894  11.313  36.527  13.334
  962W        W64895  15.309  40.823   3.710
  963W        W64896  20.196  31.517   0.920
  964W        W64897  42.936  12.651   0.845
  965W        W64898   3.815  28.647   1.699
  966W        W64899  31.109  33.554   2.415
  967W        W64900  37.993  27.685   3.637
  968W        W64901   6.266  19.731   5.119
  969W        W64902  41.985  34.058   3.716
  970W        W64903   7.838  35.475  10.893
  971W        W64904  35.070  12.714   1.292
  972W        W64905   3.745  16.684   1.278
  973W        W64906  40.868  25.014   2.716
  974W        W64907   0.818  30.977  14.392
  975W        W64908  16.783   2.844  13.014
  976W        W64909  43.504   6.801  13.450
  977W        W64910  29.146  40.310   3.282
  978W        W64911  20.745   5.714  11.606
  979W        W64912  31.430   8.241  13.054
  980W        W64913  40.955  11.775   2.815
  981W        W64914  21.561  12.740  14.868
  982W        W64915  10.633  28.060  10.947
  983W        W64916  30.428  24.223  13.802
  984W        W64917  20.231  42.372   4.676
  985W        W64918  13.661  10.175   4.668
  986W        W64919   8.860  22.189   1.857
  987W        W64920   9.301  12.279   4.210
  988W        W64921  43.442  14.816   4.163
  989W        W64922  10.287  39.911  11.587
  990W        W64923   5.287  35.594   3.772
  991W        W64924   0.775  19.670  11.115
  992W        W64925  39.350  32.530  10.953
  993W        W64926  18.644  36.367  11.511
  994W        W64927  19.102   9.777   3.758
  995W        W64928  16.131  39.499  10.125
  996W        W64929   6.901  36.021  13.511
  997W        W64930   4.768  26.628   5.269
  998W        W64931  33.518  29.027   0.252
  999W        W64932  41.435   7.397   1.743
 1000W        W64933  42.882   2.799   1.283
 1001W        W64934   0.923   7.716  11.005
 1002W        W64935  25.067  28.995   1.886
 1003W        W64936   2.729   7.794   2.704
 1004W        W64937  44.785  24.190  13.797
 1005W        W64938  29.648   4.246   0.353
 1006W        W64939   6.837   3.853  11.936
 1007W        W64940  12.687  36.399  13.915
 1008W        W64941   1.776  21.635  10.623
 1009W        W64942  26.021  36.409   0.779
 1010W        W64943  21.559  43.848   4.784
 1011W        W64944  14.796  27.962  11.539
 1012W        W64945   3.883   8.771   5.245
 1013W        W64946  23.713  18.269  11.392
 1014W        W64947  38.424  27.001  13.459
 1015W        W64948  28.490  23.106   4.349
 1016W        W64949  28.582  27.656  10.598
 1017W        W64950  36.854  26.674   2.342
 1018W        W64951  18.107  35.542   3.370
 1019W        W64952  17.788  39.927  10.597
 1020W        W64953  28.588   0.395   3.864
 1021W        W64954  20.103  44.382  10.928
 1022W        W64955  17.279  11.725   1.822
 1023W        W64956  28.602  39.869   4.643
 1024W        W64957  22.563  43.926  12.994
 1025W        W64958  43.390  43.288  12.078
 1026W        W64959  17.613   6.185   1.893
 1027W        W64960  24.601  26.585   0.965
 1028W        W64961  25.134  28.991   4.145
 1029W        W64962  44.309  29.562  11.510
 1030W        W64963  10.150  35.543   1.378
 1031W        W64964  37.575  37.054  11.469
 1032W        W64965  40.364   5.785  12.901
 1033W        W64966  18.075  30.908   4.266
 1034W        W64967   5.727   9.800  14.898
 1035W        W64968  31.114  25.097   3.320
 1036W        W64969   1.850  29.168  13.541
 1037W        W64970  44.762   6.359   4.623
 1038W        W64971  20.643  12.271  12.993
 1039W        W64972   8.844  37.496   2.295
 1040W        W64973   8.384  37.402  14.874
 1041W        W64974  39.982  24.222   4.602
 1042W        W64975  15.792  20.723   5.284
 1043W        W64976  17.722  41.400   5.209
 1044W        W64977  43.842   3.399  12.914
 1045W        W64978  30.987   0.328  11.546
 1046W        W64979  30.582  32.084  10.930
 1047W        W64980  28.996  37.836   0.727
 1048W        W64981  42.999   1.838  12.862
 1049W        W64982  39.031   7.195   0.367
 1050W        W64983  14.800  16.278  14.817
 1051W        W64984  22.115  21.652  14.837
 1052W        W64985  19.739  19.259   2.395
 1053W        W64986  40.322  42.963  13.988
 1054W        W64987  26.954  44.358  12.449
 1055W        W64988  32.569   3.942   3.695
 1056W        W64989  43.418   4.769  14.933
 1057W        W64990  19.593  33.097   0.329
 1058W        W64991   9.233  29.073   1.298
 1059W        W64992  10.139  18.193  13.984
 1060W        W64993  38.452  33.559   1.781
 1061W        W64994  21.171  26.093  10.927
 1062W        W64995  44.865  36.094   1.400
 1063W        W64996   7.209  44.279   0.840
 1064W        W64997  31.499  37.510   2.862
 1065W        W64998  23.577  22.553   2.193
 1066W        W64999  25.123   0.748   2.897
 1067W        W65000  28.130  29.152  12.432
 1068W        W65001   7.714   0.901  11.456
 1069W        W65002  25.621  20.601  14.511
 1070W        W65003  11.309  15.101   1.834
 1071W        W65004  37.387  41.792   1.266
 1072W        W65005  29.587  44.379   3.301
 1073W        W65006  17.708  16.306  12.548
 1074W        W65007  16.214   1.383  14.310
 1075W        W65008   3.335   4.736   1.237
 1076W        W65009  13.773  42.020   0.298
 1077W        W65010  18.599  10.715  12.417
 1078W        W65011   9.767  19.190   3.788
 1079W        W65012  20.686  18.224   9.974
 1080W        W65013  37.007  14.828   4.617
 1081W        W65014  11.674   2.825   4.598
 1082W        W65015  38.516  39.400  11.580
 1083W        W65016  43.297  11.629   3.317
 1084W        W65017  33.569  37.913  10.476
 1085W        W65018  18.200  42.412   4.690
 1086W        W65019   9.256  13.267   0.842
 1087W        W65020  44.504  41.533   4.113
 1088W        W65021   4.898   2.821  14.473
 1089W        W65022  41.365   3.404   3.854
 1090W        W65023   4.840  16.308   3.731
 1091W        W65024  22.179  16.699  12.444
 1092W        W65025   2.277   5.336  10.996
 1093W        W65026  26.520  12.776  11.449
 1094W        W65027  14.240  15.806  13.899
 1095W        W65028  31.611  29.959   1.740
 1096W        W65029  36.445  19.573   3.261
 1097W        W65030  29.090  13.800   3.656
 1098W        W65031  39.977  10.742   0.885
 1099W        W65032  14.632  22.056  11.963
 1100W        W65033  21.708  41.343   0.285
 1101W        W65034  44.911  28.057  10.458
 1102W        W65035  31.608   3.322   5.199
 1103W        W65036  24.998  43.975   1.341
 1104W        W65037  11.130  19.725   2.409
 1105W        W65038  18.220  19.201   2.285
 1106W        W65039  41.956  27.492   4.253
 1107W        W65040  38.861  23.677  12.836
 1108W        W65041  19.772   1.763  10.454
 1109W        W65042  10.356  22.590   2.282
 1110W        W65043  40.831  10.308  12.450
 1111W        W65044  15.137   0.316  14.907
 1112W        W65045  34.104  42.445  14.881
 1113W        W65046  36.523   1.406  10.619
 1114W        W65047  38.493  27.049   3.241
 1115W        W65048  41.878  36.457  13.417
 1116W        W65049  29.454   8.299  13.966
 1117W        W65050  21.074   1.776  12.874
 1118W        W65051   3.376  20.644  13.035
 1119W        W65052   2.841  44.445   0.251
 1120W        W65053  32.606  25.104  14.431
 1121W        W65054  19.775  40.360  10.951
 1122W        W65055  28.939   3.862  12.578
 1123W        W65056  17.163  28.557   1.819
 1124W        W65057   2.347  13.187  10.473
 1125W        W65058  15.281  33.077  13.470
 1126W        W65059  37.035  36.421   4.602
 1127W        W65060  27.133  24.218   1.258
 1128W        W65061   5.929  11.258  13.350
 1129W        W65062  23.018  32.121  12.571
 1130W        W65063  12.804   4.219  12.050
 1131W        W65064  22.154  42.343   3.634
 1132W        W65065  24.993  14.109  12.572
 1133W        W65066   3.364   9.855  12.925
 1134W        W65067  12.770   5.851  11.403
 1135W        W65068  41.514   7.334   3.736
 1136W        W65069   6.266   3.433   0.827
 1137W        W65070  19.632  10.383   0.419
 1138W        W65071   0.391  25.667  14.001
 1139W        W65072  37.885  12.153   3.722
 1140W        W65073   1.287   6.428   4.271
 1141W        W65074  18.090  24.635   1.272
 1142W        W65075   3.868  26.476   4.629
 1143W        W65076  32.030  36.434   3.715
 1144W        W65077  33.006  32.908   4.127
 1145W        W65078   2.837  13.800  14.827
 1146W        W65079   6.865   9.806  14.028
 1147W        W65080  32.436  13.279   1.906
 1148W        W65081   2.370  16.260   3.712
 1149W        W65082   7.754  33.554   0.254
 1150W        W65083  39.398  21.677   2.694
 1151W        W65084  37.535   2.403   0.746
 1152W        W65085  40.458  17.644   4.673
 1153W        W65086  18.746  36.951  10.540
 1154W        W65087   6.256   5.698   1.922
 1155W        W65088  22.049   9.847  13.828
 1156W        W65089  23.729   2.228  12.397
 1157W        W65090  21.143  16.700   1.765
 1158W        W65091  16.085  18.548   0.729
 1159W        W65092  14.685  14.813  11.513
 1160W        W65093   7.175  41.389   2.216
 1161W        W65094  34.609   5.696   4.314
 1162W        W65095  40.438  31.575  12.484
 1163W        W65096  22.076  11.744  14.948
 1164W        W65097   3.841   5.410  10.090
 1165W        W65098  38.452  21.516  11.119
 1166W        W65099  32.913  13.783  11.981
 1167W        W65100   9.737  30.605   3.273
 1168W        W65101  31.411  36.442   2.772
 1169W        W65102   4.727  12.848   1.838
 1170W        W65103  19.634  32.544   0.736
 1171W        W65104   1.244   4.304  14.996
 1172W        W65105  23.080   3.272   2.728
 1173W        W65106  25.667  37.383   5.230
 1174W        W65107  40.519  31.561  12.918
 1175W        W65108  37.523  12.844  12.886
 1176W        W65109  31.033  19.553   2.739
 1177W        W65110  33.500  39.493  12.456
 1178W        W65111  27.480  32.488  12.905
 1179W        W65112   2.433   3.819   3.852
 1180W        W65113  26.000  22.742   1.437
 1181W        W65114  43.843  42.986  10.896
 1182W        W65115  21.594  11.696   4.802
 1183W        W65116  26.111  23.635  10.592
 1184W        W65117  42.290  31.634   3.767
 1185W        W65118  26.616  19.061  12.508
 1186W        W65119  28.938   6.680  12.518
 1187W        W65120  25.626  41.513   5.113
 1188W        W65121  37.473  44.932   2.395
 1189W        W65122  23.240  42.422   4.675
 1190W        W65123  27.953   5.792   2.266
 1191W        W65124  38.918  30.028  14.935
 1192W        W65125   5.356   1.265   0.811
 1193W        W65126  42.986   3.325   1.813
 1194W        W65127  32.483  28.532   4.134
 1195W        W65128   6.283  43.335   0.435
 1196W        W65129  36.008  22.046  13.307
 1197W        W65130  32.015   8.822   0.358
 1198W        W65131  37.378   7.200  13.981
 1199W        W65132  25.998  15.229   1.312
 1200W        W65133  27.162  43.791   3.286
 1201W        W65134  21.742  32.931  14.994
 1202W        W65135   8.237   0.331   4.801
 1203W        W65136  28.614   5.427   2.713
 1204W        W65137  14.723  20.585  14.322
 1205W        W65138  17.638  22.053   2.765
 1206W        W65139   6.788  37.350  13.869
 1207W        W65140  13.753   3.740   3.217
 1208W        W65141  41.010  20.657   2.259
 1209W        W65142   9.882  20.180  11.903
 1210W        W65143  28.186  12.624  13.376
 1211W        W65144   6.841  22.109  10.067
 1212W        W65145  37.927  42.872  13.062
 1213W        W65146  28.618  37.849  12.077
 1214W        W65147  10.273   8.687   4.719
 1215W        W65148  31.408   4.912   2.679
 1216W        W65149   3.238  36.540  13.367
 1217W        W65150   1.773  39.377  11.044
 1218W        W65151   6.832  35.431   3.329
 1219W        W65152  26.996  24.711   3.211
 1220W        W65153  20.131  18.255  13.890
 1221W        W65154  30.588  27.940   2.279
 1222W        W65155  13.831  40.477   0.866
 1223W        W65156  11.256   6.266  10.928
 1224W        W65157   6.387  34.932  11.412
 1225W        W65158  19.222  21.662   2.206
 1226W        W65159  22.691  44.949  13.346
 1227W        W65160  14.164  17.620  13.317
 1228W        W65161  29.556   6.285  11.942
 1229W        W65162  44.478   1.793   4.683
 1230W        W65163  43.509  17.279   1.394
 1231W        W65164  27.628  29.124  12.839
 1232W        W65165  42.919   8.215  12.523
 1233W        W65166  20.591  32.092   2.870
 1234W        W65167  41.819  22.689  13.009
 1235W        W65168  21.024   0.313  12.455
 1236W        W65169  19.766   9.227  14.838
 1237W        W65170  19.134  29.107  14.853
 1238W        W65171  26.189  29.994   4.300
 1239W        W65172  36.027  23.682  13.950
 1240W        W65173  36.394  24.684  14.472
 1241W        W65174  10.704  41.520   2.832
 1242W        W65175   3.448  23.141  11.904
 1243W        W65176  11.191  10.760   0.333
 1244W        W65177  34.590  44.439  14.953
 1245W        W65178  39.426  23.582   3.633
 1246W        W65179   6.719  40.951   3.645
 1247W        W65180  13.286   8.266  11.089
 1248W        W65181  16.747   5.306  11.077
 1249W        W65182  16.745  10.350  13.364
 1250W        W65183   9.650  23.069  11.908
 1251W        W65184   9.741   4.360  12.395
 1252W        W65185   6.234  35.977   4.167
 1253W        W65186  32.612  36.854   0.310
 1254W        W65187  43.881  24.523  12.978
 1255W        W65188  42.446  16.744  14.959
 1256W        W65189  28.967  33.968  10.568
 1257W        W65190  25.139  13.718  13.821
 1258W        W65191  40.365  41.311  13.863
 1259W        W65192  33.071  44.946  14.341
 1260W        W65193  22.086  42.465  14.389
 1261W        W65194  35.082  28.082   4.667
 1262W        W65195  23.496   0.876  11.902
 1263W        W65196   7.253  27.055  11.901
 1264W        W65197  15.762  27.553   3.803
 1265W        W65198  42.423  26.460   2.213
 1266W        W65199  43.969  13.645   4.153
 1267W        W65200   9.650  16.273  10.412
 1268W        W65201  19.252  38.049   0.325
 1269W        W65202  23.234  17.584   4.670
 1270W        W65203  44.319  23.727  12.989
 1271W        W65204  36.444   3.752  13.435
 1272W        W65205  23.154  16.240   2.764
 1273W        W65206   5.830  31.439   4.229
 1274W        W65207  37.480  21.729  12.948
 1275W        W65208  20.108  22.227   2.288
 1276W        W65209  19.273  10.289   1.776
 1277W        W65210  40.831  31.128  14.340
 1278W        W65211  17.109   3.915  13.339
 1279W        W65212   6.279  33.598   0.308
 1280W        W65213   6.267  19.087   3.688
 1281W        W65214  23.690  21.099   2.689
 1282W        W65215  26.106  25.099   3.786
 1283W        W65216  12.761  19.225  10.976
 1284W        W65217   8.368  26.499   3.194
 1285W        W65218  12.318  38.523   3.146
 1286W        W65219   8.793  38.353  12.086
 1287W        W65220   6.769  22.039  11.987
 1288W        W65221   4.789  26.156  12.468
 1289W        W65222   7.198  41.428  12.009
 1290W        W65223  10.309   6.216  10.627
 1291W        W65224  30.027   8.272  12.899
 1292W        W65225   8.288  11.719   4.788
 1293W        W65226  36.903   0.311  13.889
 1294W        W65227  30.115  13.774   3.761
 1295W        W65228   0.813  20.762  14.808
 1296W        W65229  41.040  32.031   4.296
 1297W        W65230  37.417  41.408  13.828
 1298W        W65231  30.467  20.533   3.196
 1299W        W65232  10.262  33.392   0.873
 1300W        W65233  17.154  19.273   2.834
 1301W        W65234  43.828   8.263  14.977
 1302W        W65235  14.173   2.441  11.007
 1303W        W65236  15.107  37.853   5.176
 1304W        W65237  11.636  42.787   4.193
 1305W        W65238   4.355  37.514  10.919
 1306W        W65239  30.471  31.566   0.305
 1307W        W65240  24.682  19.596  11.041
 1308W        W65241  29.093  28.127  13.345
 1309W        W65242  13.618  19.043   2.303
 1310W        W65243  14.715  15.257   3.663
 1311W        W65244  13.303  15.783   1.435
 1312W        W65245  32.993  33.503  12.005
 1313W        W65246   9.281  29.538   4.119
 1314W        W65247   1.406  22.636   2.758
 1315W        W65248  15.697  26.608   5.085
 1316W        W65249  30.990  35.866  14.438
 1317W        W65250  23.560  15.651  13.519
 1318W        W65251  15.090   8.841  10.986
 1319W        W65252  24.118  41.802  10.549
 1320W        W65253  36.562  39.523  13.511
 1321W        W65254   2.448  36.929  13.000
 1322W        W65255   3.325  11.300  12.002
 1323W        W65256  35.423  27.023  13.010
 1324W        W65257   1.450  20.055   0.955
 1325W        W65258   8.366  36.581   0.247
 1326W        W65259  33.422  18.781  11.939
 1327W        W65260  29.470  31.010  10.610
 1328W        W65261  35.008  24.201  13.922
 1329W        W65262  22.670  11.796  10.971
 1330W        W65263  18.666  20.221   4.834
 1331W        W65264   3.917  44.800   0.331
 1332W        W65265  38.341  35.440   3.822
 1333W        W65266  16.098  16.782   2.863
 1334W        W65267   2.753  10.257  12.830
 1335W        W65268  30.991   5.840  11.562
 1336W        W65269  32.578  20.128  12.549
 1337W        W65270  13.832  22.719   0.249
 1338W        W65271   3.916  34.104  10.977
 1339W        W65272  32.006  25.643  10.975
 1340W        W65273  37.895  24.660   1.413
 1341W        W65274  25.618  15.263   0.904
 1342W        W65275  40.403  34.958   0.459
 1343W        W65276  17.065  29.068   1.213
 1344W        W65277  28.048  41.532  13.444
 1345W        W65278  19.218  20.274  13.884
 1346W        W65279  19.173  31.042  11.074
 1347W        W65280  34.506  28.058  12.885
 1348W        W65281   3.279  38.479   4.215
 1349W        W65282   5.856  28.485   0.270
 1350W        W65283  27.615  28.606  12.834
 1351W        W65284  20.242  20.587   3.865
 1352W        W65285  43.377  11.674   1.414
 1353W        W65286  12.167  27.990   1.922
 1354W        W65287  26.002   1.772   0.834
 1355W        W65288  29.142  34.489  10.546
 1356W        W65289   2.303   8.833  14.362
 1357W        W65290  18.597  41.453   2.845
 1358W        W65291  13.266  41.981   0.476
 1359W        W65292  41.923  44.289   1.753
 1360W        W65293  17.178  29.654   2.900
 1361W        W65294  38.060  13.603  13.328
 1362W        W65295  17.127  39.942  10.131
 1363W        W65296  17.073  13.230   2.898
 1364W        W65297  28.955  10.713   2.399
 1365W        W65298  12.658  32.083   4.236
 1366W        W65299  41.857   3.303   0.360
 1367W        W65300   3.322  20.608  11.052
 1368W        W65301   5.836  37.357   2.797
 1369W        W65302   8.785  41.388  14.915
 1370W        W65303  21.634  44.481   2.395
 1371W        W65304  25.990  32.464   3.752
 1372W        W65305   4.791  32.130  12.089
 1373W        W65306  33.509  27.088   3.682
 1374W        W65307   5.918  22.091  12.860
 1375W        W65308  25.020  13.300  12.037
 1376W        W65309  26.078  43.496  11.519
 1377W        W65310  17.716  40.408  14.429
 1378W        W65311  41.016  12.697   0.273
 1379W        W65312  10.686  35.101   4.133
 1380W        W65313  11.746  17.108   2.241
 1381W        W65314  38.532  15.671   5.312
 1382W        W65315  28.589  33.613   1.278
 1383W        W65316  29.037   8.726  14.391
 1384W        W65317  25.711  27.687  14.767
 1385W        W65318  19.106  34.387   3.250
 1386W        W65319   2.462  35.026  13.848
 1387W        W65320   2.918  32.981   0.405
 1388W        W65321  19.687  31.409  14.389
 1389W        W65322  32.474   1.287  11.024
 1390W        W65323  33.114  32.099  13.533
 1391W        W65324   0.457   7.876  14.006
 1392W        W65325  22.073  37.450  12.384
 1393W        W65326  14.257  40.963  11.127
 1394W        W65327  30.989  44.860  12.537
 1395W        W65328   1.289  40.865   2.339
 1396W        W65329  11.180   4.916  11.531
 1397W        W65330  34.050  10.671   0.812
 1398W        W65331  39.448  32.582   4.747
 1399W        W65332   6.751  21.181  14.922
 1400W        W65333  24.509  28.450   0.775
 1401W        W65334  13.671  28.620  11.936
 1402W        W65335  38.567   6.335  10.433
 1403W        W65336  14.315  39.543  11.423
 1404W        W65337  12.148   5.266   0.286
 1405W        W65338  16.653  36.035  12.366
 1406W        W65339  29.428   5.766  10.588
 1407W        W65340   1.937  25.552   1.748
 1408W        W65341  37.366  13.764  11.547
 1409W        W65342  42.281   8.253   2.883
 1410W        W65343  21.041  31.904   0.408
 1411W        W65344  22.200  11.238   9.534
 1412W        W65345   7.799  30.926   1.287
 1413W        W65346  31.940  24.529  12.094
 1414W        W65347  35.885  39.932  14.774
 1415W        W65348  43.464  10.666   0.288
 1416W        W65349  44.937  33.109  10.458
 1417W        W65350  39.851  13.601   0.326
 1418W        W65351  39.416   2.323  14.280
 1419W        W65352  23.159  14.260  12.374
 1420W        W65353   8.226  29.143   1.734
 1421W        W65354  10.763  20.545   1.315
 1422W        W65355   9.156   6.189   3.293
 1423W        W65356  43.485  24.104   4.784
 1424W        W65357  41.919  13.220   1.301
 1425W        W65358  42.867  17.207  11.473
 1426W        W65359  32.102  11.823   5.248
 1427W        W65360  24.989  17.106   1.814
 1428W        W65361   0.973  21.083  11.054
 1429W        W65362  40.824  18.132   0.741
 1430W        W65363  16.267   8.738  11.553
 1431W        W65364   9.671  21.544   0.434
 1432W        W65365  23.233  25.706  11.510
 1433W        W65366  11.705  23.679  12.458
 1434W        W65367   4.407  25.613  11.914
 1435W        W65368  35.957  31.567  14.403
 1436W        W65369  24.488  27.943  11.092
 1437W        W65370  23.003  23.189   3.192
 1438W        W65371  21.175   1.332   4.650
 1439W        W65372  35.425  33.392   1.408
 1440W        W65373  25.576   2.762   4.138
 1441W        W65374  42.881   7.708  10.997
 1442W        W65375   2.439  29.525  11.914
 1443W        W65376  24.705  34.401   2.292
 1444W        W65377  19.080  13.323  14.428
 1445W        W65378  33.102  36.374   2.718
 1446W        W65379  18.187  33.446   2.880
 1447W        W65380  21.622  22.738   2.679
 1448W        W65381  43.773  24.997   0.334
 1449W        W65382  31.971  21.712   2.706
 1450W        W65383  28.030  19.775   9.998
 1451W        W65384  38.842   6.191  10.625
 1452W        W65385  10.215  16.750  12.393
 1453W        W65386   0.885  30.120  13.979
 1454W        W65387  43.924  18.678  10.508
 1455W        W65388  32.460  11.713  11.006
 1456W        W65389  38.327  41.477  10.950
 1457W        W65390  20.523   9.737   0.445
 1458W        W65391  22.169  26.132  10.957
 1459W        W65392  36.939   9.766   4.711
 1460W        W65393  19.693  18.077  14.294
 1461W        W65394   7.766  34.512  13.519
 1462W        W65395  38.427  37.853   0.859
 1463W        W65396  14.603  20.155   4.187
 1464W        W65397  16.187  38.025  10.928
 1465W        W65398  12.191   5.416  13.870
 1466W        W65399  43.813  41.383  10.930
 1467W        W65400  23.236  27.458   2.283
 1468W        W65401  19.086  44.763   0.258
 1469W        W65402  22.705  23.099  11.495
 1470W        W65403  28.541  20.189   1.901
 1471W        W65404  42.880  35.514  13.487
 1472W        W65405  34.047   3.777   3.221
 1473W        W65406  28.502  35.494  12.991
 1474W        W65407   2.883  13.187   9.981
 1475W        W65408   1.865   3.366  13.432
 1476W        W65409  27.491  36.971  12.049
 1477W        W65410  38.535   7.704  10.565
 1478W        W65411  20.584  37.549   0.327
 1479W        W65412  29.610  40.477  14.797
 1480W        W65413  32.020  40.518  10.471
 1481W        W65414  31.584  28.052   1.410
 1482W        W65415  14.215  43.328  13.405
 1483W        W65416  17.619  24.079   2.855
 1484W        W65417  16.769   1.411   1.772
 1485W        W65418   6.270  16.196  10.967
 1486W        W65419  10.341  26.087  11.565
 1487W        W65420  38.558  37.983   1.444
 1488W        W65421  31.018  28.494  10.501
 1489W        W65422  32.478  16.716  14.820
 1490W        W65423  36.372  25.049   5.165
 1491W        W65424  16.642  34.426  10.600
 1492W        W65425  22.119   2.460   1.921
 1493W        W65426   4.756  14.643  12.018
 1494W        W65427  15.136  28.639  14.460
 1495W        W65428  36.506  20.750  10.932
 1496W        W65429   3.952  19.748   1.710
 1497W        W65430   9.355  16.623   4.223
 1498W        W65431  11.130  29.472  10.582
 1499W        W65432  14.808   3.451  14.851
 1500W        W65433  31.636  33.474   2.367
 1501W        W65434  44.433  30.564   3.232
 1502W        W65435  14.233  39.548   3.692
 1503W        W65436   3.281  29.138   3.243
 1504W        W65437  41.423  15.601   1.784
 1505W        W65438  23.219  25.076   2.386
 1506W        W65439   0.387  10.201   3.777
 1507W        W65440   2.390  44.979  12.830
 1508W        W65441  38.914   1.331   0.450
 1509W        W65442   4.218  35.992  11.490
 1510W        W65443  28.459  28.963   2.794
 1511W        W65444   5.753  20.147  10.630
 1512W        W65445  17.742  26.055   4.236
 1513W        W65446   1.743   7.192  14.921
 1514W        W65447   8.353  26.579   3.647
 1515W        W65448  27.638   1.753  12.515
 1516W        W65449  26.083  28.055   4.823
 1517W        W65450  14.218  14.649  10.528
 1518W        W65451  13.258   2.413   2.708
 1519W        W65452   5.261  39.809  14.817
 1520W        W65453  29.589  15.245   0.285
 1521W        W65454  33.618  14.225  11.076
 1522W        W65455  34.464  22.501   2.305
 1523W        W65456   9.229  29.085  10.540
 1524W        W65457   6.357   1.351   4.315
 1525W        W65458  27.029  18.125  13.503
 1526W        W65459  20.765  36.407   4.725
 1527W        W65460  14.158   1.777  13.878
 1528W        W65461   9.196  29.044  13.544
 1529W        W65462  41.413  32.921  14.402
 1530W        W65463   8.701   2.373   2.894
 1531W        W65464  25.032  20.140  10.640
 1532W        W65465   8.659  14.792   0.389
 1533W        W65466  41.003  27.005   3.344
 1534W        W65467   3.832  16.620  12.381
 1535W        W65468   1.278  37.354   1.718
 1536W        W65469   8.366  44.402  14.476
 1537W        W65470   7.362  38.502  11.981
 1538W        W65471  23.491  14.100   1.905
 1539W        W65472  38.445  27.168   1.713
 1540W        W65473  29.503  42.929  14.352
 1541W        W65474   9.247   7.217  12.501
 1542W        W65475  26.124  27.143  13.539
 1543W        W65476  31.504   7.410  12.341
 1544W        W65477  10.231  19.694   0.438
 1545W        W65478  16.150   4.309  11.530
 1546W        W65479  40.854  38.868  12.018
 1547W        W65480   9.748  30.023   2.889
 1548W        W65481   1.445  12.799  10.914
 1549W        W65482  42.373  31.625   0.820
 1550W        W65483  23.552  15.802  10.570
 1551W        W65484  37.952  34.541  14.335
 1552W        W65485  43.450  40.417  13.827
 1553W        W65486  42.510  14.813  10.460
 1554W        W65487  22.136  28.144  13.872
 1555W        W65488  16.311  19.095   0.320
 1556W        W65489  24.029   3.824   2.706
 1557W        W65490  37.028  10.204  11.007
 1558W        W65491  18.195  43.944  13.991
 1559W        W65492  36.365  27.095   0.286
 1560W        W65493  23.984  28.050  14.385
 1561W        W65494   8.734  10.280  14.875
 1562W        W65495  18.694  20.645  11.585
 1563W        W65496  18.573  27.973   1.263
 1564W        W65497  25.667   9.334   2.358
 1565W        W65498  17.140  23.219   4.248
 1566W        W65499  27.037  34.594   0.945
 1567W        W65500  16.178  11.856   3.791
 1568W        W65501  39.887  13.250  13.388
 1569W        W65502  31.418  41.036  14.878
 1570W        W65503   6.269  14.142  14.361
 1571W        W65504  14.121  19.103  13.382
 1572W        W65505  36.392  10.332   1.243
 1573W        W65506  19.090  18.688   4.269
 1574W        W65507  25.660  27.516  13.875
 1575W        W65508  38.970   3.809   0.925
 1576W        W65509   8.232  29.150   0.935
 1577W        W65510  30.470  35.387  12.463
 1578W        W65511  19.565  34.978  12.505
 1579W        W65512  32.434  10.771  14.292
 1580W        W65513  35.075  15.597  12.533
 1581W        W65514  14.111  14.606  14.431
 1582W        W65515  28.990   4.208  11.971
 1583W        W65516  23.988  17.129   4.205
 1584W        W65517  15.681  32.130  12.541
 1585W        W65518  42.472  34.972   4.230
 1586W        W65519   9.670   7.746   4.228
 1587W        W65520  44.316  17.299  10.927
 1588W        W65521  41.342  38.444  14.919
 1589W        W65522  27.546  26.520   1.216
 1590W        W65523  30.641   4.309  14.493
 1591W        W65524  23.185  10.247   1.299
 1592W        W65525  27.611   9.332  14.353
 1593W        W65526   9.249   4.283   9.620
 1594W        W65527  11.851  14.626  13.058
 1595W        W65528  12.144   3.460   4.680
 1596W        W65529  41.928  43.989  11.548
 1597W        W65530   9.757  41.919   0.933
 1598W        W65531  19.139  28.069  13.017
 1599W        W65532  37.387   3.446  10.536
 1600W        W65533  20.525  31.985   1.328
 1601W        W65534   5.689  23.600   5.100
 1602W        W65535  26.482  35.467   0.270
 1603W        W65536  11.735   5.353  11.375
 1604W        W65537  14.274  38.354  13.367
 1605W        W65538  33.991  23.689   4.635
 1606W        W65539   5.197  13.126   0.959
 1607W        W65540   3.259  43.350  12.947
 1608W        W65541   4.918  43.410   1.377
 1609W        W65542  25.552  16.132  14.351
 1610W        W65543  18.105  43.321  11.514
 1611W        W65544  40.860  16.725  11.906
 1612W        W65545   8.881  31.965   1.811
 1613W        W65546  33.461   5.747  14.877
 1614W        W65547  27.499   8.334   3.805
 1615W        W65548  28.980  16.658   4.200
 1616W        W65549  39.456  14.100  10.568
 1617W        W65550   8.292  44.822   3.634
 1618W        W65551   2.344  38.999  14.390
 1619W        W65552  25.646  24.527  11.988
 1620W        W65553   7.887  29.554  10.626
 1621W        W65554  13.604  12.152  14.826
 1622W        W65555   8.285  23.561  13.331
 1623W        W65556   0.327  39.477   4.277
 1624W        W65557  28.658  13.263  11.889
 1625W        W65558  39.984  44.901   2.247
 1626W        W65559  44.341  20.683  11.607
 1627W        W65560  41.308  35.529  13.821
 1628W        W65561  18.736   7.350  12.355
 1629W        W65562  26.650   0.262   4.779
 1630W        W65563   8.748  15.328  11.591
 1631W        W65564  25.567  15.675   5.202
 1632W        W65565  22.515  44.996  13.838
 1633W        W65566  43.346  15.689  10.475
 1634W        W65567  24.145  16.713  10.416
 1635W        W65568  22.600  41.431  14.823
 1636W        W65569  40.963  27.109   0.935
 1637W        W65570  36.575  36.034   5.122
 1638W        W65571  19.043  30.594  11.546
 1639W        W65572  13.817  19.198  13.446
 1640W        W65573  12.660  44.837   3.357
 1641W        W65574  16.231  30.957  11.911
 1642W        W65575  38.417  43.855   4.814
 1643W        W65576   9.379  25.571   4.750
 1644W        W65577  32.961  20.554   4.150
 1645W        W65578   6.266  33.991   3.205
 1646W        W65579   6.872  38.536  14.437
 1647W        W65580  20.523  23.734   2.746
 1648W        W65581   4.749  24.204   4.795
 1649W        W65582  36.360   4.874  13.512
 1650W        W65583  20.163  26.686   0.307
 1651W        W65584  36.031  20.071   3.352
 1652W        W65585  36.913  38.366  14.387
 1653W        W65586  23.584   3.809   1.230
 1654W        W65587   7.221   7.805   1.280
 1655W        W65588  21.192   4.788   1.417
 1656W        W65589  29.588   4.394   1.398
 1657W        W65590  22.228  29.616  11.554
 1658W        W65591  18.237  39.370  14.292
 1659W        W65592   7.293   0.352   2.224
 1660W        W65593  14.239  32.408   4.756
 1661W        W65594   9.812  15.761   9.933
 1662W        W65595  27.679  11.779  10.411
 1663W        W65596  15.774  30.952  11.870
 1664W        W65597  36.475   0.776   3.313
 1665W        W65598  31.011  28.946  11.114
 1666W        W65599  42.977   2.284   3.861
 1667W        W65600  22.503   2.964   4.614
 1668W        W65601   4.204  26.583  11.939
 1669W        W65602  13.756  17.602   1.438
 1670W        W65603  42.403  32.462  13.464
 1671W        W65604  34.554   4.837   2.800
 1672W        W65605  34.435  19.727  11.473
 1673W        W65606   4.351  34.600  13.949
 1674W        W65607  23.578   9.800   0.287
 1675W        W65608  24.656  42.938   1.423
 1676W        W65609  14.330  16.270  12.976
 1677W        W65610  43.803  34.976  14.835
 1678W        W65611   4.747  13.252   1.322
 1679W        W65612  31.442  37.893  12.075
 1680W        W65613  19.674  43.287   0.961
 1681W        W65614  34.615  35.415  11.856
 1682W        W65615  40.306  12.786   0.333
 1683W        W65616  35.061  32.443  14.429
 1684W        W65617   4.398  31.526   4.810
 1685W        W65618  13.242   8.281  13.409
 1686W        W65619  12.258   1.887  10.473
 1687W        W65620  16.257  31.502   0.877
 1688W        W65621  10.768   2.407  14.390
 1689W        W65622  18.215  17.187   1.334
 1690W        W65623   4.391  18.131  13.415
 1691W        W65624  30.494  43.928   4.682
 1692W        W65625  15.641  21.746   2.239
 1693W        W65626  19.533  34.026  10.595
 1694W        W65627  16.142  37.527   3.198
 1695W        W65628  25.579  40.845   2.688
 1696W        W65629  38.525  43.015   1.415
 1697W        W65630  43.796  44.390  14.027
 1698W        W65631  29.639   1.754   4.149
 1699W        W65632  10.284  31.573   1.758
 1700W        W65633   0.847   6.235   1.872
 1701W        W65634  38.882  28.538  13.477
 1702W        W65635  36.421  19.720  10.023
 1703W        W65636  36.411  11.306  13.037
 1704W        W65637  21.032  35.904  13.900
 1705W        W65638   0.249   4.272  10.426
 1706W        W65639   5.437  42.837  10.422
 1707W        W65640  35.970  13.754  11.590
 1708W        W65641  13.277  28.033   2.818
 1709W        W65642  25.660   6.338   0.917
 1710W        W65643  38.071   0.478  12.447
 1711W        W65644   9.742   8.353  11.882
 1712W        W65645  28.088  29.034   2.237
 1713W        W65646   6.289  13.164  10.904
 1714W        W65647  25.067   6.902  10.451
 1715W        W65648   0.833   2.389  10.582
 1716W        W65649  41.028  39.482  11.932
 1717W        W65650  21.064   9.801  13.008
 1718W        W65651  33.127  36.072  13.453
 1719W        W65652  10.720   9.199  11.987
 1720W        W65653   5.926  25.516   3.222
 1721W        W65654  14.635  35.942   4.213
 1722W        W65655   0.335  11.785   3.330
 1723W        W65656  25.632  10.152   4.341
 1724W        W65657  42.927   2.229   2.892
 1725W        W65658  27.626   5.824  14.279
 1726W        W65659  37.857   2.752   4.304
 1727W        W65660  26.099  21.185  14.296
 1728W        W65661  11.255  29.569   0.921
 1729W        W65662  42.898  11.835  10.459
 1730W        W65663  21.071   4.848  14.449
 1731W        W65664  14.627  18.646  14.429
 1732W        W65665  14.808  29.094  14.005
 1733W        W65666  22.717  25.538   0.360
 1734W        W65667  13.279  18.696   0.853
 1735W        W65668  28.624  34.604   4.225
 1736W        W65669  38.387  11.285  14.790
 1737W        W65670  13.691   3.911   3.844
 1738W        W65671  10.228  23.191  14.463
 1739W        W65672  11.811  41.957   4.144
 1740W        W65673  25.640   0.861  11.972
 1741W        W65674  10.380  40.991  13.546
 1742W        W65675  14.601  11.640   1.849
 1743W        W65676  22.617   4.889  12.557
 1744W        W65677   6.361   9.794  13.458
 1745W        W65678  18.167  37.465  14.792
 1746W        W65679  41.531  21.668   1.840
 1747W        W65680  39.339  28.489  14.792
 1748W        W65681  20.576   8.871   1.768
 1749W        W65682  13.223  42.302  10.490
 1750W        W65683   2.279   7.353  11.002
 1751W        W65684  10.191  39.358   4.301
 1752W        W65685   7.737   5.232   3.675
 1753W        W65686  21.753  42.856  14.482
 1754W        W65687  42.900  40.933   0.915
 1755W        W65688  30.094   1.880  14.323
 1756W        W65689  28.505  15.730   2.691
 1757W        W65690  22.050  39.395  12.501
 1758W        W65691  44.465  18.090  12.426
 1759W        W65692  40.479  20.223  13.967
 1760W        W65693  35.392  22.652   2.223
 1761W        W65694  44.363  28.015   1.215
 1762W        W65695  37.901  35.915  13.836
 1763W        W65696  19.141   7.783   1.399
 1764W        W65697  28.540  19.050   2.833
 1765W        W65698  36.572  38.975  10.536
 1766W        W65699  23.574  11.630   0.847
 1767W        W65700  39.451  27.671  11.610
 1768W        W65701  37.575  25.486  13.335
 1769W        W65702  32.422  31.541   1.408
 1770W        W65703  23.647  31.517   1.752
 1771W        W65704  30.646  36.511   1.801
 1772W        W65705   2.364  18.082  10.025
 1773W        W65706  28.666   7.720  14.495
 1774W        W65707  10.851  40.441   4.686
 1775W        W65708  31.026  37.474  10.938
 1776W        W65709   5.783   8.818   2.307
 1777W        W65710  23.701  11.643  14.848
 1778W        W65711  34.107  24.665  12.358
 1779W        W65712   2.441  10.184  13.391
 1780W        W65713   8.205   4.233   1.291
 1781W        W65714  15.233   9.657  13.844
 1782W        W65715  27.176  15.100  11.934
 1783W        W65716  25.711  19.264  14.474
 1784W        W65717  41.986   4.847   3.356
 1785W        W65718  29.496  24.161   0.387
 1786W        W65719  35.514  21.152   5.220
 1787W        W65720   5.715  35.429   2.285
 1788W        W65721   6.409  11.144   2.665
 1789W        W65722   0.841   8.400   2.869
 1790W        W65723  41.977  13.203  14.359
 1791W        W65724   5.811  33.130   4.244
 1792W        W65725  27.187  17.207   2.827
 1793W        W65726  12.138  30.961  12.377
 1794W        W65727  24.641   6.856   4.284
 1795W        W65728  12.240   8.306   2.769
 1796W        W65729  44.481   3.929  12.050
 1797W        W65730  18.066  44.331  13.386
 1798W        W65731   4.230  27.018  10.449
 1799W        W65732  42.430   6.268   0.744
 1800W        W65733  31.480  20.608  13.389
 1801W        W65734  30.575   2.371   4.676
 1802W        W65735  29.979   5.321  11.072
 1803W        W65736  33.537   0.764   5.145
 1804W        W65737  33.457  19.050   3.214
 1805W        W65738  31.940  41.992   2.842
 1806W        W65739  27.040  23.070   3.208
 1807W        W65740  11.719  33.111  13.901
 1808W        W65741  44.984  38.395  14.482
 1809W        W65742  40.984  12.850   1.360
 1810W        W65743  20.682  40.542   3.682
 1811W        W65744  41.988  26.511  10.091
 1812W        W65745  10.183  29.668  13.860
 1813W        W65746  41.786  33.094   3.238
 1814W        W65747   0.278  34.871  13.924
 1815W        W65748  43.431  14.335  14.285
 1816W        W65749  32.078  37.913  11.065
 1817W        W65750  20.561  39.945   1.708
 1818W        W65751  14.799   5.729  13.805
 1819W        W65752  15.301  13.107   4.295
 1820W        W65753  19.147  26.110   3.177
 1821W        W65754   6.213  35.935   3.270
 1822W        W65755   3.365  25.647  12.463
 1823W        W65756  12.187   4.217   4.764
 1824W        W65757   9.745   9.723  10.891
 1825W        W65758  41.872  19.716  14.341
 1826W        W65759   4.230   9.298  14.003
 1827W        W65760   5.383  30.443   3.671
 1828W        W65761  32.570   5.253   3.803
 1829W        W65762   5.730  30.481  13.827
 1830W        W65763  18.119  18.672   4.659
 1831W        W65764  12.622   5.813  14.991
 1832W        W65765  43.438  44.350  10.137
 1833W        W65766  28.952  14.742   2.293
 1834W        W65767   2.803   1.860   0.925
 1835W        W65768  31.470  33.623   1.356
 1836W        W65769   4.346  10.774  13.342
 1837W        W65770   4.354  22.229   2.767
 1838W        W65771  11.678  20.751  13.055
 1839W        W65772  42.409  29.127  11.974
 1840W        W65773  31.121   9.643  13.875
 1841W        W65774  41.027  33.104  10.408
 1842W        W65775  30.537  16.652   1.309
 1843W        W65776  28.549   1.884  13.941
 1844W        W65777  24.174  41.000  14.844
 1845W        W65778  39.335  20.075  10.915
 1846W        W65779   5.409  24.572  13.831
 1847W        W65780  13.259  20.582  11.102
 1848W        W65781  42.889  41.350  14.390
 1849W        W65782  40.346  37.415   2.317
 1850W        W65783  17.263  13.248   0.753
 1851W        W65784  17.295  23.129  11.498
 1852W        W65785  18.579  42.845  11.123
 1853W        W65786  37.394  22.553  13.813
 1854W        W65787  33.495  24.502   3.147
 1855W        W65788  41.378   1.932   4.184
 1856W        W65789  19.546   5.393   1.858
 1857W        W65790  41.855  31.099  10.450
 1858W        W65791   1.287  21.157  14.939
 1859W        W65792  32.027  36.996  11.383
 1860W        W65793   1.303  23.557   1.737
 1861W        W65794  33.519  13.108   4.807
 1862W        W65795  23.505  12.291   2.234
 1863W        W65796   2.289  30.149   4.643
 1864W        W65797  20.082  39.402   5.623
 1865W        W65798  38.992  20.032  10.097
 1866W        W65799   1.869  11.750   3.786
 1867W        W65800   9.239   0.477   0.932
 1868W        W65801  14.833   5.768   0.927
 1869W        W65802  40.932  10.640   4.749
 1870W        W65803  15.763  25.607  12.401
 1871W        W65804  43.835  17.592  10.514
 1872W        W65805  17.748  25.484   1.910
 1873W        W65806  31.576   9.647  13.878
 1874W        W65807  19.072   5.833   4.714
 1875W        W65808  43.970  32.909   2.338
 1876W        W65809  24.008  22.741   1.370
 1877W        W65810   0.423  17.588  11.409
 1878W        W65811  26.534  35.999  13.483
 1879W        W65812  28.026  13.795   2.212
 1880W        W65813  11.719  33.985  11.008
 1881W        W65814   0.979  27.067  10.536
 1882W        W65815  35.914   1.854  13.010
 1883W        W65816   9.243   5.326  11.078
 1884W        W65817  42.358  11.754  11.087
 1885W        W65818  12.837  41.000  10.469
 1886W        W65819  29.473  17.787   0.275
 1887W        W65820  39.847  30.018   1.839
 1888W        W65821  20.133   0.406   0.277
 1889W        W65822   5.841   6.701   3.164
 1890W        W65823  32.945  31.647  13.935
 1891W        W65824  24.593  28.661   3.682
 1892W        W65825  36.069   3.430  12.990
 1893W        W65826   2.747  28.126  13.998
 1894W        W65827   7.804  22.735  13.456
 1895W        W65828  40.971   0.758  11.550
 1896W        W65829   3.845  44.359  11.545
 1897W        W65830  22.615  11.162   0.821
 1898W        W65831  28.486   4.287  14.845
 1899W        W65832  11.260  30.115   0.747
 1900W        W65833   9.197  19.558  10.406
 1901W        W65834  29.116   1.309   2.277
 1902W        W65835   5.382  19.197  10.557
 1903W        W65836  13.143  32.019   1.882
 1904W        W65837   4.918  12.834  11.955
 1905W        W65838  38.409   9.332   0.778
 1906W        W65839   1.854   6.752  11.057
 1907W        W65840  36.940  25.527  10.554
 1908W        W65841  18.239  25.161   2.828
 1909W        W65842  25.966  12.154  14.449
 1910W        W65843  41.295  16.176   0.771
 1911W        W65844  35.941   0.331   3.796
 1912W        W65845  36.899   6.230   3.333
 1913W        W65846  43.323  39.965  11.885
 1914W        W65847  42.796  33.618   4.236
 1915W        W65848  30.009  22.722  13.450
 1916W        W65849  37.551  41.860  10.630
 1917W        W65850  17.616  38.995  13.820
 1918W        W65851  24.018   3.713  14.422
 1919W        W65852  35.960  38.516  11.467
 1920W        W65853  31.565  34.990   1.232
 1921W        W65854  29.450  21.035  13.919
 1922W        W65855  41.380   4.830  14.811
 1923W        W65856  26.180  28.036  14.429
 1924W        W65857  43.415  18.107   3.828
 1925W        W65858  12.251  22.584  12.879
 1926W        W65859   8.250  36.016  11.409
 1927W        W65860  44.314   5.263  12.823
 1928W        W65861  43.468   7.670   0.740
 1929W        W65862   8.818  26.092   4.825
 1930W        W65863   8.347  31.624   2.892
 1931W        W65864  15.604  39.817   3.302
 1932W        W65865  30.975  12.176   2.320
 1933W        W65866   3.254  39.826   1.357
 1934W        W65867  41.309  23.494  12.855
 1935W        W65868   5.200   6.729  13.830
 1936W        W65869  15.627  15.765  10.945
 1937W        W65870  29.134  21.070  12.470
 1938W        W65871  15.241  11.760   4.256
 1939W        W65872  22.736  10.730   3.828
 1940W        W65873  41.023   9.734  14.883
 1941W        W65874  31.578  27.075   2.276
 1942W        W65875   0.473   9.691  10.498
 1943W        W65876  29.076   8.892   1.250
 1944W        W65877   3.874  22.098   4.131
 1945W        W65878  23.558  42.981   2.241
 1946W        W65879  39.386   0.831  13.394
 1947W        W65880  39.826  39.951  13.823
 1948W        W65881   0.482  43.397  11.385
 1949W        W65882  21.610  27.670   5.309
 1950W        W65883  14.231   7.694   1.711
 1951W        W65884  24.529  12.196  11.111
 1952W        W65885  13.257  39.817  11.584
 1953W        W65886  16.599  24.626   3.790
 1954W        W65887  16.770   4.943   4.348
 1955W        W65888  32.941  44.851  14.926
 1956W        W65889  35.444   8.688   4.342
 1957W        W65890  36.570  37.347  10.041
 1958W        W65891   2.378  32.043   0.374
 1959W        W65892  17.565  43.275   1.375
 1960W        W65893   9.303  30.002  12.940
 1961W        W65894  42.439  16.218  12.494
 1962W        W65895  27.553  17.665  13.960
 1963W        W65896   0.306  27.954   4.766
 1964W        W65897  20.213   8.851   2.839
 1965W        W65898  30.145  23.617   2.805
 1966W        W65899  24.578  27.952   0.733
 1967W        W65900  10.152   3.310   5.217
 1968W        W65901  17.711  12.744  12.837
 1969W        W65902  39.430  12.647   4.229
 1970W        W65903  43.306  27.099   0.926
 1971W        W65904  33.529  25.522  12.444
 1972W        W65905  31.133  25.189   5.157
 1973W        W65906  21.199  42.971  10.068
 1974W        W65907   7.761  19.692  10.147
 1975W        W65908  27.979  15.736   4.299
 1976W        W65909   8.185   2.757  13.898
 1977W        W65910  37.377  12.814   4.808
 1978W        W65911  43.393  32.142   0.406
 1979W        W65912  22.681  19.277   0.395
 1980W        W65913   9.200  18.087   1.433
 1981W        W65914  39.984  18.283   1.269
 1982W        W65915  43.468   1.976   3.726
 1983W        W65916   7.384  16.157  13.443
 1984W        W65917  11.356  31.460   3.199
 1985W        W65918   4.766  41.307   4.220
 1986W        W65919  36.879  19.615   4.195
 1987W        W65920   3.927   6.823   4.310
 1988W        W65921  36.460  14.816  12.566
 1989W        W65922   4.278   4.307   0.770
 1990W        W65923  30.041  29.093  12.905
 1991W        W65924   1.414  11.260  14.935
 1992W        W65925  32.567  41.034  12.577
 1993W        W65926  37.931  37.545  14.793
 1994W        W65927   6.292  10.742   4.279
 1995W        W65928  17.166   0.843   2.285
 1996W        W65929  17.786   0.824   0.290
 1997W        W65930   3.810  15.786  14.956
 1998W        W65931  32.440  30.649   3.699
 1999W        W65932  30.613   1.863  10.421
 2000W        W65933   5.196  39.315  14.429
 2001W        W65934  17.195  30.110   0.957
 2002W        W65935  21.732  23.493  13.872
 2003W        W65936   7.679  42.974   4.790
 2004W        W65937   9.788   2.822   3.189
 2005W        W65938  23.641  35.584  14.461
 2006W        W65939  13.781   6.411   1.327
 2007W        W65940  31.042   2.282  11.551
 2008W        W65941  34.437   6.907   2.241
 2009W        W65942   5.716  32.462   3.283
 2010W        W65943  23.007   9.804  11.978
 2011W        W65944  37.041  40.873  10.406
 2012W        W65945  11.780  17.286   3.346
 2013W        W65946  30.116  15.614   0.451
 2014W        W65947  14.823  37.500  10.975
 2015W        W65948  37.559  14.192  13.874
 2016W        W65949  36.540   2.914  14.307
 2017W        W65950   6.412  24.156   2.309
 2018W        W65951  20.599  13.625   2.322
 2019W        W65952  17.594  44.984  14.284
 2020W        W65953  36.998   4.714  13.514
 2021W        W65954  30.924  15.793   5.293
 2022W        W65955  31.497  18.696   4.169
 2023W        W65956  32.046  19.708  13.812
 2024W        W65957  18.689   4.941  14.478
 2025W        W65958  11.328  43.802   1.426
 2026W        W65959  15.619  42.948  10.992
 2027W        W65960  29.649  34.468  13.803
 2028W        W65961  15.695  35.568  11.877
 2029W        W65962  42.502  32.122  14.509
 2030W        W65963  37.895  28.627  11.045
 2031W        W65964  10.710  12.668   2.877
 2032W        W65965  13.778  20.701   3.230
 2033W        W65966   9.690  33.952   2.891
 2034W        W65967  40.468  44.453  14.430
 2035W        W65968  32.531   9.754   3.770
 2036W        W65969  41.805   8.783  12.867
 2037W        W65970   9.758   7.327  13.844
 2038W        W65971  34.076  30.599  11.486
 2039W        W65972  20.101  41.855   3.840
 2040W        W65973  37.428  40.858   1.265
 2041W        W65974   5.709  18.623  10.904
 2042W        W65975  31.477  30.065   4.132
 2043W        W65976   2.289  33.563  13.478
 2044W        W65977  14.288  14.191   5.117
 2045W        W65978  20.155  18.082  13.338
 2046W        W65979   7.399   9.335  12.573
 2047W        W65980  11.646  10.701   4.658
 2048W        W65981  18.549  20.587   2.368
 2049W        W65982  30.961  21.195  12.488
 2050W        W65983   9.729  40.832  11.515
 2051W        W65984  43.931  33.911  11.484
 2052W        W65985  31.626  24.706   0.857
 2053W        W65986  13.332   5.707   3.241
 2054W        W65987  23.009  27.152   1.838
 2055W        W65988  29.662  35.425   0.754
 2056W        W65989   2.906   5.840  13.926
 2057W        W65990   2.822  20.604   0.958
 2058W        W65991  20.548  28.014  13.353
 2059W        W65992  34.516   4.883  10.043
 2060W        W65993   3.766   5.915   0.943
 2061W        W65994  24.008  16.742   0.248
 2062W        W65995   9.789  23.554  10.156
 2063W        W65996  19.701   9.207   3.382
 2064W        W65997  26.619  15.643   1.234
 2065W        W65998  20.623  36.095  14.978
 2066W        W65999  18.641  15.790   2.370
 2067W        W66000  10.139  24.591  11.125
 2068W        W66001   7.177  24.684  10.965
 2069W        W66002  39.331  23.065   1.727
 2070W        W66003   5.319  42.394   2.876
 2071W        W66004   9.234  43.365  14.825
 2072W        W66005  17.218  11.644  10.449
 2073W        W66006   7.904  35.958   3.323
 2074W        W66007   9.166   9.758  14.381
 2075W        W66008   6.372  10.647  11.047
 2076W        W66009  32.555  41.857  12.549
 2077W        W66010  26.171  42.358  13.346
 2078W        W66011  35.358   3.811  14.024
 2079W        W66012  21.218  25.059   1.709
 2080W        W66013  25.650  17.134   0.735
 2081W        W66014  25.026  32.406  11.928
 2082W        W66015  19.655  30.094   1.337
 2083W        W66016   4.786  41.930   3.280
 2084W        W66017  33.407  29.430   3.643
 2085W        W66018  11.148  35.543  10.523
 2086W        W66019   3.252  43.437  13.433
 2087W        W66020  36.930  35.856  13.005
 2088W        W66021   6.240  22.093  12.829
 2089W        W66022  44.931  31.964  11.489
 2090W        W66023  34.113  15.228   0.729
 2091W        W66024   7.411  15.744   2.345
 2092W        W66025  22.670  28.629   3.237
 2093W        W66026   1.384   6.765  10.973
 2094W        W66027  19.774  37.928   5.712
 2095W        W66028  21.245   8.262   4.649
 2096W        W66029  24.990  17.158  12.068
 2097W        W66030  28.060  29.104  10.966
 2098W        W66031  31.057  19.741  12.018
 2099W        W66032  40.413  16.292   0.873
 2100W        W66033  25.482   2.872  10.478
 2101W        W66034  11.333  41.475   1.781
 2102W        W66035  17.596  35.917   5.175
 2103W        W66036  41.941   7.227   0.956
 2104W        W66037  24.156  37.951  13.850
 2105W        W66038   1.854  34.081  12.830
 2106W        W66039   8.791  28.072   0.443
 2107W        W66040  40.361  26.672  13.963
 2108W        W66041  24.985   8.362   3.351
 2109W        W66042   2.762  14.614   1.258
 2110W        W66043  12.650   2.469   3.865
 2111W        W66044  25.967  28.455   1.348
 2112W        W66045   5.240  22.108  11.954
 2113W        W66046  24.202   6.238   4.709
 2114W        W66047  31.500  10.171  13.339
 2115W        W66048  13.263   3.380  11.506
 2116W        W66049   1.731  10.649  11.457
 2117W        W66050  42.326  39.492  12.378
 2118W        W66051   7.747  21.233  12.909
 2119W        W66052  43.503  10.711   2.830
 2120W        W66053   6.293   9.239  12.340
 2121W        W66054  33.567  12.768  13.875
 2122W        W66055  28.670  30.071   1.854
 2123W        W66056  21.522  13.265   4.616
 2124W        W66057   4.867  12.632   3.258
 2125W        W66058   7.360   0.337   0.852
 2126W        W66059  41.345  39.885   0.413
 2127W        W66060   2.309  30.102   1.847
 2128W        W66061  24.021  43.368  13.326
 2129W        W66062  30.502  35.527   1.326
 2130W        W66063   8.272  35.365   1.369
 2131W        W66064  26.522  43.904  13.325
 2132W        W66065  39.829   4.714   2.282
 2133W        W66066  24.575  36.847  11.371
 2134W        W66067   6.846   7.214   2.275
 2135W        W66068   6.269  18.279   2.676
 2136W        W66069  17.695  10.192   4.117
 2137W        W66070   3.786  40.898  12.446
 2138W        W66071  27.974  30.599   4.621
 2139W        W66072  27.512  24.082  14.984
 2140W        W66073  15.155  12.702  13.488
 2141W        W66074  12.286  35.039  12.905
 2142W        W66075  41.485  33.483   4.808
 2143W        W66076   2.470  42.430  10.602
 2144W        W66077  19.634  36.876   1.363
 2145W        W66078  14.231   0.445  10.068
 2146W        W66079  21.649  17.062   2.819
 2147W        W66080  24.021  35.000  11.429
 2148W        W66081  29.142   7.679   3.713
 2149W        W66082  21.064  38.864   3.845
 2150W        W66083  25.605  30.573   1.250
 2151W        W66084  14.223  22.182  11.037
 2152W        W66085  32.577   1.380  10.577
 2153W        W66086  14.146  24.992  11.952
 2154W        W66087  22.006  41.814   4.269
 2155W        W66088   3.440  34.583   4.612
 2156W        W66089  11.732   9.273  10.537
 2157W        W66090  43.788   8.854  11.063
 2158W        W66091  24.560  26.642  11.483
 2159W        W66092  44.310  32.013   0.918
 2160W        W66093  34.898  26.479   0.923
 2161W        W66094  25.486   0.362  12.877
 2162W        W66095  42.016  12.689  13.024
 2163W        W66096  33.068  12.359   1.319
 2164W        W66097  35.084  44.806  13.349
 2165W        W66098  16.781  13.154  13.357
 2166W        W66099  43.001  16.809  13.929
 2167W        W66100  37.994  19.244   0.437
 2168W        W66101  18.128   8.311   4.694
 2169W        W66102  40.372  15.286   4.258
 2170W        W66103  37.056  40.513   4.146
 2171W        W66104  25.567  27.636  12.974
 2172W        W66105  24.665  26.030  11.491
 2173W        W66106  31.515  23.656  10.984
 2174W        W66107  43.021  34.120  11.494
 2175W        W66108  11.622  39.036   3.185
 2176W        W66109  42.340  35.577   5.791
 2177W        W66110  24.676  43.795  14.330
 2178W        W66111  16.246  17.674  12.834
 2179W        W66112  30.953  21.623   0.928
 2180W        W66113  35.054  10.366   5.143
 2181W        W66114   2.420  41.795   2.409
 2182W        W66115  11.677   1.327  11.910
 2183W        W66116  21.126  40.547  14.818
 2184W        W66117  12.773   2.962   4.750
 2185W        W66118  17.094  43.394  12.445
 2186W        W66119  17.141   7.685  10.604
 2187W        W66120  41.392  19.153   2.243
 2188W        W66121  33.490  15.169   4.188
 2189W        W66122   8.352  16.676   1.304
 2190W        W66123  14.231   4.820   3.384
 2191W        W66124  11.770  23.200   2.847
 2192W        W66125  44.336  24.044  13.424
 2193W        W66126  38.543  31.916  11.861
 2194W        W66127   4.443  42.874   4.176
 2195W        W66128  10.272  20.714  11.387
 2196W        W66129  22.012  39.029   1.410
 2197W        W66130  16.809   7.706   9.936
 2198W        W66131  13.831  17.252  14.287
 2199W        W66132  35.069   0.749   5.157
 2200W        W66133  44.421  26.173   4.349
 2201W        W66134  27.057  38.559   1.338
 2202W        W66135  30.913   0.386   1.883
 2203W        W66136   1.932  14.260  13.992
 2204W        W66137  28.554  36.540   3.758
 2205W        W66138   7.777  26.078   2.254
 2206W        W66139  41.394  25.703  11.543
 2207W        W66140  43.008  34.388   3.273
 2208W        W66141  27.159   7.694  13.036
 2209W        W66142  15.297  25.559   3.219
 2210W        W66143  21.238  41.392  10.036
 2211W        W66144  43.805  41.529  14.325
 2212W        W66145  19.056   7.227   0.428
 2213W        W66146  43.914  18.567  14.370
 2214W        W66147  43.295  28.050   3.360
 2215W        W66148  11.257  42.933  13.924
 2216W        W66149  43.456   8.720  12.837
 2217W        W66150   0.798  32.481   0.379
 2218W        W66151  10.678  44.380   1.355
 2219W        W66152  28.112   4.414  14.894
 2220W        W66153   3.227  23.660  10.507
 2221W        W66154  23.540  28.622  11.579
 2222W        W66155  31.037  43.823   2.210
 2223W        W66156   6.325   1.919   5.321
 2224W        W66157   7.363  21.597   4.222
 2225W        W66158  35.447  18.705  12.343
 2226W        W66159  37.463   2.318   1.272
 2227W        W66160  29.551   1.932  10.961
 2228W        W66161  22.656  29.455   4.347
 2229W        W66162  38.462  29.944  12.966
 2230W        W66163  44.929  21.670   2.209
 2231W        W66164  26.009  29.175  11.584
 2232W        W66165  43.305  31.609  12.016
 2233W        W66166   6.780  15.815   1.909
 2234W        W66167  31.933  12.245  11.028
 2235W        W66168  20.556  15.688  12.519
 2236W        W66169   6.737  20.711   2.810
 2237W        W66170  22.127  29.998   1.766
 2238W        W66171   9.848  20.620   3.737
 2239W        W66172  33.390  30.659  10.635
 2240W        W66173  29.082  35.485   1.433
 2241W        W66174   1.795   9.367   3.184
 2242W        W66175  22.697  21.542   3.776
 2243W        W66176  33.605  11.629  12.499
 2244W        W66177  31.517  37.932  12.878
 2245W        W66178  19.074  36.046   4.164
 2246W        W66179  43.876  32.036   0.957
 2247W        W66180  41.043  28.492   3.725
 2248W        W66181   6.297  17.190  14.363
 2249W        W66182   1.800  32.432  12.964
 2250W        W66183  11.743   6.420   0.438
 2251W        W66184  14.783  28.577   2.895
 2252W        W66185  11.320  31.552  14.451
 2253W        W66186  35.987  14.677  11.374
 2254W        W66187   7.876   4.728  11.927
 2255W        W66188  23.515  20.573  12.344
 2256W        W66189  28.931  40.945  10.999
 2257W        W66190  14.603  16.608  14.942
 2258W        W66191  10.227  35.056   4.663
 2259W        W66192  20.067   9.326  14.954
 2260W        W66193  22.204  42.394  14.765
 2261W        W66194  19.172  26.551   2.766
 2262W        W66195   7.770  42.933  12.004
 2263W        W66196  42.430  27.557   1.836
 2264W        W66197  39.841  20.063  14.006
 2265W        W66198  25.560   5.283   2.402
 2266W        W66199  31.035  44.436   3.263
 2267W        W66200   1.404  27.040   3.256
 2268W        W66201  38.343  13.261   0.926
 2269W        W66202   7.314   2.736   0.252
 2270W        W66203  15.647  31.632  14.497
 2271W        W66204   8.766  17.209  13.482
 2272W        W66205  42.329   6.678  12.075
 2273W        W66206  17.069   3.256  10.549
 2274W        W66207  36.568  12.690   0.914
 2275W        W66208  23.669  17.254   3.149
 2276W        W66209  42.855  12.708   1.327
 2277W        W66210   5.196   9.762   4.661
 2278W        W66211  25.657  32.410   1.838
 2279W        W66212   8.699  27.625  12.885
 2280W        W66213  23.542  19.249   4.221
 2281W        W66214  32.970  16.154   0.380
 2282W        W66215  36.395   3.926  13.795
 2283W        W66216  43.465   1.389   0.752
 2284W        W66217   7.688  16.196   1.376
 2285W        W66218  16.700   9.869  11.576
 2286W        W66219  28.613  38.522  10.941
 2287W        W66220  25.561  44.861   2.373
 2288W        W66221  30.510  18.150   0.783
 2289W        W66222   2.928   9.328   1.266
 2290W        W66223  32.502  22.236  10.433
 2291W        W66224  39.476  36.862  14.354
 2292W        W66225   4.392   4.741   3.179
 2293W        W66226  11.249  41.007   0.451
 2294W        W66227  33.386  43.968  10.107
 2295W        W66228  10.331  39.552  10.473
 2296W        W66229  43.813  40.840   0.796
 2297W        W66230  11.188  40.857  10.953
 2298W        W66231  21.147  33.913  14.497
 2299W        W66232  15.262   5.845   3.319
 2300W        W66233  32.028   7.300   2.750
 2301W        W66234  35.526   5.391  13.843
 2302W        W66235  42.427  14.167   4.625
 2303W        W66236  11.700  10.732  12.018
 2304W        W66237  43.413  12.166  14.896
 2305W        W66238  11.223  25.680  12.540
 2306W        W66239  39.885  40.048   4.209
 2307W        W66240  30.564  27.111   2.822
 2308W        W66241   0.400  37.336  11.955
 2309W        W66242   7.280  32.417  11.479
 2310W        W66243  20.214  17.148   3.701
 2311W        W66244   6.683  39.908   3.760
 2312W        W66245  12.308  38.407   1.819
 2313W        W66246  18.557  23.638   5.280
 2314W        W66247  40.021   3.948   2.794
 2315W        W66248  43.903  17.746   4.300
 2316W        W66249  16.794  39.321   3.725
 2317W        W66250  39.347  11.284  11.081
 2318W        W66251  22.117   6.783  12.553
 2319W        W66252  14.205  37.353   2.810
 2320W        W66253  13.226  11.758  12.966
 2321W        W66254   0.344  35.416   2.337
 2322W        W66255  12.853   7.220  12.551
 2323W        W66256  19.676   5.193   3.173
 2324W        W66257  31.630   2.881   0.285
 2325W        W66258   5.323  11.188   0.949
 2326W        W66259  12.143  21.747  13.865
 2327W        W66260  34.100  28.627  13.457
 2328W        W66261   0.807   5.362  14.442
 2329W        W66262  39.419  24.507  11.406
 2330W        W66263  15.236  37.447   3.655
 2331W        W66264  37.464  44.994  11.039
 2332W        W66265  24.218  18.279  14.492
 2333W        W66266  27.664  15.174  12.570
 2334W        W66267  30.048  18.070  13.049
 2335W        W66268  38.436   1.314  13.038
 2336W        W66269  40.868  42.340   3.191
 2337W        W66270  13.125  37.570   0.443
 2338W        W66271  18.166  15.664   5.640
 2339W        W66272   7.276  27.509  13.010
 2340W        W66273  42.418   3.296   4.145
 2341W        W66274  40.352  17.800   2.376
 2342W        W66275  36.535  33.935   2.191
 2343W        W66276  27.621   2.283  11.423
 2344W        W66277   9.702  42.029  13.812
 2345W        W66278  28.145  30.163   1.400
 2346W        W66279  40.800  24.001  10.429
 2347W        W66280  26.648  35.462   3.844
 2348W        W66281  14.217   6.692  12.889
 2349W        W66282  40.533  38.025  13.530
 2350W        W66283  12.672  23.516   1.876
 2351W        W66284  16.804   3.278  11.908
 2352W        W66285  23.092  19.549   3.655
 2353W        W66286  16.296   6.346   2.328
 2354W        W66287  10.853   3.904   2.248
 2355W        W66288  34.077  35.872  14.469
 2356W        W66289  17.257  11.791   4.190
 2357W        W66290   9.344   6.231   0.480
 2358W        W66291  34.054  38.374   3.340
 2359W        W66292   0.966  42.960  10.626
 2360W        W66293  12.161  34.017   0.349
 2361W        W66294   3.926  35.483  12.093
 2362W        W66295  38.820   8.171  11.105
 2363W        W66296  38.979  17.156   3.674
 2364W        W66297   6.711   3.915   3.381
 2365W        W66298  22.010  15.225   4.329
 2366W        W66299  20.623  35.603  14.470
 2367W        W66300  32.947  15.757   1.819
 2368W        W66301  28.999   7.758   2.189
 2369W        W66302  39.049  10.811  13.311
 2370W        W66303  27.634  22.081   4.834
 2371W        W66304   4.787  39.541   4.784
 2372W        W66305  23.091  18.779   0.785
 2373W        W66306  23.500  41.891  11.923
 2374W        W66307  27.182   4.226   3.732
 2375W        W66308  32.584  34.909   2.402
 2376W        W66309  42.895   7.278   0.958
 2377W        W66310   2.377  22.120   4.173
 2378W        W66311  31.122  44.493   2.683
 2379W        W66312  37.427   4.317   1.850
 2380W        W66313   0.757  19.055   3.841
 2381W        W66314  29.519  15.230   1.380
 2382W        W66315  29.998   0.396  14.389
 2383W        W66316  17.254  15.239  13.373
 2384W        W66317  32.994   1.806   2.831
 2385W        W66318  12.213  42.789   0.793
 2386W        W66319   0.797   7.772  12.033
 2387W        W66320  30.075   7.263  14.897
 2388W        W66321   3.454  30.996   1.434
 2389W        W66322  32.456  33.548  11.989
 2390W        W66323   0.407   7.398  10.617
 2391W        W66324   6.902  35.013  10.571
 2392W        W66325  11.287  17.266   2.265
 2393W        W66326  21.232   9.271   5.272
 2394W        W66327  32.517  13.318  12.067
 2395W        W66328   6.793  33.127  12.498
 2396W        W66329   7.885  32.434  10.607
 2397W        W66330  12.660  23.150   0.373
 2398W        W66331   8.281  22.119   3.326
 2399W        W66332  35.087  43.451  11.902
 2400W        W66333   3.890  29.572  13.480
 2401W        W66334   2.447   0.887   4.145
 2402W        W66335   6.273  13.308  12.828
 2403W        W66336  10.316  22.050   2.777
 2404W        W66337  11.367  40.373  10.601
 2405W        W66338   2.833  36.562  13.911
 2406W        W66339  19.068  13.682  14.384
 2407W        W66340  33.616  29.955  11.005
 2408W        W66341  34.604  27.062  12.990
 2409W        W66342   9.727  23.639   0.869
 2410W        W66343  35.879  10.636   3.806
 2411W        W66344   0.978  34.065   3.298
 2412W        W66345  38.869  24.487   0.743
 2413W        W66346  27.144  32.508   4.131
 2414W        W66347  36.052  37.435  11.959
 2415W        W66348  27.660  14.795  14.337
 2416W        W66349  25.984   5.198  10.938
 2417W        W66350  15.214  32.566   1.713
 2418W        W66351   9.375  18.100   3.726
 2419W        W66352  38.911  27.076  12.076
 2420W        W66353  18.270  21.258  11.105
 2421W        W66354  29.027  24.653  11.031
 2422W        W66355  34.007  17.640   3.786
 2423W        W66356  22.620  27.186  14.492
 2424W        W66357  38.413  29.027   3.201
 2425W        W66358  37.406  18.127   4.807
 2426W        W66359  28.943   2.930  14.879
 2427W        W66360  35.408  15.252   1.397
 2428W        W66361  21.728  12.826   4.609
 2429W        W66362  19.051   5.720  13.307
 2430W        W66363   7.826  21.152   3.251
 2431W        W66364  30.467   6.712  11.856
 2432W        W66365   2.349  27.454  13.894
 2433W        W66366   2.371   4.343  11.546
 2434W        W66367   6.872   7.189   1.447
 2435W        W66368  34.972  12.247  14.933
 2436W        W66369  41.370  16.093  12.924
 2437W        W66370  26.466  31.552  14.784
 2438W        W66371  14.263   6.298  12.541
 2439W        W66372   0.965  29.956  11.548
 2440W        W66373  14.224  32.944   9.944
 2441W        W66374  30.031  38.380  13.886
 2442W        W66375  13.801  19.775   1.920
 2443W        W66376  36.546  22.663   0.451
 2444W        W66377   1.313  29.931  12.032
 2445W        W66378  38.889  21.162   0.464
 2446W        W66379  15.193  17.676  13.344
 2447W        W66380  36.472  21.589  10.545
 2448W        W66381  12.119   0.985  13.337
 2449W        W66382  14.114  37.864   4.786
 2450W        W66383  28.487  14.826   4.681
 2451W        W66384  23.653  30.502  14.962
 2452W        W66385  14.602  21.116  12.350
 2453W        W66386  24.077  42.878   0.481
 2454W        W66387  11.371  43.949  14.384
 2455W        W66388  19.621   4.714  14.947
 2456W        W66389  31.053  15.727   0.313
 2457W        W66390  13.206  21.549  14.943
 2458W        W66391  32.531  33.966  10.634
 2459W        W66392  41.376   8.887   2.703
 2460W        W66393  26.012  42.314   1.310
 2461W        W66394  10.298   7.207   4.812
 2462W        W66395   0.368  37.842   3.290
 2463W        W66396  44.332  28.515  10.068
 2464W        W66397   3.390  30.510   0.297
 2465W        W66398  33.979  39.987  13.977
 2466W        W66399  27.520  44.441  13.421
 2467W        W66400  38.055   4.715  11.525
 2468W        W66401  32.515  21.733   0.883
 2469W        W66402  36.411  22.591   2.892
 2470W        W66403   7.810  20.669   2.331
 2471W        W66404  20.581  29.646   4.353
 2472W        W66405  22.559  13.228   3.274
 2473W        W66406  33.477  15.682   4.192
 2474W        W66407   8.362   2.905  11.422
 2475W        W66408  10.794  43.278   1.297
 2476W        W66409   4.775  27.041  10.139
 2477W        W66410  17.756   4.416   4.277
 2478W        W66411  25.061   2.245  11.565
 2479W        W66412   6.782   8.893  13.426
 2480W        W66413  14.215  27.952  14.786
 2481W        W66414   1.777  14.834   4.800
 2482W        W66415   5.327  27.467   1.893
 2483W        W66416  14.642  34.055  13.529
 2484W        W66417  30.534  17.107  11.579
 2485W        W66418  43.343  16.141   3.306
 2486W        W66419  26.137  42.502  13.798
 2487W        W66420  33.940  17.661  10.495
 2488W        W66421  28.476  37.379   3.190
 2489W        W66422  30.948  23.058  14.995
 2490W        W66423  33.973  37.386  12.428
 2491W        W66424  21.233  26.122  13.347
 2492W        W66425  40.019  18.599   4.141
 2493W        W66426  27.552  27.523   0.733
 2494W        W66427  23.234   7.304  13.448
 2495W        W66428  42.895  23.074   3.186
 2496W        W66429  39.942  38.045  13.828
 2497W        W66430   4.702  13.142  13.505
 2498W        W66431  38.854   6.765  12.864
 2499W        W66432  43.494  30.050   2.883
 2500W        W66433  41.420  19.672  12.486
 2501W        W66434  12.271   2.904  11.566
 2502W        W66435  27.529  32.412  10.577
 2503W        W66436  41.471  25.068  11.028
 2504W        W66437  42.478  30.467   1.781
 2505W        W66438  27.960   2.280  14.366
 2506W        W66439   3.794  21.627   1.403
 2507W        W66440  27.181   5.301  14.852
 2508W        W66441  41.844  24.567  13.872
 2509W        W66442  10.747   5.865   1.761
 2510W        W66443  11.303  26.110  12.079
 2511W        W66444  32.040  33.074  10.409
 2512W        W66445   6.255  30.120  14.425
 2513W        W66446  38.353  15.677  12.563
 2514W        W66447  10.233  42.834  12.085
 2515W        W66448  12.708  14.330   2.815
 2516W        W66449  24.185  20.594   0.414
 2517W        W66450  35.468  24.616   1.293
 2518W        W66451  11.349   8.296   4.702
 2519W        W66452  10.214  20.191  13.457
 2520W        W66453   2.749  38.420   2.866
 2521W        W66454  21.029  30.552   4.831
 2522W        W66455  40.490  31.946  12.518
 2523W        W66456  20.080  19.711   2.290
 2524W        W66457  10.744  40.357  14.892
 2525W        W66458  34.093  30.912  14.829
 2526W        W66459  28.016  13.210  10.462
 2527W        W66460  38.350  23.101  14.378
 2528W        W66461   3.430  31.442  10.538
 2529W        W66462   6.763  43.428   2.869
 2530W        W66463  16.569  40.405  14.467
 2531W        W66464  11.745  44.918   1.219
 2532W        W66465  41.292  26.644   3.290
 2533W        W66466  44.928  22.710   1.394
 2534W        W66467  44.474  24.530   2.379
 2535W        W66468   2.389  43.844   4.661
 2536W        W66469  33.550  10.779   3.666
 2537W        W66470  13.691   4.873   2.190
 2538W        W66471  11.296  14.248  13.966
 2539W        W66472  26.685   6.210  13.371
 2540W        W66473  17.248   0.961  14.492
 2541W        W66474  26.971   7.682  14.311
 2542W        W66475   9.838  27.081  11.086
 2543W        W66476  25.496  28.028   3.155
 2544W        W66477   7.186  25.662   2.328
 2545W        W66478  14.234  25.540   1.357
 2546W        W66479   4.882  17.268   5.261
 2547W        W66480  25.106  30.589   0.464
 2548W        W66481  26.580  33.909   2.806
 2549W        W66482  28.087  12.634   3.851
 2550W        W66483  10.160  37.427  12.467
 2551W        W66484  16.156  35.039   3.320
 2552W        W66485  14.705  25.584  14.973
 2553W        W66486  21.700  13.839  10.471
 2554W        W66487  39.000  26.046  13.844
 2555W        W66488  28.093   4.864  12.343
 2556W        W66489  42.438   0.295   3.192
 2557W        W66490  36.880  22.691   2.387
 2558W        W66491  23.556  21.179  11.917
 2559W        W66492  17.791  24.631  13.883
 2560W        W66493  42.409  37.411  14.913
 2561W        W66494  30.530   2.956   1.923
 2562W        W66495   2.357   7.704   0.843
 2563W        W66496  10.358  18.196  13.034
 2564W        W66497  20.525  31.556   4.797
 2565W        W66498  12.819  21.598   0.411
 2566W        W66499  10.646  44.896   0.449
 2567W        W66500  37.354  16.245   0.818
 2568W        W66501  24.506  33.011  10.982
 2569W        W66502  27.534  28.013  11.886
 2570W        W66503  21.065  39.509  14.912
 2571W        W66504  43.400  24.528  14.511
 2572W        W66505  40.497  29.976  12.881
 2573W        W66506   4.442  15.730  11.516
 2574W        W66507  10.360  27.491  10.133
 2575W        W66508  24.006  34.000  13.463
 2576W        W66509  36.386  23.692   2.676
 2577W        W66510  42.438   5.821   3.362
 2578W        W66511  26.572  40.329   5.222
 2579W        W66512  23.133  27.096  13.513
 2580W        W66513  18.090   6.347  13.881
 2581W        W66514   9.333  14.141  13.407
 2582W        W66515  40.848  40.303   0.311
 2583W        W66516  37.961  13.309  13.852
 2584W        W66517  23.174  38.009  10.515
 2585W        W66518  28.941  13.769  13.495
 2586W        W66519  44.771  43.282   3.823
 2587W        W66520   9.223   7.199   0.961
 2588W        W66521  42.449  11.167  12.875
 2589W        W66522  25.621  38.015   0.271
 2590W        W66523  23.208  15.220   0.422
 2591W        W66524   1.775  37.379   1.706
 2592W        W66525  31.069  28.105  12.025
 2593W        W66526  22.079   9.277   2.862
 2594W        W66527  22.577  32.119  11.956
 2595W        W66528  26.561  44.771  11.868
 2596W        W66529  31.928  25.214  14.475
 2597W        W66530  39.539  17.303  11.126
 2598W        W66531  30.989  18.740  12.829
 2599W        W66532   8.787  27.044   1.222
 2600W        W66533  26.162  12.622  10.939
 2601W        W66534  34.871  30.958   0.925
 2602W        W66535  25.479  11.162   1.769
 2603W        W66536   5.346  33.577   4.224
 2604W        W66537  32.922  30.927   1.748
 2605W        W66538  42.935  43.279  15.000
 2606W        W66539   2.812  28.047   4.828
 2607W        W66540  35.909  21.194   3.175
 2608W        W66541   5.206   5.738   2.879
 2609W        W66542  34.096  12.759  14.779
 2610W        W66543  40.417  28.466   1.230
 2611W        W66544   6.242   5.209   4.804
 2612W        W66545  36.418  15.632   2.328
 2613W        W66546  20.753  40.385  12.484
 2614W        W66547  37.406  32.974   3.224
 2615W        W66548  22.578  14.793   4.215
 2616W        W66549   6.749  21.072   1.273
 2617W        W66550  12.207  18.176  13.007
 2618W        W66551  39.353  16.285  13.796
 2619W        W66552  20.582   7.759   2.738
 2620W        W66553  26.002  24.093   4.200
 2621W        W66554  42.983  12.308   4.145
 2622W        W66555  40.806  15.274  12.017
 2623W        W66556  22.213  16.294   3.293
 2624W        W66557  17.613  12.689   2.717
 2625W        W66558  43.950  21.546  14.408
 2626W        W66559  35.550  41.454   0.852
 2627W        W66560  40.411  25.683  13.060
 2628W        W66561  13.736  35.429   1.262
 2629W        W66562  34.397  31.591   3.857
 2630W        W66563  12.196  22.082  11.604
 2631W        W66564  11.855   8.725  10.475
 2632W        W66565  17.073  10.214  13.894
 2633W        W66566  43.274  31.082  13.395
 2634W        W66567  17.232  30.123  14.881
 2635W        W66568  33.028   8.360  14.460
 2636W        W66569  35.024  11.699   0.306
 2637W        W66570  42.908  40.448   3.283
 2638W        W66571  18.719  34.006  14.983
 2639W        W66572  27.991  19.106  10.521
 2640W        W66573  15.815   2.761  12.844
 2641W        W66574   7.684  21.545   4.826
 2642W        W66575  18.781   2.746  13.033
 2643W        W66576  10.198  23.640   2.678
 2644W        W66577  26.048  42.454   4.814
 2645W        W66578   4.427  32.964  13.805
 2646W        W66579  27.649  24.086   0.308
 2647W        W66580  11.792  14.220   2.675
 2648W        W66581  36.965  42.868   3.851
 2649W        W66582  25.478  27.537  12.467
 2650W        W66583  30.596  30.536  10.444
 2651W        W66584   6.745   1.760   9.472
 2652W        W66585  27.659  16.712  12.420
 2653W        W66586  36.924  18.143   4.768
 2654W        W66587  27.033  35.440   0.430
 2655W        W66588  25.561  25.025  11.978
 2656W        W66589   7.896  13.797  12.852
 2657W        W66590  28.130  33.547   0.315
 2658W        W66591   9.789   4.338   2.840
 2659W        W66592  10.846  19.589   1.903
 2660W        W66593  12.807   6.723   2.680
 2661W        W66594  22.013  23.676   4.329
 2662W        W66595  37.054  43.509   3.693
 2663W        W66596  41.987   7.328  14.984
 2664W        W66597  43.515  44.264   1.854
 2665W        W66598  20.131   1.324   1.830
 2666W        W66599  22.682  16.099  13.445
 2667W        W66600  30.524  19.576  12.388
 2668W        W66601  30.517  24.724  12.883
 2669W        W66602  16.780  23.105   1.222
 2670W        W66603   6.750  40.852  10.513
 2671W        W66604   7.846  12.130  13.803
 2672W        W66605  38.909   1.381   2.371
 2673W        W66606   6.797  37.942   3.212
 2674W        W66607  31.480  18.660  11.121
 2675W        W66608  24.673   3.429  12.993
 2676W        W66609  37.945   8.772  13.971
 2677W        W66610  16.741  22.081   1.802
 2678W        W66611  10.816  27.666   2.184
 2679W        W66612  18.722  39.837   0.936
 2680W        W66613   3.718  41.438  11.373
 2681W        W66614  43.433  39.886   5.596
 2682W        W66615  39.931  28.616   3.758
 2683W        W66616  12.814  18.563   2.807
 2684W        W66617  25.174  32.088  11.489
 2685W        W66618  25.173   0.390  10.637
 2686W        W66619   9.726  38.491   3.260
 2687W        W66620   9.330  10.784  14.504
 2688W        W66621  38.897   2.318  14.975
 2689W        W66622  42.306  20.738   0.939
 2690W        W66623  44.834   4.701   0.734
 2691W        W66624  21.518  20.553   4.156
 2692W        W66625  40.915   6.267   0.367
 2693W        W66626  30.443  14.336  14.439
 2694W        W66627  15.582  43.825  11.979
 2695W        W66628  24.535  42.917   3.815
 2696W        W66629  12.307  22.512   2.670
 2697W        W66630   4.320  35.959  14.893
 2698W        W66631   6.187   9.188   1.258
 2699W        W66632  27.178  29.505   3.338
 2700W        W66633   3.817  21.621  12.998
 2701W        W66634   9.367  19.723   1.339
 2702W        W66635   7.706   8.719   9.921
 2703W        W66636  22.558  11.768   2.384
 2704W        W66637  33.087  33.982  13.898
 2705W        W66638  17.571  35.053   3.181
 2706W        W66639  27.000   4.776  13.366
 2707W        W66640  26.148  18.764   0.747
 2708W        W66641  34.997  24.113  11.111
 2709W        W66642  35.536   3.940   2.273
 2710W        W66643  34.080  13.716   3.671
 2711W        W66644  39.512  41.798   2.790
 2712W        W66645  44.985   6.683  10.500
 2713W        W66646   9.281  24.018  14.311
 2714W        W66647  28.046  32.953  10.124
 2715W        W66648  36.395  11.165  11.568
 2716W        W66649  17.567   5.319   2.202
 2717W        W66650   3.290  41.466  14.295
 2718W        W66651  31.016  43.407  11.578
 2719W        W66652  32.081  35.921   0.782
 2720W        W66653  26.955  21.196  12.489
 2721W        W66654  28.176  29.136  13.001
 2722W        W66655  30.595  19.767   1.293
 2723W        W66656  34.400  17.244   2.419
 2724W        W66657  20.174  17.690  13.802
 2725W        W66658   7.875   4.205  12.059
 2726W        W66659  20.146  23.691   2.188
 2727W        W66660  27.535   2.299  14.307
 2728W        W66661  32.900  18.052  12.531
 2729W        W66662  23.026  16.154   3.649
 2730W        W66663  33.492  31.423   0.860
 2731W        W66664   8.776  26.101  11.936
 2732W        W66665  36.061  41.489   1.724
 2733W        W66666   3.382  42.353  10.568
 2734W        W66667  20.557  41.946   0.734
 2735W        W66668  15.638  34.016  14.427
 2736W        W66669  32.413  31.057  12.887
 2737W        W66670   9.202  26.967  14.432
 2738W        W66671  29.131  33.979  14.506
 2739W        W66672   3.787  30.523  11.519
 2740W        W66673  25.707  18.096   3.696
 2741W        W66674  17.234  22.680   4.618
 2742W        W66675  21.193  26.163   3.745
 2743W        W66676  23.233  30.123   4.344
 2744W        W66677  16.151   1.753  14.375
 2745W        W66678  11.738  20.057  12.444
 2746W        W66679   9.750  21.678  14.910
 2747W        W66680  10.873  22.608  11.919
 2748W        W66681  39.500  13.809   2.285
 2749W        W66682  38.406  40.995   4.330
 2750W        W66683  43.882   6.213  12.043
 2751W        W66684  36.563   5.791  13.932
 2752W        W66685  41.008   4.742   1.430
 2753W        W66686  44.484   5.901   2.721
 2754W        W66687  16.223  16.082  13.521
 2755W        W66688  12.288   5.926   3.342
 2756W        W66689  43.446  32.079   1.354
 2757W        W66690  34.931  33.984   4.831
 2758W        W66691   8.257  32.910  11.418
 2759W        W66692  12.755  30.078  13.380
 2760W        W66693  18.780  13.742  12.056
 2761W        W66694   6.895  43.405  14.938
 2762W        W66695  38.345  27.174   0.340
 2763W        W66696  22.192  18.255   3.859
 2764W        W66697   1.924  33.974   1.316
 2765W        W66698  23.526  15.607   3.231
 2766W        W66699  16.762   6.781   1.217
 2767W        W66700  43.823  29.053   2.406
 2768W        W66701  27.605   4.357   1.282
 2769W        W66702  34.549   3.748   2.217
 2770W        W66703  35.434  27.660   4.201
 2771W        W66704  27.569   7.756  14.445
 2772W        W66705  37.085  39.473  10.582
 2773W        W66706  17.583  39.355   0.840
 2774W        W66707   4.388  14.622   4.802
 2775W        W66708  25.073  18.777   3.272
 2776W        W66709   1.903  14.591   4.334
 2777W        W66710  14.639   9.281   4.700
 2778W        W66711  38.864   9.645  12.392
 2779W        W66712  28.554  18.681  10.408
 2780W        W66713  19.685  42.309   3.183
 2781W        W66714  32.539   1.914  14.474
 2782W        W66715  12.682   1.273   1.841
 2783W        W66716  28.160  30.143  10.564
 2784W        W66717  37.459  31.064   2.878
 2785W        W66718  26.586  15.085  11.585
 2786W        W66719   1.853  29.972  14.860
 2787W        W66720  18.218  29.152   0.740
 2788W        W66721  21.167  35.385   4.216
 2789W        W66722   7.236  12.767   0.933
 2790W        W66723  10.232   9.241  12.496
 2791W        W66724  23.087  19.131   3.853
 2792W        W66725  40.934   2.408   2.270
 2793W        W66726  36.008   7.355  10.540
 2794W        W66727  31.973  38.993   1.846
 2795W        W66728  24.674  31.913  13.377
 2796W        W66729  32.498  11.726  10.517
 2797W        W66730  39.893  41.952   4.177
 2798W        W66731  12.719  39.888  12.096
 2799W        W66732   1.330  15.627  14.912
 2800W        W66733  23.600   9.668  13.865
 2801W        W66734  44.450  36.378   0.947
 2802W        W66735  38.524  28.469   0.746
 2803W        W66736   5.875  22.007   1.292
 2804W        W66737  17.090  16.711   1.739
 2805W        W66738  23.037  11.862  13.870
 2806W        W66739  42.446  30.506   0.332
 2807W        W66740  23.612   7.889  12.894
 2808W        W66741  15.232  10.742  12.922
 2809W        W66742   0.486  30.492  13.959
 2810W        W66743  42.498   5.699  14.903
 2811W        W66744  10.158  41.495  13.322
 2812W        W66745   6.332  39.558   1.760
 2813W        W66746   3.340  24.556  11.516
 2814W        W66747  19.605   9.720   3.866
 2815W        W66748  39.029   1.899  12.039
 2816W        W66749   7.319  27.464  13.525
 2817W        W66750  12.169  40.532   0.787
 2818W        W66751  25.122   6.801  12.086
 2819W        W66752  38.952  29.071   2.881
 2820W        W66753   3.227  23.500   0.905
 2821W        W66754  17.656  18.171  11.873
 2822W        W66755  43.858   4.805  10.932
 2823W        W66756  15.095  27.194   1.255
 2824W        W66757  23.647   7.201  13.935
 2825W        W66758  14.133  36.390   2.208
 2826W        W66759  17.110   6.203  13.048
 2827W        W66760  15.819  43.333  12.457
 2828W        W66761  41.917  38.939  13.419
 2829W        W66762   7.206  16.082   1.371
 2830W        W66763  22.737   0.461  10.121
 2831W        W66764  34.592  15.083   0.903
 2832W        W66765  21.756  16.261  14.477
 2833W        W66766   5.327   2.839   2.273
 2834W        W66767  35.506  35.439   3.826
 2835W        W66768  38.496  28.143  11.378
 2836W        W66769  40.032  25.601  12.425
 2837W        W66770  37.471  44.929   3.229
 2838W        W66771  20.670  33.402   0.245
 2839W        W66772  34.382  15.701  14.481
 2840W        W66773  30.001   2.305  12.539
 2841W        W66774  11.188  24.680   3.757
 2842W        W66775   7.222  17.775  13.011
 2843W        W66776  36.567  15.745   4.754
 2844W        W66777   5.250  44.839  10.588
 2845W        W66778  29.000  11.733  10.902
 2846W        W66779  40.525  42.364   1.864
 2847W        W66780  41.427  29.175  12.854
 2848W        W66781   4.868  17.748   3.727
 2849W        W66782  18.583   8.770  13.548
 2850W        W66783   9.345  28.134  13.357
 2851W        W66784  14.220  13.648  11.084
 2852W        W66785  27.562  24.004  14.434
 2853W        W66786  23.207  18.570  13.929
 2854W        W66787  37.011  12.710   1.892
 2855W        W66788  28.595  38.026  13.482
 2856W        W66789  36.946  18.157  12.898
 2857W        W66790  40.461   3.251  10.025
 2858W        W66791  22.678  16.735  13.926
 2859W        W66792   9.816  27.194   1.350
 2860W        W66793  22.625  11.836   3.674
 2861W        W66794  24.153   4.803   0.269
 2862W        W66795  21.077  26.161   5.082
 2863W        W66796  19.708  19.766   4.620
 2864W        W66797  21.208  17.260  14.386
 2865W        W66798  14.828  13.154  14.814
 2866W        W66799  31.082  36.415  12.868
 2867W        W66800  35.106   4.795   2.328
 2868W        W66801  42.399  13.799   1.290
 2869W        W66802  44.911  38.848  11.376
 2870W        W66803  16.209   8.375   3.289
 2871W        W66804  42.442  43.962  13.422
 2872W        W66805  33.593  28.071   4.794
 2873W        W66806  26.149  19.543   2.184
 2874W        W66807   8.836  36.060  14.337
 2875W        W66808   9.845  37.046  14.387
 2876W        W66809  35.045  37.910   2.897
 2877W        W66810  28.099  43.486  13.049
 2878W        W66811  40.315  40.813  11.911
 2879W        W66812  35.437  31.427   1.705
 2880W        W66813  30.967  44.350   0.248
 2881W        W66814   0.287  11.644  11.486
 2882W        W66815  23.662  21.573  12.870
 2883W        W66816  20.582   5.236   4.278
 2884W        W66817   9.184  19.738  14.391
 2885W        W66818  20.054  19.168  11.581
 2886W        W66819   9.656   1.829  11.585
 2887W        W66820  25.135  23.706   1.413
 2888W        W66821  19.690   2.936  13.932
 2889W        W66822  36.379  38.036  12.350
 2890W        W66823   4.703  10.310  13.863
 2891W        W66824   3.763  14.233   2.364
 2892W        W66825  39.557  34.053  13.339
 2893W        W66826  29.650   2.866  11.371
 2894W        W66827  24.514  22.150   0.904
 2895W        W66828  39.369  22.615   3.345
 2896W        W66829  27.591   1.772   4.822
 2897W        W66830  38.347   8.192  13.334
 2898W        W66831  20.210  12.199   3.150
 2899W        W66832   8.353  44.273  10.129
 2900W        W66833  17.247  16.620  13.880
 2901W        W66834  28.961  38.045   1.427
 2902W        W66835  19.674  11.736   4.283
 2903W        W66836  15.750  22.602  12.008
 2904W        W66837   5.864  33.089  12.451
 2905W        W66838  11.316  25.024   1.925
 2906W        W66839  30.529  17.591  14.805
 2907W        W66840  39.505  22.078   1.910
 2908W        W66841  12.770   8.383  10.616
 2909W        W66842   7.292  28.002   3.320
 2910W        W66843  20.727   5.194  14.382
 2911W        W66844  34.583  28.598   2.385
 2912W        W66845  36.443   6.814   4.143
 2913W        W66846   3.219  30.552  13.886
 2914W        W66847  22.191  29.581   2.373
 2915W        W66848   2.847   8.191  12.983
 2916W        W66849  21.118  18.738  13.897
 2917W        W66850  26.671  24.496  11.954
 2918W        W66851  28.955  40.393   4.793
 2919W        W66852  35.422  19.626   0.404
 2920W        W66853   3.387  31.900  11.464
 2921W        W66854   4.939  24.993   9.976
 2922W        W66855  30.993   4.876  12.934
 2923W        W66856  25.654  43.010  11.969
 2924W        W66857  24.541   3.429  11.501
 2925W        W66858   7.705  36.421  14.349
 2926W        W66859  22.221  14.803  13.403
 2927W        W66860  32.985  13.181  10.943
 2928W        W66861  22.130  25.080  14.415
 2929W        W66862   0.275  10.325  11.491
 2930W        W66863  10.280  20.065   1.210
 2931W        W66864   4.263  33.413  14.922
 2932W        W66865  38.336  29.534   1.878
 2933W        W66866  29.918  11.644  14.441
 2934W        W66867  15.750  26.497  13.009
 2935W        W66868   2.384  11.772   0.482
 2936W        W66869   1.244  42.494  13.360
 2937W        W66870  36.961  31.106   1.386
 2938W        W66871  16.740   1.911   1.269
 2939W        W66872  24.524  15.805   5.209
 2940W        W66873  19.687  31.977  13.878
 2941W        W66874   3.808  23.991   4.134
 2942W        W66875  28.525  38.421  14.304
 2943W        W66876  37.409   8.781  14.862
 2944W        W66877  23.141  13.762   4.722
 2945W        W66878   0.848  22.522   4.235
 2946W        W66879  43.984   9.187  13.996
 2947W        W66880  10.710  22.721   2.328
 2948W        W66881   3.931  19.536  14.918
 2949W        W66882  33.877  36.404   1.846
 2950W        W66883   3.405  38.963  11.939
 2951W        W66884  10.310   3.733   3.244
 2952W        W66885  34.563  35.414  13.512
 2953W        W66886   1.851  18.588  14.779
 2954W        W66887  36.494  31.094  13.512
 2955W        W66888  26.540  40.418   4.127
 2956W        W66889  11.664  42.334   3.769
 2957W        W66890   0.485   2.325   3.785
 2958W        W66891  36.550  30.963   1.251
 2959W        W66892  33.440   5.882  12.838
 2960W        W66893  38.888  19.618   0.285
 2961W        W66894  26.491  25.132   9.984
 2962W        W66895  38.552  18.230   2.205
 2963W        W66896  38.985  25.063  10.049
 2964W        W66897   2.788  29.528   0.915
 2965W        W66898  16.603  36.546  12.566
 2966W        W66899  40.021  36.464   4.825
 2967W        W66900  12.710  43.369   1.224
 2968W        W66901  17.566  25.167   2.797
 2969W        W66902  36.383  18.209   5.138
 2970W        W66903   8.684  37.335  14.379
 2971W        W66904  34.885  16.196  12.035
 2972W        W66905  16.184  27.536   1.714
 2973W        W66906  17.221  40.421  10.521
 2974W        W66907   6.375  21.724  13.396
 2975W        W66908  20.254  22.503   0.929
 2976W        W66909  11.667   9.292   2.733
 2977W        W66910  33.049  14.660   0.901
 2978W        W66911  15.125   5.711   1.827
 2979W        W66912  24.601  21.174  13.359
 2980W        W66913  19.775  28.160  12.946
 2981W        W66914  22.524  44.300   2.374
 2982W        W66915   7.729  37.377   2.258
 2983W        W66916  30.075   2.451   3.656
 2984W        W66917  32.540  44.354   0.835
 2985W        W66918  36.987  14.828  11.387
 2986W        W66919  41.961   3.276  12.091
 2987W        W66920  37.876  12.285  14.439
 2988W        W66921  17.099  13.805   0.341
 2989W        W66922   9.857  14.160  14.889
 2990W        W66923  42.468  17.670   2.200
 2991W        W66924  37.383  30.476   0.448
 2992W        W66925  37.937  17.208   0.461
 2993W        W66926  24.177  10.779   9.960
 2994W        W66927  37.408  35.599   2.889
 2995W        W66928  18.545  34.991   4.645
 2996W        W66929   3.909  37.366   2.708
 2997W        W66930  36.391  19.563  12.509
 2998W        W66931  14.596   8.742   5.259
 2999W        W66932  16.108  40.857   0.930
 3000W        W66933  32.134  19.702  14.278
 3001W        W66934   0.753  11.793   2.684
 3002W        W66935   5.771  16.302   3.720
 3003W        W66936  31.498   9.742   4.758
 3004W        W66937  21.170  32.541   4.353
 3005W        W66938  42.332  24.218   4.200
 3006W        W66939  40.875   2.960   0.751
 3007W        W66940  34.921  32.405  11.054
 3008W        W66941  33.077  13.769  14.458
 3009W        W66942   3.386  15.319  11.013
 3010W        W66943  19.640  24.133   4.258
 3011W        W66944  27.511  33.534   3.816
 3012W        W66945  22.211  28.930   1.791
 3013W        W66946  22.046  42.020  11.382
 3014W        W66947  30.533  43.415  12.008
 3015W        W66948   3.362  20.162   3.807
 3016W        W66949  19.285  33.128   3.630
 3017W        W66950  24.088  42.977   5.224
 3018W        W66951  15.770  32.608   4.171
 3019W        W66952  15.602  17.674   4.335
 3020W        W66953  36.347  12.292   4.735
 3021W        W66954  41.409  13.134   0.422
 3022W        W66955  34.923  23.991   3.822
 3023W        W66956  10.240  32.909  12.829
 3024W        W66957  19.164   5.203  12.887
 3025W        W66958  39.378  18.251   2.801
 3026W        W66959  18.089  19.171   3.363
 3027W        W66960  40.967  22.174   3.847
 3028W        W66961  23.543  43.846  12.948
 3029W        W66962  25.534  36.095   2.285
 3030W        W66963  13.279  33.894   1.707
 3031W        W66964  22.182  43.444   2.734
 3032W        W66965  17.193  37.046   0.959
 3033W        W66966  20.561  42.808  12.899
 3034W        W66967  18.104   0.962   1.824
 3035W        W66968  44.787  20.657   1.226
 3036W        W66969  22.522   9.358  10.894
 3037W        W66970  14.185  10.145  13.384
 3038W        W66971  34.371  36.919  11.081
 3039W        W66972  18.221  12.151   0.424
 3040W        W66973  20.763   0.310   2.775
 3041W        W66974  22.116  38.835  11.102
 3042W        W66975  42.933   0.481  11.538
 3043W        W66976   1.325  13.277  11.434
 3044W        W66977  28.147  25.542   0.743
 3045W        W66978  17.075   8.874  13.330
 3046W        W66979  30.073  35.966   0.294
 3047W        W66980  23.060   2.868  10.492
 3048W        W66981  32.908  43.790  10.577
 3049W        W66982  15.805  15.165  14.860
 3050W        W66983  41.439  18.606   0.396
 3051W        W66984   6.676  22.615   3.366
 3052W        W66985  37.447  39.380   2.753
 3053W        W66986  40.940   6.913  14.460
 3054W        W66987   3.759  28.540  14.785
 3055W        W66988   3.240   3.945  13.425
 3056W        W66989  21.531   6.782  12.997
 3057W        W66990   2.904   9.246   2.217
 3058W        W66991  21.516  13.715  11.558
 3059W        W66992  23.029  21.163   0.350
 3060W        W66993  28.491  20.140   4.706
 3061W        W66994   7.889  26.120   3.255
 3062W        W66995   1.734  38.909   3.181
 3063W        W66996  28.102  10.336   0.452
 3064W        W66997   4.902   3.847   1.252
 3065W        W66998   9.301  40.945  13.547
 3066W        W66999  39.993   8.765   1.302
 3067W        W67000   8.204  21.052   1.279
 3068W        W67001  11.694  31.422  14.847
 3069W        W67002   3.840   5.757  12.929
 3070W        W67003   6.719  13.223   2.882
 3071W        W67004  24.066  25.980  11.442
 3072W        W67005  25.209  22.243  12.541
 3073W        W67006  18.181   0.773  10.933
 3074W        W67007  30.596  15.188  14.932
 3075W        W67008  30.445  24.657  14.940
 3076W        W67009  35.085   7.881  12.340
 3077W        W67010  34.381  27.590  12.911
 3078W        W67011  14.628   5.688   4.278
 3079W        W67012  43.004  33.035   1.877
 3080W        W67013  22.703   1.770   4.805
 3081W        W67014  28.633  16.119   1.884
 3082W        W67015  32.552  13.241   0.436
 3083W        W67016  19.177  41.006   1.271
 3084W        W67017  15.612   3.322  12.472
 3085W        W67018   4.322  33.592  10.429
 3086W        W67019  40.800  31.044   4.711
 3087W        W67020  14.108  44.954   3.632
 3088W        W67021  28.591  13.262  13.917
 3089W        W67022  40.970  10.799   3.191
 3090W        W67023  26.531  31.071   3.178
 3091W        W67024   8.663  20.755  14.848
 3092W        W67025   0.750  21.648  13.466
 3093W        W67026  43.357  24.029   0.340
 3094W        W67027  21.184  40.504  12.901
 3095W        W67028  31.035  25.537   4.635
 3096W        W67029  41.421  12.767   4.727
 3097W        W67030   1.424  36.550  13.372
 3098W        W67031  23.635  14.708  10.542
 3099W        W67032  11.317  15.250  14.017
 3100W        W67033   5.419  43.363  13.882
 3101W        W67034  39.844  32.427  10.550
 3102W        W67035  41.372  20.028   1.888
 3103W        W67036  27.657   1.975   2.373
 3104W        W67037  41.851  31.008  14.897
 3105W        W67038  34.914  26.510  10.969
 3106W        W67039   0.812  44.897   1.862
 3107W        W67040  12.752  30.456   2.284
 3108W        W67041  30.434  43.932  14.032
 3109W        W67042  23.191   2.964   0.422
 3110W        W67043   1.309  13.818  12.068
 3111W        W67044  17.602   4.707  10.161
 3112W        W67045  11.684  10.683   4.192
 3113W        W67046   8.711  21.088  13.959
 3114W        W67047   2.436  24.973   2.259
 3115W        W67048  17.716   4.712  11.934
 3116W        W67049  21.240  22.037  12.522
 3117W        W67050  22.516  17.603  11.917
 3118W        W67051  44.920  33.080  14.443
 3119W        W67052  37.381  17.174  11.483
 3120W        W67053  20.747  40.878   1.742
 3121W        W67054  11.235   3.259  11.375
 3122W        W67055  42.841  19.730   3.792
 3123W        W67056  35.445  39.396   4.834
 3124W        W67057  37.376   3.886   0.870
 3125W        W67058  31.077  12.248  12.999
 3126W        W67059  11.298  15.142  13.031
 3127W        W67060  17.308  41.909  11.567
 3128W        W67061   2.461   1.759  13.410
 3129W        W67062   2.320  37.947  10.978
 3130W        W67063  44.423  43.845   3.772
 3131W        W67064  23.492  20.114  10.510
 3132W        W67065  26.479  43.962   1.748
 3133W        W67066  12.702  12.176  10.630
 3134W        W67067  14.690  31.537   3.334
 3135W        W67068  37.973  38.330   0.944
 3136W        W67069  34.547  37.500  10.434
 3137W        W67070  11.726   8.812  14.394
 3138W        W67071  30.946  23.157   2.662
 3139W        W67072  20.604  20.134   0.472
 3140W        W67073  23.146  15.162  10.928
 3141W        W67074  38.844  36.918  13.505
 3142W        W67075   4.242  23.652  12.532
 3143W        W67076  12.845  39.962   0.283
 3144W        W67077  19.778   6.836   0.920
 3145W        W67078   6.889  22.123  10.997
 3146W        W67079  34.402   4.417   1.376
 3147W        W67080  26.951   1.855  11.379
 3148W        W67081  37.870  28.962  12.399
 3149W        W67082   7.388   5.221  10.464
 3150W        W67083  35.434  17.069  13.839
 3151W        W67084  13.715  27.087   2.271
 3152W        W67085   9.207  16.297   4.737
 3153W        W67086  10.785  30.065   4.833
 3154W        W67087  20.524  21.643  11.592
 3155W        W67088  16.597  35.436  13.933
 3156W        W67089   7.841  20.187  14.960
 3157W        W67090  44.858  22.083  12.972
 3158W        W67091  22.504  18.152  10.099
 3159W        W67092  23.498  18.606  14.324
 3160W        W67093  25.020  18.228   3.681
 3161W        W67094  38.569  30.000  13.353
 3162W        W67095   8.696  28.147   3.343
 3163W        W67096   2.732  28.454  12.414
 3164W        W67097   3.376  23.676   4.668
 3165W        W67098  44.869  32.006  10.638
 3166W        W67099  26.617  20.242   3.815
 3167W        W67100   2.383  18.720  14.383
 3168W        W67101  33.448  37.867   4.734
 3169W        W67102  32.626  17.127   2.389
 3170W        W67103  11.724   4.862   3.253
 3171W        W67104  42.964  16.752   2.669
 3172W        W67105  32.905   0.987  13.966
 3173W        W67106  34.484  24.531  13.547
 3174W        W67107  17.300  40.403  13.410
 3175W        W67108  16.278  29.948  13.876
 3176W        W67109  11.752  18.110   2.731
 3177W        W67110  29.116  24.538  14.017
 3178W        W67111  18.198   4.370   0.750
 3179W        W67112  23.544  42.909  10.114
 3180W        W67113   9.285  35.547   0.862
 3181W        W67114  42.302   9.730  12.935
 3182W        W67115   6.693   9.211   2.376
 3183W        W67116  13.302  23.989   0.261
 3184W        W67117  26.194  37.028   4.722
 3185W        W67118  25.713  20.248  11.592
 3186W        W67119   7.735   9.754  12.847
 3187W        W67120  19.157  17.112  14.353
 3188W        W67121   2.450  21.089  10.129
 3189W        W67122  34.002  36.918   3.816
 3190W        W67123  25.626  12.141  12.936
 3191W        W67124  33.957  43.435  10.977
 3192W        W67125  21.748  31.486   3.816
 3193W        W67126   7.373  25.967   1.780
 3194W        W67127  39.526  10.653  12.909
 3195W        W67128  17.071  40.980  12.456
 3196W        W67129  31.909  30.517  12.506
 3197W        W67130  12.209  15.697  11.604
 3198W        W67131  21.089  22.079  11.469
 3199W        W67132  22.544  25.181  13.933
 3200W        W67133  40.459  27.032   3.763
 3201W        W67134   1.344  27.507   1.289
 3202W        W67135  25.637  10.251  11.486
 3203W        W67136  25.598  18.238   2.349
 3204W        W67137  31.513  15.688   0.764
 3205W        W67138   5.307  11.173  11.112
 3206W        W67139  27.617   3.234   0.349
 3207W        W67140  10.348  22.220   3.365
 3208W        W67141   6.768   5.834   0.303
 3209W        W67142  42.513  23.084  14.814
 3210W        W67143   9.710  42.781   5.212
 3211W        W67144   4.362  24.130  10.133
 3212W        W67145  27.122   0.975   9.450
 3213W        W67146  16.264  17.713   9.578
 3214W        W67147  44.446  12.688  14.988
 3215W        W67148  12.627  44.331  14.791
 3216W        W67149  29.669   5.786   0.885
 3217W        W67150  23.670  32.899  14.892
 3218W        W67151   4.740  34.889  10.924
 3219W        W67152  19.547  38.441   0.818
 3220W        W67153  23.733  35.037   4.269
 3221W        W67154   6.237  18.147   1.224
 3222W        W67155  26.652  19.055   2.227
 3223W        W67156  21.084   8.892  13.910
 3224W        W67157  15.793   8.862   0.408
 3225W        W67158  22.690  14.694   1.361
 3226W        W67159  38.371   9.301   3.846
 3227W        W67160  33.406  16.737  12.949
 3228W        W67161  12.622  43.372  11.098
 3229W        W67162  39.985  27.511   3.344
 3230W        W67163  16.143  37.381   2.412
 3231W        W67164  12.166  23.671  14.476
 3232W        W67165   5.711  10.175  14.775
 3233W        W67166   8.667   8.784  13.027
 3234W        W67167  24.061   3.229   1.697
 3235W        W67168   5.818   7.244   1.839
 3236W        W67169   2.835  30.429   4.730
 3237W        W67170  16.144  23.014   3.220
 3238W        W67171  17.264  12.801   2.185
 3239W        W67172  38.891  38.357  10.925
 3240W        W67173  25.569  40.870   1.875
 3241W        W67174  40.825  19.066   1.892
 3242W        W67175  39.035   1.433   3.637
 3243W        W67176   9.692   1.341   3.765
 3244W        W67177  44.008  11.627  13.368
 3245W        W67178  23.994   5.210  11.095
 3246W        W67179   8.281  39.843   3.694
 3247W        W67180  31.082  22.115  14.869
 3248W        W67181  33.501  12.240  13.374
 3249W        W67182   4.290  43.980  10.911
 3250W        W67183  25.053   8.684  12.449
 3251W        W67184  17.599   7.678  11.036
 3252W        W67185   8.698  14.753  10.408
 3253W        W67186  29.076   0.809  14.309
 3254W        W67187  35.562  36.881  14.491
 3255W        W67188  24.185   9.297  11.088
 3256W        W67189  39.912  20.046  13.477
 3257W        W67190   0.796   3.791  14.897
 3258W        W67191  43.850   7.305   4.637
 3259W        W67192  11.771  33.096   4.719
 3260W        W67193  19.656  39.326   5.252
 3261W        W67194   6.824  35.853   1.888
 3262W        W67195   6.353   3.879   0.798
 3263W        W67196  41.947  19.638   3.861
 3264W        W67197  26.192   9.350   0.907
 3265W        W67198  28.163  20.244   3.813
 3266W        W67199   3.804  43.348   4.354
 3267W        W67200   1.847  38.362  11.993
 3268W        W67201   3.423  29.022  12.073
 3269W        W67202  23.661   8.830  12.033
 3270W        W67203  39.426  19.187   1.891
 3271W        W67204   7.363  28.187  13.925
 3272W        W67205  39.328   3.343  12.411
 3273W        W67206  30.590  33.582  13.056
 3274W        W67207  26.978  26.600  13.838
 3275W        W67208  25.131  23.112   0.793
 3276W        W67209  28.525  37.851   4.125
 3277W        W67210   7.288  12.733   3.342
 3278W        W67211  10.203  26.621  14.876
 3279W        W67212  27.014  33.938  11.377
 3280W        W67213   0.251  18.168  13.935
 3281W        W67214  41.322  18.273  13.822
 3282W        W67215  15.598  21.180  14.827
 3283W        W67216  37.894  35.093   4.131
 3284W        W67217  26.967  16.628  14.298
 3285W        W67218  16.101   1.908   3.196
 3286W        W67219  30.479  11.140   0.963
 3287W        W67220   9.395  11.264   2.811
 3288W        W67221  31.576  34.041  11.884
 3289W        W67222  15.119   2.756  13.037
 3290W        W67223   7.327  11.695   1.295
 3291W        W67224  36.864  44.287  12.055
 3292W        W67225  23.591  28.486   1.305
 3293W        W67226  23.995   5.321  12.375
 3294W        W67227  30.471   7.909   1.245
 3295W        W67228  36.967  19.668   3.673
 3296W        W67229   8.247  25.655   4.186
 3297W        W67230   3.390   3.315   5.264
 3298W        W67231   5.243  10.251   0.966
 3299W        W67232  20.031  21.076  13.824
 3300W        W67233  18.212  10.734   0.935
 3301W        W67234   9.172  24.642   1.735
 3302W        W67235  22.654   5.770   4.212
 3303W        W67236  34.084  44.328  11.862
 3304W        W67237   7.309  29.086   3.632
 3305W        W67238  16.242  24.551   1.734
 3306W        W67239  22.620  29.044   1.252
 3307W        W67240  29.464  35.925   1.862
 3308W        W67241   7.380  12.125   1.709
 3309W        W67242   9.842  25.526  13.438
 3310W        W67243  11.840  30.564  13.816
 3311W        W67244  24.068  13.298  12.556
 3312W        W67245  12.837  33.565  14.942
 3313W        W67246  32.954  21.253   2.839
 3314W        W67247  20.087  42.481   2.215
 3315W        W67248  33.916  26.693  10.963
 3316W        W67249   5.807  35.519  12.056
 3317W        W67250  18.202  30.942   2.827
 3318W        W67251  29.578  13.277  12.381
 3319W        W67252  23.211  20.144  13.902
 3320W        W67253   6.756  40.005  11.985
 3321W        W67254  19.612  43.375  14.378
 3322W        W67255   5.762  20.156   4.315
 3323W        W67256   4.865  18.781   4.115
 3324W        W67257  33.935  18.210  10.925
 3325W        W67258   3.827  35.527   3.197
 3326W        W67259   9.276  27.133   1.423
 3327W        W67260  31.932  41.949  10.965
 3328W        W67261   2.460  18.697  13.369
 3329W        W67262  22.193  23.017   2.351
 3330W        W67263  41.824   0.890  13.922
 3331W        W67264  27.525  18.546   0.365
 3332W        W67265  24.066  44.961  13.413
 3333W        W67266  37.946  15.799  10.453
 3334W        W67267   8.202  26.128  11.097
 3335W        W67268  39.001   9.161   3.358
 3336W        W67269   9.760  28.635   3.776
 3337W        W67270  26.051  32.134   0.954
 3338W        W67271  30.646   9.294  11.908
 3339W        W67272  20.668   9.844   4.838
 3340W        W67273   4.424  18.689   2.291
 3341W        W67274  12.633  20.058  11.503
 3342W        W67275  31.510  15.775   4.293
 3343W        W67276  14.747  27.052   4.785
 3344W        W67277  29.155  26.136   3.730
 3345W        W67278  26.180  10.790   1.379
 3346W        W67279  13.735  37.531   1.849
 3347W        W67280  32.013  17.721   1.291
 3348W        W67281  40.366   7.781   4.801
 3349W        W67282  17.168   1.913   1.934
 3350W        W67283   5.835  11.828   4.760
 3351W        W67284  10.292   7.281   3.374
 3352W        W67285  27.103  39.827   4.210
 3353W        W67286  39.360  39.467  14.843
 3354W        W67287  21.705  19.619  10.499
 3355W        W67288  13.634  13.606  12.090
 3356W        W67289  24.647  27.118   2.275
 3357W        W67290   5.304  22.113   1.790
 3358W        W67291   0.898  25.694  11.969
 3359W        W67292  42.512  10.382   3.357
 3360W        W67293   8.207  35.482  11.610
 3361W        W67294  29.058   5.236   4.148
 3362W        W67295  11.319  24.523  11.935
 3363W        W67296  29.001  11.359   1.830
 3364W        W67297  24.128  40.874   3.175
 3365W        W67298  17.765  26.180  13.925
 3366W        W67299  21.136  37.998  10.535
 3367W        W67300  31.977   1.775   0.392
 3368W        W67301  10.232  25.042   0.885
 3369W        W67302  32.088  10.269  10.518
 3370W        W67303  21.206  32.914  10.557
 3371W        W67304  22.141  14.713   0.294
 3372W        W67305   6.407  39.462   2.871
 3373W        W67306  42.517  39.453   5.091
 3374W        W67307  23.580  25.219  12.088
 3375W        W67308   6.724   1.928   4.742
 3376W        W67309  15.163   7.244  11.102
 3377W        W67310  34.109  43.321   0.959
 3378W        W67311  30.081  20.199  13.479
 3379W        W67312  18.239   7.405  11.462
 3380W        W67313  43.298  27.593  14.353
 3381W        W67314  12.125  36.530  10.428
 3382W        W67315  16.633  13.212   0.344
 3383W        W67316   5.898   5.816  13.435
 3384W        W67317  23.695  28.161  11.863
 3385W        W67318  16.798  27.654  12.372
 3386W        W67319   8.314  39.057  14.796
 3387W        W67320  11.830  36.083  14.303
 3388W        W67321  11.736   8.792  13.939
 3389W        W67322  31.015  17.733  13.798
 3390W        W67323   2.303  16.208  13.869
 3391W        W67324   1.916   3.323   0.393
 3392W        W67325  34.082   0.770  13.389
 3393W        W67326   0.970   5.404  11.610
 3394W        W67327  30.526  26.657  14.492
 3395W        W67328  20.083  36.867   9.977
 3396W        W67329   5.388  33.922   2.354
 3397W        W67330  44.947  43.371  13.883
 3398W        W67331   0.411  31.590  14.935
 3399W        W67332   6.834  23.558   5.155
 3400W        W67333  24.495  25.028   0.795
 3401W        W67334   7.382  12.315   2.190
 3402W        W67335  10.800   0.271  12.072
 3403W        W67336  22.592  34.548  10.451
 3404W        W67337  20.600  38.874   2.364
 3405W        W67338   7.372  18.161  10.520
 3406W        W67339  22.121  40.835   0.422
 3407W        W67340  13.161  38.554  11.974
 3408W        W67341  14.770   2.297  12.870
 3409W        W67342   7.191  36.361   2.730
 3410W        W67343  44.458  18.106   1.268
 3411W        W67344  18.094   6.764   1.825
 3412W        W67345  14.633   8.832   0.349
 3413W        W67346  11.754   4.244  12.055
 3414W        W67347  24.973  21.623  13.395
 3415W        W67348   7.407  28.566  14.371
 3416W        W67349   7.814  43.812  13.830
 3417W        W67350  31.085  23.066  13.984
 3418W        W67351  31.638   9.746  13.492
 3419W        W67352  11.186  31.577  11.400
 3420W        W67353  40.513  24.663   3.220
 3421W        W67354  14.789   9.696  14.784
 3422W        W67355   9.287  26.102   1.450
 3423W        W67356  23.079  44.353   2.705
 3424W        W67357   7.413  41.830  12.905
 3425W        W67358  36.929   2.774  14.411
 3426W        W67359  12.722  28.442   3.789
 3427W        W67360  41.795   8.829  11.516
 3428W        W67361  32.486   3.945   4.146
 3429W        W67362  22.063  28.108   0.419
 3430W        W67363  11.165  41.450  12.339
 3431W        W67364   1.790  38.923   0.279
 3432W        W67365  44.318  39.406  13.408
 3433W        W67366  10.687  16.811   3.633
 3434W        W67367  18.588  21.088  13.807
 3435W        W67368  33.493  27.013   4.220
 3436W        W67369   3.324  23.723  13.814
 3437W        W67370  33.921  17.289   3.824
 3438W        W67371  21.624  35.100   0.819
 3439W        W67372  20.562  15.217  14.393
 3440W        W67373   6.189  37.416   3.647
 3441W        W67374  35.928   1.945   1.779
 3442W        W67375  22.729  17.692  14.434
 3443W        W67376  24.132  27.575  14.864
 3444W        W67377  21.115   1.443  14.513
 3445W        W67378  31.621  39.830   3.772
 3446W        W67379  26.191  13.158  10.499
 3447W        W67380   3.719  17.189   2.797
 3448W        W67381  13.253   5.350  14.784
 3449W        W67382  27.675  41.837   3.157
 3450W        W67383   6.257  20.068  11.900
 3451W        W67384   5.428  31.477  12.349
 3452W        W67385  20.254  26.955  13.958
 3453W        W67386  31.909  24.014   0.476
 3454W        W67387  16.232  34.398  11.923
 3455W        W67388  24.135  12.351  14.427
 3456W        W67389  22.621  21.525  13.384
 3457W        W67390  38.928   0.825  14.967
 3458W        W67391  38.927  37.373   1.361
 3459W        W67392   8.250  10.841   3.722
 3460W        W67393  37.993  32.965   1.753
 3461W        W67394   8.364  44.991   2.889
 3462W        W67395  33.096  19.228  14.306
 3463W        W67396   2.371  41.406  10.150
 3464W        W67397  31.042  39.879   2.804
 3465W        W67398  44.489  14.115  10.534
 3466W        W67399  18.117  15.092   1.727
 3467W        W67400  32.945  32.537  13.471
 3468W        W67401   9.158  17.602   2.761
 3469W        W67402  11.746  18.754   0.423
 3470W        W67403   4.807  20.622   0.744
 3471W        W67404  21.145  10.851  12.867
 3472W        W67405  36.065  33.406  10.534
 3473W        W67406   4.747  16.254  13.869
 3474W        W67407  29.067  15.097  10.553
 3475W        W67408  43.479   4.706  10.472
 3476W        W67409  29.630   6.407   5.109
 3477W        W67410   6.349   8.790  13.980
 3478W        W67411  35.892  25.509  12.910
 3479W        W67412   5.709   8.283  13.420
 3480W        W67413  31.994  27.560  11.522
 3481W        W67414  15.245  19.279   9.442
 3482W        W67415  41.472   1.951   3.706
 3483W        W67416  16.260   3.900   4.129
 3484W        W67417   7.294   6.732   9.541
 3485W        W67418  20.155  24.174   4.835
 3486W        W67419  11.747   9.268   3.855
 3487W        W67420  14.690  21.132   4.692
 3488W        W67421   4.728  14.202   2.846
 3489W        W67422   7.311  26.666  10.504
 3490W        W67423  21.531  26.504  14.376
 3491W        W67424  22.719  26.988   1.280
 3492W        W67425  30.105  13.247   4.778
 3493W        W67426   7.831  43.323  14.030
 3494W        W67427   1.302  29.503   1.854
 3495W        W67428  34.071  20.762  13.834
 3496W        W67429   9.759   5.866  14.404
 3497W        W67430  34.075   2.815   0.314
 3498W        W67431  22.120   2.369  14.316
 3499W        W67432  39.395  17.602  11.497
 3500W        W67433  10.781   1.805   3.214
 3501W        W67434  42.426   7.909   1.719
 3502W        W67435  22.129  31.584  12.448
 3503W        W67436   3.709  31.949   4.304
 3504W        W67437  17.789  14.674   3.365
 3505W        W67438  27.455   5.709   1.278
 3506W        W67439  19.223  15.269  11.535
 3507W        W67440  34.477  38.852   0.891
 3508W        W67441  36.893  32.579   3.702
 3509W        W67442  18.053  22.722  13.050
 3510W        W67443  25.178   7.733   2.677
 3511W        W67444   1.903  15.327   3.244
 3512W        W67445  28.551  40.460  13.506
 3513W        W67446  21.691   0.812  13.541
 3514W        W67447  19.175  12.620   3.221
 3515W        W67448  25.506  11.644  10.954
 3516W        W67449  26.621  44.292   2.720
 3517W        W67450  38.355  25.617  12.407
 3518W        W67451   7.296  23.509   1.845
 3519W        W67452  13.832  32.912   0.373
 3520W        W67453  31.412  16.635   3.204
 3521W        W67454  14.243  37.345   3.357
 3522W        W67455  26.486  13.291   1.298
 3523W        W67456  40.418  17.678  10.954
 3524W        W67457   8.170  11.658   1.213
 3525W        W67458  34.918   5.257   1.872
 3526W        W67459   8.207  38.869   0.784
 3527W        W67460   2.317  13.267  14.311
 3528W        W67461  13.267  27.662   3.305
 3529W        W67462   0.424  32.899  13.794
 3530W        W67463  23.204  30.582  12.442
 3531W        W67464  12.303  22.158   0.741
 3532W        W67465  42.016  19.674  11.573
 3533W        W67466  21.249  27.989  10.132
 3534W        W67467  16.751  15.690  12.859
 3535W        W67468  40.960   1.449  10.406
 3536W        W67469  27.013  21.742  13.992
 3537W        W67470  34.887  38.369   1.388
 3538W        W67471  41.349  29.956  14.012
 3539W        W67472  23.174  30.414   4.759
 3540W        W67473   9.172  25.477  11.105
 3541W        W67474  37.052  27.446  11.009
 3542W        W67475  30.533   6.750  13.822
 3543W        W67476   2.880  18.745   1.258
 3544W        W67477  10.760  19.563   4.634
 3545W        W67478   3.891  37.498   4.230
 3546W        W67479  14.302  16.756   2.720
 3547W        W67480  13.682  27.493   0.384
 3548W        W67481  19.276  39.009   3.697
 3549W        W67482   5.857  30.426  13.018
 3550W        W67483  33.126   1.387   1.849
 3551W        W67484  10.700  29.163   1.224
 3552W        W67485  42.464  15.637  11.990
 3553W        W67486  34.451  42.794   1.347
 3554W        W67487  21.214  34.956  13.343
 3555W        W67488  21.070  30.623  14.345
 3556W        W67489  26.486  35.433  13.323
 3557W        W67490  20.067  15.723   5.595
 3558W        W67491  31.554  23.984   1.925
 3559W        W67492  36.927   7.909   0.439
 3560W        W67493  42.445  25.681   3.761
 3561W        W67494  34.029   4.810  12.523
 3562W        W67495   4.284   4.883  14.369
 3563W        W67496  38.004   4.728  13.809
 3564W        W67497  23.201  21.194   4.267
 3565W        W67498  20.245  19.078   0.421
 3566W        W67499  24.042  37.522  13.478
 3567W        W67500  10.862  33.876   1.401
 3568W        W67501  10.213  26.537   5.223
 3569W        W67502  29.001  15.248  13.908
 3570W        W67503  29.002  26.604  12.559
 3571W        W67504   7.889   8.305   1.235
 3572W        W67505  31.959   7.747   5.229
 3573W        W67506  41.292  24.980  14.860
 3574W        W67507  35.365  37.080   0.844
 3575W        W67508  30.022  22.040  14.865
 3576W        W67509  12.158   4.435   2.875
 3577W        W67510  34.963   2.378   1.892
 3578W        W67511  31.468  21.154  13.867
 3579W        W67512   8.681  21.163  14.948
 3580W        W67513  27.019   8.282   4.261
 3581W        W67514   2.372  44.346  10.411
 3582W        W67515  34.418  23.079  13.345
 3583W        W67516  28.512  11.784   4.718
 3584W        W67517  22.244   9.311   1.868
 3585W        W67518  36.086   4.281  13.360
 3586W        W67519  20.742  18.567   2.726
 3587W        W67520  13.617  29.152   2.717
 3588W        W67521  39.536  30.528   2.402
 3589W        W67522   4.412  33.102  14.996
 3590W        W67523  23.629  14.133  13.449
 3591W        W67524  40.427  20.714  13.483
 3592W        W67525  39.828  27.673   4.331
 3593W        W67526   4.731  18.758  14.469
 3594W        W67527  29.057  38.024  12.482
 3595W        W67528  26.082  38.904  12.415
 3596W        W67529  15.294  35.032   0.401
 3597W        W67530  32.458  39.954  13.343
 3598W        W67531  33.567  32.106  11.555
 3599W        W67532  38.485   5.870   2.386
 3600W        W67533  26.496  44.005   4.114
 3601W        W67534   7.714  19.552   4.216
 3602W        W67535  22.211  14.124   0.323
 3603W        W67536  26.534  24.694   2.411
 3604W        W67537   2.400  22.679  10.887
 3605W        W67538  35.997  36.915  13.944
 3606W        W67539  24.580  30.955   1.897
 3607W        W67540  40.422  34.884   2.868
 3608W        W67541  14.262   8.201  12.898
 3609W        W67542  37.448  15.692   0.260
 3610W        W67543  44.759   4.238   4.641
 3611W        W67544  41.038  30.425  12.877
 3612W        W67545  12.252  29.549  11.072
 3613W        W67546  12.339   0.425  14.394
 3614W        W67547  22.039  28.614  13.488
 3615W        W67548  33.975  26.650   4.316
 3616W        W67549  24.152   4.833   3.358
 3617W        W67550  30.643  29.131  13.314
 3618W        W67551  16.125  35.970  11.576
 3619W        W67552  11.738   5.319   0.333
 3620W        W67553  22.693  42.375  10.935
 3621W        W67554  28.141  39.854   1.720
 3622W        W67555  34.059  18.094   2.340
 3623W        W67556   0.488  44.854  11.951
 3624W        W67557   1.786  44.781   0.781
 3625W        W67558   8.869  32.520  11.426
 3626W        W67559   8.883   7.776  12.522
 3627W        W67560  41.875  23.596   2.418
 3628W        W67561  16.689  19.146   4.784
 3629W        W67562  22.091   6.423  13.324
 3630W        W67563   0.873  16.206   3.730
 3631W        W67564  19.140   1.906  13.924
 3632W        W67565  34.586  24.566  14.003
 3633W        W67566  36.902   5.385   2.810
 3634W        W67567  15.760  13.628   1.314
 3635W        W67568  13.301   4.785   4.298
 3636W        W67569   0.398   2.244   3.331
 3637W        W67570  18.644  44.440   1.375
 3638W        W67571  44.773  27.143   3.222
 3639W        W67572  43.415   8.287   4.826
 3640W        W67573  34.069   3.388   0.763
 3641W        W67574  32.476  23.131   2.336
 3642W        W67575  25.219  32.620  14.831
 3643W        W67576  18.695  13.337  10.444
 3644W        W67577  29.641  36.560  14.981
 3645W        W67578  32.005  17.187   3.757
 3646W        W67579  43.811  40.439   3.823
 3647W        W67580  15.287  39.406  12.524
 3648W        W67581  29.428  17.702   0.963
 3649W        W67582  24.713  27.163  13.911
 3650W        W67583  43.941   9.192   4.804
 3651W        W67584  32.539  30.116  13.418
 3652W        W67585  19.664   9.716   0.246
 3653W        W67586   9.220  29.494  14.805
 3654W        W67587  43.943  41.330   1.898
 3655W        W67588  10.768  36.542  10.580
 3656W        W67589   5.921  20.649  14.301
 3657W        W67590  11.197  14.636   1.785
 3658W        W67591  27.021  30.461   4.714
 3659W        W67592  42.970  16.774   4.836
 3660W        W67593  19.765  33.484  11.433
 3661W        W67594  36.018  25.074   2.260
 3662W        W67595  18.611   9.842   3.870
 3663W        W67596   4.383  37.881  13.832
 3664W        W67597  27.064  22.236   3.747
 3665W        W67598  26.538   4.415   1.448
 3666W        W67599  27.187  21.038  13.378
 3667W        W67600  10.147  17.254  12.370
 3668W        W67601  29.920  28.498  10.525
 3669W        W67602  15.745  33.568   1.292
 3670W        W67603  20.612  26.584  10.090
 3671W        W67604  33.573  17.624  10.464
 3672W        W67605  36.994  27.629   3.207
 3673W        W67606  17.783  10.765  11.080
 3674W        W67607   5.844  29.943   1.450
 3675W        W67608  27.002  43.358  14.930
 3676W        W67609  40.361   4.428   4.207
 3677W        W67610   5.696  25.555   4.134
 3678W        W67611  30.548  43.770   0.752
 3679W        W67612   8.252   1.258  13.459
 3680W        W67613   5.308  40.835   0.450
 3681W        W67614  24.581   5.275   1.252
 3682W        W67615   1.398   2.903  14.817
 3683W        W67616  14.726  43.865   1.724
 3684W        W67617  24.586  14.339   4.231
 3685W        W67618  22.090   0.274  14.316
 3686W        W67619  33.608  29.945  11.865
 3687W        W67620  32.473  25.485  12.906
 3688W        W67621   1.761  37.984   2.222
 3689W        W67622  14.686  22.201   1.330
 3690W        W67623   4.758  15.587  12.929
 3691W        W67624  38.395  15.714   4.813
 3692W        W67625  35.077  41.311  13.385
 3693W        W67626  20.056  15.159  14.800
 3694W        W67627  12.131   6.890   4.769
 3695W        W67628  11.343  39.537   0.756
 3696W        W67629  17.177  17.158   3.711
 3697W        W67630  31.909  18.583   5.115
 3698W        W67631  17.244   2.958  12.058
 3699W        W67632  37.364  20.619  12.452
 3700W        W67633  32.978  30.080  12.833
 3701W        W67634  25.688  26.117  12.934
 3702W        W67635  16.714   0.389   4.725
 3703W        W67636  12.681   9.286   3.256
 3704W        W67637   7.844  41.982  14.793
 3705W        W67638  12.178  17.777   2.386
 3706W        W67639  21.219  13.655  11.124
 3707W        W67640  35.110   4.272   2.763
 3708W        W67641   7.700  44.813   1.733
 3709W        W67642  19.059  20.684   1.798
 3710W        W67643   8.312  37.375  11.856
 3711W        W67644   8.743   2.929   3.739
 3712W        W67645  16.225  21.190  14.278
 3713W        W67646  18.101   6.875   4.194
 3714W        W67647  22.519  36.924  10.618
 3715W        W67648   4.309  24.605   3.148
 3716W        W67649  27.041   4.865  10.895
 3717W        W67650  43.797  35.384   1.211
 3718W        W67651  36.428  24.159   3.789
 3719W        W67652   7.278  11.804  11.559
 3720W        W67653  44.009  18.100  14.903
 3721W        W67654  35.425   0.971  13.328
 3722W        W67655  25.687   7.814  13.902
 3723W        W67656  21.207  26.584   9.931
 3724W        W67657  35.399  28.030   3.285
 3725W        W67658  41.385  28.103  10.902
 3726W        W67659  42.000  24.177  11.415
 3727W        W67660  42.415  27.499  12.001
 3728W        W67661  14.123  16.713   1.815
 3729W        W67662  14.266  25.187  12.535
 3730W        W67663  37.903   8.872  10.604
 3731W        W67664  17.211   8.162  10.450
 3732W        W67665  21.653   1.354   0.966
 3733W        W67666  19.155  21.544   0.249
 3734W        W67667  21.152  13.134  12.355
 3735W        W67668  11.185  29.510  13.323
 3736W        W67669  18.275  23.654   1.854
 3737W        W67670   2.467  19.178   2.767
 3738W        W67671  35.033   0.469   3.297
 3739W        W67672  22.113  42.892   1.307
 3740W        W67673  22.211  37.988  13.534
 3741W        W67674  23.061   6.877   0.798
 3742W        W67675   9.880  29.011   1.717
 3743W        W67676  23.680  22.181   0.956
 3744W        W67677  20.069  11.738  12.380
 3745W        W67678  39.838  14.194  12.357
 3746W        W67679  34.120  14.636  11.998
 3747W        W67680   1.442   2.849  12.923
 3748W        W67681  42.460  35.407  13.492
 3749W        W67682   5.414  13.715  13.050
 3750W        W67683  22.117  13.325   5.309
 3751W        W67684   4.348  19.712  12.080
 3752W        W67685  16.728   0.910   4.349
 3753W        W67686  35.393  21.640  13.374
 3754W        W67687   4.754  43.889  13.362
 3755W        W67688  28.617  29.569  11.962
 3756W        W67689  31.463  16.639  14.986
 3757W        W67690  30.064  12.638  12.942
 3758W        W67691  20.052  20.075   4.166
 3759W        W67692   8.770  40.929  14.997
 3760W        W67693  22.202  22.614  11.060
 3761W        W67694  26.674  42.340  10.572
 3762W        W67695  26.692  34.464  11.397
 3763W        W67696  41.360  24.633  14.350
 3764W        W67697  32.004  20.259  11.374
 3765W        W67698  33.436  17.704   0.436
 3766W        W67699   0.282  20.651   2.810
 3767W        W67700   9.333  20.575   3.378
 3768W        W67701  39.336   3.742  12.483
 3769W        W67702  34.003  31.422  14.779
 3770W        W67703  22.731   1.329   0.932
 3771W        W67704  24.007  29.923   3.283
 3772W        W67705  11.848  13.138  11.480
 3773W        W67706  31.480   1.750   4.129
 3774W        W67707  15.303   2.956  11.576
 3775W        W67708  40.388  30.129  11.440
 3776W        W67709  37.898  28.650   3.684
 3777W        W67710  32.461  10.279  14.890
 3778W        W67711   0.745  31.090  12.484
 3779W        W67712  19.645   1.874  14.446
 3780W        W67713  12.162  35.958  12.979
 3781W        W67714  44.861  30.502   3.349
 3782W        W67715  18.715  13.784  12.382
 3783W        W67716  23.192   9.197  10.508
 3784W        W67717   2.320  22.619   2.255
 3785W        W67718  37.916  16.801   2.665
 3786W        W67719  32.548  39.318  12.917
 3787W        W67720  10.642  15.161   4.248
 3788W        W67721  16.578  16.245  12.964
 3789W        W67722  18.177  35.060   2.760
 3790W        W67723   3.824  23.155   3.290
 3791W        W67724  42.335  11.824  13.042
 3792W        W67725  15.803  10.834   3.275
 3793W        W67726   6.342   9.192   0.465
 3794W        W67727  12.174  44.448  12.987
 3795W        W67728  21.069   0.431  13.312
 3796W        W67729  34.034  41.920   2.891
 3797W        W67730  21.078   5.309   0.350
 3798W        W67731  23.025  11.269  12.976
 3799W        W67732  14.688   6.711  14.336
 3800W        W67733  44.501  36.998  14.786
 3801W        W67734  25.073  17.285   5.291
 3802W        W67735   7.354  29.448  13.935
 3803W        W67736  30.454  41.320  11.555
 3804W        W67737  41.393  26.091  14.877
 3805W        W67738  27.600  16.724  13.831
 3806W        W67739  38.474  23.560   1.354
 3807W        W67740   8.843  37.435   4.629
 3808W        W67741  20.126   5.762  13.911
 3809W        W67742  30.649  23.564  12.874
 3810W        W67743  41.023  34.548  14.910
 3811W        W67744  44.442  43.981  11.440
 3812W        W67745  43.932  31.597  11.083
 3813W        W67746  28.542  16.242   0.775
 3814W        W67747   7.707   0.451   1.303
 3815W        W67748  29.537  27.967   4.269
 3816W        W67749   2.253  17.191   1.787
 3817W        W67750   1.867  40.925   2.373
 3818W        W67751  26.580  15.807   3.694
 3819W        W67752  35.032  23.198   4.329
 3820W        W67753   1.356  42.411   2.786
 3821W        W67754   2.244  30.564  14.319
 3822W        W67755   2.389  22.682   3.154
 3823W        W67756  35.908  37.849   2.178
 3824W        W67757  18.142  21.736   2.778
 3825W        W67758   4.232   3.767   4.834
 3826W        W67759   8.899   3.760  13.797
 3827W        W67760  35.400  37.547   0.360
 3828W        W67761   9.312  15.618   0.329
 3829W        W67762   3.882  20.243  11.925
 3830W        W67763  29.430   7.289   1.315
 3831W        W67764  34.479  19.708  13.441
 3832W        W67765  41.824  12.265  14.297
 3833W        W67766  42.425  40.953  12.919
 3834W        W67767  29.585  24.992   4.833
 3835W        W67768  28.594  13.284   1.849
 3836W        W67769  31.037  12.679  12.041
 3837W        W67770  43.348  31.614  10.425
 3838W        W67771  23.492  39.053   1.276
 3839W        W67772   3.369  26.660   3.812
 3840W        W67773   9.155  18.054   2.415
 3841W        W67774  11.653  42.966   1.274
 3842W        W67775  39.854  18.752   2.318
 3843W        W67776  15.653  23.167   3.678
 3844W        W67777   2.778  26.461  10.950
 3845W        W67778  31.995  28.670  14.932
 3846W        W67779  29.521  39.519  11.985
 3847W        W67780  25.175  28.650  12.877
 3848W        W67781  42.369   9.711  11.428
 3849W        W67782   0.265  24.716   1.863
 3850W        W67783   7.374   1.864  10.161
 3851W        W67784   7.812  10.212   3.814
 3852W        W67785  16.707  18.659   4.160
 3853W        W67786   9.186  14.130  13.052
 3854W        W67787   9.173  28.143  12.898
 3855W        W67788  33.958  26.989  12.046
 3856W        W67789   4.304  44.321   4.165
 3857W        W67790   0.375  16.624   2.881
 3858W        W67791  16.236  26.647  12.936
 3859W        W67792  26.562  39.490   4.178
 3860W        W67793  38.368   3.319  12.500
 3861W        W67794   9.746  19.192   1.418
 3862W        W67795  36.899   7.820   2.380
 3863W        W67796  17.294   3.758   2.871
 3864W        W67797  28.123  27.617   4.233
 3865W        W67798  15.788   1.852   4.277
 3866W        W67799  18.107  31.471   4.784
 3867W        W67800  23.572  13.215  12.575
 3868W        W67801   4.219  33.994   3.356
 3869W        W67802  30.979  11.743   2.823
 3870W        W67803   4.838  36.948   1.402
 3871W        W67804  15.268   1.962   1.445
 3872W        W67805  29.487  39.872   4.598
 3873W        W67806   7.384   6.306   0.251
 3874W        W67807  37.426  43.832  14.844
 3875W        W67808  17.180   2.426  12.386
 3876W        W67809  22.510  11.155  11.394
 3877W        W67810  21.679   5.201   3.720
 3878W        W67811  44.852  38.891   1.441
 3879W        W67812  18.129  28.175  10.916
 3880W        W67813  39.488  11.812  10.602
 3881W        W67814   2.781  15.717   1.243
 3882W        W67815   5.840  41.842  13.465
 3883W        W67816  15.290  27.474  12.004
 3884W        W67817  39.948  40.823   4.309
 3885W        W67818  39.038  36.950  11.979
 3886W        W67819   6.906  14.304   3.243
 3887W        W67820  18.788   3.363  11.550
 3888W        W67821  42.909  16.582  12.021
 3889W        W67822  29.660  22.100  11.975
 3890W        W67823  41.519  23.599   0.258
 3891W        W67824  22.134  33.407   1.812
 3892W        W67825  14.628  38.489  13.826
 3893W        W67826  15.262  18.690   2.335
 3894W        W67827  12.706  16.154  12.401
 3895W        W67828  19.164   4.781   3.190
 3896W        W67829  13.128  19.226   0.380
 3897W        W67830  10.813  37.901   1.372
 3898W        W67831  23.119  12.272   4.322
 3899W        W67832  11.825  35.473  11.123
 3900W        W67833  42.415  23.489  14.867
 3901W        W67834  33.017   5.303   4.309
 3902W        W67835  28.044  23.537   3.720
 3903W        W67836  35.474   4.888   4.786
 3904W        W67837   7.249  18.132   2.260
 3905W        W67838  44.408   9.830   2.221
 3906W        W67839   7.684   6.254  14.977
 3907W        W67840  11.163  22.076   4.811
 3908W        W67841  25.569  22.545   4.266
 3909W        W67842   1.769  43.277  11.558
 3910W        W67843  10.291  35.957  14.425
 3911W        W67844  20.746  36.032   0.835
 3912W        W67845  33.969  18.604   1.889
 3913W        W67846  44.447  11.337   4.231
 3914W        W67847  33.416  40.410   4.222
 3915W        W67848  17.290  33.876   4.659
 3916W        W67849  16.785  15.139   3.251
 3917W        W67850  20.206   1.353  12.414
 3918W        W67851   0.438  27.064  12.981
 3919W        W67852  25.612  36.504   3.861
 3920W        W67853  44.259  44.937   3.245
 3921W        W67854  31.621   8.394   0.870
 3922W        W67855  36.496  17.677   4.738
 3923W        W67856  34.864  22.218   4.614
 3924W        W67857   4.236   4.792  12.939
 3925W        W67858  37.460  32.058  12.541
 3926W        W67859   5.215   2.439  14.801
 3927W        W67860  40.323  40.401   3.717
 3928W        W67861  22.658  31.899   3.722
 3929W        W67862   7.818  31.480   0.335
 3930W        W67863  20.685   6.808   1.700
 3931W        W67864  18.086  44.939  11.520
 3932W        W67865  23.213  30.423  10.633
 3933W        W67866  14.736  13.165   2.412
 3934W        W67867   9.371  29.120  11.533
 3935W        W67868  27.980  17.603   2.285
 3936W        W67869  10.188  22.252   4.310
 3937W        W67870  17.142  15.326   2.366
 3938W        W67871  19.078   8.719  11.937
 3939W        W67872  21.192  26.575  12.533
 3940W        W67873  38.364  23.094  14.936
 3941W        W67874  17.203  17.727  11.526
 3942W        W67875  19.102  43.944   2.199
 3943W        W67876   6.355  19.596   2.772
 3944W        W67877  21.078  41.348   4.632
 3945W        W67878   4.914  16.245   3.297
 3946W        W67879  15.732  11.170   4.262
 3947W        W67880  33.493  30.578   3.705
 3948W        W67881  28.971  36.560  10.970
 3949W        W67882  27.069   8.251  14.348
 3950W        W67883  37.544  43.966   3.328
 3951W        W67884  17.246  28.584  11.107
 3952W        W67885   9.709  35.430  13.472
 3953W        W67886  39.954  39.474  10.080
 3954W        W67887  44.335  42.332   0.897
 3955W        W67888   0.751  35.868   2.770
 3956W        W67889  23.577   6.395   1.245
 3957W        W67890  32.966   5.338   1.737
 3958W        W67891   3.793  12.635  11.553
 3959W        W67892  19.609   1.938   2.859
 3960W        W67893  29.509   6.334   3.812
 3961W        W67894  18.218   7.378  14.340
 3962W        W67895  26.085  40.887   2.211
 3963W        W67896   3.367  14.331   4.209
 3964W        W67897  39.329  22.654  11.418
 3965W        W67898   6.919  14.305  12.397
 3966W        W67899  13.654  37.542   4.155
 3967W        W67900  32.044  13.173   3.728
 3968W        W67901  23.583   3.442   3.276
 3969W        W67902  30.104   9.217   4.613
 3970W        W67903  17.230  38.963   0.349
 3971W        W67904  35.926  21.256  14.478
 3972W        W67905  15.741  19.267  12.943
 3973W        W67906  43.934   8.194   3.755
 3974W        W67907   3.758   4.792  11.008
 3975W        W67908  33.978  25.685  14.418
 3976W        W67909  39.404  29.493   0.408
 3977W        W67910  30.062   3.283   4.751
 3978W        W67911  25.645  32.485   1.421
 3979W        W67912  39.966  36.933  12.380
 3980W        W67913   6.893  44.311  12.929
 3981W        W67914  37.501  26.569   1.350
 3982W        W67915  11.647  34.476  12.899
 3983W        W67916   1.798   7.413  10.537
 3984W        W67917  12.151  25.056   0.953
 3985W        W67918  28.609   1.436  12.475
 3986W        W67919  16.105  33.974  13.019
 3987W        W67920  25.530   3.815  10.890
 3988W        W67921  13.691   5.898  13.431
 3989W        W67922   3.271  40.341   0.733
 3990W        W67923  39.320  11.167   0.312
 3991W        W67924   2.334  21.686   4.158
 3992W        W67925   3.410   1.948   1.927
 3993W        W67926   8.760  14.200   4.644
 3994W        W67927  37.883  25.002   0.906
 3995W        W67928   4.723  13.185   3.677
 3996W        W67929   2.777  17.619   3.635
 3997W        W67930  31.955  13.715   0.326
 3998W        W67931  30.090   3.777   3.166
 3999W        W67932   8.701  20.607   2.796
 4000W        W67933  26.643  41.336   3.814
 4001W        W67934  35.401  28.660   0.383
 4002W        W67935   5.268  13.310   1.318
 4003W        W67936  40.831  11.851   0.401
 4004W        W67937   7.734  29.096  12.372
 4005W        W67938  42.825   2.354   1.807
 4006W        W67939  40.929   9.702  13.897
 4007W        W67940  24.661  14.175  13.799
 4008W        W67941  34.426  13.183   0.885
 4009W        W67942  19.764  42.428  11.868
 4010W        W67943  29.133   0.806  10.431
 4011W        W67944  44.443  29.096   2.721
 4012W        W67945   5.751  11.796   3.731
 4013W        W67946   1.324  14.243  10.495
 4014W        W67947  40.480  27.475   3.633
 4015W        W67948  15.745  22.017  10.961
 4016W        W67949  19.596  25.616   0.769
 4017W        W67950  13.635  34.079   1.755
 4018W        W67951  37.378  29.164  10.138
 4019W        W67952  42.338   2.945   1.330
 4020W        W67953   4.753  20.594  10.160
 4021W        W67954  43.485  22.627   4.222
 4022W        W67955  16.215  35.892   3.852
 4023W        W67956  24.479  39.384  11.998
 4024W        W67957  28.076  22.241   0.751
 4025W        W67958  28.149  15.674   0.825
 4026W        W67959   8.871  29.599  12.485
 4027W        W67960  12.659  14.745   3.323
 4028W        W67961  28.051  40.874  13.038
 4029W        W67962   6.784  20.586  13.004
 4030W        W67963  31.920  36.069   1.802
 4031W        W67964  28.606  18.553  13.462
 4032W        W67965  25.174   8.879   1.301
 4033W        W67966   7.687  35.982  11.476
 4034W        W67967  17.774  34.531  10.616
 4035W        W67968  19.603   9.267  12.453
 4036W        W67969  27.966  12.767   5.231
 4037W        W67970  35.935  32.981   3.257
 4038W        W67971  23.079  41.956   2.903
 4039W        W67972  11.739  30.433  10.983
 4040W        W67973  11.300  41.967  14.434
 4041W        W67974  22.528  10.847  14.830
 4042W        W67975  32.040  40.930   2.771
 4043W        W67976  40.029  17.641  14.511
 4044W        W67977  44.869   7.175  11.107
 4045W        W67978  31.975   1.317  13.048
 4046W        W67979  30.425  11.232  12.362
 4047W        W67980   0.925  24.696   1.220
 4048W        W67981  13.170   9.647  14.915
 4049W        W67982  23.060   5.869  14.881
 4050W        W67983  36.352   1.421   3.632
 4051W        W67984  34.576  34.957  14.393
 4052W        W67985   6.750  16.312  10.584
 4053W        W67986  34.955   0.771   0.412
 4054W        W67987  43.382  16.809   1.856
 4055W        W67988  11.670  44.430  10.120
 4056W        W67989  26.078   7.786   0.750
 4057W        W67990  15.727  11.752   0.279
 4058W        W67991  13.316   0.772   3.845
 4059W        W67992  16.798  17.700   1.261
 4060W        W67993   3.292  10.657  14.365
 4061W        W67994   7.390  33.988  10.942
 4062W        W67995  10.203  16.156  12.513
 4063W        W67996  40.442  38.975   4.195
 4064W        W67997  31.078  28.115  12.988
 4065W        W67998  33.434  27.510   0.363
 4066W        W67999  43.994   9.728  14.392
 4067W        W68000  35.429  12.631   2.344
 4068W        W68001  15.810  14.170   0.470
 4069W        W68002  26.476   1.873  13.449
 4070W        W68003   6.391  27.563   0.302
 4071W        W68004  38.432  14.163   0.792
 4072W        W68005   8.383  13.274  13.996
 4073W        W68006  30.994  43.985   4.230
 4074W        W68007   3.255  42.882   3.159
 4075W        W68008  42.424  30.451   4.284
 4076W        W68009   7.223   0.471   1.322
 4077W        W68010  27.013  38.068   4.187
 4078W        W68011  18.050  31.498  14.481
 4079W        W68012  22.012   2.843   3.151
 4080W        W68013   9.376   0.313   0.346
 4081W        W68014  21.715  37.348  12.568
 4082W        W68015   3.370  36.992   0.811
 4083W        W68016  21.106  36.496  10.505
 4084W        W68017   9.850  27.993  13.506
 4085W        W68018  20.149  38.910  10.106
 4086W        W68019  33.385  14.724  10.473
 4087W        W68020  37.923  42.965  13.473
 4088W        W68021  12.256  16.109   4.808
 4089W        W68022  43.968   4.217  10.639
 4090W        W68023  29.013   8.285   1.841
 4091W        W68024  10.245  38.067   3.242
 4092W        W68025  38.906  30.082  13.361
 4093W        W68026  12.844   7.240   3.820
 4094W        W68027  26.500   4.236   3.225
 4095W        W68028   4.235   6.245  13.052
 4096W        W68029  24.533  39.973  10.609
 4097W        W68030   5.249   1.972   3.364
 4098W        W68031   1.926  43.374   2.744
 4099W        W68032  25.516   1.337   4.620
 4100W        W68033  30.586  33.434  13.307
 4101W        W68034  23.501  40.520   2.679
 4102W        W68035   6.680   9.771   0.325
 4103W        W68036  13.170  39.024   3.783
 4104W        W68037  11.137  26.510  10.929
 4105W        W68038  43.448   1.478   4.168
 4106W        W68039   7.836  32.631  12.092
 4107W        W68040   4.223  16.240   0.306
 4108W        W68041  32.466  40.535  11.402
 4109W        W68042  38.505   6.186   1.827
 4110W        W68043  24.599  12.225  11.856
 4111W        W68044  22.528  13.616  13.977
 4112W        W68045  38.369   3.819   1.361
 4113W        W68046   7.795  40.324   3.337
 4114W        W68047  21.067  31.455  14.454
 4115W        W68048  19.651  43.358   3.641
 4116W        W68049   5.924  17.634  14.936
 4117W        W68050   5.437  14.712   9.502
 4118W        W68051  34.863  41.828  11.390
 4119W        W68052  26.616   1.286  13.488
 4120W        W68053   1.278   8.261  13.480
 4121W        W68054  20.713  35.590  11.892
 4122W        W68055  33.473  27.686   4.701
 4123W        W68056  16.305  39.035   3.203
 4124W        W68057  42.027  21.154   2.276
 4125W        W68058  13.200   3.270   4.650
 4126W        W68059  36.964   8.806  14.855
 4127W        W68060  11.799   7.412   2.221
 4128W        W68061  14.250  15.176  14.886
 4129W        W68062  31.637  29.034   1.868
 4130W        W68063  29.979  18.665   4.352
 4131W        W68064  37.479  35.935  14.813
 4132W        W68065   2.456   4.360   1.369
 4133W        W68066   9.829  14.187   1.798
 4134W        W68067  39.832  14.264   3.729
 4135W        W68068   8.173   5.890   3.670
 4136W        W68069  31.014  14.822  10.486
 4137W        W68070  28.087   1.893  12.490
 4138W        W68071  19.625  20.194  11.587
 4139W        W68072  15.173   3.766   0.385
 4140W        W68073   2.892   5.245  12.559
 4141W        W68074  44.370  26.564  10.135
 4142W        W68075   4.226  25.019   9.992
 4143W        W68076  30.542   2.329   1.879
 4144W        W68077   7.815  19.048   1.293
 4145W        W68078  23.207  27.958  11.100
 4146W        W68079  40.458   7.903   0.264
 4147W        W68080  31.457  25.638  13.846
 4148W        W68081  31.448  25.560  12.923
 4149W        W68082  12.267  33.962   2.383
 4150W        W68083  37.013   4.325   1.732
 4151W        W68084  35.453  24.120   2.270
 4152W        W68085  37.455  10.182  11.458
 4153W        W68086  42.793  18.697  12.348
 4154W        W68087  23.241  41.861   3.778
 4155W        W68088   0.441  37.840   5.224
 4156W        W68089  27.196   6.366   3.267
 4157W        W68090   4.741  36.531   3.827
 4158W        W68091  10.367   9.801  13.872
 4159W        W68092   7.339  30.642  13.018
 4160W        W68093  23.013  32.631  12.508
 4161W        W68094  22.010  14.180  13.349
 4162W        W68095  32.902  12.345  13.850
 4163W        W68096  26.031  17.716  13.931
 4164W        W68097  28.144  12.677   0.259
 4165W        W68098  34.573  39.530   3.190
 4166W        W68099  16.594   5.426  13.440
 4167W        W68100  36.592   6.221   1.404
 4168W        W68101   3.906   8.236  14.879
 4169W        W68102  35.582  14.111  14.475
 4170W        W68103  26.668  21.570  14.502
 4171W        W68104  40.384  27.072   1.918
 4172W        W68105   2.328   4.322   4.294
 4173W        W68106  15.674  16.633  12.848
 4174W        W68107  33.529   9.797   4.735
 4175W        W68108  13.121  30.600   4.224
 4176W        W68109   0.783   2.241   0.938
 4177W        W68110  14.773  21.246  10.976
 4178W        W68111   9.756  11.358  10.509
 4179W        W68112   3.453   2.813   4.774
 4180W        W68113  38.047   8.731   4.820
 4181W        W68114   1.289  30.519   0.463
 4182W        W68115   8.747  25.531   4.626
 4183W        W68116   5.323  17.248  12.855
 4184W        W68117   4.273  21.067   4.811
 4185W        W68118  42.389  29.940   3.321
 4186W        W68119  20.104   8.294  12.561
 4187W        W68120  31.123  12.651  12.465
 4188W        W68121  35.984  20.189  10.944
 4189W        W68122  41.949  32.085  11.540
 4190W        W68123  34.884  16.114  11.046
 4191W        W68124   5.896  19.705  13.831
 4192W        W68125   5.345  19.594  14.362
 4193W        W68126  39.389  29.615  10.535
 4194W        W68127   9.359   9.357   4.314
 4195W        W68128   0.416  39.525  10.598
 4196W        W68129  16.636   2.747   4.170
 4197W        W68130  44.834  18.068  13.530
 4198W        W68131  42.868  17.098  12.084
 4199W        W68132   0.325  33.964  14.834
 4200W        W68133   9.302  14.184   3.340
 4201W        W68134   8.844   7.793   0.876
 4202W        W68135  33.477  26.568   0.828
 4203W        W68136   8.249  14.260  11.083
 4204W        W68137  23.241   9.331   3.822
 4205W        W68138  27.008  20.678   0.370
 4206W        W68139  21.248  26.989  13.533
 4207W        W68140   6.411  19.708   0.263
 4208W        W68141  17.212   6.373   1.827
 4209W        W68142   7.349  36.586   0.329
 4210W        W68143  10.293  19.571  13.445
 4211W        W68144  24.167  30.624   1.746
 4212W        W68145  24.128  20.237   3.145
 4213W        W68146  20.673   9.382   0.421
 4214W        W68147  12.782  22.668   2.186
 4215W        W68148  26.955  20.578  14.954
 4216W        W68149  44.944  11.816  14.843
 4217W        W68150   5.929  39.894   0.856
 4218W        W68151  16.658  32.478   0.806
 4219W        W68152  23.032  27.049   0.449
 4220W        W68153   1.847  25.984  11.019
 4221W        W68154   1.354  32.119  14.923
 4222W        W68155  11.629   0.856  13.976
 4223W        W68156  38.042   4.719  11.028
 4224W        W68157  18.733  42.827  10.621
 4225W        W68158  17.190  37.432  11.497
 4226W        W68159  37.865  43.970  10.511
 4227W        W68160  37.872  44.361   3.291
 4228W        W68161   4.232   5.360  12.452
 4229W        W68162  16.681  25.559   1.733
 4230W        W68163  19.217  41.507   2.731
 4231W        W68164  30.150  34.957   3.718
 4232W        W68165  10.222  25.609   0.274
 4233W        W68166  43.495  21.238   1.896
 4234W        W68167  18.238  30.553   0.268
 4235W        W68168  33.416   3.292   0.294
 4236W        W68169   7.310  16.286  10.991
 4237W        W68170   5.832  41.026  11.529
 4238W        W68171  38.367   4.765   2.233
 4239W        W68172  30.056  24.648  14.981
 4240W        W68173   1.887   4.943  11.394
 4241W        W68174  12.184   7.765  10.501
 4242W        W68175  41.328  16.589  14.275
 4243W        W68176  18.074   7.225   4.794
 4244W        W68177  10.285  26.564  10.132
 4245W        W68178  13.626  14.292   4.149
 4246W        W68179  43.770  21.692  11.983
 4247W        W68180  42.982   2.871   1.932
 4248W        W68181  32.977  23.718  12.549
 4249W        W68182  22.240   1.459  13.926
 4250W        W68183   2.321  39.995   0.820
 4251W        W68184  34.065  23.511   2.788
 4252W        W68185  33.534  28.496   5.285
 4253W        W68186  40.537  38.339   2.338
 4254W        W68187  41.395  43.973  11.969
 4255W        W68188   0.856  41.497  10.613
 4256W        W68189  10.337  37.997   4.335
 4257W        W68190  26.605  26.189   3.256
 4258W        W68191  17.233  19.134  12.076
 4259W        W68192  38.884   3.264   9.994
 4260W        W68193  11.310  22.043  14.297
 4261W        W68194  20.565  33.617  14.424
 4262W        W68195  18.620  25.972   9.671
 4263W        W68196   2.913  25.151  12.012
 4264W        W68197   1.279  10.761   3.275
 4265W        W68198   4.814  36.431   1.422
 4266W        W68199  36.936  13.331   2.715
 4267W        W68200   8.355  23.645   3.163
 4268W        W68201  27.988  14.680   0.884
 4269W        W68202  13.276  42.808  11.431
 4270W        W68203  38.073  42.787  12.340
 4271W        W68204  23.162  24.999  13.349
 4272W        W68205  11.815  40.316  12.404
 4273W        W68206   8.766  32.906   4.148
 4274W        W68207  20.128  30.925  13.797
 4275W        W68208  32.414   8.663   3.732
 4276W        W68209  34.455  41.390  13.925
 4277W        W68210   6.916  41.891  10.428
 4278W        W68211  31.608  21.574   2.326
 4279W        W68212  24.169  30.512   9.921
 4280W        W68213   9.348  15.285   2.264
 4281W        W68214  29.580  31.985  10.441
 4282W        W68215  11.240  43.769  12.077
 4283W        W68216  22.648   6.768   0.923
 4284W        W68217   4.887  21.145  12.916
 4285W        W68218   2.931  22.692  11.934
 4286W        W68219  38.442  12.621  13.057
 4287W        W68220  14.804   6.762   2.259
 4288W        W68221  28.108  27.647   0.371
 4289W        W68222  12.231   9.155   3.197
 4290W        W68223   6.230   9.235   0.808
 4291W        W68224  28.484  29.099  11.982
 4292W        W68225  16.705  39.380   2.720
 4293W        W68226  44.961  32.950   0.855
 4294W        W68227   2.735  33.971  12.480
 4295W        W68228   6.735   6.354  13.925
 4296W        W68229  41.879  28.095   2.225
 4297W        W68230  44.942   7.371  12.560
 4298W        W68231  10.845  10.746  14.955
 4299W        W68232  21.596   6.764   3.768
 4300W        W68233  20.156  23.538  12.436
 4301W        W68234  30.159  30.585   1.836
 4302W        W68235   5.923  18.103  10.971
 4303W        W68236  33.443  19.663  11.549
 4304W        W68237  37.042  44.846   3.339
 4305W        W68238  16.316  24.625   0.958
 4306W        W68239  38.847  34.423   0.352
 4307W        W68240  12.648  31.996   0.930
 4308W        W68241   3.801  17.086   1.866
 4309W        W68242  29.634  15.643  11.605
 4310W        W68243  37.426  31.486  12.893
 4311W        W68244  30.518  39.830  13.411
 4312W        W68245  33.893  38.544  12.472
 4313W        W68246  34.941  36.938   3.342
 4314W        W68247  15.263  39.528  11.534
 4315W        W68248  30.603  34.108   1.307
 4316W        W68249  36.430  41.003  10.940
 4317W        W68250   7.675  33.527  10.149
 4318W        W68251  39.477  18.646   2.246
 4319W        W68252  28.673   9.257   3.706
 4320W        W68253   9.803  16.131  11.990
 4321W        W68254   3.799  30.133   4.290
 4322W        W68255  41.843  30.044  14.493
 4323W        W68256   9.853  25.520   4.721
 4324W        W68257  31.532   9.779  10.914
 4325W        W68258  14.815  13.192   0.356
 4326W        W68259  27.008  36.477  10.563
 4327W        W68260  16.295  43.459   1.823
 4328W        W68261  18.791  25.006   2.200
 4329W        W68262  33.489  36.533   2.346
 4330W        W68263  39.375   5.283   1.221
 4331W        W68264  41.510  40.483  13.917
 4332W        W68265   2.755  34.903   4.345
 4333W        W68266  11.312  39.049  14.398
 4334W        W68267  41.941  27.599  14.780
 4335W        W68268   7.810  11.730   5.186
 4336W        W68269  13.769  16.703  11.599
 4337W        W68270  13.810   8.855   4.146
 4338W        W68271  12.301  18.065  13.925
 4339W        W68272  32.023  43.447   3.632
 4340W        W68273  30.415  16.309  14.761
 4341W        W68274   3.350  43.991   1.856
 4342W        W68275  36.540  17.200   3.655
 4343W        W68276   5.783  40.403   1.924
 4344W        W68277  23.150  10.797   0.936
 4345W        W68278  33.099   7.390   4.201
 4346W        W68279  26.537  30.976  11.530
 4347W        W68280  31.636   7.692  11.454
 4348W        W68281  35.508  33.482   3.705
 4349W        W68282  12.623   7.373  14.434
 4350W        W68283  14.647  21.124   3.182
 4351W        W68284  10.635   6.399   4.676
 4352W        W68285  13.656  41.831   0.730
 4353W        W68286  25.629   6.866  11.007
 4354W        W68287  37.344  41.352   0.911
 4355W        W68288  40.900  12.233  13.519
 4356W        W68289  17.177   9.884   4.786
 4357W        W68290  16.185  11.825   4.314
 4358W        W68291   0.265   1.480  11.595
 4359W        W68292  27.058  34.391   3.715
 4360W        W68293  41.483  27.133   4.289
 4361W        W68294   0.342  28.642   3.793
 4362W        W68295  40.888   0.980   3.381
 4363W        W68296  40.412  29.424  11.977
 4364W        W68297  36.851  15.639  12.982
 4365W        W68298  36.347  41.855  14.327
 4366W        W68299   8.779  16.657  13.410
 4367W        W68300  15.604  32.980  13.483
 4368W        W68301   5.762  30.128  14.027
 4369W        W68302   9.652  38.952  10.892
 4370W        W68303  30.575   6.271   0.912
 4371W        W68304  27.177   2.382   1.221
 4372W        W68305  23.160  25.557   4.222
 4373W        W68306  11.337  16.716   4.149
 4374W        W68307  37.461  30.515   4.314
 4375W        W68308  23.709  18.659   0.950
 4376W        W68309  35.034  16.689   1.719
 4377W        W68310  13.813  15.147  10.595
 4378W        W68311  33.021  27.035  14.395
 4379W        W68312  39.817   4.344   0.741
 4380W        W68313  16.590  30.658  10.889
 4381W        W68314  29.030   5.723   1.875
 4382W        W68315   0.868  38.477  12.517
 4383W        W68316  44.866   8.788  10.420
 4384W        W68317  17.263  31.914   4.616
 4385W        W68318  17.306  35.940  12.496
 4386W        W68319  12.823  32.907   3.852
 4387W        W68320   0.334   9.364  13.955
 4388W        W68321  29.466  27.085  11.388
 4389W        W68322   3.420  29.157  14.892
 4390W        W68323  17.134  25.185   1.704
 4391W        W68324   2.762  27.656  13.321
 4392W        W68325   5.777  42.866  14.008
 4393W        W68326  33.585  27.496  14.902
 4394W        W68327  37.948  26.497   4.271
 4395W        W68328  12.260  10.765   1.915
 4396W        W68329  16.784  22.090  13.450
 4397W        W68330  18.694  20.192   0.432
 4398W        W68331  28.607   6.873  13.977
 4399W        W68332  43.790  33.070   2.742
 4400W        W68333  28.488  17.621   1.712
 4401W        W68334   6.726   8.164   3.833
 4402W        W68335  42.012  23.991  12.525
 4403W        W68336  11.199  43.866  13.392
 4404W        W68337   9.390  43.915  10.558
 4405W        W68338   4.868  27.623  13.493
 4406W        W68339  18.660  24.596  13.801
 4407W        W68340  42.465  16.626   2.264
 4408W        W68341   2.732  24.037   0.329
 4409W        W68342  26.029  30.452   5.135
 4410W        W68343   1.374  23.105   3.838
 4411W        W68344  10.743  36.427  14.303
 4412W        W68345   9.655  17.764   2.822
 4413W        W68346  16.706  14.782  11.572
 4414W        W68347  22.538   8.738  10.530
 4415W        W68348  39.973  22.608   1.213
 4416W        W68349  30.964  32.902   3.793
 4417W        W68350  23.493  21.031   2.245
 4418W        W68351  17.279  25.627   3.360
 4419W        W68352  32.094  32.537  12.952
 4420W        W68353  16.202  18.609  11.446
 4421W        W68354  24.062  31.403  12.037
 4422W        W68355  18.237  23.095   3.362
 4423W        W68356  31.125  15.647   4.314
 4424W        W68357   2.285  36.991  11.509
 4425W        W68358  28.467  28.064  14.934
 4426W        W68359   6.720  25.076   1.811
 4427W        W68360  10.810  31.602   0.960
 4428W        W68361  37.039  25.048   4.622
 4429W        W68362  15.645  20.693  10.427
 4430W        W68363  35.052  33.444  12.547
 4431W        W68364  43.869  16.610   0.376
 4432W        W68365  27.070  40.527  13.521
 4433W        W68366  39.473  17.299   2.788
 4434W        W68367  44.809  19.163   0.934
 4435W        W68368  34.423  11.134  12.002
 4436W        W68369  43.512  15.789   0.866
 4437W        W68370  37.877  42.373  11.008
 4438W        W68371  25.692  15.098   4.672
 4439W        W68372  11.301   6.848   3.749
 4440W        W68373  19.598  24.497   0.322
 4441W        W68374  35.053  42.468  10.438
 4442W        W68375  13.316  14.651   0.840
 4443W        W68376   2.934  28.439  11.906
 4444W        W68377   5.919  28.107  11.965
 4445W        W68378  39.502  37.440   4.145
 4446W        W68379  32.609  22.113   3.653
 4447W        W68380  24.182  41.434   1.721
 4448W        W68381   5.921   9.286   4.175
 4449W        W68382  19.688  15.314  14.375
 4450W        W68383   4.870  39.857   0.788
 4451W        W68384  28.642  34.388   2.784
 4452W        W68385  28.562  12.780   1.230
 4453W        W68386  38.518  21.034   4.259
 4454W        W68387  38.848   9.645  14.473
 4455W        W68388  18.730  16.243   3.335
 4456W        W68389  28.608   9.192  14.918
 4457W        W68390  43.504  15.665   1.234
 4458W        W68391  42.927  27.012   3.642
 4459W        W68392  20.037  39.942  13.986
 4460W        W68393   9.196   8.160   2.879
 4461W        W68394   1.742  40.837   1.914
 4462W        W68395  10.204  10.204   2.801
 4463W        W68396  22.581   8.704  12.829
 4464W        W68397  16.707  27.987   2.813
 4465W        W68398   3.346  29.570  14.352
 4466W        W68399  25.568   8.272   4.223
 4467W        W68400  18.114   8.844   0.406
 4468W        W68401  39.449  23.986   4.780
 4469W        W68402  36.084  10.676   3.262
 4470W        W68403  21.641  20.535   1.333
 4471W        W68404  32.066  35.520   0.255
 4472W        W68405  19.107  36.465   3.371
 4473W        W68406  30.925  10.242  14.770
 4474W        W68407  23.147  13.662  13.876
 4475W        W68408  42.370  36.522  13.428
 4476W        W68409  43.962   4.348   0.346
 4477W        W68410   9.370  26.088   1.863
 4478W        W68411  30.960  39.987  12.543
 4479W        W68412  18.602   4.875  13.460
 4480W        W68413  30.156  10.692   1.832
 4481W        W68414   3.935  14.589  13.028
 4482W        W68415  18.583  34.052   3.748
 4483W        W68416  25.618  21.753  12.916
 4484W        W68417  24.570  19.189  14.782
 4485W        W68418  22.640  10.183  12.529
 4486W        W68419   9.662  43.959   0.365
 4487W        W68420  42.404   1.946  12.043
 4488W        W68421  43.482   7.827   3.147
 4489W        W68422  43.014   2.944   0.457
 4490W        W68423   1.975  31.468   3.827
 4491W        W68424   8.901   4.328  11.957
 4492W        W68425  14.189   7.825   3.706
 4493W        W68426  18.712  35.384   0.747
 4494W        W68427  31.636  17.184   0.374
 4495W        W68428  39.861  32.982  14.773
 4496W        W68429  30.952  43.818  10.426
 4497W        W68430  12.638   4.442   1.922
 4498W        W68431  38.417  24.227  10.487
 4499W        W68432   4.309  37.359   0.867
 4500W        W68433   0.397  19.243   2.667
 4501W        W68434  19.705  28.030   4.650
 4502W        W68435  18.652  33.052   1.275
 4503W        W68436   5.233  20.607   1.768
 4504W        W68437  27.194  35.478   1.742
 4505W        W68438  14.656  35.456   2.303
 4506W        W68439  11.783  44.277   1.331
 4507W        W68440   8.372  19.236  13.936
 4508W        W68441   4.364  24.573   5.654
 4509W        W68442  14.322  13.835  13.940
 4510W        W68443  20.151  23.549   1.281
 4511W        W68444   4.425   2.912   0.903
 4512W        W68445  25.055  24.178   2.406
 4513W        W68446  33.973  39.491   0.814
 4514W        W68447  32.974  34.571  12.043
 4515W        W68448  22.533  44.452  11.857
 4516W        W68449  33.441  20.633  10.937
 4517W        W68450  14.805   3.454   3.326
 4518W        W68451  38.343  33.531  11.035
 4519W        W68452  38.945   0.337   5.167
 4520W        W68453  37.444  40.361   0.256
 4521W        W68454  41.326   7.354   0.909
 4522W        W68455  10.285   6.231  11.967
 4523W        W68456  22.068   4.797   4.235
 4524W        W68457  33.462  13.671   3.643
 4525W        W68458  17.145   2.890  14.995
 4526W        W68459  23.187  34.414  14.391
 4527W        W68460  13.349  11.334   1.872
 4528W        W68461  30.060   7.897   0.922
 4529W        W68462  42.324   9.676  14.895
 4530W        W68463   6.758  38.048   1.362
 4531W        W68464   7.679  20.199   3.175
 4532W        W68465  33.554  24.120   4.662
 4533W        W68466  27.005   9.702  10.609
 4534W        W68467   9.352  37.527  11.435
 4535W        W68468  15.694  40.892  14.951
 4536W        W68469   2.403  29.494   0.312
 4537W        W68470  39.426  24.494  10.425
 4538W        W68471  14.149   9.266   3.307
 4539W        W68472  36.485  15.231   2.181
 4540W        W68473  10.269   0.931  14.398
 4541W        W68474  33.011   2.296  12.372
 4542W        W68475  17.168  12.710   0.962
 4543W        W68476   5.221  41.800  13.859
 4544W        W68477  40.958   3.221  11.551
 4545W        W68478  20.212  12.626   0.944
 4546W        W68479  42.844  36.433   3.373
 4547W        W68480  30.066   0.787  12.362
 4548W        W68481  41.030  34.876  14.764
 4549W        W68482  42.030   0.384  12.041
 4550W        W68483   0.400  19.222  11.047
 4551W        W68484  43.468   1.421   1.244
 4552W        W68485   4.702  19.552  12.888
 4553W        W68486  16.241  33.398   0.752
 4554W        W68487   5.418  28.443  10.415
 4555W        W68488   7.384  27.013   3.748
 4556W        W68489  42.784  24.166  11.017
 4557W        W68490  28.528   9.848  11.561
 4558W        W68491  10.860  11.764  14.890
 4559W        W68492  26.080   4.204   0.253
 4560W        W68493   6.866   0.941   4.697
 4561W        W68494  24.602   2.464  14.303
 4562W        W68495  44.761   9.733  11.436
 4563W        W68496  37.889  18.190  14.760
 4564W        W68497   3.747  29.538   1.314
 4565W        W68498  22.641  11.707   1.450
 4566W        W68499  35.913  34.568  12.456
 4567W        W68500   3.853  26.146   3.779
 4568W        W68501   3.307  28.559  13.926
 4569W        W68502  30.080  16.678  13.851
 4570W        W68503   1.471  14.645  13.955
 4571W        W68504   7.215  29.558  13.485
 4572W        W68505   8.827  12.653  11.475
 4573W        W68506  32.081  18.546   0.753
 4574W        W68507   9.338  44.755   0.821
 4575W        W68508   8.782  35.998   4.316
 4576W        W68509  10.844  43.511  11.121
 4577W        W68510  10.279  15.308  14.917
 4578W        W68511  44.323   5.368  12.452
 4579W        W68512  18.592  22.108   0.331
 4580W        W68513   7.317  21.679   0.433
 4581W        W68514  21.630  31.516   1.718
 4582W        W68515  43.467  35.910  10.960
 4583W        W68516  12.720  13.116  14.293
 4584W        W68517   2.269  34.007  11.586
 4585W        W68518   9.867  19.092   3.232
 4586W        W68519  16.573  35.079  10.986
 4587W        W68520  21.088  37.514  13.877
 4588W        W68521  26.971  35.920  13.888
 4589W        W68522  12.288  38.888   4.297
 4590W        W68523  25.587  40.854   0.331
 4591W        W68524  40.402  29.029   2.418
 4592W        W68525   7.911  30.483   4.339
 4593W        W68526  17.156  21.694   0.452
 4594W        W68527  17.132  40.343  14.342
 4595W        W68528  22.164  40.455  14.312
 4596W        W68529  33.545   2.730   2.692
 4597W        W68530  13.667  44.824   0.869
 4598W        W68531  23.240  41.412  13.357
 4599W        W68532  23.018   1.263  11.087
 4600W        W68533   6.825  16.684   3.668
 4601W        W68534  32.612  30.441   1.899
 4602W        W68535  41.987   9.212   1.441
 4603W        W68536   7.275   4.238  12.975
 4604W        W68537  24.523   0.907   1.219
 4605W        W68538   5.439  29.052   3.798
 4606W        W68539  12.705  24.531   3.742
 4607W        W68540  24.724   6.214   4.328
 4608W        W68541  41.968  15.700  11.069
 4609W        W68542   0.436  14.250   3.795
 4610W        W68543  32.577  22.035   0.386
 4611W        W68544  34.996  35.930   0.727
 4612W        W68545  39.383  29.175   2.889
 4613W        W68546   1.255  27.491  13.416
 4614W        W68547  34.021  20.553   1.863
 4615W        W68548  12.287  15.221  13.900
 4616W        W68549  13.816  13.677  14.442
 4617W        W68550  19.625  34.445   0.752
 4618W        W68551  24.228  25.556  10.955
 4619W        W68552   7.198   4.241  14.874
 4620W        W68553  12.653  42.371  12.969
 4621W        W68554  31.432  44.421  10.446
 4622W        W68555  15.168  38.433  10.458
 4623W        W68556  10.269  39.818   2.359
 4624W        W68557  31.515   5.766  11.423
 4625W        W68558  14.632  26.204   2.707
 4626W        W68559   2.445  10.865   0.297
 4627W        W68560  31.903  12.292   2.213
 4628W        W68561  17.632  15.319   0.900
 4629W        W68562  26.568  12.636   3.313
 4630W        W68563  33.088  12.179   1.902
 4631W        W68564  11.789  42.412   4.723
 4632W        W68565  15.154  35.038   2.864
 4633W        W68566  36.021  30.924   3.709
 4634W        W68567  30.446  44.417   2.243
 4635W        W68568  23.693   3.275   9.925
 4636W        W68569  16.607  35.407   4.312
 4637W        W68570   4.863   8.822   0.939
 4638W        W68571  23.187  20.053   4.617
 4639W        W68572  13.817  30.463   2.667
 4640W        W68573  14.773  24.515  14.507
 4641W        W68574  15.196  39.554  10.637
 4642W        W68575  32.629  43.318  11.913
 4643W        W68576  25.470  42.499   0.416
 4644W        W68577  25.974   7.307   3.678
 4645W        W68578  31.057  26.970  11.890
 4646W        W68579  36.987  34.932  13.855
 4647W        W68580  25.482  25.574   0.482
 4648W        W68581  39.426   7.766   2.744
 4649W        W68582  39.041   0.422   3.155
 4650W        W68583  10.733   7.698   0.879
 4651W        W68584  35.005  40.837  11.561
 4652W        W68585  10.219   4.238   3.664
 4653W        W68586  34.914   4.401  12.368
 4654W        W68587   1.435  19.128   2.773
 4655W        W68588  16.646  34.906  14.993
 4656W        W68589  19.735   9.294  12.869
 4657W        W68590  20.128  41.466  11.932
 4658W        W68591  39.429  40.519   1.711
 4659W        W68592  21.539  25.081   2.678
 4660W        W68593  23.231   4.804  12.924
 4661W        W68594  33.957  40.326   2.799
 4662W        W68595  21.551  29.027   4.271
 4663W        W68596  23.719  36.997  11.058
 4664W        W68597  16.254  44.819  11.570
 4665W        W68598  32.467   0.962  10.636
 4666W        W68599   5.904  24.170   1.807
 4667W        W68600  22.562  30.017  14.800
 4668W        W68601  36.964  38.436   3.858
 4669W        W68602  16.200  41.538   1.741
 4670W        W68603   9.223  19.573   3.636
 4671W        W68604  30.966  10.354   3.790
 4672W        W68605  16.637  25.109   0.286
 4673W        W68606  23.170  20.576   2.417
 4674W        W68607  37.052  32.431   2.669
 4675W        W68608  40.871   7.690  10.927
 4676W        W68609  25.107  13.837   3.170
 4677W        W68610   4.711   9.889  13.322
 4678W        W68611  34.972  40.462  11.946
 4679W        W68612  42.792  21.076  10.064
 4680W        W68613  40.441   8.732  10.979
 4681W        W68614  15.213  25.042   1.747
 4682W        W68615  16.119  44.894   4.119
 4683W        W68616  29.482  20.060   0.958
 4684W        W68617  36.435   3.328  12.563
 4685W        W68618  32.435  10.712  12.532
 4686W        W68619   8.667  36.945  12.033
 4687W        W68620  12.847   2.346   0.394
 4688W        W68621  42.400  17.218   0.321
 4689W        W68622  16.695  30.537  12.424
 4690W        W68623  32.944  18.709   4.301
 4691W        W68624  24.062   4.919  10.991
 4692W        W68625  15.135  36.499   2.296
 4693W        W68626   9.664  18.644  12.060
 4694W        W68627   5.817  30.991  13.910
 4695W        W68628  39.446  14.102  11.039
 4696W        W68629  35.008  39.851  12.852
 4697W        W68630  20.141  22.581   2.383
 4698W        W68631  21.688   0.785  11.533
 4699W        W68632  23.517  43.002  14.416
 4700W        W68633  30.550  10.653  12.550
 4701W        W68634  37.554  25.086   1.445
 4702W        W68635  26.166  12.827   4.826
 4703W        W68636  23.003  35.360   3.717
 4704W        W68637  44.347  31.431  13.378
 4705W        W68638  10.761   3.769   3.793
 4706W        W68639  44.989  26.176   0.870
 4707W        W68640  38.921  24.133   3.340
 4708W        W68641  24.589  33.426  11.377
 4709W        W68642  40.011  18.741  11.385
 4710W        W68643  44.440  33.972  10.938
 4711W        W68644  37.944  38.861   0.755
 4712W        W68645  12.767   5.910  13.503
 4713W        W68646  43.777   4.819   3.843
 4714W        W68647   4.936   4.753  11.856
 4715W        W68648   4.277  34.877   0.903
 4716W        W68649  16.584   0.939  14.760
 4717W        W68650  42.779  32.583   3.634
 4718W        W68651   2.825  21.526   1.333
 4719W        W68652  17.726  26.574  10.416
 4720W        W68653  24.531  28.050   2.418
 4721W        W68654  23.061   5.851   0.959
 4722W        W68655  31.008  25.000  14.869
 4723W        W68656  13.267  32.885   4.667
 4724W        W68657  19.109  39.984  14.812
 4725W        W68658  24.559  43.895  14.860
 4726W        W68659  13.657  43.332   3.348
 4727W        W68660   3.867  28.529  11.056
 4728W        W68661  39.480  37.498   1.401
 4729W        W68662  43.929   5.348  12.090
 4730W        W68663  40.353  38.557  14.902
 4731W        W68664  15.112  40.009  11.985
 4732W        W68665  41.298  44.374   0.283
 4733W        W68666   6.200   3.773   4.350
 4734W        W68667  23.123  29.982  11.441
 4735W        W68668  24.525  12.206   1.699
 4736W        W68669   9.880   0.883  13.463
 4737W        W68670  10.718   1.405   4.260
 4738W        W68671   1.882  32.427  10.604
 4739W        W68672  23.540  29.092  14.854
 4740W        W68673   9.226   6.302  13.817
 4741W        W68674  14.772  15.170  11.050
 4742W        W68675  22.107  21.212  10.997
 4743W        W68676  32.132   1.278  10.628
 4744W        W68677   7.345  15.114  12.086
 4745W        W68678  34.886  42.994  14.786
 4746W        W68679  40.853  28.061  11.107
 4747W        W68680  16.661  18.702  14.308
 4748W        W68681  13.156  16.626  12.998
 4749W        W68682  33.559  22.045   3.718
 4750W        W68683   1.895  36.540   1.745
 4751W        W68684  15.131  38.467   2.348
 4752W        W68685   3.313  14.670   3.871
 4753W        W68686  39.557   7.783  12.422
 4754W        W68687  29.484   9.368   2.712
 4755W        W68688  41.849   2.295   0.423
 4756W        W68689   7.896   0.790   4.699
 4757W        W68690  27.677  18.593  12.908
 4758W        W68691  25.057  10.872  11.074
 4759W        W68692  14.695  17.600  14.419
 4760W        W68693   9.229  25.518   4.274
 4761W        W68694   9.370  43.438   3.257
 4762W        W68695   0.811  13.154  12.444
 4763W        W68696  36.576  44.375   3.809
 4764W        W68697   1.767  16.583   2.776
 4765W        W68698  31.559  12.156   0.394
 4766W        W68699   0.831  28.997   3.258
 4767W        W68700  17.599   5.803   9.932
 4768W        W68701  41.043  12.180  14.334
 4769W        W68702   1.322  19.657  11.114
 4770W        W68703  41.943   7.301  10.551
 4771W        W68704  13.842   5.732   4.780
 4772W        W68705  33.877  14.169   0.822
 4773W        W68706  18.253  30.598   3.657
 4774W        W68707  42.355  34.980  14.821
 4775W        W68708   1.469  34.495   0.249
 4776W        W68709  20.594  33.481  11.606
 4777W        W68710  25.662   5.375  14.866
 4778W        W68711  26.108  20.695   4.683
 4779W        W68712   3.903  11.770   2.332
 4780W        W68713  40.977  39.316   0.462
 4781W        W68714   9.746   6.743  14.807
 4782W        W68715  36.400  12.280  10.474
 4783W        W68716  39.490  21.089  14.473
 4784W        W68717  40.821  37.403  11.570
 4785W        W68718   6.729  43.875   2.299
 4786W        W68719  33.547   1.912  13.522
 4787W        W68720  13.641   1.826  10.552
 4788W        W68721  45.000  40.492  10.514
 4789W        W68722  28.611   6.784  14.325
 4790W        W68723  14.786  17.587   3.870
 4791W        W68724  23.709   0.392  14.354
 4792W        W68725   0.387  11.688   2.859
 4793W        W68726  35.971  33.881   3.846
 4794W        W68727  22.149  18.126   0.904
 4795W        W68728  24.526  37.885   1.355
 4796W        W68729  42.347  15.216  10.502
 4797W        W68730  34.961  36.936  10.430
 4798W        W68731  23.599   2.816   0.735
 4799W        W68732  21.642  26.644   3.245
 4800W        W68733  29.036  11.246  14.291
 4801W        W68734   3.339  44.831  14.337
 4802W        W68735  39.861  26.068   0.452
 4803W        W68736  23.214  19.743  10.955
 4804W        W68737  25.560  35.969  12.493
 4805W        W68738  23.033   3.295  11.003
 4806W        W68739   4.845  26.546   3.282
 4807W        W68740  30.086   3.761   2.256
 4808W        W68741   7.764  25.136   2.316
 4809W        W68742  17.069  39.876   3.356
 4810W        W68743   2.784  40.412   4.140
 4811W        W68744  18.631  17.719   3.639
 4812W        W68745  27.958  24.552   2.781
 4813W        W68746  43.002  39.342   4.813
 4814W        W68747  17.214  34.394   0.948
 4815W        W68748   8.845  24.580   1.702
 4816W        W68749  19.615   5.294  14.322
 4817W        W68750  16.212  28.165  13.467
 4818W        W68751  12.815   8.815   4.690
 4819W        W68752   1.259   5.420   2.810
 4820W        W68753   8.785  11.358  14.799
 4821W        W68754  36.527  42.347  13.911
 4822W        W68755  16.090  35.923  14.330
 4823W        W68756  28.466   6.302  13.824
 4824W        W68757  37.367  29.165  11.976
 4825W        W68758  38.501  24.615   1.898
 4826W        W68759  36.390  28.626   2.800
 4827W        W68760  39.415  17.183   4.183
 4828W        W68761  38.833   1.976   1.860
 4829W        W68762  40.542  15.778   0.355
 4830W        W68763  15.718  17.120  14.951
 4831W        W68764   5.750  24.028   4.320
 4832W        W68765  42.453   0.968   4.153
 4833W        W68766  10.228  25.470   2.779
 4834W        W68767  34.455  10.146   0.263
 4835W        W68768  13.142  18.723   3.716
 4836W        W68769   1.286   4.707   2.811
 4837W        W68770  17.659  12.172   2.237
 4838W        W68771  11.700  42.375  13.433
 4839W        W68772  19.719  39.862  14.025
 4840W        W68773   4.312  23.691  10.579
 4841W        W68774  10.332  10.138  14.342
 4842W        W68775  30.626  23.577  13.330
 4843W        W68776  33.128  37.004   1.352
 4844W        W68777   8.711  27.000  10.422
 4845W        W68778  41.496  31.500  13.017
 4846W        W68779  20.641  25.065  11.126
 4847W        W68780  44.342   1.339   3.801
 4848W        W68781   5.300   6.380   0.417
 4849W        W68782  23.594  26.602   0.313
 4850W        W68783  23.171  10.236  11.574
 4851W        W68784  34.066  12.838   0.376
 4852W        W68785  10.338   9.162  11.402
 4853W        W68786  12.325  13.152  11.101
 4854W        W68787  25.671  17.136  13.020
 4855W        W68788  30.616  28.572  10.585
 4856W        W68789  43.380  41.456  14.807
 4857W        W68790   8.192  10.782   0.788
 4858W        W68791  40.000  40.498   4.786
 4859W        W68792  16.311   9.655   1.322
 4860W        W68793  21.247  28.485  13.485
 4861W        W68794  39.495  43.960  13.973
 4862W        W68795  10.788  17.213  11.428
 4863W        W68796   3.366   8.365  11.044
 4864W        W68797  16.600  35.883   1.321
 4865W        W68798  27.128  24.539   0.301
 4866W        W68799  40.988  44.450   2.325
 4867W        W68800  30.955  36.484  14.821
 4868W        W68801  27.005   0.900   0.783
 4869W        W68802  39.845  19.110  10.413
 4870W        W68803  27.004  30.488  14.926
 4871W        W68804  24.616  44.780   0.384
 4872W        W68805  14.181  40.024  12.859
 4873W        W68806   7.338   7.880  13.486
 4874W        W68807   8.810   0.380   1.722
 4875W        W68808  33.928  20.668   4.630
 4876W        W68809  21.525  11.804   4.168
 4877W        W68810  10.677  32.467  10.455
 4878W        W68811  10.154  34.564  11.397
 4879W        W68812  31.964  36.474   2.240
 4880W        W68813  20.141  15.177   9.491
 4881W        W68814  27.093  18.637  10.934
 4882W        W68815  10.320   7.900  14.826
 4883W        W68816  41.313  29.013  13.441
 4884W        W68817  26.109  15.587   1.851
 4885W        W68818  28.977   9.848  12.010
 4886W        W68819  12.151  30.560  10.477
 4887W        W68820  42.790  39.025   1.359
 4888W        W68821  38.948  38.471   2.381
 4889W        W68822  23.579  37.520  12.967
 4890W        W68823  44.881  34.099  11.902
 4891W        W68824  35.925  34.931   0.834
 4892W        W68825  40.505  21.074  13.539
 4893W        W68826  18.675  26.077  11.956
 4894W        W68827  14.827  35.957  13.328
 4895W        W68828  21.257   9.823  14.932
 4896W        W68829  26.989  26.646   3.722
 4897W        W68830  42.897  34.924  10.502
 4898W        W68831  37.072  21.099   3.669
 4899W        W68832  14.672  34.967  11.582
 4900W        W68833  10.228   7.754  11.490
 4901W        W68834  38.398  18.107   4.618
 4902W        W68835  26.515  29.516  13.986
 4903W        W68836  20.532  30.643  11.384
 4904W        W68837  23.106  31.584   0.931
 4905W        W68838  22.643   2.780  12.360
 4906W        W68839  31.454   6.899   4.646
 4907W        W68840  39.992  15.113  13.507
 4908W        W68841  21.116  19.574  12.485
 4909W        W68842  39.016  13.780   0.403
 4910W        W68843  18.063   4.867   1.352
 4911W        W68844   6.270  28.460   1.706
 4912W        W68845  21.569  41.468  10.922
 4913W        W68846  31.560  32.533  11.463
 4914W        W68847  41.832   4.896  14.998
 4915W        W68848  11.181  31.507  13.916
 4916W        W68849  22.694  12.716  10.934
 4917W        W68850   7.862  37.029   3.203
 4918W        W68851  16.195  41.298   1.408
 4919W        W68852  14.624  16.567  12.025
 4920W        W68853  14.101  21.572   4.740
 4921W        W68854  35.923  10.764   1.885
 4922W        W68855  10.201  27.602  12.873
 4923W        W68856  23.123  34.450  12.042
 4924W        W68857  41.884  13.806  14.843
 4925W        W68858  43.998  12.720  13.868
 4926W        W68859  41.823  17.174  11.971
 4927W        W68860  40.043  16.764  14.830
 4928W        W68861  29.072   8.729   2.837
 4929W        W68862  16.276  27.053   2.849
 4930W        W68863   1.779  29.094   3.153
 4931W        W68864  25.096  38.966   5.291
 4932W        W68865  14.736  40.966   1.340
 4933W        W68866   5.237  37.835   2.820
 4934W        W68867  15.801   7.878  14.996
 4935W        W68868   8.271  25.569  10.046
 4936W        W68869  30.038  38.536   4.659
 4937W        W68870  11.777  21.758   3.296
 4938W        W68871  21.190  41.397  12.410
 4939W        W68872  38.879  27.542  14.513
 4940W        W68873  18.077  43.856  11.894
 4941W        W68874  31.963  37.039   2.302
 4942W        W68875  14.787  21.579  14.771
 4943W        W68876  14.310  31.568   4.743
 4944W        W68877  34.914  38.544  13.914
 4945W        W68878  17.097   4.735  14.494
 4946W        W68879  32.949   8.294   4.155
 4947W        W68880   5.690  43.001  12.017
 4948W        W68881  20.271  28.936  13.330
 4949W        W68882  19.248  37.436   4.736
 4950W        W68883   1.373  26.670  10.516
 4951W        W68884  27.012  31.086   3.225
 4952W        W68885  42.427   9.285   2.195
 4953W        W68886  28.017  10.733   0.464
 4954W        W68887  37.922  33.396   3.827
 4955W        W68888  38.354  10.207   3.769
 4956W        W68889  14.104  38.378   2.243
 4957W        W68890  25.683  18.692  10.593
 4958W        W68891  31.426  42.363   0.932
 4959W        W68892  31.425  34.073   3.845
 4960W        W68893   5.306  29.947  14.334
 4961W        W68894  33.440  11.270  10.127
 4962W        W68895  44.480   2.437  12.044
 4963W        W68896  17.674  20.231  10.440
 4964W        W68897  17.245  16.232   2.263
 4965W        W68898  41.421  36.495   0.965
 4966W        W68899  26.640   7.367  12.487
 4967W        W68900  44.947  33.060  13.874
 4968W        W68901  36.967  42.936  13.974
 4969W        W68902  28.960  22.184  13.538
 4970W        W68903  18.687  28.519   3.180
 4971W        W68904   2.818  18.191  14.323
 4972W        W68905  10.296  32.473  13.897
 4973W        W68906   5.782  43.463   4.158
 4974W        W68907  29.958  12.358   0.857
 4975W        W68908  21.655  19.154  11.892
 4976W        W68909  12.332  17.761   4.599
 4977W        W68910  29.647  13.135  13.339
 4978W        W68911  40.457   4.214  11.400
 4979W        W68912  17.671  43.799   0.777
 4980W        W68913   1.764  16.292  13.516
 4981W        W68914   7.171  42.325   4.761
 4982W        W68915  26.544  23.585  10.931
 4983W        W68916  36.955  30.598  10.912
 4984W        W68917   9.837  34.964   0.749
 4985W        W68918  32.886   5.836   0.942
 4986W        W68919  28.096   3.405   2.346
 4987W        W68920  14.178  43.860   3.275
 4988W        W68921  32.396  42.905   1.246
 4989W        W68922   5.739  23.717  10.540
 4990W        W68923   2.365  27.519   2.370
 4991W        W68924  36.035  40.457   2.899
 4992W        W68925   8.257  41.333  14.386
 4993W        W68926   8.405  18.623  14.427
 4994W        W68927  15.656  13.745  11.115
 4995W        W68928   9.670   6.365   4.726
 4996W        W68929  11.141   7.266   3.386
 4997W        W68930  35.059  39.062  12.054
 4998W        W68931  17.282  21.527  13.411
 4999W        W68932  13.128  38.867  11.492
 5000W        W68933  26.568  39.372  12.351
 5001W        W68934   5.824  14.629   4.759
 5002W        W68935   7.214  43.481  13.529
 5003W        W68936  23.215  38.047   3.639
 5004W        W68937  37.450   0.464   0.360
 5005W        W68938   4.414  36.892   2.682
 5006W        W68939  44.818   0.943   0.432
 5007W        W68940  34.456  35.031   3.859
 5008W        W68941  18.728  20.127   2.205
 5009W        W68942  29.605  31.616   0.735
 5010W        W68943  39.817  29.057  12.869
 5011W        W68944  35.082  19.621   0.428
 5012W        W68945  15.793  14.269   1.253
 5013W        W68946  13.182  40.858  14.950
 5014W        W68947  34.409  38.902   2.854
 5015W        W68948  13.162  15.714   9.954
 5016W        W68949  42.025  42.415  11.031
 5017W        W68950  37.564  24.608  12.449
 5018W        W68951  44.347  29.032   3.659
 5019W        W68952   4.354   3.370   2.229
 5020W        W68953  44.913  35.398  10.946
 5021W        W68954   5.896  40.359  13.930
 5022W        W68955  35.363   3.375   0.770
 5023W        W68956  23.558  12.314   0.324
 5024W        W68957   8.674  36.526   3.383
 5025W        W68958   7.381  14.124   3.851
 5026W        W68959  32.934  35.072   4.750
 5027W        W68960   5.384  31.924   2.362
 5028W        W68961  43.952  17.655  13.480
 5029W        W68962   4.229  28.541   0.394
 5030W        W68963  37.998  36.551   2.826
 5031W        W68964  22.165  44.392   3.147
 5032W        W68965  21.256  43.309   0.460
 5033W        W68966  22.529  38.967  11.378
 5034W        W68967  15.651  27.669   1.323
 5035W        W68968  21.230  28.479  13.994
 5036W        W68969  39.985  33.470   2.378
 5037W        W68970  12.688  32.401   0.465
 5038W        W68971  30.644  40.914   4.668
 5039W        W68972  13.669  32.918   1.261
 5040W        W68973  39.972  23.194  14.888
 5041W        W68974   6.182  17.628   3.308
 5042W        W68975  12.203  32.538   4.153
 5043W        W68976  13.341  27.520  13.370
 5044W        W68977  44.458  23.183  10.513
 5045W        W68978  19.214   6.691   2.358
 5046W        W68979  29.579  44.332   5.116
 5047W        W68980  21.623  21.576  13.916
 5048W        W68981   3.412  34.981   3.314
 5049W        W68982  33.072  38.960  13.426
 5050W        W68983  17.748   5.401  10.618
 5051W        W68984   3.740   2.439  12.543
 5052W        W68985  17.191  16.122   3.783
 5053W        W68986  28.661  21.200   0.768
 5054W        W68987   3.930  36.846  11.049
 5055W        W68988  24.606  40.850  11.060
 5056W        W68989   7.812  26.488  12.838
 5057W        W68990   6.187  31.559   1.219
 5058W        W68991  17.573  32.529  13.896
 5059W        W68992  23.561   8.836  12.402
 5060W        W68993  31.943  11.761  14.318
 5061W        W68994  21.050   9.874   0.959
 5062W        W68995  23.226  33.439   1.842
 5063W        W68996  39.516  25.518   0.242
 5064W        W68997   9.332  17.695  14.457
 5065W        W68998  14.613   5.699   2.857
 5066W        W68999  21.173  44.873  13.463
 5067W        W69000   6.207   4.776  13.423
 5068W        W69001  24.187  23.661  12.050
 5069W        W69002   3.390   9.854  14.874
 5070W        W69003   7.397  22.582   3.188
 5071W        W69004  23.658   8.246  14.294
 5072W        W69005  44.850  41.790  12.536
 5073W        W69006   2.926  31.430  14.419
 5074W        W69007   4.323  32.930   1.832
 5075W        W69008   9.296  10.256  11.902
 5076W        W69009  37.398  43.904   9.954
 5077W        W69010  11.760   3.828  14.452
 5078W        W69011  21.561  19.192   1.280
 5079W        W69012  40.960  29.589  11.966
 5080W        W69013  44.990  42.325   4.149
 5081W        W69014  40.977   7.203  13.845
 5082W        W69015  29.537   9.258   4.804
 5083W        W69016  37.964  23.129  14.848
 5084W        W69017   0.402  43.462  10.958
 5085W        W69018  28.609  26.001  12.479
 5086W        W69019  30.636  42.321  10.599
 5087W        W69020   3.289  39.552  12.965
 5088W        W69021  14.747  22.057  12.910
 5089W        W69022  43.909  24.550   0.301
 5090W        W69023   4.312  15.259   2.302
 5091W        W69024  39.027   0.303  13.804
 5092W        W69025  25.977  14.212  11.431
 5093W        W69026  23.053  40.853   2.308
 5094W        W69027  20.215  44.448  13.963
 5095W        W69028  27.132  30.066  12.933
 5096W        W69029  33.038  28.503   2.839
 5097W        W69030   0.945  13.259   4.622
 5098W        W69031  21.539   7.775  13.915
 5099W        W69032  37.459  27.040   0.426
 5100W        W69033  19.665  32.498   4.720
 5101W        W69034  19.039  23.690   3.700
 5102W        W69035  14.672  13.149  10.941
 5103W        W69036  31.490  27.171  13.325
 5104W        W69037  39.488  42.900  10.512
 5105W        W69038  16.793  38.505  14.445
 5106W        W69039  14.147  17.614  11.060
 5107W        W69040  28.126  19.132  12.430
 5108W        W69041  15.655  15.657   1.837
 5109W        W69042  44.363   3.859  13.848
 5110W        W69043   2.239  42.514   0.362
 5111W        W69044   9.366   2.829  14.455
 5112W        W69045   8.257  32.611   3.633
 5113W        W69046  30.412  29.050  13.880
 5114W        W69047  34.447   3.366  13.525
 5115W        W69048  39.854  38.874   3.850
 5116W        W69049  24.556  29.582  13.844
 5117W        W69050  17.631  18.726  10.093
 5118W        W69051  24.174  44.866   4.189
 5119W        W69052  40.003  33.479  12.561
 5120W        W69053  23.144  12.175  11.497
 5121W        W69054  42.295  25.632   4.827
 5122W        W69055   8.160   8.213  14.762
 5123W        W69056  20.236  16.633  13.807
 5124W        W69057  42.301  19.223   4.317
 5125W        W69058  43.952  12.788  14.856
 5126W        W69059  32.597  22.685  11.475
 5127W        W69060  32.529  37.901  12.481
 5128W        W69061  34.434  19.695   3.823
 5129W        W69062  37.366  25.054  11.902
 5130W        W69063  28.056  28.095  10.423
 5131W        W69064  25.176  30.574   0.862
 5132W        W69065   1.374  27.158   1.399
 5133W        W69066  11.653   2.314  13.362
 5134W        W69067  36.893  42.332  10.553
 5135W        W69068  42.821  35.940  14.440
 5136W        W69069  43.315  20.226  11.599
 5137W        W69070  27.465   1.958  11.393
 5138W        W69071   0.402   9.733  13.903
 5139W        W69072  43.342   0.494   1.912
 5140W        W69073  29.158  20.692  14.330
 5141W        W69074  20.028  23.116  10.955
 5142W        W69075   0.755  41.529  12.005
 5143W        W69076  30.078   4.883  12.466
 5144W        W69077  34.962  43.946   1.358
 5145W        W69078   9.190  38.037  12.422
 5146W        W69079   1.733  34.082  11.874
 5147W        W69080   9.253  25.624   5.156
 5148W        W69081  18.111  27.456   4.271
 5149W        W69082  12.823  34.929  10.927
 5150W        W69083  28.975  21.134  10.907
 5151W        W69084  16.217   2.749   2.388
 5152W        W69085  10.354  23.509  14.765
 5153W        W69086  23.681   1.317   1.333
 5154W        W69087  24.535   1.857  10.532
 5155W        W69088  20.079  11.183  14.510
 5156W        W69089  13.276  21.237   4.139
 5157W        W69090  32.910  18.294  14.503
 5158W        W69091  21.113  38.969   0.418
 5159W        W69092  13.237  12.614  10.594
 5160W        W69093  13.839  15.600  14.768
 5161W        W69094  18.161  12.139   1.790
 5162W        W69095  20.630  31.492  12.459
 5163W        W69096   0.984   9.304   3.185
 5164W        W69097  28.634  33.559  14.389
 5165W        W69098  29.442  41.019   0.443
 5166W        W69099  36.864  43.994   3.718
 5167W        W69100  22.614  26.098  12.845
 5168W        W69101  27.175  41.985   5.147
 5169W        W69102   1.437   7.208   2.804
 5170W        W69103  24.599  29.989  11.377
 5171W        W69104  13.833  37.471   4.807
 5172W        W69105  28.044  36.913   0.729
 5173W        W69106  14.225  26.617   4.766
 5174W        W69107  39.810   6.771   3.205
 5175W        W69108  29.953  20.631  11.021
 5176W        W69109   0.478  40.340   0.387
 5177W        W69110  32.056  16.596  13.312
 5178W        W69111  26.195  29.962  11.605
 5179W        W69112  14.212   6.724   1.428
 5180W        W69113  39.924  31.476  11.107
 5181W        W69114  35.419  44.303  14.460
 5182W        W69115  20.091  29.165   5.129
 5183W        W69116  36.908  42.991  13.402
 5184W        W69117  30.018  35.082  14.503
 5185W        W69118   6.340  30.506  12.494
 5186W        W69119   6.264  15.732  10.072
 5187W        W69120  11.815  44.864  11.043
 5188W        W69121  35.076  33.444   0.869
 5189W        W69122  41.441  28.984  11.538
 5190W        W69123  34.958   2.751  11.091
 5191W        W69124   3.274  13.625   4.240
 5192W        W69125  16.297  22.093   4.664
 5193W        W69126  40.455  25.631  11.897
 5194W        W69127   9.787  18.633  13.800
 5195W        W69128  25.524   9.655   3.244
 5196W        W69129  15.730   0.961   4.815
 5197W        W69130  13.636  10.840   0.315
 5198W        W69131  21.674   8.366  14.883
 5199W        W69132  43.996  23.623   4.305
 5200W        W69133  28.666  25.579  11.015
 5201W        W69134  11.186  24.184  10.494
 5202W        W69135  18.063  44.894  13.055
 5203W        W69136   5.758  44.930   1.426
 5204W        W69137  14.196  28.025  13.509
 5205W        W69138  10.710  32.966   1.844
 5206W        W69139  17.640  30.010   0.743
 5207W        W69140  24.988   7.824  10.487
 5208W        W69141  36.989  31.998  11.497
 5209W        W69142  24.085  29.667  14.998
 5210W        W69143  37.338  42.360  13.429
 5211W        W69144   7.288  21.124   4.826
 5212W        W69145  15.122  13.170  13.369
 5213W        W69146   5.273  14.221   1.899
 5214W        W69147  29.646  18.566   4.744
 5215W        W69148  17.556  43.011   3.384
 5216W        W69149  16.088  31.101   2.737
 5217W        W69150  31.121  32.560  14.352
 5218W        W69151  19.724   9.284  13.502
 5219W        W69152  31.108  12.657   0.326
 5220W        W69153   5.197  39.058   0.963
 5221W        W69154   6.255  25.965   0.795
 5222W        W69155  14.213  43.840  10.930
 5223W        W69156  33.606  21.562  13.979
 5224W        W69157  29.120  23.673   1.392
 5225W        W69158  20.603  15.711   2.384
 5226W        W69159  37.534  38.906   2.214
 5227W        W69160   5.210  26.579  12.855
 5228W        W69161  21.653   2.275  11.895
 5229W        W69162  33.988   3.238   4.152
 5230W        W69163  42.888  27.136   0.304
 5231W        W69164  40.536  31.926   2.810
 5232W        W69165  22.738  10.332   0.944
 5233W        W69166   1.295  23.989   1.913
 5234W        W69167  26.992  33.094  10.999
 5235W        W69168  24.637  41.327  14.322
 5236W        W69169  27.489  41.918  12.534
 5237W        W69170  42.511  39.862   5.148
 5238W        W69171  27.016  10.784  13.530
 5239W        W69172  18.598   5.294  11.590
 5240W        W69173  14.732  12.175   3.287
 5241W        W69174  13.280   0.845   1.753
 5242W        W69175  14.820   0.797   1.359
 5243W        W69176  20.241   0.298   2.287
 5244W        W69177  11.679  29.083   4.776
 5245W        W69178   5.360  18.160   0.797
 5246W        W69179  21.158  40.307  11.006
 5247W        W69180   2.772  30.431  11.500
 5248W        W69181   8.378  17.143   4.310
 5249W        W69182   1.406   3.823   1.738
 5250W        W69183  15.786  23.159  11.593
 5251W        W69184  44.264  35.359   4.141
 5252W        W69185  27.151  16.707   0.782
 5253W        W69186  25.156   2.411   0.776
 5254W        W69187  14.811   5.403   1.749
 5255W        W69188  35.901  34.574   4.662
 5256W        W69189  27.535  38.493   0.834
 5257W        W69190  17.801  10.305   4.730
 5258W        W69191  30.642  36.906  12.551
 5259W        W69192  40.910  42.402   1.903
 5260W        W69193  30.927   8.396   4.697
 5261W        W69194  16.773  14.215  13.438
 5262W        W69195  24.987  41.953  12.393
 5263W        W69196   9.816  42.525   2.370
 5264W        W69197  43.503  17.772   4.160
 5265W        W69198  30.630   9.810  11.396
 5266W        W69199   7.898   9.769   1.707
 5267W        W69200  44.880   0.940   2.296
 5268W        W69201  30.412  42.413   0.783
 5269W        W69202   1.288  38.521   3.194
 5270W        W69203  26.092  39.052   4.336
 5271W        W69204  15.705  23.985  11.896
 5272W        W69205   5.309   9.354  14.885
 5273W        W69206  38.015  29.059  10.615
 5274W        W69207   9.361  40.362   0.742
 5275W        W69208  32.576  43.824   0.898
 5276W        W69209  33.122  28.099   0.896
 5277W        W69210  42.990  14.819   4.626
 5278W        W69211  20.043  29.553  12.430
 5279W        W69212   0.304  38.052   4.346
 5280W        W69213   2.374  37.898   1.210
 5281W        W69214  42.325   4.228   4.792
 5282W        W69215  23.212  40.480  10.967
 5283W        W69216  36.022  22.706   2.895
 5284W        W69217  19.535   5.197   4.668
 5285W        W69218  41.395   1.736  12.430
 5286W        W69219  37.495   6.245  14.012
 5287W        W69220  42.426   8.658   4.244
 5288W        W69221  29.962   5.780  11.373
 5289W        W69222  42.000  10.699   4.267
 5290W        W69223   1.413   5.719  10.530
 5291W        W69224  23.725  15.317  13.992
 5292W        W69225   9.744  44.940   2.699
 5293W        W69226  15.238  10.330   4.198
 5294W        W69227   1.913  22.726  10.985
 5295W        W69228  34.010  33.115  14.344
 5296W        W69229  13.825   9.206   0.819
 5297W        W69230  11.271  12.843  10.465
 5298W        W69231  21.535  41.929  14.009
 5299W        W69232  37.071  14.750  11.081
 5300W        W69233  30.428   3.329   3.215
 5301W        W69234  14.282  19.069  12.828
 5302W        W69235   7.245   2.405   0.481
 5303W        W69236  24.093   5.345   1.800
 5304W        W69237  43.933  31.128  11.463
 5305W        W69238   2.428  29.094   3.186
 5306W        W69239  31.526  28.182  11.450
 5307W        W69240  42.934  43.476  13.367
 5308W        W69241  16.788   4.400  11.512
 5309W        W69242  44.763  36.464   3.731
 5310W        W69243  17.304   8.836  11.862
 5311W        W69244  12.237  11.700   0.322
 5312W        W69245  30.523  14.817   3.381
 5313W        W69246   0.346  21.685   1.369
 5314W        W69247  13.676   0.276   0.928
 5315W        W69248  14.716   4.877   5.571
 5316W        W69249  18.641  31.494   4.337
 5317W        W69250  16.797  12.124  13.851
 5318W        W69251  44.963  31.534  12.888
 5319W        W69252  11.777   9.879  14.967
 5320W        W69253   6.194  23.204   4.319
 5321W        W69254  40.960  35.074   4.233
 5322W        W69255  12.792  17.772  12.540
 5323W        W69256  42.005   0.926  12.541
 5324W        W69257  40.806  23.696  13.883
 5325W        W69258  18.599  16.607  11.108
 5326W        W69259  38.858  35.858  12.824
 5327W        W69260  26.585  34.524  12.045
 5328W        W69261  25.555  39.987  11.000
 5329W        W69262  22.562  40.898   2.754
 5330W        W69263  42.296  36.442   4.135
 5331W        W69264   5.724  41.878  10.483
 5332W        W69265  32.890  16.210   4.601
 5333W        W69266  28.672   4.406  12.502
 5334W        W69267  22.520   7.303  12.936
 5335W        W69268  18.060   2.738   3.723
 5336W        W69269  24.500  20.544   2.842
 5337W        W69270  24.634  22.156   3.212
 5338W        W69271  13.297   7.732   4.281
 5339W        W69272  35.423  36.039   0.862
 5340W        W69273  27.627   8.662  12.851
 5341W        W69274  39.327   7.198   2.807
 5342W        W69275  11.287   3.942  10.916
 5343W        W69276  34.610  22.204   4.201
 5344W        W69277  40.904  41.501   2.829
 5345W        W69278  37.086  28.046   3.174
 5346W        W69279  16.110  34.426  14.976
 5347W        W69280   1.742  22.013  13.466
 5348W        W69281  26.965  13.311  13.800
 5349W        W69282  41.528   3.737  11.116
 5350W        W69283  30.631  31.003   0.908
 5351W        W69284  37.560  25.168   4.708
 5352W        W69285  24.639   3.436   3.697
 5353W        W69286  24.999   1.751   3.253
 5354W        W69287  34.116   2.361   3.848
 5355W        W69288  38.028  21.211  12.012
 5356W        W69289  24.573  38.384   3.763
 5357W        W69290  30.438  39.452   4.696
 5358W        W69291  18.724  10.206   0.408
 5359W        W69292  35.519  33.573  10.618
 5360W        W69293  18.686   8.203  12.017
 5361W        W69294  18.247  21.060  10.505
 5362W        W69295   6.406  27.671  12.090
 5363W        W69296  31.904  30.971  13.538
 5364W        W69297  31.930   6.836   2.687
 5365W        W69298  44.955  30.927  12.464
 5366W        W69299   1.804   7.840   3.639
 5367W        W69300  37.992  43.834   1.274
 5368W        W69301  40.837  41.499  11.057
 5369W        W69302   9.244  30.651  14.399
 5370W        W69303  26.968  42.357   5.661
 5371W        W69304  26.602  18.237   3.216
 5372W        W69305  36.868  41.874   2.184
 5373W        W69306  13.616  43.355  13.976
 5374W        W69307   6.277  40.969   2.187
 5375W        W69308  22.700  15.276   1.695
 5376W        W69309  39.943  40.456   0.360
 5377W        W69310  17.697  40.961   5.104
 5378W        W69311  13.630  32.109   0.885
 5379W        W69312  36.515  18.675   3.156
 5380W        W69313   6.885  44.475   1.754
 5381W        W69314   6.389  40.491   4.114
 5382W        W69315  41.808  12.298   1.426
 5383W        W69316  36.914  10.827  13.874
 5384W        W69317  13.660  31.434  10.963
 5385W        W69318  40.362   6.697   4.622
 5386W        W69319  36.477  35.980  13.517
 5387W        W69320  22.590  31.458  10.086
 5388W        W69321  33.933  22.100   3.658
 5389W        W69322   5.863  31.558  11.908
 5390W        W69323   2.819  32.126  12.848
 5391W        W69324   0.347  14.755  12.567
 5392W        W69325  13.322  42.032  13.434
 5393W        W69326  23.554   6.858   1.829
 5394W        W69327   4.374  39.906  12.517
 5395W        W69328  29.487  10.735   3.820
 5396W        W69329  23.591   4.342  13.018
 5397W        W69330   7.232  44.443   3.229
 5398W        W69331  42.368   5.687  12.475
 5399W        W69332  39.886   3.761   4.242
 5400W        W69333  21.098  24.647  14.463
 5401W        W69334  32.909  26.180   1.221
 5402W        W69335  23.167   6.223   4.258
 5403W        W69336  23.226  23.683  11.580
 5404W        W69337   1.376  25.123   3.810
 5405W        W69338   7.745  37.338  12.560
 5406W        W69339  34.506  34.069   1.343
 5407W        W69340  44.951  35.864   2.216
 5408W        W69341   1.970  20.742  10.526
 5409W        W69342  25.085  29.512   4.767
 5410W        W69343  25.616   1.428   1.899
 5411W        W69344  34.607  37.865   0.757
 5412W        W69345  35.055  43.299  12.444
 5413W        W69346  26.687  32.587  11.517
 5414W        W69347  33.931  23.494   3.189
 5415W        W69348   4.309  14.675  12.934
 5416W        W69349  31.118  22.132  11.384
 5417W        W69350  24.643  16.109   2.288
 5418W        W69351  21.142  11.763   3.259
 5419W        W69352  12.244  19.542  14.983
 5420W        W69353  20.648   5.837  12.544
 5421W        W69354   2.925  11.260   3.651
 5422W        W69355  22.062  22.132  14.296
 5423W        W69356  19.549  10.752  10.510
 5424W        W69357  19.192  17.762   1.231
 5425W        W69358  44.943   0.744   3.349
 5426W        W69359   0.755  30.482  14.949
 5427W        W69360   0.978  18.643   2.834
 5428W        W69361  38.401  18.253  13.841
 5429W        W69362  14.783  12.312   3.630
 5430W        W69363  36.490  24.626  11.999
 5431W        W69364  21.738  27.115   3.638
 5432W        W69365  40.934   0.343   4.227
 5433W        W69366   1.286   6.401   2.284
 5434W        W69367  37.551  36.527  13.795
 5435W        W69368  26.068  30.570   4.750
 5436W        W69369  36.533  29.159  11.569
 5437W        W69370  30.551  22.665   1.707
 5438W        W69371  23.519  31.017  12.564
 5439W        W69372  14.286  12.795   3.335
 5440W        W69373   9.742  28.938   4.749
 5441W        W69374  26.003  10.825   3.757
 5442W        W69375  11.128  15.678   2.184
 5443W        W69376  33.473  14.810  11.569
 5444W        W69377  42.459   7.331   1.894
 5445W        W69378  36.859  43.831  14.485
 5446W        W69379   5.283  28.576   1.424
 5447W        W69380  31.446   6.406  14.901
 5448W        W69381  22.098   4.390   2.714
 5449W        W69382  19.688  24.718  12.429
 5450W        W69383  14.619  32.574   2.835
 5451W        W69384  19.270  37.548  11.474
 5452W        W69385  34.457  15.738  14.974
 5453W        W69386  40.363   4.386   3.806
 5454W        W69387  42.949  37.887   0.944
 5455W        W69388  34.875  28.447  13.826
 5456W        W69389   9.288  14.176   4.636
 5457W        W69390  37.550   1.754   3.787
 5458W        W69391  14.183  38.348   1.929
 5459W        W69392   6.265   1.475   0.808
 5460W        W69393  41.326  31.975   0.270
 5461W        W69394   5.319  34.912   4.809
 5462W        W69395  25.176  12.779  12.448
 5463W        W69396  26.640  33.894   4.138
 5464W        W69397  29.150  26.124   4.814
 5465W        W69398   9.320  13.719   2.834
 5466W        W69399  30.628   7.683   0.387
 5467W        W69400  12.258  42.345   2.886
 5468W        W69401  12.784  17.711  13.418
 5469W        W69402  16.632  27.147  11.108
 5470W        W69403   5.370  17.744  11.409
 5471W        W69404  26.697  21.242  10.509
 5472W        W69405  33.915  19.278   0.861
 5473W        W69406   0.400  20.542  14.285
 5474W        W69407  23.010  31.018   4.153
 5475W        W69408  18.636  33.589  10.518
 5476W        W69409   9.862  15.674  11.541
 5477W        W69410   2.781  11.859  12.839
 5478W        W69411  22.022  23.565   1.419
 5479W        W69412  24.063  18.080   0.344
 5480W        W69413  42.863  44.382  10.926
 5481W        W69414   5.860  42.994   3.727
 5482W        W69415  20.083  14.727   2.743
 5483W        W69416  17.304  33.990   2.363
 5484W        W69417  15.824  31.076   4.695
 5485W        W69418   3.401  37.397  10.981
 5486W        W69419  42.868  35.603   2.839
 5487W        W69420  18.723  22.536  10.157
 5488W        W69421  17.783  40.501  10.118
 5489W        W69422  24.091  14.239   2.897
 5490W        W69423  30.413  24.723  13.438
 5491W        W69424  14.279   5.788  12.828
 5492W        W69425  44.484   5.776  13.791
 5493W        W69426   9.331  37.390   0.455
 5494W        W69427  14.735   4.910  12.925
 5495W        W69428  34.598   9.809  13.443
 5496W        W69429  25.038  34.378  13.451
 5497W        W69430   1.785   9.251   1.839
 5498W        W69431  13.633  27.560   2.258
 5499W        W69432  15.139  36.068  14.458
 5500W        W69433   6.695  36.050  12.363
 5501W        W69434   6.678  12.208   1.353
 5502W        W69435   3.320  10.758  14.885
 5503W        W69436   6.357  11.785   0.819
 5504W        W69437  17.266  34.451   3.699
 5505W        W69438   7.270  30.064   0.804
 5506W        W69439  38.394  41.439   4.770
 5507W        W69440  41.865   7.756  11.072
 5508W        W69441   3.434  30.025   0.420
 5509W        W69442   0.872  24.711   1.726
 5510W        W69443  25.084  31.035  10.483
 5511W        W69444  41.501  31.024  11.123
 5512W        W69445  12.150  39.063  11.077
 5513W        W69446  36.520  15.198  14.792
 5514W        W69447  19.568  32.504  12.499
 5515W        W69448  12.697  23.648  10.431
 5516W        W69449   1.252   8.196   1.238
 5517W        W69450  10.784  33.002   2.898
 5518W        W69451   9.768   9.302  14.917
 5519W        W69452  20.269   4.774  10.540
 5520W        W69453  28.608   4.240   0.870
 5521W        W69454  17.236   7.852   2.682
 5522W        W69455  41.827  20.149  12.015
 5523W        W69456  22.169  23.050  11.074
 5524W        W69457  18.638  35.367   4.248
 5525W        W69458  18.229  41.999  13.904
 5526W        W69459   6.842  10.713  13.506
 5527W        W69460  20.532  31.568   0.365
 5528W        W69461  23.542  34.448   0.897
 5529W        W69462  13.791  20.671  13.811
 5530W        W69463  36.058   4.854  12.973
 5531W        W69464  13.227   7.192  12.360
 5532W        W69465  34.958  34.559   3.229
 5533W        W69466  31.635  13.750   3.772
 5534W        W69467  30.071  16.237  10.598
 5535W        W69468  13.311  41.397  14.470
 5536W        W69469   2.437   5.414   1.839
 5537W        W69470  23.643  19.271   2.245
 5538W        W69471  43.769  20.079   2.673
 5539W        W69472  19.043  19.746   0.321
 5540W        W69473  42.010  43.442   1.417
 5541W        W69474  11.356  12.359   2.692
 5542W        W69475  40.438  13.730   0.456
 5543W        W69476   6.423   1.923  13.490
 5544W        W69477  42.782  39.424  11.859
 5545W        W69478  21.230  34.099  11.999
 5546W        W69479   6.259  11.169   1.744
 5547W        W69480  17.647  33.508  14.470
 5548W        W69481   2.465  10.262  14.894
 5549W        W69482   5.310  17.619  11.032
 5550W        W69483  21.749  43.821   2.854
 5551W        W69484  21.703  20.639   0.788
 5552W        W69485  10.714   6.245   1.906
 5553W        W69486  27.027  36.401   2.236
 5554W        W69487  25.059  32.420  10.903
 5555W        W69488  42.833   6.684  11.392
 5556W        W69489  43.932   8.728  14.434
 5557W        W69490  14.118   8.684   2.782
 5558W        W69491  20.622   1.917  10.923
 5559W        W69492   7.373  28.489   2.795
 5560W        W69493  10.297  41.322   4.208
 5561W        W69494  30.440  28.077  14.509
 5562W        W69495   7.240  38.844   3.763
 5563W        W69496   1.935  31.914   3.672
 5564W        W69497  20.735  11.165  13.939
 5565W        W69498  22.647  22.724   1.904
 5566W        W69499  28.478  18.654   2.183
 5567W        W69500  36.471  33.979  10.469
 5568W        W69501  16.229  32.622  14.280
 5569W        W69502  42.460  32.496   3.805
 5570W        W69503   4.300  29.610   0.299
 5571W        W69504  30.604  37.970  12.940
 5572W        W69505  16.790  12.356   0.330
 5573W        W69506  33.465  12.166   0.417
 5574W        W69507  14.274  17.266  14.277
 5575W        W69508  20.617  28.463   3.253
 5576W        W69509  16.592   3.866  11.093
 5577W        W69510  38.076   0.745   2.833
 5578W        W69511  24.550  31.565  11.419
 5579W        W69512   0.930  30.990   3.349
 5580W        W69513  19.197  43.488   2.860
 5581W        W69514   8.368  32.434  10.983
 5582W        W69515   9.787  38.859   4.763
 5583W        W69516   4.400  11.632  13.873
 5584W        W69517   9.331  36.457   2.389
 5585W        W69518  25.043  27.515  12.411
 5586W        W69519   9.690  30.104  11.479
 5587W        W69520  37.390  22.615  10.572
 5588W        W69521  39.366  37.386  14.942
 5589W        W69522  16.303  32.445  10.530
 5590W        W69523  14.312  42.344   2.341
 5591W        W69524  21.728  39.916  14.827
 5592W        W69525  34.068  40.322  11.035
 5593W        W69526   9.385  27.453  12.385
 5594W        W69527  39.945  39.332  12.931
 5595W        W69528  22.683   5.438  14.954
 5596W        W69529   6.343  22.209  10.974
 5597W        W69530  39.048  44.909   3.712
 5598W        W69531  23.024  33.003  10.994
 5599W        W69532  19.109  43.914  10.502
 5600W        W69533  28.520  14.609  11.561
 5601W        W69534  30.154  25.481   0.943
 5602W        W69535  25.601   9.272   0.289
 5603W        W69536  29.063  14.137  13.504
 5604W        W69537   1.453  39.859   3.810
 5605W        W69538   3.806  16.805   4.131
 5606W        W69539  42.435  12.651   0.933
 5607W        W69540  39.043  21.101  13.494
 5608W        W69541   6.842  41.432  11.959
 5609W        W69542   4.418  32.133   4.699
 5610W        W69543  19.613   9.240   0.297
 5611W        W69544  14.184  28.615   4.174
 5612W        W69545  42.903   1.954  14.760
 5613W        W69546   4.879  33.578  12.343
 5614W        W69547  40.387  37.949   4.721
 5615W        W69548   8.674  19.248  12.448
 5616W        W69549  44.921   1.266   4.641
 5617W        W69550  32.087   5.779   0.862
 5618W        W69551  17.133  30.977  12.349
 5619W        W69552  41.368   0.946  13.442
 5620W        W69553  40.372  35.410  11.888
 5621W        W69554  17.235   4.756  13.355
 5622W        W69555  29.587  25.178  12.905
 5623W        W69556  20.709  41.497  12.524
 5624W        W69557  44.761  14.600  13.852
 5625W        W69558  13.600  18.586   0.401
 5626W        W69559  22.552  28.017  10.559
 5627W        W69560  24.478  28.173   1.870
 5628W        W69561  24.040  22.583   0.432
 5629W        W69562  19.604  13.186  14.311
 5630W        W69563  33.057  39.935   1.334
 5631W        W69564  39.814  41.958   0.894
 5632W        W69565  44.906  36.542   4.606
 5633W        W69566  43.819  17.659   4.732
 5634W        W69567  36.907  16.679   3.693
 5635W        W69568   1.917   5.928  13.989
 5636W        W69569   2.809  11.782  12.488
 5637W        W69570  44.990  25.177   1.734
 5638W        W69571  32.019   4.942   1.436
 5639W        W69572  24.122  32.132   4.621
 5640W        W69573  30.022  19.664   4.129
 5641W        W69574  16.806  39.369   1.300
 5642W        W69575  17.640  11.264   4.213
 5643W        W69576  22.536  19.669  11.466
 5644W        W69577  25.597  10.676  13.513
 5645W        W69578  24.095   6.418  13.459
 5646W        W69579  40.308   5.378  12.857
 5647W        W69580  38.451  39.369   2.354
 5648W        W69581  28.500  17.303  11.006
 5649W        W69582   8.877  36.847   4.603
 5650W        W69583  11.828   3.451  11.927
 5651W        W69584   2.943  19.545   0.345
 5652W        W69585  20.739  39.377   4.114
 5653W        W69586  16.075  32.558  14.822
 5654W        W69587  17.174  40.547   4.156
 5655W        W69588  29.461  12.176  10.900
 5656W        W69589  44.338  32.593   2.318
 5657W        W69590  41.824  43.286   2.730
 5658W        W69591  33.085   0.435   1.439
 5659W        W69592   6.386  12.629   4.748
 5660W        W69593  21.212  15.700  12.470
 5661W        W69594   2.376  20.035   0.887
 5662W        W69595   2.863  30.082  12.475
 5663W        W69596  11.214  14.126  14.510
 5664W        W69597  10.291  43.773   5.238
 5665W        W69598   1.796  11.849   0.253
 5666W        W69599  17.151  15.603   4.707
 5667W        W69600  12.315  19.202   2.308
 5668W        W69601  23.108  35.459  10.898
 5669W        W69602  14.265  27.115  11.023
 5670W        W69603  20.113  41.515   4.346
 5671W        W69604  23.707  19.695  11.413
 5672W        W69605   3.449   3.739  11.420
 5673W        W69606  40.959  25.526   1.253
 5674W        W69607  13.638  16.748   0.273
 5675W        W69608   4.377  20.144  14.430
 5676W        W69609   4.746  29.157   5.224
 5677W        W69610  19.566  40.404  12.342
 5678W        W69611  40.801  12.762  14.465
 5679W        W69612  32.397  16.175  12.351
 5680W        W69613  34.040  35.508   2.225
 5681W        W69614   9.250  12.783   0.321
 5682W        W69615  25.497   8.769   4.291
 5683W        W69616   6.428  42.301  14.764
 5684W        W69617  38.026  16.578  12.892
 5685W        W69618  30.488  13.615   4.271
 5686W        W69619  33.535  23.559   0.361
 5687W        W69620  20.273  15.254  11.101
 5688W        W69621  38.003  40.425   4.302
 5689W        W69622  26.131  33.042  11.551
 5690W        W69623  37.834   6.199  13.058
 5691W        W69624  39.980   5.746  11.866
 5692W        W69625  21.118   1.947  10.038
 5693W        W69626   3.823  14.207  11.390
 5694W        W69627  15.177  39.824   1.420
 5695W        W69628   8.191   7.845  12.062
 5696W        W69629  21.628  33.567  11.569
 5697W        W69630   8.820  27.082  11.035
 5698W        W69631  12.265  11.701  12.826
 5699W        W69632  31.123  44.272   9.941
 5700W        W69633  22.730  32.451   4.245
 5701W        W69634  42.413  35.067  11.022
 5702W        W69635   8.845  44.480   5.214
 5703W        W69636  30.127  14.698   4.270
 5704W        W69637  23.173  37.355   3.778
 5705W        W69638   9.751  13.661  13.426
 5706W        W69639  39.842   2.429   3.700
 5707W        W69640  38.494   8.318   0.428
 5708W        W69641  33.410  30.564   3.249
 5709W        W69642  44.927  11.186  12.840
 5710W        W69643  35.387  11.637   0.740
 5711W        W69644   5.312   1.446  14.939
 5712W        W69645  18.106  40.438  13.907
 5713W        W69646  32.504  10.250  12.350
 5714W        W69647  44.916  42.817   1.887
 5715W        W69648  44.809  12.357  12.848
 5716W        W69649   5.780  42.955   4.796
 5717W        W69650   8.272  17.785   1.283
 5718W        W69651  38.968  24.126   4.175
 5719W        W69652  41.449   4.321  13.856
 5720W        W69653  18.700   0.857   2.839
 5721W        W69654  32.627  43.318   0.360
 5722W        W69655  30.159  23.227  13.332
 5723W        W69656  21.575   1.771   1.851
 5724W        W69657   5.797  11.654  10.559
 5725W        W69658  30.439  36.409   2.705
 5726W        W69659   7.232  23.006  12.878
 5727W        W69660   6.830  12.842   2.824
 5728W        W69661  34.524  23.111   4.188
 5729W        W69662  16.667  20.668   0.273
 5730W        W69663  26.647  42.944  11.403
 5731W        W69664  13.144   7.302   2.218
 5732W        W69665   3.874  20.674  13.453
 5733W        W69666  21.186   2.305  14.014
 5734W        W69667  25.639  22.175  14.282
 5735W        W69668  21.720  26.559   9.461
 5736W        W69669  16.133   8.772   4.629
 5737W        W69670  31.970   7.221   4.671
 5738W        W69671   0.393  32.623   4.217
 5739W        W69672  42.799  31.959   5.224
 5740W        W69673   3.395  26.537   2.678
 5741W        W69674  39.490  41.844  14.427
 5742W        W69675  27.672  25.641   4.203
 5743W        W69676  44.298  15.659   2.238
 5744W        W69677   5.247  20.210  11.550
 5745W        W69678  19.669  13.734  10.423
 5746W        W69679   9.878  35.537  12.352
 5747W        W69680   5.324  38.967  13.370
 5748W        W69681  42.021   2.731  13.497
 5749W        W69682   4.289  39.983   0.928
 5750W        W69683   3.298   9.698  11.858
 5751W        W69684  11.272  35.011   0.398
 5752W        W69685  36.877  41.809  12.062
 5753W        W69686  13.678   6.366   3.759
 5754W        W69687  13.112   1.948   4.696
 5755W        W69688  27.617  26.989  14.342
 5756W        W69689  25.610  37.467  14.498
 5757W        W69690   8.192  19.067  13.481
 5758W        W69691  26.681  43.446   0.428
 5759W        W69692  42.997  10.779   1.803
 5760W        W69693  20.765  23.670   1.772
 5761W        W69694  40.455  20.612  14.416
 5762W        W69695  20.169   6.781  11.548
 5763W        W69696   0.877  17.622  14.331
 5764W        W69697   3.817  19.146  10.459
 5765W        W69698  42.903  28.566  13.464
 5766W        W69699  44.008  20.527   0.910
 5767W        W69700  12.352  31.916   0.360
 5768W        W69701  13.160  38.330  11.383
 5769W        W69702   0.483  40.425  13.547
 5770W        W69703  40.435  27.455  10.517
 5771W        W69704  27.496  24.478   2.230
 5772W        W69705  10.698  30.463   4.829
 5773W        W69706  10.730  39.540   3.660
 5774W        W69707  34.559   8.768   0.847
 5775W        W69708  22.660  29.668   3.861
 5776W        W69709  22.120  12.694  13.851
 5777W        W69710  43.496  25.153   5.286
 5778W        W69711  25.647  14.735  11.551
 5779W        W69712  27.092  32.915   0.340
 5780W        W69713  17.621  10.647   4.209
 5781W        W69714   3.754  28.561   3.331
 5782W        W69715  16.291   3.321  12.088
 5783W        W69716  15.686  39.003   3.858
 5784W        W69717   1.952  10.838   0.955
 5785W        W69718  38.915   2.907  14.946
 5786W        W69719  30.033  16.582   3.866
 5787W        W69720  25.610   9.745   1.796
 5788W        W69721  14.271  38.437  14.375
 5789W        W69722  15.578   1.315  10.448
 5790W        W69723  40.416   9.321  11.401
 5791W        W69724  37.363   1.452  11.895
 5792W        W69725  26.075  20.169  10.603
 5793W        W69726   5.199  26.172   4.825
 5794W        W69727  23.644  24.154   1.904
 5795W        W69728   9.276   4.353   1.834
 5796W        W69729  35.890  17.719  12.905
 5797W        W69730  31.521   2.888  12.069
 5798W        W69731  33.007  27.526  13.790
 5799W        W69732  40.900   2.765  11.502
 5800W        W69733   5.355   8.393  13.932
 5801W        W69734  26.069  11.707  12.468
 5802W        W69735  18.760  40.346   4.214
 5803W        W69736  44.499  31.588  14.916
 5804W        W69737  11.778   6.833   0.354
 5805W        W69738  31.490  41.879  13.057
 5806W        W69739  38.030  34.540   1.367
 5807W        W69740  43.970  24.203  13.431
 5808W        W69741  23.206  18.620  10.460
 5809W        W69742  39.844  22.579   1.784
 5810W        W69743  14.162  13.204   4.172
 5811W        W69744  17.557  23.564   3.264
 5812W        W69745  36.351  34.037   0.311
 5813W        W69746  24.704   2.410  11.598
 5814W        W69747  15.261  35.975  10.442
 5815W        W69748  39.014  40.328   3.870
 5816W        W69749  26.029  40.997   1.842
 5817W        W69750  11.672  23.519   0.846
 5818W        W69751  16.632  39.495  11.447
 5819W        W69752   9.885  10.212   2.878
 5820W        W69753  14.787  32.035   1.729
 5821W        W69754  21.655   9.361   1.243
 5822W        W69755  43.470  21.166  10.558
 5823W        W69756  33.565  13.248  12.902
 5824W        W69757  19.051   0.745  12.887
 5825W        W69758   2.253  32.406  12.058
 5826W        W69759  26.010   0.850   0.728
 5827W        W69760  40.922   5.861   3.755
 5828W        W69761  23.595  18.146  11.028
 5829W        W69762   1.378   8.668  13.794
 5830W        W69763  34.412   6.910   3.276
 5831W        W69764  19.754   8.783  11.121
 5832W        W69765   3.752   3.393  14.444
 5833W        W69766  19.098  30.951   2.893
 5834W        W69767  10.863  32.984  14.958
 5835W        W69768  18.171  11.249   4.318
 5836W        W69769  43.400  13.162  13.394
 5837W        W69770   6.745  33.579  14.495
 5838W        W69771   2.842  40.957   3.686
 5839W        W69772  13.669  22.643   2.810
 5840W        W69773  23.161   3.711  14.329
 5841W        W69774  37.917  38.955  11.872
 5842W        W69775   9.355  41.835  14.802
 5843W        W69776  25.176  32.925  14.793
 5844W        W69777  33.959  27.972   3.762
 5845W        W69778  34.393  21.744   1.857
 5846W        W69779  16.741  10.704   0.261
 5847W        W69780  13.748   3.836  11.376
 5848W        W69781  19.583  32.410  13.056
 5849W        W69782  33.079  18.610  11.024
 5850W        W69783  20.647  23.124   0.440
 5851W        W69784  42.343  35.867  10.492
 5852W        W69785   3.442  17.072   3.813
 5853W        W69786  14.130  21.579  14.860
 5854W        W69787   1.331   4.375   3.849
 5855W        W69788  27.137  30.474  12.082
 5856W        W69789  17.723   1.266  12.346
 5857W        W69790  39.521  35.521   3.718
 5858W        W69791   9.822   9.383  11.507
 5859W        W69792   9.239   8.260  10.406
 5860W        W69793  35.024  33.946   1.773
 5861W        W69794  34.591  39.812   3.847
 5862W        W69795  21.710  15.599  13.935
 5863W        W69796  22.691   8.794  14.828
 5864W        W69797  31.627  19.192   2.819
 5865W        W69798  24.700  39.911  12.564
 5866W        W69799  25.469  35.935  13.363
 5867W        W69800  13.202  37.998  13.863
 5868W        W69801  28.987  43.410   0.772
 5869W        W69802  14.157  26.617  13.824
 5870W        W69803  35.937  42.309   3.821
 5871W        W69804   6.397  23.992   1.770
 5872W        W69805  38.501  24.479   3.651
 5873W        W69806   3.377  36.566   3.182
 5874W        W69807   5.262  41.982  11.119
 5875W        W69808   1.390  38.463   4.724
 5876W        W69809  26.541   7.417   1.885
 5877W        W69810  16.638  28.032   1.279
 5878W        W69811  19.572  36.593   1.400
 5879W        W69812  42.870  14.594   5.142
 5880W        W69813  31.605  43.769   1.856
 5881W        W69814   4.248   3.834   2.826
 5882W        W69815  10.325  25.689   4.778
 5883W        W69816  12.197  44.414  13.340
 5884W        W69817  34.599  40.498  12.950
 5885W        W69818  10.858   4.753  12.975
 5886W        W69819  23.699  11.340  11.999
 5887W        W69820  34.045  35.108  14.467
 5888W        W69821  18.546  44.754  14.002
 5889W        W69822  41.392  41.508  10.472
 5890W        W69823  23.086  20.244  12.507
 5891W        W69824  31.431   4.374  14.989
 5892W        W69825  29.424   8.768  14.890
 5893W        W69826  30.504  41.367   1.721
 5894W        W69827  28.023  39.812   3.779
 5895W        W69828  17.219  14.198   3.863
 5896W        W69829   2.921  34.481   0.412
 5897W        W69830  38.330   2.261  13.847
 5898W        W69831   1.917  44.484  12.481
 5899W        W69832  17.142  19.565   0.932
 5900W        W69833  19.586  23.543   1.282
 5901W        W69834   5.384  35.967   4.221
 5902W        W69835  14.621   9.870   0.799
 5903W        W69836  39.011  43.892   2.755
 5904W        W69837   1.318  11.757  10.951
 5905W        W69838  43.863  37.991  12.096
 5906W        W69839   3.718  25.545   4.604
 5907W        W69840  39.326  26.544  13.020
 5908W        W69841  28.620  31.107   4.772
 5909W        W69842  42.486  25.208  13.887
 5910W        W69843  24.577  37.530   4.149
 5911W        W69844  27.497  40.506   3.657
 5912W        W69845  13.308  32.079   1.374
 5913W        W69846  10.365  12.191   1.442
 5914W        W69847  37.946  20.099  14.858
 5915W        W69848  38.831  16.572  13.833
 5916W        W69849  34.884  31.484   0.434
 5917W        W69850  17.301  10.664   4.273
 5918W        W69851  16.777  15.177  13.356
 5919W        W69852  26.032  26.182  12.029
 5920W        W69853  14.180  10.286   1.446
 5921W        W69854  15.758  24.595   3.230
 5922W        W69855  40.401  24.076   3.311
 5923W        W69856  22.600   9.748   1.323
 5924W        W69857   5.816  10.288   0.805
 5925W        W69858  12.158  14.214   4.645
 5926W        W69859   8.804   4.431  12.388
 5927W        W69860  29.434  32.505   1.311
 5928W        W69861  42.492  34.591  12.548
 5929W        W69862  36.938   1.873   0.807
 5930W        W69863  39.467   6.856   4.203
 5931W        W69864  32.107  40.894   0.461
 5932W        W69865  11.147  43.472  12.457
 5933W        W69866  10.295  24.004   3.175
 5934W        W69867  20.526  34.873  14.791
 5935W        W69868   3.266  20.674   0.831
 5936W        W69869   2.394  37.365  12.513
 5937W        W69870   3.776  27.652   1.221
 5938W        W69871  31.596  18.243   4.649
 5939W        W69872  27.946  13.718  12.518
 5940W        W69873  27.585  15.802  14.341
 5941W        W69874  20.537   4.752   3.822
 5942W        W69875  24.591  31.613  14.491
 5943W        W69876  28.649  40.894   0.772
 5944W        W69877  20.209  25.656   4.340
 5945W        W69878  12.758  34.529  14.337
 5946W        W69879  21.105  21.083  10.608
 5947W        W69880  12.346  42.361  12.914
 5948W        W69881  29.653  11.865   4.656
 5949W        W69882  31.108   9.805  13.511
 5950W        W69883  23.161  19.600   0.889
 5951W        W69884   8.757   2.468   1.889
 5952W        W69885  18.243  36.015   0.303
 5953W        W69886  38.986  12.825  11.479
 5954W        W69887  44.897  44.765   3.694
 5955W        W69888  20.211  37.406   3.160
 5956W        W69889   6.411   7.291  14.491
 5957W        W69890  17.256  43.787   1.853
 5958W        W69891  17.723  36.568  11.372
 5959W        W69892   6.402  12.672   2.864
 5960W        W69893   2.407  14.308   4.161
 5961W        W69894  35.052  16.732   0.826
 5962W        W69895  42.808   2.895  14.464
 5963W        W69896  19.060  43.498  11.451
 5964W        W69897  16.620  25.569  14.467
 5965W        W69898  31.955   0.325  11.411
 5966W        W69899  15.615  13.305  12.847
 5967W        W69900  16.224   8.187   1.357
 5968W        W69901  44.975   6.707   4.327
 5969W        W69902  32.061  17.652  11.093
 5970W        W69903  32.940  41.927   2.739
 5971W        W69904  33.424  35.536  12.358
 5972W        W69905  11.266   7.309  10.624
 5973W        W69906  36.062  16.316   2.229
 5974W        W69907  18.706  35.060  10.913
 5975W        W69908   7.892   8.696  13.037
 5976W        W69909  43.312  44.988   0.264
 5977W        W69910  15.314  40.325   0.824
 5978W        W69911  41.917  35.376   2.364
 5979W        W69912   3.269  15.193   0.251
 5980W        W69913  18.199  18.673   4.230
 5981W        W69914   8.201  25.046   0.478
 5982W        W69915  23.671  26.953  13.059
 5983W        W69916  33.449  33.595   4.228
 5984W        W69917  36.521  34.980  14.492
 5985W        W69918   1.358  22.671   2.199
 5986W        W69919  42.442  37.001   3.230
 5987W        W69920  16.691  40.403  14.870
 5988W        W69921   1.857  28.678  10.493
 5989W        W69922  24.114  33.080   3.845
 5990W        W69923  17.563   9.859  12.849
 5991W        W69924  41.855  31.572  14.816
 5992W        W69925  35.860   9.381   2.384
 5993W        W69926  44.837  14.203   3.288
 5994W        W69927   2.403   0.937   0.929
 5995W        W69928  18.568   6.415   1.233
 5996W        W69929  26.670  40.325  10.965
 5997W        W69930  39.915  42.328  14.505
 5998W        W69931  37.410  27.094   3.247
 5999W        W69932  40.326   6.197  11.907
 6000W        W69933  35.566  33.433  14.007
 6001W        W69934  32.123  13.158  14.850
 6002W        W69935  35.936  38.506   0.961
 6003W        W69936  15.799  21.103   2.811
 6004W        W69937  10.213  29.140   0.736
 6005W        W69938  21.526   5.896  13.874
 6006W        W69939  24.007  18.141   2.217
 6007W        W69940  13.324  30.104   3.208
 6008W        W69941  27.066   5.694   0.894
 6009W        W69942   2.725  20.039  14.286
 6010W        W69943   5.300  24.028   1.756
 6011W        W69944  29.625  20.620   2.391
 6012W        W69945  10.874  21.196  11.383
 6013W        W69946  29.043   2.317  14.794
 6014W        W69947  16.129  44.756   3.705
 6015W        W69948  18.173  38.393   2.319
 6016W        W69949   0.788  36.869  13.477
 6017W        W69950  31.005  42.822   1.929
 6018W        W69951   3.342   5.369   5.254
 6019W        W69952  39.434  36.388   4.143
 6020W        W69953  14.691  15.700   3.368
 6021W        W69954  34.433  28.072   3.778
 6022W        W69955  23.151  41.405  11.120
 6023W        W69956   8.754  17.575  14.893
 6024W        W69957  41.337  38.424   4.654
 6025W        W69958  43.930  10.700   3.674
 6026W        W69959  26.537  27.504   2.293
 6027W        W69960   7.897  13.144   2.776
 6028W        W69961  23.492   9.870   5.233
 6029W        W69962  32.005  11.813   4.732
 6030W        W69963  44.403  28.500   4.651
 6031W        W69964  23.117  28.059  11.494
 6032W        W69965  16.697  20.141   9.516
 6033W        W69966  39.900   2.757  10.504
 6034W        W69967  36.061  28.530   2.357
 6035W        W69968   5.773  30.651   2.771
 6036W        W69969  39.017   3.223  12.536
 6037W        W69970  25.201  12.647  13.329
 6038W        W69971  34.872  17.714  11.390
 6039W        W69972  43.960  36.492   3.645
 6040W        W69973  21.251   6.886   3.686
 6041W        W69974  44.883   2.781  13.324
 6042W        W69975   8.208  16.109   2.262
 6043W        W69976   2.823   0.887   1.229
 6044W        W69977  37.862  20.135  12.980
 6045W        W69978   7.252  15.151   3.683
 6046W        W69979  37.970   1.924   1.218
 6047W        W69980  25.629  16.621  11.879
 6048W        W69981  33.880  18.742   4.198
 6049W        W69982  16.101  32.008   2.839
 6050W        W69983  30.478  33.003  12.556
 6051W        W69984  17.098  16.317  11.013
 6052W        W69985  15.165  11.665  14.276
 6053W        W69986  33.576  32.021  12.384
 6054W        W69987   1.385  19.249  12.554
 6055W        W69988  32.923  25.079   2.799
 6056W        W69989  19.629   6.903   2.254
 6057W        W69990   7.320  13.622   1.292
 6058W        W69991  34.985  12.309  13.894
 6059W        W69992  21.655  44.286  14.790
 6060W        W69993  28.513  24.137   2.416
 6061W        W69994  13.765  13.799   0.438
 6062W        W69995   0.835  15.227  10.923
 6063W        W69996  38.491   0.834   0.814
 6064W        W69997  40.851   0.411  14.977
 6065W        W69998  26.039  40.856   3.640
 6066W        W69999  26.193  41.433   0.848
 6067W        W70000  19.253  30.643  12.844
 6068W        W70001   3.766  26.205  12.447
 6069W        W70002   4.862  18.734   2.824
 6070W        W70003  24.493  18.780   3.204
 6071W        W70004  31.924  38.325  13.315
 6072W        W70005  25.086  13.783   4.249
 6073W        W70006   1.250  18.225  13.467
 6074W        W70007  40.799  29.961  14.296
 6075W        W70008   1.339  42.924   1.359
 6076W        W70009  33.934  44.913  12.545
 6077W        W70010  10.316  39.896  12.466
 6078W        W70011  25.043  39.533   3.260
 6079W        W70012  16.626  19.144   3.852
 6080W        W70013  13.655  26.142  10.908
 6081W        W70014  29.060  21.640   1.403
 6082W        W70015  42.516  17.589  12.420
 6083W        W70016   5.326   6.820   0.836
 6084W        W70017   0.318   2.313   1.408
 6085W        W70018  24.039  26.548   4.307
 6086W        W70019  10.677  25.595   4.638
 6087W        W70020  30.965  11.334   2.713
 6088W        W70021  12.656  21.112  10.500
 6089W        W70022   6.256  16.195   0.406
 6090W        W70023  40.837  25.609   2.234
 6091W        W70024  44.007  13.718  13.325
 6092W        W70025   6.231  34.068   3.704
 6093W        W70026   7.856  27.638  14.278
 6094W        W70027  37.932  44.841   4.213
 6095W        W70028  17.076  11.785   3.287
 6096W        W70029  41.860  25.470   0.897
 6097W        W70030  39.351  35.045  10.986
 6098W        W70031  28.107  30.471  13.510
 6099W        W70032   9.350  35.939  10.968
 6100W        W70033   3.335   9.177   1.276
 6101W        W70034  42.309   4.355   3.357
 6102W        W70035  33.467  18.156  14.761
 6103W        W70036  27.579  37.390   1.890
 6104W        W70037  23.049  18.057   4.622
 6105W        W70038  12.142   6.215  12.426
 6106W        W70039  12.668  42.338   4.829
 6107W        W70040  19.736   7.747   1.424
 6108W        W70041  13.809  26.006   2.723
 6109W        W70042  35.912   8.747   4.327
 6110W        W70043  10.242  14.182  12.895
 6111W        W70044  16.744   4.882  12.462
 6112W        W70045  16.720  12.300   1.838
 6113W        W70046   6.892  19.750   4.192
 6114W        W70047   0.866  30.655  10.135
 6115W        W70048   7.709  29.588   1.703
 6116W        W70049   8.754  38.509   3.282
 6117W        W70050  25.044  13.274   2.802
 6118W        W70051  24.483  31.642   1.726
 6119W        W70052  26.508  18.740   1.921
 6120W        W70053  26.555  21.518   4.645
 6121W        W70054  29.606  33.545  14.823
 6122W        W70055  33.497  32.974   4.157
 6123W        W70056  19.101   8.191  14.972
 6124W        W70057  28.629  18.605   1.345
 6125W        W70058  34.992  32.480  10.556
 6126W        W70059  36.524  43.937  14.989
 6127W        W70060  18.097  38.381  13.381
 6128W        W70061  24.508  44.333  10.437
 6129W        W70062  41.816   4.705   4.137
 6130W        W70063  26.003  37.472  13.886
 6131W        W70064   8.876  14.720  11.399
 6132W        W70065  12.122   8.266   2.254
 6133W        W70066  31.586  14.171   3.278
 6134W        W70067   9.710   5.239  10.602
 6135W        W70068  15.263  18.265   2.272
 6136W        W70069  32.421   4.387  12.470
 6137W        W70070  39.548  39.896   1.249
 6138W        W70071   2.232  43.831  10.557
 6139W        W70072   2.382  26.034  12.953
 6140W        W70073  38.483  37.078   1.410
 6141W        W70074   9.866  30.636  14.912
 6142W        W70075   7.185  40.451   1.857
 6143W        W70076  18.783  41.929  12.831
 6144W        W70077  40.538  42.294  13.323
 6145W        W70078  33.537  37.861   1.279
 6146W        W70079   2.293  40.477   2.335
 6147W        W70080  35.062  14.673   1.390
 6148W        W70081  29.941  43.979   2.894
 6149W        W70082  43.454   2.753  10.618
 6150W        W70083  38.075  11.712   2.687
 6151W        W70084  37.367  16.300   2.845
 6152W        W70085  34.048   0.767  14.847
 6153W        W70086  11.642  25.581   4.799
 6154W        W70087  32.558   2.391  12.848
 6155W        W70088  17.555  30.918  11.480
 6156W        W70089  42.848  24.609   1.798
 6157W        W70090  13.338   0.831   4.682
 6158W        W70091  35.533  33.102   2.365
 6159W        W70092  41.935   3.775   2.281
 6160W        W70093  29.999  21.718   3.179
 6161W        W70094  13.221  37.442  12.562
 6162W        W70095  41.495   5.242   4.322
 6163W        W70096  19.284  28.986   9.512
 6164W        W70097  19.149  39.891   2.200
 6165W        W70098   9.857  17.654   1.308
 6166W        W70099  43.904  17.194  10.578
 6167W        W70100  12.842  13.308   3.290
 6168W        W70101  25.964  36.451  12.096
 6169W        W70102  33.399   5.434   0.279
 6170W        W70103  13.274  10.349   5.224
 6171W        W70104  33.929   7.811  11.403
 6172W        W70105  44.902  26.062   4.329
 6173W        W70106  40.429  19.774  10.610
 6174W        W70107  33.994   5.219  11.885
 6175W        W70108  43.309   7.204   3.846
 6176W        W70109  18.170  39.053   0.830
 6177W        W70110  15.192  18.210   1.367
 6178W        W70111  34.005  15.626  11.064
 6179W        W70112  35.402  28.118   0.269
 6180W        W70113   3.425   3.293   0.446
 6181W        W70114  24.686  18.668   4.180
 6182W        W70115  40.517  23.620   1.292
 6183W        W70116  33.530  18.768   2.281
 6184W        W70117  13.724  43.482  14.882
 6185W        W70118   4.769   8.247  11.939
 6186W        W70119  28.127  28.646  12.389
 6187W        W70120  27.613  19.250  13.885
 6188W        W70121  15.326   5.930  12.942
 6189W        W70122  22.222  37.378   0.781
 6190W        W70123  28.507  44.890   4.838
 6191W        W70124  21.659  15.171  14.852
 6192W        W70125  15.311   8.239   4.340
 6193W        W70126  26.535  21.032   1.843
 6194W        W70127  23.724  33.969  11.919
 6195W        W70128  42.303  36.921   3.838
 6196W        W70129  15.150   5.314  13.830
 6197W        W70130  44.385  17.801  14.407
 6198W        W70131  42.317  27.044   3.254
 6199W        W70132  41.508  19.182  13.008
 6200W        W70133  20.696   6.711   3.368
 6201W        W70134  33.986  17.184   2.198
 6202W        W70135  40.815  27.451   2.337
 6203W        W70136   6.422  32.592  14.965
 6204W        W70137   2.802  14.615   5.746
 6205W        W70138  26.001   3.757   1.758
 6206W        W70139   8.312  44.387  11.414
 6207W        W70140   1.804  26.168  14.497
 6208W        W70141  16.217  15.243  11.582
 6209W        W70142   1.748  27.633   1.762
 6210W        W70143  16.765   5.713  14.803
 6211W        W70144  26.685  16.149   4.647
 6212W        W70145  40.999  44.415  14.501
 6213W        W70146  31.126  32.071   3.805
 6214W        W70147  33.431  13.820  13.907
 6215W        W70148  26.191   5.741  10.895
 6216W        W70149  39.463  37.570  12.877
 6217W        W70150  25.126  39.980   1.911
 6218W        W70151  15.316  39.868   2.811
 6219W        W70152  44.957  41.973   0.402
 6220W        W70153   7.195  24.503   3.789
 6221W        W70154  34.090  42.463  10.902
 6222W        W70155  23.656  29.121  12.030
 6223W        W70156  21.652  23.648   3.732
 6224W        W70157   4.438  31.999   1.412
 6225W        W70158  33.119   8.852   2.351
 6226W        W70159  24.582  28.971   0.759
 6227W        W70160  39.456  31.566  14.001
 6228W        W70161  26.177  19.069  11.928
 6229W        W70162  16.310  17.243  14.506
 6230W        W70163  19.064   4.863   2.206
 6231W        W70164  24.130  30.016  12.836
 6232W        W70165  20.061   8.682   3.294
 6233W        W70166  29.927   8.176   1.768
 6234W        W70167  11.168  27.617   3.278
 6235W        W70168  35.395  44.896  13.936
 6236W        W70169  38.905  27.116   4.137
 6237W        W70170  42.789  43.334   0.936
 6238W        W70171  29.471  39.327   4.352
 6239W        W70172   4.892  39.882  14.413
 6240W        W70173   8.373  43.499   4.202
 6241W        W70174  42.908   0.905   0.370
 6242W        W70175  21.218  30.485  12.502
 6243W        W70176  18.245   2.324   1.710
 6244W        W70177  22.567   3.755  13.510
 6245W        W70178   4.419   8.329   1.230
 6246W        W70179  36.581  12.133   1.374
 6247W        W70180  19.090  11.298  13.360
 6248W        W70181  39.992   2.864   2.697
 6249W        W70182  13.650  32.009   2.717
 6250W        W70183  20.765  38.058   0.285
 6251W        W70184  39.837   9.698   0.738
 6252W        W70185  34.442  22.081  11.514
 6253W        W70186  29.024  12.315  14.441
 6254W        W70187   4.268  34.975   2.229
 6255W        W70188  36.962  14.645  12.862
 6256W        W70189  11.152  11.185   1.821
 6257W        W70190  37.521  39.386  14.849
 6258W        W70191  17.188  22.706   2.418
 6259W        W70192   1.279  16.811   0.347
 6260W        W70193  29.473   9.760   0.855
 6261W        W70194  25.209   6.377   1.254
 6262W        W70195   9.332   5.872   0.315
 6263W        W70196  10.283  44.962   1.749
 6264W        W70197  14.773   3.440  10.423
 6265W        W70198   9.755  32.546   4.754
 6266W        W70199   2.445  35.572   1.360
 6267W        W70200  37.893   7.776  11.405
 6268W        W70201   9.867   7.744  11.463
 6269W        W70202  36.482  22.146   0.483
 6270W        W70203  34.867  31.922   2.299
 6271W        W70204  19.659  41.821   2.238
 6272W        W70205   5.284  41.013  11.439
 6273W        W70206  37.862  40.334  11.007
 6274W        W70207  29.972  44.392   4.239
 6275W        W70208  24.011   8.843  10.579
 6276W        W70209  41.999  31.940   4.750
 6277W        W70210  24.200  28.661  11.612
 6278W        W70211   9.818  24.593  13.855
 6279W        W70212  42.361  40.308   4.721
 6280W        W70213  40.474  28.966  11.604
 6281W        W70214  24.695  31.943  12.923
 6282W        W70215  13.302   4.417   3.668
 6283W        W70216  44.467  13.831  12.448
 6284W        W70217   6.191  33.477   2.236
 6285W        W70218  28.593  30.105  12.473
 6286W        W70219   2.853  42.861  11.891
 6287W        W70220  44.864  37.394   3.197
 6288W        W70221  35.865  25.185  11.074
 6289W        W70222  15.254  17.143   0.299
 6290W        W70223  16.132   7.883   0.743
 6291W        W70224   4.383   9.375   0.896
 6292W        W70225  29.977  31.625   1.216
 6293W        W70226  10.144   1.442   1.778
 6294W        W70227   8.366  22.675   2.341
 6295W        W70228  15.202  31.482   4.682
 6296W        W70229  32.966  22.683  14.760
 6297W        W70230  16.145  13.770  13.474
 6298W        W70231  10.347  34.464   0.949
 6299W        W70232  29.945   1.820   0.358
 6300W        W70233  12.726  11.722  13.805
 6301W        W70234  25.492  12.745  13.499
 6302W        W70235   7.271   5.741  11.904
 6303W        W70236  17.672  37.014  14.278
 6304W        W70237  11.216  25.561   3.798
 6305W        W70238  43.928  14.623   2.868
 6306W        W70239   8.825  27.976   5.174
 6307W        W70240   3.291   5.929   4.261
 6308W        W70241   3.857  22.010   2.179
 6309W        W70242  41.364  16.630  11.001
 6310W        W70243  28.629  17.799  10.925
 6311W        W70244  28.972  30.429  11.455
 6312W        W70245  41.794  31.514  12.492
 6313W        W70246  39.374  32.116  11.538
 6314W        W70247  36.466   8.288  10.955
 6315W        W70248  21.746  17.079   0.753
 6316W        W70249  25.636  38.837   1.420
 6317W        W70250  21.232  10.869  13.923
 6318W        W70251  42.812  32.595  13.978
 6319W        W70252  36.022  25.116  13.405
 6320W        W70253  14.214  35.416  11.589
 6321W        W70254  17.304  38.060   1.388
 6322W        W70255   2.442  14.287   0.741
 6323W        W70256  37.403   6.321  12.366
 6324W        W70257  26.567  41.503   1.326
 6325W        W70258  11.215   7.226  10.938
 6326W        W70259  27.540   7.665  13.374
 6327W        W70260   1.811  21.232   2.770
 6328W        W70261  31.094  19.082   1.261
 6329W        W70262  21.639  13.764  13.819
 6330W        W70263  24.974  11.210   1.289
 6331W        W70264  22.080  38.380   0.809
 6332W        W70265  24.650  36.899   3.302
 6333W        W70266  33.046  19.043  12.893
 6334W        W70267   0.755  24.195  13.855
 6335W        W70268  34.490  17.566   0.347
 6336W        W70269  38.362  35.040  10.494
 6337W        W70270  33.595  27.572   4.238
 6338W        W70271   7.828  32.419   1.839
 6339W        W70272   9.819  41.804  10.891
 6340W        W70273  42.801  30.606   4.144
 6341W        W70274  26.170  10.741   2.241
 6342W        W70275   5.827  35.520   3.254
 6343W        W70276  26.056   7.361  11.595
 6344W        W70277  10.646  27.135  14.486
 6345W        W70278  34.894  20.720   2.196
 6346W        W70279  30.159   2.896   1.749
 6347W        W70280  25.039  10.341  12.568
 6348W        W70281  24.703  26.617   4.750
 6349W        W70282  28.621  42.496  10.539
 6350W        W70283  43.415  33.461   4.666
 6351W        W70284  42.524  14.155  14.866
 6352W        W70285  28.160  44.378  11.067
 6353W        W70286  32.900  34.502   2.797
 6354W        W70287  13.190  10.750   0.911
 6355W        W70288   2.953   4.420   2.353
 6356W        W70289  31.448  18.069   4.121
 6357W        W70290  15.797  19.132  14.461
 6358W        W70291  25.682  39.998   0.907
 6359W        W70292   8.273  16.577   4.649
 6360W        W70293   9.355  28.568  11.510
 6361W        W70294   6.274  14.790   1.240
 6362W        W70295  33.035  40.839   4.180
 6363W        W70296  21.523  13.224  11.570
 6364W        W70297  39.874   1.483  14.990
 6365W        W70298  27.642  26.186  12.830
 6366W        W70299   3.451  23.596   1.375
 6367W        W70300   8.200  10.818   0.284
 6368W        W70301  28.134   0.885  12.988
 6369W        W70302   4.272  39.506  11.507
 6370W        W70303  27.069  11.259  11.483
 6371W        W70304  25.665  39.028  14.895
 6372W        W70305  31.434  34.448  10.559
 6373W        W70306  26.957  40.380   4.256
 6374W        W70307   7.198  14.658  12.351
 6375W        W70308  27.507  14.325  14.447
 6376W        W70309  26.587   4.832   0.924
 6377W        W70310  38.970  15.325  10.486
 6378W        W70311  19.759  14.639   1.383
 6379W        W70312  39.927  19.049   0.938
 6380W        W70313  41.923  23.080   2.206
 6381W        W70314  16.586  14.797  12.377
 6382W        W70315   4.789  34.477   2.342
 6383W        W70316  25.091   9.785  12.452
 6384W        W70317   5.882  30.492   1.312
 6385W        W70318  12.695   3.909   2.293
 6386W        W70319   6.742  25.994   5.759
 6387W        W70320  42.004   4.827   2.838
 6388W        W70321  11.263  39.057  10.911
 6389W        W70322  22.544  42.436  14.946
 6390W        W70323  38.359  41.374  10.628
 6391W        W70324  15.146  37.919   1.859
 6392W        W70325  10.250  18.759   3.285
 6393W        W70326  41.514  31.995   0.882
 6394W        W70327   4.819  25.022   5.634
 6395W        W70328   0.408  11.640   1.809
 6396W        W70329  26.207  21.164   0.440
 6397W        W70330   2.950  41.028  10.967
 6398W        W70331  37.456   4.770   0.947
 6399W        W70332  34.889  22.043   2.311
 6400W        W70333  17.598   9.309  10.515
 6401W        W70334  35.580  27.670  14.017
 6402W        W70335   8.656  33.569   3.660
 6403W        W70336  15.136  18.288  11.059
 6404W        W70337   6.877  11.748  14.905
 6405W        W70338  42.404  40.936   4.755
 6406W        W70339  36.991  20.080   1.426
 6407W        W70340  31.521  44.873   3.274
 6408W        W70341  42.993  28.023  12.555
 6409W        W70342   0.900  40.520  11.489
 6410W        W70343  34.967  17.770   1.727
 6411W        W70344  18.761  40.359   0.934
 6412W        W70345   1.375  14.816  10.460
 6413W        W70346  12.211  16.639   2.851
 6414W        W70347  40.438  13.645   3.339
 6415W        W70348  22.624  11.672  14.928
 6416W        W70349  14.755  41.930   3.195
 6417W        W70350   7.738   1.332  13.949
 6418W        W70351   7.297  18.788  12.473
 6419W        W70352  26.492   4.438   2.263
 6420W        W70353   4.316   2.392  13.933
 6421W        W70354  41.394   9.850  14.362
 6422W        W70355  31.605  27.987   2.711
 6423W        W70356  10.186  22.158  11.122
 6424W        W70357   7.375  12.670  12.887
 6425W        W70358  23.019  24.581  12.379
 6426W        W70359   3.418  28.130  11.883
 6427W        W70360   7.732  23.561  11.894
 6428W        W70361  25.992   0.436   1.214
 6429W        W70362  43.448   6.893   3.788
 6430W        W70363  16.297  14.789  14.803
 6431W        W70364  37.840  23.131  14.307
 6432W        W70365  22.538  14.291   0.836
 6433W        W70366  22.605  32.130   1.225
 6434W        W70367  20.694  21.544   3.191
 6435W        W70368  31.913  21.019  11.017
 6436W        W70369  23.615  30.999   2.813
 6437W        W70370  39.559  33.921   0.355
 6438W        W70371  10.161   7.334  13.464
 6439W        W70372   3.435  14.198   1.339
 6440W        W70373  36.040   9.785  14.830
 6441W        W70374   1.778  16.648  10.894
 6442W        W70375  14.718   3.838   0.744
 6443W        W70376  13.169  40.462   4.726
 6444W        W70377  37.537  40.441  10.922
 6445W        W70378  14.121  41.030   2.221
 6446W        W70379  30.520   5.698  10.420
 6447W        W70380  34.915  13.309   0.737
 6448W        W70381  30.641   8.404   1.723
 6449W        W70382  36.528  31.596  12.087
 6450W        W70383  32.078  20.243  13.519
 6451W        W70384  41.926  15.756  13.038
 6452W        W70385  13.717   3.756   0.825
 6453W        W70386  11.182  18.601  14.017
 6454W        W70387  30.579  20.589   4.155
 6455W        W70388   2.354  41.535   0.382
 6456W        W70389  15.300  29.965  13.544
 6457W        W70390  15.635  12.736   3.152
 6458W        W70391  42.519  35.519  13.995
 6459W        W70392  30.421  42.025   3.185
 6460W        W70393   6.695  27.564   3.163
 6461W        W70394   6.832   9.713   3.685
 6462W        W70395   8.314  24.128   0.435
 6463W        W70396  43.291  32.515  14.330
 6464W        W70397  43.850   2.343   4.758
 6465W        W70398  44.467  20.034   1.245
 6466W        W70399  42.929   3.910   3.358
 6467W        W70400  13.793  30.989  11.579
 6468W        W70401  43.767  10.752  12.409
 6469W        W70402  18.782   0.750   5.266
 6470W        W70403  39.479  44.489   3.305
 6471W        W70404  40.988  37.081  14.502
 6472W        W70405   8.866  23.161  14.911
 6473W        W70406  21.057  10.751   1.391
 6474W        W70407  24.673  44.961   1.220
 6475W        W70408  25.012  42.932  14.369
 6476W        W70409  27.501  33.511  10.590
 6477W        W70410  19.230  15.275   0.480
 6478W        W70411  29.626  40.993   2.254
 6479W        W70412  44.956   2.248  13.999
 6480W        W70413  33.095  32.478   4.293
 6481W        W70414   5.702   2.297   1.827
 6482W        W70415  25.667  19.252  13.792
 6483W        W70416   8.785   6.336  14.402
 6484W        W70417  36.927   5.382   1.760
 6485W        W70418  29.169  44.353   3.203
 6486W        W70419  41.988  39.996  13.857
 6487W        W70420  17.677  19.195   1.762
 6488W        W70421   0.948  12.196  14.925
 6489W        W70422  13.784  30.009  12.493
 6490W        W70423  42.904   8.744  12.990
 6491W        W70424  33.088  10.375   2.680
 6492W        W70425  14.201  31.489  10.485
 6493W        W70426   6.371  13.819   1.713
 6494W        W70427  44.766  26.510  14.847
 6495W        W70428  34.957  24.151  13.441
 6496W        W70429   9.233  14.633  10.527
 6497W        W70430  39.427  22.240  12.571
 6498W        W70431   8.202  10.678  14.399
 6499W        W70432  21.251  25.970   9.954
 6500W        W70433  29.970   5.932  13.374
 6501W        W70434  43.455  11.330  11.962
 6502W        W70435  44.463  15.133  12.468
 6503W        W70436  38.991  33.550   1.382
 6504W        W70437   8.366  21.703  13.021
 6505W        W70438   6.336   1.300   0.406
 6506W        W70439  31.480  22.680  13.847
 6507W        W70440  36.896  30.079  12.388
 6508W        W70441  26.623  41.861  11.407
 6509W        W70442  40.004   3.886   3.821
 6510W        W70443   0.911  30.113   0.747
 6511W        W70444  28.109  18.131   5.159
 6512W        W70445  44.289  43.413   0.480
 6513W        W70446  24.623  22.693  10.570
 6514W        W70447  37.476  33.530  12.022
 6515W        W70448   6.421   9.386  10.970
 6516W        W70449  25.051  19.597  12.848
 6517W        W70450   3.860  30.562   2.861
 6518W        W70451   6.881  16.306   0.462
 6519W        W70452  37.484  44.778  13.517
 6520W        W70453  33.036  15.292  13.804
 6521W        W70454  10.211  40.847  12.999
 6522W        W70455  28.022  28.586   1.859
 6523W        W70456  35.447  38.375   3.327
 6524W        W70457  14.809   9.216  14.335
 6525W        W70458   1.735  29.478  13.950
 6526W        W70459  24.162  19.715  10.597
 6527W        W70460  12.710  26.617  12.952
 6528W        W70461  11.170   2.900   4.623
 6529W        W70462  37.042  40.848  13.479
 6530W        W70463  27.572  26.580  13.510
 6531W        W70464   1.897  42.444   3.663
 6532W        W70465   7.387  35.458   0.414
 6533W        W70466  26.681   4.311   2.808
 6534W        W70467  26.569  34.380  14.888
 6535W        W70468  38.007  15.654  12.006
 6536W        W70469  41.953   4.323   0.295
 6537W        W70470   7.389  36.924   4.219
 6538W        W70471   8.661   1.313   1.341
 6539W        W70472   6.377   0.909  10.444
 6540W        W70473  17.730  19.736  13.495
 6541W        W70474  32.142  12.227  14.000
 6542W        W70475  35.959  19.070  13.312
 6543W        W70476   8.805  30.918  12.044
 6544W        W70477  43.467  24.059  12.097
 6545W        W70478   9.355   5.224   9.949
 6546W        W70479  32.902  35.889  12.445
 6547W        W70480  42.487  31.475   0.408
 6548W        W70481  44.927  30.425  10.989
 6549W        W70482   7.213  41.318   0.810
 6550W        W70483  35.982   3.930  14.983
 6551W        W70484  42.466  38.428  10.455
 6552W        W70485  41.508  22.236  12.370
 6553W        W70486   0.317  29.023  12.480
 6554W        W70487   0.373   0.450   4.241
 6555W        W70488  11.135  40.936  10.410
 6556W        W70489   0.761   0.904   5.221
 6557W        W70490   5.383  44.299   1.320
 6558W        W70491  38.051   1.461  11.576
 6559W        W70492   8.257  21.186  10.596
 6560W        W70493  21.173  35.464  13.925
 6561W        W70494   0.884  28.929   3.856
 6562W        W70495  35.385  24.023   0.469
 6563W        W70496   8.271  25.623   2.227
 6564W        W70497  18.206  27.124   2.845
 6565W        W70498  36.005  14.762   1.428
 6566W        W70499  37.467  43.294   3.382
 6567W        W70500  44.462  23.672   3.165
 6568W        W70501   7.866  32.035   3.220
 6569W        W70502  33.614  13.775   3.261
 6570W        W70503  44.337   3.359   3.292
 6571W        W70504  23.211  28.496   0.851
 6572W        W70505  14.124  28.171   1.864
 6573W        W70506  11.159   6.748  11.414
 6574W        W70507  19.716   4.834   3.687
 6575W        W70508   7.805  29.622  12.962
 6576W        W70509  14.113  10.352   1.900
 6577W        W70510   9.849  30.025  13.019
 6578W        W70511  10.296  38.476  12.993
 6579W        W70512  12.351  39.498   3.655
 6580W        W70513  26.202  43.502  12.553
 6581W        W70514   0.929  11.807   0.468
 6582W        W70515  14.823  40.911  11.395
 6583W        W70516  12.655  13.643  14.942
 6584W        W70517  16.680  26.095   3.798
 6585W        W70518   7.311  44.816  13.365
 6586W        W70519  37.528  40.909   3.653
 6587W        W70520   5.430  16.238   2.843
 6588W        W70521  22.025   5.820  13.910
 6589W        W70522  28.614  26.131  13.432
 6590W        W70523   4.219  17.268   9.964
 6591W        W70524   9.820  43.928  14.855
 6592W        W70525  44.283   0.465  12.480
 6593W        W70526  19.623  18.251   3.650
 6594W        W70527  34.922  23.051   4.609
 6595W        W70528  37.401  40.454   3.711
 6596W        W70529   3.728  29.576  12.008
 6597W        W70530   4.702  42.304  14.799
 6598W        W70531  16.600   9.719   1.931
 6599W        W70532  25.590  19.615  14.432
 6600W        W70533   5.933  17.757   3.648
 6601W        W70534   5.885  43.005  11.523
 6602W        W70535   9.206   4.247  14.763
 6603W        W70536  28.042   4.376   3.739
 6604W        W70537   6.748   2.357  13.958
 6605W        W70538  39.884  30.502   1.840
 6606W        W70539  39.893  20.731  13.462
 6607W        W70540  36.401  28.554   0.256
 6608W        W70541  36.082  13.253   2.189
 6609W        W70542  22.170  37.427  10.429
 6610W        W70543  11.292  32.596   4.728
 6611W        W70544  31.582  11.211   2.418
 6612W        W70545   3.436  22.528   3.316
 6613W        W70546  32.104  15.794   0.865
 6614W        W70547  29.589  14.791   1.776
 6615W        W70548  29.455   7.398   2.296
 6616W        W70549  40.851  40.972  10.962
 6617W        W70550  27.060  22.634  13.949
 6618W        W70551  44.992  44.262  12.542
 6619W        W70552   2.929   5.777   4.774
 6620W        W70553   7.668  34.931   4.350
 6621W        W70554  20.238  10.253  10.912
 6622W        W70555  40.986  37.373   4.325
 6623W        W70556  22.129  19.048   0.364
 6624W        W70557  18.160   8.279   1.338
 6625W        W70558  28.546  15.612  10.052
 6626W        W70559  25.111  13.126  13.897
 6627W        W70560  43.994  27.004   2.793
 6628W        W70561  26.970   7.323  11.886
 6629W        W70562  19.724  36.868  12.903
 6630W        W70563  40.462  23.654  12.411
 6631W        W70564   1.916   0.414  11.877
 6632W        W70565  44.824  29.061   4.833
 6633W        W70566  33.577  33.901  10.037
 6634W        W70567  37.994   5.884   4.148
 6635W        W70568  14.332  28.962  13.939
 6636W        W70569   3.457  11.287   0.356
 6637W        W70570  26.991  29.608   4.263
 6638W        W70571  35.603  20.653   0.366
 6639W        W70572   1.871  10.650   2.683
 6640W        W70573   0.369  21.631   1.718
 6641W        W70574   5.838  20.570  12.848
 6642W        W70575  41.975  40.486  14.991
 6643W        W70576  28.591  44.343  14.383
 6644W        W70577  12.643  42.360   0.900
 6645W        W70578  38.521  21.682   1.373
 6646W        W70579  10.813  22.218   4.734
 6647W        W70580  10.807   8.807   3.708
 6648W        W70581  30.657  41.980   0.747
 6649W        W70582  32.425  31.145  10.998
 6650W        W70583  24.498  38.463   0.906
 6651W        W70584  26.697  36.381   1.832
 6652W        W70585   1.732  43.402   1.781
 6653W        W70586  36.384  26.504  10.429
 6654W        W70587  23.679  26.698   3.818
 6655W        W70588  10.186  22.516   3.765
 6656W        W70589   6.918  44.907   2.777
 6657W        W70590  34.420  17.134  12.498
 6658W        W70591  34.396   1.274  14.787
 6659W        W70592  21.666  32.524   2.348
 6660W        W70593   9.819  30.064   4.812
 6661W        W70594  40.360  26.155   3.169
 6662W        W70595  16.136  29.526   4.818
 6663W        W70596   3.903  25.648  10.594
 6664W        W70597   2.352   9.317  13.413
 6665W        W70598  27.585  31.644  10.584
 6666W        W70599  23.521   0.950   0.271
 6667W        W70600  28.141  13.252   1.422
 6668W        W70601  11.837  40.925   3.156
 6669W        W70602   9.658  24.046  10.503
 6670W        W70603  36.070  13.691   2.668
 6671W        W70604  39.348   4.939   3.194
 6672W        W70605  27.522  25.693   3.156
 6673W        W70606  25.156  12.644   0.378
 6674W        W70607  27.130  29.080   2.760
 6675W        W70608  24.107  30.979  13.854
 6676W        W70609  18.141   8.322   3.165
 6677W        W70610  31.643  18.141  12.020
 6678W        W70611  26.015  12.273  11.405
 6679W        W70612  13.250  40.548  12.550
 6680W        W70613  12.677  30.933  11.892
 6681W        W70614  23.029  16.771  12.388
 6682W        W70615   6.392  18.759   4.221
 6683W        W70616  42.811  37.468   3.219
 6684W        W70617   3.845  15.703   4.345
 6685W        W70618  12.857   9.683   1.295
 6686W        W70619  11.735   7.359  14.776
 6687W        W70620  30.093  20.604   4.318
 6688W        W70621  19.260  23.652  14.462
 6689W        W70622  35.894   2.841  14.004
 6690W        W70623   9.861   3.943   4.333
 6691W        W70624  19.050  25.668   1.334
 6692W        W70625  10.266   3.918   4.815
 6693W        W70626  16.152   0.951   3.237
 6694W        W70627  40.842   7.415  13.050
 6695W        W70628  36.380  37.345  13.879
 6696W        W70629  40.327  33.599   4.155
 6697W        W70630  23.561  36.431  11.431
 6698W        W70631  44.780  27.190  12.359
 6699W        W70632  31.402  11.820  11.387
 6700W        W70633   6.687  40.797  11.021
 6701W        W70634  15.328  42.865  14.335
 6702W        W70635  35.449   8.395   1.906
 6703W        W70636  31.965  23.643  14.386
 6704W        W70637  22.999  21.573   4.610
 6705W        W70638  17.626  13.759  11.109
 6706W        W70639  33.567  40.954  11.474
 6707W        W70640  11.142  13.167  13.894
 6708W        W70641   4.734   0.392   3.185
 6709W        W70642  21.248  36.939   3.861
 6710W        W70643  10.777  16.622   4.213
 6711W        W70644  36.396   6.808  10.508
 6712W        W70645  35.426  44.476   0.804
 6713W        W70646  39.320  43.393  12.383
 6714W        W70647  24.679  39.854  13.972
 6715W        W70648  34.574  23.992  13.883
 6716W        W70649  30.049  34.009  11.941
 6717W        W70650  35.478  11.648   4.331
 6718W        W70651  28.460   6.807   3.314
 6719W        W70652  14.181  12.331  12.055
 6720W        W70653  30.056   1.272  11.112
 6721W        W70654  26.121  25.545  13.408
 6722W        W70655  39.854   5.340   3.653
 6723W        W70656  10.816  16.624  14.800
 6724W        W70657  21.042  31.126  12.384
 6725W        W70658  30.961   3.394   3.793
 6726W        W70659   1.822  13.609   2.892
 6727W        W70660   5.351  34.531   1.845
 6728W        W70661  11.713  27.679  14.838
 6729W        W70662  18.724  17.192   3.189
 6730W        W70663   4.874  40.482  11.484
 6731W        W70664  42.992  25.525  11.488
 6732W        W70665  28.463  44.491  11.949
 6733W        W70666  32.080   2.867  13.933
 6734W        W70667  30.624   1.790  11.397
 6735W        W70668  13.841  20.554   2.776
 6736W        W70669  34.524  38.529   1.824
 6737W        W70670  18.704  34.500  10.018
 6738W        W70671  20.750  37.956  11.085
 6739W        W70672  29.577   9.670  10.527
 6740W        W70673  44.867   0.426   3.336
 6741W        W70674  36.922  34.419  13.410
 6742W        W70675  15.672  16.302   4.689
 6743W        W70676  22.513  17.204   4.767
 6744W        W70677   1.957  31.529  13.792
 6745W        W70678  21.126  41.936   3.659
 6746W        W70679  13.770  25.216  13.014
 6747W        W70680  26.662   2.408  12.889
 6748W        W70681  11.762  40.817  11.004
 6749W        W70682  36.013  34.488  11.970
 6750W        W70683  34.395  44.954   0.853
 6751W        W70684  37.472   5.418   2.243
 6752W        W70685  20.148  24.668   0.937
 6753W        W70686  16.178  12.637   0.409
 6754W        W70687  37.874  41.925  11.043
 6755W        W70688  39.959  32.912  10.520
 6756W        W70689  31.107  14.784  13.945
 6757W        W70690  42.960  21.123  11.457
 6758W        W70691   8.259  18.226  12.894
 6759W        W70692   7.903  44.488  11.092
 6760W        W70693  36.360  42.931  10.435
 6761W        W70694  39.060  16.797   2.683
 6762W        W70695  37.876  40.034  10.921
 6763W        W70696  31.127  11.372  14.921
 6764W        W70697  41.845   3.271   3.154
 6765W        W70698   6.319   4.421  13.886
 6766W        W70699   6.311  44.842   4.271
 6767W        W70700  37.871  13.301   2.405
 6768W        W70701  42.330  38.500   1.312
 6769W        W70702  43.510  25.667  14.334
 6770W        W70703  29.498  44.871  10.634
 6771W        W70704  27.516  39.059   4.209
 6772W        W70705  24.538   2.399   3.846
 6773W        W70706   7.384  33.522  13.041
 6774W        W70707   5.846  25.979  12.969
 6775W        W70708  23.055  10.744  11.053
 6776W        W70709  42.814  31.513   3.788
 6777W        W70710  34.583  29.974   3.234
 6778W        W70711  15.667  16.204  13.808
 6779W        W70712  19.045  18.616   1.759
 6780W        W70713   2.745  30.543   2.750
 6781W        W70714  25.561   6.910  14.288
 6782W        W70715  23.174  27.542  12.529
 6783W        W70716  30.025  29.162  11.507
 6784W        W70717  41.952  30.632   4.748
 6785W        W70718  17.114   6.691   3.781
 6786W        W70719  15.654  43.818   2.401
 6787W        W70720  39.884  38.428   3.298
 6788W        W70721  29.118  36.034  11.388
 6789W        W70722  36.580  26.157   2.829
 6790W        W70723  37.388  20.190  13.410
 6791W        W70724   1.349  10.234  13.361
 6792W        W70725   7.371  39.066  12.451
 6793W        W70726  35.445   5.740  13.492
 6794W        W70727  41.019  40.950   0.283
 6795W        W70728   1.919  13.719  13.468
 6796W        W70729  12.157   8.815   4.730
 6797W        W70730  10.351  29.039  11.562
 6798W        W70731  31.995  32.457  11.410
 6799W        W70732   9.674  44.325  13.841
 6800W        W70733  40.037  14.671   3.221
 6801W        W70734  22.586   0.312  13.931
 6802W        W70735  27.490  31.027   4.136
 6803W        W70736  11.318   5.256  11.606
 6804W        W70737  19.149  13.774   0.272
 6805W        W70738  42.855   9.705   3.710
 6806W        W70739  41.036  17.228  10.901
 6807W        W70740   3.826  20.648   2.394
 6808W        W70741  36.965  39.982  12.486
 6809W        W70742   7.296  18.082  14.447
 6810W        W70743  31.124   8.710  12.355
 6811W        W70744  40.337  38.824  13.054
 6812W        W70745  42.472  38.482  11.529
 6813W        W70746  36.096  29.534  14.975
 6814W        W70747  40.907  20.540  11.503
 6815W        W70748  22.654  40.803  11.398
 6816W        W70749  17.180   2.934  11.594
 6817W        W70750  41.019  22.554   2.851
 6818W        W70751  11.761  32.450  14.389
 6819W        W70752   7.828  36.551  13.396
 6820W        W70753  32.944  42.434  13.857
 6821W        W70754  38.512  17.763   2.349
 6822W        W70755  12.209  35.602  13.450
 6823W        W70756  27.545   6.677   1.882
 6824W        W70757  30.439  21.538  10.935
 6825W        W70758  15.684  42.309   1.306
 6826W        W70759  14.293   1.833   3.387
 6827W        W70760  43.962  16.318  12.422
 6828W        W70761  16.299  29.655  13.444
 6829W        W70762  43.790  40.459   1.855
 6830W        W70763  25.538  23.527  11.094
 6831W        W70764   9.366  35.967  13.944
 6832W        W70765  17.204  20.083  10.087
 6833W        W70766  23.683  20.119   2.285
 6834W        W70767  26.973  39.548   3.667
 6835W        W70768  42.961  42.335  13.421
 6836W        W70769   5.856   0.383  14.338
 6837W        W70770  32.893  15.165   4.751
 6838W        W70771  20.112  20.222  14.906
 6839W        W70772  37.474  11.864   2.824
 6840W        W70773  11.630  21.035  10.404
 6841W        W70774  32.414  24.070  12.009
 6842W        W70775  16.595  36.479   3.195
 6843W        W70776  11.357   9.393   4.336
 6844W        W70777  38.838   5.920   2.224
 6845W        W70778  26.572  44.767  11.582
 6846W        W70779  25.586  30.608   4.805
 6847W        W70780  35.030   4.286   2.293
 6848W        W70781  16.147  24.153  13.481
 6849W        W70782   4.256  10.822  12.855
 6850W        W70783   0.965   7.246   1.391
 6851W        W70784  32.517   1.335  12.991
 6852W        W70785  26.580  18.595  10.501
 6853W        W70786  41.345  32.074   3.795
 6854W        W70787  21.513   4.830  10.138
 6855W        W70788  39.315  44.837   0.372
 6856W        W70789   9.696   7.312  11.443
 6857W        W70790  37.463  35.427  10.945
 6858W        W70791  36.058  32.493   3.792
 6859W        W70792  22.139   9.255  11.971
 6860W        W70793  26.590  33.402  10.600
 6861W        W70794   3.786   6.251  14.830
 6862W        W70795  11.748  16.204  11.010
 6863W        W70796  30.535  32.484   2.334
 6864W        W70797  38.978  30.915  11.942
 6865W        W70798  10.194   0.867   5.252
 6866W        W70799   8.232  16.627   3.768
 6867W        W70800  28.563  34.505   0.939
 6868W        W70801  15.685   8.743  10.556
 6869W        W70802  16.308   6.254   0.368
 6870W        W70803   0.802   2.369  14.027
 6871W        W70804  22.194  22.586   3.818
 6872W        W70805  43.506  42.527   1.785
 6873W        W70806  12.183  19.600   1.316
 6874W        W70807  17.135  13.181  11.127
 6875W        W70808   3.437  10.305   1.266
 6876W        W70809  24.076   3.893  11.987
 6877W        W70810  43.474  16.146   4.135
 6878W        W70811  10.207  21.099  12.902
 6879W        W70812  32.558   0.477  10.527
 6880W        W70813  43.002  19.561  10.531
 6881W        W70814  29.977  41.398   2.729
 6882W        W70815  36.852  11.200  14.992
 6883W        W70816  21.737  38.965  13.031
 6884W        W70817  25.168  27.592  13.532
 6885W        W70818  38.377  21.644   0.767
 6886W        W70819  27.002   4.936   3.722
 6887W        W70820  36.430  16.290   1.344
 6888W        W70821  19.655  28.665  10.603
 6889W        W70822  19.274  19.670   2.303
 6890W        W70823  24.714  43.384   4.171
 6891W        W70824  13.300  18.229   0.910
 6892W        W70825  28.006  11.751   1.244
 6893W        W70826  13.700   8.212   0.275
 6894W        W70827  26.163   1.446  11.371
 6895W        W70828  29.579  40.489   3.176
 6896W        W70829  33.010  17.067  14.911
 6897W        W70830  35.036  30.992   4.237
 6898W        W70831  27.993  36.388  10.958
 6899W        W70832   4.805  13.256  11.040
 6900W        W70833   9.181   5.902  13.018
 6901W        W70834   9.764  18.064  11.061
 6902W        W70835  34.421  17.075  12.942
 6903W        W70836  23.098  38.337   0.928
 6904W        W70837   9.348  18.089   4.757
 6905W        W70838  17.138   3.772   1.702
 6906W        W70839   2.732  11.189   2.814
 6907W        W70840  36.505  42.397   1.260
 6908W        W70841   7.388  16.673  11.102
 6909W        W70842  16.689   4.433   5.267
 6910W        W70843  26.666  18.576   4.686
 6911W        W70844  18.099  11.246  13.888
 6912W        W70845  37.940  40.381   2.857
 6913W        W70846  17.094   8.248  10.088
 6914W        W70847  15.198   7.355  12.875
 6915W        W70848  30.075  36.026   2.289
 6916W        W70849  20.580   3.216   4.768
 6917W        W70850  23.109  16.598  13.043
 6918W        W70851  22.547  11.632  10.155
 6919W        W70852  37.999  23.684  11.889
 6920W        W70853  17.205  30.523  10.111
 6921W        W70854  32.468  11.647   3.851
 6922W        W70855  26.067   2.393   0.259
 6923W        W70856  25.614  30.908   3.850
 6924W        W70857   8.859  37.992  12.486
 6925W        W70858   4.263  16.649   0.414
 6926W        W70859  29.981   4.239   4.824
 6927W        W70860  21.540  32.098   5.268
 6928W        W70861  35.474   9.765  13.810
 6929W        W70862   2.883  34.392   2.370
 6930W        W70863   9.782  19.643   3.643
 6931W        W70864  41.450   2.453  11.017
 6932W        W70865  16.773  12.307   2.869
 6933W        W70866  18.284  37.018   3.209
 6934W        W70867  25.978   0.333  12.510
 6935W        W70868   3.863  36.941  13.509
 6936W        W70869  12.646  43.426   4.180
 6937W        W70870  17.743  39.001   0.866
 6938W        W70871   3.243  44.296  13.809
 6939W        W70872  37.021  26.174   0.430
 6940W        W70873  40.961  36.949   4.334
 6941W        W70874   0.745   7.763  13.024
 6942W        W70875  33.450   9.679  10.008
 6943W        W70876   0.851  20.200  10.617
 6944W        W70877  24.596  22.632  13.987
 6945W        W70878   4.846  16.249   4.746
 6946W        W70879  35.565  38.377   4.673
 6947W        W70880  21.126  30.529   2.325
 6948W        W70881  18.591  42.847  14.888
 6949W        W70882  21.097  34.450   0.330
 6950W        W70883  42.952   9.671   2.257
 6951W        W70884  14.736  19.131  14.953
 6952W        W70885  37.944  10.867  14.782
 6953W        W70886  22.216  16.569  11.009
 6954W        W70887  26.113  18.622   2.704
 6955W        W70888  11.133   3.929  14.282
 6956W        W70889  31.565  11.664   4.182
 6957W        W70890  16.227  33.437   3.202
 6958W        W70891  23.579  40.903  11.989
 6959W        W70892   1.892  33.960   2.401
 6960W        W70893  44.336  30.567   0.941
 6961W        W70894  35.969  25.973  11.613
 6962W        W70895  13.308  16.171  14.454
 6963W        W70896  23.679  28.121   3.777
 6964W        W70897  30.416  36.530  14.338
 6965W        W70898  26.681   2.894   0.800
 6966W        W70899  29.641  11.830   2.295
 6967W        W70900   0.338   1.246  13.317
 6968W        W70901  34.099  12.290   1.254
 6969W        W70902   6.262  40.489   4.708
 6970W        W70903  23.112  32.515   2.896
 6971W        W70904  41.469  14.725   4.668
 6972W        W70905  14.623  14.105  12.558
 6973W        W70906  13.681  32.499  11.017
 6974W        W70907   9.779   2.793   1.421
 6975W        W70908  44.857  27.011  13.418
 6976W        W70909   6.367  10.196   4.810
 6977W        W70910  37.453  19.237  12.094
 6978W        W70911  16.240  35.430  14.819
 6979W        W70912  10.733  31.039   1.280
 6980W        W70913  26.676  17.637  14.392
 6981W        W70914   4.765  25.123  12.551
 6982W        W70915  21.111  20.524   1.764
 6983W        W70916  13.721  11.777   0.820
 6984W        W70917  15.325  44.823  14.383
 6985W        W70918   8.347  29.463   4.310
 6986W        W70919  31.987  13.167  11.936
 6987W        W70920  38.915  14.632   2.723
 6988W        W70921   5.851  35.976  13.915
 6989W        W70922  26.478  41.330  13.504
 6990W        W70923   4.710  24.613  10.528
 6991W        W70924   0.258  16.136  12.855
 6992W        W70925   9.824  24.101  10.961
 6993W        W70926  12.138  19.191  13.406
 6994W        W70927  29.920  16.711  10.899
 6995W        W70928  14.239   8.754  12.556
 6996W        W70929  23.502  42.479   3.227
 6997W        W70930  28.111  35.466  14.277
 6998W        W70931  25.635  22.053  12.057
 6999W        W70932  43.850   0.250  14.824
 7000W        W70933  20.635  32.463  12.382
 7001W        W70934  44.774   1.477  14.001
 7002W        W70935   7.274   3.276   0.363
 7003W        W70936  13.290  24.060   3.242
 7004W        W70937  27.149  35.007  13.541
 7005W        W70938  34.446   9.172  14.410
 7006W        W70939  41.886  39.554  11.519
 7007W        W70940  21.580   7.345  11.949
 7008W        W70941  25.133   2.825   2.806
 7009W        W70942  13.153   6.730  14.918
 7010W        W70943  29.925  43.367   2.299
 7011W        W70944   8.371  14.637   2.289
 7012W        W70945  15.179   9.310  12.914
 7013W        W70946  12.617   5.845  12.923
 7014W        W70947   1.864  30.929  11.915
 7015W        W70948  22.568  16.136   4.675
 7016W        W70949   9.797   1.467  13.876
 7017W        W70950  40.051  15.160  12.839
 7018W        W70951   0.826   4.237  12.551
 7019W        W70952  30.591  21.562  12.070
 7020W        W70953  36.583  11.344  11.956
 7021W        W70954  33.970   7.780   4.784
 7022W        W70955   8.655  13.727  14.308
 7023W        W70956  25.669  11.163   0.931
 7024W        W70957   0.948   5.348  14.979
 7025W        W70958  26.498  36.586   0.404
 7026W        W70959   0.295  37.417  10.918
 7027W        W70960  43.777   0.948   1.748
 7028W        W70961  42.944  18.693  12.025
 7029W        W70962   6.692  23.033  10.582
 7030W        W70963  25.165  41.886  12.838
 7031W        W70964  30.582   0.960  13.011
 7032W        W70965   2.733  12.177   0.415
 7033W        W70966   4.304  11.723  10.103
 7034W        W70967  23.027   2.841  12.860
 7035W        W70968  11.758  17.183   4.665
 7036W        W70969   8.857   3.215   4.316
 7037W        W70970  17.567  32.552   2.341
 7038W        W70971   0.910  25.144   3.661
 7039W        W70972   6.197   9.777  12.483
 7040W        W70973  39.505  39.968  14.496
 7041W        W70974  24.096  23.573   4.734
 7042W        W70975   3.717  31.470   4.328
 7043W        W70976   5.897  42.372  10.902
 7044W        W70977  20.606  12.201   1.877
 7045W        W70978  19.770  42.955   1.791
 7046W        W70979   7.763  15.655   0.904
 7047W        W70980   5.258  29.037  14.458
 7048W        W70981  36.564  38.475  13.811
 7049W        W70982   7.383  38.328  13.426
 7050W        W70983  13.111  28.568   3.331
 7051W        W70984  30.124   6.868  11.887
 7052W        W70985  31.512  25.693  10.524
 7053W        W70986  43.869  23.984   3.853
 7054W        W70987  38.958  35.435  11.517
 7055W        W70988  21.230  20.078   5.149
 7056W        W70989   7.252  13.805   1.697
 7057W        W70990  38.513  36.360  12.995
 7058W        W70991  34.864  14.783   3.816
 7059W        W70992  25.711  32.034  11.401
 7060W        W70993  25.577  38.010  12.963
 7061W        W70994  12.225  23.676   4.597
 7062W        W70995  22.160  24.225   4.160
 7063W        W70996  40.985  17.649  13.965
 7064W        W70997   7.396   0.949   3.198
 7065W        W70998  36.500  35.467  14.324
 7066W        W70999  19.595  34.906   4.130
 7067W        W71000  35.020   7.738  11.928
 7068W        W71001  26.645   8.894   0.940
 7069W        W71002   7.677  36.399  14.026
 7070W        W71003  32.625  32.505  10.596
 7071W        W71004  27.941  16.171   0.796
 7072W        W71005  16.138  42.934  14.027
 7073W        W71006   8.898  32.426  10.460
 7074W        W71007  28.074  17.757  14.917
 7075W        W71008  22.673   7.182   4.704
 7076W        W71009   8.311  35.914  12.561
 7077W        W71010  41.468  20.259   2.293
 7078W        W71011   0.854  30.548   5.106
 7079W        W71012  32.475  11.189  13.513
 7080W        W71013  42.391   9.757   0.850
 7081W        W71014   9.710  23.614  12.987
 7082W        W71015  37.972  22.646  14.890
 7083W        W71016  12.304   5.851  13.348
 7084W        W71017  27.974  31.951   2.718
 7085W        W71018   4.285  11.184  13.894
 7086W        W71019   5.927  14.812   2.229
 7087W        W71020   1.323   6.322  10.945
 7088W        W71021   8.739  29.429   0.446
 7089W        W71022   0.970   0.452   1.283
 7090W        W71023   7.305  30.014  14.000
 7091W        W71024  24.048  13.770  11.430
 7092W        W71025  32.563  21.743  10.926
 7093W        W71026  21.019  28.451  12.483
 7094W        W71027  39.010  14.340   3.717
 7095W        W71028  23.554  11.768  11.613
 7096W        W71029  16.077  10.688   4.803
 7097W        W71030  37.850  24.616   2.330
 7098W        W71031  18.614  25.098  14.429
 7099W        W71032  16.594  24.178  13.879
 7100W        W71033  44.923  16.199  12.850
 7101W        W71034  36.436  15.695  14.933
 7102W        W71035  19.228  25.166   2.263
 7103W        W71036  32.577  28.665  12.995
 7104W        W71037  41.031  41.788  14.910
 7105W        W71038  43.476   9.722  12.373
 7106W        W71039   9.821  27.500  13.472
 7107W        W71040   2.722   9.864  10.447
 7108W        W71041   5.702  44.449   4.600
 7109W        W71042  23.514  40.814   4.694
 7110W        W71043  44.907   5.834  12.915
 7111W        W71044  36.575  33.887  11.014
 7112W        W71045  10.784   7.229  14.384
 7113W        W71046  12.809  42.353  10.505
 7114W        W71047  41.412  32.530  10.519
 7115W        W71048   6.298  14.607   5.631
 7116W        W71049  39.815  15.700   1.703
 7117W        W71050  14.242   3.377   0.810
 7118W        W71051  33.955  37.867  13.810
 7119W        W71052  30.006   4.418  11.445
 7120W        W71053  25.181  15.121   2.785
 7121W        W71054  39.883  31.999   3.356
 7122W        W71055  27.035  23.544  11.437
 7123W        W71056  22.008   2.277  10.945
 7124W        W71057  21.106  44.308   0.471
 7125W        W71058  16.791  40.896   3.705
 7126W        W71059   5.768  12.739   3.343
 7127W        W71060  30.072  13.783  14.853
 7128W        W71061  42.462  35.012   0.407
 7129W        W71062  27.965  35.008   0.737
 7130W        W71063  22.648  21.094   4.301
 7131W        W71064  17.176   5.334  10.444
 7132W        W71065  24.988  38.563   3.733
 7133W        W71066  27.479  32.050  14.908
 7134W        W71067  27.632  42.384  12.908
 7135W        W71068  34.046  16.799  14.493
 7136W        W71069   6.862  32.448   3.260
 7137W        W71070  37.080  34.489  12.865
 7138W        W71071  18.050  16.597  11.575
 7139W        W71072  12.246  41.986   3.378
 7140W        W71073  24.055  16.650   0.825
 7141W        W71074  41.975  13.646   0.327
 7142W        W71075  39.434  40.873  14.796
 7143W        W71076   5.437  42.900   1.719
 7144W        W71077  27.950  14.279  12.023
 7145W        W71078  35.409  27.603  14.453
 7146W        W71079   9.348  32.945   0.902
 7147W        W71080  25.997  43.341  14.760
 7148W        W71081  34.056  36.071  11.979
 7149W        W71082  18.107  18.220   1.699
 7150W        W71083  35.091   7.205   5.096
 7151W        W71084  22.603  32.902  14.282
 7152W        W71085  37.991   2.467  13.367
 7153W        W71086   5.351   0.388   3.347
 7154W        W71087  14.602  28.031  13.052
 7155W        W71088  40.901  24.532   3.661
 7156W        W71089  42.914  37.494  13.492
 7157W        W71090  26.664  42.795   2.823
 7158W        W71091  10.746   2.736  12.823
 7159W        W71092   5.318  20.196  11.125
 7160W        W71093   3.896  23.034  11.593
 7161W        W71094  28.627  19.548   4.782
 7162W        W71095  40.327  12.648   4.332
 7163W        W71096  33.991   5.332  13.896
 7164W        W71097   8.824  16.778  11.972
 7165W        W71098  43.386  39.925  13.457
 7166W        W71099  24.045  27.665   3.339
 7167W        W71100  35.060  38.510  10.592
 7168W        W71101  40.422  42.294  14.277
 7169W        W71102  27.130   7.809   1.276
 7170W        W71103  14.274   9.210   2.665
 7171W        W71104   5.727  10.345   4.187
 7172W        W71105  28.160  14.736  10.522
 7173W        W71106  12.234  31.009   3.708
 7174W        W71107  14.791  32.501  11.067
 7175W        W71108  13.633  16.594   2.696
 7176W        W71109  34.946   5.334  13.544
 7177W        W71110   4.301  17.271   0.736
 7178W        W71111  20.122  18.596   2.850
 7179W        W71112  30.643   8.239   3.180
 7180W        W71113  12.836  42.973   4.203
 7181W        W71114  11.646  29.956  11.944
 7182W        W71115  16.807   8.898   3.761
 7183W        W71116  31.106  37.917  13.798
 7184W        W71117  29.103  25.157   0.783
 7185W        W71118  13.199   8.753   4.605
 7186W        W71119  40.544   5.302  11.882
 7187W        W71120  16.686  44.267  12.891
 7188W        W71121  25.976  13.282  14.883
 7189W        W71122  22.035  25.087  12.983
 7190W        W71123  13.178  26.026   2.848
 7191W        W71124  36.035  13.233  13.375
 7192W        W71125  29.570  23.549   2.237
 7193W        W71126  35.015  42.033   4.638
 7194W        W71127  22.102  28.112   4.677
 7195W        W71128  42.902  34.430   9.482
 7196W        W71129   5.768   2.958   4.190
 7197W        W71130  10.379  42.448  12.530
 7198W        W71131  41.336  25.505  10.988
 7199W        W71132  29.637   3.238  11.610
 7200W        W71133  35.971   7.813  12.830
 7201W        W71134  35.447  43.923  11.442
 7202W        W71135   6.280  37.901  11.031
 7203W        W71136  19.205   9.253  13.855
 7204W        W71137  17.745  24.535   3.338
 7205W        W71138  41.042  42.781   2.395
 7206W        W71139  10.710  24.638   2.319
 7207W        W71140  41.486  15.673  12.546
 7208W        W71141  18.636  39.941   1.804
 7209W        W71142   4.369  26.540   9.471
 7210W        W71143   8.786  39.554   3.651
 7211W        W71144  22.213  32.950   3.329
 7212W        W71145  25.668  24.180  12.995
 7213W        W71146  33.025   6.198  10.913
 7214W        W71147  31.123  17.306   1.365
 7215W        W71148  41.808  29.165   1.347
 7216W        W71149  43.284  25.099   2.219
 7217W        W71150  20.141  11.264  11.390
 7218W        W71151  34.956  15.188  11.103
 7219W        W71152  18.136  36.952   0.906
 7220W        W71153  12.129  10.275   3.711
 7221W        W71154  42.350   7.189  12.385
 7222W        W71155  34.612  24.183  12.570
 7223W        W71156  22.014   9.155   9.982
 7224W        W71157   9.786  22.029  11.403
 7225W        W71158  13.603   4.347   3.827
 7226W        W71159  14.650  12.210  11.548
 7227W        W71160  34.004  10.681   1.728
 7228W        W71161  31.466  24.583   0.314
 7229W        W71162  13.662   8.687  13.947
 7230W        W71163  29.098  34.549   2.410
 7231W        W71164  36.855  22.100  12.496
 7232W        W71165  21.130  19.617   1.312
 7233W        W71166  33.999  18.120  11.862
 7234W        W71167  10.730  29.089   0.896
 7235W        W71168  43.020  19.071   0.938
 7236W        W71169  20.131   6.333  12.503
 7237W        W71170  21.246  14.229  12.025
 7238W        W71171  26.094  24.508   3.266
 7239W        W71172   6.355  29.631   1.857
 7240W        W71173  41.341   8.835  13.366
 7241W        W71174  17.152  27.105  12.831
 7242W        W71175  29.107   9.831   1.253
 7243W        W71176   4.802  40.961  13.938
 7244W        W71177  25.521  23.037  14.413
 7245W        W71178  14.231  36.555   4.633
 7246W        W71179  36.452  42.000  11.577
 7247W        W71180  41.919  44.491   5.089
 7248W        W71181  12.283  12.252   4.284
 7249W        W71182  13.274   0.976   2.792
 7250W        W71183  38.373   4.891  11.946
 7251W        W71184  33.010   9.268   3.847
 7252W        W71185   7.349  12.306   3.736
 7253W        W71186  29.644   9.657  12.558
 7254W        W71187  27.185   9.682  12.391
 7255W        W71188  34.927  20.628  14.450
 7256W        W71189  20.261  13.777   2.272
 7257W        W71190  41.499   8.372  10.555
 7258W        W71191  32.910  40.944  12.548
 7259W        W71192   0.867  13.654   3.789
 7260W        W71193   9.762  25.501   1.725
 7261W        W71194  13.329  14.803  10.589
 7262W        W71195  31.990  31.447   4.681
 7263W        W71196  44.276   1.265  12.905
 7264W        W71197  35.497  17.106  14.447
 7265W        W71198  11.203  18.716  12.010
 7266W        W71199  25.140  22.535   2.797
 7267W        W71200  11.136   4.843   0.455
 7268W        W71201   9.777  20.719  12.061
 7269W        W71202  14.772  23.219  10.935
 7270W        W71203  42.954  19.104  11.117
 7271W        W71204  41.480  41.490   2.227
 7272W        W71205  37.964  25.083  12.528
 7273W        W71206  21.170  14.149   1.901
 7274W        W71207   7.768  27.961  10.500
 7275W        W71208  38.502  20.561  14.500
 7276W        W71209  19.547  29.989  10.095
 7277W        W71210  37.373  37.028   0.410
 7278W        W71211  33.396  30.126   9.956
 7279W        W71212  28.026  21.742   2.327
 7280W        W71213  44.385  18.247  13.375
 7281W        W71214  13.188  42.361   0.844
 7282W        W71215  20.746  25.692   3.327
 7283W        W71216   7.877  30.554   2.343
 7284W        W71217  21.740  15.255   3.157
 7285W        W71218  37.041  20.621   0.346
 7286W        W71219  11.296  14.768  13.812
 7287W        W71220  20.150   3.267  14.794
 7288W        W71221   2.358  34.519  12.963
 7289W        W71222  34.470   3.734  10.904
 7290W        W71223  37.979  32.028   4.628
 7291W        W71224  20.554  12.201  13.994
 7292W        W71225  32.399  31.590  12.825
 7293W        W71226   6.246  11.161  14.421
 7294W        W71227  12.335   6.720   2.410
 7295W        W71228  43.978  28.014   0.468
 7296W        W71229   8.866   8.735   0.854
 7297W        W71230  15.301   2.856   0.781
 7298W        W71231  25.598  33.620   2.201
 7299W        W71232  10.667   3.783  11.430
 7300W        W71233  36.522  12.132  11.858
 7301W        W71234   4.757  10.825   4.639
 7302W        W71235  16.289  43.825  12.920
 7303W        W71236  10.346  19.239   3.643
 7304W        W71237  20.130   7.858  12.422
 7305W        W71238  21.638  34.064   0.247
 7306W        W71239  28.959  34.070   2.272
 7307W        W71240   3.908  42.808  11.434
 7308W        W71241  38.567  10.251  12.889
 7309W        W71242  35.516  17.773  11.124
 7310W        W71243  30.577  23.191  12.911
 7311W        W71244  10.654  31.075   4.823
 7312W        W71245  17.738  10.314  13.362
 7313W        W71246  43.945  14.225   2.229
 7314W        W71247  35.893  10.299   1.281
 7315W        W71248  23.505  28.619   0.808
 7316W        W71249  10.771  40.926  11.941
 7317W        W71250  16.201  33.463   4.684
 7318W        W71251  11.803  10.205  12.546
 7319W        W71252  42.919  19.679   2.196
 7320W        W71253   8.326   5.884  11.894
 7321W        W71254  26.699   7.808  12.342
 7322W        W71255  30.016  14.248  11.537
 7323W        W71256  38.404  16.084   4.196
 7324W        W71257  29.972  40.816   1.338
 7325W        W71258  31.956  36.923   0.250
 7326W        W71259  38.859   7.257   3.793
 7327W        W71260  43.986  10.154  13.968
 7328W        W71261  42.905  34.533   5.098
 7329W        W71262  44.373  23.131   0.407
 7330W        W71263  19.600   6.778   4.649
 7331W        W71264  21.222   5.236  11.552
 7332W        W71265  17.245  14.688  10.547
 7333W        W71266  14.705  21.649  14.431
 7334W        W71267  21.264  20.046   0.269
 7335W        W71268   6.275  41.834   0.807
 7336W        W71269   8.277  22.693  11.934
 7337W        W71270  18.099  17.565   9.977
 7338W        W71271  17.240  23.599  14.395
 7339W        W71272  33.959  33.598   1.784
 7340W        W71273  35.951  43.900   3.642
 7341W        W71274  36.560  38.872   0.766
 7342W        W71275   7.299  36.503  14.373
 7343W        W71276  11.229  17.706  12.003
 7344W        W71277  44.754  42.394  14.423
 7345W        W71278  14.131  15.714   4.667
 7346W        W71279  19.090  24.621  11.390
 7347W        W71280   9.861  20.150  13.823
 7348W        W71281   4.939  44.824  13.060
 7349W        W71282  22.069  20.177  13.033
 7350W        W71283  21.634  38.418  14.397
 7351W        W71284  22.018  41.810  10.887
 7352W        W71285  28.131  16.188   1.316
 7353W        W71286  29.662  41.932  14.858
 7354W        W71287  16.627  43.801   0.323
 7355W        W71288  19.249   1.441   1.901
 7356W        W71289  38.398  41.874   2.246
 7357W        W71290  16.230   5.325  10.963
 7358W        W71291  41.021  24.576   2.778
 7359W        W71292   4.701  21.070   4.351
 7360W        W71293  19.575  38.461  11.506
 7361W        W71294   9.862  31.412  10.455
 7362W        W71295   8.812  15.658  10.423
 7363W        W71296  13.317   6.899   2.741
 7364W        W71297  27.596  44.275   0.951
 7365W        W71298  38.838  11.326   4.344
 7366W        W71299  33.397   6.716  13.823
 7367W        W71300  14.142  32.070  13.037
 7368W        W71301   5.893  42.504   2.773
 7369W        W71302   3.368  38.518  14.761
 7370W        W71303  14.124  25.691  11.989
 7371W        W71304  33.946  24.064   4.189
 7372W        W71305  19.235  13.802  13.450
 7373W        W71306  29.971  36.517  12.391
 7374W        W71307  11.246  32.465  13.846
 7375W        W71308  33.899  42.310  14.314
 7376W        W71309   8.833  43.951  14.962
 7377W        W71310  18.092  35.087  14.011
 7378W        W71311  25.597  17.714   2.240
 7379W        W71312   0.897  12.827  10.557
 7380W        W71313  37.957   2.363  10.475
 7381W        W71314  16.802  42.983  14.370
 7382W        W71315  41.011  41.969  11.957
 7383W        W71316  43.795  21.256   1.307
 7384W        W71317   6.886  12.332  14.988
 7385W        W71318  17.634  44.771  14.009
 7386W        W71319  33.111  16.092  10.542
 7387W        W71320   6.272  24.480  10.933
 7388W        W71321   9.757  35.994  14.803
 7389W        W71322   9.794   6.917  11.389
 7390W        W71323   1.464  36.582  14.420
 7391W        W71324   5.381  20.213   4.199
 7392W        W71325  29.942  31.534   4.689
 7393W        W71326  21.550   5.711   4.121
 7394W        W71327  38.468  35.038   2.709
 7395W        W71328  19.285  19.129  11.394
 7396W        W71329  11.765   6.263   2.191
 7397W        W71330  25.508  35.394   1.736
 7398W        W71331  23.131   3.807   1.445
 7399W        W71332  36.407  44.830  14.426
 7400W        W71333   7.373  44.379  13.984
 7401W        W71334  17.264  12.773  13.918
 7402W        W71335  39.450  23.140   3.780
 7403W        W71336  33.573  32.007   4.623
 7404W        W71337  25.160  41.329  12.980
 7405W        W71338   9.863  16.112   2.694
 7406W        W71339  15.661  11.733  13.822
 7407W        W71340  38.887  31.147  13.380
 7408W        W71341  21.750   3.725  12.893
 7409W        W71342  44.340  18.289  12.861
 7410W        W71343  42.933  31.995  12.031
 7411W        W71344   6.859  37.561  12.043
 7412W        W71345  22.521  17.588   0.740
 7413W        W71346  39.876  36.470  10.044
 7414W        W71347  12.681  35.543   3.751
 7415W        W71348  19.609  33.494   4.640
 7416W        W71349  37.547   4.418  13.890
 7417W        W71350  35.457  28.472   0.879
 7418W        W71351  12.220  24.184   1.369
 7419W        W71352   3.225  27.174   3.347
 7420W        W71353  35.087   9.389  13.904
 7421W        W71354  25.965   2.285  10.606
 7422W        W71355  17.228  13.843   0.824
 7423W        W71356  41.959  23.020   0.904
 7424W        W71357  41.421   7.796   2.889
 7425W        W71358  24.659  38.378  11.534
 7426W        W71359  27.460   1.850  11.906
 7427W        W71360  24.704  22.085  12.851
 7428W        W71361  41.907  24.139   4.735
 7429W        W71362  17.063  26.490   0.377
 7430W        W71363  11.718   3.222  13.974
 7431W        W71364  21.048  41.847   1.448
 7432W        W71365  12.747  19.735   2.301
 7433W        W71366  15.156   9.391  10.461
 7434W        W71367  42.328  41.885  13.322
 7435W        W71368  10.319  28.083  10.604
 7436W        W71369  30.058  25.126  12.352
 7437W        W71370  38.907  30.643   3.282
 7438W        W71371  17.703  30.932   3.642
 7439W        W71372  13.295  18.080  10.955
 7440W        W71373  34.467  29.066   4.229
 7441W        W71374  13.728  33.922   4.812
 7442W        W71375  26.137  17.172  13.853
 7443W        W71376   9.196   2.321   1.235
 7444W        W71377  26.025  25.618   2.896
 7445W        W71378  10.244  40.032   0.840
 7446W        W71379  31.609   2.321  11.036
 7447W        W71380  18.205  35.109   3.746
 7448W        W71381   7.378  28.548   1.895
 7449W        W71382  34.442   7.709   1.322
 7450W        W71383  25.550  17.117   1.801
 7451W        W71384  31.055  19.178  12.032
 7452W        W71385  15.780  38.068  12.545
 7453W        W71386  37.365   9.707  13.337
 7454W        W71387  30.986   0.409   9.993
 7455W        W71388  34.979  30.131  12.391
 7456W        W71389   3.356  13.169  11.970
 7457W        W71390  43.296   6.280   0.862
 7458W        W71391  10.339  29.152  11.097
 7459W        W71392   5.284  29.951  12.943
 7460W        W71393  32.040  25.561   5.205
 7461W        W71394  28.632  17.303  14.008
 7462W        W71395   3.300   8.163   0.324
 7463W        W71396   6.198  43.370  11.022
 7464W        W71397  40.376  33.964   3.249
 7465W        W71398  21.744  22.144   3.831
 7466W        W71399  16.076  30.588   3.707
 7467W        W71400  29.963  34.523   0.352
 7468W        W71401  38.427   5.413  10.465
 7469W        W71402  20.745  14.108   0.312
 7470W        W71403   4.839  41.492  12.524
 7471W        W71404  44.942  14.595   4.653
 7472W        W71405   6.739  20.636   2.388
 7473W        W71406  24.701  12.322   9.533
 7474W        W71407  38.016  30.519   0.449
 7475W        W71408   0.287  29.495   4.311
 7476W        W71409  29.931  29.107   2.820
 7477W        W71410   4.304  24.193   1.341
 7478W        W71411  11.768  27.956  11.390
 7479W        W71412  42.784  27.485  10.490
 7480W        W71413  23.178  12.770  12.573
 7481W        W71414  44.008  13.307   3.310
 7482W        W71415  40.039  42.837   3.198
 7483W        W71416  18.664  14.682   4.782
 7484W        W71417  14.833  28.029   2.810
 7485W        W71418  19.550  24.628  14.398
 7486W        W71419  24.022  33.389  12.870
 7487W        W71420  12.231  34.393   3.741
 7488W        W71421  24.630  35.109  14.486
 7489W        W71422  18.650  33.925   1.699
 7490W        W71423  33.889  39.978  14.836
 7491W        W71424  12.287  11.785  13.856
 7492W        W71425  40.380  28.667   0.967
 7493W        W71426  43.446  31.551  14.997
 7494W        W71427  19.610   1.829  12.006
 7495W        W71428  35.101   9.181   0.876
 7496W        W71429  44.359  12.831  14.335
 7497W        W71430   9.200  11.823  12.411
 7498W        W71431  24.128  19.237   1.230
 7499W        W71432  32.929  20.183  11.534
 7500W        W71433  29.480  26.481   2.378
 7501W        W71434  14.240  37.489  11.953
 7502W        W71435  10.837  18.560  11.111
 7503W        W71436  27.944  40.348   1.347
 7504W        W71437   8.660  29.927   4.779
 7505W        W71438  27.510  19.726   4.732
 7506W        W71439  16.195  24.539  10.413
 7507W        W71440  35.920   5.292   2.888
 7508W        W71441  29.116  29.089   3.218
 7509W        W71442  23.160  34.996  12.950
 7510W        W71443  25.214  37.529   0.911
 7511W        W71444  32.393  14.102  12.404
 7512W        W71445   1.237  44.844  13.805
 7513W        W71446   9.168  33.535   0.427
 7514W        W71447  44.788  44.801   2.203
 7515W        W71448   9.711  43.775  10.506
 7516W        W71449  33.496  19.205  12.552
 7517W        W71450  20.147  17.260   1.917
 7518W        W71451  36.410   5.405  11.532
 7519W        W71452  11.838  27.146  14.469
 7520W        W71453  29.120  23.995  13.840
 7521W        W71454  16.735  39.335  12.895
 7522W        W71455  29.521  17.122   1.357
 7523W        W71456  18.208   1.945   2.722
 7524W        W71457  22.178   0.421  11.978
 7525W        W71458   0.441  14.316  14.300
 7526W        W71459   6.249  15.626  13.897
 7527W        W71460  31.072  32.068   1.262
 7528W        W71461  13.764  30.910   3.699
 7529W        W71462  33.491  20.591  10.549
 7530W        W71463  17.297  19.153  13.000
 7531W        W71464  14.771  17.264   2.415
 7532W        W71465   6.300   3.445  13.003
 7533W        W71466  18.200  18.275   1.312
 7534W        W71467  32.086   4.740  12.345
 7535W        W71468  30.126  35.024   1.753
 7536W        W71469  29.598  18.726   0.859
 7537W        W71470   3.796   9.391   1.242
 7538W        W71471  32.938  34.881  10.518
 7539W        W71472  10.150   1.450   5.111
 7540W        W71473  26.530  18.163   2.357
 7541W        W71474   3.856  19.706   2.346
 7542W        W71475   6.724  10.159  10.121
 7543W        W71476  39.381   9.187   4.262
 7544W        W71477  28.681  41.790   4.702
 7545W        W71478  36.012   9.267  10.452
 7546W        W71479   3.295  44.261   4.266
 7547W        W71480  35.584  15.788  12.085
 7548W        W71481   4.353  13.691  14.512
 7549W        W71482   4.901  10.862   2.722
 7550W        W71483  22.014  32.586  12.956
 7551W        W71484  14.676   9.829   5.765
 7552W        W71485  21.521  11.251   2.193
 7553W        W71486   2.308   3.752  14.840
 7554W        W71487  31.411  36.930   1.717
 7555W        W71488  15.735  35.996   2.717
 7556W        W71489   3.865   3.901   3.779
 7557W        W71490  43.959  17.066  12.394
 7558W        W71491   9.174  34.603   0.812
 7559W        W71492  34.947  42.437   1.275
 7560W        W71493  43.921  44.848  10.438
 7561W        W71494   1.846  31.459  10.927
 7562W        W71495  38.368  27.560  11.987
 7563W        W71496  39.473  19.549   1.409
 7564W        W71497   6.714  21.661   0.876
 7565W        W71498  12.220  44.922  10.895
 7566W        W71499   6.248  26.599  10.516
 7567W        W71500  40.462  14.693  11.021
 7568W        W71501   3.370  27.096  11.108
 7569W        W71502  10.673  33.000  10.446
 7570W        W71503  27.048  31.995  11.404
 7571W        W71504  29.475  39.973   0.449
 7572W        W71505  29.981   8.358  14.008
 7573W        W71506  24.068  44.841   1.872
 7574W        W71507  24.166  42.867   0.889
 7575W        W71508  12.835  37.865  11.124
 7576W        W71509  16.609  40.353  13.951
 7577W        W71510  29.545  16.742   0.387
 7578W        W71511   7.331   1.331   2.682
 7579W        W71512  17.066   6.286  13.434
 7580W        W71513  11.822  14.742  13.395
 7581W        W71514  42.020  36.918  12.950
 7582W        W71515  41.840  44.433  10.430
 7583W        W71516  24.611   3.914  10.929
 7584W        W71517  33.940   2.326  10.922
 7585W        W71518  43.864   6.701  11.549
 7586W        W71519   6.406  16.566   3.215
 7587W        W71520  32.624  22.505   2.875
 7588W        W71521  24.515  32.965  14.959
 7589W        W71522  28.590  17.685  12.032
 7590W        W71523  19.094  23.682  12.076
 7591W        W71524   8.795  14.780  14.488
 7592W        W71525  19.618  26.120   3.234
 7593W        W71526   3.417  44.899   4.345
 7594W        W71527  17.215  38.001   4.666
 7595W        W71528  23.159  41.875   0.306
 7596W        W71529  24.569  12.798   1.351
 7597W        W71530  22.111  18.243  13.810
 7598W        W71531  16.284  44.292   3.381
 7599W        W71532  44.314   7.374  12.524
 7600W        W71533  17.188  41.490  11.885
 7601W        W71534   0.848  33.518   3.185
 7602W        W71535  35.068  44.976  14.358
 7603W        W71536  36.461  40.364  13.319
 7604W        W71537  23.061  14.802  13.979
 7605W        W71538   7.214  10.696  12.870
 7606W        W71539  10.316  38.551  12.088
 7607W        W71540  38.002   6.747   2.723
 7608W        W71541  43.879  21.741  13.501
 7609W        W71542  44.330  38.471  11.412
 7610W        W71543  19.586  41.940   3.762
 7611W        W71544   4.217   8.748   3.183
 7612W        W71545  44.378  39.909   4.162
 7613W        W71546  26.702  37.534   2.244
 7614W        W71547  29.434   1.903  13.937
 7615W        W71548  27.522  10.731   3.748
 7616W        W71549  36.355  36.349   2.741
 7617W        W71550  32.448  32.094   2.678
 7618W        W71551   4.780  43.870   0.264
 7619W        W71552  24.581  17.106   4.703
 7620W        W71553   7.839  41.947   1.795
 7621W        W71554   1.977  39.932   1.443
 7622W        W71555  13.125  42.877  14.970
 7623W        W71556  25.204  25.037  12.035
 7624W        W71557  25.120  31.500  13.455
 7625W        W71558  14.801  25.634   4.670
 7626W        W71559  16.300  30.593   0.794
 7627W        W71560  29.148  20.683   0.966
 7628W        W71561   0.284  22.178  11.961
 7629W        W71562  11.848   9.376   4.714
 7630W        W71563  38.511  21.243  14.467
 7631W        W71564  17.299  22.010   3.711
 7632W        W71565   9.262   4.326   1.431
 7633W        W71566  21.149  44.971   1.901
 7634W        W71567  43.383  44.772   4.768
 7635W        W71568   1.246  19.619  11.601
 7636W        W71569  39.344  18.759  10.571
 7637W        W71570  40.903  39.494   4.229
 7638W        W71571   0.288   7.729   4.344
 7639W        W71572   6.193  42.854   0.843
 7640W        W71573  21.543  28.498   1.780
 7641W        W71574   4.271  23.069  13.495
 7642W        W71575  33.053   2.815  14.309
 7643W        W71576  23.716  38.869  13.327
 7644W        W71577  30.555   3.461  13.910
 7645W        W71578   9.696  12.724  13.368
 7646W        W71579  34.093   0.467  12.075
 7647W        W71580   1.843  25.628  12.354
 7648W        W71581  30.918  23.607   3.841
 7649W        W71582  12.746  33.026   1.416
 7650W        W71583  42.854   2.289  11.480
 7651W        W71584  19.696  26.661   1.378
 7652W        W71585   6.828  19.542   1.725
 7653W        W71586  35.491  42.857   2.832
 7654W        W71587  32.980  15.630   0.363
 7655W        W71588  44.970  33.554  12.379
 7656W        W71589  19.746  13.233  13.483
 7657W        W71590  18.655  33.506   4.122
 7658W        W71591  28.590  20.586  11.100
 7659W        W71592   4.324  35.034  12.959
 7660W        W71593  36.497  33.040  11.046
 7661W        W71594  43.365  43.302   2.837
 7662W        W71595   8.895   4.397  10.943
 7663W        W71596  10.645  16.620   2.781
 7664W        W71597   9.705   3.781   4.737
 7665W        W71598   7.710  15.796   1.729
 7666W        W71599  23.201   4.738  11.046
 7667W        W71600   8.769  34.981   5.228
 7668W        W71601   0.759  44.009   3.663
 7669W        W71602  40.503  34.512   1.834
 7670W        W71603  30.464   8.699  11.374
 7671W        W71604  24.583  31.515   4.802
 7672W        W71605  31.487  39.001  12.409
 7673W        W71606  41.307  32.073   5.282
 7674W        W71607  38.462   8.732   0.933
 7675W        W71608  20.662  25.698  10.981
 7676W        W71609  18.213  21.721  10.534
 7677W        W71610  32.592  20.192   0.774
 7678W        W71611  42.855   2.384  12.841
 7679W        W71612  36.994  13.220   2.350
 7680W        W71613   6.848  28.117   1.265
 7681W        W71614   9.872  40.034   3.811
 7682W        W71615  20.659  25.060   4.318
 7683W        W71616  27.523  25.619  13.815
 7684W        W71617  39.486  42.399  14.375
 7685W        W71618   1.890  33.894  11.388
 7686W        W71619  32.122  12.712  10.559
 7687W        W71620  26.693  30.448   1.783
 7688W        W71621  12.689  11.647   4.143
 7689W        W71622  19.578  25.071  11.969
 7690W        W71623  39.519   8.785  12.087
 7691W        W71624  37.857   0.766   4.786
 7692W        W71625   6.907  25.962  12.936
 7693W        W71626  42.400  15.599  12.865
 7694W        W71627  30.141  41.406   3.732
 7695W        W71628  35.096   1.266  12.575
 7696W        W71629   1.469   8.401   3.753
 7697W        W71630  20.049  44.776   4.323
 7698W        W71631  28.543  27.536   1.348
 7699W        W71632  44.295   0.840  14.890
 7700W        W71633  24.544   6.344  12.443
 7701W        W71634   2.333   8.751   2.410
 7702W        W71635  37.985  20.139   1.788
 7703W        W71636   6.917  41.974  12.933
 7704W        W71637  10.378  11.794   4.835
 7705W        W71638  24.011  21.710  10.932
 7706W        W71639  31.115  14.327  13.376
 7707W        W71640  41.980   1.303  14.930
 7708W        W71641  17.756  32.572   4.155
 7709W        W71642  19.737  36.353   0.923
 7710W        W71643  21.686  15.264   2.292
 7711W        W71644  41.849  11.787   4.826
 7712W        W71645   2.369   7.890   1.344
 7713W        W71646  14.767   2.250  10.927
 7714W        W71647  10.298   4.302   1.816
 7715W        W71648  43.978  27.114   4.214
 7716W        W71649  37.575  14.219   2.779
 7717W        W71650  10.280  29.504  10.608
 7718W        W71651   7.724   9.684  11.420
 7719W        W71652  35.953  24.217  13.884
 7720W        W71653   0.290  16.651  14.378
 7721W        W71654   5.246  36.362   2.698
 7722W        W71655  43.852  31.055  10.900
 7723W        W71656   1.844  17.630  14.310
 7724W        W71657  28.435  35.601  13.383
 7725W        W71658  39.998   4.439  13.907
 7726W        W71659  19.701  30.065  13.950
 7727W        W71660   8.371   5.740   5.136
 7728W        W71661  41.934  42.981  13.815
 7729W        W71662  23.500  27.522   4.238
 7730W        W71663  16.289  12.643   1.887
 7731W        W71664  18.547  34.960  13.475
 7732W        W71665  41.454  28.592  13.382
 7733W        W71666   6.215  24.982   0.941
 7734W        W71667  31.098   1.975  11.061
 7735W        W71668  21.260  10.377  13.042
 7736W        W71669  10.287   5.328  12.835
 7737W        W71670  40.798   9.302   1.450
 7738W        W71671  11.726  31.618  11.611
 7739W        W71672  43.374  23.138  12.555
 7740W        W71673  42.392   0.359  11.588
 7741W        W71674  16.793  29.918   1.829
 7742W        W71675  11.280  18.103  11.535
 7743W        W71676   2.809  24.123   2.898
 7744W        W71677  32.032  16.283   3.655
 7745W        W71678  21.674  36.500  13.024
 7746W        W71679  41.363   1.281  10.602
 7747W        W71680  38.988  38.821  10.557
 7748W        W71681  10.754  33.052   1.374
 7749W        W71682   2.967  25.632   4.251
 7750W        W71683  29.942  31.545  13.469
 7751W        W71684  39.918   8.779  12.951
 7752W        W71685  28.514  18.682   3.232
 7753W        W71686  42.452  16.698  11.430
 7754W        W71687  42.477  39.348   4.331
 7755W        W71688  32.046  22.073  11.509
 7756W        W71689   9.696   3.265   1.392
 7757W        W71690  20.251  35.855   5.206
 7758W        W71691  13.818  14.660  10.428
 7759W        W71692  14.681   3.814   9.927
 7760W        W71693  27.446  28.147   3.191
 7761W        W71694  39.373   8.786  14.977
 7762W        W71695   6.280  42.908  12.534
 7763W        W71696  44.318  17.710  14.873
 7764W        W71697  40.359  31.928   3.338
 7765W        W71698  41.989   0.951   1.356
 7766W        W71699   7.416  17.100  11.873
 7767W        W71700  34.001   3.847  10.405
 7768W        W71701  32.999  22.652   4.782
 7769W        W71702  30.550  30.931  14.806
 7770W        W71703  22.701  23.235   3.283
 7771W        W71704  21.599  28.065   3.854
 7772W        W71705  17.671  28.650  12.933
 7773W        W71706  37.486   6.348  12.836
 7774W        W71707  39.434  23.043   1.291
 7775W        W71708  27.525  39.934  11.380
 7776W        W71709  22.174  36.986   0.264
 7777W        W71710   2.390  15.186   1.376
 7778W        W71711   0.795  41.934   3.339
 7779W        W71712   5.260  33.007   1.894
 7780W        W71713  18.732  41.464  14.966
 7781W        W71714  40.054  11.622   3.212
 7782W        W71715  27.685   8.218  10.633
 7783W        W71716   5.866  17.249   4.645
 7784W        W71717  42.504   3.830  11.890
 7785W        W71718   0.777  21.711  11.062
 7786W        W71719   4.732  11.761   2.195
 7787W        W71720  35.392  15.660  13.004
 7788W        W71721  13.239  18.750   1.798
 7789W        W71722  26.464   7.711  14.955
 7790W        W71723  31.465  24.584  11.998
 7791W        W71724  19.252  42.444   4.301
 7792W        W71725  22.192  28.089  13.400
 7793W        W71726  28.476   1.840  12.866
 7794W        W71727  22.709  30.162  12.082
 7795W        W71728   5.322   5.863  13.863
 7796W        W71729  16.096  44.503  11.910
 7797W        W71730  26.520  28.447  14.366
 7798W        W71731   0.315  32.461  13.332
 7799W        W71732  18.779  40.845   0.898
 7800W        W71733   6.901  22.176  12.865
 7801W        W71734  35.976  40.923   0.803
 7802W        W71735  14.656  44.306   4.790
 7803W        W71736  20.149  15.308   3.752
 7804W        W71737  14.210   7.725  14.802
 7805W        W71738  30.657  24.482   1.362
 7806W        W71739  18.672  18.684   1.828
 7807W        W71740   6.756  31.551   2.773
 7808W        W71741  13.685   9.183   4.741
 7809W        W71742  30.032  10.314  12.825
 7810W        W71743  26.089  41.423  10.557
 7811W        W71744   8.673  41.322   0.748
 7812W        W71745  28.972   2.772   0.899
 7813W        W71746  12.154  22.126   4.138
 7814W        W71747  31.978  15.774  11.606
 7815W        W71748  40.024  41.453  12.007
 7816W        W71749  30.484  37.501   2.216
 7817W        W71750  41.322  35.518   2.872
 7818W        W71751   2.394  22.627   0.369
 7819W        W71752   9.778  36.928  12.024
 7820W        W71753  16.794  22.705   3.243
 7821W        W71754  16.693  26.635   0.451
 7822W        W71755  19.109  21.148  13.404
 7823W        W71756  20.620  41.298   4.657
 7824W        W71757   9.257   1.799   2.809
 7825W        W71758  11.332  22.744   4.612
 7826W        W71759  24.597  20.763   3.149
 7827W        W71760  36.879  13.675  11.870
 7828W        W71761  22.722   2.841   2.400
 7829W        W71762  15.297  23.018  14.463
 7830W        W71763   8.672  36.539   1.917
 7831W        W71764  13.167  18.710   1.406
 7832W        W71765  20.143   5.401  12.870
 7833W        W71766  31.015  35.087  14.807
 7834W        W71767  42.373  31.101  12.528
 7835W        W71768  24.187  19.571  11.064
 7836W        W71769  44.375   3.312   1.446
 7837W        W71770  24.016  42.020  13.943
 7838W        W71771  13.273  13.296  14.817
 7839W        W71772  30.053  16.186   4.262
 7840W        W71773  21.116  29.949   1.750
 7841W        W71774  14.681   1.789   3.809
 7842W        W71775  30.559  13.345   1.729
 7843W        W71776  17.688  19.273   1.412
 7844W        W71777  21.670  41.452   4.741
 7845W        W71778  14.327  28.492   2.697
 7846W        W71779  30.619  22.042   0.815
 7847W        W71780  31.422  27.191  10.930
 7848W        W71781  37.853  17.071  10.494
 7849W        W71782  29.006  26.647  11.049
 7850W        W71783  22.541  17.141  11.523
 7851W        W71784  39.922  37.480  11.454
 7852W        W71785  38.025  26.669  10.937
 7853W        W71786  41.337  33.546   0.930
 7854W        W71787  10.703  42.524   3.633
 7855W        W71788  33.033  10.322  14.016
 7856W        W71789  21.141   8.772   2.332
 7857W        W71790  27.603  34.571  14.772
 7858W        W71791  35.541  37.853  11.457
 7859W        W71792  28.992  19.546  12.449
 7860W        W71793   6.355  10.149   2.194
 7861W        W71794  12.837  38.482   0.340
 7862W        W71795   4.300   7.387   2.227
 7863W        W71796  43.995  11.150  11.518
 7864W        W71797  41.532  38.382   0.475
 7865W        W71798   6.272  11.663  13.867
 7866W        W71799  19.586   1.777   0.307
 7867W        W71800   8.302  42.799  10.561
 7868W        W71801  18.559  39.962  14.277
 7869W        W71802  42.806  22.559  12.847
 7870W        W71803  18.240  42.400  11.586
 7871W        W71804  36.383  15.136  12.012
 7872W        W71805  41.367   4.421   2.796
 7873W        W71806  22.631  19.619   3.226
 7874W        W71807   5.908  28.447   4.169
 7875W        W71808   2.401  17.786   0.270
 7876W        W71809  11.648   3.921  13.900
 7877W        W71810  15.154  38.380   0.412
 7878W        W71811   1.280  28.580   4.633
 7879W        W71812  41.901  28.028  12.941
 7880W        W71813  10.864   5.813   2.721
 7881W        W71814  35.071  10.376  10.521
 7882W        W71815  22.202   1.792   4.611
 7883W        W71816  13.667  28.661   3.154
 7884W        W71817  30.606  44.383  11.471
 7885W        W71818  26.041  13.154  13.452
 7886W        W71819  36.866   6.342  11.977
 7887W        W71820  14.121   2.368   0.310
 7888W        W71821  22.048  29.474   0.336
 7889W        W71822  28.134   0.392  12.854
 7890W        W71823  20.233  18.784  14.869
 7891W        W71824  17.097  38.931  14.333
 7892W        W71825  20.235  25.468  14.308
 7893W        W71826  25.479  17.708   4.151
 7894W        W71827  28.610  17.763  12.870
 7895W        W71828  44.991  15.718   4.790
 7896W        W71829  42.868   7.786  13.362
 7897W        W71830  16.646   8.830   0.909
 7898W        W71831  35.987  10.715   2.211
 7899W        W71832  42.957  26.204  10.948
 7900W        W71833   2.934   6.294  13.059
 7901W        W71834  28.621   4.386  13.829
 7902W        W71835  23.064  40.474   2.886
 7903W        W71836   8.890  31.480  12.053
 7904W        W71837  34.503  19.242  14.829
 7905W        W71838  19.714  36.462  12.891
 7906W        W71839   6.882  21.620  13.045
 7907W        W71840  21.643  19.147   2.240
 7908W        W71841  30.929  37.521  10.470
 7909W        W71842   3.270  20.209  12.463
 7910W        W71843  37.916   0.749  10.553
 7911W        W71844   8.171  10.231  10.596
 7912W        W71845  26.690   7.764   1.223
 7913W        W71846  36.550  11.802  12.441
 7914W        W71847  16.661   3.830  14.962
 7915W        W71848  42.922  19.750  11.922
 7916W        W71849  31.507  37.484  14.983
 7917W        W71850  40.502  40.861  14.441
 7918W        W71851  17.213   1.325   1.298
 7919W        W71852  32.005  25.532   0.313
 7920W        W71853  34.933   3.871  14.514
 7921W        W71854  14.746  42.445  14.416
 7922W        W71855  42.337  21.190  13.513
 7923W        W71856   6.756  21.712  10.417
 7924W        W71857  33.121  13.828   1.855
 7925W        W71858   0.387  42.815   0.358
 7926W        W71859  28.620  34.047   3.773
 7927W        W71860  11.713  37.398  14.881
 7928W        W71861   2.805   4.868  13.809
 7929W        W71862  31.148   4.942   2.774
 7930W        W71863  12.181  34.426  14.388
 7931W        W71864   7.319   9.178  13.025
 7932W        W71865   8.779   3.837  12.838
 7933W        W71866   1.456   5.333  10.923
 7934W        W71867   3.843   8.784   1.880
 7935W        W71868  25.503  30.003   2.713
 7936W        W71869   9.822  18.246  13.949
 7937W        W71870  19.590  25.154  12.379
 7938W        W71871  39.334   6.252  13.420
 7939W        W71872   0.923   2.465  14.876
 7940W        W71873  40.353  26.682   2.272
 7941W        W71874  24.506  27.678   2.229
 7942W        W71875  11.301  44.943   3.755
 7943W        W71876   5.248  33.901  10.955
 7944W        W71877   1.329  16.712   0.958
 7945W        W71878  37.882   8.192   2.352
 7946W        W71879  31.966   3.794  12.070
 7947W        W71880  33.462   7.328  13.538
 7948W        W71881  35.540   1.357   1.401
 7949W        W71882  13.326  39.985   4.664
 7950W        W71883  12.688  32.007  12.504
 7951W        W71884  12.615  32.481   4.610
 7952W        W71885  43.846  40.439   4.281
 7953W        W71886  32.913  22.540   0.367
 7954W        W71887  33.067  19.691  14.961
 7955W        W71888  27.463  13.702  13.853
 7956W        W71889  36.930  39.927   3.164
 7957W        W71890  19.228  43.353  12.893
 7958W        W71891  13.226  42.293   1.419
 7959W        W71892  14.340  42.867  10.157
 7960W        W71893  10.158  13.183  12.840
 7961W        W71894  29.569  12.688   9.936
 7962W        W71895  23.537  14.302  14.779
 7963W        W71896  25.112   0.861   4.688
 7964W        W71897  44.918  13.191   2.730
 7965W        W71898  28.028  28.031  11.548
 7966W        W71899  27.501  10.173  10.587
 7967W        W71900  29.154   5.211   2.849
 7968W        W71901  13.826   0.266  12.486
 7969W        W71902  40.865  42.360   0.929
 7970W        W71903  20.548  37.040  11.903
 7971W        W71904  21.705  33.087  10.639
 7972W        W71905  12.298   2.962   0.355
 7973W        W71906  21.102  10.778  11.106
 7974W        W71907  39.314  25.206  11.426
 7975W        W71908  10.268   1.305   2.663
 7976W        W71909   0.268  14.689   2.790
 7977W        W71910  35.980   5.906   0.247
 7978W        W71911  38.557  33.959  11.031
 7979W        W71912   7.242   4.895   2.839
 7980W        W71913   4.940  20.612   0.402
 7981W        W71914  42.937  17.588  14.949
 7982W        W71915  12.648  15.302   3.293
 7983W        W71916  20.745   9.715   2.892
 7984W        W71917  22.547  19.241  11.993
 7985W        W71918  21.200  40.846   0.361
 7986W        W71919   8.200   5.241  10.969
 7987W        W71920  42.499  12.700  13.039
 7988W        W71921  22.193  15.759  12.838
 7989W        W71922  21.239  17.724   0.247
 7990W        W71923  31.010  21.698  13.878
 7991W        W71924  24.024  43.845   1.759
 7992W        W71925  15.627   0.888   5.168
 7993W        W71926  32.074  10.180   2.404
 7994W        W71927  33.114   4.809  14.816
 7995W        W71928  44.404  22.628  13.422
 7996W        W71929  14.200  38.478  13.928
 7997W        W71930  42.009  33.897  11.028
 7998W        W71931  10.815  27.548  13.374
 7999W        W71932  32.604   5.196  14.941
 8000W        W71933  33.028  33.992   4.680
 8001W        W71934   2.357  15.285  11.566
 8002W        W71935  42.032  17.752   4.154
 8003W        W71936   3.434   8.371   2.670
 8004W        W71937  39.883   3.792   0.373
 8005W        W71938   6.733  40.873  13.823
 8006W        W71939  43.773  32.583  13.436
 8007W        W71940  43.493  20.617   4.134
 8008W        W71941   2.950  32.401   0.791
 8009W        W71942  16.307  43.925   4.662
 8010W        W71943  28.079  27.035   2.664
 8011W        W71944   1.418  42.986   3.726
 8012W        W71945  30.948  31.130   1.847
 8013W        W71946  43.368   3.732  14.900
 8014W        W71947   9.322  21.556  14.797
 8015W        W71948  44.492   8.759  14.915
 8016W        W71949   2.237  43.992   2.358
 8017W        W71950  34.472  10.820   1.769
 8018W        W71951   1.779  10.291   4.704
 8019W        W71952  33.402  36.065   2.672
 8020W        W71953   0.374   1.465   2.872
 8021W        W71954  18.629   0.461  13.324
 8022W        W71955  14.301   8.709  14.810
 8023W        W71956   4.286  26.034   2.819
 8024W        W71957   9.786  30.480  13.854
 8025W        W71958   3.305   9.209  12.071
 8026W        W71959  40.891  44.301  11.055
 8027W        W71960  32.970  39.549   4.273
 8028W        W71961  30.620  24.147   3.651
 8029W        W71962  22.006  41.018  12.371
 8030W        W71963  21.545   0.928  14.845
 8031W        W71964  15.777   2.251   1.752
 8032W        W71965  25.090   0.775   4.200
 8033W        W71966  19.538   6.705  14.841
 8034W        W71967   0.762   4.342  13.357
 8035W        W71968  41.957  43.917   1.828
 8036W        W71969  29.616  31.405  13.985
 8037W        W71970   1.407   5.350  12.416
 8038W        W71971  13.832   9.327   3.825
 8039W        W71972  43.367  39.524  14.835
 8040W        W71973  41.935  40.371   1.931
 8041W        W71974  31.990  15.252  10.930
 8042W        W71975   5.754   4.228   3.637
 8043W        W71976  27.583  32.498   1.914
 8044W        W71977  25.619   2.914  13.887
 8045W        W71978  41.472  20.529  14.480
 8046W        W71979  33.991  43.510  12.492
 8047W        W71980  17.687  22.709  13.352
 8048W        W71981  41.538  16.653   0.335
 8049W        W71982  41.433  12.140   0.414
 8050W        W71983  37.841  31.046   4.291
 8051W        W71984  30.070   1.332  13.956
 8052W        W71985  14.773  12.344  14.939
 8053W        W71986   0.279  28.987   2.186
 8054W        W71987  35.917   8.228  13.851
 8055W        W71988  38.948  40.419   2.698
 8056W        W71989   9.662  10.853  11.895
 8057W        W71990  27.947   7.907  12.480
 8058W        W71991  10.195  29.512  12.065
 8059W        W71992  33.566  10.374  13.040
 8060W        W71993  22.164  21.753   4.303
 8061W        W71994  13.153   3.756   1.869
 8062W        W71995  10.715  44.975   1.442
 8063W        W71996  12.255  21.568  14.761
 8064W        W71997  12.240  35.491  13.002
 8065W        W71998  24.636  22.036   2.677
 8066W        W71999   7.818  10.327   4.202
 8067W        W72000  37.362   8.343  14.503
 8068W        W72001  32.391  38.838  11.529
 8069W        W72002   3.432  33.026  12.883
 8070W        W72003  10.372  16.212  13.923
 8071W        W72004  20.653  11.794  11.998
 8072W        W72005  10.723  44.964  12.048
 8073W        W72006   5.207  40.959   2.233
 8074W        W72007  10.797  10.308   1.825
 8075W        W72008   2.417  42.945   2.250
 8076W        W72009  39.450  34.929   4.135
 8077W        W72010   0.446  39.857  11.416
 8078W        W72011  44.456  10.701   0.774
 8079W        W72012  40.850   7.178  10.639
 8080W        W72013  30.582  19.257   2.237
 8081W        W72014   6.892  17.743   2.243
 8082W        W72015  26.147  17.297  11.097
 8083W        W72016  44.862  35.485   3.705
 8084W        W72017  37.361  26.480   2.273
 8085W        W72018  21.119  43.882   2.722
 8086W        W72019  16.163  28.079   0.345
 8087W        W72020  42.356  14.224   0.870
 8088W        W72021   1.966  31.628   1.250
 8089W        W72022  16.674  22.547   1.431
 8090W        W72023   8.844  32.901   0.388
 8091W        W72024  38.362  28.565  14.324
 8092W        W72025  20.189  25.624  11.552
 8093W        W72026  10.359  31.002   2.844
 8094W        W72027  11.223   7.837   0.453
 8095W        W72028  38.947   3.290   2.841
 8096W        W72029  38.434  14.597  14.513
 8097W        W72030  34.387  25.991   0.301
 8098W        W72031  23.014   5.844  13.990
 8099W        W72032  35.400  13.777   4.823
 8100W        W72033  43.977  42.791  10.480
 8101W        W72034  17.200   8.234  12.471
 8102W        W72035  15.745  35.512   3.680
 8103W        W72036  43.873  41.952   4.777
 8104W        W72037  23.536   0.482   1.347
 8105W        W72038   1.404   9.828  14.420
 8106W        W72039   5.930  29.429  11.513
 8107W        W72040  20.734  15.099  11.591
 8108W        W72041  16.175  20.131   5.301
 8109W        W72042  16.226  35.376   1.310
 8110W        W72043  20.155  23.206   1.893
 8111W        W72044  31.545  44.011  11.423
 8112W        W72045  29.476  38.391   4.637
 8113W        W72046   3.740   0.332  13.390
 8114W        W72047  13.169  37.981  11.378
 8115W        W72048  11.626  14.331   1.831
 8116W        W72049  18.770  22.640  14.363
 8117W        W72050  43.939  32.508   2.202
 8118W        W72051  39.481  11.755   4.320
 8119W        W72052  21.257   9.339   2.302
 8120W        W72053   4.790  44.825  10.110
 8121W        W72054  14.758   9.807   4.626
 8122W        W72055  13.726  17.663   1.790
 8123W        W72056  10.686  14.821  14.833
 8124W        W72057  17.769  44.809  14.906
 8125W        W72058  20.250  25.108   5.797
 8126W        W72059  20.662   6.848   3.825
 8127W        W72060  38.369  43.797   0.908
 8128W        W72061  41.320   7.716  14.009
 8129W        W72062  20.762  27.154   0.437
 8130W        W72063  32.968  11.366   2.330
 8131W        W72064  12.748   2.260  12.579
 8132W        W72065  12.681  28.461   0.768
 8133W        W72066  36.454  33.056   4.205
 8134W        W72067  22.524  15.206  13.897
 8135W        W72068   6.269  26.548   1.932
 8136W        W72069  32.562  44.451   1.887
 8137W        W72070  20.575  27.578  14.320
 8138W        W72071   3.439  20.733   2.293
 8139W        W72072  14.314  23.589   2.874
 8140W        W72073  14.718   9.160  13.974
 8141W        W72074   2.728   7.875  13.933
 8142W        W72075  29.569   6.753   2.842
 8143W        W72076  28.539  32.996  12.913
 8144W        W72077  38.909  15.689  12.002
 8145W        W72078  42.916   9.356   4.353
 8146W        W72079   8.862  39.350   2.184
 8147W        W72080   8.191  43.310  11.468
 8148W        W72081   9.773  21.091  13.844
 8149W        W72082  28.931  32.063   2.851
 8150W        W72083   7.889  42.815   3.743
 8151W        W72084  19.704  42.413  14.971
 8152W        W72085  43.766   5.760   3.695
 8153W        W72086  14.700  15.203  12.930
 8154W        W72087  12.332  12.280  13.459
 8155W        W72088   2.264   3.710  10.956
 8156W        W72089  26.073  24.173   0.411
 8157W        W72090  13.723  21.755   0.850
 8158W        W72091  22.515  31.487   3.828
 8159W        W72092  16.801  11.271   3.200
 8160W        W72093   0.777  13.342   0.879
 8161W        W72094  16.107  19.687   3.263
 8162W        W72095  15.117  18.176   3.182
 8163W        W72096  19.283   4.413   3.792
 8164W        W72097   5.709   1.944  12.899
 8165W        W72098   7.720  11.680  11.515
 8166W        W72099  25.103  39.886  14.904
 8167W        W72100  25.608  36.989  11.548
 8168W        W72101  16.298  14.718   4.201
 8169W        W72102  37.930  14.109  14.814
 8170W        W72103  36.388  32.568  12.833
 8171W        W72104  11.656   0.809   0.448
 8172W        W72105   7.784  38.354  13.521
 8173W        W72106   6.881   5.330   1.418
 8174W        W72107  37.410  12.621  11.532
 8175W        W72108  32.029  21.225  10.590
 8176W        W72109  39.943  25.031   1.446
 8177W        W72110  21.162   9.653  14.023
 8178W        W72111  22.179   8.692   3.153
 8179W        W72112  38.461   7.373   3.244
 8180W        W72113  37.413  29.102   3.643
 8181W        W72114  10.647  37.336  12.906
 8182W        W72115  34.975  39.388  11.126
 8183W        W72116  26.597  37.956   4.711
 8184W        W72117  13.688  13.193  14.960
 8185W        W72118  32.055  34.046  12.551
 8186W        W72119   4.841  20.096   1.357
 8187W        W72120  32.993  36.004   4.639
 8188W        W72121  44.401  41.006  14.293
 8189W        W72122  22.026  12.188  11.404
 8190W        W72123  20.739  22.046  13.012
 8191W        W72124  21.650  27.533  11.047
 8192W        W72125  43.492  29.087  14.401
 8193W        W72126   5.722  41.982  12.065
 8194W        W72127  32.049  13.705  11.433
 8195W        W72128  19.142  42.810   2.356
 8196W        W72129  31.615  26.027  11.870
 8197W        W72130  40.972  13.288   1.781
 8198W        W72131  23.553  14.639   0.467
 8199W        W72132  32.599  11.672   1.813
 8200W        W72133  11.828  27.011  12.438
 8201W        W72134  13.225  24.081  13.048
 8202W        W72135  34.510   0.447   4.754
 8203W        W72136  15.316  36.040  13.472
 8204W        W72137  22.105  41.361   0.414
 8205W        W72138   1.860  13.607  12.947
 8206W        W72139  26.110  30.429   2.678
 8207W        W72140  44.433   4.723  11.447
 8208W        W72141   9.273  32.544  14.798
 8209W        W72142  26.020  20.644  10.640
 8210W        W72143  17.079  23.625   9.935
 8211W        W72144  10.786  41.881  14.954
 8212W        W72145  26.502  12.230  13.426
 8213W        W72146  17.273  31.065   0.798
 8214W        W72147  30.023  14.769  14.440
 8215W        W72148  36.091  41.342   2.214
 8216W        W72149  13.681  24.672  10.604
 8217W        W72150  22.578  35.380   3.161
 8218W        W72151  42.447   6.343  11.879
 8219W        W72152  32.629  44.352   2.226
 8220W        W72153  10.322  29.009  13.845
 8221W        W72154  43.383  15.666   9.925
 8222W        W72155  34.517  43.926   2.773
 8223W        W72156  23.687  28.566   1.797
 8224W        W72157   7.741  16.196   3.236
 8225W        W72158   2.230  18.575   0.760
 8226W        W72159  23.568  25.518  11.445
 8227W        W72160  41.915  26.695  10.963
 8228W        W72161  13.117   5.356   3.841
 8229W        W72162  24.625  31.564  12.937
 8230W        W72163  18.633  22.640   4.811
 8231W        W72164  30.425  30.117   1.448
 8232W        W72165  40.835  17.750  11.475
 8233W        W72166   6.243  34.572   3.286
 8234W        W72167  28.113  44.449   2.328
 8235W        W72168  18.252   7.902  10.624
 8236W        W72169   3.441  37.514  10.610
 8237W        W72170  32.126  36.855  10.491
 8238W        W72171   9.760  39.042  12.385
 8239W        W72172  43.310  35.412   9.947
 8240W        W72173   3.424  11.161   1.352
 8241W        W72174  24.545   5.903  13.816
 8242W        W72175  11.747  26.497  13.822
 8243W        W72176  43.497  31.109  10.574
 8244W        W72177   4.331   0.330  14.929
 8245W        W72178  25.609   0.423   0.821
 8246W        W72179  31.564   2.471   1.416
 8247W        W72180  15.703  39.460  10.569
 8248W        W72181  13.719  44.898  14.906
 8249W        W72182  22.558  19.557  13.462
 8250W        W72183  40.418   6.743   0.765
 8251W        W72184  19.068  22.152   1.865
 8252W        W72185   2.272  14.710   4.122
 8253W        W72186  34.441  29.424   3.317
 8254W        W72187  19.108  35.562   4.267
 8255W        W72188  25.484  19.538  14.032
 8256W        W72189  42.470   3.782  12.378
 8257W        W72190  44.491   7.370  13.981
 8258W        W72191  33.587   1.823   0.812
 8259W        W72192  12.173   5.209  13.330
 8260W        W72193  12.158  23.547  13.417
 8261W        W72194  13.126  38.825   4.701
 8262W        W72195  35.965  40.808  11.924
 8263W        W72196   7.311  38.420  14.490
 8264W        W72197   9.661   6.866   0.255
 8265W        W72198  11.304  38.445   4.199
 8266W        W72199  30.592  41.391  14.414
 8267W        W72200  35.431   0.298  11.524
 8268W        W72201  19.593  28.547  13.398
 8269W        W72202  38.033   2.893  11.938
 8270W        W72203  17.670  36.874  11.872
 8271W        W72204  11.758  25.087   4.235
 8272W        W72205  35.503  19.769  14.844
 8273W        W72206   5.198   7.282  12.950
 8274W        W72207   8.240  29.042   3.196
 8275W        W72208  13.648  10.727  10.888
 8276W        W72209  42.825  31.065  10.415
 8277W        W72210   6.913  38.455  11.109
 8278W        W72211  14.315  19.243   4.237
 8279W        W72212  37.062  41.438   1.384
 8280W        W72213  43.302  37.933   0.838
 8281W        W72214  21.165  13.805  13.927
 8282W        W72215  44.365   2.813  10.098
 8283W        W72216  40.040  42.456  14.931
 8284W        W72217  26.078  33.910   2.226
 8285W        W72218  10.203  38.381  14.341
 8286W        W72219   5.223  41.401   2.303
 8287W        W72220  28.113   3.794  10.430
 8288W        W72221  27.496  25.572  13.374
 8289W        W72222  26.020  25.069   0.312
 8290W        W72223  10.837   1.925  13.422
 8291W        W72224   9.205   6.428  14.807
 8292W        W72225  15.130  42.484  11.572
 8293W        W72226  37.478  13.312  12.549
 8294W        W72227  21.757  33.606   4.713
 8295W        W72228  26.655   5.315   1.728
 8296W        W72229  30.450  18.144  13.987
 8297W        W72230  35.448  41.534  11.557
 8298W        W72231  32.012  13.172   2.690
 8299W        W72232  40.036  10.638   2.192
 8300W        W72233  16.590  18.157  14.908
 8301W        W72234  18.179  29.583   1.706
 8302W        W72235  44.806  12.354  14.925
 8303W        W72236  35.027  32.943  11.969
 8304W        W72237  25.523  25.599  12.065
 8305W        W72238  34.902  17.737   4.223
 8306W        W72239  30.077  34.086   3.254
 8307W        W72240   6.745  32.579   1.385
 8308W        W72241  15.298   5.402   5.601
 8309W        W72242  28.482  23.201   3.833
 8310W        W72243  36.463  24.096   9.997
 8311W        W72244  44.263   6.767   3.661
 8312W        W72245  33.543  40.934  14.988
 8313W        W72246  13.696   9.659  14.491
 8314W        W72247  15.155  44.850  11.403
 8315W        W72248  35.019  21.549  13.952
 8316W        W72249  30.954  24.118  11.549
 8317W        W72250  21.612  34.946  11.433
 8318W        W72251  19.148  40.981  11.076
 8319W        W72252  15.584  42.362   4.819
 8320W        W72253  39.985   3.367  12.481
 8321W        W72254  24.161   3.712   0.736
 8322W        W72255  42.423  37.866   3.185
 8323W        W72256  18.282  43.022  12.471
 8324W        W72257  15.268  29.959   1.922
 8325W        W72258   6.901  10.695   1.752
 8326W        W72259   3.805  44.305  12.916
 8327W        W72260  41.478  20.240  14.392
 8328W        W72261  11.265  27.022  14.495
 8329W        W72262  43.355  39.518  13.422
 8330W        W72263  42.884   3.896   2.711
 8331W        W72264  22.666  31.102  13.908
 8332W        W72265  17.753  43.949   4.202
 8333W        W72266  37.351  20.042   2.875
 8334W        W72267   6.865  32.482   2.236
 8335W        W72268  14.773  34.438   0.938
 8336W        W72269  39.315  32.975   2.813
 8337W        W72270  15.613  28.437  11.904
 8338W        W72271   9.256  16.733  13.964
 8339W        W72272  16.789  24.655  13.392
 8340W        W72273  25.031  16.084   3.182
 8341W        W72274  18.274  28.111  14.979
 8342W        W72275  32.435   9.311  11.440
 8343W        W72276   9.287  24.057  13.464
 8344W        W72277   6.851  13.325   3.272
 8345W        W72278  32.626   7.260   4.814
 8346W        W72279  35.399   0.833  13.903
 8347W        W72280  15.094  13.253  11.407
 8348W        W72281  19.221  16.101  13.334
 8349W        W72282  40.392   7.271   3.685
 8350W        W72283  34.511  20.241  14.301
 8351W        W72284   4.935  29.595  12.561
 8352W        W72285  15.710  24.557   4.810
 8353W        W72286  27.022  17.152   2.379
 8354W        W72287  28.149  23.686  12.416
 8355W        W72288  43.977  22.228   2.709
 8356W        W72289  28.580   3.338  14.996
 8357W        W72290  43.874  15.688  13.460
 8358W        W72291   8.657  39.381   1.315
 8359W        W72292  31.453   6.185   0.475
 8360W        W72293  18.743   6.294   0.769
 8361W        W72294  23.035  17.656   4.213
 8362W        W72295   7.389  36.082   3.272
 8363W        W72296  38.374  39.971   2.726
 8364W        W72297  44.768  42.307  13.996
 8365W        W72298   2.290  26.035   0.447
 8366W        W72299  39.045  43.867  13.539
 8367W        W72300  26.541   8.863  10.524
 8368W        W72301  30.979  16.290   0.943
 8369W        W72302  11.312  28.640  13.407
 8370W        W72303  13.318  25.132   3.242
 8371W        W72304  41.990  42.790   3.321
 8372W        W72305   7.186  43.829   0.805
 8373W        W72306  25.030  22.738   1.289
 8374W        W72307  36.394   0.905   3.792
 8375W        W72308   0.839  26.457   5.306
 8376W        W72309  20.098  12.705   2.409
 8377W        W72310  20.764  12.617  13.811
 8378W        W72311  40.016  32.076  14.897
 8379W        W72312   7.772  28.164  14.383
 8380W        W72313  21.685  41.878   0.466
 8381W        W72314   0.300   7.363   3.707
 8382W        W72315  17.579  31.434   0.787
 8383W        W72316  28.931  16.241   2.322
 8384W        W72317  10.204  34.909  14.441
 8385W        W72318   4.884   4.928   2.839
 8386W        W72319  29.591  30.537   9.980
 8387W        W72320  44.304  27.136  13.352
 8388W        W72321   3.775  35.913   3.780
 8389W        W72322  16.125   3.798  11.005
 8390W        W72323  39.965  12.302   2.765
 8391W        W72324  26.955   2.291  14.360
 8392W        W72325  42.969  12.835  14.479
 8393W        W72326  42.486  25.128   2.214
 8394W        W72327  26.192  13.839  11.580
 8395W        W72328  37.087  43.299  12.896
 8396W        W72329  17.254  14.240   2.679
 8397W        W72330  24.998  10.286  11.497
 8398W        W72331  18.162  42.985  14.964
 8399W        W72332  10.292  21.048  11.062
 8400W        W72333  10.382  27.484  11.970
 8401W        W72334  37.433  42.301   1.721
 8402W        W72335  13.721  40.461  12.409
 8403W        W72336  30.552  23.616  10.521
 8404W        W72337  21.210  40.926  12.486
 8405W        W72338  32.979   0.446   3.688
 8406W        W72339  36.372  29.590   0.301
 8407W        W72340  31.633  33.438   1.725
 8408W        W72341  39.538  25.117   4.605
 8409W        W72342   7.840  29.625  11.051
 8410W        W72343  44.978   1.977  11.055
 8411W        W72344   8.672  34.502   4.667
 8412W        W72345  10.232   1.973   2.781
 8413W        W72346  22.616   1.816  11.046
 8414W        W72347  11.183  39.516  11.490
 8415W        W72348  42.999  42.881   1.905
 8416W        W72349  11.222  40.416   4.713
 8417W        W72350   2.466   5.269   2.242
 8418W        W72351  42.409  11.268   4.135
 8419W        W72352  33.044   0.357   4.133
 8420W        W72353  17.243  16.274  13.307
 8421W        W72354  38.431  23.002  11.534
 8422W        W72355  25.985  20.136   4.769
 8423W        W72356   0.275  18.717   4.649
 8424W        W72357  40.498  22.547  14.375
 8425W        W72358  11.631   8.279   3.699
 8426W        W72359   7.289  44.851   2.717
 8427W        W72360  33.448   6.913  11.966
 8428W        W72361  22.680  30.081   3.269
 8429W        W72362  28.965   2.350   2.227
 8430W        W72363  16.270   2.382  11.026
 8431W        W72364  38.905   6.807   0.267
 8432W        W72365  14.789  39.502   1.825
 8433W        W72366  16.585  21.059   1.447
 8434W        W72367  16.142  29.943  13.436
 8435W        W72368  44.886  10.662  10.990
 8436W        W72369  36.957  21.592   0.269
 8437W        W72370  32.624  34.466   0.932
 8438W        W72371  19.581  39.357  10.552
 8439W        W72372  15.254  34.928   0.760
 8440W        W72373  31.122   7.399   3.665
 8441W        W72374  19.135  23.008  10.576
 8442W        W72375   5.253  23.024   4.243
 8443W        W72376  38.909  24.530   1.355
 8444W        W72377  13.731   8.239  14.856
 8445W        W72378  26.585  25.004   3.386
 8446W        W72379   4.800   8.273  13.015
 8447W        W72380  42.871   3.746  11.587
 8448W        W72381   7.904  24.715   3.735
 8449W        W72382  11.635  38.562   2.275
 8450W        W72383  37.338  10.145  12.829
 8451W        W72384  34.391   5.225  14.427
 8452W        W72385  42.900  33.613  13.793
 8453W        W72386  43.021  25.681   3.239
 8454W        W72387  34.064  40.356   3.855
 8455W        W72388   0.841   8.698   5.213
 8456W        W72389  10.146  11.262  10.132
 8457W        W72390  25.994  39.932   2.360
 8458W        W72391  19.236   9.193  12.997
 8459W        W72392  38.979  43.294  13.409
 8460W        W72393  36.870  37.904   3.820
 8461W        W72394  35.499   3.416  14.822
 8462W        W72395  29.444  35.911  14.981
 8463W        W72396  12.611  24.630   4.784
 8464W        W72397   3.442  18.652   4.354
 8465W        W72398  28.511  36.897  11.095
 8466W        W72399  17.297  20.553   2.726
 8467W        W72400  20.690  34.949  14.335
 8468W        W72401  17.238  23.526   0.331
 8469W        W72402  31.464  21.259   3.364
 8470W        W72403  27.459  22.134  10.607
 8471W        W72404   7.239  43.431   2.354
 8472W        W72405   6.680  13.285   4.796
 8473W        W72406  29.506  13.672  12.427
 8474W        W72407  38.920   7.746  11.419
 8475W        W72408  30.436  42.895  11.008
 8476W        W72409  24.088   0.782   4.626
 8477W        W72410  38.569  37.442  13.547
 8478W        W72411  38.048  18.632  10.977
 8479W        W72412   2.435  30.097  13.385
 8480W        W72413  43.876  31.601   3.663
 8481W        W72414  25.698  17.683   1.837
 8482W        W72415  41.533   6.306   3.282
 8483W        W72416  43.985  21.106  10.423
 8484W        W72417  26.499   6.412   0.391
 8485W        W72418  36.415  43.406   1.257
 8486W        W72419  34.885   4.747   1.910
 8487W        W72420  21.138  36.092  12.982
 8488W        W72421  39.445   2.962   1.229
 8489W        W72422  28.518  15.610  10.582
 8490W        W72423  22.511  29.110  14.902
 8491W        W72424   7.300  32.622   3.865
 8492W        W72425  36.409  13.250   4.731
 8493W        W72426  41.339   7.237   4.267
 8494W        W72427  37.000  43.943   0.474
 8495W        W72428  16.234  29.968   4.172
 8496W        W72429  32.396  20.085  13.478
 8497W        W72430  10.255  18.146  13.440
 8498W        W72431  33.031  22.525   0.749
 8499W        W72432  29.014  21.695  14.957
 8500W        W72433   9.742   9.255  14.298
 8501W        W72434  26.104   2.809   0.349
 8502W        W72435  22.160  13.320   4.216
 8503W        W72436  38.925  21.149  13.898
 8504W        W72437  21.524  29.150  14.306
 8505W        W72438   1.467  28.035  14.003
 8506W        W72439  25.609  37.361   1.716
 8507W        W72440  38.436  21.592   0.454
 8508W        W72441   1.319  29.505  13.536
 8509W        W72442   0.464  41.516  10.495
 8510W        W72443  39.534  36.478  12.078
 8511W        W72444   4.912  24.681  14.903
 8512W        W72445   3.841  27.584   0.761
 8513W        W72446  28.150  22.707  14.291
 8514W        W72447  42.338  20.595   4.817
 8515W        W72448  15.722  34.575  10.916
 8516W        W72449  23.604  23.556  12.892
 8517W        W72450  24.988  44.488  13.924
 8518W        W72451  32.031  17.728   4.311
 8519W        W72452  22.566   4.310   3.823
 8520W        W72453   7.767  22.204   1.732
 8521W        W72454  19.226  22.139   0.819
 8522W        W72455  39.926  10.738  10.965
 8523W        W72456  41.888  42.521  11.543
 8524W        W72457  24.982  42.395  11.441
 8525W        W72458  14.117  38.559  10.025
 8526W        W72459   1.296  22.997  12.067
 8527W        W72460  30.111  16.252   1.318
 8528W        W72461  39.848   5.405   2.777
 8529W        W72462  21.709   5.428   2.249
 8530W        W72463  25.141   1.897   3.821
 8531W        W72464  13.217  19.756  10.993
 8532W        W72465  11.342  33.605   3.275
 8533W        W72466   1.889  37.572   1.261
 8534W        W72467  32.547  33.599   3.761
 8535W        W72468  30.535   5.793   1.451
 8536W        W72469  31.419  13.170   0.385
 8537W        W72470  23.534   5.869  14.502
 8538W        W72471  24.024  39.894  13.518
 8539W        W72472  39.924  20.711   1.346
 8540W        W72473   0.443  30.995  13.885
 8541W        W72474  22.602   7.271  10.901
 8542W        W72475   6.743  16.730  12.870
 8543W        W72476  37.044  33.957   2.688
 8544W        W72477   4.866  42.432   4.614
 8545W        W72478  32.470  39.491  12.384
 8546W        W72479  17.638  20.035   2.292
 8547W        W72480   4.936  34.564   4.168
 8548W        W72481  18.178  12.653  11.002
 8549W        W72482  41.523  40.513   0.845
 8550W        W72483   1.919  29.424  11.977
 8551W        W72484  40.958  23.989  11.054
 8552W        W72485   0.845   2.298  10.036
 8553W        W72486  44.813  10.632   0.884
 8554W        W72487   8.866   1.760  11.933
 8555W        W72488   6.216  40.816  11.907
 8556W        W72489  42.943  36.578  12.893
 8557W        W72490  37.554   8.251   0.752
 8558W        W72491  39.987  42.791  11.018
 8559W        W72492  41.407  37.441  13.377
 8560W        W72493   6.295   9.185  11.977
 8561W        W72494  18.579   4.347  13.031
 8562W        W72495  19.710  28.154   1.793
 8563W        W72496  34.921  34.964   1.310
 8564W        W72497  21.539  32.111   3.361
 8565W        W72498  11.789  18.557   2.754
 8566W        W72499  33.952   6.771   4.604
 8567W        W72500  10.145  25.529  13.799
 8568W        W72501  33.521  17.643  14.883
 8569W        W72502   7.888   6.870   1.451
 8570W        W72503  36.844   2.428  11.408
 8571W        W72504  29.058  15.302  11.081
 8572W        W72505  32.930   8.213  13.348
 8573W        W72506  23.128  13.322   4.795
 8574W        W72507  24.202  29.138   2.306
 8575W        W72508  19.640  24.724   3.691
 8576W        W72509  13.192  20.184   0.883
 8577W        W72510   2.427  44.983  12.400
 8578W        W72511   2.420  28.046  13.500
 8579W        W72512  31.599  24.698  14.769
 8580W        W72513  44.928   6.369  12.069
 8581W        W72514  39.994  35.034   2.761
 8582W        W72515  44.899  44.292   0.438
 8583W        W72516  36.577  44.355   1.698
 8584W        W72517  26.123  39.943   2.876
 8585W        W72518   6.416   7.904  13.839
 8586W        W72519  14.244  38.059  13.802
 8587W        W72520   5.290  30.023  10.499
 8588W        W72521  41.004  14.267   2.893
 8589W        W72522  44.870   0.889   4.289
 8590W        W72523  36.011  25.195  14.511
 8591W        W72524  24.520  27.566   3.736
 8592W        W72525  13.157  44.753  14.987
 8593W        W72526   0.275  23.212  12.956
 8594W        W72527  10.738  37.074   0.845
 8595W        W72528  33.981  28.646  11.600
 8596W        W72529  14.738  25.042   1.833
 8597W        W72530  27.962  44.264   2.700
 8598W        W72531  20.227   2.756   3.336
 8599W        W72532  34.370   8.662  10.552
 8600W        W72533  11.269   4.420   0.953
 8601W        W72534  30.063  39.487   3.822
 8602W        W72535  11.815  39.547  12.940
 8603W        W72536  35.981   2.942  13.333
 8604W        W72537  15.272   3.289  11.914
 8605W        W72538   6.407  33.419   1.716
 8606W        W72539   4.277  44.299   1.304
 8607W        W72540   3.826  38.394  12.561
 8608W        W72541  23.162   6.845  10.468
 8609W        W72542  39.450  37.838  13.503
 8610W        W72543  43.447  15.821   3.712
 8611W        W72544   2.772   4.434  12.944
 8612W        W72545  36.399   4.296   4.836
 8613W        W72546  34.959   6.729   3.778
 8614W        W72547  38.075  16.097   0.321
 8615W        W72548   0.365   7.872  11.958
 8616W        W72549  25.588  19.082  11.078
 8617W        W72550  17.222   9.346   1.263
 8618W        W72551  15.771  12.351  12.575
 8619W        W72552   4.422  44.422   4.721
 8620W        W72553  25.587   1.380  13.985
 8621W        W72554  41.361  18.698   3.821
 8622W        W72555   8.318   6.395   0.962
 8623W        W72556   4.388  30.424  11.394
 8624W        W72557  19.072  23.602   1.328
 8625W        W72558  10.270  29.975   4.330
 8626W        W72559  11.768  27.643   4.343
 8627W        W72560  13.828   8.375  11.376
 8628W        W72561  20.207   0.336   0.777
 8629W        W72562  22.617  38.032   1.721
 8630W        W72563  27.684   1.246   5.239
 8631W        W72564  24.130  16.745   4.610
 8632W        W72565  40.004  17.246  11.427
 8633W        W72566  39.501  31.055   2.410
 8634W        W72567  33.111   9.391  12.003
 8635W        W72568  38.942  32.104   3.776
 8636W        W72569  27.596  28.572   2.399
 8637W        W72570   9.394   1.913   4.303
 8638W        W72571  18.073  10.336   2.780
 8639W        W72572  14.171  19.219   2.714
 8640W        W72573  31.977   1.276  14.501
 8641W        W72574   9.684  17.126  11.510
 8642W        W72575  26.104  35.559   1.430
 8643W        W72576   4.832  28.563   1.284
 8644W        W72577  27.457  30.160   1.392
 8645W        W72578  35.404  36.508   3.773
 8646W        W72579   3.323  39.931  12.915
 8647W        W72580  20.093   0.308  14.410
 8648W        W72581   7.367  31.407   0.443
 8649W        W72582   2.778  40.908  14.798
 8650W        W72583  43.457   2.753  14.973
 8651W        W72584  40.033  42.281  10.561
 8652W        W72585  22.107  28.540   2.315
 8653W        W72586  39.476  43.467   4.305
 8654W        W72587  19.582  42.988   3.859
 8655W        W72588  38.925   1.974   1.392
 8656W        W72589   2.249  10.791  12.988
 8657W        W72590  28.480   0.877   1.730
 8658W        W72591  27.084  11.139  10.896
 8659W        W72592   3.790  42.946  13.526
 8660W        W72593   1.891   9.232  11.115
 8661W        W72594  16.715  28.680   4.793
 8662W        W72595  17.674  15.796  10.643
 8663W        W72596  38.410  44.415   3.212
 8664W        W72597   9.254  25.040   2.244
 8665W        W72598   8.236   6.764   2.377
 8666W        W72599  13.637   0.464  14.843
 8667W        W72600  27.021  40.800   3.382
 8668W        W72601   3.881  40.040   0.943
 8669W        W72602  42.495  20.096  13.834
 8670W        W72603  42.980  26.117  13.897
 8671W        W72604  35.554  13.269   0.333
 8672W        W72605  14.297  20.238   4.322
 8673W        W72606  37.913  34.056   2.778
 8674W        W72607   1.310  22.508  12.443
 8675W        W72608  13.210  18.065   5.268
 8676W        W72609  42.488  10.208   4.328
 8677W        W72610  24.131   7.687  13.346
 8678W        W72611  30.550  33.605   4.802
 8679W        W72612  17.600  43.386  14.396
 8680W        W72613  16.566  29.476  10.454
 8681W        W72614  23.241   0.779  12.940
 8682W        W72615  38.420   8.809  14.402
 8683W        W72616  22.039  36.974   4.740
 8684W        W72617   5.245  27.668  11.515
 8685W        W72618  21.222  35.541  11.028
 8686W        W72619  44.754  29.058  11.098
 8687W        W72620  14.711  28.085  11.920
 8688W        W72621   0.272  31.122   1.737
 8689W        W72622  17.714  28.166  13.464
 8690W        W72623  20.765  39.981   0.355
 8691W        W72624  31.039   5.247   1.857
 8692W        W72625   0.860  26.482   3.698
 8693W        W72626  26.054  18.153   1.827
 8694W        W72627  38.017   6.379  13.462
 8695W        W72628  41.505   3.771  11.484
 8696W        W72629  12.659   5.826   1.815
 8697W        W72630  41.322  22.199   4.190
 8698W        W72631  15.639  21.073  13.011
 8699W        W72632  42.470  11.236  13.369
 8700W        W72633  38.830  20.527  14.347
 8701W        W72634  24.154  21.646   2.742
 8702W        W72635  42.495  28.571  10.486
 8703W        W72636  38.476  39.393  12.034
 8704W        W72637   4.807  40.365   2.226
 8705W        W72638  35.461  31.914  14.948
 8706W        W72639  21.028  24.724  10.947
 8707W        W72640  15.118  14.098   3.266
 8708W        W72641  16.809  17.258  13.471
 8709W        W72642  21.732  42.365   4.658
 8710W        W72643  12.199  41.396   1.921
 8711W        W72644  14.652  21.724  12.450
 8712W        W72645   2.734   2.732  14.824
 8713W        W72646  35.414  41.301   2.853
 8714W        W72647  30.119  35.860   4.623
 8715W        W72648  39.406  39.415  11.485
 8716W        W72649  23.690  14.634  12.853
 8717W        W72650  17.751  40.822   0.379
 8718W        W72651  12.151  28.461  11.989
 8719W        W72652  44.989   9.367  10.484
 8720W        W72653  21.692  34.515  13.939
 8721W        W72654  41.507  20.068   4.147
 8722W        W72655  33.887   6.862  11.551
 8723W        W72656  36.014  24.622   2.287
 8724W        W72657  14.777  34.925   0.796
 8725W        W72658  30.930  24.982   0.244
 8726W        W72659   6.388  42.948  11.872
 8727W        W72660  10.343   1.862   3.350
 8728W        W72661   3.788  14.739  12.396
 8729W        W72662   8.692  36.383  12.533
 8730W        W72663  19.581  35.567  14.978
 8731W        W72664   6.892  35.458  14.806
 8732W        W72665   2.950   9.196   0.341
 8733W        W72666  12.773  26.058   4.130
 8734W        W72667   9.681   3.423   4.343
 8735W        W72668  23.578  30.013   1.422
 8736W        W72669   3.324  33.090   1.311
 8737W        W72670  31.032   7.834   4.768
 8738W        W72671  44.373  27.068  12.513
 8739W        W72672   7.802  17.713   4.251
 8740W        W72673  44.876   4.778  10.581
 8741W        W72674  10.876  10.776  10.555
 8742W        W72675  43.515  20.557   2.844
 8743W        W72676  14.307  40.542   4.330
 8744W        W72677   5.707  31.929  11.464
 8745W        W72678  26.146  41.917   2.673
 8746W        W72679   4.792  13.697   3.371
 8747W        W72680  28.565  42.841  13.431
 8748W        W72681  28.141  20.635  11.064
 8749W        W72682  38.880  18.607   2.307
 8750W        W72683   6.184  12.227   9.992
 8751W        W72684  39.331  42.478   2.868
 8752W        W72685  26.000   8.726   4.626
 8753W        W72686   2.919   4.913   2.353
 8754W        W72687  21.583  27.596   1.248
 8755W        W72688  21.091   2.818   4.609
 8756W        W72689  44.875  36.518   5.089
 8757W        W72690   4.427  35.587  12.969
 8758W        W72691  20.548  26.030  12.407
 8759W        W72692  19.099  44.916   3.707
 8760W        W72693   5.707  40.543   2.709
 8761W        W72694   8.321  40.309   3.230
 8762W        W72695   3.833   8.844   0.921
 8763W        W72696  36.970   7.710  13.792
 8764W        W72697  23.172  36.065   0.856
 8765W        W72698  16.666  27.061  10.615
 8766W        W72699  22.111   8.400   0.801
 8767W        W72700  13.113  35.462   1.244
 8768W        W72701  10.657  31.138   1.905
 8769W        W72702   2.840   3.801  14.962
 8770W        W72703  32.421  21.099   2.812
 8771W        W72704  19.550  32.984   1.875
 8772W        W72705  25.698  36.510  11.070
 8773W        W72706  38.349  12.823   3.856
 8774W        W72707   3.235  26.073  11.932
 8775W        W72708  16.305  21.140  14.919
 8776W        W72709   1.836   5.932   2.897
 8777W        W72710  31.565  29.589  13.991
 8778W        W72711  40.041  44.762  12.004
 8779W        W72712  20.195  13.795   0.297
 8780W        W72713  15.733  29.477  10.949
 8781W        W72714  27.448  39.966   0.292
 8782W        W72715  10.666   2.234   3.805
 8783W        W72716  34.073  29.488  12.967
 8784W        W72717   2.316  43.432  13.349
 8785W        W72718  31.519  21.640   3.156
 8786W        W72719  29.587  24.010  14.026
 8787W        W72720  32.502   5.372   1.757
 8788W        W72721   9.862  10.159   3.643
 8789W        W72722  43.889  33.130   3.201
 8790W        W72723   4.441   0.880   0.933
 8791W        W72724   1.896  16.803   1.744
 8792W        W72725   9.151  10.678   2.669
 8793W        W72726   9.645  34.392  10.514
 8794W        W72727  21.028  29.122  12.082
 8795W        W72728  38.347  42.848   3.189
 8796W        W72729   5.859  22.218  13.546
 8797W        W72730   6.744   5.921  13.467
 8798W        W72731  30.956  17.801  14.856
 8799W        W72732  14.141  32.966  13.861
 8800W        W72733   5.220  33.119  11.525
 8801W        W72734  37.872   4.372   2.894
 8802W        W72735   5.712  12.340   1.756
 8803W        W72736  28.092  18.087  14.854
 8804W        W72737  20.102  37.960  14.334
 8805W        W72738  12.304   0.961   4.339
 8806W        W72739  26.479  25.694  11.101
 8807W        W72740   6.724   2.362   1.860
 8808W        W72741   0.851   1.806  14.869
 8809W        W72742  37.866  32.083   2.231
 8810W        W72743  10.239  30.006  11.512
 8811W        W72744  30.144  42.481  11.102
 8812W        W72745  25.635  39.424  14.386
 8813W        W72746  21.057  12.231   3.827
 8814W        W72747  31.599  10.366   3.240
 8815W        W72748  14.105  26.985   3.814
 8816W        W72749  30.138  27.038  12.361
 8817W        W72750  16.749  10.263  12.942
 8818W        W72751  14.808  41.940   3.697
 8819W        W72752  11.297   0.886   4.191
 8820W        W72753   8.735  22.103   2.367
 8821W        W72754   9.394  33.014  12.980
 8822W        W72755  33.894  38.369   2.674
 8823W        W72756   7.724  23.010  14.513
 8824W        W72757  24.192  19.235  10.911
 8825W        W72758   0.974   0.923  12.824
 8826W        W72759  37.517  24.642  13.930
 8827W        W72760  21.575  32.399   4.834
 8828W        W72761  30.028  19.239  11.941
 8829W        W72762  22.747  25.588  13.475
 8830W        W72763  19.666  35.069  11.589
 8831W        W72764   3.861   8.254   4.746
 8832W        W72765  37.921  31.472  12.535
 8833W        W72766  29.148  22.999  14.786
 8834W        W72767   1.841  26.012  11.579
 8835W        W72768  40.837  21.157   5.239
 8836W        W72769   1.959  43.356  14.927
 8837W        W72770   2.351  27.161   0.907
 8838W        W72771   6.769  34.455   0.288
 8839W        W72772  40.510  42.477  14.011
 8840W        W72773  15.282   5.313  12.451
 8841W        W72774  30.585  22.542   1.409
 8842W        W72775  36.000  14.786   4.159
 8843W        W72776  19.231  38.949  11.102
 8844W        W72777  21.247   7.240  11.438
 8845W        W72778   6.353  39.055  14.506
 8846W        W72779   8.221  30.599   2.787
 8847W        W72780   8.234  25.578   1.313
 8848W        W72781  24.663  20.711   4.273
 8849W        W72782  32.444   1.966   0.821
 8850W        W72783  15.762  23.046  13.985
 8851W        W72784  22.211  24.118   4.808
 8852W        W72785  28.931   5.863  12.422
 8853W        W72786   8.697  30.069   1.864
 8854W        W72787   9.860  24.029  12.925
 8855W        W72788  18.122  32.558   1.855
 8856W        W72789   3.286  25.691  11.463
 8857W        W72790   2.851  16.696  14.317
 8858W        W72791  19.158  37.573  13.860
 8859W        W72792  22.039  36.360  13.050
 8860W        W72793  27.542  13.154   3.153
 8861W        W72794  32.526   5.810   2.361
 8862W        W72795  17.121  13.831   4.165
 8863W        W72796  21.066  34.114  13.959
 8864W        W72797  20.175  12.155   4.212
 8865W        W72798   7.670  34.453  14.946
 8866W        W72799  35.397  33.090  10.429
 8867W        W72800  17.222  11.291   4.723
 8868W        W72801  27.145  19.106   1.777
 8869W        W72802   6.751   8.714  10.517
 8870W        W72803  36.529  35.894   4.799
 8871W        W72804  28.969  22.026   0.824
 8872W        W72805  42.303  20.765   1.781
 8873W        W72806   6.762  15.589  14.781
 8874W        W72807   8.216   7.357   3.386
 8875W        W72808  16.794   7.269   3.656
 8876W        W72809  40.890  11.695   2.253
 8877W        W72810  19.144  28.115   1.808
 8878W        W72811  11.334  13.233  12.363
 8879W        W72812  41.987  41.994   3.190
 8880W        W72813  43.319  19.144   0.810
 8881W        W72814  43.379  23.646   3.850
 8882W        W72815  11.277  12.123   4.732
 8883W        W72816  24.571   5.283  13.914
 8884W        W72817   6.806  23.650   4.144
 8885W        W72818  43.440   3.380   2.276
 8886W        W72819   0.338  26.030  12.841
 8887W        W72820  18.271  28.050   0.341
 8888W        W72821  10.776  44.901  14.994
 8889W        W72822  23.595  18.055  14.361
 8890W        W72823  39.350   4.769  12.555
 8891W        W72824  25.102  16.757   3.292
 8892W        W72825   1.904  28.130  12.528
 8893W        W72826   6.732  22.234  13.937
 8894W        W72827   3.802  33.489  13.381
 8895W        W72828  27.613  33.009   3.351
 8896W        W72829   0.860  44.400  10.588
 8897W        W72830  28.584  23.150   0.851
 8898W        W72831  36.053  18.052   3.188
 8899W        W72832  40.950  39.379   2.338
 8900W        W72833  31.100  25.142   2.354
 8901W        W72834   6.277  13.333   0.286
 8902W        W72835   7.837   1.408  12.851
 8903W        W72836  40.524  15.274   1.306
 8904W        W72837  28.053  41.496  10.009
 8905W        W72838  20.237   8.204  14.945
 8906W        W72839  19.672  14.722   0.782
 8907W        W72840  18.723  13.189  10.999
 8908W        W72841  12.730  25.679   0.341
 8909W        W72842   0.984  40.377  14.378
 8910W        W72843  30.608  44.503   0.802
 8911W        W72844  19.759   5.219  12.054
 8912W        W72845  22.156   4.851  12.017
 8913W        W72846  12.725  14.779   4.304
 8914W        W72847  24.653  26.623  12.869
 8915W        W72848  36.592  19.054  14.337
 8916W        W72849  25.513  25.179   2.329
 8917W        W72850  39.029   2.885  11.088
 8918W        W72851  28.647  22.049   2.732
 8919W        W72852  28.562  43.270  10.958
 8920W        W72853  13.188  40.463   4.270
 8921W        W72854  42.006  14.154  13.862
 8922W        W72855   7.272  28.534   0.337
 8923W        W72856  42.455  42.511   0.849
 8924W        W72857  37.072  39.350   1.384
 8925W        W72858  15.677  23.602  11.928
 8926W        W72859  40.956  44.997  13.882
 8927W        W72860  40.991  40.449   3.248
 8928W        W72861  19.767   4.238   3.308
 8929W        W72862  16.786  31.506   0.916
 8930W        W72863  13.664  44.319   4.230
 8931W        W72864  43.771  28.156   0.959
 8932W        W72865   5.890  12.216   2.790
 8933W        W72866   8.391   3.886  13.870
 8934W        W72867  32.636  30.591   0.326
 8935W        W72868  10.815  40.307  13.971
 8936W        W72869  17.801  33.105   4.640
 8937W        W72870   9.856  30.095  12.026
 8938W        W72871  24.103  27.137  14.356
 8939W        W72872  23.046  25.530   0.307
 8940W        W72873  38.568  41.315  13.832
 8941W        W72874  20.218  39.029  10.933
 8942W        W72875  12.211  10.376  13.018
 8943W        W72876  20.598   2.332   2.316
 8944W        W72877  35.032  34.074  10.985
 8945W        W72878  21.210  23.145   0.248
 8946W        W72879   0.344  11.146   0.786
 8947W        W72880  42.887  10.374  10.986
 8948W        W72881   6.750  21.066  11.583
 8949W        W72882   0.382  20.090  12.959
 8950W        W72883  18.580  22.716  13.904
 8951W        W72884   1.295  44.851   1.721
 8952W        W72885  39.984  42.941   0.433
 8953W        W72886   1.821   5.876   3.638
 8954W        W72887  35.489  17.273  11.468
 8955W        W72888  44.418  11.282   3.262
 8956W        W72889  32.477   9.875  11.525
 8957W        W72890   0.340  33.894  12.017
 8958W        W72891  23.000  12.774  11.443
 8959W        W72892  10.677  25.195  13.325
 8960W        W72893  25.150   8.218  10.432
 8961W        W72894   1.337  13.674   5.213
 8962W        W72895  35.947  12.131  14.339
 8963W        W72896  44.973  32.441   0.282
 8964W        W72897  35.593  29.670   0.948
 8965W        W72898  33.995  19.686   2.784
 8966W        W72899  21.045  39.050   4.687
 8967W        W72900  20.763  40.983   3.788
 8968W        W72901  16.249  27.539  12.842
 8969W        W72902   9.328  38.919  12.859
 8970W        W72903  15.321   6.413   2.893
 8971W        W72904  10.659   2.792  12.411
 8972W        W72905  15.172  22.538  11.585
 8973W        W72906  11.713   5.210  11.874
 8974W        W72907   8.690  23.177  13.046
 8975W        W72908  41.466   2.731   4.267
 8976W        W72909   1.955  31.641  14.940
 8977W        W72910  24.612  27.521   3.206
 8978W        W72911  31.637  36.074   2.342
 8979W        W72912  17.608  41.803  10.930
 8980W        W72913   1.369  42.402  14.851
 8981W        W72914  34.484  44.911   3.852
 8982W        W72915  15.751  23.653  10.097
 8983W        W72916  15.676  15.618   3.808
 8984W        W72917  11.746  19.179  14.000
 8985W        W72918  42.870  17.751  11.459
 8986W        W72919  37.944   7.897   0.751
 8987W        W72920  42.799  18.547   4.355
 8988W        W72921  19.238  38.034  13.443
 8989W        W72922  18.664   4.433   2.672
 8990W        W72923  40.340  33.598   3.256
 8991W        W72924  36.490  31.632  12.462
 8992W        W72925   4.879   6.209  11.451
 8993W        W72926   9.176   0.868  10.513
 8994W        W72927   9.811  42.490  12.341
 8995W        W72928  42.781  22.112   3.349
 8996W        W72929  43.888  14.323  12.429
 8997W        W72930  35.487  21.552   2.737
 8998W        W72931  33.485  30.515  12.878
 8999W        W72932   0.296   3.458  13.002
 9000W        W72933  18.673  39.500  12.997
 9001W        W72934  35.549   2.909  14.898
 9002W        W72935  28.641  24.489  11.876
 9003W        W72936  28.999   0.453  11.489
 9004W        W72937  37.982  40.905  13.475
 9005W        W72938  13.691   1.304   0.887
 9006W        W72939   2.299  34.555   0.734
 9007W        W72940  10.641  18.058  10.489
 9008W        W72941  34.083  17.279   0.336
 9009W        W72942  17.083  24.567  14.318
 9010W        W72943  13.246   5.735  13.954
 9011W        W72944  27.452  23.576  14.790
 9012W        W72945  16.613  22.105  13.875
 9013W        W72946  14.589  17.101  11.128
 9014W        W72947  15.130  41.017   0.797
 9015W        W72948  31.146  44.280  10.482
 9016W        W72949   3.359  24.214   0.734
 9017W        W72950  25.487  15.085  14.775
 9018W        W72951  21.589  20.151  11.879
 9019W        W72952  32.428  13.817  10.627
 9020W        W72953  10.161   6.691   4.189
 9021W        W72954   3.282  21.241   2.854
 9022W        W72955  33.403  30.489   0.806
 9023W        W72956   9.749   5.363   0.334
 9024W        W72957  41.528  23.614   3.642
 9025W        W72958   0.795   9.882   1.378
 9026W        W72959  12.725  32.560  12.058
 9027W        W72960  28.485  29.007  13.888
 9028W        W72961   9.390  13.670   2.272
 9029W        W72962  22.735   1.447   3.788
 9030W        W72963   6.230  28.628  14.819
 9031W        W72964  20.270  37.437   3.733
 9032W        W72965  44.260  18.223   1.864
 9033W        W72966   3.272  37.005  14.858
 9034W        W72967   8.870   6.789  11.901
 9035W        W72968  10.316  36.011  10.962
 9036W        W72969   7.262  13.712   3.842
 9037W        W72970  34.513  29.069  13.033
 9038W        W72971  18.094  31.912   1.717
 9039W        W72972   0.954  29.149  12.567
 9040W        W72973  14.638  24.229   3.827
 9041W        W72974   5.274  31.523  10.901
 9042W        W72975  28.025   2.308  10.998
 9043W        W72976  28.578  35.007  11.909
 9044W        W72977  37.939  28.542   2.269
 9045W        W72978  21.564  29.649   2.679
 9046W        W72979  34.410  19.124  14.477
 9047W        W72980   7.236  30.097   0.250
 9048W        W72981  25.115  24.216   3.179
 9049W        W72982   7.184  20.234  13.870
 9050W        W72983  14.201  35.018   1.850
 9051W        W72984  12.641  21.085   3.363
 9052W        W72985  16.789  23.547   2.681
 9053W        W72986  10.712  44.385  11.881
 9054W        W72987  44.289  39.500  14.930
 9055W        W72988  22.594   3.752  10.610
 9056W        W72989  20.536  13.692   0.810
 9057W        W72990   1.238  13.802   2.669
 9058W        W72991  15.618  33.964   4.262
 9059W        W72992  26.970  29.144  11.114
 9060W        W72993  29.478  33.487   1.218
 9061W        W72994  40.339  15.771   1.297
 9062W        W72995  39.060  19.742   2.705
 9063W        W72996   1.916   4.745   1.237
 9064W        W72997   6.833  24.722  10.936
 9065W        W72998  42.363  40.899   0.439
 9066W        W72999  14.688  42.885   2.883
 9067W        W73000  14.778  33.463  11.538
 9068W        W73001   2.822  21.227  12.939
 9069W        W73002   0.903  25.086   4.141
 9070W        W73003  23.993  33.975  14.007
 9071W        W73004   8.293   5.749  10.976
 9072W        W73005  43.796   6.793  12.576
 9073W        W73006  38.900  22.738  11.019
 9074W        W73007   3.400   0.948  12.894
 9075W        W73008  29.592  13.717  13.032
 9076W        W73009  20.107  35.478   3.640
 9077W        W73010  17.739   4.334   3.747
 9078W        W73011  11.142  27.613   0.403
 9079W        W73012   5.263  21.086   2.673
 9080W        W73013  36.441  11.751   5.222
 9081W        W73014  13.765  35.465  13.379
 9082W        W73015  19.571  34.409  13.460
 9083W        W73016  39.539   9.718   2.329
 9084W        W73017   1.925  28.097   2.742
 9085W        W73018  27.184  18.138   3.752
 9086W        W73019  17.728   0.859   2.191
 9087W        W73020  38.367  41.014  11.502
 9088W        W73021  12.699  23.506   3.801
 9089W        W73022  31.116   0.385  12.961
 9090W        W73023  31.057  38.824   0.941
 9091W        W73024   1.755  12.352   1.802
 9092W        W73025  21.052  24.135   0.347
 9093W        W73026  24.140  39.064  12.537
 9094W        W73027  13.257  23.003   2.337
 9095W        W73028  33.410   0.475  10.935
 9096W        W73029  18.284  15.810   4.730
 9097W        W73030  32.497   0.972  13.393
 9098W        W73031  10.710  11.797  13.825
 9099W        W73032  20.582  39.872  10.496
 9100W        W73033  10.808   1.818   0.293
 9101W        W73034  22.010  43.825  13.044
 9102W        W73035  39.459  19.054  14.773
 9103W        W73036  19.624   0.325  14.445
 9104W        W73037  12.309   1.287   0.891
 9105W        W73038  43.447  11.238  14.955
 9106W        W73039  11.264  39.878  13.916
 9107W        W73040  21.706  33.925   3.154
 9108W        W73041   9.231  20.751  14.947
 9109W        W73042  36.352  11.693  14.370
 9110W        W73043  37.418  30.516   1.403
 9111W        W73044  11.259  12.161  12.924
 9112W        W73045  20.547  16.269   2.860
 9113W        W73046  12.204  20.207  10.551
 9114W        W73047  16.612  33.998  11.892
 9115W        W73048  34.485   8.308  14.811
 9116W        W73049  17.743  11.245   2.690
 9117W        W73050   6.295  31.134   1.291
 9118W        W73051   2.861   1.847  11.913
 9119W        W73052  10.319  40.026  14.275
 9120W        W73053   3.224   5.904   3.829
 9121W        W73054  30.968  11.355  14.466
 9122W        W73055   3.317  12.766   1.409
 9123W        W73056   4.283  23.123  12.976
 9124W        W73057  29.167  44.931  14.282
 9125W        W73058   6.796  25.114  14.507
 9126W        W73059  44.492  27.581   4.597
 9127W        W73060  18.291  41.371  14.350
 9128W        W73061   2.307  37.992   2.834
 9129W        W73062  24.209   3.937   0.354
 9130W        W73063  19.190  29.979  13.929
 9131W        W73064   3.289   4.784  14.834
 9132W        W73065  30.624   7.346  13.062
 9133W        W73066  44.996  17.674   2.725
 9134W        W73067  24.119  19.250  13.893
 9135W        W73068   6.290  38.387  14.787
 9136W        W73069  29.168   8.341   2.799
 9137W        W73070  31.597   0.253   4.270
 9138W        W73071   3.902  31.449   4.825
 9139W        W73072   9.307  30.493   3.173
 9140W        W73073  23.995  42.462  11.939
 9141W        W73074  13.129  26.978  13.481
 9142W        W73075  27.023  25.120  12.870
 9143W        W73076   8.721  17.063   3.751
 9144W        W73077   8.349  18.657   1.718
 9145W        W73078  13.600  13.717   4.170
 9146W        W73079  18.655  24.131  11.093
 9147W        W73080   7.173  26.558  11.539
 9148W        W73081  10.336  14.183   0.381
 9149W        W73082  26.123  25.112   3.187
 9150W        W73083   4.703   8.273  13.380
 9151W        W73084  12.125  13.831  14.327
 9152W        W73085  20.750  11.783  13.909
 9153W        W73086  42.892  40.532  10.486
 9154W        W73087  40.497   8.832   2.791
 9155W        W73088  34.393   6.356   0.850
 9156W        W73089  18.624  28.465   9.959
 9157W        W73090  29.460  34.542   2.404
 9158W        W73091  26.956  11.148   1.797
 9159W        W73092  26.978  32.121   2.411
 9160W        W73093  25.153   2.776   3.191
 9161W        W73094  22.091  31.052   4.333
 9162W        W73095  12.170  37.543  12.833
 9163W        W73096  17.596   8.176  13.513
 9164W        W73097  26.026  34.967   2.895
 9165W        W73098  37.962  37.367   9.936
 9166W        W73099  44.915  40.934  13.361
 9167W        W73100  40.363  15.709  12.357
 9168W        W73101  15.209   7.777  13.877
 9169W        W73102   6.822  18.154  12.401
 9170W        W73103  36.043   5.878  13.812
 9171W        W73104   2.831   1.398  13.900
 9172W        W73105  32.480  19.045   2.764
 9173W        W73106  43.811   2.837  13.987
 9174W        W73107  21.687  33.101   1.238
 9175W        W73108  43.282   1.806   1.297
 9176W        W73109  12.308  41.457  10.507
 9177W        W73110   9.236   6.417   4.156
 9178W        W73111  35.473  23.709   4.824
 9179W        W73112   3.297  21.147  10.935
 9180W        W73113   1.810  34.567  14.403
 9181W        W73114  19.668  25.128   3.831
 9182W        W73115  28.163  13.322   4.752
 9183W        W73116  43.979  25.055   0.890
 9184W        W73117  24.594  32.483   2.755
 9185W        W73118  38.882  33.951  13.464
 9186W        W73119   8.241  42.357  11.966
 9187W        W73120  12.279  14.745   1.417
 9188W        W73121  19.165  32.973  12.464
 9189W        W73122  22.596  31.021  12.373
 9190W        W73123  39.853  30.967   4.837
 9191W        W73124  35.853  19.698  10.586
 9192W        W73125  16.606   4.762   0.898
 9193W        W73126   4.298  41.532  14.445
 9194W        W73127  19.779  40.980   0.832
 9195W        W73128  37.915  35.477   3.291
 9196W        W73129   8.721  12.702   1.702
 9197W        W73130   2.424  11.262   3.656
 9198W        W73131  16.263  44.798  14.483
 9199W        W73132  15.781  42.943   2.281
 9200W        W73133  25.493  15.797  10.431
 9201W        W73134  23.238  30.154   3.725
 9202W        W73135  42.466  28.075   3.864
 9203W        W73136  33.078  16.242   1.704
 9204W        W73137  26.522  36.458   3.371
 9205W        W73138  27.068  11.776  14.391
 9206W        W73139  23.989  16.723   2.296
 9207W        W73140  38.521  28.548  12.385
 9208W        W73141  25.510  44.777   4.155
 9209W        W73142  12.834  42.874   4.773
 9210W        W73143  20.748  11.747   1.915
 9211W        W73144  33.390  29.153   2.758
 9212W        W73145  40.901   1.287  14.344
 9213W        W73146  42.950  18.255  14.304
 9214W        W73147  26.043   2.842  10.535
 9215W        W73148  11.275  39.444  11.980
 9216W        W73149  38.399   4.448   0.379
 9217W        W73150   2.389  42.355   3.869
 9218W        W73151   5.714  13.676   1.427
 9219W        W73152  42.947  14.806   3.318
 9220W        W73153  26.138  35.040   1.328
 9221W        W73154  30.142  17.750  10.580
 9222W        W73155   7.322  23.492   5.134
 9223W        W73156  36.382  37.000   3.643
 9224W        W73157  33.036  39.877   2.337
 9225W        W73158  12.788  16.598  13.809
 9226W        W73159  36.461  30.986   2.407
 9227W        W73160  31.414  22.161  13.383
 9228W        W73161  26.480  22.197  13.524
 9229W        W73162   7.285  24.592   0.929
 9230W        W73163   7.770   3.256  13.896
 9231W        W73164  13.721  37.484  12.074
 9232W        W73165   0.800  26.175   3.666
 9233W        W73166  15.131  11.268   4.297
 9234W        W73167  23.990  29.007   4.776
 9235W        W73168  12.201  37.336   0.330
 9236W        W73169  41.917  10.795   3.231
 9237W        W73170  27.196  17.061  13.052
 9238W        W73171  30.956  39.060   0.420
 9239W        W73172  37.968  17.719  10.493
 9240W        W73173  40.377  12.613  14.769
 9241W        W73174   0.445  15.610   2.397
 9242W        W73175  39.003  44.349  12.540
 9243W        W73176   6.233  38.398   2.677
 9244W        W73177  34.871  19.074  12.919
 9245W        W73178   4.827  31.518  11.103
 9246W        W73179   3.803  24.122  10.611
 9247W        W73180  12.182  27.005  11.911
 9248W        W73181   8.797  14.780  13.543
 9249W        W73182  32.588  23.172  14.321
 9250W        W73183   5.787  34.465  12.965
 9251W        W73184  39.852   9.859  13.350
 9252W        W73185  33.973   6.340   2.250
 9253W        W73186   5.897  22.044  11.070
 9254W        W73187  35.592  19.256   2.704
 9255W        W73188  26.002  27.194   2.830
 9256W        W73189  25.625   0.323  10.938
 9257W        W73190  32.579  20.188   1.704
 9258W        W73191  16.733  11.720   0.346
 9259W        W73192   9.859  32.977   3.825
 9260W        W73193  38.867   1.800  14.784
 9261W        W73194  20.588  27.972  13.791
 9262W        W73195   4.379  32.504   3.347
 9263W        W73196   6.250  33.993   0.301
 9264W        W73197   6.873  38.557   0.816
 9265W        W73198   6.222   3.862  12.525
 9266W        W73199  35.066  23.615   0.964
 9267W        W73200  34.567  38.924   2.381
 9268W        W73201  25.667   8.246  13.429
 9269W        W73202   2.381  25.123   4.253
 9270W        W73203  27.617   0.338   1.288
 9271W        W73204  16.204   5.289   5.266
 9272W        W73205   8.674  41.865  14.468
 9273W        W73206  30.037  38.948   1.334
 9274W        W73207  37.565   3.915   0.411
 9275W        W73208  40.345  41.854   3.787
 9276W        W73209  12.838  19.133   0.312
 9277W        W73210  40.900  30.532   0.473
 9278W        W73211  36.528  41.991  13.449
 9279W        W73212   1.973  19.172  13.336
 9280W        W73213  18.603  16.704   0.271
 9281W        W73214   7.824  41.367   2.318
 9282W        W73215  31.494  27.003  12.933
 9283W        W73216   5.753  44.442  11.445
 9284W        W73217  32.422  31.138  12.075
 9285W        W73218  44.452  11.862  10.964
 9286W        W73219  42.387   1.897   0.864
 9287W        W73220  26.062   4.321  12.421
 9288W        W73221   3.719  44.276   3.810
 9289W        W73222  43.803  14.338  14.415
 9290W        W73223  42.028  12.160   4.632
 9291W        W73224  18.189  26.633   5.305
 9292W        W73225  39.486  22.040  10.425
 9293W        W73226  26.641  12.320   2.390
 9294W        W73227  32.946   5.876  10.452
 9295W        W73228  36.082  29.535  13.416
 9296W        W73229  28.637  36.484  11.481
 9297W        W73230  40.980   4.220   3.293
 9298W        W73231  17.633  14.621  11.897
 9299W        W73232   9.377   1.929  13.421
 9300W        W73233  29.547  14.236   4.175
 9301W        W73234   3.718  10.854  10.539
 9302W        W73235  42.951  35.933  10.563
 9303W        W73236  18.692  19.751  11.087
 9304W        W73237  34.551  36.985   4.182
 9305W        W73238   7.388  40.979  11.532
 9306W        W73239  11.243  42.428  11.897
 9307W        W73240  25.607  21.163  12.923
 9308W        W73241  33.457  44.498   4.148
 9309W        W73242  42.862   8.278   3.655
 9310W        W73243  37.376  18.191   2.254
 9311W        W73244   7.317  39.508  11.965
 9312W        W73245   4.319  26.118  14.839
 9313W        W73246   1.776  30.523  13.877
 9314W        W73247  14.220  25.156   3.871
 9315W        W73248  27.552  19.117   4.827
 9316W        W73249  41.415  44.397  12.903
 9317W        W73250  19.678  29.037   3.630
 9318W        W73251  30.439  22.556   2.662
 9319W        W73252   0.272  18.283  14.944
 9320W        W73253  40.535  30.452  12.840
 9321W        W73254   9.298  17.757  13.321
 9322W        W73255   3.233  11.679  12.464
 9323W        W73256  22.677  31.459   3.204
 9324W        W73257  29.930  34.881  10.949
 9325W        W73258  24.524  29.948  13.022
 9326W        W73259   5.818  39.504  10.535
 9327W        W73260  30.598  32.399  11.559
 9328W        W73261  22.134  13.715   4.809
 9329W        W73262  18.252  22.174  10.457
 9330W        W73263  18.243  33.446   4.140
 9331W        W73264  12.708   9.788   3.322
 9332W        W73265  25.190  13.776  14.468
 9333W        W73266  12.202  17.196   4.773
 9334W        W73267  12.771  25.036   2.689
 9335W        W73268  43.930  23.109  10.979
 9336W        W73269  12.341  21.089  10.485
 9337W        W73270  29.628  14.770   2.851
 9338W        W73271  32.139  28.169   0.803
 9339W        W73272  17.787  25.114  13.840
 9340W        W73273  23.052   0.942   0.852
 9341W        W73274  34.469  25.997   1.389
 9342W        W73275   0.391  21.066   0.868
 9343W        W73276  11.331   1.789   1.846
 9344W        W73277  42.418  43.450   2.725
 9345W        W73278  42.469   8.274  12.983
 9346W        W73279  21.064  13.665  13.419
 9347W        W73280  43.275   3.268   3.171
 9348W        W73281  23.656  36.053  14.394
 9349W        W73282   2.951  33.411  12.346
 9350W        W73283  25.134  14.793  12.030
 9351W        W73284  42.874   7.839  12.392
 9352W        W73285  44.839   4.332   1.864
 9353W        W73286  42.777  38.924  12.081
 9354W        W73287  41.996  16.756  13.933
 9355W        W73288  40.500  29.453   5.093
 9356W        W73289   4.222  42.521   1.331
 9357W        W73290   6.220  26.190   1.407
 9358W        W73291  16.762  19.564   0.918
 9359W        W73292  11.297  19.125   0.314
 9360W        W73293  43.796  23.991   2.354
 9361W        W73294   5.274  30.036   0.760
 9362W        W73295  10.226   0.292  11.377
 9363W        W73296  31.992  34.005   0.753
 9364W        W73297   8.869  13.310   2.330
 9365W        W73298  36.885   5.438   4.801
 9366W        W73299  33.989   4.936  10.991
 9367W        W73300  39.895  16.663  10.932
 9368W        W73301  36.442  22.697  11.884
 9369W        W73302   2.421  35.991   2.748
 9370W        W73303  35.449  41.369  12.060
 9371W        W73304  32.893  39.419   2.803
 9372W        W73305  41.301  40.337  11.919
 9373W        W73306  28.540  34.604   1.808
 9374W        W73307  29.154  41.923   3.336
 9375W        W73308  24.007  40.928   4.273
 9376W        W73309   4.873   1.469  12.410
 9377W        W73310  25.633  34.002   2.218
 9378W        W73311  25.086  21.088   3.867
 9379W        W73312  13.763  40.369  13.016
 9380W        W73313  41.019  38.346  12.545
 9381W        W73314   3.955  10.377   0.943
 9382W        W73315  36.903  25.670   1.917
 9383W        W73316   7.296  44.418  14.899
 9384W        W73317  28.658  16.736   0.446
 9385W        W73318  38.907  32.566  12.916
 9386W        W73319  41.388   2.420  14.365
 9387W        W73320  13.267  20.575  13.423
 9388W        W73321  37.040  16.573  12.388
 9389W        W73322  41.441  32.925  13.529
 9390W        W73323   1.321  18.153   3.366
 9391W        W73324  42.439   1.804  14.328
 9392W        W73325   1.268   2.450  11.947
 9393W        W73326  30.933  27.647  11.946
 9394W        W73327  33.125  25.546   2.388
 9395W        W73328  31.138   8.406   1.762
 9396W        W73329   7.905  16.075  10.524
 9397W        W73330  16.298   3.411   0.481
 9398W        W73331  17.621  12.715   4.754
 9399W        W73332  38.537  28.162   1.869
 9400W        W73333  27.109  37.915   2.739
 9401W        W73334   2.868  34.059  11.941
 9402W        W73335  30.474  30.022   3.188
 9403W        W73336  29.603  39.466  10.509
 9404W        W73337  32.521  19.068  13.975
 9405W        W73338  27.499  41.933   4.813
 9406W        W73339  34.370  40.944  11.423
 9407W        W73340  19.774  36.930   0.767
 9408W        W73341  37.550  33.020  13.900
 9409W        W73342  10.838  30.053  11.565
 9410W        W73343  13.820  31.523   0.285
 9411W        W73344  18.740  18.258  11.578
 9412W        W73345  10.751  26.161  10.432
 9413W        W73346  40.399  19.563   0.421
 9414W        W73347  42.380  19.753  10.479
 9415W        W73348  43.282   6.221  12.566
 9416W        W73349  21.609  38.964   3.212
 9417W        W73350  17.624   3.364  10.458
 9418W        W73351   7.745   0.781  11.060
 9419W        W73352  33.522  35.476   3.781
 9420W        W73353  23.588   1.882  13.030
 9421W        W73354  41.041  18.140  14.297
 9422W        W73355  21.754  33.995   2.875
 9423W        W73356   1.742  29.461  12.458
 9424W        W73357  26.524   6.249  10.557
 9425W        W73358   6.318  40.876   0.759
 9426W        W73359  15.329  22.578  11.102
 9427W        W73360  16.120  11.679  11.921
 9428W        W73361  15.611  39.552  12.864
 9429W        W73362  40.336  38.489   4.233
 9430W        W73363  25.563   8.657   2.396
 9431W        W73364  39.367  12.234  14.348
 9432W        W73365  13.138  36.557  14.283
 9433W        W73366  41.800  15.799   9.986
 9434W        W73367  44.920  35.867   0.911
 9435W        W73368   1.480   6.186   1.375
 9436W        W73369   9.747  44.472  14.857
 9437W        W73370  43.926   2.722   4.224
 9438W        W73371  37.374  23.173  13.450
 9439W        W73372  18.641   4.387  14.482
 9440W        W73373  13.228  16.744  14.802
 9441W        W73374  30.471  12.639  14.346
 9442W        W73375  26.072  27.995  14.856
 9443W        W73376   6.688   7.882   1.761
 9444W        W73377  15.822   5.351  12.462
 9445W        W73378  20.677  21.128   4.809
 9446W        W73379   8.289  41.892   4.145
 9447W        W73380  13.692  43.768   2.781
 9448W        W73381  11.733  32.015   0.334
 9449W        W73382  27.657  19.625  13.057
 9450W        W73383  28.144  11.265   1.364
 9451W        W73384  31.403  30.153  10.430
 9452W        W73385  43.422  16.615  13.452
 9453W        W73386  40.827  18.588   4.270
 9454W        W73387  38.549  31.108  12.480
 9455W        W73388   5.770  41.012  13.002
 9456W        W73389  39.501  12.767  11.526
 9457W        W73390  12.229  25.629   3.372
 9458W        W73391  24.648  26.006   1.443
 9459W        W73392  43.353   2.257  11.527
 9460W        W73393  39.025   6.310   4.779
 9461W        W73394  26.579  43.391   3.337
 9462W        W73395  29.661   8.180  12.408
 9463W        W73396  16.151  41.818   3.154
 9464W        W73397   6.907  21.050  12.018
 9465W        W73398  32.548  37.082  11.542
 9466W        W73399   4.827  26.527  12.846
 9467W        W73400   1.905  20.185   2.204
 9468W        W73401  13.285  29.056  14.425
 9469W        W73402  19.135  19.646   1.805
 9470W        W73403  20.184  33.381   1.862
 9471W        W73404  24.074  42.293  13.434
 9472W        W73405   0.963  30.004  13.388
 9473W        W73406   5.421  36.851   0.757
 9474W        W73407  42.396  41.537   1.288
 9475W        W73408  20.552  27.568   3.249
 9476W        W73409  31.975  41.802   4.788
 9477W        W73410  29.498  20.682   3.228
 9478W        W73411  25.682  12.284   1.411
 9479W        W73412  17.101  43.992   3.672
 9480W        W73413   7.205  24.002   3.162
 9481W        W73414   7.820   7.288   4.144
 9482W        W73415  31.138  17.093  11.373
 9483W        W73416  10.748  25.218  11.572
 9484W        W73417  38.021   1.468   1.289
 9485W        W73418  43.004  33.922  12.548
 9486W        W73419  17.142  19.730  12.569
 9487W        W73420  18.160   4.352  11.410
 9488W        W73421   8.301   8.657   3.285
 9489W        W73422  25.604   5.211  10.428
 9490W        W73423   1.958  15.277  11.892
 9491W        W73424  21.160  20.075  13.457
 9492W        W73425  31.151  33.525  12.380
 9493W        W73426   4.897  10.850  13.798
 9494W        W73427  12.727   5.922   3.289
 9495W        W73428  13.135   3.317  12.933
 9496W        W73429  19.569   9.319   1.378
 9497W        W73430  30.036   6.284   0.478
 9498W        W73431  33.506  28.006  14.387
 9499W        W73432  34.091  24.171   1.220
 9500W        W73433   4.858   8.836   1.823
 9501W        W73434  24.550  27.469   1.723
 9502W        W73435  21.073  41.979   0.790
 9503W        W73436  43.324   8.847  11.115
 9504W        W73437  10.786   8.399  14.404
 9505W        W73438  43.868  38.833   3.275
 9506W        W73439  15.281  37.894   0.871
 9507W        W73440   9.887  36.361   3.634
 9508W        W73441  43.878  11.275   2.229
 9509W        W73442  41.043  28.111  13.381
 9510W        W73443  39.342  42.939   3.270
 9511W        W73444   9.277  15.288   3.756
 9512W        W73445  12.715  42.425   2.204
 9513W        W73446  35.484  18.552  12.058
 9514W        W73447  15.646   8.365  13.440
 9515W        W73448  14.629   1.267   4.802
 9516W        W73449   6.205  13.178  12.073
 9517W        W73450  37.410  35.600  13.978
 9518W        W73451  41.896  42.319  14.903
 9519W        W73452  17.647   3.305  11.589
 9520W        W73453   6.239  32.068  12.404
 9521W        W73454  24.230   7.772   2.214
 9522W        W73455  33.594  24.673   2.685
 9523W        W73456  26.613   5.266   4.799
 9524W        W73457  11.773   1.454  10.500
 9525W        W73458  34.112  31.070  14.420
 9526W        W73459  17.632   2.299   2.844
 9527W        W73460  27.947   1.264   4.273
 9528W        W73461   5.300  17.301   4.762
 9529W        W73462   3.950  38.832   4.775
 9530W        W73463  37.084  10.178  14.405
 9531W        W73464  28.674  13.297   2.289
 9532W        W73465   0.792   5.406   3.776
 9533W        W73466  23.726  16.072  10.534
 9534W        W73467  13.789   1.457  13.910
 9535W        W73468  24.703  23.027  14.368
 9536W        W73469  27.572  30.126   1.737
 9537W        W73470  43.870  21.705  11.380
 9538W        W73471  22.018  21.572  10.999
 9539W        W73472  28.562  33.939   1.885
 9540W        W73473  39.828  38.559  10.438
 9541W        W73474   0.279  20.118  14.914
 9542W        W73475  17.292  31.626   3.684
 9543W        W73476  32.037  28.507  11.922
 9544W        W73477  38.061  39.026   2.378
 9545W        W73478   0.984  29.495   5.314
 9546W        W73479  36.477  14.130  11.436
 9547W        W73480   0.915   1.323  13.860
 9548W        W73481  32.946  16.763   3.189
 9549W        W73482  43.773  23.535   1.880
 9550W        W73483  38.510  24.210   4.351
 9551W        W73484  38.448  24.480   4.805
 9552W        W73485  20.663  30.042   3.827
 9553W        W73486  34.565  25.136   1.365
 9554W        W73487  22.148  28.628   0.935
 9555W        W73488   0.861  12.322  11.466
 9556W        W73489  26.522   7.334  13.485
 9557W        W73490   7.749  24.041   3.751
 9558W        W73491  20.208  36.984  12.968
 9559W        W73492  37.030  23.036   1.695
 9560W        W73493  32.517   2.860  13.049
 9561W        W73494  28.652  33.090  14.023
 9562W        W73495  15.640  38.490  11.100
 9563W        W73496   8.831  42.389   2.797
 9564W        W73497  12.312  42.450  11.976
 9565W        W73498  12.659  31.630  11.001
 9566W        W73499  22.522  44.429  11.411
 9567W        W73500   6.786   2.765   0.387
 9568W        W73501  10.650  40.344  11.060
 9569W        W73502   1.441  26.028  14.357
 9570W        W73503  17.698  38.879   4.279
 9571W        W73504   6.723   2.303   4.642
 9572W        W73505  30.604  13.107   4.827
 9573W        W73506  19.589   2.884  12.885
 9574W        W73507   8.248  22.676   0.876
 9575W        W73508   6.248  43.934  12.994
 9576W        W73509  25.150   5.914  12.068
 9577W        W73510  28.092  16.593  11.085
 9578W        W73511  39.003  35.410  10.558
 9579W        W73512  35.108  15.756   1.220
 9580W        W73513   0.898  31.006   0.460
 9581W        W73514  20.166  33.934  12.348
 9582W        W73515   9.189  24.212   2.312
 9583W        W73516   2.932  29.568   2.869
 9584W        W73517  37.071   9.318   4.665
 9585W        W73518  26.116  31.112  12.932
 9586W        W73519   1.437  23.125   0.316
 9587W        W73520  10.726  36.958  12.907
 9588W        W73521  44.994   9.695  12.903
 9589W        W73522  12.127  42.967   3.821
 9590W        W73523  44.495  17.556   2.850
 9591W        W73524   6.771  30.161  13.833
 9592W        W73525   5.771  22.193   0.363
 9593W        W73526  29.929   2.244   4.698
 9594W        W73527  19.745  33.893   4.342
 9595W        W73528   8.775  16.195  13.992
 9596W        W73529  11.328  30.535   4.131
 9597W        W73530  36.023  17.173  14.295
 9598W        W73531  39.886   2.391  13.467
 9599W        W73532  24.001  20.526  13.441
 9600W        W73533  13.845  29.511   3.269
 9601W        W73534  10.734  40.933  12.973
 9602W        W73535  25.194  33.525   3.373
 9603W        W73536  24.707  12.147   2.380
 9604W        W73537  19.074  38.394   0.788
 9605W        W73538  44.482  41.999   3.337
 9606W        W73539  42.442  31.897   0.354
 9607W        W73540  18.777   5.418   2.259
 9608W        W73541  30.490  17.800   0.461
 9609W        W73542  20.661  12.617   0.347
 9610W        W73543  30.077  20.079   2.201
 9611W        W73544  20.680  22.556   0.821
 9612W        W73545  12.762  23.021  13.340
 9613W        W73546  28.997   7.389  12.568
 9614W        W73547  18.275  31.548  11.469
 9615W        W73548  22.998  41.419  12.379
 9616W        W73549  32.569  23.640  10.625
 9617W        W73550   9.265   1.240  14.956
 9618W        W73551  31.600  28.613  13.952
 9619W        W73552  23.607  14.277   3.314
 9620W        W73553   6.770  24.099   3.672
 9621W        W73554  39.849  13.820  12.005
 9622W        W73555  39.967  11.359  11.071
 9623W        W73556  16.592   9.185  12.534
 9624W        W73557   9.859  21.259  11.047
 9625W        W73558  20.547   4.836   9.936
 9626W        W73559  30.579  20.752   2.259
 9627W        W73560   2.739  43.475   2.852
 9628W        W73561  38.988  36.570  12.844
 9629W        W73562  18.692  12.689  11.420
 9630W        W73563  11.226  27.522  14.310
 9631W        W73564  38.859  12.267   4.642
 9632W        W73565  41.913  37.416   2.747
 9633W        W73566   2.842  29.623  11.946
 9634W        W73567  18.777  18.222  12.491
 9635W        W73568  18.128  42.358   2.379
 9636W        W73569  11.278  29.166   2.779
 9637W        W73570  14.661   0.899  11.548
 9638W        W73571  23.171  12.624   4.658
 9639W        W73572   2.865   3.938  11.481
 9640W        W73573   0.281  32.991   2.833
 9641W        W73574  18.214   2.812  10.576
 9642W        W73575  39.009  17.800  10.403
 9643W        W73576  19.729  40.817   1.923
 9644W        W73577  36.410  24.533   1.822
 9645W        W73578   8.390  36.371  13.887
 9646W        W73579  10.219  24.133  10.640
 9647W        W73580  25.065  36.453   5.100
 9648W        W73581  36.548   0.386   2.763
 9649W        W73582   9.303  29.484  14.441
 9650W        W73583   5.333   4.291   1.854
 9651W        W73584  37.513  32.111  12.830
 9652W        W73585  32.454  42.518   4.251
 9653W        W73586  12.357   3.268   1.248
 9654W        W73587  41.358  38.049  13.040
 9655W        W73588  13.228   6.912  13.540
 9656W        W73589  24.146  42.316   4.685
 9657W        W73590  42.872  23.600   3.339
 9658W        W73591  28.629  14.102  13.449
 9659W        W73592  33.042  14.316   2.692
 9660W        W73593  32.609  23.606   2.260
 9661W        W73594  37.499   2.286   3.785
 9662W        W73595  41.536   0.470   2.684
 9663W        W73596  10.367  42.386  12.905
 9664W        W73597  26.178   9.773  12.076
 9665W        W73598   6.773  38.847  12.956
 9666W        W73599  14.147  25.216   4.152
 9667W        W73600  13.121   5.913  11.946
 9668W        W73601   7.182  44.293  11.609
 9669W        W73602  14.683  36.427  13.463
 9670W        W73603  27.121   2.883   1.280
 9671W        W73604   7.398   8.206   4.289
 9672W        W73605  38.415  37.046   4.818
 9673W        W73606  21.603  27.053  13.791
 9674W        W73607  19.175  26.647  11.422
 9675W        W73608  30.445  42.390   4.707
 9676W        W73609   2.467  39.898  13.848
 9677W        W73610  33.022  26.077   0.852
 9678W        W73611  44.897  19.272   3.237
 9679W        W73612   0.381  37.017   3.291
 9680W        W73613   0.828   3.426  14.861
 9681W        W73614  39.056   5.299   1.227
 9682W        W73615  38.919  30.120   4.118
 9683W        W73616  29.468  32.888   2.214
 9684W        W73617  12.124  44.476  14.944
 9685W        W73618  44.802  15.606  10.539
 9686W        W73619  39.489  20.619  13.523
 9687W        W73620  28.054  43.786  14.481
 9688W        W73621  41.971  12.714  12.079
 9689W        W73622   8.288   2.935  14.915
 9690W        W73623  43.274  27.109  14.904
 9691W        W73624  25.980  27.542   1.251
 9692W        W73625  36.881   8.403   4.602
 9693W        W73626   6.853  36.916   0.403
 9694W        W73627  38.843   0.905   0.873
 9695W        W73628   6.828   1.326   5.727
 9696W        W73629  12.626   6.687  14.360
 9697W        W73630  18.228   3.922  12.943
 9698W        W73631  21.039  44.328   5.234
 9699W        W73632  21.063  17.249  11.500
 9700W        W73633  18.616  33.485  12.959
 9701W        W73634  37.391  14.727   3.752
 9702W        W73635  34.012   1.765  10.932
 9703W        W73636  13.718  16.599   0.823
 9704W        W73637  22.096  43.815   4.784
 9705W        W73638  10.182  39.404   4.733
 9706W        W73639  26.625   1.343   3.667
 9707W        W73640   2.955  28.116  10.927
 9708W        W73641  36.544   3.918   4.194
 9709W        W73642  33.023  23.235   3.272
 9710W        W73643   5.871  10.294  10.895
 9711W        W73644  32.936  11.140  14.439
 9712W        W73645   5.831  41.842  14.959
 9713W        W73646   1.954   2.824  11.926
 9714W        W73647  31.962   8.867  10.981
 9715W        W73648   6.792  18.649   3.320
 9716W        W73649  24.621  19.248  13.419
 9717W        W73650  43.875   4.829   1.313
 9718W        W73651   6.819  10.744   2.672
 9719W        W73652  40.875  30.589  10.911
 9720W        W73653  41.353  39.410  14.775
 9721W        W73654  30.962   8.713   4.282
 9722W        W73655  21.756  30.999   2.900
 9723W        W73656  40.873  23.506   2.815
 9724W        W73657  41.339  25.053  12.501
 9725W        W73658  38.565   7.755  10.891
 9726W        W73659   5.695   2.377   1.274
 9727W        W73660  18.218  35.985   3.267
 9728W        W73661  38.961  34.944  14.499
 9729W        W73662   2.392  28.483  11.590
 9730W        W73663  40.498  18.631   0.750
 9731W        W73664   3.811  41.358  12.965
 9732W        W73665  27.194  37.940  10.948
 9733W        W73666   4.894  23.228   3.244
 9734W        W73667  32.449  44.484   2.701
 9735W        W73668  32.918  34.106  11.124
 9736W        W73669  15.242  38.978   0.776
 9737W        W73670   9.377  34.425  14.354
 9738W        W73671   9.163  33.085  13.809
 9739W        W73672  40.364  42.511   2.791
 9740W        W73673   3.313  19.137  12.932
 9741W        W73674   7.303  20.047   3.701
 9742W        W73675  12.747   1.866   2.366
 9743W        W73676   7.360   7.875  12.995
 9744W        W73677   1.878  28.573  11.967
 9745W        W73678  26.596  36.922   0.909
 9746W        W73679  42.479  36.560   4.647
 9747W        W73680   4.426   6.241   0.848
 9748W        W73681  23.178  32.540  13.375
 9749W        W73682  35.535  21.165  14.775
 9750W        W73683   0.329  16.802  13.963
 9751W        W73684  41.799  23.615   1.311
 9752W        W73685  11.757  10.762  13.322
 9753W        W73686  35.588  42.000   3.645
 9754W        W73687  40.939  36.360  10.124
 9755W        W73688  19.168  13.792  12.390
 9756W        W73689  39.993  35.576   3.167
 9757W        W73690   5.886  36.579   0.314
 9758W        W73691  31.925  41.942  11.937
 9759W        W73692  10.204   1.794   5.121
 9760W        W73693  26.054  23.150  13.504
 9761W        W73694  24.137  40.993   0.909
 9762W        W73695   5.788  19.769  14.495
 9763W        W73696  44.314  13.614   2.393
 9764W        W73697  17.582  43.474   4.176
 9765W        W73698  26.600  24.197  13.427
 9766W        W73699   2.414   1.944  11.118
 9767W        W73700  25.597  17.246   4.309
 9768W        W73701  37.068  20.089   3.754
 9769W        W73702  39.949  36.954  14.919
 9770W        W73703  34.999  34.422  11.465
 9771W        W73704  10.704  20.620   1.885
 9772W        W73705  24.065  11.754   2.197
 9773W        W73706   1.367  41.521   3.274
 9774W        W73707   5.220  25.541   9.955
 9775W        W73708  42.884   2.414  11.073
 9776W        W73709  37.027  16.148  13.830
 9777W        W73710   3.899  11.846  13.454
 9778W        W73711  40.357  39.326   0.352
 9779W        W73712  13.276   8.753   1.241
 9780W        W73713  25.139  42.307  13.836
 9781W        W73714  10.869  22.716   4.149
 9782W        W73715   8.206  44.433  12.546
 9783W        W73716   6.260  35.019   3.670
 9784W        W73717  18.231  15.680   5.153
 9785W        W73718  36.509  33.094  14.935
 9786W        W73719  18.108   5.745   0.873
 9787W        W73720  27.451  16.790  13.541
 9788W        W73721  33.954  34.961   2.317
 9789W        W73722  14.194  22.036   0.396
 9790W        W73723  13.326  15.259  12.575
 9791W        W73724  18.698  39.409   0.768
 9792W        W73725  12.805  33.077  13.405
 9793W        W73726  22.119   7.831  14.379
 9794W        W73727  35.565  23.106   3.703
 9795W        W73728  14.707   9.725   2.865
 9796W        W73729   8.329  36.012  14.357
 9797W        W73730  19.154  36.986   4.274
 9798W        W73731  33.988  30.045  13.910
 9799W        W73732  22.614  16.087  12.844
 9800W        W73733  34.376  13.142   3.374
 9801W        W73734  22.186  17.164  14.875
 9802W        W73735   3.337  13.351  11.051
 9803W        W73736  29.135  19.606  13.903
 9804W        W73737  36.099  20.602  11.530
 9805W        W73738  10.754  36.456   2.382
 9806W        W73739  33.598  24.022   0.827
 9807W        W73740  41.944  36.515  11.599
 9808W        W73741  41.845  15.108  13.354
 9809W        W73742  21.747  27.618  12.552
 9810W        W73743  28.011  34.493   4.228
 9811W        W73744  27.943  12.721  14.394
 9812W        W73745  42.487   7.236   4.743
 9813W        W73746   7.864  20.163   2.731
 9814W        W73747   6.707  38.851   4.232
 9815W        W73748  22.234  35.079  12.482
 9816W        W73749  29.963  18.670  14.389
 9817W        W73750  42.775   4.321   4.167
 9818W        W73751  38.395  18.225   0.357
 9819W        W73752  20.643   9.301  12.386
 9820W        W73753  28.027  35.917   3.341
 9821W        W73754   4.307  27.564   0.272
 9822W        W73755  17.723  43.836  11.417
 9823W        W73756  16.078  19.222  11.483
 9824W        W73757  36.568  16.772  14.949
 9825W        W73758   3.724  39.816   2.417
 9826W        W73759   1.366   9.690  12.537
 9827W        W73760  40.469   5.846   3.832
 9828W        W73761   8.833  23.994   9.620
 9829W        W73762   9.806   9.282   1.380
 9830W        W73763   7.293  34.555   4.166
 9831W        W73764  18.723  13.802  14.811
 9832W        W73765  15.251  38.963  12.851
 9833W        W73766   4.217  43.391   2.696
 9834W        W73767  35.859  25.535  10.449
 9835W        W73768  38.985  15.696  10.414
 9836W        W73769   2.855  24.008   1.309
 9837W        W73770  24.492  19.613  14.425
 9838W        W73771  41.484   8.748  10.494
 9839W        W73772  24.705  15.646  14.356
 9840W        W73773  22.042   9.388   2.240
 9841W        W73774  35.515  40.932  10.617
 9842W        W73775  23.992  39.937   5.282
 9843W        W73776  16.581  25.704  13.922
 9844W        W73777  13.173  37.890  12.357
 9845W        W73778  44.919  36.528  12.904
 9846W        W73779   3.384  33.395   0.371
 9847W        W73780  10.304  41.376   1.765
 9848W        W73781  25.149  27.008   0.932
 9849W        W73782  44.907  22.238  12.030
 9850W        W73783   3.384   9.347  13.539
 9851W        W73784   0.264  42.294  14.387
 9852W        W73785  30.111  19.111  14.328
 9853W        W73786   3.880  27.188  10.518
 9854W        W73787  41.483  12.186  14.467
 9855W        W73788  14.258  31.463  11.921
 9856W        W73789  32.568   3.249   3.221
 9857W        W73790   0.885  14.740  11.373
 9858W        W73791  37.060  39.857  14.408
 9859W        W73792  24.120  10.182   1.438
 9860W        W73793  18.278  22.177   2.827
 9861W        W73794  12.726  26.694  14.353
 9862W        W73795   8.793  41.963   4.353
 9863W        W73796  32.116  32.009   3.182
 9864W        W73797  38.929   9.301   1.389
 9865W        W73798  37.341  41.477   4.296
 9866W        W73799  29.480  35.999  12.840
 9867W        W73800   8.306  18.192  13.541
 9868W        W73801  14.733  41.807  12.354
 9869W        W73802  38.997  12.244   0.400
 9870W        W73803  43.864  26.130  11.422
 9871W        W73804  25.966   2.870  10.896
 9872W        W73805  22.210  17.187  14.483
 9873W        W73806  20.648  36.876   4.771
 9874W        W73807  35.533  14.764  13.945
 9875W        W73808  12.792   5.231   0.304
 9876W        W73809  44.357  32.035   2.837
 9877W        W73810  41.793  18.668  11.993
 9878W        W73811  27.073  27.001   2.703
 9879W        W73812  15.615   1.254   5.280
 9880W        W73813   1.351  11.638   4.802
 9881W        W73814  21.069  31.488   4.304
 9882W        W73815   7.756   7.739   0.277
 9883W        W73816  14.774  10.767   1.268
 9884W        W73817  39.556  14.742   0.943
 9885W        W73818   1.428  32.128   2.779
 9886W        W73819  28.114   2.229  11.928
 9887W        W73820   4.773   4.743  12.848
 9888W        W73821  43.418  39.519   5.565
 9889W        W73822  33.934  13.734   1.841
 9890W        W73823  37.989  20.745   1.332
 9891W        W73824  14.253  24.680  11.494
 9892W        W73825   1.896   0.405   3.301
 9893W        W73826   8.199  26.079  13.018
 9894W        W73827  29.642  34.468  12.482
 9895W        W73828  40.484  26.655  10.933
 9896W        W73829  44.927  29.086  11.928
 9897W        W73830  42.380  41.512   2.253
 9898W        W73831  29.134   0.881   4.279
 9899W        W73832  18.070  37.066  12.340
 9900W        W73833  38.852  33.055   2.242
 9901W        W73834  33.597  27.575  10.982
 9902W        W73835  22.059   5.231  10.445
 9903W        W73836   1.389  29.464  10.975
 9904W        W73837  11.218  27.634  12.036
 9905W        W73838  41.989  23.684  12.354
 9906W        W73839   0.751  19.164  11.556
 9907W        W73840  26.556  18.547  12.363
 9908W        W73841   9.277  29.661   2.800
 9909W        W73842  22.618   1.855  10.476
 9910W        W73843  37.579  44.459   4.811
 9911W        W73844  37.919  12.742   4.181
 9912W        W73845  44.424  11.353   3.858
 9913W        W73846   3.453   2.855   1.376
 9914W        W73847  42.497   8.310  14.450
 9915W        W73848  31.423  30.608  14.892
 9916W        W73849   6.388  41.361   4.305
 9917W        W73850   5.743  20.103   1.871
 9918W        W73851  25.662   2.295   4.669
 9919W        W73852  39.425  33.110  10.912
 9920W        W73853   3.227   9.362   4.681
 9921W        W73854  26.553  24.067   1.387
 9922W        W73855   1.333   4.848  14.444
 9923W        W73856  15.733   2.866  14.775
 9924W        W73857  39.978  37.870  13.504
 9925W        W73858  13.111   8.839   3.742
 9926W        W73859  14.829  41.461   5.204
 9927W        W73860  12.691  37.576   1.391
 9928W        W73861  40.923  27.098  13.808
 9929W        W73862   2.727  31.938   1.301
 9930W        W73863  29.075  27.115  13.061
 9931W        W73864  14.679   6.915   1.286
 9932W        W73865  14.619  37.846  11.067
 9933W        W73866   8.344  42.342  13.435
 9934W        W73867   7.352  17.232   2.251
 9935W        W73868  10.245   0.984   3.781
 9936W        W73869  26.493  37.443  14.446
 9937W        W73870   9.789  44.800   4.168
 9938W        W73871  16.717  25.982   2.791
 9939W        W73872   5.345  44.011   3.244
 9940W        W73873   1.938  31.029  11.379
 9941W        W73874  36.362  29.123   0.800
 9942W        W73875  40.930   9.254  11.474
 9943W        W73876  30.011  16.630  11.603
 9944W        W73877  14.697  28.977  11.392
 9945W        W73878  39.382  25.520  11.545
 9946W        W73879  25.152  30.996  11.028
 9947W        W73880  10.226  33.917   4.744
 9948W        W73881  17.745   2.243  12.092
 9949W        W73882  30.123  14.167  13.476
 9950W        W73883   7.211  12.154  10.597
 9951W        W73884  13.120  27.473   1.284
 9952W        W73885  28.969  13.112   4.244
 9953W        W73886  37.473  33.450  13.313
 9954W        W73887  44.903  23.696  11.496
 9955W        W73888  36.444  34.875   4.181
 9956W        W73889  17.618   8.182   1.344
 9957W        W73890  15.714  34.442   2.880
 9958W        W73891   1.775  22.672  13.381
 9959W        W73892  36.048  31.128  13.545
 9960W        W73893  15.145   3.229  11.608
 9961W        W73894  28.061  44.316  14.763
 9962W        W73895  10.191  35.012  11.573
 9963W        W73896   2.303   5.918   3.287
 9964W        W73897  28.012  24.043  14.499
 9965W        W73898  29.173   4.903   2.214
 9966W        W73899  28.507  17.712   3.309
 9967W        W73900   0.766  24.588  10.981
 9968W        W73901  37.946   7.322   1.387
 9969W        W73902   9.257  37.863   3.330
 9970W        W73903  16.694  28.643  12.947
 9971W        W73904  27.669   0.903  14.282
 9972W        W73905   6.765  39.018   2.841
 9973W        W73906  20.727   8.368  13.873
 9974W        W73907  37.858  43.450  10.551
 9975W        W73908   0.799  40.511  12.360
 9976W        W73909  17.620  11.661  13.389
 9977W        W73910  39.389  25.645  10.415
 9978W        W73911  35.028   9.160  12.895
 9979W        W73912  29.056  39.999  14.931
 9980W        W73913   6.863  38.847  10.896
 9981W        W73914  17.301   7.218  12.916
 9982W        W73915  17.561   7.758  14.924
 9983W        W73916  13.343  26.626  10.900
 9984W        W73917   2.905   6.267  13.457
 9985W        W73918   7.234  26.958  14.988
 9986W        W73919  42.503  32.920   2.374
 9987W        W73920   7.238  32.565  10.404
 9988W        W73921  20.047  29.043   9.941
 9989W        W73922  42.785   3.280  10.645
 9990W        W73923  41.960  43.362   2.271
 9991W        W73924  19.620  25.184   5.629
 9992W        W73925  12.774  20.114  14.770
 9993W        W73926  14.212  44.775   0.412
 9994W        W73927  29.954  24.157   1.815
 9995W        W73928  30.155  17.798  10.893
 9996W        W73929  15.596  33.972  11.519
 9997W        W73930   4.264  34.602  10.483
 9998W        W73931  18.669   3.931   3.743
 9999W        W73932   4.266  26.604   1.898
10000W        W73933  42.379  39.010   0.911
10001W        W73934  19.575  43.838  12.431
10002W        W73935   1.758  34.433   0.772
10003W        W73936  14.781  44.938  14.464
10004W        W73937  18.130   2.865  13.526
10005W        W73938   9.178  33.082   4.686
10006W        W73939  21.096  32.410   9.975
10007W        W73940   5.707  19.723   4.615
10008W        W73941  11.148   7.231   0.362
10009W        W73942  11.750  23.201  14.489
10010W        W73943  13.315  21.665  12.541
10011W        W73944  42.480  28.988  13.800
10012W        W73945   2.790   0.841  12.998
10013W        W73946  14.684  24.535  12.091
10014W        W73947   1.244  29.472  12.979
10015W        W73948  31.558  17.251  13.397
10016W        W73949   6.726  22.671  10.136
10017W        W73950  21.738  27.450   9.675
10018W        W73951  23.639  43.952   4.264
10019W        W73952  36.355   2.336  11.117
10020W        W73953  33.587  12.327   9.976
10021W        W73954  38.860   2.336   4.336
10022W        W73955  23.083  40.992  12.052
10023W        W73956  20.254  27.151   4.350
10024W        W73957   9.217   9.666  10.514
10025W        W73958  31.519  14.274  11.579
10026W        W73959  16.672   7.402  13.543
10027W        W73960  26.503  41.506  10.557
10028W        W73961   9.280  25.018   5.269
10029W        W73962  23.557   1.252  12.973
10030W        W73963  30.564   8.277  12.377
10031W        W73964  30.955  14.315   2.768
10032W        W73965   2.906  22.214  13.353
10033W        W73966  30.130  23.579   0.341
10034W        W73967  35.482   0.381   0.449
10035W        W73968  25.673  19.080   0.328
10036W        W73969  15.151  35.359  13.384
10037W        W73970   4.271  30.456   4.152
10038W        W73971   7.281  22.148  14.364
10039W        W73972   3.750  17.694  10.644
10040W        W73973  21.201   6.303   4.687
10041W        W73974  20.093  41.962   2.366
10042W        W73975  18.604  28.058   1.856
10043W        W73976   7.392  17.093   1.212
10044W        W73977  31.113  18.756  11.060
10045W        W73978   7.755  20.728   2.810
10046W        W73979  38.047   6.293  14.902
10047W        W73980  20.224  10.853   4.237
10048W        W73981   9.311  40.922   3.339
10049W        W73982  44.397  13.805   0.944
10050W        W73983  38.989   3.894  11.461
10051W        W73984  28.991   3.315   1.241
10052W        W73985  35.005   1.459  11.985
10053W        W73986  29.585   6.303  13.468
10054W        W73987  11.143  16.698   3.286
10055W        W73988  35.885   9.702  13.891
10056W        W73989  20.233  34.011   3.165
10057W        W73990  27.188  36.091   2.354
10058W        W73991  20.251  23.198   3.323
10059W        W73992  19.705  29.160   2.756
10060W        W73993  17.563  13.812   3.712
10061W        W73994   3.293  26.196   4.624
10062W        W73995  30.910   3.726   4.279
10063W        W73996  16.748  14.271  11.578
10064W        W73997  35.854  31.989  14.893
10065W        W73998  12.313   4.847  12.534
10066W        W73999  25.982  17.618   4.335
10067W        W74000  12.636  23.652  12.546
10068W        W74001  17.265  11.859   2.277
10069W        W74002  19.725  26.089  14.816
10070W        W74003  42.848  33.517  14.843
10071W        W74004  35.488  32.513  10.408
10072W        W74005  35.454  20.126   2.702
10073W        W74006  42.782  22.519   5.242
10074W        W74007  35.450  42.788  13.011
10075W        W74008  36.048  17.769   0.741
10076W        W74009   3.377  44.365   1.797
10077W        W74010  29.575   1.444   3.330
10078W        W74011  42.525   2.734   0.954
10079W        W74012  10.206  42.804  14.794
10080W        W74013  12.718  27.551  12.075
10081W        W74014  15.601  30.563  12.479
10082W        W74015  13.620  32.003   4.606
10083W        W74016  26.659   4.905  14.482
10084W        W74017  43.863  20.253   0.754
10085W        W74018  36.533  39.908   9.958
10086W        W74019  18.717  34.521  13.936
10087W        W74020  32.090   4.762   2.883
10088W        W74021  34.068  36.017  10.479
10089W        W74022  11.835  24.543   3.800
10090W        W74023  38.494  10.731   4.729
10091W        W74024  33.556  36.084   2.212
10092W        W74025  25.203  33.014   3.260
10093W        W74026  15.704  15.187  12.486
10094W        W74027  15.653  42.431   1.761
10095W        W74028  44.761  19.722   2.732
10096W        W74029  21.664  37.518   2.303
10097W        W74030  39.390  35.582  14.868
10098W        W74031  38.459  25.123  12.953
10099W        W74032  31.629  16.659  12.929
10100W        W74033  43.862  40.456   2.226
10101W        W74034  24.973  39.985  13.336
10102W        W74035   5.411  16.585   0.738
10103W        W74036  20.056  19.740   3.757
10104W        W74037  16.304  18.247  13.342
10105W        W74038  44.432  40.001  13.548
10106W        W74039  16.589  18.626  13.376
10107W        W74040  31.455  23.217  14.859
10108W        W74041  18.052   9.151  12.556
10109W        W74042  27.050  23.038   1.266
10110W        W74043   3.355  30.414  14.504
10111W        W74044  11.184  27.095   4.329
10112W        W74045   5.819   8.226   4.623
10113W        W74046   8.820  29.098  12.362
10114W        W74047   8.404   8.801  13.484
10115W        W74048   2.248   2.257   0.825
10116W        W74049  12.285  35.940  10.514
10117W        W74050  38.884  36.846   3.297
10118W        W74051  13.169  33.449   0.772
10119W        W74052  27.563  39.498  13.003
10120W        W74053  15.739  36.440   0.838
10121W        W74054   9.844  22.563   1.766
10122W        W74055   1.461  13.350   1.833
10123W        W74056   9.677  39.540   4.761
10124W        W74057  22.718  23.523  10.124
10125W        W74058   7.890  25.173   3.157
10126W        W74059  11.831  27.666  14.357
10127W        W74060  39.052  41.433   2.385
10128W        W74061  43.860  42.833   2.798
10129W        W74062  39.407  43.883   3.181
10130W        W74063  25.103  40.016   2.786
10131W        W74064  28.633   2.837   3.825
10132W        W74065  22.202  26.629   3.169
10133W        W74066  31.139  22.103   1.236
10134W        W74067  20.062   4.294  11.397
10135W        W74068  21.191  20.588  13.495
10136W        W74069   5.326  18.646   1.806
10137W        W74070  41.312  15.579   4.306
10138W        W74071  33.610   0.315   4.715
10139W        W74072  37.013  39.908  14.825
10140W        W74073  30.518  22.661  13.386
10141W        W74074  35.525  41.939   4.197
10142W        W74075   8.894  20.759   1.404
10143W        W74076   0.945  28.484   2.725
10144W        W74077   8.810  40.366   0.345
10145W        W74078   5.193   7.692  13.974
10146W        W74079  20.769  22.063   1.276
10147W        W74080  18.619   1.239  10.544
10148W        W74081  41.844  43.439   3.813
10149W        W74082  36.035  39.398  11.126
10150W        W74083  42.390   6.727  11.419
10151W        W74084  28.582  44.495  10.963
10152W        W74085  44.264  16.743  12.047
10153W        W74086   1.835  18.110   0.326
10154W        W74087   9.392  38.881  10.060
10155W        W74088  40.000  14.252   4.728
10156W        W74089  15.808  36.035  13.823
10157W        W74090  27.534  21.184   2.232
10158W        W74091  38.444  24.129   4.646
10159W        W74092  43.486  35.011   2.323
10160W        W74093   5.321  44.291  10.511
10161W        W74094  35.981  34.503   1.780
10162W        W74095  27.599  41.445   0.472
10163W        W74096  19.274  33.460  11.487
10164W        W74097  12.825  10.797   3.375
10165W        W74098   8.740  35.065  10.423
10166W        W74099  37.012  34.377  11.584
10167W        W74100  33.468  20.094   0.444
10168W        W74101  29.046  24.545  13.409
10169W        W74102   0.439  22.093   0.471
10170W        W74103  41.384  17.304   1.732
10171W        W74104   7.878   5.759  12.522
10172W        W74105  19.726  37.467   5.317
10173W        W74106  38.374  43.502   4.348
10174W        W74107  15.652  17.650  12.014
10175W        W74108  24.481  11.291  14.360
10176W        W74109   3.286  28.547  11.601
10177W        W74110  15.650  25.072   2.845
10178W        W74111  40.901  33.599   3.641
10179W        W74112  44.863  29.023  11.415
10180W        W74113  30.641  34.421   1.851
10181W        W74114  28.493  28.436  11.012
10182W        W74115  40.497  24.570   2.880
10183W        W74116   3.456  25.112  10.467
10184W        W74117  26.163  24.221  13.377
10185W        W74118  44.805  33.614  14.782
10186W        W74119  27.502  20.543   1.350
10187W        W74120  11.287  11.359   2.232
10188W        W74121   4.919  27.658  11.509
10189W        W74122  39.942  17.799   3.634
10190W        W74123  31.521  44.326  12.406
10191W        W74124  34.520  39.835  14.304
10192W        W74125  20.558  38.838  14.845
10193W        W74126  33.004  42.846   4.126
10194W        W74127  36.902  40.947  11.448
10195W        W74128  20.259  29.051  12.976
10196W        W74129  19.677  24.065  13.812
10197W        W74130   6.194  18.245  14.841
10198W        W74131  24.616  21.244  10.584
10199W        W74132  19.603  27.029  12.409
10200W        W74133  43.458  16.275  12.496
10201W        W74134  20.080  36.512  10.903
10202W        W74135  28.168  32.010  12.418
10203W        W74136   9.809   2.333   2.215
10204W        W74137  31.640  16.090   1.307
10205W        W74138  12.353  34.941  13.917
10206W        W74139  33.580  31.108   4.229
10207W        W74140   2.352  36.087   5.216
10208W        W74141   7.302  43.513  10.918
10209W        W74142  30.500   4.276   2.738
10210W        W74143  27.951  26.572   4.786
10211W        W74144  42.523  14.727   1.211
10212W        W74145  40.543  36.062   1.345
10213W        W74146  38.446  20.767  11.405
10214W        W74147  14.813  37.527  13.540
10215W        W74148  15.603  24.053  13.054
10216W        W74149  23.156  38.913  13.504
10217W        W74150  19.567   9.848   1.379
10218W        W74151  12.741  36.519  11.573
10219W        W74152   2.407  24.991   0.474
10220W        W74153   3.834  32.476  11.963
10221W        W74154   4.912  32.584   2.748
10222W        W74155   4.362  20.606   1.310
10223W        W74156   7.745  43.393   4.712
10224W        W74157   4.722  41.459   9.989
10225W        W74158  20.235  41.447   3.328
10226W        W74159  27.182   8.685  11.464
10227W        W74160  29.624   4.875  13.369
10228W        W74161  21.226  30.133  11.580
10229W        W74162   1.315  25.680  14.997
10230W        W74163   9.880  24.209   4.181
10231W        W74164  30.414  18.736  13.928
10232W        W74165  42.385  42.342   2.405
10233W        W74166  25.020  10.354   3.355
10234W        W74167  27.136  13.678  14.344
10235W        W74168  23.532  17.088  11.951
10236W        W74169  35.536  21.526   2.310
10237W        W74170   8.221  22.118  14.960
10238W        W74171  40.389   7.203   1.307
10239W        W74172  18.171  38.419  12.894
10240W        W74173  20.620  37.052   0.776
10241W        W74174  27.644  10.676   4.625
10242W        W74175  17.119  17.124  11.033
10243W        W74176   5.238  25.127   3.160
10244W        W74177  30.051  43.283   0.441
10245W        W74178  33.010  21.543   0.829
10246W        W74179   5.336  36.407  12.951
10247W        W74180  26.067  33.015   1.385
10248W        W74181  29.139  34.092   4.653
10249W        W74182  33.106   3.934  14.410
10250W        W74183  36.475  43.961  12.962
10251W        W74184  15.630  12.633  12.530
10252W        W74185  20.029  21.028   9.978
10253W        W74186  23.708  44.327  14.873
10254W        W74187  13.814   3.390   2.747
10255W        W74188  20.747  10.780  13.442
10256W        W74189  35.487   2.820   2.312
10257W        W74190  14.292   0.789   4.255
10258W        W74191   0.826   1.332   3.230
10259W        W74192   6.916  40.525   2.230
10260W        W74193   4.908  22.203  12.854
10261W        W74194   9.718  29.645  10.494
10262W        W74195   3.388  35.896   4.773
10263W        W74196  36.878  36.451  11.865
10264W        W74197   8.233  42.523  14.403
10265W        W74198   1.875   5.289  12.554
10266W        W74199  13.777  23.732  13.925
10267W        W74200  40.536  38.887  13.805
10268W        W74201  12.346  18.757  12.928
10269W        W74202   0.855  13.263  13.798
10270W        W74203  26.537  26.614   4.155
10271W        W74204  23.660  24.510  14.421
10272W        W74205  10.696   5.237   0.430
10273W        W74206   7.275  10.261  14.865
10274W        W74207  28.590   3.871   4.301
10275W        W74208  19.192  25.130   2.728
10276W        W74209  13.273  16.769  10.602
10277W        W74210  39.436   8.720   3.658
10278W        W74211  41.481  25.145  13.057
10279W        W74212  34.892  27.595  14.370
10280W        W74213  14.807   0.274   3.340
10281W        W74214  44.320   4.919  12.375
10282W        W74215  39.010  39.559  11.927
10283W        W74216   8.676  40.414   0.780
10284W        W74217  11.725  21.082   2.692
10285W        W74218  13.844   6.799  13.413
10286W        W74219  25.558  16.635   2.721
10287W        W74220  44.400   0.965   5.307
10288W        W74221  31.628   1.304   4.775
10289W        W74222   4.325  11.269   4.767
10290W        W74223  11.837   9.707  13.522
10291W        W74224  32.140  30.509   4.261
10292W        W74225  10.253   1.952  14.775
10293W        W74226  42.342  35.464   2.280
10294W        W74227  38.028  36.399  11.935
10295W        W74228  29.448  43.865   3.742
10296W        W74229  10.734  12.324  13.812
10297W        W74230  23.617  28.000  14.467
10298W        W74231   4.261  26.043   4.320
10299W        W74232  43.351  26.109  14.462
10300W        W74233   5.834  38.566   0.852
10301W        W74234  23.632   3.317  13.333
10302W        W74235   5.307   0.966   0.848
10303W        W74236  26.548  21.165  13.537
10304W        W74237  21.521  43.420   2.692
10305W        W74238  33.446   8.731  14.930
10306W        W74239  35.052   2.424  13.825
10307W        W74240  15.287  16.121  11.962
10308W        W74241   6.247  28.008  12.459
10309W        W74242  37.407  12.187   2.692
10310W        W74243  35.436  18.294   3.729
10311W        W74244  29.933  41.406   4.744
10312W        W74245  38.855  40.347  10.459
10313W        W74246  43.420  40.425   5.153
10314W        W74247  26.604   2.904  14.300
10315W        W74248  29.957  30.576  14.471
10316W        W74249  44.398  35.550  13.002
10317W        W74250  16.197  38.499   0.854
10318W        W74251   7.877   8.655  11.865
10319W        W74252  35.515   4.889  10.463
10320W        W74253  39.895  11.204   0.319
10321W        W74254   5.860  23.691  10.075
10322W        W74255  27.675  41.923   1.733
10323W        W74256  17.111  38.549  11.870
10324W        W74257  26.548   6.797   2.886
10325W        W74258  19.704  24.117   2.283
10326W        W74259  12.628  11.369  12.438
10327W        W74260  13.606  14.282  11.884
10328W        W74261  14.225  30.494   3.375
10329W        W74262   5.429  16.182  13.041
10330W        W74263   2.461   5.829   0.451
10331W        W74264   5.696   9.828   4.603
10332W        W74265  17.664   5.253  11.415
10333W        W74266   6.311  20.733   3.310
10334W        W74267   2.429  24.570  10.410
10335W        W74268  39.345   5.243   2.362
10336W        W74269  18.131  43.838  14.425
10337W        W74270  23.138  21.741  14.483
10338W        W74271  11.744  33.584   3.735
10339W        W74272  12.621   5.786   3.670
10340W        W74273  18.149   2.351   4.765
10341W        W74274  28.605  42.834  13.847
10342W        W74275  11.654  16.750  10.946
10343W        W74276  31.013  38.922   4.130
10344W        W74277  36.453  12.799  14.919
10345W        W74278   8.315  15.652   1.405
10346W        W74279  13.139  21.742  10.600
10347W        W74280   0.815  16.078  12.845
10348W        W74281  31.147  32.400   3.758
10349W        W74282  23.038  29.034  13.983
10350W        W74283   7.256   8.726  12.054
10351W        W74284  27.981  44.973  10.558
10352W        W74285  26.645   4.805   1.450
10353W        W74286   5.900  11.300  14.486
10354W        W74287  20.100  22.644  13.500
10355W        W74288  16.292  33.571  13.004
10356W        W74289  16.282  36.980   3.742
10357W        W74290  34.081  34.601   1.724
10358W        W74291  26.604  16.293   2.340
10359W        W74292  14.230  36.844  14.008
10360W        W74293   3.950  12.183   0.845
10361W        W74294   3.352   1.786  14.958
10362W        W74295  16.710  23.209  13.394
10363W        W74296  42.002   4.844   3.669
10364W        W74297  25.582  29.141   3.299
10365W        W74298  26.500  34.893  13.308
10366W        W74299  34.479  35.520  12.519
10367W        W74300  32.087  31.131  13.880
10368W        W74301  23.010  43.976   1.820
10369W        W74302  23.636  20.142  13.033
10370W        W74303   8.880  16.310  12.417
10371W        W74304  26.513   2.732  11.005
10372W        W74305  17.261  12.224   0.482
10373W        W74306  19.050  14.282  11.420
10374W        W74307  19.750  31.564   3.200
10375W        W74308  28.468  11.657  13.841
10376W        W74309  14.276  18.622   4.321
10377W        W74310   9.256   3.903   0.327
10378W        W74311  41.535   3.451  11.896
10379W        W74312  11.817  10.216  13.494
10380W        W74313  16.665  13.719   4.675
10381W        W74314  17.119  43.766  13.407
10382W        W74315  20.694  19.540  13.525
10383W        W74316  15.153   2.835  12.356
10384W        W74317   5.237   2.746  10.109
10385W        W74318  30.556   1.976   2.865
10386W        W74319  33.615   1.271   0.964
10387W        W74320  36.960  22.078  13.463
10388W        W74321  32.946  28.078   1.331
10389W        W74322  42.313   1.462   3.164
10390W        W74323   0.756  35.023   0.828
10391W        W74324  44.954  40.427   1.910
10392W        W74325  34.879  21.583  12.053
10393W        W74326  36.046  29.521   2.244
10394W        W74327  32.051  38.829   0.435
10395W        W74328  15.648  24.992   0.798
10396W        W74329  18.663  17.766   3.387
10397W        W74330  13.160  24.691   4.720
10398W        W74331  36.874  33.624   3.792
10399W        W74332  29.047   8.218  13.399
10400W        W74333   8.378  11.199  12.391
10401W        W74334  34.115   3.410   3.257
10402W        W74335   4.412  25.521  14.394
10403W        W74336  32.401  26.127  13.384
10404W        W74337  43.955  24.568  10.582
10405W        W74338  38.032  21.561   0.798
10406W        W74339   9.255  12.185   1.399
10407W        W74340  36.425  15.786   4.344
10408W        W74341  19.585  18.281  10.990
10409W        W74342  10.376  41.880  11.411
10410W        W74343   9.300  25.158  13.833
10411W        W74344  17.701  14.719   0.287
10412W        W74345   5.804  22.661   0.835
10413W        W74346  13.634  31.424  14.314
10414W        W74347  26.172   4.447   3.251
10415W        W74348  35.024  44.264  10.546
10416W        W74349  34.097  29.591  13.442
10417W        W74350  35.495  15.229   0.879
10418W        W74351  37.048  13.213   4.756
10419W        W74352   1.890  31.971  11.561
10420W        W74353  26.103   8.785  13.445
10421W        W74354  44.332  40.856   1.790
10422W        W74355  12.825  34.925   3.827
10423W        W74356  37.045  42.911  12.397
10424W        W74357  12.330   1.776   3.827
10425W        W74358  20.743  15.642   5.222
10426W        W74359  36.908  27.518   1.869
10427W        W74360   3.879  29.125  14.485
10428W        W74361   7.298   9.837  13.038
10429W        W74362  30.989   2.868  14.020
10430W        W74363  12.131  10.147   1.296
10431W        W74364  37.389   9.248   1.249
10432W        W74365   7.856  33.416   3.332
10433W        W74366   1.804   7.874   3.216
10434W        W74367   4.351  17.646   3.253
10435W        W74368  16.245  33.507   0.378
10436W        W74369  27.159  16.784   2.203
10437W        W74370  22.147  12.751   3.800
10438W        W74371  31.004  38.983  12.861
10439W        W74372  44.407   4.342  12.563
10440W        W74373  43.936  26.527  10.539
10441W        W74374  11.138  29.055   3.326
10442W        W74375   4.269  23.706   9.956
10443W        W74376   3.235  26.062   4.350
10444W        W74377  24.975   8.733   0.477
10445W        W74378  28.466   0.833   5.221
10446W        W74379  39.946  41.964  11.103
10447W        W74380  15.221  32.890  10.637
10448W        W74381  11.202  25.712   3.177
10449W        W74382  25.118   4.282  12.444
10450W        W74383  10.781  28.062  10.023
10451W        W74384  31.405  25.091   0.783
10452W        W74385  22.690  29.085  11.413
10453W        W74386  28.172  38.398  11.530
10454W        W74387  14.260   4.225  14.310
10455W        W74388  12.787   3.360  13.963
10456W        W74389  38.331   6.362   4.137
10457W        W74390  35.386   1.476   4.661
10458W        W74391  36.000  29.967  11.567
10459W        W74392  23.649  25.566   4.187
10460W        W74393  27.017  25.963  12.860
10461W        W74394  29.162  22.531  10.918
10462W        W74395  32.442   2.451  10.945
10463W        W74396  43.773  11.345   4.294
10464W        W74397  40.476  25.059   0.478
10465W        W74398  24.674  20.541   0.750
10466W        W74399  42.858   8.768   4.665
10467W        W74400  13.731  20.066  10.532
10468W        W74401  18.151  43.795  14.948
10469W        W74402  33.538   9.813   3.307
10470W        W74403  33.509  16.291  14.000
10471W        W74404  18.735  22.650  12.548
10472W        W74405  10.687   7.394  14.872
10473W        W74406  20.755  17.284   2.359
10474W        W74407   6.218  31.450   3.366
10475W        W74408  42.781  11.648   5.226
10476W        W74409  16.757  40.388   2.832
10477W        W74410  21.633  26.960  11.478
10478W        W74411  39.438  43.798   2.196
10479W        W74412   8.774  37.549  10.126
10480W        W74413  43.918  22.046   2.190
10481W        W74414  27.093  10.783   3.283
10482W        W74415  34.598  43.764  11.053
10483W        W74416  18.068   9.323   3.641
10484W        W74417  29.594  30.918  14.280
10485W        W74418  38.341  41.797  11.124
10486W        W74419  26.997   8.261   1.872
10487W        W74420  10.632   5.728  13.971
10488W        W74421  13.275  31.145   1.326
10489W        W74422  25.523  37.556  10.110
10490W        W74423  10.706  44.410  10.483
10491W        W74424  26.080   4.407  11.444
10492W        W74425   9.678   3.787  11.019
10493W        W74426  37.390   1.291  11.092
10494W        W74427  41.454  10.676   2.852
10495W        W74428  19.610  26.642   0.893
10496W        W74429   1.377  15.273   1.266
10497W        W74430   5.345   1.916  12.957
10498W        W74431   2.261   1.397  13.437
10499W        W74432   4.716  12.168  13.799
10500W        W74433  28.586  32.576   4.792
10501W        W74434  12.685  28.024  14.010
10502W        W74435   1.807  40.323  14.774
10503W        W74436  27.661  34.918  12.884
10504W        W74437   4.778  44.326   3.679
10505W        W74438  21.581   8.383  11.098
10506W        W74439   6.701  17.557  14.015
10507W        W74440  41.874  26.615   0.291
10508W        W74441   2.338  43.883  12.077
10509W        W74442   6.768   7.844  13.861
10510W        W74443  16.638   5.325  11.581
10511W        W74444  43.291  11.742  11.101
10512W        W74445  10.854  28.565   4.123
10513W        W74446  16.112  18.075  10.152
10514W        W74447   2.268   8.836   2.843
10515W        W74448  19.542   7.203   3.760
10516W        W74449  34.560  38.970   1.926
10517W        W74450  31.426  20.637   1.232
10518W        W74451   4.342  26.130  12.055
10519W        W74452  13.766  29.433   4.234
10520W        W74453  12.318  25.129   4.805
10521W        W74454  14.698  28.980   2.373
10522W        W74455  37.415  28.610  11.911
10523W        W74456  18.785  15.110   9.924
10524W        W74457  13.251  16.279   3.381
10525W        W74458  24.126  27.516  14.332
10526W        W74459  22.043  25.131  12.545
10527W        W74460  27.657  25.115  11.987
10528W        W74461  20.225   6.871   0.729
10529W        W74462   8.655  20.689   4.687
10530W        W74463  35.406  44.974  12.528
10531W        W74464   7.872  29.007  14.346
10532W        W74465  10.785   9.246   2.699
10533W        W74466  43.937   3.796  14.314
10534W        W74467  40.506  29.470  12.481
10535W        W74468  14.726  14.158  14.826
10536W        W74469   0.913  23.536   0.270
10537W        W74470   0.835  32.901   1.240
10538W        W74471  17.568   7.301  12.030
10539W        W74472  28.576  43.432   1.887
10540W        W74473  21.690  39.040   3.647
10541W        W74474  31.096  42.879   2.186
10542W        W74475  27.972  44.922   4.686
10543W        W74476   5.769  10.254  13.533
10544W        W74477  18.053  11.626   4.324
10545W        W74478  29.141  16.806  13.508
10546W        W74479   9.721  11.371  12.549
10547W        W74480  37.051  21.583   1.332
10548W        W74481  43.417  10.211  11.567
10549W        W74482  33.880   2.919   1.413
10550W        W74483  11.265  11.140   4.648
10551W        W74484   2.935  34.024   3.671
10552W        W74485  29.175  36.846  13.953
10553W        W74486  14.790  17.093   2.752
10554W        W74487   4.302  16.690   1.927
10555W        W74488   6.801  40.502   1.350
10556W        W74489  15.195  15.642  13.397
10557W        W74490   8.673  15.759   2.211
10558W        W74491  15.792  19.591   9.934
10559W        W74492  42.357   2.726   4.248
10560W        W74493  40.318  25.629   4.192
10561W        W74494   7.231  40.859  10.921
10562W        W74495  21.654  24.696   1.713
10563W        W74496  37.428   7.189   0.952
10564W        W74497  29.081  12.838  11.474
10565W        W74498  43.495  39.466  12.917
10566W        W74499  11.721  31.910  12.531
10567W        W74500  30.481   9.196  12.947
10568W        W74501  33.518  15.280   0.474
10569W        W74502  27.487  20.725   4.666
10570W        W74503   3.357  24.594   2.324
10571W        W74504  36.585   0.860  11.372
10572W        W74505  17.266  12.813   1.421
10573W        W74506   3.436  39.016   2.769
10574W        W74507  39.398  29.145  14.277
10575W        W74508  40.384  17.163   0.449
10576W        W74509  28.515  26.557   2.245
10577W        W74510  39.027  28.132   4.222
10578W        W74511  32.625   6.679  13.319
10579W        W74512  37.342  21.644  12.011
10580W        W74513  36.926  31.984  14.864
10581W        W74514  11.341  10.339   0.751
10582W        W74515  26.134  36.050  11.542
10583W        W74516  32.600  11.779  14.370
10584W        W74517   1.460  25.186   1.248
10585W        W74518  11.162  18.724   3.267
10586W        W74519  10.690   1.243   4.737
10587W        W74520  22.040  10.360   5.609
10588W        W74521  23.677  17.743  14.759
10589W        W74522  25.983  26.660   3.328
10590W        W74523  19.743  11.345   0.940
10591W        W74524  35.564   4.917   1.728
10592W        W74525  12.133  18.607   0.802
10593W        W74526   7.890  15.647  13.991
10594W        W74527  13.762  16.606  11.860
10595W        W74528  41.425  36.995   4.156
10596W        W74529  34.496   8.345   2.352
10597W        W74530  28.182  35.457  10.593
10598W        W74531  44.451  16.078  11.452
10599W        W74532   6.741   0.415   2.867
10600W        W74533   7.175  34.080  11.535
10601W        W74534  43.308  35.536  11.887
10602W        W74535  37.413  41.000   3.313
10603W        W74536  35.392  16.106  14.414
10604W        W74537  31.974  37.063  12.573
10605W        W74538   4.862  14.755   3.685
10606W        W74539  27.107  20.689  13.351
10607W        W74540  28.093  29.938   4.168
10608W        W74541  18.633  29.591  10.987
10609W        W74542  32.585  30.040   0.410
10610W        W74543   0.372  17.592  11.010
10611W        W74544  37.857  29.055  10.969
10612W        W74545  30.932   4.861   0.389
10613W        W74546   0.335  40.546  14.821
10614W        W74547  44.935   9.333   0.358
10615W        W74548  37.461  33.985  11.889
10616W        W74549  31.426  35.944  13.792
10617W        W74550   0.889  44.835   4.172
10618W        W74551  27.479  26.486   3.830
10619W        W74552  37.423  38.965   0.843
10620W        W74553   2.951  44.505   0.948
10621W        W74554   5.392  34.565   4.783
10622W        W74555  18.154  12.290  11.907
10623W        W74556  32.597  30.157  14.306
10624W        W74557  24.519  13.801  14.315
10625W        W74558  27.178   0.407   5.173
10626W        W74559  18.548  25.703   9.475
10627W        W74560  20.650  25.136   2.719
10628W        W74561  41.384  36.363  14.361
10629W        W74562  32.019  18.688   3.674
10630W        W74563  15.658   3.809  12.081
10631W        W74564  42.317  11.174   2.417
10632W        W74565  33.084  24.653  14.950
10633W        W74566  15.145  16.296   2.356
10634W        W74567  29.459  21.553  12.539
10635W        W74568  16.095   2.907  10.525
10636W        W74569  24.190  44.398   4.260
10637W        W74570  23.511  17.114  14.980
10638W        W74571  35.499  15.688   3.859
10639W        W74572  12.210  10.862   1.279
10640W        W74573  15.719  16.713   1.236
10641W        W74574  42.408  22.659  11.939
10642W        W74575  19.683  33.013   2.713
10643W        W74576  11.625  28.439   1.238
10644W        W74577  31.919   7.416   0.467
10645W        W74578   2.427  34.521  13.951
10646W        W74579  44.308  15.100  10.066
10647W        W74580   7.737  22.571   3.187
10648W        W74581  41.526  19.759   1.930
10649W        W74582  27.547   0.966  14.990
10650W        W74583   4.873   3.869  14.770
10651W        W74584  31.993   8.849  10.448
10652W        W74585  17.619  18.682  10.545
10653W        W74586   4.446  38.505  12.043
10654W        W74587  12.200  14.821  13.057
10655W        W74588  43.935  18.780   4.665
10656W        W74589   3.378  15.671  14.945
10657W        W74590  35.538  25.684  12.027
10658W        W74591  23.712  32.415  10.926
10659W        W74592  26.644  23.143  11.105
10660W        W74593   8.247  24.075  14.974
10661W        W74594  15.727   6.858  12.950
10662W        W74595  28.553  23.520  12.967
10663W        W74596   9.251  44.352   4.680
10664W        W74597  24.534  10.179   3.252
10665W        W74598  22.581  31.455   0.943
10666W        W74599  25.975   8.716   3.200
10667W        W74600  17.184  19.682  14.378
10668W        W74601  43.381  17.151   0.464
10669W        W74602  40.909   6.233  14.503
10670W        W74603  43.855  38.073  12.347
10671W        W74604  29.078   6.194   3.208
10672W        W74605  36.573  36.408  11.118
10673W        W74606   9.271  17.210   2.406
10674W        W74607   6.382  25.590   1.251
10675W        W74608  36.366  10.235  13.931
10676W        W74609  28.640  44.794  13.803
10677W        W74610   3.757  15.787   4.687
10678W        W74611  32.049  27.062  14.304
10679W        W74612  23.689  33.486   0.416
10680W        W74613  28.673  26.034  11.419
10681W        W74614  18.240  43.469   1.303
10682W        W74615   2.415  36.010   4.826
10683W        W74616  40.535   0.974   1.282
10684W        W74617  31.405  37.571  12.845
10685W        W74618   0.965  19.570   0.798
10686W        W74619  17.123  38.865   3.680
10687W        W74620   1.786  22.017  11.938
10688W        W74621  32.976  44.274   3.173
10689W        W74622  14.623  10.690  11.105
10690W        W74623  28.060  26.504   9.985
10691W        W74624  18.778   3.736   4.688
10692W        W74625   6.733   2.825  11.027
10693W        W74626  17.799  12.262   3.752
10694W        W74627  27.005  25.057   2.780
10695W        W74628  13.678  42.445   0.936
10696W        W74629  24.572   5.267   4.816
10697W        W74630  11.691  29.935  12.396
10698W        W74631  28.624  31.620  14.913
10699W        W74632  39.549  12.693   3.242
10700W        W74633  11.242  14.795  12.895
10701W        W74634  24.154  39.840   2.395
10702W        W74635   6.345  44.312  13.346
10703W        W74636  44.825  12.616  12.020
10704W        W74637  13.843  22.629   1.797
10705W        W74638  30.939  33.520  10.588
10706W        W74639  31.022  27.016   3.197
10707W        W74640  16.231  13.613  11.940
10708W        W74641  42.024  14.828  14.907
10709W        W74642  24.216  18.665   3.288
10710W        W74643  31.038  41.931  14.417
10711W        W74644  20.063  18.111  10.490
10712W        W74645  25.589  44.403   2.744
10713W        W74646  43.492  33.604  12.073
10714W        W74647  17.799  29.928  13.942
10715W        W74648  40.325  43.013   4.161
10716W        W74649  41.857  11.290  11.963
10717W        W74650  32.632  13.716   3.832
10718W        W74651  35.376  10.691  12.001
10719W        W74652  22.094  20.751   1.728
10720W        W74653  32.529  36.976   2.805
10721W        W74654  33.909  17.669   1.826
10722W        W74655  16.797   2.882  14.386
10723W        W74656  41.009  17.596  14.335
10724W        W74657  44.345  25.186   1.860
10725W        W74658  33.078  42.326  10.472
10726W        W74659  44.334  12.667  12.034
10727W        W74660  31.459  14.325  10.494
10728W        W74661  26.194  37.361   2.265
10729W        W74662  13.767  37.563  10.443
10730W        W74663  17.754  38.830   2.693
10731W        W74664  32.010  38.513  12.933
10732W        W74665  14.245  14.203  12.369
10733W        W74666  40.452  11.310  10.517
10734W        W74667  20.656  30.914  12.525
10735W        W74668  25.038  43.477   0.883
10736W        W74669  20.260  27.605   3.148
10737W        W74670   9.258  26.564  11.525
10738W        W74671  44.474   3.394   1.895
10739W        W74672  33.988  27.172  12.880
10740W        W74673  26.689  25.549  14.027
10741W        W74674  38.010  24.035  13.943
10742W        W74675  43.370  39.864  12.376
10743W        W74676  27.680  17.666   2.380
10744W        W74677  20.761  29.954   0.336
10745W        W74678  29.096  18.079  13.426
10746W        W74679  12.655  34.371  14.862
10747W        W74680   5.858  40.491  10.625
10748W        W74681  41.467   6.284  13.430
10749W        W74682  39.376  37.007  13.400
10750W        W74683   2.348   1.964   0.920
10751W        W74684  20.586  16.072  10.000
10752W        W74685  44.987  20.719  13.353
10753W        W74686   3.731  14.266   3.631
10754W        W74687  28.988   4.232   1.303
10755W        W74688  13.607  10.165   2.329
10756W        W74689  24.055  34.438  10.898
10757W        W74690  23.606  22.096   2.870
10758W        W74691  41.978  30.529  14.887
10759W        W74692  23.557  10.834  12.405
10760W        W74693  11.308  13.825  11.095
10761W        W74694  30.986  40.484  10.984
10762W        W74695  20.542  22.567  11.980
10763W        W74696  14.674  20.243   2.410
10764W        W74697  27.623  26.981  13.991
10765W        W74698  41.986  30.127  13.522
10766W        W74699  41.840   1.974  11.090
10767W        W74700   9.386  44.910  11.065
10768W        W74701  31.934  27.679  13.009
10769W        W74702   2.764  16.769   1.892
10770W        W74703  34.527  43.385   0.760
10771W        W74704  35.004  25.544   3.246
10772W        W74705   9.882  43.324  11.970
10773W        W74706  16.232   1.468   4.838
10774W        W74707  13.278  28.134   3.356
10775W        W74708  12.321  40.468  11.901
10776W        W74709   9.659  12.799   0.436
10777W        W74710  30.634   9.678   1.828
10778W        W74711  42.328   4.229  14.796
10779W        W74712   7.729  27.669  11.582
10780W        W74713  16.590   8.205  13.351
10781W        W74714   1.926  14.782  13.415
10782W        W74715   7.415   2.250   4.785
10783W        W74716   6.757  31.149   4.287
10784W        W74717  41.501  14.652  11.579
10785W        W74718   9.318  10.693  11.889
10786W        W74719   4.712  33.419   0.874
10787W        W74720  22.123  34.555   4.613
10788W        W74721  18.167  12.657   2.411
10789W        W74722   0.361  40.368  13.965
10790W        W74723  14.098  15.625  10.069
10791W        W74724  30.972  16.579   0.291
10792W        W74725  20.670  30.424   4.824
10793W        W74726  25.092  21.228   2.220
10794W        W74727  38.925   8.854   0.367
10795W        W74728   0.851  40.444   9.942
10796W        W74729   9.336   5.742   1.810
10797W        W74730   9.869  15.657   2.385
10798W        W74731  44.808  19.728  11.997
10799W        W74732  39.928  25.039  11.471
10800W        W74733  22.180  31.125  11.923
10801W        W74734  14.187   6.883   2.729
10802W        W74735  39.867  16.691   3.158
10803W        W74736  40.442  11.199  11.423
10804W        W74737  43.841   0.857   0.407
10805W        W74738  18.076  29.093   4.137
10806W        W74739  19.540  43.813  13.521
10807W        W74740   6.368  40.967  14.434
10808W        W74741  30.151  42.896  12.083
10809W        W74742   3.742  31.487   3.701
10810W        W74743  15.134   8.319  10.108
10811W        W74744  23.997  32.496   4.827
10812W        W74745  44.374  20.670   2.783
10813W        W74746  29.636  24.502  12.045
10814W        W74747   7.385   0.311   1.757
10815W        W74748  30.627  25.991  13.414
10816W        W74749   4.760   3.371  10.408
10817W        W74750  12.181  34.864  10.420
10818W        W74751  16.594  27.028   0.848
10819W        W74752  36.429  33.919  13.791
10820W        W74753  22.198  33.912   4.251
10821W        W74754  31.001  21.619   1.234
10822W        W74755  28.435  36.894  12.083
10823W        W74756  27.582   4.435  14.888
10824W        W74757  27.463  35.487   0.397
10825W        W74758  37.059  18.155   1.441
10826W        W74759  43.020  39.534   0.827
10827W        W74760  27.998  31.585   3.298
10828W        W74761  27.196  15.174  12.532
10829W        W74762   5.239  19.759  13.957
10830W        W74763  37.568  28.644  12.416
10831W        W74764  31.411  30.440  11.470
10832W        W74765  22.631   1.323   1.782
10833W        W74766  15.803  29.942  13.063
10834W        W74767  16.307  24.481  13.987
10835W        W74768  41.802  22.526  10.034
10836W        W74769  37.007  17.277  10.637
10837W        W74770  41.946  21.044  11.387
10838W        W74771  39.875  15.210  12.570
10839W        W74772  27.587  30.959   4.741
10840W        W74773  33.401   9.273  12.558
10841W        W74774  17.100  10.741  12.432
10842W        W74775  34.010  12.295  12.090
10843W        W74776   4.805   5.412  14.839
10844W        W74777   2.809  10.693  14.996
10845W        W74778  15.710  37.467  11.978
10846W        W74779   0.371  12.760   0.862
10847W        W74780  13.702   0.289  13.980
10848W        W74781   6.381  32.543  10.452
10849W        W74782  18.737  25.132   5.171
10850W        W74783   8.235  26.150   0.301
10851W        W74784  39.915  23.102   4.695
10852W        W74785   2.922  26.702  13.430
10853W        W74786   3.853  25.079   1.752
10854W        W74787   2.830  10.690  13.895
10855W        W74788   6.857  25.684   9.473
10856W        W74789  12.328  12.671  13.985
10857W        W74790  13.624   3.240  11.419
10858W        W74791  38.974   3.280  11.461
10859W        W74792  10.319  10.876   1.862
10860W        W74793  12.298   4.741   0.952
10861W        W74794  40.529  33.542   0.258
10862W        W74795  28.482  27.982   1.320
10863W        W74796  41.414  36.038  12.841
10864W        W74797   3.951  14.744   2.379
10865W        W74798  11.825  30.438  11.517
10866W        W74799  39.824  36.583  13.858
10867W        W74800  10.330   0.435   1.840
10868W        W74801   8.383  26.652  11.546
10869W        W74802   5.306   6.709   0.292
10870W        W74803  17.263   6.313   4.348
10871W        W74804  43.271  30.447   4.726
10872W        W74805  39.953  40.486   2.900
10873W        W74806  26.012   2.464   3.707
10874W        W74807  24.191  12.212   5.196
10875W        W74808  16.214  16.298  12.397
10876W        W74809  31.933  41.310  14.918
10877W        W74810   7.299  24.606  12.396
10878W        W74811  15.785   9.301  10.444
10879W        W74812  44.836   4.305   2.377
10880W        W74813  27.630  29.163  12.501
10881W        W74814   0.256  23.149   1.724
10882W        W74815  14.648  32.983  10.610
10883W        W74816  42.787  24.555  11.988
10884W        W74817  44.868   1.897   2.900
10885W        W74818  36.068  37.562   1.321
10886W        W74819  34.089  34.402   0.350
10887W        W74820  30.563  39.394  13.025
10888W        W74821  13.748  29.126   0.759
10889W        W74822   0.773  44.476  12.080
10890W        W74823   1.897  13.629  10.628
10891W        W74824   8.664  16.148   2.212
10892W        W74825   7.329  11.281   3.862
10893W        W74826  31.120  38.951   1.398
10894W        W74827  37.506  34.456   4.148
10895W        W74828  42.410  11.190  10.550
10896W        W74829   8.672  23.567  12.395
10897W        W74830  34.064   6.371  13.484
10898W        W74831  12.260  35.574  11.082
10899W        W74832  17.620   2.461  13.404
10900W        W74833   0.456  42.856   0.845
10901W        W74834  21.638   0.301  11.566
10902W        W74835  20.188  33.474  12.365
10903W        W74836  31.034  12.804  14.839
10904W        W74837  37.970   2.739  10.428
10905W        W74838  13.662  41.835  14.954
10906W        W74839  30.606  21.527  12.359
10907W        W74840  13.130  32.074  12.861
10908W        W74841   1.750  11.131  12.361
10909W        W74842  22.571   5.359  14.515
10910W        W74843  22.741  15.298  14.837
10911W        W74844  29.541   8.791  12.389
10912W        W74845  25.665   3.278   3.816
10913W        W74846  30.052  17.236   2.391
10914W        W74847  40.885   8.400  10.998
10915W        W74848  24.134  29.923  14.354
10916W        W74849  25.154  31.897  10.159
10917W        W74850  19.068  42.778   3.678
10918W        W74851  39.517  20.634  11.570
10919W        W74852   6.821  22.689  10.492
10920W        W74853  35.425   5.331   4.179
10921W        W74854  42.815  41.521   1.932
10922W        W74855   2.397   8.823   0.462
10923W        W74856   4.269  24.182   0.790
10924W        W74857  18.199  35.009  11.518
10925W        W74858   6.295  35.590  11.518
10926W        W74859  44.964   9.330   1.346
10927W        W74860   7.185  33.512   4.234
10928W        W74861  25.608  44.430  12.531
10929W        W74862  25.117  33.468  11.468
10930W        W74863  30.998  41.968  11.480
10931W        W74864   4.270  12.248  12.863
10932W        W74865   3.777   0.443  10.960
10933W        W74866  11.129  12.321  13.982
10934W        W74867  32.402  40.544  13.036
10935W        W74868   8.190  41.912   2.252
10936W        W74869   5.722  33.454   0.262
10937W        W74870   0.328   5.797   4.669
10938W        W74871  24.137  31.412   1.758
10939W        W74872  18.585  42.900  14.499
10940W        W74873  41.815  12.786   0.409
10941W        W74874  42.861  44.372  10.597
10942W        W74875  27.161   5.343  10.464
10943W        W74876  25.584  31.062  14.872
10944W        W74877  35.382  28.513  12.522
10945W        W74878   5.853  21.513   2.330
10946W        W74879  26.522  43.922   3.344
10947W        W74880  18.081  33.562  12.844
10948W        W74881   5.786  30.967   2.374
10949W        W74882  22.048  39.877  11.484
10950W        W74883  13.804  16.183   1.793
10951W        W74884  44.835  32.433  10.959
10952W        W74885  30.010  43.302  10.593
10953W        W74886  28.171  24.679  14.437
10954W        W74887   9.748  21.166  14.834
10955W        W74888  25.600   1.298   2.370
10956W        W74889  32.990  43.764  12.491
10957W        W74890  33.069  24.990  14.884
10958W        W74891   0.926  17.120  12.950
10959W        W74892   9.354  36.563   4.256
10960W        W74893   9.150  10.871  12.469
10961W        W74894  15.689  26.667   9.954
10962W        W74895  44.819  29.105  13.324
10963W        W74896  19.767   6.273  12.557
10964W        W74897  20.157  19.629   5.224
10965W        W74898  26.566  10.705   3.299
10966W        W74899  32.615  24.650   0.355
10967W        W74900  30.456  22.218   2.679
10968W        W74901  25.035  34.438  10.415
10969W        W74902  38.890  16.644  12.447
10970W        W74903  38.858  37.510  12.030
10971W        W74904  40.404  34.571  13.976
10972W        W74905  27.161  21.744  10.898
10973W        W74906  39.448  19.639  13.972
10974W        W74907   6.723  32.622   4.612
10975W        W74908  30.631  19.690  11.967
10976W        W74909   4.374  44.385   0.874
10977W        W74910   1.307  32.136  13.803
10978W        W74911  26.197  12.137  10.606
10979W        W74912  11.800  26.461   2.225
10980W        W74913   2.417  38.402  12.904
10981W        W74914   8.336  42.397   0.392
10982W        W74915  33.079  17.086  13.408
10983W        W74916   7.805  34.014  14.844
10984W        W74917  14.740  22.209  10.949
10985W        W74918  44.452  38.345   1.752
10986W        W74919  43.352   4.799   0.278
10987W        W74920   7.176  22.660   4.733
10988W        W74921  15.644  25.552  13.836
10989W        W74922  40.544  21.154  12.936
10990W        W74923  20.647  43.314   4.779
10991W        W74924  28.648  39.553  13.022
10992W        W74925  40.389  35.521   4.226
10993W        W74926  41.329   5.774   3.149
10994W        W74927  28.028  34.991   0.268
10995W        W74928   3.732   3.787   2.298
10996W        W74929   2.728  15.132   0.857
10997W        W74930  20.184  12.832  11.119
10998W        W74931   9.301  26.186   2.201
10999W        W74932   1.433  44.406   4.184
11000W        W74933  41.307  12.323  11.917
11001W        W74934   6.678  39.057   0.342
11002W        W74935  39.391  10.171  10.934
11003W        W74936   6.759  37.035  11.071
11004W        W74937  40.459   3.305  14.971
11005W        W74938   0.806   8.834   4.724
11006W        W74939  35.093  11.845  10.630
11007W        W74940  26.551  34.103   2.251
11008W        W74941  24.003  33.498  11.865
11009W        W74942  13.213  18.284  13.834
11010W        W74943  20.081  44.761   3.314
11011W        W74944  25.593  23.030  12.064
11012W        W74945   6.756  12.674  13.312
11013W        W74946  22.737  39.878  12.518
11014W        W74947  42.340  28.005  12.541
11015W        W74948  25.616  26.071   3.653
11016W        W74949  31.411  34.489   4.644
11017W        W74950   7.206  41.843  12.005
11018W        W74951   6.394  24.015  10.979
11019W        W74952   5.783  21.070   1.332
11020W        W74953  44.767  10.643   4.638
11021W        W74954   3.395   8.735   5.091
11022W        W74955  39.911  13.305   0.247
11023W        W74956  26.560  25.674  12.955
11024W        W74957  10.193  22.054  12.924
11025W        W74958  13.764  24.149   1.369
11026W        W74959  42.282  30.160  10.613
11027W        W74960   3.374   6.823  13.939
11028W        W74961   9.874  44.780  12.873
11029W        W74962  11.781  11.275  13.876
11030W        W74963  34.486  32.029  13.502
11031W        W74964  40.053   1.443  12.525
11032W        W74965  42.897  14.750   2.902
11033W        W74966   2.431  34.925  12.580
11034W        W74967  13.296  36.974   4.600
11035W        W74968  21.581   3.393  13.476
11036W        W74969  11.843  12.721  14.396
11037W        W74970  18.595  39.961   3.656
11038W        W74971  25.185  24.518  12.860
11039W        W74972  40.004  34.944   2.271
11040W        W74973  31.972   6.726  14.970
11041W        W74974  18.763  25.152   3.744
11042W        W74975  15.216  24.506   4.352
11043W        W74976  26.167  27.175  11.390
11044W        W74977  25.558   1.841  10.501
11045W        W74978  21.654   9.721   0.821
11046W        W74979  12.819  29.079  13.392
11047W        W74980  44.758  28.606   3.666
11048W        W74981  16.598  31.003   0.826
11049W        W74982  13.667   7.821   1.836
11050W        W74983  22.660   6.253   4.129
11051W        W74984   3.780  42.301   4.806
11052W        W74985  29.478  12.342  12.502
11053W        W74986  42.389  14.166  12.872
11054W        W74987  17.778  20.161  13.373
11055W        W74988   2.299   2.461  13.062
11056W        W74989   2.890  30.611  10.925
11057W        W74990  30.138   4.234   0.775
11058W        W74991  18.765  32.043   4.255
11059W        W74992  42.793   5.364  14.829
11060W        W74993  23.594  13.749   3.360
11061W        W74994  29.466  43.271   1.787
11062W        W74995  35.506  19.272   4.177
11063W        W74996  11.664  26.148  14.492
11064W        W74997  27.577   4.311  14.461
11065W        W74998  12.824  16.768  11.611
11066W        W74999  17.151  42.522  14.985
11067W        W75000  32.542   7.855   3.260
11068W        W75001  11.622  33.959  12.999
11069W        W75002  38.549  38.833  11.560
11070W        W75003  17.724   4.926   2.371
11071W        W75004  31.630   9.701  14.922
11072W        W75005  39.373  16.577  11.865
11073W        W75006   4.394  24.167  10.538
11074W        W75007  29.073  18.757   3.836
11075W        W75008  38.868  37.078   1.911
11076W        W75009  23.588  33.960   4.764
11077W        W75010   9.169  32.523  11.489
11078W        W75011  34.882  17.760  13.044
11079W        W75012  18.726  17.728   2.845
11080W        W75013   2.876  28.940  14.981
11081W        W75014  41.360  28.161   4.157
11082W        W75015  14.783  33.530  10.415
11083W        W75016   0.903  15.709  14.002
11084W        W75017  15.238  42.382   3.833
11085W        W75018  35.908  40.328   1.259
11086W        W75019  33.420  17.214  10.928
11087W        W75020  17.766   1.278   4.331
11088W        W75021  40.889   8.185  13.514
11089W        W75022  23.996  10.293   4.694
11090W        W75023  32.922   7.813   0.301
11091W        W75024  22.631  37.018   1.257
11092W        W75025  44.459  40.376  11.434
11093W        W75026   9.658  19.078  14.346
11094W        W75027  35.008  36.002   3.774
11095W        W75028  30.491  31.588   3.192
11096W        W75029  44.472  40.828  11.435
11097W        W75030  31.520  23.507  12.347
11098W        W75031  21.149  20.666  10.141
11099W        W75032  42.909   9.170  14.467
11100W        W75033  38.034  26.460  12.829
11101W        W75034  27.552  40.470   3.196
11102W        W75035  25.476  25.644  10.472
11103W        W75036  15.211  21.611  14.310
11104W        W75037  34.543   8.732   4.160
11105W        W75038   3.820  26.654  10.905
11106W        W75039  23.575  29.466  12.866
11107W        W75040  19.730   0.390   0.770
11108W        W75041  12.684  28.000   3.852
11109W        W75042  36.385   4.909  14.331
11110W        W75043  19.236  20.070  10.906
11111W        W75044  22.105  21.733   3.828
11112W        W75045  28.569   8.741   0.456
11113W        W75046   0.861  14.293   3.327
11114W        W75047  38.861  42.954  11.564
11115W        W75048   1.860  16.760   1.335
11116W        W75049  26.593  16.604   1.877
11117W        W75050  36.511  13.193  12.836
11118W        W75051  42.510  33.447   1.331
11119W        W75052  30.463  22.617  11.900
11120W        W75053  11.643  29.564   2.305
11121W        W75054   4.310  34.592   4.736
11122W        W75055  10.685   1.827   1.270
11123W        W75056  36.387  44.801   1.232
11124W        W75057  44.981  10.383  14.399
11125W        W75058   9.270  29.540   3.332
11126W        W75059  16.301  37.025   4.627
11127W        W75060  37.846  13.342   2.691
11128W        W75061  38.564  34.869  12.458
11129W        W75062  20.620  17.609   2.354
11130W        W75063   4.210  16.134  12.457
11131W        W75064  13.843  29.595  14.017
11132W        W75065   5.224  29.918  11.416
11133W        W75066  26.960  44.444  13.343
11134W        W75067  33.132  43.342   3.644
11135W        W75068  20.754  42.991   2.357
11136W        W75069  21.695  37.539   0.475
11137W        W75070  25.506   8.406   0.456
11138W        W75071  42.980  19.641  11.000
11139W        W75072  25.501  11.802   4.205
11140W        W75073  31.065   1.747   3.698
11141W        W75074  31.480  35.052   2.849
11142W        W75075  24.540  37.002  14.792
11143W        W75076   6.888  39.395   0.866
11144W        W75077  11.721  15.316   3.710
11145W        W75078   6.798  38.864  14.858
11146W        W75079   4.423  30.475  14.474
11147W        W75080  31.996  14.658   2.678
11148W        W75081  40.050   9.271  11.017
11149W        W75082  21.681  32.982  14.337
11150W        W75083   9.674  34.996   2.851
11151W        W75084  15.150  21.184  14.363
11152W        W75085  12.829  11.181  11.939
11153W        W75086  41.853   8.748   0.428
11154W        W75087  26.473  28.185   4.344
11155W        W75088  28.163  28.626   2.833
11156W        W75089  13.751  22.559  13.511
11157W        W75090  11.352  29.117  12.572
11158W        W75091  24.565  12.252  10.562
11159W        W75092  28.089   6.371  12.366
11160W        W75093  11.144  16.593  11.967
11161W        W75094  15.680  29.487   0.951
11162W        W75095   3.768  37.947  13.368
11163W        W75096  32.981  11.743   4.269
11164W        W75097  23.995  20.273  13.847
11165W        W75098  19.706  30.552  10.947
11166W        W75099  13.305   9.150   1.821
11167W        W75100   0.784  20.534  11.097
11168W        W75101  43.909  18.629  11.108
11169W        W75102  13.296  38.914   2.780
11170W        W75103  10.179   9.781  12.061
11171W        W75104  17.740  32.024   2.218
11172W        W75105  40.011   2.403   1.746
11173W        W75106  38.502  18.781  14.792
11174W        W75107  25.567  41.892   4.143
11175W        W75108  30.516  38.864  10.556
11176W        W75109  28.035  29.939   0.733
11177W        W75110  20.587  28.670  12.537
11178W        W75111  40.810  27.135  12.931
11179W        W75112  32.561   4.373   1.844
11180W        W75113   1.353  22.187  12.970
11181W        W75114  20.606  16.115   0.474
11182W        W75115   0.905  28.463   2.241
11183W        W75116   3.841  40.016  14.462
11184W        W75117   1.476  29.152   0.466
11185W        W75118  14.751   6.249   1.420
11186W        W75119  26.052  26.589  13.035
11187W        W75120   0.256  37.945  11.111
11188W        W75121  24.108  10.749  13.045
11189W        W75122  31.963  25.000   1.448
11190W        W75123  40.809  37.521  14.315
11191W        W75124   4.313  16.764  10.964
11192W        W75125  39.061  33.504   4.727
11193W        W75126  35.901  16.141   4.204
11194W        W75127  30.559  11.297  10.605
11195W        W75128  33.103  19.285   1.929
11196W        W75129  12.644  12.215   0.834
11197W        W75130  17.692  15.818  11.007
11198W        W75131  23.985  40.027   3.155
11199W        W75132  26.187  40.354  11.883
11200W        W75133   6.891  36.412   2.757
11201W        W75134   0.253  43.889  14.377
11202W        W75135  25.662  26.206  11.084
11203W        W75136  30.157  31.109   3.341
11204W        W75137  44.455  13.710  13.938
11205W        W75138  43.960  20.628   4.230
11206W        W75139  32.632  20.566   3.631
11207W        W75140  36.938   1.302  11.936
11208W        W75141  38.393  15.103  12.906
11209W        W75142  22.698  32.090  11.051
11210W        W75143  18.678  38.495   1.262
11211W        W75144   3.912  29.472  10.633
11212W        W75145  38.994  16.128  12.980
11213W        W75146  34.431  44.489   3.751
11214W        W75147  21.569  18.282  10.590
11215W        W75148   8.866  25.041  11.448
11216W        W75149   1.400   0.939  13.548
11217W        W75150  39.893  44.364  11.591
11218W        W75151   8.255  32.061  12.430
11219W        W75152  22.671   5.778   2.383
11220W        W75153   7.346  34.425   3.364
11221W        W75154  23.518  38.960  14.471
11222W        W75155  39.816  28.641  10.585
11223W        W75156  12.158  24.993   3.851
11224W        W75157  32.900  13.702   4.231
11225W        W75158  43.319   7.834  11.873
11226W        W75159  13.608  20.084  14.781
11227W        W75160  26.534  16.569  13.389
11228W        W75161  36.567   5.304  12.870
11229W        W75162  44.782  39.955  13.993
11230W        W75163  10.708  29.469  14.779
11231W        W75164   5.730   1.345   9.543
11232W        W75165  40.934  23.676  14.313
11233W        W75166   2.796  31.523  10.612
11234W        W75167  38.393  33.499   2.253
11235W        W75168  16.749  33.069   0.455
11236W        W75169  13.216  33.507   1.370
11237W        W75170  43.408  29.621  10.494
11238W        W75171  43.020  31.618  13.520
11239W        W75172  21.657  23.207  10.472
11240W        W75173   4.424  38.950  13.873
11241W        W75174   9.729  21.207   5.319
11242W        W75175  33.978  19.138  12.082
11243W        W75176  44.899  10.148  10.623
11244W        W75177  33.089  11.247  13.037
11245W        W75178  18.662   2.295   0.343
11246W        W75179  20.576  23.099  11.970
11247W        W75180   6.910  43.787   1.361
11248W        W75181   5.436  32.636   1.400
11249W        W75182  13.304  36.464   3.215
11250W        W75183  15.216   6.711  14.902
11251W        W75184  17.755  12.271   1.758
11252W        W75185  35.858  41.457  13.885
11253W        W75186  29.511  37.512   1.853
11254W        W75187  21.026  10.354  12.431
11255W        W75188  24.975  41.839  10.411
11256W        W75189  22.238   1.781  13.998
11257W        W75190  41.330  21.181   2.849
11258W        W75191  11.648  15.251   4.114
11259W        W75192   9.248  24.654  13.004
11260W        W75193  42.375  37.077  11.057
11261W        W75194  43.923  21.704   0.817
11262W        W75195  34.408  15.697   1.238
11263W        W75196  12.857  16.279   0.373
11264W        W75197  42.323  12.815  14.513
11265W        W75198  10.309  35.077  12.437
11266W        W75199  15.784   7.394  12.348
11267W        W75200  13.774  35.380   2.755
11268W        W75201  18.679  35.069  14.908
11269W        W75202  11.764  44.282  13.807
11270W        W75203   4.288   3.367   0.846
11271W        W75204  28.500  27.654  13.334
11272W        W75205  20.232  10.156   5.171
11273W        W75206  15.777   2.451   1.420
11274W        W75207  12.710  44.371   0.937
11275W        W75208  17.587   8.265   3.656
11276W        W75209   3.397   9.676   4.279
11277W        W75210  20.030  40.991   4.150
11278W        W75211  38.381  37.084  11.529
11279W        W75212  29.450  41.786  13.856
11280W        W75213   3.426  43.929   2.879
11281W        W75214  13.663  28.991  13.035
11282W        W75215  15.123  13.330   1.382
11283W        W75216  40.814  44.338   1.884
11284W        W75217  30.050   5.792   1.703
11285W        W75218  11.866  28.072  14.392
11286W        W75219  18.188   6.186  14.995
11287W        W75220  33.505  31.074   1.297
11288W        W75221  39.325  15.110   1.444
11289W        W75222  29.029  41.476  13.815
11290W        W75223   8.842  17.233   2.250
11291W        W75224  19.566  11.202   2.379
11292W        W75225  22.253   2.829   2.219
11293W        W75226  12.245   9.720   3.770
11294W        W75227   8.765  36.586  14.471
11295W        W75228   8.182   3.885   2.663
11296W        W75229  36.068  22.997   3.329
11297W        W75230  38.391  34.868  12.008
11298W        W75231  20.109  14.204  13.024
11299W        W75232  14.160   5.426  13.977
11300W        W75233  38.951   1.955   3.249
11301W        W75234  21.150  32.050  13.843
11302W        W75235  34.559   4.784   1.397
11303W        W75236  24.138  43.423  10.542
11304W        W75237  41.845  25.102  13.372
11305W        W75238  36.362  34.082   3.687
11306W        W75239   9.770  36.485   4.218
11307W        W75240  19.728  22.624  10.621
11308W        W75241  16.213  24.582  14.514
11309W        W75242  38.410  13.227   0.410
11310W        W75243   4.772  18.141  12.083
11311W        W75244  39.382  38.489  14.964
11312W        W75245  27.570   1.401  11.476
11313W        W75246   9.334   6.724   0.751
11314W        W75247   8.750  16.774  10.427
11315W        W75248   1.257  12.773  13.953
11316W        W75249  19.243  42.523  10.636
11317W        W75250  20.683  17.772  12.853
11318W        W75251  25.612  18.560   4.639
11319W        W75252  42.022  35.418   4.700
11320W        W75253  28.680  10.181  12.494
11321W        W75254  44.403  31.117   3.164
11322W        W75255  40.374  18.214   3.715
11323W        W75256  18.107  11.675   2.325
11324W        W75257  10.371  24.182  12.454
11325W        W75258  21.169   9.201   1.440
11326W        W75259   6.283  23.061   4.644
11327W        W75260  29.578   1.972  11.878
11328W        W75261  16.687  41.943   3.672
11329W        W75262   1.427  28.599   4.260
11330W        W75263  43.985  39.885   1.864
11331W        W75264   8.355  17.783   4.172
11332W        W75265  18.236  22.040  14.424
11333W        W75266   2.352  22.213  10.590
11334W        W75267  23.125  23.202   3.695
11335W        W75268   6.779   4.399   1.897
11336W        W75269   2.941  32.998   2.810
11337W        W75270   0.391   1.968  11.470
11338W        W75271   2.867   9.743  13.858
11339W        W75272  10.661  18.664  13.323
11340W        W75273  16.240  12.351   2.816
11341W        W75274  41.512  19.144  10.558
11342W        W75275  32.966  23.169   1.909
11343W        W75276  10.708  24.527   1.365
11344W        W75277  12.170  16.209  12.096
11345W        W75278  10.826   8.654   2.271
11346W        W75279  23.687  16.132   2.883
11347W        W75280  11.251   0.973   4.703
11348W        W75281  16.663   4.259   5.788
11349W        W75282  42.991  44.405  13.933
11350W        W75283  33.944  21.595  10.500
11351W        W75284  22.204  14.199  11.898
11352W        W75285  29.627  18.146  11.406
11353W        W75286  11.714   3.899  12.341
11354W        W75287  38.044  38.823   4.136
11355W        W75288  34.992  24.155  14.511
11356W        W75289   9.253   2.785   2.254
11357W        W75290   3.348  16.752  11.904
11358W        W75291   0.938  34.605   5.164
11359W        W75292  13.229  19.638  12.014
11360W        W75293  24.572  15.097   2.702
11361W        W75294   6.919   6.334   0.297
11362W        W75295  26.159   7.323  14.514
11363W        W75296  28.624  25.620  14.463
11364W        W75297  13.830  20.606  10.558
11365W        W75298  42.012  26.532  14.833
11366W        W75299  37.886  18.093  11.039
11367W        W75300   3.896  38.348  12.927
11368W        W75301  25.033   4.209   2.692
11369W        W75302  16.307   0.798   2.288
11370W        W75303   6.864   6.787  10.987
11371W        W75304  43.782  25.107  13.352
11372W        W75305   7.825  31.559   1.362
11373W        W75306  31.559  13.814   2.286
11374W        W75307  38.339  17.167   1.302
11375W        W75308   2.421   8.323  10.892
11376W        W75309  24.227  18.631   5.269
11377W        W75310  10.191  30.562   4.311
11378W        W75311  18.655  27.463   0.908
11379W        W75312  25.114  17.193  12.486
11380W        W75313  38.454  24.635  12.417
11381W        W75314  43.516  13.786  13.058
11382W        W75315  31.073  42.873   4.759
11383W        W75316  13.188   9.218  14.932
11384W        W75317  11.237  31.619   4.231
11385W        W75318  11.848  19.601   3.369
11386W        W75319  22.094  19.780  11.449
11387W        W75320  15.642   3.772   2.405
11388W        W75321   5.883   3.431  11.583
11389W        W75322  22.170  22.156  12.362
11390W        W75323   8.896  35.404  11.379
11391W        W75324  42.837   1.367   1.292
11392W        W75325   3.713   5.764   4.185
11393W        W75326  15.660   6.195   4.277
11394W        W75327  44.290   4.278  10.071
11395W        W75328   8.676  18.619   3.810
11396W        W75329  24.023   4.885  13.396
11397W        W75330   2.430   3.460   2.827
11398W        W75331  26.563  20.081   4.123
11399W        W75332   1.408  40.410   0.247
11400W        W75333   0.302  13.675  11.091
11401W        W75334  32.086  15.726  10.939
11402W        W75335   8.316   1.326  10.510
11403W        W75336  27.634   1.851   2.800
11404W        W75337  43.937  13.795   1.308
11405W        W75338  31.905  19.176   4.305
11406W        W75339  18.235  35.906  10.971
11407W        W75340  40.525  36.937   5.085
11408W        W75341  15.727  42.288  12.441
11409W        W75342  37.560  16.674   0.861
11410W        W75343  15.617  14.170   2.710
11411W        W75344   5.404  23.635   4.270
11412W        W75345   0.248  12.686   4.678
11413W        W75346  36.582  19.042  13.893
11414W        W75347  33.555  18.055   3.795
11415W        W75348  12.209  44.476   0.760
11416W        W75349   1.849  37.006   0.811
11417W        W75350  17.609  26.046   3.285
11418W        W75351   9.258  17.580   1.237
11419W        W75352   1.352  10.250  13.928
11420W        W75353  27.500  20.228   1.406
11421W        W75354  37.464  32.484  13.395
11422W        W75355  40.983  14.325  12.001
11423W        W75356   6.770  44.445  13.443
11424W        W75357  17.070  25.655  10.583
11425W        W75358  20.054  43.864   1.413
11426W        W75359  40.547   4.220  13.938
11427W        W75360  40.923  21.567   2.354
11428W        W75361   5.298  12.323   1.827
11429W        W75362  39.844  36.033  10.940
11430W        W75363   2.250  28.586  10.502
11431W        W75364  17.638  15.104   3.168
11432W        W75365  32.601  40.044   3.769
11433W        W75366  41.976  40.883   3.195
11434W        W75367  31.646   5.323   1.234
11435W        W75368  33.071  33.457  14.475
11436W        W75369   0.412  24.152  11.454
11437W        W75370  20.696  39.905  11.429
11438W        W75371   1.838  44.768  12.459
11439W        W75372  21.520  11.333   2.843
11440W        W75373  24.151  16.718  10.148
11441W        W75374  37.434   5.810   4.714
11442W        W75375  17.273  18.247   3.833
11443W        W75376   7.872  31.042  13.496
11444W        W75377  17.788  11.627   4.263
11445W        W75378   3.868  19.135  11.926
11446W        W75379  44.819  27.999   1.377
11447W        W75380  28.664  14.280   3.826
11448W        W75381  18.719   5.238   1.791
11449W        W75382  12.707  13.638   4.337
11450W        W75383  12.822  30.971   2.865
11451W        W75384  29.108   5.755   0.877
11452W        W75385  32.041   5.331  10.436
11453W        W75386  20.268  40.509   4.288
11454W        W75387  24.615   9.350  14.942
11455W        W75388  39.555  33.449  14.805
11456W        W75389  19.538  22.021  10.927
11457W        W75390  43.491  18.105   3.214
11458W        W75391   7.350  12.186   2.884
11459W        W75392  16.675  30.084  12.891
11460W        W75393  41.924  31.994  10.436
11461W        W75394  32.617  34.593  13.009
11462W        W75395  23.590   4.828   2.243
11463W        W75396  26.065  42.909   3.840
11464W        W75397  18.570  41.400   1.272
11465W        W75398  44.982   6.766   1.894
11466W        W75399  20.685   4.800   3.210
11467W        W75400  39.327  22.712   1.872
11468W        W75401   7.364  19.635  14.361
11469W        W75402  20.060  20.270   1.221
11470W        W75403   3.443  10.838  11.051
11471W        W75404  30.435  38.869   0.394
11472W        W75405  37.070  16.798   2.679
11473W        W75406  26.602  17.286   3.360
11474W        W75407  30.050  10.827   3.380
11475W        W75408  41.931  19.727  13.929
11476W        W75409   6.809  37.847   2.762
11477W        W75410  26.523  25.676   0.250
11478W        W75411   0.881   1.832   3.699
11479W        W75412  34.383  41.408  12.857
11480W        W75413  14.615  32.405   0.770
11481W        W75414  25.193   9.196   2.241
11482W        W75415  17.612  42.470  11.412
11483W        W75416  34.958  41.857   0.413
11484W        W75417  37.433  19.644  13.811
11485W        W75418  18.628  12.811   2.883
11486W        W75419  27.124  31.017   2.344
11487W        W75420   4.782   6.216  14.471
11488W        W75421  29.476  29.577  14.406
11489W        W75422  12.740  18.240   0.740
11490W        W75423  34.456  37.024   2.704
11491W        W75424   3.295  44.855  11.571
11492W        W75425  39.340  32.467  12.523
11493W        W75426   8.269  20.590  11.033
11494W        W75427  13.607  38.878   4.617
11495W        W75428   0.278   2.910  14.007
11496W        W75429  10.879  15.165   0.817
11497W        W75430  10.222  18.692  11.395
11498W        W75431  41.813  34.372   9.997
11499W        W75432  39.454  40.521  10.460
11500W        W75433  11.247  39.425   1.762
11501W        W75434   3.460  27.496   4.323
11502W        W75435  24.480   4.834   4.158
11503W        W75436  11.252   1.423   1.841
11504W        W75437   7.285  25.108  14.983
11505W        W75438  11.634   3.223   2.892
11506W        W75439  22.737  10.721  14.011
11507W        W75440   6.248  20.765   2.842
11508W        W75441  18.272  36.428  11.079
11509W        W75442  10.862  19.611   2.854
11510W        W75443  20.610  16.193   3.729
11511W        W75444  31.925  25.217  12.515
11512W        W75445   8.337  38.071  10.939
11513W        W75446  44.861  31.582   4.803
11514W        W75447   8.389  30.158   2.845
11515W        W75448  20.123  24.672   3.371
11516W        W75449  13.600  44.297  13.474
11517W        W75450  27.088   8.306  12.388
11518W        W75451   4.904  39.510   2.699
11519W        W75452  10.291  11.191  11.090
11520W        W75453  17.164  43.871  13.006
11521W        W75454   8.249  13.761  12.430
11522W        W75455  41.465  25.516   3.244
11523W        W75456  11.682  32.615  10.920
11524W        W75457  25.011  21.198   5.216
11525W        W75458  20.266   9.679   2.380
11526W        W75459   4.247  38.830   0.762
11527W        W75460  10.254  14.156  14.433
11528W        W75461  17.639  31.940  10.124
11529W        W75462  30.939  26.535   1.774
11530W        W75463   9.869   7.762   0.768
11531W        W75464  37.486  12.252  14.477
11532W        W75465  15.599  37.549   1.709
11533W        W75466   3.399  26.132   1.886
11534W        W75467   2.843  31.444  14.823
11535W        W75468  42.481  35.441   4.627
11536W        W75469   8.295  43.945   4.128
11537W        W75470  40.934  23.670  11.526
11538W        W75471  42.891   4.324  12.932
11539W        W75472  29.933   6.311  10.908
11540W        W75473  26.997  25.157   2.315
11541W        W75474  24.485   2.816   1.797
11542W        W75475  44.471  40.862  10.450
11543W        W75476  29.598  14.812  10.444
11544W        W75477   2.355   3.445  12.887
11545W        W75478   1.315   1.330  14.875
11546W        W75479  33.564   1.762  14.278
11547W        W75480  23.709  32.446  13.433
11548W        W75481  38.819  19.234   0.348
11549W        W75482   3.304  13.787   3.286
11550W        W75483  26.567  27.012   2.825
11551W        W75484  35.447  14.630   3.853
11552W        W75485  14.771   9.866  13.985
11553W        W75486  30.452  41.342  10.426
11554W        W75487   4.428  15.791  12.506
11555W        W75488  22.097  15.695   3.666
11556W        W75489  39.059  22.142  11.862
11557W        W75490  16.265  26.085   0.455
11558W        W75491  40.359  42.976  12.032
11559W        W75492   4.440  35.492   0.288
11560W        W75493  33.495  38.352  10.975
11561W        W75494   4.383  24.100  13.448
11562W        W75495  38.431  15.285  10.491
11563W        W75496  11.861  28.673  12.975
11564W        W75497  24.013   9.782  13.054
11565W        W75498  23.220   0.824  12.417
11566W        W75499  28.540  26.067   1.426
11567W        W75500   1.761  26.152   4.822
11568W        W75501   8.208  17.209   0.748
11569W        W75502   9.215  30.942  11.401
11570W        W75503  26.460  11.341  10.972
11571W        W75504  43.341  40.365   3.353
11572W        W75505  42.777   4.886  13.971
11573W        W75506  37.580   8.661   1.434
11574W        W75507   1.759  25.702   2.322
11575W        W75508  42.289  40.969  10.536
11576W        W75509   1.755   2.795  12.517
11577W        W75510   4.276   7.270  13.023
11578W        W75511  14.831   1.338   0.866
11579W        W75512  29.471  34.372  11.389
11580W        W75513   4.854  15.313  14.776
11581W        W75514   6.338  10.864  10.480
11582W        W75515   7.363  28.085   1.221
11583W        W75516   2.820  17.099   1.371
11584W        W75517  29.920  20.627  10.634
11585W        W75518  16.236   9.844  13.506
11586W        W75519  22.680  35.046   0.910
11587W        W75520  38.367  43.398  12.918
11588W        W75521  18.668  19.744   0.739
11589W        W75522  36.968  41.987  14.009
11590W        W75523   7.891  21.154   4.237
11591W        W75524   4.254   4.845   5.198
11592W        W75525   5.306   9.820  14.505
11593W        W75526   1.802  32.029  10.425
11594W        W75527  12.830  17.605   0.439
11595W        W75528   8.846  15.590   1.847
11596W        W75529   7.812  36.415  12.537
11597W        W75530  39.474  24.088   0.476
11598W        W75531   1.259  14.755  11.933
11599W        W75532  19.170  44.866   4.768
11600W        W75533  42.791  29.617  13.822
11601W        W75534  27.989  35.050  10.542
11602W        W75535  25.625   5.774  13.434
11603W        W75536  13.734  20.191   4.722
11604W        W75537   8.691   1.751  10.615
11605W        W75538  40.963  36.964   2.777
11606W        W75539  35.453  32.575  13.403
11607W        W75540  23.689  26.047   3.314
11608W        W75541   4.337   6.835  13.442
11609W        W75542  16.575  40.893  11.961
11610W        W75543  34.093   6.804  13.340
11611W        W75544  20.160   9.861   1.236
11612W        W75545  23.070  40.852  10.962
11613W        W75546  10.641  14.114  14.935
11614W        W75547  25.102  43.419  12.554
11615W        W75548  21.236  18.129   1.793
11616W        W75549  34.383  30.065   0.459
11617W        W75550  14.735  32.528   4.137
11618W        W75551  35.947  23.534   3.860
11619W        W75552  23.714  28.610  14.441
11620W        W75553  15.294  31.953  10.634
11621W        W75554  13.184  38.823  10.643
11622W        W75555   5.255  16.768   5.166
11623W        W75556  22.556  26.703   0.268
11624W        W75557  18.555  42.961   1.410
11625W        W75558  31.078  41.799   3.212
11626W        W75559   4.821  21.642   0.370
11627W        W75560  31.643  38.845   0.813
11628W        W75561   7.182   9.664  13.524
11629W        W75562  43.799  35.448   4.829
11630W        W75563  27.161   5.742   3.223
11631W        W75564  13.809   9.279  13.811
11632W        W75565   6.896   9.819  14.788
11633W        W75566   1.851  43.790  11.539
11634W        W75567  19.190  39.502   5.165
11635W        W75568  18.727  18.262   0.321
11636W        W75569  22.570   1.805   1.796
11637W        W75570   7.769  24.120  12.934
11638W        W75571   4.899  29.664  11.001
11639W        W75572  32.635   8.694  14.970
11640W        W75573  12.826  43.871   2.272
11641W        W75574  43.509  16.614  14.964
11642W        W75575  24.600  17.603   1.903
11643W        W75576  40.985  22.572  11.127
11644W        W75577  29.052  22.522  13.820
11645W        W75578  44.878  24.055  12.529
11646W        W75579  41.928   5.849  14.402
11647W        W75580  41.926  25.054  13.831
11648W        W75581  34.549  10.806  10.613
11649W        W75582  25.185  18.759  10.621
11650W        W75583  13.142  14.624   0.476
11651W        W75584  11.257  23.015   0.329
11652W        W75585  32.114  13.634  12.936
11653W        W75586  17.725  19.100  10.943
11654W        W75587  33.495  43.019  10.571
11655W        W75588  25.554   8.259   3.860
11656W        W75589  36.901  24.999   1.708
11657W        W75590  27.038  24.145   2.310
11658W        W75591   9.243  24.490   2.840
11659W        W75592   8.848  44.996  14.324
11660W        W75593   5.420  38.500  10.458
11661W        W75594   3.276  28.167   1.711
11662W        W75595  24.582  12.619   5.607
11663W        W75596  32.548   8.226   4.135
11664W        W75597  33.014   7.693   2.666
11665W        W75598  38.483  24.522  13.906
11666W        W75599  32.945  36.519   3.286
11667W        W75600  34.108  10.768  10.889
11668W        W75601  36.874  33.116   1.917
11669W        W75602  42.389   2.881  10.941
11670W        W75603  36.021   3.353  13.397
11671W        W75604  42.451   0.790  11.425
11672W        W75605  11.317  10.254   3.817
11673W        W75606  37.862  32.888   2.701
11674W        W75607  43.972   5.688   1.277
11675W        W75608   0.803  14.743   3.725
11676W        W75609  24.179  16.221  13.810
11677W        W75610  17.092  10.840   3.658
11678W        W75611  12.821  29.639  14.436
11679W        W75612  30.566   9.759   4.681
11680W        W75613  33.893  42.389  11.460
11681W        W75614  18.158  15.115   3.345
11682W        W75615  15.258  32.903   0.874
11683W        W75616  43.901  38.990  12.548
11684W        W75617  42.796  26.015   2.225
11685W        W75618  10.341  21.581   0.781
11686W        W75619  22.725   3.444  10.525
11687W        W75620   2.325  11.792  10.046
11688W        W75621  19.673  40.953   0.470
11689W        W75622  17.076  24.215  14.349
11690W        W75623  31.585  28.990   0.841
11691W        W75624  22.729  38.468   3.815
11692W        W75625  17.232  24.672   3.867
11693W        W75626  38.502  23.537   3.699
11694W        W75627  40.338   1.920  11.889
11695W        W75628  29.154  24.595   1.790
11696W        W75629  44.406  38.480  13.350
11697W        W75630  23.236  23.610  12.969
11698W        W75631   9.812   0.410   3.667
11699W        W75632  10.874  44.910  10.452
11700W        W75633  16.242  42.808   0.789
11701W        W75634  36.069  31.500  10.608
11702W        W75635  32.982  42.793  13.005
11703W        W75636  31.974  42.883  13.899
11704W        W75637  15.622  11.660  10.532
11705W        W75638  34.561  18.749   2.359
11706W        W75639  12.120  16.676   1.852
11707W        W75640  23.068   2.464   3.208
11708W        W75641  36.018  32.974   1.885
11709W        W75642  30.548  22.035  14.509
11710W        W75643  35.944  37.460   3.322
11711W        W75644  31.071  35.467   1.446
11712W        W75645  10.232  40.965  11.574
11713W        W75646  16.749  11.149  14.381
11714W        W75647  25.051  26.108  12.579
11715W        W75648   6.402  21.546   1.257
11716W        W75649  39.965  35.031  14.483
11717W        W75650  21.556  32.128   1.303
11718W        W75651  44.261  28.490  14.775
11719W        W75652   8.161  13.256  11.863
11720W        W75653  32.105  30.978  11.423
11721W        W75654   1.281  32.069  13.478
11722W        W75655  25.993  35.108  14.507
11723W        W75656  30.457  32.928   0.347
11724W        W75657  28.175   0.969   4.616
11725W        W75658  26.462  39.822  11.391
11726W        W75659  13.610   4.352  13.817
11727W        W75660  34.967  23.497   2.825
11728W        W75661  17.181  33.943   0.341
11729W        W75662   8.707  44.866   4.720
11730W        W75663  37.893  30.955  13.047
11731W        W75664  32.616   3.258  12.500
11732W        W75665  38.460  42.383   2.853
11733W        W75666  43.455   5.352   3.854
11734W        W75667  22.562  28.481   0.761
11735W        W75668  26.471  44.976   1.228
11736W        W75669   0.257  41.329   1.333
11737W        W75670  29.171  44.482   3.685
11738W        W75671  15.137  42.008   0.758
11739W        W75672  43.870  26.628   0.432
11740W        W75673  13.156  20.602   0.868
11741W        W75674   3.938  17.791  12.049
11742W        W75675  18.291   9.386  10.976
11743W        W75676  32.141  35.897  10.639
11744W        W75677  41.486  30.489  12.987
11745W        W75678  39.511  17.741  12.845
11746W        W75679  40.513  19.188  14.803
11747W        W75680  33.123  18.160  14.797
11748W        W75681  18.186   4.258   2.238
11749W        W75682  41.941  32.391  14.789
11750W        W75683  20.752  29.158  12.925
11751W        W75684  39.983  24.655   1.855
11752W        W75685  43.357  11.754  12.998
11753W        W75686  26.461  17.132   0.897
11754W        W75687  16.603   2.752  10.948
11755W        W75688   5.229   4.450   2.337
11756W        W75689  19.664  20.258  12.467
11757W        W75690  44.784  18.171  10.537
11758W        W75691  24.168  12.125   5.779
11759W        W75692  16.628  24.637  11.392
11760W        W75693  40.915  13.113  13.334
11761W        W75694  35.892   4.923   4.836
11762W        W75695  35.486  30.968  11.597
11763W        W75696  29.663  22.683   0.470
11764W        W75697  24.664  27.955  13.052
11765W        W75698  28.078  30.489   3.810
11766W        W75699   2.380  30.143  14.761
11767W        W75700  34.372  23.655  13.904
11768W        W75701   6.387  32.615   4.749
11769W        W75702  33.492   7.366   2.723
11770W        W75703  12.200  21.562   4.321
11771W        W75704  28.029  16.298  11.863
11772W        W75705   3.817  33.896   3.865
11773W        W75706  24.587  15.667   1.427
11774W        W75707  36.382  29.480   3.237
11775W        W75708  36.538  23.022  12.064
11776W        W75709  37.075  39.891   2.820
11777W        W75710  40.434  18.149   4.730
11778W        W75711  35.578  31.431   2.699
11779W        W75712   2.816  41.846  14.928
11780W        W75713  31.989   8.856   1.297
11781W        W75714  30.012  26.463   3.796
11782W        W75715  18.663  10.274   0.929
11783W        W75716  40.497  23.066  11.858
11784W        W75717   9.159  17.202   2.697
11785W        W75718  38.016   4.813  10.068
11786W        W75719   0.876  42.343   3.838
11787W        W75720  17.237  40.547  14.802
11788W        W75721   2.226   8.345   2.771
11789W        W75722   5.236  12.632  13.839
11790W        W75723  36.975  16.149   2.357
11791W        W75724  17.742  22.704   2.197
11792W        W75725  18.170  39.930   4.603
11793W        W75726   9.800  38.861   3.840
11794W        W75727   5.364  36.870   2.370
11795W        W75728  36.507  16.131  10.505
11796W        W75729  23.000  16.102  13.546
11797W        W75730  38.883  30.456   0.272
11798W        W75731   5.764  40.023   2.816
11799W        W75732   9.222   5.311  12.028
11800W        W75733  25.644   6.904   1.807
11801W        W75734   5.297  14.262  14.799
11802W        W75735  23.101  40.946  12.911
11803W        W75736   6.394  28.050   1.814
11804W        W75737   4.817   6.198   2.255
11805W        W75738   1.780  42.938   0.769
11806W        W75739   5.223  37.442  14.492
11807W        W75740  26.465  39.527   1.358
11808W        W75741  17.218  19.281   3.636
11809W        W75742  39.317  24.682  13.429
11810W        W75743  42.943  42.007   3.632
11811W        W75744  20.229  36.561  10.438
11812W        W75745  38.380  24.109   2.803
11813W        W75746  18.102  41.306   1.860
11814W        W75747   9.232  26.624  14.342
11815W        W75748  38.872  42.780   4.280
11816W        W75749  33.889  18.666   4.614
11817W        W75750  36.526  42.006   4.731
11818W        W75751  17.106  12.618  14.344
11819W        W75752  30.140  26.091  14.515
11820W        W75753  23.614  34.432  11.558
11821W        W75754  13.281  35.383   3.298
11822W        W75755  43.429  35.919  12.547
11823W        W75756   4.727  23.604   3.298
11824W        W75757  42.317  23.191   1.777
11825W        W75758  32.900   7.863  11.551
11826W        W75759   7.749   1.457  11.500
11827W        W75760  20.604  23.135  11.534
11828W        W75761  43.847  10.858  14.895
11829W        W75762  19.534  36.516   2.696
11830W        W75763  18.775  14.638  10.446
11831W        W75764  12.335   0.773  12.410
11832W        W75765   5.781  10.259  12.865
11833W        W75766  20.157   5.903   1.284
11834W        W75767   1.976  30.600   4.813
11835W        W75768  39.401  42.399   0.826
11836W        W75769  37.957   2.756   3.298
11837W        W75770  26.569  28.958   0.393
11838W        W75771  43.330  16.265   1.262
11839W        W75772  13.325  39.929  14.417
11840W        W75773   3.368   7.288  12.919
11841W        W75774   6.825  27.526   1.309
11842W        W75775  33.518  40.852   4.221
11843W        W75776  32.988  15.766  10.594
11844W        W75777  42.908  43.393  14.332
11845W        W75778  26.640  40.951  14.926
11846W        W75779  38.964  19.071   0.732
11847W        W75780  15.756  44.899   2.702
11848W        W75781  33.615  42.986   5.143
11849W        W75782  41.307  20.712  13.927
11850W        W75783  35.520  39.322  11.591
11851W        W75784  24.193   0.418  13.951
11852W        W75785  29.596  10.230   2.306
11853W        W75786  17.167  38.379   2.214
11854W        W75787  40.019   8.328   3.776
11855W        W75788   7.385  28.664   3.343
11856W        W75789  28.523  40.826   4.599
11857W        W75790  25.645  10.173   1.445
11858W        W75791  11.347  17.286  10.940
11859W        W75792   7.298  20.574   3.805
11860W        W75793  34.866  37.338  10.610
11861W        W75794  42.013  34.046   4.289
11862W        W75795  11.305  19.122   4.117
11863W        W75796   3.280  41.787  12.417
11864W        W75797  40.549  40.895   4.338
11865W        W75798  12.801  42.312  11.873
11866W        W75799   2.447  19.201  14.307
11867W        W75800   7.277   3.347  13.046
11868W        W75801   0.311  35.585  11.434
11869W        W75802  33.388  38.890   5.207
11870W        W75803  25.711   2.904  14.878
11871W        W75804   1.262  43.408   2.358
11872W        W75805  23.160  11.161  12.361
11873W        W75806  28.933  16.289   0.770
11874W        W75807  31.535  19.648   0.740
11875W        W75808   6.370  29.571  11.471
11876W        W75809  11.684   1.263  12.508
11877W        W75810  19.277  17.153   0.275
11878W        W75811  30.604  24.105  12.834
11879W        W75812  38.875  24.173   2.184
11880W        W75813  10.273  25.471   3.700
11881W        W75814  10.344  19.116  13.341
11882W        W75815   5.756   5.286   4.657
11883W        W75816   5.248  16.318  13.497
11884W        W75817  37.526  40.353   5.321
11885W        W75818  31.147   0.829  13.854
11886W        W75819  37.343   0.748  11.987
11887W        W75820  37.918  15.819   4.613
11888W        W75821  15.193  20.105   4.804
11889W        W75822  44.938  31.526   1.307
11890W        W75823  44.480  44.375   2.291
11891W        W75824  10.361  14.618   0.375
11892W        W75825   2.854  27.121   2.201
11893W        W75826   1.906  20.609   3.301
11894W        W75827  35.437  10.861   1.251
11895W        W75828   2.940   0.822  11.020
11896W        W75829  26.144  25.974   1.395
11897W        W75830  44.352  27.568  10.594
11898W        W75831  24.093  40.821   1.853
11899W        W75832   7.193  11.343   1.704
11900W        W75833  42.785  25.656   1.323
11901W        W75834  31.988  18.288  11.388
11902W        W75835  12.161  17.067  11.101
11903W        W75836  41.521  42.470   4.602
11904W        W75837  43.004  38.493   1.347
11905W        W75838  40.518  16.728   1.237
11906W        W75839   5.750  13.264   4.704
11907W        W75840  11.179  24.725  10.483
11908W        W75841  19.625  36.063  14.346
11909W        W75842  21.208  10.752  12.436
11910W        W75843  43.955  20.695  11.557
11911W        W75844  16.597   6.198   1.305
11912W        W75845   1.856   4.819  12.509
11913W        W75846  38.547  43.967  14.996
11914W        W75847  33.097  31.903  12.405
11915W        W75848  14.728  16.235  13.348
11916W        W75849   8.716   3.257   2.418
11917W        W75850  13.253   9.367  10.523
11918W        W75851  40.438  35.069   4.276
11919W        W75852  34.597  39.461   1.933
11920W        W75853  31.646  19.685   4.144
11921W        W75854  32.428  27.546   4.752
11922W        W75855  27.500  40.394   2.286
11923W        W75856   0.864  38.439   0.296
11924W        W75857   1.415   0.259   3.238
11925W        W75858  11.781  25.211   0.903
11926W        W75859  34.472   2.749   1.812
11927W        W75860  22.639   7.749   1.234
11928W        W75861  37.364  19.752   2.404
11929W        W75862  42.013  23.684   2.701
11930W        W75863  23.187  34.056   2.902
11931W        W75864  42.842  30.624  13.411
11932W        W75865  39.391   1.341   4.709
11933W        W75866  41.823  38.928  14.932
11934W        W75867  13.191   7.728  13.527
11935W        W75868  39.054  35.103   2.363
11936W        W75869  23.726  24.654   2.662
11937W        W75870  10.209  35.573   3.336
11938W        W75871  22.710  24.146  14.876
11939W        W75872  34.445  10.201  13.806
11940W        W75873  25.523   9.857  13.980
11941W        W75874  16.755  42.879   1.701
11942W        W75875   6.376  13.237   2.709
11943W        W75876  10.783  16.156   2.244
11944W        W75877  15.125  38.938   5.311
11945W        W75878  43.382  40.384   0.869
11946W        W75879  29.138  23.992   2.325
11947W        W75880  42.402  21.570   3.203
11948W        W75881  12.745  25.049  11.456
11949W        W75882  23.692  13.135   0.770
11950W        W75883  15.616  35.074  12.990
11951W        W75884  14.293  42.504   4.314
11952W        W75885  44.341  36.473  11.016
11953W        W75886  32.990  27.632   0.817
11954W        W75887  37.552  24.552  11.569
11955W        W75888  27.555   3.227   2.221
11956W        W75889  14.819   4.829   2.194
11957W        W75890   7.227  39.029   4.717
11958W        W75891  22.567  31.516  14.782
11959W        W75892  27.105  22.187   4.832
11960W        W75893   1.834  31.584   2.325
11961W        W75894  40.034  20.229   4.186
11962W        W75895   7.331  25.508   1.384
11963W        W75896  28.183  34.593  11.942
11964W        W75897  26.692  43.828  10.025
11965W        W75898  20.640  43.317  14.833
11966W        W75899  33.605   5.351  11.524
11967W        W75900  39.523  16.169   2.409
11968W        W75901  21.664  43.844   1.246
11969W        W75902  16.292  19.066   4.257
11970W        W75903   7.327  10.681  14.414
11971W        W75904   7.764  20.721   1.755
11972W        W75905  29.933  14.320   1.252
11973W        W75906   5.772  34.916  11.999
11974W        W75907  19.255  44.370  10.621
11975W        W75908  44.469  20.112  13.992
11976W        W75909  16.302  11.845  13.389
11977W        W75910  14.609  19.604   0.921
11978W        W75911  26.991  23.097   0.433
11979W        W75912  34.585  15.741  12.080
11980W        W75913  22.227   8.662   1.921
11981W        W75914   3.281   9.780   0.935
11982W        W75915  34.074  17.189  12.384
11983W        W75916  30.429  35.503  12.979
11984W        W75917  39.912  43.984   4.683
11985W        W75918   9.785  12.190   1.251
11986W        W75919  11.197  16.758  10.888
11987W        W75920  11.168  37.473   4.617
11988W        W75921  43.281   4.379   4.721
11989W        W75922  40.808  33.964   0.316
11990W        W75923  41.805  44.297  14.366
11991W        W75924  13.248   4.257  14.381
11992W        W75925  29.572   4.378   1.856
11993W        W75926  44.303  22.531   4.141
11994W        W75927  21.100  11.171   2.817
11995W        W75928  23.708  43.909  14.793
11996W        W75929  11.371  32.898   4.658
11997W        W75930  14.763  18.604   4.330
11998W        W75931  38.881   7.713   3.358
11999W        W75932   0.301  12.357   4.696
12000W        W75933   8.360  38.496  12.077
12001W        W75934   6.690   5.899   4.615
12002W        W75935  25.997  19.610  12.843
12003W        W75936  34.421  10.259  13.361
12004W        W75937  34.041  24.988  12.531
12005W        W75938   6.685  34.024  10.434
12006W        W75939  17.648  17.165   0.888
12007W        W75940   3.311  30.435   2.743
12008W        W75941  24.976  10.834   0.290
12009W        W75942  35.090  13.121  11.464
12010W        W75943  43.426  21.058   2.323
12011W        W75944  31.481  12.751  11.040
12012W        W75945  15.170  17.061   3.846
12013W        W75946  20.259  24.692   4.156
12014W        W75947  28.004  15.210  13.911
12015W        W75948  17.300  26.496  14.303
12016W        W75949  19.639  31.950  14.906
12017W        W75950  12.729  35.881   2.197
12018W        W75951  36.591   7.696  11.554
12019W        W75952  18.267  22.663  14.314
12020W        W75953  39.927  44.002   1.830
12021W        W75954   0.477   7.900  10.483
12022W        W75955  35.874  36.575  11.958
12023W        W75956  32.994  21.751  14.795
12024W        W75957  10.783  35.863   3.332
12025W        W75958   6.865   8.358   1.446
12026W        W75959  14.234  32.571  13.925
12027W        W75960  21.081   6.914   4.801
12028W        W75961  24.026  19.237  13.309
12029W        W75962  14.306  14.124  10.544
12030W        W75963  40.892  19.235   3.842
12031W        W75964  29.487   0.881   4.170
12032W        W75965   0.460  39.529   4.736
12033W        W75966  37.521  20.241   4.808
12034W        W75967  22.508  15.112  10.943
12035W        W75968  37.347   0.833   1.345
12036W        W75969   2.920  25.073   1.812
12037W        W75970  42.855   0.345  10.554
12038W        W75971  29.066  32.113  10.586
12039W        W75972  38.893  41.428   1.786
12040W        W75973   3.396   9.712  11.403
12041W        W75974  21.020  38.423   3.381
12042W        W75975  18.783   6.909   2.866
12043W        W75976  26.119   3.801  14.320
12044W        W75977  13.794  17.795   3.202
12045W        W75978  24.126  38.518   4.331
12046W        W75979  37.533  41.469   1.899
12047W        W75980   9.890  36.877   2.825
12048W        W75981  18.701  38.502   3.686
12049W        W75982  44.900  38.354   2.405
12050W        W75983  19.196  12.616   0.929
12051W        W75984  21.156  16.296  12.881
12052W        W75985   6.721  34.986  14.468
12053W        W75986  29.464  24.193   1.789
12054W        W75987   7.278  26.015   4.756
12055W        W75988  27.071   5.414  13.376
12056W        W75989  28.561  30.151   2.747
12057W        W75990   4.867  23.698  11.543
12058W        W75991  42.397   0.782  13.360
12059W        W75992  38.432  29.987  11.920
12060W        W75993  11.864  25.125   3.649
12061W        W75994  38.023  12.698   1.868
12062W        W75995  43.348  38.385  11.879
12063W        W75996  16.190  31.588  13.967
12064W        W75997  16.586  43.892   4.668
12065W        W75998  19.148  37.930  11.575
12066W        W75999  26.964  42.019  11.083
12067W        W76000  23.553  18.753   1.782
12068W        W76001  17.766   5.896   1.264
12069W        W76002   7.177  26.154   9.950
12070W        W76003  13.742  32.904  11.941
12071W        W76004   6.240   0.348   4.743
12072W        W76005  12.707   1.735   2.855
12073W        W76006  24.481  44.839   2.393
12074W        W76007  10.854  29.558   3.869
12075W        W76008   6.702  39.510  14.297
12076W        W76009  28.608  15.096  12.557
12077W        W76010  37.080   3.756  13.381
12078W        W76011  17.280  42.424  13.354
12079W        W76012  36.024  44.880  14.868
12080W        W76013  36.846  30.510  14.993
12081W        W76014  13.109  32.407  12.396
12082W        W76015  17.140  25.621  11.920
12083W        W76016  33.925   6.677   1.907
12084W        W76017  40.388  31.547   2.245
12085W        W76018  19.071  14.612  12.430
12086W        W76019   8.799  37.036   0.344
12087W        W76020  18.286   3.346  10.029
12088W        W76021  16.580  17.283   4.175
12089W        W76022  19.188  27.126   3.674
12090W        W76023  17.067  16.729   2.400
12091W        W76024  41.999   2.861   4.671
12092W        W76025   9.324   9.719  11.543
12093W        W76026  35.585  30.449  12.340
12094W        W76027  12.175  39.884   3.670
12095W        W76028   6.314  10.792   1.868
12096W        W76029  17.606  26.490  14.374
12097W        W76030  25.534  31.560  12.835
12098W        W76031  35.425  43.514   4.696
12099W        W76032  16.214   6.870  14.368
12100W        W76033  36.001  39.933   2.807
12101W        W76034  13.152   1.852   3.652
12102W        W76035   2.936  17.208   3.166
12103W        W76036   4.438  18.126   4.662
12104W        W76037  25.039  25.217   1.346
12105W        W76038  40.994  19.714   0.817
12106W        W76039  26.566  40.852   0.937
12107W        W76040  44.423  33.916  13.879
12108W        W76041  40.500  29.459  11.567
12109W        W76042   6.778  40.817   1.721
12110W        W76043  41.535  24.090  14.858
12111W        W76044  40.962  44.300   4.275
12112W        W76045   9.274  37.084   0.396
12113W        W76046   9.328  13.823   3.383
12114W        W76047   0.826  38.342  13.888
12115W        W76048  11.651  23.211  14.836
12116W        W76049  20.163  23.004  14.484
12117W        W76050  37.004  22.220  10.555
12118W        W76051  19.680  34.609  14.912
12119W        W76052  23.491  29.083   3.226
12120W        W76053  16.278  12.726  12.977
12121W        W76054  11.803  23.581  10.934
12122W        W76055   0.375  12.306   3.776
12123W        W76056   8.299  36.347  10.911
12124W        W76057  25.090  34.476   2.276
12125W        W76058  17.626  35.579  14.886
12126W        W76059  18.261  29.973  14.322
12127W        W76060  34.877   3.898   3.334
12128W        W76061  17.233  35.590   4.680
12129W        W76062  26.193  41.509   2.701
12130W        W76063  36.405  23.096   2.343
12131W        W76064  13.106   6.373  11.573
12132W        W76065  25.499   5.931  11.983
12133W        W76066   5.749  17.790   3.354
12134W        W76067  22.074  33.119  13.896
12135W        W76068  21.167  32.631   3.664
12136W        W76069  17.775  44.777  10.417
12137W        W76070   1.830  33.590   1.709
12138W        W76071  20.143  23.527  12.995
12139W        W76072  12.181  41.512   0.796
12140W        W76073  23.994   7.666  13.898
12141W        W76074  14.215  28.093  11.454
12142W        W76075  18.119  18.056   4.323
12143W        W76076  15.716   7.185   0.329
12144W        W76077  40.358  43.949  14.969
12145W        W76078  14.712  23.502  11.897
12146W        W76079  44.492  36.038   1.870
12147W        W76080  42.485   6.718   4.616
12148W        W76081  40.047  14.834   4.697
12149W        W76082   2.393  37.497   4.345
12150W        W76083  20.245   7.270  14.859
12151W        W76084  42.028  18.228  12.840
12152W        W76085  41.829  31.946   0.270
12153W        W76086   6.752  44.351   4.192
12154W        W76087  30.646  30.618  13.913
12155W        W76088   4.787  36.965   2.256
12156W        W76089  31.470  24.175  10.584
12157W        W76090  20.651  32.987  13.505
12158W        W76091  42.906  22.220   4.149
12159W        W76092  13.693  15.262  12.846
12160W        W76093   2.229   4.938   0.823
12161W        W76094   0.832   3.227   0.454
12162W        W76095  31.945   3.235   3.640
12163W        W76096  24.062  13.288   3.383
12164W        W76097  10.741  33.986  11.532
12165W        W76098  26.628   0.249   9.991
12166W        W76099  20.028  38.058   1.446
12167W        W76100   3.761  12.211   3.768
12168W        W76101  24.675  29.486  13.446
12169W        W76102  41.958  21.568  10.587
12170W        W76103  12.158  40.912   2.894
12171W        W76104   9.261  18.264  10.412
12172W        W76105  35.102  22.069   1.435
12173W        W76106  35.375   6.904   2.248
12174W        W76107   0.426  43.417  12.880
12175W        W76108   7.201  43.006  14.371
12176W        W76109  13.163  42.478   2.205
12177W        W76110  17.633  26.607   5.738
12178W        W76111  41.352  12.771  14.304
12179W        W76112  21.032  19.682   4.649
12180W        W76113  13.274  12.256   2.816
12181W        W76114  38.070  31.031   2.259
12182W        W76115  36.031   3.815  12.511
12183W        W76116  41.787  20.605  13.802
12184W        W76117   9.805  33.917  11.035
12185W        W76118  32.020  10.827  13.803
12186W        W76119  22.713  16.258  14.002
12187W        W76120  15.727  30.077   3.633
12188W        W76121  37.428  20.754   0.330
12189W        W76122  16.291  17.294   4.768
12190W        W76123   9.811  40.310  10.935
12191W        W76124  14.765   8.233   0.412
12192W        W76125   7.253  38.054  13.865
12193W        W76126  41.963   6.371   0.942
12194W        W76127  21.217  38.500  10.973
12195W        W76128  22.175  21.100  14.480
12196W        W76129   7.262   0.831  10.452
12197W        W76130   5.262  31.597   3.261
12198W        W76131  15.219  31.589  11.601
12199W        W76132  13.243   5.368  14.022
12200W        W76133  31.545  12.744  12.342
12201W        W76134  18.568  39.471   0.445
12202W        W76135  10.359  11.736  13.872
12203W        W76136   2.904  34.590  11.495
12204W        W76137  38.928  20.540  11.917
12205W        W76138  35.043   0.917   4.198
12206W        W76139   3.952  32.054  14.408
12207W        W76140  19.583  38.974  12.470
12208W        W76141   4.208   7.738   2.836
12209W        W76142  27.542  28.453   0.852
12210W        W76143  18.676  19.570   0.251
12211W        W76144  39.480  36.408  14.282
12212W        W76145  31.017   1.374  10.548
12213W        W76146   1.290  22.165   3.721
12214W        W76147  34.896  31.972   4.617
12215W        W76148  21.155  24.995  11.583
12216W        W76149  28.976  43.826   0.775
12217W        W76150  41.365   8.714  11.499
12218W        W76151  21.167  28.650  14.840
12219W        W76152  20.133  14.108  12.544
12220W        W76153  14.799   7.686  10.110
12221W        W76154  33.530   6.901   3.776
12222W        W76155   4.766  40.476  13.870
12223W        W76156  19.165  21.652   2.713
12224W        W76157  42.948  39.003  10.899
12225W        W76158  38.437  43.372   4.797
12226W        W76159  24.724  24.166   3.789
12227W        W76160  10.234  43.382  12.046
12228W        W76161  34.445  36.477   0.734
12229W        W76162   8.678  15.210   2.371
12230W        W76163  27.609   0.960  13.466
12231W        W76164   8.258  33.538  10.407
12232W        W76165   3.416  15.674  13.913
12233W        W76166  36.843  31.902   0.455
12234W        W76167  24.485   0.467   3.653
12235W        W76168  10.315  37.484  11.008
12236W        W76169  10.139  10.156  13.465
12237W        W76170  38.978   6.343   5.088
12238W        W76171  42.012  42.436  11.919
12239W        W76172  37.477  43.436   1.444
12240W        W76173  21.154   4.445  14.029
12241W        W76174  20.639   9.215   1.229
12242W        W76175   8.246   2.908   3.858
12243W        W76176  17.157  24.082   3.719
12244W        W76177  24.112  35.855  11.115
12245W        W76178  15.692  32.547  10.568
12246W        W76179  41.417  43.431   2.419
12247W        W76180  21.520  10.251  10.126
12248W        W76181  22.590   1.465  10.442
12249W        W76182  15.817  31.438   0.412
12250W        W76183   6.216  43.502   0.936
12251W        W76184  12.198   6.889  11.443
12252W        W76185  38.452  14.099   2.185
12253W        W76186   4.710   9.350  11.480
12254W        W76187  38.860  12.218  12.369
12255W        W76188  27.063  42.807  14.981
12256W        W76189  44.763  23.132  11.554
12257W        W76190  40.527   7.816  11.577
12258W        W76191  31.085  39.323   4.115
12259W        W76192   7.815  34.064  12.570
12260W        W76193  32.122  29.155   1.735
12261W        W76194  22.599  44.292  13.983
12262W        W76195  30.076  27.448  11.896
12263W        W76196  22.730  38.880   0.776
12264W        W76197   1.938  17.114  14.939
12265W        W76198  32.090  40.399  11.044
12266W        W76199   2.793  40.930   2.353
12267W        W76200  36.491   3.882   1.290
12268W        W76201   0.313  28.057  12.426
12269W        W76202  29.559  41.796  14.456
12270W        W76203   7.881  44.938   4.345
12271W        W76204  26.124  16.642  13.435
12272W        W76205  30.947  23.136  11.582
12273W        W76206  10.854  18.742   2.310
12274W        W76207   5.402  26.081  14.995
12275W        W76208  42.817  23.498   4.820
12276W        W76209   7.309  39.937   2.332
12277W        W76210  37.965  22.225  12.571
12278W        W76211  25.671   7.180  11.934
12279W        W76212  22.077  32.413   4.716
12280W        W76213  36.917   9.271  14.275
12281W        W76214  28.970  13.660   1.822
12282W        W76215  31.613  11.280  12.932
12283W        W76216  13.683  21.723   4.240
12284W        W76217  39.460  27.518   2.733
12285W        W76218   7.264  25.664  14.285
12286W        W76219   8.749   0.958  11.518
12287W        W76220   6.197  24.636  12.491
12288W        W76221   1.921   0.848  12.001
12289W        W76222   0.362  41.369   0.431
12290W        W76223  27.186  38.075   0.730
12291W        W76224  16.694  25.579  12.029
12292W        W76225  32.929  16.677   1.269
12293W        W76226  25.070  17.723   4.303
12294W        W76227  11.733  38.547   9.940
12295W        W76228  18.729  36.580  13.983
12296W        W76229  39.010  17.693  14.917
12297W        W76230  41.970   2.389   0.738
12298W        W76231  36.398   2.364  13.877
12299W        W76232  23.493  26.009   4.672
12300W        W76233  38.047  27.023   1.885
12301W        W76234  13.306  21.732  10.941
12302W        W76235  33.573   0.413   2.805
12303W        W76236  29.989   6.914  11.557
12304W        W76237  19.220  17.262   0.930
12305W        W76238  35.556  32.566   0.934
12306W        W76239  29.152  11.281  11.985
12307W        W76240  39.502  23.190   4.662
12308W        W76241  23.627  22.101   1.761
12309W        W76242  10.671   9.693   2.346
12310W        W76243  23.673   4.941   4.648
12311W        W76244  32.971  23.045   3.760
12312W        W76245   0.753  35.105   3.788
12313W        W76246  44.891   9.169   3.823
12314W        W76247  10.721   9.210  12.415
12315W        W76248  18.293  15.604   3.280
12316W        W76249  40.859   3.735  11.985
12317W        W76250   4.254  16.743   5.270
12318W        W76251  44.959   5.364   4.836
12319W        W76252  11.663  43.774   0.912
12320W        W76253  39.064  39.508   4.261
12321W        W76254  26.034   4.410  14.830
12322W        W76255  38.942   5.386   3.782
12323W        W76256  43.420  21.601   2.781
12324W        W76257  37.851  34.096   0.379
12325W        W76258   8.894  38.540   4.240
12326W        W76259  35.065   2.363   2.348
12327W        W76260  10.378  18.754  14.358
12328W        W76261  10.732   3.850  13.538
12329W        W76262  43.368  13.785   4.354
12330W        W76263  37.427  37.975  12.350
12331W        W76264  21.155  32.892  13.048
12332W        W76265  41.830  26.581   1.796
12333W        W76266  31.583  44.837   0.731
12334W        W76267  18.159  10.289   1.785
12335W        W76268  13.175  23.045   4.639
12336W        W76269  11.662  30.107   3.314
12337W        W76270  10.828  22.549   0.775
12338W        W76271  42.876  39.431   0.370
12339W        W76272  32.443  27.152   4.215
12340W        W76273  40.019  34.918  13.385
12341W        W76274  30.478  11.242   1.727
12342W        W76275   5.313  17.799  13.398
12343W        W76276  18.145  27.035  11.590
12344W        W76277   6.237  14.797  10.520
12345W        W76278  10.146  15.267   2.183
12346W        W76279   1.264  17.138  14.850
12347W        W76280   4.212   2.379  10.507
12348W        W76281  11.315  26.468  13.041
12349W        W76282  11.261   8.823  10.912
12350W        W76283  16.589   3.401   0.384
12351W        W76284  42.513   8.886   2.301
12352W        W76285   1.347  29.463  14.492
12353W        W76286  19.190  37.972   2.345
12354W        W76287  21.222  29.163  11.502
12355W        W76288  21.146  31.627  14.892
12356W        W76289  30.908  40.308   1.289
12357W        W76290  19.694  36.485  13.332
12358W        W76291  23.207  43.945  12.506
12359W        W76292  27.652  24.524  12.472
12360W        W76293  18.635   6.343  14.320
12361W        W76294  32.453  18.278  11.596
12362W        W76295   7.195  23.134   4.201
12363W        W76296  42.495   6.719   3.374
12364W        W76297  20.239  34.561  12.418
12365W        W76298  32.082  41.510  12.995
12366W        W76299  20.044   2.248   0.961
12367W        W76300   8.771  23.124   0.419
12368W        W76301  42.918  21.700  11.105
12369W        W76302   7.773  22.123  11.407
12370W        W76303  29.035  10.336  11.429
12371W        W76304  38.482  17.200   3.735
12372W        W76305  15.645  33.520   0.330
12373W        W76306  21.067  32.069  14.510
12374W        W76307   2.947  10.201   2.840
12375W        W76308   8.732  28.968   1.766
12376W        W76309  41.532   1.338  11.975
12377W        W76310  10.815   0.801   3.700
12378W        W76311   5.891  17.106  12.376
12379W        W76312  34.454  12.281  11.050
12380W        W76313   4.217  12.352  12.369
12381W        W76314  34.442  29.499  13.433
12382W        W76315  35.560  22.230   1.339
12383W        W76316  40.547   4.288   0.389
12384W        W76317   7.312  43.018   3.185
12385W        W76318   5.329  29.029   4.326
12386W        W76319   4.396  39.869   4.703
12387W        W76320  12.243   1.292   3.783
12388W        W76321  33.936   8.674  13.852
12389W        W76322   6.824   0.976  12.835
12390W        W76323  42.833   0.374   4.719
12391W        W76324  41.485  43.960  13.369
12392W        W76325   3.869   7.755   3.724
12393W        W76326   5.887  16.617   4.605
12394W        W76327  32.014   3.299  10.938
12395W        W76328   7.411  11.742  14.877
12396W        W76329  41.857  23.533  11.458
12397W        W76330  41.858  11.259   3.254
12398W        W76331  31.430  24.210   3.273
12399W        W76332  17.229  33.381  12.532
12400W        W76333  17.733   9.298   3.649
12401W        W76334  12.191  40.857  10.992
12402W        W76335  11.144  28.041   3.248
12403W        W76336  38.995  12.807   0.950
12404W        W76337  31.122  41.951   2.249
12405W        W76338  23.720  25.645  12.981
12406W        W76339  29.926  43.418   2.672
12407W        W76340  34.563  43.859  10.479
12408W        W76341  28.479  11.800   3.366
12409W        W76342  17.282  38.016  13.353
12410W        W76343  24.161  11.743   4.216
12411W        W76344   7.791   7.304  13.348
12412W        W76345  16.123  39.838  11.099
12413W        W76346  33.987  11.770   4.797
12414W        W76347   4.909  13.253  11.899
12415W        W76348  14.109   0.957  12.070
12416W        W76349  40.810  40.866  13.829
12417W        W76350  38.955  11.288   3.344
12418W        W76351  15.134   6.772  12.405
12419W        W76352  29.628  19.626  12.547
12420W        W76353  24.976  11.294  12.506
12421W        W76354  22.738   9.362   4.319
12422W        W76355  32.901   8.877   1.903
12423W        W76356  33.891  30.100   3.776
12424W        W76357  28.132  28.081   5.276
12425W        W76358  12.288   0.750   2.819
12426W        W76359  28.146  43.431   9.518
12427W        W76360  30.096   5.332   3.828
12428W        W76361  39.951  15.605   1.261
12429W        W76362  29.146  16.076   0.335
12430W        W76363   4.734   3.389  11.508
12431W        W76364  44.989   3.451  13.353
12432W        W76365  11.819  40.356  14.466
12433W        W76366  22.636  42.403   0.834
12434W        W76367  36.040  38.050   5.166
12435W        W76368  30.063   0.272   4.249
12436W        W76369  13.275  24.168  11.391
12437W        W76370  19.103  25.494  11.970
12438W        W76371  37.849  28.575   0.389
12439W        W76372  19.200  38.546  12.389
12440W        W76373  28.938  33.907  12.389
12441W        W76374  40.809  16.285   4.215
12442W        W76375  15.163  18.545   3.766
12443W        W76376  23.659   5.342  11.096
12444W        W76377  26.682  41.423  12.058
12445W        W76378  28.588  38.963   1.870
12446W        W76379  42.818   3.323  14.427
12447W        W76380  22.029   6.822   4.711
12448W        W76381  22.736  38.859   4.710
12449W        W76382   6.235  20.714   3.710
12450W        W76383  28.047  44.278  14.449
12451W        W76384  22.109   6.682   0.932
12452W        W76385  25.156  21.180  11.946
12453W        W76386  31.003  34.493   2.749
12454W        W76387  38.521   5.799   4.208
12455W        W76388  24.521  21.075   2.266
12456W        W76389   8.318  41.469   1.432
12457W        W76390  21.527   0.479  10.473
12458W        W76391  37.518   2.912  12.500
12459W        W76392  17.217   8.359  14.425
12460W        W76393   0.264   1.739  12.956
12461W        W76394  36.079  21.726  11.593
12462W        W76395  13.722  42.521  10.526
12463W        W76396  15.106  21.595  12.895
12464W        W76397  34.513   8.396  11.443
12465W        W76398  33.541  14.809   4.597
12466W        W76399  34.526  26.639  10.529
12467W        W76400  10.349  39.967   2.897
12468W        W76401  32.553  16.176   2.899
12469W        W76402  23.996  13.332   5.157
12470W        W76403  12.225  39.344   0.797
12471W        W76404  25.968  36.924  11.111
12472W        W76405  13.249   0.929  11.017
12473W        W76406  31.914   9.659  11.474
12474W        W76407  40.517  35.588  12.563
12475W        W76408  25.095  23.598  13.353
12476W        W76409   3.788  20.687   2.842
12477W        W76410  26.617  33.930   1.792
12478W        W76411  17.264  33.997  10.479
12479W        W76412  36.568  40.415   1.727
12480W        W76413  29.508   6.338   2.861
12481W        W76414   0.780  15.686   5.254
12482W        W76415  12.745   8.199  11.501
12483W        W76416  41.499   3.855   2.881
12484W        W76417   9.277   3.286   4.741
12485W        W76418  12.703  18.687   4.641
12486W        W76419  33.588  12.814  13.530
12487W        W76420  30.614   6.263   1.764
12488W        W76421  10.293  25.995   0.339
12489W        W76422  30.104   9.371  14.392
12490W        W76423  39.999   9.227  11.503
12491W        W76424  27.196  15.797  11.457
12492W        W76425  36.473  28.029   1.741
12493W        W76426  41.405  20.745   0.820
12494W        W76427  35.869   3.437   3.694
12495W        W76428  17.298  15.751   0.296
12496W        W76429  33.993  17.145  13.010
12497W        W76430  22.167   5.895  11.559
12498W        W76431  28.487  33.028  14.912
12499W        W76432   0.868  42.778  11.432
12500W        W76433  38.929  26.658   1.254
12501W        W76434  40.886  43.862  11.888
12502W        W76435  18.655   5.740  10.516
12503W        W76436  17.219  37.388   5.197
12504W        W76437  33.483   5.370  12.437
12505W        W76438  29.545   0.813  10.127
12506W        W76439  43.800  28.068   1.364
12507W        W76440  11.761  13.661   1.412
12508W        W76441  32.135  39.907  10.970
12509W        W76442   5.283  11.831   1.440
12510W        W76443  15.706  11.751  13.016
12511W        W76444  19.754  34.538   3.790
12512W        W76445  34.392  21.149  11.859
12513W        W76446  44.359  31.462   1.866
12514W        W76447   2.891  18.759  12.387
12515W        W76448   0.778   3.256  12.420
12516W        W76449  24.177   3.228  14.019
12517W        W76450  38.445   8.690  12.440
12518W        W76451   3.348   1.255   4.322
12519W        W76452  13.824  43.467   1.788
12520W        W76453  27.962  21.730   3.697
12521W        W76454  26.604  26.635  11.039
12522W        W76455  10.761   8.688  12.888
12523W        W76456  22.629  42.879   5.283
12524W        W76457  23.077  28.172  12.485
12525W        W76458  23.155  43.515   2.836
12526W        W76459  20.217  20.167  12.552
12527W        W76460  20.238  22.589  11.112
12528W        W76461  16.678  44.952  14.792
12529W        W76462  38.564  18.166  11.051
12530W        W76463   4.336  11.665  13.343
12531W        W76464  24.171  38.510  12.406
12532W        W76465   5.275  40.405  12.874
12533W        W76466  18.167  13.707  13.815
12534W        W76467  25.471  32.426  10.894
12535W        W76468   4.803   0.413  12.044
12536W        W76469  20.058  19.049  12.549
12537W        W76470  36.072  35.437  10.598
12538W        W76471  22.531   7.347  11.431
12539W        W76472  36.446  26.068  11.076
12540W        W76473  34.452  44.954   0.399
12541W        W76474  34.079   7.189   3.812
12542W        W76475  26.656   1.960   2.893
12543W        W76476  31.067  17.587   3.159
12544W        W76477  37.069   1.881   0.257
12545W        W76478  20.052   1.434  11.856
12546W        W76479  16.232   9.665  12.850
12547W        W76480  39.826   7.693   0.346
12548W        W76481  35.948  43.982   3.347
12549W        W76482  30.019   3.774  12.443
12550W        W76483  21.184  26.679   5.311
12551W        W76484  38.525  27.092   2.278
12552W        W76485  34.478   3.760  14.875
12553W        W76486   7.326  34.408  14.783
12554W        W76487  40.912  16.211  11.990
12555W        W76488  31.594  15.584   3.224
12556W        W76489  27.958   1.287  12.478
12557W        W76490  19.229  24.091   3.173
12558W        W76491  38.851  12.294  14.300
12559W        W76492  38.966  32.636  11.553
12560W        W76493   5.788   2.793   4.719
12561W        W76494  14.769  39.428   0.248
12562W        W76495  30.952  21.257   2.718
12563W        W76496  25.637  38.419  11.451
12564W        W76497  16.786   8.192   4.236
12565W        W76498   1.307  32.021   3.637
12566W        W76499  37.862  26.969  12.946
12567W        W76500   1.430  32.630   4.806
12568W        W76501  19.577   6.818  14.006
12569W        W76502  20.635  36.346   4.233
12570W        W76503  21.745  10.288  14.391
12571W        W76504  39.985  27.142  12.006
12572W        W76505  20.171   8.258   3.156
12573W        W76506  42.348  10.219  11.466
12574W        W76507  29.617   8.659  11.929
12575W        W76508   6.779  33.563   0.328
12576W        W76509   0.337  20.074   4.787
12577W        W76510  32.536  14.246  12.917
12578W        W76511   4.705  24.118  14.282
12579W        W76512  18.272  32.936  14.897
12580W        W76513  28.531  23.187   2.882
12581W        W76514   1.451   7.695  11.484
12582W        W76515  31.066   4.406   0.757
12583W        W76516   6.413  21.750   1.768
12584W        W76517  16.619  19.740   0.392
12585W        W76518  37.010  30.059  12.965
12586W        W76519  44.408  30.516   4.201
12587W        W76520  35.478  42.448   2.815
12588W        W76521  14.248  38.008   3.701
12589W        W76522  27.685  13.643   1.884
12590W        W76523  27.942  35.448  11.455
12591W        W76524  19.086  25.487   3.216
12592W        W76525  15.216  42.887  10.947
12593W        W76526   1.310  35.975   1.897
12594W        W76527  11.279  18.232  12.505
12595W        W76528  18.648  30.938  10.623
12596W        W76529  41.354  34.006  11.553
12597W        W76530  17.281  37.083   4.266
12598W        W76531   4.842   6.715   1.765
12599W        W76532  11.342  13.159   3.803
12600W        W76533  15.173   2.945   3.863
12601W        W76534  41.849  38.990  14.012
12602W        W76535  12.675  28.138  14.932
12603W        W76536  16.747  43.331  14.885
12604W        W76537  22.534  19.205  14.934
12605W        W76538  31.913  12.722   1.935
12606W        W76539   9.385  20.586   0.434
12607W        W76540   6.203   7.308   0.323
12608W        W76541  37.538  39.985   1.303
12609W        W76542  44.260   2.846  10.434
12610W        W76543  28.621  20.095  12.433
12611W        W76544  32.589  17.596  10.899
12612W        W76545  35.084  17.650  11.867
12613W        W76546   7.680  41.450  14.782
12614W        W76547  22.547  20.769  13.547
12615W        W76548  44.915  24.502  10.890
12616W        W76549   7.716   4.291  14.380
12617W        W76550   6.827  13.115  12.437
12618W        W76551  11.221  32.589  10.930
12619W        W76552  31.611  28.083   3.157
12620W        W76553  11.707  36.388   3.796
12621W        W76554  21.024  13.697   0.404
12622W        W76555  27.052  42.933   9.629
12623W        W76556  24.688  41.900  11.081
12624W        W76557   7.224  42.326  11.471
12625W        W76558  17.097   6.330   2.288
12626W        W76559  27.678  20.247  12.360
12627W        W76560  15.272  26.483   4.726
12628W        W76561  20.202  25.038   0.331
12629W        W76562  12.767   1.885   4.276
12630W        W76563  40.831  19.689   3.218
12631W        W76564  17.585  16.080  10.469
12632W        W76565   7.328  42.364  13.925
12633W        W76566   7.684   1.440  12.462
12634W        W76567  18.676   6.253   3.323
12635W        W76568   6.853  28.577  13.802
12636W        W76569  21.691  21.227   0.899
12637W        W76570   0.939  36.915   1.856
12638W        W76571  20.126  21.210  11.529
12639W        W76572  24.171  12.771   4.184
12640W        W76573  27.476   1.811   3.151
12641W        W76574  39.862  18.745   0.953
12642W        W76575  35.459  20.650  12.534
12643W        W76576  20.597  37.840   4.746
12644W        W76577   3.351  34.548  11.904
12645W        W76578  23.545  22.669   3.349
12646W        W76579  37.460   1.743  10.522
12647W        W76580  30.631  16.795  11.969
12648W        W76581  44.333  32.135   4.753
12649W        W76582   9.393  12.744   2.868
12650W        W76583  40.321  15.614  11.879
12651W        W76584  32.579  16.172  11.045
12652W        W76585  28.079  21.117  11.609
12653W        W76586   9.233  12.155   0.733
12654W        W76587  24.073  10.804   3.858
12655W        W76588   8.238  29.977   1.324
12656W        W76589  11.263  21.532  13.439
12657W        W76590  11.625   2.281   0.858
12658W        W76591  11.335  42.456  10.591
12659W        W76592  15.143  37.490   1.753
12660W        W76593  11.767   8.753   1.734
12661W        W76594  11.285  21.165   1.264
12662W        W76595  36.872  18.626  11.955
12663W        W76596   2.406  14.291   2.402
12664W        W76597   3.400  22.145   1.450
12665W        W76598   6.789  19.665  10.543
12666W        W76599  18.071  15.782  13.473
12667W        W76600  17.167  20.587   4.314
12668W        W76601  12.765  35.966   4.608
12669W        W76602  41.952  21.172   3.313
12670W        W76603   7.900  32.051  13.316
12671W        W76604  41.325  24.089  12.387
12672W        W76605  33.597   6.375   4.741
12673W        W76606  13.310  37.483   4.212
12674W        W76607  27.148  28.110   3.263
12675W        W76608   6.415  31.153   0.270
12676W        W76609  13.717  42.514   2.360
12677W        W76610  14.107  33.977  14.331
12678W        W76611   3.880  41.451   4.797
12679W        W76612  34.439  18.277   1.723
12680W        W76613  17.127  30.003  13.477
12681W        W76614  18.165  44.808  12.464
12682W        W76615  19.683  42.426   3.754
12683W        W76616  34.087  16.091  13.959
12684W        W76617  12.155   6.381  13.031
12685W        W76618  24.126   1.481   3.183
12686W        W76619  35.425  40.332   2.304
12687W        W76620  39.923  34.571   2.369
12688W        W76621  16.237  27.959   4.662
12689W        W76622   4.336   3.298   4.179
12690W        W76623  17.797  30.014   1.315
12691W        W76624  36.975  43.914   3.191
12692W        W76625  22.158  26.140  11.872
12693W        W76626  39.388  41.840  13.500
12694W        W76627  42.979  18.159   0.314
12695W        W76628  36.516  17.572  13.464
12696W        W76629   6.774   9.695  12.562
12697W        W76630   8.875  24.211  10.449
12698W        W76631  40.397   5.728  10.562
12699W        W76632  42.283  36.544   0.266
12700W        W76633   0.826   2.755   0.880
12701W        W76634  42.931  26.063   1.226
12702W        W76635  27.966  43.013  13.460
12703W        W76636  35.385  24.690  13.982
12704W        W76637  15.671  40.433   0.262
12705W        W76638  33.504  25.086   0.829
12706W        W76639  44.317  41.022  13.028
12707W        W76640  19.756   2.461  13.059
12708W        W76641  37.085   3.846   1.883
12709W        W76642  42.998  41.792   1.447
12710W        W76643   6.914   4.770   1.217
12711W        W76644  33.990  12.635  13.436
12712W        W76645  18.206   5.405  12.388
12713W        W76646  16.298  33.607  12.357
12714W        W76647  36.416  34.516  11.390
12715W        W76648  16.725  40.508   1.222
12716W        W76649  30.925  19.646   1.277
12717W        W76650  27.507  22.094   3.298
12718W        W76651  11.759   7.387   9.952
12719W        W76652  37.015  23.727   0.914
12720W        W76653  38.415  26.556   2.399
12721W        W76654  17.281  15.624   3.245
12722W        W76655  41.377   4.750   4.834
12723W        W76656  39.520  38.447   3.290
12724W        W76657  33.521  42.792   4.631
12725W        W76658  25.640  34.514   1.281
12726W        W76659   0.378  41.796  13.309
12727W        W76660  12.233  12.731   1.865
12728W        W76661   4.839  42.374   0.911
12729W        W76662  26.111  44.406  12.927
12730W        W76663  16.785  16.625   5.224
12731W        W76664  22.642   3.864  11.064
12732W        W76665  16.078   0.272   2.369
12733W        W76666  35.094  27.942   2.891
12734W        W76667  13.223  17.717  11.443
12735W        W76668  22.146  17.075  12.359
12736W        W76669  17.107  32.590   4.263
12737W        W76670   4.383   0.486  11.908
12738W        W76671  12.159   3.355   1.814
12739W        W76672   3.374  27.465   3.733
12740W        W76673  29.443  26.178  12.444
12741W        W76674  31.488  13.161  10.616
12742W        W76675  36.501  16.177  10.924
12743W        W76676   5.781  42.856  14.820
12744W        W76677  32.067  32.412  11.881
12745W        W76678  33.418  40.394   0.726
12746W        W76679  19.624  44.985   0.918
12747W        W76680  30.610  31.407   2.886
12748W        W76681  33.577  44.474  11.500
12749W        W76682  44.266  42.378   0.449
12750W        W76683  11.714  34.051  12.026
12751W        W76684  12.119   9.311   1.240
12752W        W76685  11.680   9.315  14.843
12753W        W76686  13.278  20.644  12.901
12754W        W76687   0.483   8.877  14.919
12755W        W76688   9.149   7.912  11.507
12756W        W76689   7.706  19.110   4.278
12757W        W76690  26.566  42.894   0.822
12758W        W76691   9.285  19.084  14.901
12759W        W76692  41.915  36.052   1.235
12760W        W76693  33.602   8.211   2.203
12761W        W76694   2.368  32.075  10.900
12762W        W76695   1.904  44.954  13.409
12763W        W76696  37.485  12.160  12.537
12764W        W76697  31.585  16.156  11.962
12765W        W76698  15.797  15.748   0.798
12766W        W76699   9.276  10.773  13.456
12767W        W76700   2.386  10.749  14.288
12768W        W76701  23.163  33.386  13.025
12769W        W76702  43.349   7.374   0.897
12770W        W76703   2.233  32.021  14.419
12771W        W76704  13.752  19.123   0.856
12772W        W76705  16.217  40.953  11.482
12773W        W76706  40.841  27.151   4.182
12774W        W76707  18.761  10.665  10.539
12775W        W76708  42.917   8.182   1.247
12776W        W76709  12.236  15.277  14.762
12777W        W76710   9.804  14.159  12.841
12778W        W76711  23.712  11.321  13.856
12779W        W76712  35.863  17.264   1.891
12780W        W76713  30.544  40.415   3.148
12781W        W76714  22.558   9.375  12.547
12782W        W76715  39.019  19.172  11.567
12783W        W76716   5.796  24.032   0.811
12784W        W76717   5.891   4.782   2.227
12785W        W76718   9.301  25.584   0.855
12786W        W76719   0.310  31.402   3.270
12787W        W76720  19.611  37.366   4.221
12788W        W76721  40.813  41.925   1.433
12789W        W76722   2.230  19.054   1.751
12790W        W76723  33.035  28.934  13.911
12791W        W76724  15.087  38.474  12.421
12792W        W76725  13.612  25.530   0.352
12793W        W76726  39.391  18.068   4.239
12794W        W76727  42.926  18.679   4.611
12795W        W76728  44.429  16.212   0.743
12796W        W76729  44.879  37.360  11.057
12797W        W76730  24.554  25.962   1.884
12798W        W76731  35.421  11.796   3.643
12799W        W76732   5.367   1.924   4.725
12800W        W76733  43.354   0.457  14.506
12801W        W76734   4.352  42.356   4.779
12802W        W76735  16.270  36.533  13.948
12803W        W76736  18.578  15.582   5.224
12804W        W76737  12.137  27.977  14.928
12805W        W76738  12.148   7.300   4.331
12806W        W76739  20.742  35.898   2.779
12807W        W76740  20.676  11.189  13.418
12808W        W76741  38.872  21.201  11.936
12809W        W76742  37.029  18.235  13.352
12810W        W76743  31.504  12.307   2.757
12811W        W76744  12.807  42.992   1.750
12812W        W76745  30.496   2.385   5.266
12813W        W76746   9.181   4.347   0.914
12814W        W76747  12.815  19.199   2.683
12815W        W76748  14.232  33.542  14.462
12816W        W76749  18.720  10.383  12.055
12817W        W76750  21.591  18.586   9.943
12818W        W76751   8.271  27.166   3.324
12819W        W76752  13.836  12.669   2.341
12820W        W76753  34.421   1.923  11.010
12821W        W76754  20.081  26.129   1.824
12822W        W76755  19.123  29.576   1.824
12823W        W76756  34.111  31.475   4.227
12824W        W76757  20.069  33.900  10.434
12825W        W76758  44.472  27.072  10.050
12826W        W76759  30.566  23.588   0.897
12827W        W76760  15.636  10.293  13.468
12828W        W76761  18.756  23.075   2.256
12829W        W76762  21.037   6.765  12.484
12830W        W76763  27.642  35.488   4.168
12831W        W76764  20.187  22.168   1.869
12832W        W76765   6.352   1.883  10.466
12833W        W76766  22.219  29.524   1.771
12834W        W76767  24.075  24.986   2.417
12835W        W76768   4.412   8.162   4.199
12836W        W76769   7.368  43.772   1.866
12837W        W76770  21.072   3.313  12.412
12838W        W76771  32.922  37.862   0.478
12839W        W76772  24.564  23.024   3.324
12840W        W76773  19.742   8.336   1.301
12841W        W76774   6.282  19.214  14.383
12842W        W76775   6.276   2.753   2.331
12843W        W76776   1.968  44.483   3.292
12844W        W76777   0.879  40.899  10.419
12845W        W76778  10.764  10.366   1.397
12846W        W76779  32.634  17.223   0.745
12847W        W76780   3.226   1.874  13.904
12848W        W76781  41.921   1.292   2.337
12849W        W76782  38.863  16.203   3.812
12850W        W76783   0.334  28.024  10.542
12851W        W76784  35.924  38.824  12.062
12852W        W76785  15.301  18.787  11.534
12853W        W76786   9.858  17.744  13.453
12854W        W76787  28.156  31.522  13.468
12855W        W76788  34.434  17.067   4.610
12856W        W76789  17.258  12.132  10.996
12857W        W76790  10.692  39.957   1.246
12858W        W76791  37.966  32.962   1.374
12859W        W76792  22.703  14.708  10.641
12860W        W76793   5.915  19.140  13.945
12861W        W76794  41.498  27.510  12.452
12862W        W76795  35.599  34.052   1.797
12863W        W76796  32.978  24.152  14.886
12864W        W76797  19.689  21.198   0.800
12865W        W76798  35.481  10.300   4.794
12866W        W76799  10.147  38.495   3.715
12867W        W76800   5.245  23.144  13.010
12868W        W76801  15.724  35.457   0.429
12869W        W76802  41.309   7.853   3.761
12870W        W76803  38.413   2.890  10.944
12871W        W76804   0.386  41.831   0.328
12872W        W76805   1.861  12.151  14.454
12873W        W76806  33.890  11.834  13.029
12874W        W76807   9.373  11.824  10.445
12875W        W76808  38.872  24.176  10.947
12876W        W76809  43.853  11.733   2.330
12877W        W76810  32.096  25.531   4.646
12878W        W76811  15.577  44.438   4.233
12879W        W76812  14.655   3.227  10.899
12880W        W76813  28.580   6.338  14.771
12881W        W76814  25.021  23.079  13.339
12882W        W76815   9.643  27.077  13.342
12883W        W76816  40.896   4.379  13.922
12884W        W76817   7.788  36.426   1.901
12885W        W76818  27.574   2.456   0.900
12886W        W76819   0.489  16.686   0.454
12887W        W76820   7.222  40.369  12.426
12888W        W76821  25.137  36.883   4.199
12889W        W76822  43.271  27.960   1.781
12890W        W76823  38.899  13.313   3.335
12891W        W76824  14.282   8.680   3.781
12892W        W76825  16.286  18.662   1.304
12893W        W76826  37.065  42.472   1.891
12894W        W76827  31.981  15.197   3.746
12895W        W76828  30.413   8.895   4.352
12896W        W76829  40.902  30.100   4.343
12897W        W76830  23.180  24.095   4.115
12898W        W76831  34.047   0.957  12.858
12899W        W76832  44.886  30.112  11.989
12900W        W76833   4.769   3.361  13.964
12901W        W76834  35.069  35.960  14.346
12902W        W76835  17.610   9.318   2.832
12903W        W76836  44.411  37.853   2.872
12904W        W76837  28.066  17.208  12.095
12905W        W76838   6.364  29.984   1.444
12906W        W76839   6.290   2.389   4.234
12907W        W76840  16.733   1.853  10.997
12908W        W76841   6.311  39.967   4.326
12909W        W76842  36.900   4.344   2.399
12910W        W76843  25.599  16.311   4.816
12911W        W76844   5.333  17.278   3.843
12912W        W76845  11.637  25.989   0.452
12913W        W76846   7.400  42.425   0.885
12914W        W76847  36.411  26.510  14.379
12915W        W76848  20.205   5.846   1.902
12916W        W76849   8.738   5.202   2.889
12917W        W76850   5.385  30.988  14.498
12918W        W76851  23.601  32.047   4.229
12919W        W76852  26.528  25.123   2.343
12920W        W76853  31.896  41.475  13.896
12921W        W76854  34.106  12.155  13.822
12922W        W76855  26.001  26.174  10.996
12923W        W76856   8.678  24.511   2.886
12924W        W76857  41.531   7.241  14.473
12925W        W76858   8.259   9.244   4.711
12926W        W76859   6.871  34.903   2.343
12927W        W76860   1.822  17.653  13.055
12928W        W76861  15.676  18.214   4.737
12929W        W76862   3.885  23.221   3.760
12930W        W76863  13.715  26.521   4.731
12931W        W76864   1.822  20.648   2.740
12932W        W76865  38.856  26.530  13.881
12933W        W76866  11.368  24.502  13.883
12934W        W76867  32.087   9.186  10.957
12935W        W76868   1.762  28.661  14.314
12936W        W76869  25.651   9.725   3.652
12937W        W76870  24.101  18.149  10.641
12938W        W76871  41.916  24.608  13.309
12939W        W76872  34.105   7.711  10.415
12940W        W76873  42.968  11.292  12.949
12941W        W76874  34.547  14.304   2.397
12942W        W76875   0.420  27.955  11.929
12943W        W76876   8.654  24.567  11.056
12944W        W76877  23.196  27.063   3.698
12945W        W76878  44.386  14.302   0.331
12946W        W76879  15.256  12.140   0.350
12947W        W76880  36.520  22.543  12.938
12948W        W76881  12.263  33.967  12.532
12949W        W76882  18.080   8.834  10.447
12950W        W76883   1.246  14.622  13.359
12951W        W76884   9.691  26.553   2.847
12952W        W76885   2.317  23.154   0.854
12953W        W76886  42.447  42.439   2.699
12954W        W76887  15.095  21.573   3.257
12955W        W76888  12.358  41.028  12.349
12956W        W76889   7.826   0.331  12.015
12957W        W76890   4.924  17.614  12.340
12958W        W76891  17.675  38.909  12.558
12959W        W76892   6.705  21.594  14.019
12960W        W76893  22.054  26.192  12.850
12961W        W76894   9.674  33.117   3.148
12962W        W76895  11.712  31.436  10.476
12963W        W76896   1.404   8.165   2.393
12964W        W76897   0.946  38.847  10.514
12965W        W76898  30.633  44.857  12.038
12966W        W76899  28.584  22.184   1.881
12967W        W76900  29.117  20.138  12.989
12968W        W76901   1.338   4.250  10.528
12969W        W76902  44.435  43.500  14.324
12970W        W76903  31.129  21.696  13.423
12971W        W76904  22.110  28.012  10.423
12972W        W76905   7.356   6.247   1.258
12973W        W76906  35.936  35.916  10.626
12974W        W76907  24.082  18.597   1.785
12975W        W76908   2.463   2.427   3.204
12976W        W76909  42.871  33.451   5.131
12977W        W76910  11.216   1.411  10.629
12978W        W76911  23.130  36.014  14.003
12979W        W76912  39.952  42.407   2.188
12980W        W76913  41.818  20.554   2.721
12981W        W76914  11.342  32.566  13.524
12982W        W76915  43.999  31.962   1.291
12983W        W76916  40.374   0.820  13.814
12984W        W76917  42.946  39.955   2.666
12985W        W76918   1.312   8.717  13.036
12986W        W76919   0.759   9.343  14.945
12987W        W76920  40.926  22.688   1.861
12988W        W76921  41.401  34.112   2.676
12989W        W76922  15.814  32.419   3.789
12990W        W76923  42.496   6.683  12.986
12991W        W76924  43.822   4.255   4.332
12992W        W76925   4.707  32.071  13.990
12993W        W76926  21.560  41.007   2.194
12994W        W76927  32.540  42.364   1.428
12995W        W76928  33.107   9.692   2.316
12996W        W76929  14.823  32.613  12.463
12997W        W76930  29.589  16.646   0.843
12998W        W76931  25.080   8.232   2.845
12999W        W76932  35.967  20.724   3.703
13000W        W76933  16.151  38.545   1.408
13001W        W76934  33.875  42.294  12.571
13002W        W76935  44.938  10.303   9.962
13003W        W76936  19.275  39.437   1.762
13004W        W76937  17.082  30.057  11.951
13005W        W76938  18.198   3.790   1.881
13006W        W76939  44.834   8.316  12.978
13007W        W76940  41.821  17.621   2.412
13008W        W76941  32.981  17.596  13.484
13009W        W76942  14.678  25.081   4.151
13010W        W76943  35.437   5.861   4.810
13011W        W76944  36.579  38.963   1.326
13012W        W76945  31.529   9.743   2.854
13013W        W76946  19.715  44.432   1.822
13014W        W76947  29.970  36.384   0.767
13015W        W76948  21.062  14.697   3.349
13016W        W76949   7.395  43.935  13.472
13017W        W76950  10.757   3.803   2.822
13018W        W76951   3.450   3.877   5.083
13019W        W76952  41.495  12.360  10.527
13020W        W76953  10.365  32.037  12.962
13021W        W76954   8.309  19.775  11.901
13022W        W76955  22.178  27.093   3.864
13023W        W76956   5.793   6.406  12.091
13024W        W76957  31.905  38.961   4.819
13025W        W76958  38.473  28.935  13.974
13026W        W76959  43.324  44.766  11.908
13027W        W76960  35.068  19.239  10.503
13028W        W76961  25.580   1.777   0.870
13029W        W76962  44.997  32.582  12.561
13030W        W76963  14.768  18.591  13.982
13031W        W76964  43.989  11.800  14.005
13032W        W76965  41.840  28.003   1.439
13033W        W76966  24.122  43.314   3.217
13034W        W76967  26.563  18.640   2.280
13035W        W76968  10.276  21.231  13.799
13036W        W76969  14.702   9.325   1.708
13037W        W76970  38.978  13.181   0.277
13038W        W76971  14.759   9.869   1.865
13039W        W76972   4.852   2.259   3.820
13040W        W76973  25.646  40.834   3.723
13041W        W76974  28.617  32.066   3.218
13042W        W76975  28.540  17.786  10.644
13043W        W76976  31.095  44.826   2.320
13044W        W76977  40.944   7.382   3.738
13045W        W76978  16.192  10.251  12.087
13046W        W76979   4.785  18.204  12.398
13047W        W76980  16.723  15.771   0.378
13048W        W76981  36.050   5.752  11.940
13049W        W76982   4.789  14.702   2.714
13050W        W76983  37.388  27.029  12.089
13051W        W76984  38.932  43.479   2.325
13052W        W76985  36.000   3.726   3.674
13053W        W76986  10.226  43.456   3.832
13054W        W76987  17.160   6.714   2.678
13055W        W76988  33.498  38.447   2.192
13056W        W76989  30.518   7.887  11.608
13057W        W76990  33.025  27.564   3.860
13058W        W76991  23.490  37.957  14.411
13059W        W76992  16.238  42.454  11.442
13060W        W76993  23.156  26.560   0.895
13061W        W76994  37.373  24.504   0.477
13062W        W76995  24.683  35.109  13.890
13063W        W76996   1.964  15.286   0.852
13064W        W76997  35.896  35.484  10.939
13065W        W76998  39.464  23.678   1.920
13066W        W76999  12.754  21.162  14.476
13067W        W77000  23.209  39.876  13.862
13068W        W77001  28.970  23.137   1.784
13069W        W77002   0.305   2.247  12.860
13070W        W77003   3.760  33.475   1.345
13071W        W77004  27.517   4.775   1.227
13072W        W77005  44.786  14.746  14.357
13073W        W77006  39.846  44.477   2.223
13074W        W77007  36.351  43.952  13.381
13075W        W77008   7.895  41.880  13.975
13076W        W77009  44.787  24.071  14.309
13077W        W77010  13.764  34.498  13.979
13078W        W77011  44.427  13.134  13.379
13079W        W77012  18.618  34.888  13.819
13080W        W77013   4.855  38.486  11.509
13081W        W77014   6.856  12.700   3.637
13082W        W77015  16.614  42.016  11.586
13083W        W77016  30.984  25.540   1.314
13084W        W77017   7.894  31.010  11.426
13085W        W77018  26.556  11.738   4.136
13086W        W77019  31.120  41.514   4.695
13087W        W77020  13.324  29.099  12.458
13088W        W77021  43.450  31.013  11.428
13089W        W77022  23.010   4.429   4.267
13090W        W77023  11.303  39.414  13.844
13091W        W77024  40.483   0.984   5.158
13092W        W77025   8.892   2.739  10.159
13093W        W77026   1.939   5.933   1.795
13094W        W77027  19.077  35.512  12.577
13095W        W77028  11.240  40.466   1.284
13096W        W77029  22.653  40.446  11.582
13097W        W77030  32.563  19.203  11.890
13098W        W77031  18.137  22.735  11.006
13099W        W77032  28.089  28.605  12.852
13100W        W77033  11.777  34.412   4.213
13101W        W77034  31.481  27.048   4.238
13102W        W77035  22.087  11.834  11.557
13103W        W77036  44.777  43.869  12.967
13104W        W77037   7.319  25.169  13.977
13105W        W77038  28.106   9.184   1.379
13106W        W77039  22.531  10.311   1.735
13107W        W77040  22.251   6.799  10.532
13108W        W77041  11.686  36.953  13.525
13109W        W77042  17.116  10.678  14.930
13110W        W77043  37.980  16.309  13.324
13111W        W77044   4.443  20.206   1.303
13112W        W77045  40.998  21.031   4.143
13113W        W77046  29.980  36.505  12.964
13114W        W77047  19.219   3.723  10.508
13115W        W77048  43.996  23.036  13.912
13116W        W77049  24.998  22.655   3.657
13117W        W77050  28.458   2.467   3.821
13118W        W77051   2.319   2.790   3.365
13119W        W77052  30.137  24.554  10.967
13120W        W77053  13.189   8.394  13.903
13121W        W77054  44.762  24.994  14.898
13122W        W77055  33.070   0.475   1.910
13123W        W77056  10.339  34.096  13.864
13124W        W77057   8.668  19.199  11.911
13125W        W77058  24.635  13.826   0.896
13126W        W77059  15.321  21.749   1.256
13127W        W77060  27.034  39.932  13.389
13128W        W77061   2.321  18.724   2.750
13129W        W77062   3.267   8.289  11.509
13130W        W77063   2.278  26.478   1.418
13131W        W77064   7.667  41.523   3.228
13132W        W77065  33.525   9.214   2.731
13133W        W77066  14.126  43.796  13.393
13134W        W77067   8.739  26.674   2.760
13135W        W77068  21.240  37.389  12.061
13136W        W77069  22.735   9.210   2.181
13137W        W77070  44.945  14.764   1.852
13138W        W77071  11.361  43.314  13.540
13139W        W77072  12.266  38.941   0.951
13140W        W77073  35.447  30.006  14.932
13141W        W77074  32.917  14.666   0.385
13142W        W77075  27.162  30.623   1.788
13143W        W77076  16.676  12.174   4.683
13144W        W77077  13.633  30.416   4.317
13145W        W77078  23.718  38.426  10.978
13146W        W77079   4.400  14.101   4.778
13147W        W77080   8.389  39.893  11.383
13148W        W77081  17.213   5.308   2.666
13149W        W77082   4.923  33.051  11.527
13150W        W77083  24.496  22.171  14.360
13151W        W77084  44.445   0.908   3.724
13152W        W77085  13.668  19.042  13.888
13153W        W77086  19.128   7.726   2.784
13154W        W77087  22.202  40.335   1.369
13155W        W77088  37.515  20.111   1.781
13156W        W77089  44.452  36.407   4.629
13157W        W77090  43.898  36.415  12.925
13158W        W77091  19.727  19.686  14.394
13159W        W77092  28.508  43.795   1.337
13160W        W77093   6.876  29.979  14.339
13161W        W77094   8.757  32.923  11.939
13162W        W77095  17.281  20.617  10.442
13163W        W77096  20.625  15.694  14.322
13164W        W77097  12.780  27.448   0.957
13165W        W77098   2.358  43.911   0.831
13166W        W77099  16.245  31.032  13.891
13167W        W77100  11.267   5.435  13.031
13168W        W77101  33.977  19.124   1.851
13169W        W77102  34.511  14.313   1.275
13170W        W77103  32.435  12.644  10.065
13171W        W77104  10.246   9.300   1.806
13172W        W77105  15.607  33.998   3.285
13173W        W77106  19.093  25.162  12.073
13174W        W77107  36.894   9.210  13.028
13175W        W77108   7.891  33.978  11.443
13176W        W77109  27.057  13.131  12.413
13177W        W77110  37.077  23.595   3.631
13178W        W77111  11.164  19.596  11.093
13179W        W77112  20.754  35.973  10.969
13180W        W77113  42.810  37.440   0.441
13181W        W77114  40.883  21.610  14.471
13182W        W77115   5.712  36.942   4.138
13183W        W77116  32.425  34.058  13.523
13184W        W77117   2.906  22.687  11.517
13185W        W77118   9.185  44.797  14.353
13186W        W77119  42.001  40.996   2.737
13187W        W77120  28.540   6.752   0.797
13188W        W77121  35.049   0.458  12.387
13189W        W77122  41.873   7.292   1.339
13190W        W77123   9.650   0.946  11.372
13191W        W77124  37.842  18.263   0.342
13192W        W77125  33.583  22.006   2.318
13193W        W77126  11.729  37.010  11.539
13194W        W77127  42.500   9.757  13.363
13195W        W77128   2.860  21.575  12.929
13196W        W77129   4.443   6.235  14.507
13197W        W77130  39.327  21.553  11.971
13198W        W77131   6.363  14.096   2.703
13199W        W77132   1.406  14.301  13.384
13200W        W77133  32.988  23.652  13.853
13201W        W77134   2.467  40.984  11.508
13202W        W77135  32.636   5.877  10.917
13203W        W77136  14.174   5.903   1.344
13204W        W77137   8.738  34.375  13.034
13205W        W77138  29.492  31.019   3.378
13206W        W77139   0.261   4.258   1.291
13207W        W77140   0.888   9.672   4.332
13208W        W77141   3.891  39.401  11.865
13209W        W77142  44.864  18.169  14.842
13210W        W77143  16.611  10.244   2.321
13211W        W77144  41.391  26.123  11.010
13212W        W77145  20.134  19.638   1.358
13213W        W77146  28.143  32.504   1.417
13214W        W77147  29.112  33.402  14.413
13215W        W77148  41.980  41.001   4.643
13216W        W77149  10.679  15.631  14.910
13217W        W77150  35.562  26.525  10.533
13218W        W77151  10.664  38.338  10.615
13219W        W77152  28.493   0.361  13.966
13220W        W77153   3.341  18.271   2.305
13221W        W77154  30.532  11.679   4.194
13222W        W77155  12.190  35.553   0.857
13223W        W77156  25.642  23.238   4.613
13224W        W77157  34.926  36.887   0.333
13225W        W77158  23.608  37.956  11.027
13226W        W77159  16.812  41.314   0.281
13227W        W77160   5.930   3.808  14.332
13228W        W77161  42.952  21.161  10.431
13229W        W77162  18.689  42.461  13.403
13230W        W77163  14.118  30.090  14.306
13231W        W77164  13.644  40.522  14.954
13232W        W77165  22.603   9.265  12.897
13233W        W77166  13.702   6.889  14.026
13234W        W77167  31.617  43.319   0.374
13235W        W77168  37.431   3.440  11.593
13236W        W77169  16.088  14.210  12.941
13237W        W77170  36.850  19.577  13.861
13238W        W77171   0.449  16.740  14.897
13239W        W77172  42.354  44.918  13.475
13240W        W77173   1.441  24.519   0.795
13241W        W77174  19.593  28.499  12.021
13242W        W77175  29.955  30.020   4.732
13243W        W77176  27.589  23.688   2.326
13244W        W77177  19.756  32.547  14.979
13245W        W77178   8.385   5.835   1.879
13246W        W77179   8.406  37.912  13.820
13247W        W77180  16.633  35.000  14.295
13248W        W77181  13.107  14.187  12.499
13249W        W77182  20.767  25.655  11.856
13250W        W77183  10.211  33.074   1.863
13251W        W77184  21.058  17.246   4.266
13252W        W77185  35.495  26.517  13.888
13253W        W77186   5.268   3.336  12.058
13254W        W77187  24.514  31.132  10.977
13255W        W77188   2.429   2.289  13.796
13256W        W77189  37.918  31.061  10.562
13257W        W77190  14.172  25.669   2.311
13258W        W77191   2.356  34.071  12.439
13259W        W77192   2.464  42.908  11.386
13260W        W77193  43.365  24.140  10.595
13261W        W77194  43.507  20.599  11.111
13262W        W77195  28.679  10.650   4.192
13263W        W77196  43.991  11.358   3.360
13264W        W77197  20.588   7.743  10.562
13265W        W77198   4.354  10.257   3.823
13266W        W77199  38.890  16.640  12.825
13267W        W77200  37.029   3.775  14.496
13268W        W77201  30.993   6.286   3.313
13269W        W77202  12.145  39.951   0.457
13270W        W77203   6.761  27.983  13.428
13271W        W77204  23.538  17.284   1.828
13272W        W77205  10.649  24.522  10.463
13273W        W77206   9.258  40.364   1.763
13274W        W77207  10.177  22.008   4.616
13275W        W77208   6.898  17.070   3.276
13276W        W77209  19.756  31.125   2.756
13277W        W77210  31.469  37.341  14.295
13278W        W77211  19.620  31.146   4.354
13279W        W77212  18.628  18.572  13.864
13280W        W77213  40.305  10.283   2.244
13281W        W77214  27.151  21.563   2.286
13282W        W77215  17.062  39.817   9.660
13283W        W77216   0.335  10.754  14.958
13284W        W77217  24.033   5.377  13.015
13285W        W77218   4.302  21.601   3.326
13286W        W77219  22.025  21.134   4.119
13287W        W77220  24.112  12.282  11.027
13288W        W77221   1.344  44.348  14.320
13289W        W77222   3.931  26.184   3.201
13290W        W77223  22.610  19.108   3.674
13291W        W77224  18.672  13.139   2.405
13292W        W77225  10.330  42.976   0.767
13293W        W77226  15.819  24.570  13.377
13294W        W77227   3.898   5.279   9.571
13295W        W77228  42.468  11.715  11.530
13296W        W77229  44.868  11.638  10.912
13297W        W77230  26.181   9.376   4.765
13298W        W77231  21.086  19.089   3.864
13299W        W77232   6.291  20.689  13.886
13300W        W77233  43.964  25.499   4.349
13301W        W77234   7.408  40.880   1.327
13302W        W77235  21.042   0.331   3.201
13303W        W77236  21.684  43.346   0.243
13304W        W77237   1.458  37.498   0.461
13305W        W77238  41.982   0.365  11.524
13306W        W77239  43.380  24.167   3.271
13307W        W77240   2.234  29.040  12.515
13308W        W77241   0.326  42.459  11.555
13309W        W77242  39.955  24.078   2.842
13310W        W77243  29.650  38.890   3.834
13311W        W77244  43.511   6.884   0.891
13312W        W77245  23.578  27.558  13.467
13313W        W77246  28.975  30.956   1.798
13314W        W77247  44.396   4.214   0.310
13315W        W77248  36.457   0.360  13.915
13316W        W77249  18.760  42.798  11.960
13317W        W77250  18.233   2.355   3.300
13318W        W77251  13.693  20.743  11.449
13319W        W77252  20.557  22.235   2.716
13320W        W77253  32.541  33.401  12.552
13321W        W77254  28.446  41.531  10.999
13322W        W77255  25.007  14.094   0.437
13323W        W77256  11.863  20.208   1.450
13324W        W77257  18.107  13.633  13.408
13325W        W77258  19.771   8.286   3.318
13326W        W77259  31.064  18.575   2.701
13327W        W77260  11.786   3.296  14.905
13328W        W77261  27.559  19.102   2.216
13329W        W77262  28.111  44.497   0.933
13330W        W77263   2.810  17.641   2.695
13331W        W77264  42.360   4.765  13.027
13332W        W77265  12.646  19.049   1.794
13333W        W77266  15.741  35.578  14.802
13334W        W77267  13.141   5.363   0.265
13335W        W77268  40.885  13.773   1.841
13336W        W77269   7.239  34.079  13.370
13337W        W77270  41.848  35.941  13.453
13338W        W77271   2.358  43.516  13.893
13339W        W77272  34.054  26.695  14.382
13340W        W77273   6.754  28.554  14.293
13341W        W77274  11.263  37.850   3.238
13342W        W77275   7.404  39.833   0.867
13343W        W77276  29.509  30.546  14.760
13344W        W77277  39.324  24.555  12.471
13345W        W77278  16.222   7.886  14.022
13346W        W77279  35.074   4.243   0.838
13347W        W77280  13.264   4.279  11.541
13348W        W77281  43.323  22.706  10.485
13349W        W77282  33.000  22.206   3.685
13350W        W77283  38.037  42.890   2.858
13351W        W77284  44.478  36.375   1.382
13352W        W77285   6.681  33.046   2.302
13353W        W77286  31.414  22.179  10.986
13354W        W77287  10.343  44.000   1.331
13355W        W77288  38.392  30.049  14.954
13356W        W77289  25.502   8.772  13.971
13357W        W77290   5.902  42.789  11.002
13358W        W77291   4.273   4.816   9.949
13359W        W77292   2.797  22.180  10.522
13360W        W77293  42.907  34.009  13.857
13361W        W77294  29.668  10.273  12.855
13362W        W77295  37.545  41.928  13.311
13363W        W77296  19.577  16.083   4.760
13364W        W77297   6.741  11.726  12.426
13365W        W77298   8.331  17.720  13.489
13366W        W77299   7.713  15.717  14.471
13367W        W77300  44.852  32.410  13.365
13368W        W77301  19.173  42.512   0.339
13369W        W77302  26.620  23.511  11.399
13370W        W77303   0.815  24.023  11.407
13371W        W77304  15.707  36.434  11.417
13372W        W77305   7.295  41.824   0.896
13373W        W77306  12.209   5.381  12.360
13374W        W77307  28.463  34.923   2.739
13375W        W77308   4.876   6.254   1.312
13376W        W77309  33.523  34.986   2.288
13377W        W77310  31.580  38.878   2.793
13378W        W77311  32.461  24.556  11.590
13379W        W77312  24.663  30.608   3.694
13380W        W77313   6.422   4.342  14.767
13381W        W77314  43.966   3.322  13.355
13382W        W77315  12.761   6.768  10.017
13383W        W77316  27.122   7.712  13.899
13384W        W77317  20.149  43.811  14.816
13385W        W77318  13.249   0.446  13.900
13386W        W77319   6.919  14.779   3.690
13387W        W77320   1.781  15.688  11.105
13388W        W77321  33.612  39.878   3.731
13389W        W77322  28.582  14.809  13.341
13390W        W77323  20.141  12.161  13.381
13391W        W77324   6.792  41.876   1.273
13392W        W77325  43.504  30.476   0.306
13393W        W77326  22.208  42.504   2.694
13394W        W77327  39.544  12.185  13.821
13395W        W77328  41.857   0.965   5.131
13396W        W77329  31.046  22.648  11.567
13397W        W77330  38.366  14.780   0.271
13398W        W77331   7.878  30.072  12.043
13399W        W77332  30.055  36.445  13.924
13400W        W77333   3.925  32.960  12.419
13401W        W77334  38.828  27.960  14.409
13402W        W77335  27.052  16.236  10.610
13403W        W77336  25.712   0.427   2.903
13404W        W77337   9.818  29.012  13.312
13405W        W77338   9.736   4.352  10.563
13406W        W77339   1.432  14.731   4.714
13407W        W77340   8.315  34.002   4.805
13408W        W77341   3.380  32.398  11.454
13409W        W77342  20.712  17.744  13.809
13410W        W77343  20.167  36.028   2.801
13411W        W77344  24.986   7.340  12.962
13412W        W77345  14.106  34.962   0.916
13413W        W77346   0.479   4.834   0.822
13414W        W77347  25.994  31.484   2.822
13415W        W77348  22.066  21.669   1.451
13416W        W77349  38.442  28.945  12.539
13417W        W77350  42.923  25.086  12.909
13418W        W77351  37.493  31.934  14.311
13419W        W77352  35.497  10.358  14.387
13420W        W77353   0.279  33.099  14.980
13421W        W77354  16.779  28.184  14.459
13422W        W77355  29.072  25.063  12.842
13423W        W77356  38.470  32.479   4.210
13424W        W77357  20.246  27.653   0.329
13425W        W77358   3.382  43.930  13.531
13426W        W77359  23.669  33.884  10.406
13427W        W77360   3.897  33.578   4.797
13428W        W77361  44.485  16.658   3.730
13429W        W77362  35.891  29.556   4.693
13430W        W77363  41.317  31.152   3.864
13431W        W77364  43.857  24.545  14.800
13432W        W77365  37.060  32.101   0.845
13433W        W77366  31.597  13.781   2.901
13434W        W77367   2.458  43.301   3.291
13435W        W77368   2.246  41.905  11.508
13436W        W77369  43.382  20.170  13.346
13437W        W77370  37.839   7.185  11.887
13438W        W77371  41.293  20.158  11.558
13439W        W77372  41.810   1.780  10.600
13440W        W77373  15.805  24.142  11.499
13441W        W77374  23.673  20.147  11.875
13442W        W77375  22.600   0.806   3.765
13443W        W77376  36.858  29.928  10.421
13444W        W77377  37.338   8.164  10.534
13445W        W77378  16.786  44.871   4.222
13446W        W77379  30.454  24.185  13.431
13447W        W77380  44.905  15.151  14.809
13448W        W77381  16.300  11.307   0.382
13449W        W77382  10.325  24.638   2.400
13450W        W77383  15.269   4.870   1.876
13451W        W77384  16.163   7.782   2.280
13452W        W77385  34.490  11.712  13.480
13453W        W77386  36.922   9.838  10.531
13454W        W77387  28.470  31.966   4.240
13455W        W77388  44.293   9.344   3.651
13456W        W77389  35.580  41.897  11.889
13457W        W77390  37.862  39.358  14.826
13458W        W77391   7.325  14.094   1.889
13459W        W77392  21.078  14.226  13.987
13460W        W77393  21.108   3.276  10.937
13461W        W77394  44.319  41.836   1.311
13462W        W77395  38.539  29.648   4.757
13463W        W77396  17.737  19.571   0.881
13464W        W77397  36.074   2.318   1.895
13465W        W77398  31.954  35.518  13.419
13466W        W77399  39.978  42.020   1.241
13467W        W77400  26.632   5.903  12.438
13468W        W77401  44.909   8.824  12.979
13469W        W77402  17.216  35.493   2.187
13470W        W77403  28.025   1.800   0.819
13471W        W77404  41.886  14.711  11.076
13472W        W77405  20.225  28.940   4.686
13473W        W77406  11.256  27.176  11.377
13474W        W77407  31.152  38.077   2.325
13475W        W77408  44.790  38.050   3.249
13476W        W77409   0.951  40.899   4.318
13477W        W77410  14.717  19.609  13.312
13478W        W77411  15.600  41.313   2.759
13479W        W77412  23.513  31.624   3.670
13480W        W77413  44.872  23.012   4.786
13481W        W77414  16.106   7.669  12.413
13482W        W77415  41.514   6.189  12.941
13483W        W77416  14.696  16.713   3.360
13484W        W77417  37.019  38.344   3.176
13485W        W77418  38.485   3.777   2.197
13486W        W77419  26.628  21.646   1.366
13487W        W77420  22.235   9.800   0.302
13488W        W77421  36.387  17.075  12.380
13489W        W77422  14.314  16.768   4.176
13490W        W77423  30.113  22.658   1.359
13491W        W77424  36.857  32.015  13.517
13492W        W77425  13.311  19.606   2.396
13493W        W77426   6.188   6.779  10.915
13494W        W77427  14.238  16.606  14.448
13495W        W77428  17.118  20.082  14.426
13496W        W77429   8.714  35.040   2.287
13497W        W77430  24.651  41.368  12.550
13498W        W77431  11.633  28.013   2.825
13499W        W77432   1.953  42.453  13.873
13500W        W77433  29.447  24.574   0.767
13501W        W77434  32.004  29.527   2.759
13502W        W77435  25.163  44.898  11.052
13503W        W77436  35.024  13.610   1.295
13504W        W77437  28.090  36.531   4.266
13505W        W77438  30.656  30.961  13.322
13506W        W77439  11.800  13.629   2.662
13507W        W77440  22.565  16.252   4.285
13508W        W77441  22.245   3.385  11.592
13509W        W77442  24.106  26.134  14.509
13510W        W77443  10.249  31.988   5.134
13511W        W77444  35.510  17.706   2.687
13512W        W77445  39.869   4.253  12.084
13513W        W77446  15.164  18.786  12.542
13514W        W77447  40.030  22.583  12.433
13515W        W77448  42.299  34.020   2.831
13516W        W77449  24.126  18.263  13.460
13517W        W77450  34.502  14.714   3.366
13518W        W77451  33.035  37.008  11.945
13519W        W77452  40.488  20.162  14.497
13520W        W77453  33.577   3.320   9.980
13521W        W77454   2.286  28.538   0.356
13522W        W77455  30.047  25.592   1.923
13523W        W77456   1.299  13.227   3.834
13524W        W77457  23.691  10.657  11.932
13525W        W77458  40.968   5.266  12.875
13526W        W77459  20.247  42.510   0.957
13527W        W77460  39.874  10.283  11.068
13528W        W77461   7.852  35.527  11.465
13529W        W77462  30.451  39.460  12.537
13530W        W77463   1.735   3.729  14.432
13531W        W77464   1.974   0.353  14.351
13532W        W77465  40.466   5.225  13.818
13533W        W77466  11.643  10.827   0.330
13534W        W77467   0.452  22.211  12.851
13535W        W77468  25.977  15.273   4.212
13536W        W77469  36.967  36.587   4.226
13537W        W77470  40.836   3.323   4.119
13538W        W77471   4.935  43.939   2.269
13539W        W77472  39.821  29.951   4.153
13540W        W77473  16.270  15.805   1.352
13541W        W77474  36.405  29.499   1.734
13542W        W77475  39.421  14.178   2.237
13543W        W77476   5.927  44.878   4.643
13544W        W77477  21.541   6.203   0.828
13545W        W77478  13.184   9.361   4.283
13546W        W77479  11.159  43.940  14.958
13547W        W77480  28.034  33.945  13.023
13548W        W77481  43.422  35.090   0.482
13549W        W77482  40.405  19.169  14.368
13550W        W77483   4.920  10.320  12.890
13551W        W77484  26.527   4.907   2.262
13552W        W77485  30.608  14.759  14.851
13553W        W77486  43.331  11.624   1.888
13554W        W77487   3.752  30.539   0.945
13555W        W77488  39.340   1.923  10.587
13556W        W77489  16.747   2.832   3.285
13557W        W77490  21.747  25.010   1.324
13558W        W77491  41.903  22.248  11.546
13559W        W77492  15.141   2.456  11.957
13560W        W77493  28.950  38.488   1.900
13561W        W77494  12.174  13.316  10.536
13562W        W77495  13.839  25.700  13.466
13563W        W77496  33.418  11.366   2.802
13564W        W77497  36.523  18.549  13.951
13565W        W77498  19.548  34.084   3.180
13566W        W77499   7.342   8.329   1.852
13567W        W77500  41.457   5.696  10.599
13568W        W77501  30.941  33.051   4.297
13569W        W77502  36.047  30.045   0.727
13570W        W77503   4.449  17.733  13.481
13571W        W77504  40.817  20.523   1.900
13572W        W77505  19.610  20.613   1.380
13573W        W77506  22.545  27.675   4.174
13574W        W77507   6.718  24.644  13.909
13575W        W77508  38.428  41.984  11.602
13576W        W77509   0.484  17.111   1.361
13577W        W77510  27.045  25.493  14.815
13578W        W77511   2.253  42.883  14.313
13579W        W77512  21.018  29.602   5.789
13580W        W77513   2.417  13.126   2.900
13581W        W77514  32.949  41.821  13.893
13582W        W77515  35.975  29.514   2.731
13583W        W77516  22.098   7.901  12.531
13584W        W77517  16.314   9.201   0.763
13585W        W77518  31.029  14.122  11.388
13586W        W77519  25.188  38.992  12.016
13587W        W77520   9.721  18.691   2.178
13588W        W77521  12.672  20.581   0.279
13589W        W77522   1.280  31.632   4.332
13590W        W77523   0.414  32.538   3.280
13591W        W77524   4.929   4.769   1.781
13592W        W77525  40.798   6.728  10.899
13593W        W77526  34.454  34.608  12.529
13594W        W77527  44.331  11.859   1.283
13595W        W77528   4.283  10.649   1.789
13596W        W77529   1.310   1.326   2.841
13597W        W77530  11.295   4.355   2.666
13598W        W77531  35.003  31.562   3.155
13599W        W77532   3.760  33.543  10.122
13600W        W77533  24.554  23.719   3.794
13601W        W77534  13.764  37.953   0.846
13602W        W77535   1.868  37.016   2.211
13603W        W77536  30.125  13.770   2.763
13604W        W77537  10.873  21.228  10.438
13605W        W77538  23.129  40.982   0.459
13606W        W77539  23.649  31.537   4.285
13607W        W77540  28.970  38.546   4.153
13608W        W77541  20.180   3.338  10.422
13609W        W77542  12.205  18.180   0.437
13610W        W77543   8.283  11.657   4.181
13611W        W77544   6.901   7.865  12.372
13612W        W77545   7.187  12.672   2.263
13613W        W77546  10.695  39.388   1.440
13614W        W77547  40.040  22.206   1.295
13615W        W77548  33.550  12.344   2.767
13616W        W77549  26.156  27.468  11.511
13617W        W77550   7.842   9.655  10.621
13618W        W77551  18.617   7.283   4.348
13619W        W77552   5.383  18.272  13.812
13620W        W77553  16.684  24.989   3.315
13621W        W77554  44.306  26.046  14.379
13622W        W77555  15.764  41.815   3.819
13623W        W77556  44.382  44.785  11.608
13624W        W77557  10.827   2.232   2.785
13625W        W77558   7.268  37.408  10.947
13626W        W77559   5.760  13.708   2.818
13627W        W77560  22.078  33.980   2.292
13628W        W77561  28.008  22.539  13.361
13629W        W77562  16.259  44.853   2.361
13630W        W77563   2.399  10.782  10.644
13631W        W77564  36.970  19.244   0.891
13632W        W77565  28.636  20.119   0.351
13633W        W77566  18.592   7.195  14.367
13634W        W77567  10.858  35.505  12.452
13635W        W77568  25.553  42.967   3.808
13636W        W77569  33.090   7.202   1.345
13637W        W77570  27.622  41.937  11.991
13638W        W77571  35.092   0.972  13.031
13639W        W77572   2.827  43.327  14.973
13640W        W77573  17.140  34.995   4.760
13641W        W77574  25.199  38.005   1.927
13642W        W77575  25.505   2.945  14.353
13643W        W77576  35.383  19.072  14.955
13644W        W77577  14.204  20.592   4.236
13645W        W77578  22.539  30.093   0.876
13646W        W77579  41.361  14.118   3.323
13647W        W77580  13.144  34.499  10.609
13648W        W77581  40.898   0.486  10.428
13649W        W77582  28.436  18.115  13.448
13650W        W77583  33.084   5.844  14.014
13651W        W77584  43.301  19.189  11.127
13652W        W77585  32.569  43.792  10.636
13653W        W77586  21.520  29.660  14.398
13654W        W77587   0.272   3.221  12.416
13655W        W77588  19.636  39.513   2.683
13656W        W77589  41.351  11.853   4.708
13657W        W77590  44.398  11.848   0.888
13658W        W77591  35.497   4.737   0.354
13659W        W77592  24.544  31.141  13.528
13660W        W77593  44.791  40.508  12.392
13661W        W77594  31.516   0.433  11.990
13662W        W77595   6.770  13.244  14.892
13663W        W77596   6.225  37.447  10.429
13664W        W77597  17.782   8.874  14.958
13665W        W77598  15.668  30.148  10.924
13666W        W77599  24.585  18.234   2.343
13667W        W77600  23.700  14.208  12.439
13668W        W77601  10.757  17.637  10.890
13669W        W77602  43.917  31.586  13.998
13670W        W77603  16.613  43.982   0.801
13671W        W77604  35.436  40.054   3.865
13672W        W77605   5.415   1.926  14.493
13673W        W77606  26.041  22.504   1.858
13674W        W77607  36.959  42.475   0.346
13675W        W77608  11.222  29.118   2.232
13676W        W77609  25.549  29.121  11.979
13677W        W77610  19.583  37.529  11.079
13678W        W77611  39.347  15.314   3.667
13679W        W77612   3.367   0.879   0.283
13680W        W77613  35.564  26.531  12.562
13681W        W77614   9.306  25.098  14.461
13682W        W77615  15.786  12.770   1.713
13683W        W77616  43.387   3.780  14.510
13684W        W77617   9.866  38.343   1.781
13685W        W77618  12.631  15.599  14.795
13686W        W77619  32.031   3.368   3.346
13687W        W77620  20.061  23.693   1.817
13688W        W77621  18.056  31.085   1.430
13689W        W77622  42.829  39.487   4.343
13690W        W77623  27.594  32.891  10.906
13691W        W77624  27.050  15.580   3.861
13692W        W77625  16.192  43.872   3.671
13693W        W77626   7.173   5.912  11.118
13694W        W77627  15.694  16.171   3.176
13695W        W77628  20.064  20.189   3.796
13696W        W77629  36.360  34.368   3.782
13697W        W77630   4.897  18.676  13.364
13698W        W77631  28.596  24.031   2.713
13699W        W77632   4.816  34.561  13.803
13700W        W77633  13.730  37.547  12.573
13701W        W77634  24.128  30.639  11.085
13702W        W77635  13.786  21.721  13.945
13703W        W77636  14.171   3.803  13.350
13704W        W77637  23.569   3.228   2.754
13705W        W77638  32.968  44.863   4.800
13706W        W77639   6.812   6.280  14.396
13707W        W77640  21.156  23.677   3.371
13708W        W77641  20.105  25.518   2.743
13709W        W77642   7.851  23.716  12.452
13710W        W77643  13.279   4.274   1.323
13711W        W77644   4.739  21.061  12.539
13712W        W77645  43.414  31.608  12.572
13713W        W77646  40.945   1.870  11.402
13714W        W77647  20.123  40.305   2.349
13715W        W77648  33.623  15.752  11.425
13716W        W77649   9.788  41.828   4.298
13717W        W77650  29.427  16.118   3.766
13718W        W77651  27.987   6.187  10.136
13719W        W77652  30.151   3.409  12.853
13720W        W77653   2.813  43.404  14.305
13721W        W77654   3.303   5.700   0.253
13722W        W77655  10.818  31.103   3.319
13723W        W77656  33.556  28.466   4.653
13724W        W77657   5.782  16.622  14.002
13725W        W77658   7.899  16.638   3.247
13726W        W77659  21.243   0.769   2.890
13727W        W77660   8.404  18.644   0.815
13728W        W77661  40.803  34.016  12.996
13729W        W77662  25.040  37.498  11.058
13730W        W77663  42.495  43.464   3.313
13731W        W77664  36.428  20.596  14.416
13732W        W77665   5.335  12.790  12.970
13733W        W77666  28.466  30.100   2.380
13734W        W77667  24.489  12.672  12.399
13735W        W77668  12.641  11.133  13.384
13736W        W77669  30.121  43.977   0.397
13737W        W77670  15.707  40.343  14.782
13738W        W77671  20.544  20.753   3.755
13739W        W77672  42.944  38.994   0.772
13740W        W77673   8.377  37.346   3.757
13741W        W77674  11.222  42.894   1.892
13742W        W77675  21.227  21.198  12.092
13743W        W77676  41.979   0.985   4.122
13744W        W77677   0.251  33.953  13.399
13745W        W77678  11.633  26.556   3.855
13746W        W77679  29.545   9.331   1.262
13747W        W77680  39.340  35.087  14.824
13748W        W77681   8.838  38.431  10.116
13749W        W77682  36.093  35.441   1.375
13750W        W77683  35.050  12.814   4.259
13751W        W77684  17.156  37.005  10.044
13752W        W77685  13.798  39.491   2.885
13753W        W77686  16.772  27.186   5.598
13754W        W77687  25.528  28.958   0.848
13755W        W77688  40.959   8.842  11.864
13756W        W77689  34.600  11.774  14.834
13757W        W77690  31.947   5.871  10.514
13758W        W77691  25.640  42.952   1.273
13759W        W77692  33.445  40.012   2.690
13760W        W77693  12.178  10.765   4.293
13761W        W77694  17.749  16.690   3.351
13762W        W77695   3.299  18.718   2.693
13763W        W77696  38.483  41.385  12.080
13764W        W77697  15.206  11.833   0.357
13765W        W77698  21.730   3.882  10.941
13766W        W77699  20.692  29.946  10.436
13767W        W77700   6.912  28.514  13.325
13768W        W77701  40.023  24.160  14.308
13769W        W77702  24.145  19.278   2.235
13770W        W77703  40.514  23.047   3.852
13771W        W77704  36.860  26.618   3.246
13772W        W77705  40.358  41.348   2.825
13773W        W77706   3.820  10.780  12.859
13774W        W77707  13.837   5.335  13.396
13775W        W77708   3.845  15.687   3.172
13776W        W77709  19.669  32.958   3.860
13777W        W77710  41.849  26.046   3.818
13778W        W77711   2.418   4.751  12.965
13779W        W77712  17.191  42.455   2.281
13780W        W77713  24.504  27.508   2.813
13781W        W77714  38.887   7.310   0.825
13782W        W77715  37.864  40.886  14.855
13783W        W77716  25.478   4.327  10.599
13784W        W77717  26.565  42.294   9.631
13785W        W77718  42.320  33.447  11.555
13786W        W77719  35.415  15.605  10.464
13787W        W77720  34.922  32.068   2.759
13788W        W77721  33.069  12.684  10.907
13789W        W77722  26.521  20.717  14.848
13790W        W77723  12.642   6.712  14.846
13791W        W77724  26.088  36.071   3.384
13792W        W77725  16.747  37.548   3.310
13793W        W77726  14.822  17.558  11.025
13794W        W77727  42.426  26.703  11.941
13795W        W77728  33.434  26.136  14.891
13796W        W77729  36.970  31.108   3.641
13797W        W77730  15.679  33.963  13.000
13798W        W77731   0.827   0.401  11.054
13799W        W77732   1.779  12.700  13.993
13800W        W77733  11.658  27.049  14.800
13801W        W77734  37.476  41.522  10.897
13802W        W77735   8.160  25.017  13.361
13803W        W77736  41.410  42.479  12.340
13804W        W77737  39.001   7.788   3.870
13805W        W77738  10.268  39.502   1.263
13806W        W77739  22.601   6.802  13.385
13807W        W77740  18.759  12.139  11.948
13808W        W77741  28.170   8.286   1.289
13809W        W77742  44.826  35.517  10.568
13810W        W77743  36.910  14.235   0.766
13811W        W77744  17.269   6.722  13.852
13812W        W77745  23.115  31.023   3.790
13813W        W77746   3.421  16.587  14.001
13814W        W77747   0.358  23.585   3.182
13815W        W77748  27.139  37.351   4.719
13816W        W77749   7.765  27.453   1.836
13817W        W77750  22.631   7.813   2.880
13818W        W77751  32.935   8.703   4.626
13819W        W77752   7.312  25.962  10.993
13820W        W77753  32.918  26.194  11.952
13821W        W77754  16.689  43.469  13.059
13822W        W77755  15.284  16.116   4.602
13823W        W77756  39.357   9.232  11.121
13824W        W77757  32.547  43.825   4.135
13825W        W77758  38.073  16.201  13.009
13826W        W77759  31.434  41.528  14.509
13827W        W77760  20.631   8.768   2.688
13828W        W77761  36.499  35.427  12.072
13829W        W77762   5.286  37.535  11.424
13830W        W77763  42.781  18.084   3.634
13831W        W77764   2.451  22.626  10.047
13832W        W77765  24.479   6.905  14.767
13833W        W77766  28.978   7.893  12.905
13834W        W77767  24.027  24.501   4.660
13835W        W77768  14.825  25.503   1.409
13836W        W77769  34.497   4.411   3.779
13837W        W77770   8.250  25.966   3.361
13838W        W77771   4.748  29.471   4.125
13839W        W77772  40.370  16.312  11.564
13840W        W77773  40.466  10.353  11.536
13841W        W77774  38.868   4.358  13.446
13842W        W77775  19.049  24.607  10.081
13843W        W77776   2.242   9.765  11.000
13844W        W77777  34.005  26.557   1.781
13845W        W77778  22.511  40.038   3.805
13846W        W77779  37.536  16.244   1.288
13847W        W77780  42.460   5.767   4.139
13848W        W77781  21.100  25.597   2.287
13849W        W77782  39.034  38.373   1.226
13850W        W77783  26.098  43.814  13.507
13851W        W77784  34.041   3.950   2.271
13852W        W77785  42.439  30.638  10.521
13853W        W77786  32.137  31.470   1.877
13854W        W77787  12.135  39.850  12.917
13855W        W77788  34.011   1.892   1.356
13856W        W77789  38.046  30.983  11.028
13857W        W77790  34.370  23.700  13.418
13858W        W77791  39.360  28.075   0.752
13859W        W77792  29.535   3.774   2.752
13860W        W77793  27.988   4.747  14.303
13861W        W77794  38.430  21.751  10.417
13862W        W77795  44.887  35.040   2.369
13863W        W77796  25.530   8.894  14.891
13864W        W77797  40.349   5.387   4.721
13865W        W77798  18.759  26.500   0.308
13866W        W77799   7.885  39.389   4.229
13867W        W77800   0.314  35.603   3.163
13868W        W77801  20.183  13.733  10.592
13869W        W77802   8.681  12.253   4.750
13870W        W77803   8.342   9.192   4.187
13871W        W77804   9.717  44.785   3.154
13872W        W77805  28.528  34.432  14.907
13873W        W77806   2.840  24.517   4.806
13874W        W77807   4.234  40.969   4.161
13875W        W77808   8.736  41.375   3.665
13876W        W77809   5.397  41.817   2.416
13877W        W77810  39.401   0.786  13.985
13878W        W77811  27.170  12.295  11.020
13879W        W77812  38.376  10.270  14.486
13880W        W77813  37.889  30.522   3.207
13881W        W77814  31.505  15.187  11.021
13882W        W77815   6.304  37.551   0.938
13883W        W77816  16.124   3.886  14.512
13884W        W77817   5.753  19.095   0.901
13885W        W77818   5.737  29.470   3.188
13886W        W77819  24.126  32.545  12.997
13887W        W77820  11.838  10.287   5.163
13888W        W77821  19.652  21.232  10.532
13889W        W77822  10.224  30.438  11.524
13890W        W77823   1.962  19.571  10.506
13891W        W77824  19.744  33.054   0.742
13892W        W77825  33.941  44.329   3.817
13893W        W77826  18.574  33.131  12.428
13894W        W77827  26.206  25.140  14.785
13895W        W77828  10.205  42.312  13.875
13896W        W77829  30.554  11.304  14.423
13897W        W77830  31.460  15.702   2.294
13898W        W77831   9.758  41.867  13.434
13899W        W77832  28.981  38.051   4.283
13900W        W77833  23.676  12.637  11.503
13901W        W77834  30.071  42.456  14.850
13902W        W77835  37.039  12.142  14.862
13903W        W77836  11.843  41.851   2.807
13904W        W77837  41.333  44.475  13.911
13905W        W77838   4.943   0.403   2.396
13906W        W77839   9.252  31.578  14.765
13907W        W77840  33.125  25.653  12.399
13908W        W77841   3.939  26.528   2.222
13909W        W77842   7.374  35.032   4.150
13910W        W77843   4.252  24.010  14.761
13911W        W77844   7.256  18.702  10.918
13912W        W77845  19.638  17.274  12.342
13913W        W77846  24.026  20.701   1.801
13914W        W77847   6.791  24.560   1.417
13915W        W77848  44.917  31.101   4.721
13916W        W77849  44.993  14.615   3.349
13917W        W77850   4.928  38.885   3.753
13918W        W77851  29.655  10.145   3.187
13919W        W77852  22.249  44.865  14.904
13920W        W77853  34.962  34.039   4.323
13921W        W77854  21.699  17.650  13.923
13922W        W77855  28.626  33.016   1.316
13923W        W77856   7.415  29.541   4.814
13924W        W77857   4.826   8.354  14.768
13925W        W77858  43.353  21.025  11.951
13926W        W77859   2.905  43.280  11.971
13927W        W77860   4.295   5.781   0.303
13928W        W77861   3.216   1.407   2.891
13929W        W77862   6.920  41.377  14.434
13930W        W77863  18.577  14.667  14.787
13931W        W77864  38.383  37.495  11.420
13932W        W77865  40.414  26.122   1.893
13933W        W77866   4.343   0.958  14.016
13934W        W77867  41.443  13.229   1.928
13935W        W77868  16.311   7.336   2.181
13936W        W77869   5.805   6.327   4.614
13937W        W77870  29.165  39.368   3.775
13938W        W77871  28.521  34.031   0.731
13939W        W77872  28.954  22.249   0.374
13940W        W77873  30.489  22.646   0.362
13941W        W77874  13.623  14.739   1.438
13942W        W77875  16.244  24.667   2.322
13943W        W77876   2.952  14.278  11.016
13944W        W77877  16.735  39.356  14.976
13945W        W77878  31.153  24.219  11.994
13946W        W77879  40.900  23.188  10.952
13947W        W77880   3.837  30.020   4.716
13948W        W77881   1.936  39.344   1.725
13949W        W77882   5.879  39.517  11.469
13950W        W77883  36.060  24.136   3.755
13951W        W77884  33.424   2.904   1.247
13952W        W77885  22.616   9.646  10.051
13953W        W77886   3.430  31.973  10.015
13954W        W77887  14.669  22.235   2.757
13955W        W77888   8.216  38.872   2.401
13956W        W77889   2.364  13.137   5.171
13957W        W77890  14.300   2.298   1.350
13958W        W77891   1.976  15.111   0.255
13959W        W77892  31.479   0.965   3.342
13960W        W77893  25.609  31.024  11.890
13961W        W77894   9.764  43.862  14.315
13962W        W77895  32.013  41.316   0.349
13963W        W77896   9.355  34.406  11.089
13964W        W77897  18.569   6.704  11.436
13965W        W77898  13.235  34.978  10.604
13966W        W77899  30.481  31.003   0.441
13967W        W77900  13.805  31.023   4.693
13968W        W77901  14.779  15.817   2.237
13969W        W77902  39.892  33.075  13.032
13970W        W77903  17.666  23.144  14.947
13971W        W77904  21.036  35.378  14.284
13972W        W77905  37.081  40.531  12.879
13973W        W77906  21.556  34.917  11.898
13974W        W77907  11.291  27.556  14.889
13975W        W77908  17.631  25.577   4.792
13976W        W77909  25.089  35.076  13.520
13977W        W77910  18.269   7.708   1.343
13978W        W77911   1.856  23.505   3.822
13979W        W77912  39.062  16.591  13.465
13980W        W77913  12.341   5.932   5.568
13981W        W77914  40.340  17.637   0.810
13982W        W77915  16.753  19.689  11.980
13983W        W77916  13.155  17.618   1.851
13984W        W77917  31.960  19.197   3.303
13985W        W77918  17.107  20.186   3.818
13986W        W77919  21.522  22.191   2.879
13987W        W77920  25.154  15.327   3.304
13988W        W77921  10.799  23.524  11.379
13989W        W77922  21.146  27.528  14.300
13990W        W77923   7.409  29.518  11.405
13991W        W77924   6.731  34.605  14.881
13992W        W77925  40.868  32.953   3.680
13993W        W77926  39.544   8.756   1.709
13994W        W77927  33.499  40.545   2.290
13995W        W77928  20.036  38.034  10.511
13996W        W77929  32.623  28.053  13.949
13997W        W77930  37.558  38.522  14.480
13998W        W77931   0.864  19.110  14.810
13999W        W77932   1.811  37.353  10.523
14000W        W77933   6.197  28.091   0.296
14001W        W77934  10.365   2.372   1.824
14002W        W77935  30.909   7.823   2.216
14003W        W77936   9.280  26.021  13.004
14004W        W77937   6.277  31.929  13.795
14005W        W77938  12.728   4.900   5.792
14006W        W77939  25.999   9.881  13.412
14007W        W77940  10.176   5.286   2.414
14008W        W77941  28.637  44.350  12.363
14009W        W77942  33.125  11.149  13.476
14010W        W77943  40.539  13.661  13.012
14011W        W77944  21.154  26.964  13.868
14012W        W77945   7.251  23.114  11.539
14013W        W77946  17.784   3.362  11.084
14014W        W77947  41.843  12.791  13.350
14015W        W77948  28.463  35.541  10.509
14016W        W77949  43.836  13.264  13.496
14017W        W77950  25.602  41.933  12.488
14018W        W77951   6.911  42.775   1.833
14019W        W77952  18.624   5.239   4.311
14020W        W77953   8.826  14.244   2.417
14021W        W77954  25.965  18.647   4.265
14022W        W77955  39.031   5.727  10.615
14023W        W77956  17.271  13.741  13.535
14024W        W77957  38.503  42.810  13.317
14025W        W77958  19.122   8.266  13.837
14026W        W77959   3.388  37.969  12.898
14027W        W77960  25.185  38.840   3.696
14028W        W77961  43.349  33.931   2.222
14029W        W77962   9.673  25.115  12.845
14030W        W77963  44.321  38.513   1.260
14031W        W77964  20.642  10.255  12.907
14032W        W77965  18.683  12.242   2.738
14033W        W77966  25.211  24.488   1.872
14034W        W77967  40.840  44.897  12.937
14035W        W77968  37.560  11.134   4.149
14036W        W77969   4.833  32.975   4.626
14037W        W77970  27.063  36.963  13.827
14038W        W77971  40.043  35.363  10.586
14039W        W77972  34.863  24.188   9.951
14040W        W77973  11.209  26.702   4.220
14041W        W77974  18.280  33.490  14.300
14042W        W77975  43.511  31.551   4.819
14043W        W77976  20.264  14.126   1.242
14044W        W77977  19.619  15.294   0.433
14045W        W77978  30.075  38.933   4.143
14046W        W77979  24.134  28.961   0.449
14047W        W77980   9.831  32.037  11.567
14048W        W77981  32.969  38.922   3.224
14049W        W77982  37.856  40.864  12.487
14050W        W77983   8.898  38.946  11.120
14051W        W77984  31.962  32.972  11.374
14052W        W77985  22.590  26.128  10.508
14053W        W77986  12.634  26.182   4.781
14054W        W77987  36.459  25.185   2.271
14055W        W77988   2.823  21.648  10.894
14056W        W77989   2.389   3.845  11.384
14057W        W77990  13.284  15.761   4.692
14058W        W77991  44.816  29.140  10.554
14059W        W77992  43.307  40.516   9.949
14060W        W77993  12.337  26.701  10.483
14061W        W77994  14.685  40.544   4.626
14062W        W77995  11.668  36.363   0.443
14063W        W77996  14.767  41.011  13.437
14064W        W77997   1.771  21.249  13.885
14065W        W77998  44.383  10.767  14.885
14066W        W77999   5.333  30.599  14.799
14067W        W78000  30.020  10.155   4.801
14068W        W78001  42.387  12.720  11.372
14069W        W78002  36.098  34.120   3.288
14070W        W78003  39.961   2.415  12.983
14071W        W78004  26.517   8.175  13.971
14072W        W78005  41.376   0.901   3.769
14073W        W78006  29.043   0.807   1.449
14074W        W78007  40.041   6.708   2.682
14075W        W78008   1.310  20.107   3.701
14076W        W78009  15.101  37.906  12.988
14077W        W78010  20.756   5.352  14.845
14078W        W78011  20.132  42.820   0.844
14079W        W78012  30.539  11.367  11.955
14080W        W78013  31.931   6.369   4.645
14081W        W78014  28.170  20.111   0.806
14082W        W78015   9.684  21.612  13.939
14083W        W78016  30.608  40.837   4.263
14084W        W78017  39.364  13.669  13.900
14085W        W78018  21.674  21.576  14.366
14086W        W78019  19.698  20.132   3.149
14087W        W78020  17.218  14.592  11.901
14088W        W78021   8.862  14.197  13.490
14089W        W78022  39.031  33.509  12.421
14090W        W78023  40.898  41.987   2.767
14091W        W78024  18.707  41.796  11.910
14092W        W78025  17.580   5.856   1.899
14093W        W78026   2.435  37.354   3.289
14094W        W78027  28.600  12.308  14.851
14095W        W78028  32.089  20.539   2.309
14096W        W78029  33.054  11.751  13.343
14097W        W78030  36.037  30.005  12.974
14098W        W78031  32.034   4.879   3.716
14099W        W78032  33.466  37.450   0.424
14100W        W78033  27.009  44.984  13.367
14101W        W78034   8.882   9.748   3.657
14102W        W78035  43.931  41.791   0.281
14103W        W78036  43.484   8.727   4.129
14104W        W78037  22.022   7.765  10.489
14105W        W78038  34.481  42.354   0.892
14106W        W78039  39.967  38.856  12.487
14107W        W78040  21.120  37.070   1.274
14108W        W78041  13.307   0.272  11.043
14109W        W78042  14.101  32.031   4.167
14110W        W78043  35.949   0.846  11.475
14111W        W78044  21.517  25.671   0.391
14112W        W78045  38.017  10.749  14.508
14113W        W78046   4.432  37.443   1.765
14114W        W78047  32.587   1.261   0.855
14115W        W78048  13.285  15.695  12.553
14116W        W78049  12.741   0.771   3.207
14117W        W78050  32.003  19.142  14.989
14118W        W78051   7.750  10.299  12.341
14119W        W78052   5.687  27.159  10.953
14120W        W78053  25.519  26.615  11.857
14121W        W78054  12.196  35.564   3.735
14122W        W78055  12.348  12.338  14.306
14123W        W78056  24.168  18.715   4.602
14124W        W78057  42.959  27.579  12.068
14125W        W78058   0.399  37.010   3.683
14126W        W78059  39.459  41.038   2.703
14127W        W78060  36.426  19.754  14.796
14128W        W78061  15.163  19.623  12.349
14129W        W78062  17.101  18.269   3.247
14130W        W78063   8.389  25.702   2.885
14131W        W78064  10.777  37.984  11.394
14132W        W78065  37.930  25.531  14.940
14133W        W78066  33.121  14.106  13.407
14134W        W78067  36.896  23.521   4.826
14135W        W78068  19.691  35.594   1.777
14136W        W78069  22.633  18.620  10.481
14137W        W78070  36.000  14.622  13.312
14138W        W78071  35.887  19.102  12.487
14139W        W78072   9.677  34.577  12.453
14140W        W78073  12.144  43.891  12.952
14141W        W78074   6.753  21.107  14.400
14142W        W78075  43.875  12.166   0.309
14143W        W78076  23.216  44.365  14.858
14144W        W78077  41.389  27.502   1.745
14145W        W78078  15.791   3.326   3.780
14146W        W78079  21.702  33.517   3.198
14147W        W78080  21.140  24.156  11.084
14148W        W78081  42.447  33.952  11.926
14149W        W78082  35.000   5.796  10.915
14150W        W78083  14.304  43.369  11.008
14151W        W78084  27.153   0.376  10.528
14152W        W78085  34.086  36.852   1.335
14153W        W78086  43.315   9.741   4.788
14154W        W78087  25.699  31.549   0.909
14155W        W78088  14.269  11.256   4.672
14156W        W78089  35.486   8.312   0.850
14157W        W78090  21.189  36.096  14.901
14158W        W78091   3.416  37.889   3.342
14159W        W78092   9.866  25.649  12.429
14160W        W78093  40.376  44.807   4.834
14161W        W78094  18.782  25.047  11.490
14162W        W78095  37.025   3.254   0.840
14163W        W78096   7.232  17.224  13.366
14164W        W78097  23.183  23.515  11.992
14165W        W78098  33.094  17.657   0.332
14166W        W78099   8.391  21.674   3.294
14167W        W78100  36.532  43.019   3.205
14168W        W78101   6.682  27.964  13.793
14169W        W78102  13.814   4.705  11.945
14170W        W78103   3.446  18.161  12.574
14171W        W78104  30.073  28.597  14.460
14172W        W78105  39.320  17.288   1.261
14173W        W78106   1.289   2.286  13.879
14174W        W78107  37.361  34.072  11.111
14175W        W78108  31.545  25.181  14.015
14176W        W78109  19.614  21.241   2.319
14177W        W78110  16.650   9.381   0.349
14178W        W78111  19.727  19.533   3.362
14179W        W78112  32.928  23.645  10.456
14180W        W78113  39.887  11.275   0.900
14181W        W78114  27.189  25.633  12.352
14182W        W78115  35.508  17.671  13.929
14183W        W78116  36.457  23.565  10.577
14184W        W78117  37.537  40.484   1.703
14185W        W78118   3.867   1.938   1.324
14186W        W78119  30.462  39.552   2.868
14187W        W78120   6.421  31.036  14.401
14188W        W78121  15.658   6.885   3.705
14189W        W78122   3.215  44.979   3.178
14190W        W78123  35.890   0.954   1.305
14191W        W78124  33.942   0.274  13.401
14192W        W78125  13.761  18.212   4.598
14193W        W78126  26.069  19.152   2.671
14194W        W78127  42.376  44.788   2.412
14195W        W78128  21.618  29.511   2.292
14196W        W78129  35.429   1.930  10.463
14197W        W78130  27.016  44.886  14.365
14198W        W78131  18.556  11.809  13.406
14199W        W78132  29.005  22.580  14.397
14200W        W78133  32.990  44.951   0.844
14201W        W78134  42.857   8.217  14.500
14202W        W78135  19.069  41.983   4.769
14203W        W78136  19.138  33.897  13.040
14204W        W78137  38.364  23.054   0.455
14205W        W78138  44.354  14.665   1.874
14206W        W78139   0.356  31.965  10.501
14207W        W78140  33.125  12.248  11.452
14208W        W78141  34.568  34.586   0.405
14209W        W78142  10.297  12.259  12.495
14210W        W78143  24.589  25.174  11.915
14211W        W78144  26.112   2.822   1.341
14212W        W78145  26.001  23.066  12.858
14213W        W78146  40.956  26.520   4.626
14214W        W78147  19.709  30.433   2.721
14215W        W78148   9.720  33.117   2.811
14216W        W78149  16.805  42.926  13.449
14217W        W78150  26.977  24.040  10.470
14218W        W78151  38.032  22.652  14.497
14219W        W78152  26.501  11.371   4.810
14220W        W78153  14.211  35.085   5.311
14221W        W78154  23.648  22.528  13.366
14222W        W78155  35.912  44.811  11.891
14223W        W78156  12.356   6.285   0.364
14224W        W78157  28.099  13.163  14.437
14225W        W78158   7.745  44.280  11.374
14226W        W78159   6.904  17.643  14.841
14227W        W78160  23.598  27.612   3.774
14228W        W78161   3.902  32.928  13.509
14229W        W78162   1.335  26.177  11.909
14230W        W78163  44.272  34.572   1.442
14231W        W78164  24.620  36.977   4.339
14232W        W78165   1.397   1.423  11.434
14233W        W78166   4.316  41.822   0.457
14234W        W78167  12.281  29.930   4.835
14235W        W78168  29.972  33.403   2.318
14236W        W78169  21.548  36.030  14.298
14237W        W78170  14.725  11.720  12.392
14238W        W78171  16.202  38.556   4.182
14239W        W78172  30.569  44.328   3.853
14240W        W78173  18.271  33.613   0.926
14241W        W78174  26.967  13.813  10.413
14242W        W78175  38.068  35.037  10.614
14243W        W78176  27.604  33.590   1.829
14244W        W78177  29.046  21.718   4.332
14245W        W78178  10.167  41.532   0.284
14246W        W78179  28.494  42.867   2.264
14247W        W78180  34.017   9.218  13.862
14248W        W78181  41.995  35.546  14.413
14249W        W78182  40.944   7.844  12.052
14250W        W78183   9.687  27.576   0.872
14251W        W78184  11.855  28.133  11.948
14252W        W78185  40.045  42.939   4.774
14253W        W78186  21.552   8.309   1.745
14254W        W78187  22.246  15.305   3.826
14255W        W78188  21.049  16.627   3.717
14256W        W78189   8.203  21.643   0.735
14257W        W78190  33.896  40.461  12.471
14258W        W78191  12.196  40.038  13.865
14259W        W78192   0.954  25.059   9.959
14260W        W78193  19.697  14.256   0.371
14261W        W78194   6.336  11.287   3.333
14262W        W78195  39.463  29.434  12.454
14263W        W78196   5.355  34.896  13.031
14264W        W78197  36.356  19.729   4.251
14265W        W78198  43.835  44.396  10.558
14266W        W78199   6.239  23.677  11.125
14267W        W78200  42.789  28.027  13.392
14268W        W78201  33.033   7.305  13.925
14269W        W78202  15.323  14.244   4.726
14270W        W78203  11.158  20.522  11.480
14271W        W78204  27.606  12.348   1.755
14272W        W78205   2.936  25.671  11.049
14273W        W78206   0.916  42.866   1.797
14274W        W78207  29.583  44.381  12.380
14275W        W78208  20.038   0.258  10.471
14276W        W78209  37.353   8.718   0.355
14277W        W78210  21.115  20.199   2.781
14278W        W78211  19.680  42.366  12.447
14279W        W78212  21.644   4.756  12.943
14280W        W78213  25.594  36.567  11.869
14281W        W78214   9.877   8.203  10.940
14282W        W78215  31.005  30.065   2.894
14283W        W78216   4.812  35.971  12.477
14284W        W78217  40.362   0.976  14.350
14285W        W78218  26.972  43.812  11.382
14286W        W78219  37.400  23.723  10.462
14287W        W78220  42.004   9.369  14.353
14288W        W78221  34.441  35.856  13.959
14289W        W78222  41.837  40.868   2.410
14290W        W78223   2.922   3.942   0.334
14291W        W78224   9.263   8.686   4.336
14292W        W78225  25.177  24.153  12.948
14293W        W78226  20.239  43.313  11.391
14294W        W78227  29.033   1.882   1.411
14295W        W78228  34.999  20.229   4.227
14296W        W78229   7.822  42.305   1.857
14297W        W78230  33.996  18.293  13.325
14298W        W78231  36.558  10.841   0.796
14299W        W78232  22.998  33.498   0.855
14300W        W78233  36.526  14.175  12.476
14301W        W78234  37.513  13.277   4.604
14302W        W78235   4.244  11.257   5.150
14303W        W78236  39.051  26.540   2.847
14304W        W78237  12.712   6.692   1.858
14305W        W78238  20.243  26.103   0.377
14306W        W78239  32.449   2.357   1.796
14307W        W78240   9.797   0.477   4.693
14308W        W78241  23.103  21.520  13.414
14309W        W78242  26.643   5.715   4.704
14310W        W78243  26.062  26.647   4.759
14311W        W78244  42.835  36.028  14.968
14312W        W78245  31.964   4.430   0.445
14313W        W78246   1.746   5.787   4.133
14314W        W78247   0.385  42.434  13.451
14315W        W78248  23.629  37.906  13.896
14316W        W78249   8.183   8.861   0.322
14317W        W78250  10.693   5.314   3.363
14318W        W78251  38.984  26.658   2.221
14319W        W78252  34.403   9.706   3.858
14320W        W78253  28.638   5.299  10.462
14321W        W78254   5.829  15.685  13.046
14322W        W78255  10.182   8.701  10.424
14323W        W78256   8.808   2.405  10.994
14324W        W78257  22.191   9.651   0.882
14325W        W78258   6.223  13.676   3.689
14326W        W78259  10.246  27.970   2.309
14327W        W78260   8.312  39.476  12.046
14328W        W78261  24.022  34.448  10.515
14329W        W78262  27.193   0.447   1.925
14330W        W78263  11.812  39.517   1.372
14331W        W78264   8.175  16.161  14.819
14332W        W78265   5.212  38.002  11.946
14333W        W78266  30.471   5.343  12.029
14334W        W78267  41.827  17.786  11.488
14335W        W78268  35.912  14.136  13.847
14336W        W78269  26.050  24.106  13.013
14337W        W78270  35.383  35.077   2.668
14338W        W78271  25.510  15.591  14.334
14339W        W78272  44.498  40.942   4.170
14340W        W78273  15.642   8.190   9.460
14341W        W78274  15.106  18.178   5.766
14342W        W78275  19.702  21.612  12.571
14343W        W78276  11.328  44.352   2.261
14344W        W78277  40.400  42.852  14.326
14345W        W78278  11.230  21.607   1.253
14346W        W78279  15.268  21.600  11.125
14347W        W78280   0.846   0.978   4.769
14348W        W78281   4.222  20.573  12.007
14349W        W78282  12.798   9.261  14.431
14350W        W78283  39.371   7.669   0.450
14351W        W78284   4.346  38.372   1.363
14352W        W78285  17.562  20.767   3.838
14353W        W78286  11.688  17.618  13.463
14354W        W78287  31.491  35.940  10.997
14355W        W78288   4.396  11.180  14.849
14356W        W78289  12.739  18.237   2.262
14357W        W78290  34.993  38.073  14.410
14358W        W78291  42.520  22.617  10.613
14359W        W78292  42.301  18.711  14.803
14360W        W78293  32.019  31.513  14.312
14361W        W78294   2.353  34.079   4.350
14362W        W78295  34.889  14.164   3.206
14363W        W78296  12.825   4.311  12.485
14364W        W78297  11.744  16.300  14.511
14365W        W78298  26.511  36.381  14.773
14366W        W78299  42.837  39.347  14.019
14367W        W78300   0.365  44.366  12.866
14368W        W78301   9.156  16.674  13.384
14369W        W78302  16.085  22.055   2.796
14370W        W78303  27.480   7.705   1.211
14371W        W78304  29.523  14.163  10.474
14372W        W78305  15.778  41.899   3.236
14373W        W78306  19.144  20.175   1.406
14374W        W78307  13.209  29.590   2.716
14375W        W78308   1.927  21.035   3.279
14376W        W78309  29.472  19.181   1.272
14377W        W78310   0.340  15.304   3.701
14378W        W78311   4.309   2.822  10.561
14379W        W78312  13.626  35.983  10.563
14380W        W78313  39.937  20.258   3.272
14381W        W78314  25.214  25.666   1.893
14382W        W78315  14.734   3.717  14.801
14383W        W78316   5.415  19.047   0.440
14384W        W78317  30.121  10.159  14.767
14385W        W78318  39.524  10.358   4.649
14386W        W78319  37.348  24.681  11.129
14387W        W78320   0.367  35.445   2.709
14388W        W78321   0.478  35.476  14.958
14389W        W78322  34.922  31.912  12.975
14390W        W78323   2.346   3.266   0.964
14391W        W78324  12.318  30.984   0.302
14392W        W78325  21.625  27.959  10.458
14393W        W78326   5.283  39.421  10.530
14394W        W78327  37.469  26.951   2.396
14395W        W78328  14.268   0.960   0.949
14396W        W78329  37.544  42.793  11.086
14397W        W78330  41.834   5.321  12.014
14398W        W78331  24.578  14.597  13.894
14399W        W78332   5.855  20.577   1.308
14400W        W78333  34.024  12.653  13.974
14401W        W78334   2.381  12.796   1.695
14402W        W78335   6.421  24.505   2.699
14403W        W78336  36.360  27.461   2.854
14404W        W78337   6.254  29.467  14.353
14405W        W78338  17.581  10.873   4.796
14406W        W78339  32.956  31.470   3.357
14407W        W78340  25.598  18.700  12.465
14408W        W78341  18.050  11.243   1.827
14409W        W78342  28.065  24.197   4.337
14410W        W78343   2.831  16.114  11.076
14411W        W78344   0.441  43.334   2.671
14412W        W78345  41.999  32.939   3.867
14413W        W78346  18.568  21.065  12.364
14414W        W78347  10.816  30.163   1.414
14415W        W78348  19.599  27.673   1.706
14416W        W78349  17.145  43.443  10.989
14417W        W78350   1.865  23.651  12.071
14418W        W78351  28.475  28.062   2.328
14419W        W78352  27.110  43.909  13.377
14420W        W78353  35.976   7.868   3.378
14421W        W78354  20.069   5.439   1.210
14422W        W78355  35.104  37.875  13.405
14423W        W78356  35.390  16.287   3.776
14424W        W78357   4.848  20.670  11.120
14425W        W78358   5.833   5.394   3.695
14426W        W78359  31.564  24.506   4.678
14427W        W78360  26.958  11.144  14.897
14428W        W78361   6.791  14.287  14.982
14429W        W78362  38.878  40.966   5.296
14430W        W78363  27.604   1.923   3.715
14431W        W78364  10.744  25.523  11.415
14432W        W78365   0.400  40.928   1.213
14433W        W78366  20.688  20.649  13.379
14434W        W78367  28.478  14.757  12.517
14435W        W78368  14.768  44.829  10.432
14436W        W78369  43.277   4.841   1.885
14437W        W78370  13.616  10.279   2.665
14438W        W78371  21.754   9.872   3.730
14439W        W78372  40.497  29.006  13.953
14440W        W78373   5.698  44.490   3.285
14441W        W78374  29.586   5.430  12.510
14442W        W78375  10.142  21.517   0.309
14443W        W78376  18.716   3.824   2.315
14444W        W78377  26.028  31.066  11.570
14445W        W78378  16.737  16.256  13.360
14446W        W78379  29.545  28.613   2.730
14447W        W78380  38.982  16.124   4.816
14448W        W78381  31.466  32.910   3.648
14449W        W78382  14.754   0.313  14.842
14450W        W78383   4.423  13.150   0.758
14451W        W78384  23.547   7.283  14.358
14452W        W78385   1.964   6.713  10.553
14453W        W78386   6.373  40.850  11.452
14454W        W78387  17.061  43.001   3.159
14455W        W78388  30.045  37.375  13.860
14456W        W78389  31.580  37.076  14.374
14457W        W78390  16.647  21.753  11.114
14458W        W78391   6.428   2.465   2.406
14459W        W78392  14.194  16.646  10.900
14460W        W78393  30.052   1.341   1.809
14461W        W78394   8.353   8.254   3.299
14462W        W78395  35.534  33.603  11.879
14463W        W78396  36.468  12.187  13.514
14464W        W78397  33.900   8.826  11.934
14465W        W78398   5.387   8.201   3.714
14466W        W78399   1.819  30.996  14.775
14467W        W78400  19.579  23.504   4.641
14468W        W78401  22.206   3.716  14.421
14469W        W78402  34.600   9.864  12.453
14470W        W78403  20.687  42.828   3.371
14471W        W78404   8.824   4.401   9.556
14472W        W78405  38.946  17.672   4.304
14473W        W78406   1.732  17.135   1.858
14474W        W78407  30.004   4.790   2.883
14475W        W78408  36.519  35.870  14.298
14476W        W78409  14.114  20.251   1.413
14477W        W78410  17.143  30.491  11.399
14478W        W78411  36.904   9.325   2.213
14479W        W78412   6.835  43.298   2.362
14480W        W78413  42.978  10.155   5.089
14481W        W78414  29.106   8.690  12.074
14482W        W78415   1.331  13.610  12.985
14483W        W78416  38.362  36.453   4.267
14484W        W78417  41.830  33.388  10.469
14485W        W78418  12.763   1.296  12.840
14486W        W78419  14.706  35.408  10.587
14487W        W78420  31.033   3.371   3.328
14488W        W78421  44.826  44.355   4.641
14489W        W78422  39.970  43.962   4.135
14490W        W78423  25.028  17.746  13.389
14491W        W78424   9.190   5.230  12.367
14492W        W78425  37.375  13.674  14.812
14493W        W78426   1.477  31.134  11.532
14494W        W78427  39.818  12.169   3.309
14495W        W78428  17.764  40.965   1.309
14496W        W78429  32.435  16.679  13.919
14497W        W78430  39.063  10.663  11.605
14498W        W78431   8.757  17.577  14.421
14499W        W78432   8.348  23.008   4.653
14500W        W78433   9.784  23.084  11.054
14501W        W78434  34.555   0.275   0.726
14502W        W78435  35.398  44.343  12.855
14503W        W78436  34.402  34.544  12.882
14504W        W78437  34.486  27.005   0.799
14505W        W78438   8.657  32.462  10.995
14506W        W78439  39.435  12.252  10.545
14507W        W78440  33.481   8.850   1.421
14508W        W78441  24.701  40.884   2.713
14509W        W78442  43.388  28.122  13.376
14510W        W78443  36.493  17.620   0.782
14511W        W78444  30.600  26.004   3.225
14512W        W78445  17.233  41.507   3.715
14513W        W78446   3.820  25.162  10.519
14514W        W78447  33.885  22.208   0.450
14515W        W78448  26.587  42.315   0.341
14516W        W78449   4.881  18.223  11.545
14517W        W78450   8.848  17.298  11.398
14518W        W78451  36.490  17.197  13.472
14519W        W78452  11.268  32.118   1.389
14520W        W78453   3.339  10.383   3.853
14521W        W78454  27.999  29.994  13.862
14522W        W78455  20.175  36.572  13.503
14523W        W78456  22.178  13.179  11.462
14524W        W78457  40.932  18.760  12.999
14525W        W78458  12.700  41.318   0.328
14526W        W78459   2.912  31.107  11.115
14527W        W78460  17.101  11.249   0.357
14528W        W78461  32.913  39.001  11.581
14529W        W78462  16.170  36.895  12.504
14530W        W78463   4.241  24.224  11.101
14531W        W78464  21.048  28.591   1.814
14532W        W78465   8.680  24.030   9.971
14533W        W78466   8.802  11.863   4.722
14534W        W78467  40.844  19.589  12.018
14535W        W78468  22.053   1.406  11.597
14536W        W78469  13.682  24.506  11.476
14537W        W78470  31.024  29.442  11.453
14538W        W78471  39.021  18.118   5.225
14539W        W78472  29.082  35.413   3.287
14540W        W78473  28.151  27.680   4.716
14541W        W78474  10.279  38.900   5.097
14542W        W78475  14.320  29.960   3.346
14543W        W78476  38.867   4.242  14.875
14544W        W78477   0.828  40.346  10.972
14545W        W78478  40.843   4.435  13.328
14546W        W78479  12.160   9.649  11.900
14547W        W78480   6.728  14.112  11.975
14548W        W78481  16.260   2.314  14.965
14549W        W78482   1.478  39.060   4.780
14550W        W78483  29.620   4.364  13.311
14551W        W78484  38.435   2.741  14.478
14552W        W78485  13.724   2.282  13.947
14553W        W78486  16.773  32.557  12.844
14554W        W78487  12.761   1.391  13.456
14555W        W78488  25.495  33.912  11.543
14556W        W78489  41.488  33.522  12.945
14557W        W78490   1.871  35.457  12.425
14558W        W78491  13.317  35.510   1.815
14559W        W78492   8.298  22.696  13.063
14560W        W78493  38.912  25.062  11.448
14561W        W78494  10.367  28.936   1.741
14562W        W78495   6.286   8.376  14.279
14563W        W78496   8.237  30.560  13.502
14564W        W78497  15.165  19.106   4.610
14565W        W78498   9.647   6.428   2.187
14566W        W78499  31.982  13.259   0.309
14567W        W78500   3.812  39.953   4.740
14568W        W78501  10.695  14.100   2.775
14569W        W78502  21.164  10.743  13.434
14570W        W78503  29.492  41.295  11.072
14571W        W78504  32.466   2.911   1.799
14572W        W78505  25.528   0.472  11.534
14573W        W78506  42.871  18.683  10.444
14574W        W78507  29.145  19.708   2.404
14575W        W78508  12.777  14.292  10.519
14576W        W78509   5.318  33.554  11.546
14577W        W78510  43.383  20.117   3.859
14578W        W78511  21.698  39.840   3.383
14579W        W78512  28.608  42.942  10.077
14580W        W78513  28.146  10.738  14.311
14581W        W78514  36.415  42.486  12.924
14582W        W78515  27.960   1.835   2.816
14583W        W78516   5.427  25.162   1.819
14584W        W78517  33.415  17.635  11.536
14585W        W78518   3.438  27.106   4.726
14586W        W78519  12.853  14.741  11.506
14587W        W78520   4.820  44.492   0.301
14588W        W78521   1.349  32.071   0.909
14589W        W78522   1.299  30.515   2.699
14590W        W78523  23.535  36.088  13.018
14591W        W78524   9.320  33.464   0.964
14592W        W78525  15.099  12.191  14.489
14593W        W78526  19.130  15.693  12.530
14594W        W78527   5.373  33.968   2.833
14595W        W78528  15.636  40.533   1.695
14596W        W78529  11.253   7.283  14.949
14597W        W78530  35.981  43.339   3.683
14598W        W78531  37.055  23.097  14.491
14599W        W78532  10.234  19.158   2.830
14600W        W78533   1.343  22.729  12.914
14601W        W78534   8.779  25.518  10.616
14602W        W78535  29.023   3.719  10.496
14603W        W78536  32.933  13.135  13.961
14604W        W78537   5.717  32.571  14.438
14605W        W78538  11.200  30.989  11.377
14606W        W78539  14.825  16.190  12.507
14607W        W78540  14.741  15.742  13.468
14608W        W78541  29.006  15.157   1.850
14609W        W78542  10.808  12.238   2.321
14610W        W78543  44.495  31.043   2.302
14611W        W78544  14.711  35.865   5.109
14612W        W78545  15.162  13.755  11.883
14613W        W78546  12.798  31.453  12.540
14614W        W78547  17.103   1.416   4.134
14615W        W78548  36.967   7.348  11.938
14616W        W78549  38.858  23.703   2.854
14617W        W78550  34.511   8.246  14.003
14618W        W78551   7.237  13.312   2.730
14619W        W78552  35.895  23.667  13.402
14620W        W78553  33.017  26.462   1.889
14621W        W78554   1.463  31.115  13.915
14622W        W78555   2.851  30.017  12.064
14623W        W78556  16.174  34.402  12.505
14624W        W78557  35.031  19.709  13.840
14625W        W78558  28.642   1.417  14.001
14626W        W78559  11.357  40.303   4.258
14627W        W78560  13.731  41.472   0.269
14628W        W78561  28.135  36.508   4.708
14629W        W78562   7.376  26.457  11.877
14630W        W78563  39.423  17.588   1.907
14631W        W78564  26.603   6.752  10.616
14632W        W78565  26.086  21.661   1.763
14633W        W78566   9.647  44.299  11.862
14634W        W78567  37.344  32.935   0.862
14635W        W78568  25.701  24.484  13.392
14636W        W78569   5.903  26.549  12.446
14637W        W78570  29.042  41.788   3.750
14638W        W78571   4.748  34.459   0.747
14639W        W78572  37.879  44.004  12.445
14640W        W78573   2.773   6.788   1.836
14641W        W78574  42.521  14.174   1.828
14642W        W78575   2.290  42.781  12.069
14643W        W78576  38.363  36.450  10.929
14644W        W78577  20.617   1.811   0.730
14645W        W78578  29.047  30.080   4.623
14646W        W78579  37.503  42.429  10.442
14647W        W78580  20.148  27.610  13.462
14648W        W78581  14.237  42.450  11.435
14649W        W78582  14.175   4.332  14.815
14650W        W78583  40.418  28.050   3.293
14651W        W78584  27.461   5.383   3.171
14652W        W78585  41.840  15.789   0.849
14653W        W78586   6.830  10.321   2.328
14654W        W78587   9.359  14.301  14.936
14655W        W78588  15.320   0.306   0.476
14656W        W78589  38.912  28.015  12.514
14657W        W78590  14.755  24.678   0.396
14658W        W78591  44.990  23.190  13.914
14659W        W78592  27.069   5.807  10.936
14660W        W78593  27.057   5.408   4.694
14661W        W78594  21.645  26.530   5.231
14662W        W78595  35.892  26.465   0.475
14663W        W78596  37.573  10.735  11.609
14664W        W78597  17.263  25.180   1.211
14665W        W78598  25.713  24.137   3.631
14666W        W78599  28.644  18.158   2.684
14667W        W78600  11.752  38.961  12.440
14668W        W78601  40.540   2.319   4.724
14669W        W78602  37.390  23.226   1.839
14670W        W78603  44.311  12.197   4.133
14671W        W78604  24.109  28.519   1.863
14672W        W78605  20.525  10.229   1.363
14673W        W78606  16.740   4.271  13.897
14674W        W78607  39.011   5.376   2.825
14675W        W78608   6.891  29.640  14.355
14676W        W78609  18.201  33.580   3.762
14677W        W78610  44.343  14.753   3.871
14678W        W78611  10.349  35.878   2.366
14679W        W78612  32.533  23.985   1.904
14680W        W78613  38.910  18.565   4.345
14681W        W78614   3.937  43.455  14.772
14682W        W78615  13.818  43.297  10.437
14683W        W78616  18.226   4.232  12.097
14684W        W78617  33.514  21.575   0.916
14685W        W78618  39.051   0.431  10.976
14686W        W78619  17.600  19.049  14.927
14687W        W78620   6.831  21.119   2.724
14688W        W78621  42.838   5.319  14.371
14689W        W78622   0.878  29.007   2.399
14690W        W78623  18.666   7.800  12.427
14691W        W78624  21.062  15.730   1.256
14692W        W78625  42.885  41.322   0.405
14693W        W78626  12.738  30.534   3.823
14694W        W78627  23.061   6.822  10.925
14695W        W78628   9.647  38.379  11.876
14696W        W78629  35.896  27.091  14.478
14697W        W78630  11.218   1.466   0.251
14698W        W78631  35.061  15.666  11.087
14699W        W78632  44.314   9.186  14.979
14700W        W78633  37.456  16.090   0.289
14701W        W78634  34.057   4.832  13.901
14702W        W78635  40.052   0.470   1.260
14703W        W78636  18.745  33.407   3.638
14704W        W78637  27.485  11.762  14.993
14705W        W78638   4.413  18.050   3.810
14706W        W78639  44.832  29.515   4.264
14707W        W78640  39.053  19.580  14.938
14708W        W78641  35.973  37.389  13.933
14709W        W78642  25.496   2.785   3.286
14710W        W78643   2.444  20.577   4.211
14711W        W78644  16.152  12.204  12.976
14712W        W78645   3.404  26.158  14.444
14713W        W78646  15.118   8.841   3.670
14714W        W78647  34.374  12.126   3.770
14715W        W78648  41.399  40.055  13.015
14716W        W78649  27.478  13.831   2.381
14717W        W78650  21.704  11.178  10.906
14718W        W78651  41.396   3.772  13.826
14719W        W78652   4.421  38.571   1.760
14720W        W78653  31.407  15.194   1.338
14721W        W78654  40.009  25.115   0.836
14722W        W78655  31.616  41.934   0.371
14723W        W78656  21.175   3.840   2.270
14724W        W78657  26.685  28.017  14.428
14725W        W78658   9.218  33.126  13.410
14726W        W78659  30.928  31.958  13.403
14727W        W78660  11.222  42.824  12.849
14728W        W78661  12.646  26.640   4.135
14729W        W78662  15.811  11.165   3.859
14730W        W78663   5.350   2.824   4.116
14731W        W78664  14.186  32.067  11.518
14732W        W78665  28.439  37.900  10.984
14733W        W78666   9.199   3.355  12.996
14734W        W78667   0.888  27.155   1.447
14735W        W78668  22.669  22.607   2.747
14736W        W78669  10.226  34.078  11.002
14737W        W78670  38.914  22.720   1.757
14738W        W78671  12.269  28.955   2.721
14739W        W78672  43.002   8.744   3.830
14740W        W78673   3.222   8.763   9.959
14741W        W78674  22.241  40.889  14.933
14742W        W78675   3.945  13.606   1.803
14743W        W78676   8.377  34.513   1.435
14744W        W78677   7.910  36.584   4.777
14745W        W78678  30.973   9.363  14.768
14746W        W78679  34.596  25.021   4.334
14747W        W78680   4.261  11.237   3.721
14748W        W78681  14.789   3.341  13.840
14749W        W78682   9.200  28.021   9.999
14750W        W78683  10.729  35.938  11.463
14751W        W78684  43.389  39.488   4.321
14752W        W78685  16.648  44.776  12.009
14753W        W78686  31.548   7.237  11.546
14754W        W78687   3.825  15.729  12.004
14755W        W78688  34.534  13.194   1.921
14756W        W78689  12.125   0.444   0.755
14757W        W78690  18.125   1.946   4.315
14758W        W78691  12.143   1.482   1.863
14759W        W78692  39.367  23.038   0.878
14760W        W78693  28.547  21.613   3.155
14761W        W78694  38.962   8.686   0.843
14762W        W78695  10.308  23.145  11.975
14763W        W78696  24.491   9.831  14.942
14764W        W78697   0.487  40.332   4.643
14765W        W78698   0.330  25.586  11.004
14766W        W78699   1.844  19.104  14.378
14767W        W78700  21.566  24.140   4.803
14768W        W78701  10.265  38.837  11.379
14769W        W78702  31.095   8.659   1.237
14770W        W78703  11.746  30.966   3.247
14771W        W78704  41.918  44.488  11.021
14772W        W78705   7.850   5.419  12.824
14773W        W78706  24.582   5.256   2.841
14774W        W78707  41.828   5.716   4.241
14775W        W78708   1.476  40.401  11.466
14776W        W78709  31.961  27.496  14.815
14777W        W78710   5.360  12.277  13.436
14778W        W78711  19.701  44.793   2.831
14779W        W78712  16.288  31.514  12.373
14780W        W78713   3.861  16.669   2.885
14781W        W78714   5.214  20.241  11.976
14782W        W78715  40.934  43.961   1.843
14783W        W78716  36.024  44.837  11.009
14784W        W78717   8.373  13.689   3.729
14785W        W78718  13.769  40.954  12.429
14786W        W78719  39.817  38.350   5.680
14787W        W78720  26.679   2.344   3.262
14788W        W78721  22.670  32.894   1.406
14789W        W78722  31.099  20.530   4.135
14790W        W78723  43.327  43.343   1.421
14791W        W78724  24.658  27.102  13.317
14792W        W78725  12.798   1.458   0.458
14793W        W78726  28.648  17.611   2.855
14794W        W78727  14.188  22.135  11.956
14795W        W78728  41.820   2.924   4.290
14796W        W78729  27.052   5.719   2.217
14797W        W78730  34.587   2.377   2.262
14798W        W78731  31.425   3.257   4.325
14799W        W78732   3.274   8.837   4.323
14800W        W78733  42.822   7.845   1.413
14801W        W78734  33.984  15.107  13.329
14802W        W78735   3.753  15.753   0.412
14803W        W78736  28.171  24.206   1.335
14804W        W78737  40.846   2.233   1.299
14805W        W78738   0.973   4.755   5.316
14806W        W78739   7.781  23.561   2.338
14807W        W78740  33.411  40.437  14.492
14808W        W78741   1.818  31.135   3.840
14809W        W78742  16.298  37.975   1.847
14810W        W78743  44.844  41.964   4.810
14811W        W78744  35.479   6.696   1.418
14812W        W78745   1.477  29.492   2.714
14813W        W78746  42.375  37.020   1.438
14814W        W78747   7.773  10.735  12.521
14815W        W78748  39.810  22.100  13.486
14816W        W78749  16.250  26.079  13.397
14817W        W78750  24.651  33.586   1.785
14818W        W78751  18.199  31.065  13.375
14819W        W78752  36.942  28.652   0.264
14820W        W78753  14.750  20.126   1.767
14821W        W78754  10.783  23.084   1.826
14822W        W78755  13.299   4.392  14.942
14823W        W78756  25.002  39.940  11.030
14824W        W78757   3.224  36.556  13.973
14825W        W78758  21.669  32.103  11.913
14826W        W78759  39.376  27.446   0.842
14827W        W78760  30.604   8.170  11.526
14828W        W78761   6.332   3.226   1.378
14829W        W78762  24.973  25.185  11.077
14830W        W78763  18.115  40.000   3.842
14831W        W78764  34.429   6.816  11.443
14832W        W78765  14.240  17.283   3.236
14833W        W78766  23.204  24.098   1.873
14834W        W78767  14.720  32.906  11.445
14835W        W78768  30.658  27.535   0.289
14836W        W78769   6.863  27.127  14.999
14837W        W78770   7.392   9.204   4.838
14838W        W78771   9.844  12.193   2.690
14839W        W78772  39.471  42.430   1.697
14840W        W78773  33.950  24.622  14.906
14841W        W78774   8.269  39.842  12.364
14842W        W78775  35.404   2.337  11.981
14843W        W78776  33.119  15.086  10.927
14844W        W78777  31.609  16.633  13.351
14845W        W78778  39.426  31.416   0.439
14846W        W78779  23.086  30.418  10.919
14847W        W78780   2.406  23.658  14.472
14848W        W78781   1.477  37.421   4.242
14849W        W78782  10.842  39.322   2.825
14850W        W78783   5.700  17.708  14.027
14851W        W78784  24.108  39.019  10.971
14852W        W78785  38.897  11.676   3.305
14853W        W78786   8.858  27.094  14.770
14854W        W78787  19.581  14.683   4.201
14855W        W78788  10.202  14.773   0.952
14856W        W78789  14.260  44.477  11.091
14857W        W78790  22.556   2.338  12.843
14858W        W78791   4.817  21.244  12.056
14859W        W78792   1.953  23.220  11.107
14860W        W78793  12.263   0.955  11.537
14861W        W78794  41.015  44.339   0.881
14862W        W78795  24.054  42.010  11.941
14863W        W78796  10.793   2.311  13.478
14864W        W78797  34.592  10.258  10.415
14865W        W78798  18.177   9.664   1.878
14866W        W78799  14.328  23.714   4.602
14867W        W78800   9.814   5.696  10.600
14868W        W78801  36.060   2.469   3.660
14869W        W78802  33.389  30.536   2.695
14870W        W78803  18.783  25.681   1.806
14871W        W78804  13.686  24.154  12.898
14872W        W78805  10.716  20.560  12.068
14873W        W78806  27.187  30.164   2.272
14874W        W78807   7.190  21.038  11.424
14875W        W78808  19.137  14.731   2.775
14876W        W78809  14.674  17.266  13.487
14877W        W78810   4.920  29.081  13.383
14878W        W78811  17.661  21.732   3.850
14879W        W78812  23.126   2.236   0.836
14880W        W78813   3.807   1.410   0.747
14881W        W78814  25.173   0.953  12.890
14882W        W78815  41.416  16.284  11.003
14883W        W78816  34.885   7.294   3.789
14884W        W78817  20.212  37.469   1.364
14885W        W78818  16.718  13.845  13.821
14886W        W78819  20.235   8.327   1.756
14887W        W78820  41.906  38.568  11.559
14888W        W78821  19.101  27.536  11.014
14889W        W78822   8.331  44.964  12.450
14890W        W78823  44.393   6.298   1.710
14891W        W78824  35.090  29.015   0.390
14892W        W78825  26.141  25.176  11.570
14893W        W78826  31.103  35.493  12.536
14894W        W78827  11.731  44.756   4.217
14895W        W78828  16.201   9.376   2.280
14896W        W78829  16.165  13.617  11.519
14897W        W78830   0.314   5.256   3.717
14898W        W78831   1.328  17.279  13.863
14899W        W78832  17.577  35.001   1.396
14900W        W78833  26.146  14.808  13.961
14901W        W78834  26.475  30.419   4.608
14902W        W78835  13.251  26.195   3.813
14903W        W78836  17.709  42.936  11.990
14904W        W78837  22.703  40.011   4.246
14905W        W78838  24.091  34.526   3.654
14906W        W78839  21.707  25.501  12.999
14907W        W78840  10.139  44.493   0.396
14908W        W78841   4.438  16.142   3.767
14909W        W78842  18.763  41.953  13.911
14910W        W78843  39.557  28.154  10.455
14911W        W78844  10.268   5.695   0.893
14912W        W78845  15.252   2.431  13.435
14913W        W78846   0.343  17.276  13.519
14914W        W78847  28.666  37.395  10.644
14915W        W78848  16.207   9.698  14.962
14916W        W78849  37.862  34.443  13.793
14917W        W78850  27.656  22.707   2.360
14918W        W78851  26.166  33.902  13.355
14919W        W78852  13.261   1.834  10.946
14920W        W78853  22.712  23.145  14.942
14921W        W78854   6.784  35.069   0.927
14922W        W78855  44.762   5.790  13.546
14923W        W78856   3.927  22.117  11.892
14924W        W78857  37.029  10.239   4.659
14925W        W78858  14.673  32.506   4.716
14926W        W78859  33.459   9.684   0.935
14927W        W78860  30.438  14.712  13.448
14928W        W78861  24.719  34.598   1.388
14929W        W78862  32.477  40.526   4.824
14930W        W78863  21.538  37.556   1.731
14931W        W78864   7.201  11.687  14.318
14932W        W78865  33.564  35.483   3.364
14933W        W78866  13.334   8.670   2.749
14934W        W78867  24.142  35.441  13.982
14935W        W78868  25.089  12.735   4.785
14936W        W78869  39.464  21.752   0.267
14937W        W78870  13.203  31.125   1.814
14938W        W78871   7.709  28.944   2.664
14939W        W78872  31.409  10.377  12.461
14940W        W78873   6.718  13.646  14.954
14941W        W78874   4.894  36.078   4.680
14942W        W78875  31.511  44.862  11.935
14943W        W78876  43.020   4.844   1.274
14944W        W78877  42.423  35.544   0.274
14945W        W78878  44.320   7.299   4.312
14946W        W78879  14.692  39.434   1.308
14947W        W78880  13.225  11.246   4.793
14948W        W78881  28.083  37.967  10.498
14949W        W78882  20.768  27.666   4.274
14950W        W78883  16.622  16.160   3.770
14951W        W78884   3.933  11.334   4.198
14952W        W78885  19.226   8.745   3.637
14953W        W78886  32.925  15.192   1.422
14954W        W78887  15.687  24.658   1.853
14955W        W78888  32.608   5.425   0.454
14956W        W78889  27.641  33.051   2.711
14957W        W78890   1.459  15.768   4.141
14958W        W78891  39.852  41.981   0.389
14959W        W78892  19.614  20.754   1.888
14960W        W78893  22.566   2.805  13.443
14961W        W78894  43.938   0.792   4.765
14962W        W78895  21.753  30.428  13.390
14963W        W78896   2.920   9.867   3.338
14964W        W78897  34.453  12.650   3.275
14965W        W78898  12.838   6.192  12.892
14966W        W78899  31.405  39.410   4.723
14967W        W78900  18.584  34.534   0.275
14968W        W78901   6.724  27.128   2.260
14969W        W78902  29.960   8.686   1.728
14970W        W78903  21.230  37.077   1.786
14971W        W78904  44.763  11.732   0.877
14972W        W78905  10.676   7.774  13.026
14973W        W78906  32.918   0.982  11.872
14974W        W78907   3.887  29.111  14.766
14975W        W78908   7.389  21.512  11.901
14976W        W78909   6.422  14.648  12.527
14977W        W78910  41.041  31.120  14.934
14978W        W78911   1.335  27.020  12.062
14979W        W78912  29.023  13.794  10.561
14980W        W78913  25.650  35.891   4.755
14981W        W78914  40.545  12.203  13.349
14982W        W78915  34.578  38.965   4.314
14983W        W78916  37.507   7.336  10.035
14984W        W78917  13.118  13.192   0.935
14985W        W78918   5.283  27.996  11.997
14986W        W78919  19.113  10.287   2.826
14987W        W78920  37.361  32.916  13.506
14988W        W78921  27.973  35.992  13.859
14989W        W78922  29.628  25.107  10.915
14990W        W78923  14.784  10.668  14.497
14991W        W78924   9.695  39.993   4.644
14992W        W78925  37.403   9.687   3.845
14993W        W78926  20.061  11.266   0.738
14994W        W78927   8.290   8.830   3.663
14995W        W78928   4.364  32.104   0.768
14996W        W78929  43.475   7.277   2.875
14997W        W78930   1.861  25.110   0.442
14998W        W78931   4.921  28.025   2.304
14999W        W78932   3.278  41.939  13.818
15000W        W78933   1.795  28.599  13.431
15001W        W78934  27.604  23.644   0.443
15002W        W78935  35.959   7.384  11.026
15003W        W78936  42.998   3.406   4.673
15004W        W78937  16.590  34.074  11.112
15005W        W78938  16.091  10.335  13.942
15006W        W78939  39.421  38.539   0.275
15007W        W78940  31.990  15.594   1.808
15008W        W78941  30.555  15.242   2.419
15009W        W78942  20.183   5.915   2.781
15010W        W78943  20.273   4.851   3.691
15011W        W78944   0.910  42.901  11.856
15012W        W78945  38.873  24.547  11.032
15013W        W78946  19.222  31.903   1.727
15014W        W78947   8.745  24.986  12.038
15015W        W78948  31.554  32.032   2.342
15016W        W78949  28.553  15.815   1.704
15017W        W78950  44.323  28.637  13.024
15018W        W78951  20.173   2.941   4.784
15019W        W78952  25.192   1.469   4.234
15020W        W78953  40.524  17.266   2.294
15021W        W78954  19.119  25.580   5.284
15022W        W78955  30.462   8.847   0.921
15023W        W78956  24.637  13.223  11.512
15024W        W78957  39.985  23.509   4.353
15025W        W78958   5.403  34.457   0.266
15026W        W78959  27.524  36.468   4.643
15027W        W78960  27.971  33.101  11.440
15028W        W78961  32.460  19.613   4.653
15029W        W78962  44.817  25.147   2.728
15030W        W78963  27.054  37.567   1.359
15031W        W78964  44.407  21.049   3.742
15032W        W78965   0.829  14.228  12.908
15033W        W78966   5.774  32.396  12.412
15034W        W78967  16.169  10.297   0.795
15035W        W78968  36.361   1.322  14.962
15036W        W78969  32.140  24.179   0.871
15037W        W78970  13.175  44.984  10.521
15038W        W78971  23.097   0.256   1.411
15039W        W78972   1.242  15.247  12.072
15040W        W78973  24.119  16.125   3.749
15041W        W78974   7.727  15.744  13.050
15042W        W78975  29.582  37.477   2.251
15043W        W78976   8.891  36.905   3.639
15044W        W78977  23.027  36.030  10.633
15045W        W78978  38.056   8.769   2.328
15046W        W78979  21.197  25.490  12.083
15047W        W78980   0.478  14.603   3.271
15048W        W78981  22.538  33.989   2.686
15049W        W78982   1.800   1.906   1.319
15050W        W78983  36.942  11.162  13.310
15051W        W78984  22.734  21.067   2.836
15052W        W78985   4.365   9.183  12.490
15053W        W78986  29.658  20.165  11.015
15054W        W78987  25.563  39.890   1.233
15055W        W78988  31.582  15.225  10.643
15056W        W78989   7.776  24.205  14.464
15057W        W78990   9.223  13.599   4.335
15058W        W78991  17.689  33.477  11.897
15059W        W78992  41.805  40.850  12.027
15060W        W78993   7.731  10.238   1.262
15061W        W78994  17.653  36.928  11.375
15062W        W78995  21.693  39.473  11.073
15063W        W78996  28.095   7.403   2.269
15064W        W78997  29.498  29.980   4.661
15065W        W78998   3.336   7.185   4.775
15066W        W78999   3.848  31.418   2.349
15067W        W79000  28.933  14.263  14.943
15068W        W79001  11.359  28.612  14.936
15069W        W79002  22.026  33.054  12.425
15070W        W79003  34.884  44.835  11.910
15071W        W79004  39.464  26.199  12.399
15072W        W79005  39.548  15.649   3.233
15073W        W79006  32.613  31.117  12.535
15074W        W79007  42.494  17.293  11.573
15075W        W79008  28.050   4.355   2.194
15076W        W79009  36.932  14.268   1.774
15077W        W79010   7.817  10.159  13.489
15078W        W79011   5.293  28.155   1.792
15079W        W79012  28.450  32.905  11.948
15080W        W79013  26.054   4.852   2.801
15081W        W79014  21.025  41.524   2.689
15082W        W79015  41.949   4.762  10.026
15083W        W79016  18.069  26.178   1.809
15084W        W79017  32.426  18.179   4.825
15085W        W79018   2.251   4.889   1.342
15086W        W79019  42.505  42.825  14.819
15087W        W79020  40.306  35.448  13.041
15088W        W79021  28.586  23.119  13.849
15089W        W79022  28.013  39.411  13.344
15090W        W79023  12.616  31.113  14.904
15091W        W79024  12.224  36.436  11.527
15092W        W79025   0.341  12.675   1.826
15093W        W79026  42.328  36.439  12.995
15094W        W79027  29.125   7.372   3.835
15095W        W79028   5.847  39.340   4.147
15096W        W79029  13.210  19.711  11.541
15097W        W79030  15.211  34.100   0.922
15098W        W79031   1.864  33.097   3.256
15099W        W79032  34.426  19.594  10.904
15100W        W79033  38.520  14.695   0.908
15101W        W79034  42.411   6.802   2.814
15102W        W79035   0.360  43.835   1.845
15103W        W79036  34.910  11.784   2.663
15104W        W79037  15.767  28.017   4.785
15105W        W79038  23.606  27.043  14.897
15106W        W79039  12.332  33.454   1.838
15107W        W79040  24.177  39.887  13.896
15108W        W79041   2.335  31.478   0.882
15109W        W79042  12.695  29.056   3.752
15110W        W79043  23.088  42.479  11.520
15111W        W79044  44.912  24.505  12.867
15112W        W79045  38.384   4.397  10.961
15113W        W79046  13.256  30.027   2.697
15114W        W79047  28.679  29.622  11.552
15115W        W79048  35.939  36.430  10.475
15116W        W79049  23.197   0.381  13.462
15117W        W79050  15.671  32.026  10.999
15118W        W79051   6.307  18.124  13.487
15119W        W79052  25.004  42.000  11.467
15120W        W79053  35.942  21.123   1.858
15121W        W79054   7.250   2.951   1.254
15122W        W79055   1.401  35.540   1.293
15123W        W79056  37.927  42.502  10.415
15124W        W79057   5.821  10.816  12.379
15125W        W79058  33.497  43.903   2.873
15126W        W79059  29.113   5.396   1.827
15127W        W79060   0.373  24.644  10.976
15128W        W79061  23.022  12.232   4.726
15129W        W79062  29.148  39.845   0.354
15130W        W79063  14.312  40.926   0.786
15131W        W79064   3.810   9.722  12.059
15132W        W79065   2.722   5.405  10.643
15133W        W79066   5.434  37.020  14.365
15134W        W79067  16.206  39.977   4.154
15135W        W79068  20.653  28.988  14.290
15136W        W79069  42.793  38.564   0.955
15137W        W79070  29.148   4.881  12.463
15138W        W79071   2.435   1.426   0.345
15139W        W79072  18.211  27.106  13.385
15140W        W79073  42.892  14.323  12.923
15141W        W79074  32.554   5.221  14.003
15142W        W79075   3.777  42.816   5.120
15143W        W79076  12.183  10.318  10.607
15144W        W79077  20.094  37.945   2.824
15145W        W79078  33.504  34.053   0.738
15146W        W79079  32.948  36.047  14.310
15147W        W79080  23.199  33.875  12.057
15148W        W79081  23.586  26.058  14.852
15149W        W79082   5.249  30.428   0.331
15150W        W79083  24.218   4.377   2.778
15151W        W79084  24.154  32.041  11.581
15152W        W79085   3.731  26.001   0.861
15153W        W79086  24.488  10.164   2.414
15154W        W79087  14.230  16.109  10.442
15155W        W79088   9.785  23.239  14.823
15156W        W79089  30.137  38.440  13.543
15157W        W79090  13.804   9.821   0.463
15158W        W79091  35.030  35.039  14.439
15159W        W79092   7.677  38.562   1.865
15160W        W79093  18.645   6.245   0.420
15161W        W79094  16.305   2.350  13.540
15162W        W79095  23.565  41.459   2.373
15163W        W79096  12.133  37.018   2.849
15164W        W79097   6.858  25.663   5.162
15165W        W79098  27.513  32.926   4.281
15166W        W79099  23.489  27.461   3.378
15167W        W79100  32.946  38.023   2.827
15168W        W79101   6.194  38.076   2.694
15169W        W79102  40.351  36.518   4.337
15170W        W79103   6.840  37.909  10.520
15171W        W79104  15.741   6.745  11.895
15172W        W79105  27.533  42.294  10.547
15173W        W79106  21.715   1.460  12.405
15174W        W79107  16.649   9.775   4.673
15175W        W79108  30.015  31.137  11.379
15176W        W79109  44.867  41.973  11.938
15177W        W79110  19.084  40.481   1.914
15178W        W79111   7.729   3.291   3.306
15179W        W79112   5.374   2.240   3.341
15180W        W79113  11.334   8.208   1.721
15181W        W79114  15.089   1.442   3.665
15182W        W79115  38.553  30.569   1.713
15183W        W79116  11.791  38.905  13.981
15184W        W79117  10.867   4.808   0.756
15185W        W79118  27.593  15.211   0.389
15186W        W79119  34.995  42.348   3.679
15187W        W79120  16.627  34.532  12.040
15188W        W79121  34.017  32.029  11.874
15189W        W79122  44.382  26.140  12.419
15190W        W79123  38.960  21.551  10.005
15191W        W79124  33.019  18.147   3.818
15192W        W79125  22.725  31.616   4.754
15193W        W79126  43.387  44.452  11.026
15194W        W79127  22.674  31.137   3.379
15195W        W79128   3.271  11.337  14.321
15196W        W79129  22.071  25.113  14.824
15197W        W79130   7.271  27.145  12.524
15198W        W79131  25.136  37.869  12.025
15199W        W79132  32.985  15.107  10.568
15200W        W79133  26.173  20.765   3.729
15201W        W79134  42.778   8.300   0.885
15202W        W79135  37.865  14.191  12.571
15203W        W79136   6.321   5.367  10.939
15204W        W79137  15.261  33.620   3.833
15205W        W79138  19.234  23.564   2.363
15206W        W79139   6.695  23.015   5.742
15207W        W79140  25.641  16.644   3.200
15208W        W79141  25.982  13.257   2.882
15209W        W79142  19.121  12.845  11.596
15210W        W79143  44.295  16.258  12.482
15211W        W79144  12.659  28.141  12.368
15212W        W79145  38.531   5.883  12.475
15213W        W79146   7.234  23.526   2.821
15214W        W79147  29.598  10.742  13.048
15215W        W79148  35.357   0.413   3.374
15216W        W79149  40.914  42.377  12.452
15217W        W79150  21.700  24.000  12.559
15218W        W79151  35.405  38.059   3.304
15219W        W79152  31.642  13.187  12.493
15220W        W79153  26.015  12.357   2.205
15221W        W79154  40.848  36.412   3.646
15222W        W79155   9.365  36.000   1.714
15223W        W79156  18.124  25.649  10.957
15224W        W79157  24.016  39.416  14.353
15225W        W79158  25.004   3.300  11.521
15226W        W79159  43.495  29.555   3.634
15227W        W79160  35.044  14.611  14.824
15228W        W79161  44.892  26.082  11.016
15229W        W79162  44.397   4.777  14.933
15230W        W79163  28.468  27.003  12.021
15231W        W79164  43.427  34.016   0.773
15232W        W79165  13.281  27.123   4.686
15233W        W79166  30.627   8.900   1.793
15234W        W79167   2.415  10.375  11.958
15235W        W79168  42.337  22.670  13.837
15236W        W79169   3.858  11.345   1.845
15237W        W79170  14.265  36.912  14.324
15238W        W79171  28.011  41.891  14.918
15239W        W79172   2.265  17.710   3.807
15240W        W79173   5.393   4.439   0.312
15241W        W79174  20.155  36.566  11.537
15242W        W79175  18.763  14.237  11.123
15243W        W79176  38.344  32.451  11.459
15244W        W79177  25.045  16.118   4.683
15245W        W79178   4.365   1.323  12.934
15246W        W79179  42.988   0.331  14.827
15247W        W79180   3.834  24.618  10.984
15248W        W79181  16.698  36.993  13.822
15249W        W79182  15.224  35.951  13.944
15250W        W79183  20.582   9.873   3.712
15251W        W79184  40.927   1.368  13.461
15252W        W79185   4.253  23.205   0.958
15253W        W79186  15.134  31.419   0.892
15254W        W79187  27.053   4.706   2.418
15255W        W79188   7.381  26.055  13.047
15256W        W79189   6.880  20.156   0.439
15257W        W79190  41.475  21.176   3.644
15258W        W79191  44.299  38.981  11.549
15259W        W79192  24.170  41.829  10.931
15260W        W79193   2.821  27.037   1.397
15261W        W79194  42.354  13.776  14.848
15262W        W79195  27.067  19.279   3.765
15263W        W79196   9.226  31.544   0.734
15264W        W79197  25.651  32.044  11.952
15265W        W79198   4.414  28.624  10.494
15266W        W79199   7.887   7.391   3.701
15267W        W79200   7.833  14.698   2.867
15268W        W79201   8.236  33.930  11.594
15269W        W79202   1.404  20.101  13.337
15270W        W79203  14.794  44.292  12.047
15271W        W79204  24.098  22.614   2.416
15272W        W79205  13.599  29.464  14.481
15273W        W79206  37.065   6.201  11.394
15274W        W79207  14.199  15.183   4.268
15275W        W79208  31.530  36.574   3.326
15276W        W79209   5.198  25.965   3.240
15277W        W79210  11.731  19.228  12.372
15278W        W79211  37.540  23.698  14.281
15279W        W79212  28.028  23.986   1.795
15280W        W79213  32.939  44.308  10.983
15281W        W79214   6.202  11.254   3.832
15282W        W79215  24.125  20.638  10.912
15283W        W79216   1.249  43.310  14.351
15284W        W79217  28.146   3.831   1.927
15285W        W79218  26.995  24.646  13.851
15286W        W79219  27.598   7.686   3.328
15287W        W79220  39.364  28.481  11.058
15288W        W79221  38.496  14.244  11.024
15289W        W79222  14.340  35.456   4.291
15290W        W79223   1.955  13.828   3.284
15291W        W79224  38.476  42.961  12.464
15292W        W79225  27.476  12.147   3.671
15293W        W79226   4.716  37.521   4.808
15294W        W79227   6.409   4.751   4.138
15295W        W79228   3.224  25.211   0.329
15296W        W79229  42.803   8.282   4.816
15297W        W79230  30.034  32.021   3.705
15298W        W79231  29.128   4.801   1.378
15299W        W79232  37.458   3.901  11.022
15300W        W79233   4.810  27.987   1.381
15301W        W79234  41.893  20.057   2.891
15302W        W79235  40.855  39.359   3.222
15303W        W79236  30.555  20.650  12.944
15304W        W79237  27.554  40.518   0.340
15305W        W79238  36.387  31.138  11.052
15306W        W79239  16.232  28.150   4.300
15307W        W79240  29.551  26.581  14.338
15308W        W79241  24.713  30.095   0.799
15309W        W79242  19.241   5.409  11.978
15310W        W79243  11.780  18.146   1.330
15311W        W79244  37.047  13.165  13.492
15312W        W79245  27.993  39.432   2.223
15313W        W79246  35.553  34.928  13.015
15314W        W79247   6.827  30.097   0.881
15315W        W79248  23.522  27.061   4.613
15316W        W79249  39.822  32.499  12.879
15317W        W79250   7.805  22.612  11.587
15318W        W79251  21.522  22.169   1.338
15319W        W79252  17.607  16.631   3.751
15320W        W79253  33.904  36.442  11.916
15321W        W79254  44.807  42.834   3.190
15322W        W79255  15.268   7.288   5.754
15323W        W79256  39.879   4.796   3.858
15324W        W79257  21.624  17.560  11.575
15325W        W79258  17.072   0.760   2.784
15326W        W79259   2.763   3.451  10.484
15327W        W79260  17.295  27.197  11.524
15328W        W79261   7.301  24.222   3.681
15329W        W79262  33.479  38.556  10.587
15330W        W79263   5.375  10.286  14.819
15331W        W79264  16.228   9.799  11.021
15332W        W79265  35.380   2.918   1.831
15333W        W79266  13.650  35.384   4.150
15334W        W79267  27.620  15.211  11.922
15335W        W79268   3.940  17.623  13.809
15336W        W79269  34.410  13.779   0.278
15337W        W79270  22.612  34.440   1.447
15338W        W79271  19.633  18.243  13.408
15339W        W79272  42.846  24.219   3.237
15340W        W79273   4.387  27.519   2.849
15341W        W79274  11.287  10.831  10.414
15342W        W79275  21.036  15.729  11.859
15343W        W79276  32.416  44.789   4.205
15344W        W79277  36.497  32.593   2.339
15345W        W79278   3.827  24.032   3.245
15346W        W79279  15.191  40.806  14.321
15347W        W79280   0.883  37.017   2.751
15348W        W79281  15.321   0.464   2.706
15349W        W79282   4.835  38.451   1.880
15350W        W79283  25.656   4.877   9.920
15351W        W79284  13.603  37.477   2.178
15352W        W79285  13.297  26.000   2.289
15353W        W79286  39.812  18.199   0.295
15354W        W79287  41.393   2.282  12.850
15355W        W79288   4.418  38.440  13.458
15356W        W79289  32.556  12.274  14.497
15357W        W79290  33.944  23.064  13.959
15358W        W79291  42.001  44.830  13.475
15359W        W79292   5.861   8.177  12.960
15360W        W79293  15.175   7.360   4.208
15361W        W79294  41.320  33.940   0.818
15362W        W79295  37.538  18.591   4.821
15363W        W79296  23.656  32.948  10.552
15364W        W79297  27.523   2.786  13.848
15365W        W79298  43.821  20.606  14.814
15366W        W79299  18.717  20.265  10.568
15367W        W79300  40.848  25.697  11.926
15368W        W79301   6.221  43.310   3.733
15369W        W79302  42.354  40.958  14.832
15370W        W79303  23.735  12.298  12.571
15371W        W79304  33.497  25.512   0.473
15372W        W79305  43.857   4.820  11.535
15373W        W79306  29.625  21.519  11.474
15374W        W79307   7.740  29.935  13.944
15375W        W79308  39.487  44.837   4.116
15376W        W79309  23.004  14.725  10.459
15377W        W79310  37.891  36.003   1.232
15378W        W79311   5.776  12.812  14.278
15379W        W79312  11.197  33.431  13.034
15380W        W79313  43.940   0.289   2.735
15381W        W79314  28.646  40.458   1.317
15382W        W79315  13.211  41.517  13.463
15383W        W79316  33.125  30.961   0.767
15384W        W79317  39.037  24.073  10.564
15385W        W79318  31.508  26.630  12.861
15386W        W79319  22.744  31.079  10.110
15387W        W79320  33.065  26.057   1.785
15388W        W79321  23.120   9.798  14.398
15389W        W79322  35.100  21.196  14.999
15390W        W79323  11.334  38.421   0.472
15391W        W79324   5.206  24.586  11.937
15392W        W79325  41.399  29.083   3.284
15393W        W79326  17.063  21.740  10.921
15394W        W79327  14.278  42.289  12.020
15395W        W79328  44.801  42.410  11.512
15396W        W79329  26.615   9.240   1.934
15397W        W79330  41.013   6.289   4.626
15398W        W79331  27.986  21.178  10.543
15399W        W79332  35.049  40.945   0.913
15400W        W79333   3.292   9.333   0.953
15401W        W79334  44.828  16.246  13.307
15402W        W79335  42.408  20.636  11.559
15403W        W79336  36.544  27.006  10.640
15404W        W79337   1.833  21.218  13.037
15405W        W79338  28.103  27.109  11.447
15406W        W79339  29.946  42.412   4.677
15407W        W79340   3.717  18.665   4.790
15408W        W79341  26.662  12.205   2.719
15409W        W79342   8.190  16.719  14.924
15410W        W79343   8.359   6.383  12.346
15411W        W79344   7.244  34.032  10.635
15412W        W79345  23.511  42.980   1.235
15413W        W79346   2.317  14.647   0.730
15414W        W79347  25.184  33.877  11.551
15415W        W79348  14.127  10.242   2.340
15416W        W79349  15.086   2.744  13.504
15417W        W79350  25.621   0.964  11.021
15418W        W79351  39.035  10.238  13.533
15419W        W79352  40.809  44.009  11.122
15420W        W79353  25.029  26.689  12.518
15421W        W79354  29.493   1.393  13.064
15422W        W79355  42.028  24.086  14.403
15423W        W79356  17.772  41.817   0.367
15424W        W79357  10.267  33.946   1.434
15425W        W79358  24.222   9.156   5.671
15426W        W79359  15.733  34.533   4.810
15427W        W79360  22.534  34.459   0.282
15428W        W79361  31.552  15.273   3.288
15429W        W79362  44.871   6.270   3.640
15430W        W79363   9.161   9.324  11.387
15431W        W79364  29.662  30.022  10.610
15432W        W79365  24.029  11.185  13.013
15433W        W79366  37.871   6.335   1.242
15434W        W79367   8.731  29.611  12.993
15435W        W79368  10.848   1.913  13.018
15436W        W79369  39.406  21.111   1.450
15437W        W79370  18.713  33.593   1.885
15438W        W79371   1.269  21.596  14.439
15439W        W79372  44.753  37.440  12.565
15440W        W79373  38.449  18.271  13.404
15441W        W79374  18.193  15.120  13.369
15442W        W79375  24.976  35.965  11.468
15443W        W79376  43.896  19.169   2.695
15444W        W79377   4.827   2.933  12.846
15445W        W79378   1.321  44.961   2.338
15446W        W79379   4.263  36.074  10.918
15447W        W79380   9.650  28.524   0.253
15448W        W79381   1.917  32.531  13.342
15449W        W79382  11.212  22.577   1.805
15450W        W79383  39.327  14.099  12.974
15451W        W79384  28.565  38.992   2.874
15452W        W79385  27.083  31.420  11.392
15453W        W79386  24.501   1.472   3.296
15454W        W79387   5.741  19.565  12.044
15455W        W79388  33.967  26.458  13.917
15456W        W79389  40.542  29.593   0.355
15457W        W79390  12.333  12.854   3.299
15458W        W79391  11.650  13.630  10.923
15459W        W79392   2.888   9.392   4.170
15460W        W79393  20.036   8.719   2.209
15461W        W79394  18.088  32.402   0.856
15462W        W79395  14.623  36.925  14.496
15463W        W79396  18.154  32.533  12.896
15464W        W79397   3.426  22.072  11.059
15465W        W79398  16.631  27.596  13.022
15466W        W79399  34.613  15.162  14.459
15467W        W79400  25.131  39.340  12.829
15468W        W79401   1.326  23.603  14.817
15469W        W79402  41.388  42.424   3.868
15470W        W79403  38.069  12.160   1.794
15471W        W79404  17.249  23.685  11.515
15472W        W79405   7.315  43.809  14.808
15473W        W79406  32.946   2.896   1.409
15474W        W79407  24.116  32.018  12.560
15475W        W79408  34.902  11.161  12.055
15476W        W79409  23.235  20.031   3.189
15477W        W79410  36.578  11.151   4.675
15478W        W79411  43.305  36.479   0.411
15479W        W79412  38.880  27.110  11.562
15480W        W79413   8.287  39.380  14.943
15481W        W79414  39.412  41.903   3.865
15482W        W79415  44.817  40.949  14.277
15483W        W79416  11.362  15.657  10.127
15484W        W79417  37.446  37.364  12.545
15485W        W79418  39.050  12.785  11.967
15486W        W79419  39.832  36.943   1.919
15487W        W79420  11.332   5.749   3.313
15488W        W79421  27.557  15.658  12.341
15489W        W79422  29.503  12.358   4.676
15490W        W79423   6.297  14.691   4.147
15491W        W79424  10.363  43.424   2.294
15492W        W79425  31.067  21.073   3.297
15493W        W79426  25.646  27.953   4.166
15494W        W79427  26.209  33.506  10.541
15495W        W79428  39.482  39.885  11.529
15496W        W79429  33.122   7.233  12.065
15497W        W79430  20.266   1.955  14.377
15498W        W79431  33.000  30.014  10.515
15499W        W79432  26.555  37.937  13.488
15500W        W79433   6.854  14.781  12.863
15501W        W79434   7.195  21.199   3.655
15502W        W79435  30.063  17.203   4.639
15503W        W79436   8.808  21.736  13.539
15504W        W79437  17.214   8.287  11.895
15505W        W79438  19.098   5.375   4.800
15506W        W79439   2.967  23.667   3.669
15507W        W79440  16.600  26.489  13.921
15508W        W79441  28.111  15.728   0.383
15509W        W79442  29.669  18.087   2.405
15510W        W79443   0.832  37.384   2.232
15511W        W79444  24.700  32.928   2.735
15512W        W79445  25.168  31.041  11.460
15513W        W79446  30.946  31.468   0.753
15514W        W79447   4.357  14.261  11.922
15515W        W79448  27.602  41.493   3.819
15516W        W79449  43.426   6.744  13.841
15517W        W79450  22.682   1.775  10.061
15518W        W79451   5.821  33.601  12.914
15519W        W79452  23.199  31.934   4.267
15520W        W79453  23.015  26.495   3.824
15521W        W79454  36.393  18.787  10.456
15522W        W79455  28.641  32.021  12.072
15523W        W79456  43.442   5.360  11.075
15524W        W79457   8.164  43.300  10.533
15525W        W79458  30.585  30.512  11.883
15526W        W79459  44.504   0.801  10.476
15527W        W79460  33.925  42.441  13.395
15528W        W79461  31.415   5.428   4.328
15529W        W79462  33.441  29.983  12.548
15530W        W79463  42.992  21.745  11.518
15531W        W79464  22.118  39.061  12.093
15532W        W79465  17.562  44.420   2.359
15533W        W79466  24.483   8.800   4.205
15534W        W79467  24.661  10.828  11.023
15535W        W79468   0.897  17.294  13.996
15536W        W79469  33.472  21.141  11.429
15537W        W79470  39.048  15.587   2.817
15538W        W79471  27.011  27.559   1.828
15539W        W79472  23.607  16.605  10.904
15540W        W79473  16.803  24.663   0.399
15541W        W79474  36.412  24.101   4.806
15542W        W79475  30.059  29.161  14.875
15543W        W79476  24.601  20.590  10.538
15544W        W79477  16.731  12.273   0.867
15545W        W79478  15.709  30.469   4.767
15546W        W79479   3.419  22.705  11.053
15547W        W79480  38.065  17.738  13.907
15548W        W79481   9.246  19.650  10.132
15549W        W79482   7.767  12.314   0.888
15550W        W79483  41.925  23.213  14.031
15551W        W79484  13.808  34.981  10.579
15552W        W79485  38.383  21.105  10.580
15553W        W79486  19.246  25.662   2.763
15554W        W79487  23.145  41.788  10.997
15555W        W79488  12.831  17.689  11.865
15556W        W79489  41.409  27.945   1.917
15557W        W79490  26.549   3.388   2.309
15558W        W79491  12.309  41.994  10.462
15559W        W79492  44.945  39.912   3.355
15560W        W79493  10.343   3.820   0.369
15561W        W79494   4.916   1.919  10.471
15562W        W79495   4.264  40.330   4.759
15563W        W79496   4.818  33.894  13.312
15564W        W79497  35.064  28.434   1.874
15565W        W79498  41.825  13.183  11.028
15566W        W79499  34.081   7.849   3.353
15567W        W79500  32.032  26.483   1.391
15568W        W79501   4.400  23.547   3.350
15569W        W79502   9.174  22.239   2.377
15570W        W79503  38.045  36.580   4.320
15571W        W79504   8.747   7.380  13.423
15572W        W79505  21.547  21.647   4.218
15573W        W79506  28.519   9.684   2.819
15574W        W79507  18.600  13.678   4.118
15575W        W79508   4.259  25.552   1.912
15576W        W79509  18.597  20.750   5.161
15577W        W79510  14.171  30.651  12.000
15578W        W79511  29.059  42.846   5.141
15579W        W79512  21.047   7.182  12.340
15580W        W79513  30.914   4.915   4.740
15581W        W79514  27.533  30.492   3.352
15582W        W79515   7.205  27.514  10.077
15583W        W79516  35.991   9.240   4.159
15584W        W79517   3.334  34.482  11.117
15585W        W79518  12.639   2.849   3.218
15586W        W79519   8.687  20.630   0.923
15587W        W79520   9.864  44.441   1.758
15588W        W79521  24.650   6.403  11.547
15589W        W79522  39.368  10.207   2.885
15590W        W79523  42.416  13.317  14.434
15591W        W79524  26.119  23.062   0.457
15592W        W79525   7.695   8.168   3.773
15593W        W79526  44.458  28.142   3.189
15594W        W79527  25.693  30.007   1.413
15595W        W79528  28.659  43.413  12.550
15596W        W79529   0.328  33.554  13.916
15597W        W79530   8.753  23.015  11.589
15598W        W79531   0.753   7.761  12.580
15599W        W79532  34.399  30.458   1.243
15600W        W79533  24.073  26.000  13.837
15601W        W79534  41.327  27.092  14.340
15602W        W79535  20.105  18.704  12.546
15603W        W79536  36.349   4.300  14.990
15604W        W79537  12.164  42.509  12.574
15605W        W79538  33.031  32.122  11.120
15606W        W79539  42.806  25.078  14.892
15607W        W79540  41.990   1.294   3.689
15608W        W79541  31.144  10.262   0.733
15609W        W79542  10.308  13.702   0.866
15610W        W79543  22.023  31.051  10.619
15611W        W79544  10.323  25.091   0.473
15612W        W79545   4.371  38.561  10.439
15613W        W79546  43.778  39.319   1.273
15614W        W79547  40.532  30.489   4.172
15615W        W79548  37.475  41.534  14.992
15616W        W79549  34.485  12.845   2.296
15617W        W79550  12.245   2.311  11.878
15618W        W79551  44.905   3.343   5.167
15619W        W79552  44.470   0.752   1.398
15620W        W79553  28.057   7.794  11.518
15621W        W79554  40.014   8.225  11.441
15622W        W79555  28.178  40.854   4.336
15623W        W79556   1.306  33.889   1.450
15624W        W79557  35.902  43.275   0.784
15625W        W79558  44.292  36.370  14.497
15626W        W79559  20.139  21.117   4.673
15627W        W79560  41.864  34.471  12.083
15628W        W79561  20.063   4.293   4.306
15629W        W79562  24.168   5.777   3.847
15630W        W79563  31.458   9.277  11.958
15631W        W79564  35.937  41.032   4.194
15632W        W79565   3.806  26.653  13.480
15633W        W79566  16.095  28.131   1.287
15634W        W79567  38.487  41.394   1.216
15635W        W79568  43.995  14.124  13.031
15636W        W79569  19.712  12.658   1.245
15637W        W79570  27.541  34.386  11.407
15638W        W79571  11.145   9.752  12.042
15639W        W79572  23.679   7.671   0.799
15640W        W79573   5.720  37.338  13.944
15641W        W79574  26.049   6.828   0.730
15642W        W79575  15.740  31.979  13.882
15643W        W79576  37.029  27.636  14.321
15644W        W79577  11.177  41.332   0.867
15645W        W79578  34.986  27.093  11.986
15646W        W79579   5.917  31.929   0.366
15647W        W79580  39.952  28.065  10.960
15648W        W79581  28.440  38.944   1.259
15649W        W79582  30.591  39.838  10.628
15650W        W79583  11.277  12.224   1.918
15651W        W79584  36.503  38.897   0.448
15652W        W79585  23.187  27.011  10.991
15653W        W79586  25.547  31.461  10.899
15654W        W79587  16.757   7.324   4.752
15655W        W79588  36.978  38.071  10.623
15656W        W79589  35.493  30.162  11.005
15657W        W79590  27.636  15.604   1.704
15658W        W79591  12.129  23.632   3.640
15659W        W79592  16.724   5.815   4.683
15660W        W79593   1.762  40.808  13.049
15661W        W79594  12.768   8.789   3.752
15662W        W79595   1.461  25.093  11.544
15663W        W79596  26.608  31.537   0.753
15664W        W79597  38.055  12.723  12.369
15665W        W79598  38.066   8.371  11.896
15666W        W79599  31.526  18.224   1.433
15667W        W79600  29.427  26.138  11.451
15668W        W79601  25.965  40.380  13.010
15669W        W79602   6.747  17.611  13.461
15670W        W79603  40.833  12.615   2.665
15671W        W79604  40.531  37.346   5.150
15672W        W79605  43.884  15.240  12.341
15673W        W79606   6.912  28.475   4.775
15674W        W79607  10.733  40.865   2.276
15675W        W79608  17.577  17.791   1.794
15676W        W79609  39.326   7.701  14.969
15677W        W79610  16.297  29.662  12.017
15678W        W79611   1.921  28.061  14.971
15679W        W79612  17.694  32.975   0.756
15680W        W79613  13.152  43.911   0.812
15681W        W79614  20.534  30.570   4.138
15682W        W79615  18.705  44.796   0.252
15683W        W79616  12.710  15.305   1.861
15684W        W79617  16.725  21.188  14.906
15685W        W79618   8.287   5.832  14.421
15686W        W79619   0.777  31.489   3.163
15687W        W79620   7.697  27.070  14.453
15688W        W79621  26.569  32.053   1.291
15689W        W79622  19.756  15.793  12.836
15690W        W79623  35.099  36.999  13.059
15691W        W79624  31.431   1.360  10.926
15692W        W79625  23.013  41.000  13.976
15693W        W79626  34.939  39.415   2.789
15694W        W79627   7.723  27.155   3.238
15695W        W79628  12.613  14.796  14.921
15696W        W79629  23.008  44.921  11.062
15697W        W79630   9.180   3.355   1.212
15698W        W79631  39.510  14.755  13.488
15699W        W79632  10.761  37.509  10.963
15700W        W79633  11.263  26.690  11.979
15701W        W79634  42.516  42.486  12.023
15702W        W79635  44.958  24.524   0.839
15703W        W79636  27.954  20.540  12.540
15704W        W79637  19.200  35.402   0.405
15705W        W79638   2.445  28.583  13.466
15706W        W79639   8.797   7.233  12.941
15707W        W79640  26.675   3.905  12.063
15708W        W79641  15.117   8.397  13.954
15709W        W79642  20.174  25.604  14.859
15710W        W79643  22.032  28.616   9.669
15711W        W79644   5.252  20.655   4.684
15712W        W79645  41.476  37.394  12.485
15713W        W79646  44.477  17.153  11.582
15714W        W79647  39.924  20.257   2.684
15715W        W79648   5.691  25.019  14.370
15716W        W79649  20.268   0.939  10.889
15717W        W79650  42.979  39.976   4.233
15718W        W79651  39.449   3.938   0.341
15719W        W79652  24.199  12.209   2.776
15720W        W79653  15.720  42.010   1.797
15721W        W79654  21.616  10.140   4.782
15722W        W79655  18.761   1.440   3.844
15723W        W79656  23.719  22.100   1.377
15724W        W79657   3.234  27.058  10.577
15725W        W79658  31.643  18.164  10.608
15726W        W79659  21.687  13.830   0.283
15727W        W79660  32.117  28.668   2.376
15728W        W79661   4.404   7.769  14.287
15729W        W79662  16.303  26.513  11.043
15730W        W79663  21.128   6.743   1.759
15731W        W79664  32.555  10.335  12.909
15732W        W79665   4.763  28.642  11.495
15733W        W79666  37.044  24.542  11.110
15734W        W79667  10.281  37.027   1.908
15735W        W79668  19.144  22.724  13.855
15736W        W79669  19.168  13.187  13.489
15737W        W79670   7.846  23.694  12.843
15738W        W79671  22.743  16.229  10.902
15739W        W79672  40.930  26.512   3.641
15740W        W79673  13.270  41.396  11.868
15741W        W79674  10.215  26.049   2.855
15742W        W79675  41.383  20.632   3.693
15743W        W79676  30.122  11.759  14.967
15744W        W79677  12.812   3.719  11.922
15745W        W79678  27.107  19.724   2.806
15746W        W79679  19.757   7.371  12.899
15747W        W79680  40.347  42.395  12.488
15748W        W79681   3.936  38.933   2.676
15749W        W79682  29.593  13.636  14.298
15750W        W79683  43.495  25.507  13.915
15751W        W79684  12.206  42.828  10.507
15752W        W79685  41.876  20.265   2.267
15753W        W79686  37.538   2.292   4.697
15754W        W79687  23.147  14.681   3.349
15755W        W79688  21.243   5.240   1.369
15756W        W79689  26.083  21.534  14.970
15757W        W79690   4.411   4.273  11.403
15758W        W79691  28.014  44.471  12.545
15759W        W79692  35.563  22.558   3.314
15760W        W79693  42.420  17.592  14.001
15761W        W79694  16.136  22.666  13.895
15762W        W79695   6.374   9.644  11.037
15763W        W79696  26.050  29.523   4.215
15764W        W79697  31.909  29.573   4.129
15765W        W79698  15.811  32.629   2.417
15766W        W79699  26.482  23.571   3.260
15767W        W79700  40.917  16.195  12.341
15768W        W79701  19.702  38.347   4.642
15769W        W79702   4.349  30.473  13.327
15770W        W79703  28.023  12.818  12.405
15771W        W79704  33.438   6.246  11.976
15772W        W79705  34.606  32.980  12.013
15773W        W79706  21.742   7.209   2.726
15774W        W79707  41.003  35.359  11.928
15775W        W79708  32.025   5.920  11.881
15776W        W79709   7.733  36.346   4.180
15777W        W79710  17.205  16.683  12.527
15778W        W79711  21.682  28.496   0.364
15779W        W79712  36.478  26.100   3.715
15780W        W79713  32.032  10.188  14.972
15781W        W79714  19.600  15.749  14.858
15782W        W79715   3.405  42.335   3.178
15783W        W79716  44.767   9.161   4.763
15784W        W79717   2.326   7.892  12.897
15785W        W79718  27.082  24.557   1.308
15786W        W79719  12.160   1.288  10.893
15787W        W79720   0.324  18.088  11.951
15788W        W79721  15.208  10.362  14.808
15789W        W79722  25.099  12.680   2.188
15790W        W79723  31.013   2.850   1.389
15791W        W79724  15.768  11.703   3.317
15792W        W79725  26.521  22.030  12.394
15793W        W79726  43.276  22.210  11.400
15794W        W79727  26.575  13.813  13.543
15795W        W79728   7.671  35.082  13.485
15796W        W79729  44.316  31.050   1.216
15797W        W79730  34.105  32.930   2.220
15798W        W79731  31.492   3.773  10.628
15799W        W79732   6.907   1.387  14.445
15800W        W79733  15.316   1.865  12.508
15801W        W79734  34.587  17.670   1.336
15802W        W79735  34.445   6.787  12.572
15803W        W79736   4.723  43.342   2.778
15804W        W79737  41.502  22.548  14.328
15805W        W79738   3.789  32.424  14.457
15806W        W79739  44.340  30.576   2.306
15807W        W79740  28.186  23.727   2.196
15808W        W79741   7.901  28.000   1.263
15809W        W79742  25.170   7.176  13.516
15810W        W79743  23.699   4.396   3.656
15811W        W79744   9.380  21.662   2.807
15812W        W79745  35.598  21.558  14.473
15813W        W79746  24.700  22.028   4.350
15814W        W79747  10.792  17.270  11.871
15815W        W79748  25.707   9.225   2.727
15816W        W79749  44.433   3.404  12.569
15817W        W79750  12.746   1.278  12.083
15818W        W79751  34.463  24.688  11.050
15819W        W79752   6.271  31.953  14.285
15820W        W79753  26.075   6.222   1.288
15821W        W79754   1.788  23.003   2.699
15822W        W79755  42.290  40.369   1.891
15823W        W79756  23.566  36.040  10.905
15824W        W79757  35.877  19.227   0.365
15825W        W79758  25.121  19.272   0.390
15826W        W79759  38.832  40.044   1.385
15827W        W79760   8.849  18.069   0.329
15828W        W79761  22.601  11.622  13.018
15829W        W79762  36.480  42.022   1.750
15830W        W79763  16.573  26.124  12.054
15831W        W79764  31.540  11.222   3.729
15832W        W79765  36.847  28.052  11.491
15833W        W79766  33.018  35.542   2.213
15834W        W79767  32.924   5.289  14.456
15835W        W79768   5.244  41.442   1.408
15836W        W79769  41.986  19.285   4.239
15837W        W79770  15.602  23.025   3.277
15838W        W79771   9.243  16.215   0.888
15839W        W79772  41.419  43.911   1.732
15840W        W79773  26.582  32.540  12.479
15841W        W79774  36.963  38.475   2.885
15842W        W79775  39.998  12.735   4.627
15843W        W79776  22.738   9.199   0.362
15844W        W79777  16.239  18.057  11.114
15845W        W79778  43.329  11.671  14.976
15846W        W79779  44.449  44.442   2.663
15847W        W79780  33.888   4.703  14.395
15848W        W79781  14.685  28.082   3.327
15849W        W79782  16.211  18.546   3.771
15850W        W79783  20.669  35.581   0.818
15851W        W79784   5.852  12.835  11.585
15852W        W79785  28.441  44.496   2.359
15853W        W79786  34.415  37.488  12.559
15854W        W79787  14.192  43.421  10.538
15855W        W79788  40.045  19.234  14.871
15856W        W79789  20.745  34.595  14.279
15857W        W79790  24.166  23.159   1.719
15858W        W79791   8.873  18.770  13.819
15859W        W79792  15.630  30.508   4.157
15860W        W79793   9.686  26.046   0.745
15861W        W79794  34.020  44.376  12.555
15862W        W79795  35.024  44.337   3.359
15863W        W79796  40.537   6.213  13.061
15864W        W79797  31.528   8.873   1.428
15865W        W79798  42.950  39.470  10.578
15866W        W79799  25.066  23.658   3.225
15867W        W79800  17.108  13.754   2.764
15868W        W79801  20.524  12.133  11.525
15869W        W79802  10.738  44.394  11.440
15870W        W79803  44.371  33.488  14.371
15871W        W79804  12.121  40.831   1.915
15872W        W79805  30.572  29.004  12.550
15873W        W79806  39.457  15.176   0.922
15874W        W79807  40.900  29.646   0.367
15875W        W79808  33.971  34.386  12.938
15876W        W79809  40.529  18.776  14.341
15877W        W79810   4.813   5.272   4.769
15878W        W79811  31.640  18.617   4.668
15879W        W79812  24.650  40.019   4.698
15880W        W79813  12.817  20.612   0.824
15881W        W79814   3.936  12.839  11.921
15882W        W79815  30.933  36.359  12.517
15883W        W79816  35.477  21.051  11.392
15884W        W79817  18.781  10.286  11.116
15885W        W79818  40.828  22.638  13.894
15886W        W79819  31.416  43.923  11.118
15887W        W79820  17.749   3.380   0.326
15888W        W79821   1.315   8.205  11.912
15889W        W79822  43.925  23.038  13.403
15890W        W79823   8.280  41.827   1.733
15891W        W79824   3.727  29.533  11.560
15892W        W79825  17.273  13.303  13.532
15893W        W79826  23.227  28.941   4.308
15894W        W79827   1.277   8.244  13.795
15895W        W79828   8.897  25.708  12.553
15896W        W79829  33.394  20.106   3.696
15897W        W79830   0.752  39.903   9.992
15898W        W79831  40.828  17.189  14.860
15899W        W79832  32.922  26.164   0.428
15900W        W79833  35.937  23.570  14.279
15901W        W79834  39.880  39.420   2.716
15902W        W79835  24.046  42.354  13.037
15903W        W79836  24.009  43.927   4.279
15904W        W79837  20.240  13.133  13.910
15905W        W79838   4.735   6.258  14.781
15906W        W79839  11.691   8.371  11.096
15907W        W79840   2.733  11.722   1.756
15908W        W79841  11.373  20.051   3.659
15909W        W79842  21.020  41.297  14.322
15910W        W79843  13.189  44.932   3.835
15911W        W79844  20.134  25.573  12.010
15912W        W79845  33.092  12.655  11.970
15913W        W79846   7.670  12.236  12.455
15914W        W79847  26.596   6.272   0.826
15915W        W79848  11.868  29.108   5.294
15916W        W79849  14.112  17.252   0.363
15917W        W79850   5.208  43.909   0.881
15918W        W79851  30.165  14.736   1.848
15919W        W79852   0.477  41.358   4.306
15920W        W79853   2.967   6.918   3.350
15921W        W79854  23.569  11.240  12.878
15922W        W79855  29.057   5.425   0.371
15923W        W79856  44.858  14.327   1.905
15924W        W79857  29.999  37.950  13.915
15925W        W79858  13.167  12.316  11.886
15926W        W79859  17.598  43.454  13.988
15927W        W79860  42.797  23.620   1.366
15928W        W79861   7.320  39.437   2.801
15929W        W79862  31.960  22.193  13.907
15930W        W79863  32.424  43.279   2.285
15931W        W79864  23.578  33.059  13.382
15932W        W79865  34.083  22.558   1.444
15933W        W79866  27.567  35.414  10.502
15934W        W79867   5.381  25.198  10.946
15935W        W79868  31.636  22.043  14.998
15936W        W79869   7.886  26.467  12.081
15937W        W79870  44.263  14.169   1.812
15938W        W79871  14.338  41.939  13.053
15939W        W79872  28.132  26.151   1.244
15940W        W79873  18.173   0.899   0.467
15941W        W79874  41.860  29.475  14.411
15942W        W79875  23.024  38.507   4.721
15943W        W79876  25.571   1.891  13.366
15944W        W79877  40.313   2.753  13.329
15945W        W79878  24.564  29.433   4.767
15946W        W79879  21.576  29.525   1.295
15947W        W79880  13.322  35.359   3.641
15948W        W79881  11.862  14.212   4.127
15949W        W79882  41.442  33.081  10.443
15950W        W79883   8.663  38.474  14.354
15951W        W79884  32.430   9.701  11.994
15952W        W79885   8.294  44.271   1.294
15953W        W79886  22.040  30.437   4.659
15954W        W79887  24.215   1.436  10.437
15955W        W79888  25.032   4.736   4.817
15956W        W79889  22.718  22.185   2.813
15957W        W79890   4.339  38.071  14.511
15958W        W79891   2.807  26.532   2.222
15959W        W79892  43.419  26.678  12.537
15960W        W79893  22.154  10.206  11.457
15961W        W79894  10.718  11.654   1.821
15962W        W79895  40.834  33.128   2.206
15963W        W79896  31.915   6.416   1.785
15964W        W79897  40.376  37.890  11.079
15965W        W79898  34.051  36.044   1.357
15966W        W79899  36.478   9.371  12.841
15967W        W79900   5.418  16.118  13.903
15968W        W79901  20.066  40.998  11.983
15969W        W79902  26.098  23.604  10.897
15970W        W79903  37.390  16.289  14.798
15971W        W79904   9.272  22.153   1.820
15972W        W79905  20.080  27.064  14.428
15973W        W79906  23.587  38.553   3.313
15974W        W79907  33.916  15.793  13.508
15975W        W79908   1.817  32.967   4.287
15976W        W79909  34.912  32.902  13.963
15977W        W79910   3.852  37.350   2.280
15978W        W79911  13.127   1.308  10.641
15979W        W79912  30.949  30.983  11.959
15980W        W79913   8.242  23.615  11.497
15981W        W79914  42.449   4.245  12.040
15982W        W79915   2.452  18.107  11.075
15983W        W79916  43.407   9.652  13.893
15984W        W79917   1.788   5.339   1.393
15985W        W79918  32.131   4.845  12.084
15986W        W79919  15.260  20.744  13.530
15987W        W79920  15.294  38.900  14.999
15988W        W79921  36.496  39.518   1.415
15989W        W79922  41.398  36.554   9.458
15990W        W79923  23.682  15.668  13.800
15991W        W79924  11.168  28.533  11.453
15992W        W79925  15.110  34.913   1.917
15993W        W79926   5.805  38.339   2.740
15994W        W79927  29.456  38.479   1.289
15995W        W79928   2.920  40.371   0.396
15996W        W79929  37.336   2.759  11.044
15997W        W79930   8.790  11.681   2.728
15998W        W79931  16.265  34.388   2.895
15999W        W79932  13.264   8.845  14.922
16000W        W79933  26.059  18.670  14.863
16001W        W79934  43.334  20.203  10.908
16002W        W79935   6.252  18.144  11.484
16003W        W79936  34.864  40.975   3.635
16004W        W79937  27.094  26.140   0.863
16005W        W79938  34.544  39.938   4.266
16006W        W79939   0.423   7.744  10.951
16007W        W79940   1.862   9.767   1.423
16008W        W79941  44.434  16.806  10.101
16009W        W79942  25.973  32.105  12.964
16010W        W79943  14.737  41.465  12.418
16011W        W79944  17.723  36.379   2.699
16012W        W79945  13.258   3.747  12.515
16013W        W79946  44.808  42.030   1.277
16014W        W79947  11.711  43.505  13.797
16015W        W79948  37.929  10.329  12.960
16016W        W79949  34.522   9.709  11.038
16017W        W79950  24.184  31.401   0.366
16018W        W79951  14.832   5.831   3.815
16019W        W79952  42.957   5.913   4.244
16020W        W79953  25.970  12.149   4.807
16021W        W79954  40.991  36.871  10.025
16022W        W79955  20.579  42.392   2.885
16023W        W79956  16.665  19.143  13.862
16024W        W79957   1.321   7.214  14.910
16025W        W79958   6.794  27.523   0.326
16026W        W79959  10.858  11.859   2.691
16027W        W79960  17.100  35.096  10.935
16028W        W79961   6.739  27.169  10.987
16029W        W79962  31.543  26.993   3.790
16030W        W79963   6.301  43.938   3.735
16031W        W79964   5.325   4.362   3.167
16032W        W79965  28.472  43.995   1.757
16033W        W79966  36.947  12.185  13.056
16034W        W79967  23.042  34.924   1.331
16035W        W79968  23.095  18.170   2.748
16036W        W79969  35.553  29.082   2.864
16037W        W79970  19.178  28.565  13.995
16038W        W79971  13.642  11.850  10.945
16039W        W79972  33.099  21.165   3.734
16040W        W79973  27.029   6.225   2.685
16041W        W79974  27.562  35.486  11.859
16042W        W79975  32.501  12.845   1.725
16043W        W79976  15.679   9.879  13.428
16044W        W79977  41.535  34.568  12.085
16045W        W79978  14.296  18.570  13.479
16046W        W79979  44.767  21.057   0.813
16047W        W79980   0.772  27.522   2.343
16048W        W79981  34.937   9.699   3.746
16049W        W79982  25.635  30.605  13.413
16050W        W79983  19.727  15.687   2.287
16051W        W79984   7.359  42.342   2.858
16052W        W79985   1.972  32.064  11.058
16053W        W79986  34.111  13.614  12.851
16054W        W79987  39.439  35.405  11.410
16055W        W79988  24.026  11.719   0.480
16056W        W79989   1.883  41.039  10.551
16057W        W79990   9.340  43.376  11.059
16058W        W79991  27.477  11.255  14.765
16059W        W79992  37.050  41.507   2.369
16060W        W79993  34.917   6.308   4.812
16061W        W79994  23.704  13.237   3.194
16062W        W79995   7.766  31.549   3.814
16063W        W79996  36.366  25.126   1.830
16064W        W79997  41.024  34.966   3.285
16065W        W79998  21.253  23.205  13.046
16066W        W79999  42.948  31.426  11.991
16067W        W80000  30.151   5.712  12.894
16068W        W80001  33.394   5.869   1.758
16069W        W80002   0.421   7.811   3.672
16070W        W80003  19.105  35.870  14.810
16071W        W80004  28.125  17.142  10.418
16072W        W80005  19.049  14.324   2.415
16073W        W80006  21.569  27.494   4.686
16074W        W80007  19.591  41.825  12.090
16075W        W80008  33.976  42.367   3.220
16076W        W80009  44.481  25.571   0.782
16077W        W80010   5.410  34.470   0.921
16078W        W80011   0.292  38.452   3.310
16079W        W80012  35.369   8.870   3.252
16080W        W80013  13.658  41.952   1.258
16081W        W80014  34.045  13.240   3.783
16082W        W80015  16.721   8.387   1.753
16083W        W80016  16.266   8.727  10.492
16084W        W80017  26.528  40.002  10.471
16085W        W80018  34.884  30.499   2.770
16086W        W80019   8.261   5.213  13.545
16087W        W80020   3.710  23.150  14.887
16088W        W80021  26.663  19.669   1.431
16089W        W80022  38.997  33.895   4.728
16090W        W80023  10.673  11.825  12.528
16091W        W80024  39.922  30.549   2.846
16092W        W80025  27.490  26.500  13.012
16093W        W80026  39.445  31.983  14.866
16094W        W80027   1.297  10.295  11.551
16095W        W80028  37.007  25.081  10.617
16096W        W80029  11.658  29.136  13.371
16097W        W80030  12.703  17.590   4.185
16098W        W80031  12.245   7.690  13.378
16099W        W80032   6.319   3.300  14.002
16100W        W80033  31.633  20.164  10.958
16101W        W80034  23.708  37.859  11.958
16102W        W80035  41.992  30.526   9.998
16103W        W80036   4.923   6.306  13.502
16104W        W80037   1.764  42.860   0.466
16105W        W80038  42.938  23.122  12.009
16106W        W80039  41.818  17.300   2.707
16107W        W80040  26.610   4.890  13.927
16108W        W80041  16.696  17.658  14.371
16109W        W80042  27.168  24.567  14.924
16110W        W80043   8.203  29.503   3.706
16111W        W80044  20.695  25.579  13.903
16112W        W80045   2.742   2.403   1.715
16113W        W80046  29.641  20.126  14.409
16114W        W80047  23.507  37.906   2.276
16115W        W80048  33.894  41.859  12.892
16116W        W80049  15.605  14.753   5.310
16117W        W80050   8.847  31.927   4.143
16118W        W80051  24.130   6.343   1.267
16119W        W80052  10.856  43.451   1.923
16120W        W80053  15.682  39.967  12.040
16121W        W80054   7.196  44.821  12.517
16122W        W80055  38.516  29.451   0.394
16123W        W80056  40.493  32.025  10.046
16124W        W80057  44.294  26.671   3.801
16125W        W80058  10.355  24.197   5.170
16126W        W80059  40.033   9.197  10.595
16127W        W80060  41.311  17.605   3.756
16128W        W80061  42.952  33.470   2.846
16129W        W80062  11.238  37.921  11.517
16130W        W80063  43.455   5.749   4.600
16131W        W80064  15.623   5.432  10.977
16132W        W80065  11.790  25.497   1.262
16133W        W80066  19.761  44.269   4.794
16134W        W80067  41.475  33.954  11.918
16135W        W80068   2.867  44.844   3.199
16136W        W80069  12.678  44.318   4.201
16137W        W80070  22.101  32.967   0.744
16138W        W80071  19.172  17.250  13.356
16139W        W80072  11.624  40.370   3.697
16140W        W80073  10.205  16.156   0.807
16141W        W80074  20.037  16.305   4.682
16142W        W80075  32.139  39.553  14.515
16143W        W80076  38.391   9.693   3.232
16144W        W80077  19.667  26.048   2.335
16145W        W80078  36.089  30.934  13.061
16146W        W80079  34.944  27.184  10.452
16147W        W80080   1.447   2.957   1.883
16148W        W80081   4.717  22.655   4.114
16149W        W80082  30.500  18.724   4.200
16150W        W80083  25.205  35.881  13.977
16151W        W80084  34.120  12.668  12.032
16152W        W80085  36.458  28.183   0.303
16153W        W80086  15.229  10.697   1.776
16154W        W80087   3.358   0.759  10.598
16155W        W80088  32.909  35.963   3.356
16156W        W80089  26.645  20.128  14.000
16157W        W80090  35.957  39.346  13.441
16158W        W80091  13.685  23.727   2.895
16159W        W80092   3.457   8.893   2.714
16160W        W80093  31.642  15.596   3.654
16161W        W80094  22.714  13.248   2.761
16162W        W80095   3.461   2.389   0.759
16163W        W80096  14.813  43.429  11.120
16164W        W80097   7.354  33.907  11.878
16165W        W80098  23.236  17.090  13.407
16166W        W80099  40.992  37.427   1.309
16167W        W80100  22.025   7.806  11.393
16168W        W80101  38.519  38.947  12.002
16169W        W80102  44.434   8.869   4.142
16170W        W80103   0.914  41.343   5.116
16171W        W80104  31.937  18.598  13.815
16172W        W80105  27.087  36.575   4.163
16173W        W80106  16.194  36.080   2.391
16174W        W80107  31.570  18.581   1.766
16175W        W80108   8.701  38.971  11.510
16176W        W80109  33.445   9.202  14.298
16177W        W80110  42.905  17.284  12.574
16178W        W80111   0.959  33.385   4.336
16179W        W80112  20.139  30.490   3.837
16180W        W80113  17.186  42.310  11.500
16181W        W80114   2.334  35.961   1.795
16182W        W80115  31.948  12.616  14.436
16183W        W80116  31.126  41.886   4.221
16184W        W80117  10.770  13.780  12.025
16185W        W80118  24.584  28.458   3.151
16186W        W80119   9.729  32.084  13.811
16187W        W80120  43.395  23.236   3.374
16188W        W80121  24.687  24.569   1.332
16189W        W80122  26.625  26.094   1.327
16190W        W80123  35.951   1.742   4.181
16191W        W80124  30.613  17.741  11.573
16192W        W80125  33.492  21.694  11.872
16193W        W80126  26.637  39.425  10.992
16194W        W80127  42.366  11.200  14.896
16195W        W80128  29.119  13.168  12.489
16196W        W80129  14.775  38.868   1.410
16197W        W80130  17.587   6.225  14.422
16198W        W80131   9.213  31.417  11.521
16199W        W80132   3.821  19.729  12.862
16200W        W80133  34.974   9.197  14.468
16201W        W80134  23.241   0.444  12.061
16202W        W80135  21.753  44.973  12.449
16203W        W80136   3.448   0.444  11.537
16204W        W80137   6.832  34.910  14.945
16205W        W80138   2.256   3.239   3.231
16206W        W80139   8.890  12.824  13.506
16207W        W80140  40.865  41.002   2.661
16208W        W80141  37.892   5.390   2.763
16209W        W80142  42.495  37.401  12.044
16210W        W80143  18.775  11.737   1.419
16211W        W80144   7.386  25.967   3.774
16212W        W80145  27.130   1.876   5.178
16213W        W80146   0.408  41.867  12.551
16214W        W80147   5.744  24.179  13.015
16215W        W80148  18.081  34.585  11.422
16216W        W80149  14.297  28.570   4.604
16217W        W80150  12.153   3.877   3.189
16218W        W80151  36.896   6.697  13.795
16219W        W80152   5.433  32.504  10.609
16220W        W80153  22.200   4.389  14.375
16221W        W80154   2.879  10.309  12.445
16222W        W80155  19.577  36.047   0.787
16223W        W80156  33.421  24.554  12.899
16224W        W80157   3.277  37.577   1.825
16225W        W80158  35.093  26.121   3.359
16226W        W80159  11.244  40.355  14.504
16227W        W80160  10.219  41.885  10.462
16228W        W80161  39.428   9.833   0.404
16229W        W80162  25.177  33.586   1.444
16230W        W80163  31.118  21.156   3.665
16231W        W80164   1.264   5.751   1.251
16232W        W80165  22.609  16.100  14.370
16233W        W80166   1.406  38.892  10.503
16234W        W80167   7.784  16.152  11.522
16235W        W80168  32.042  27.615  10.083
16236W        W80169  26.500  43.416  11.892
16237W        W80170  14.215  16.237  13.491
16238W        W80171  31.054  42.411  10.587
16239W        W80172  37.011   1.479  11.087
16240W        W80173  10.804   3.401   3.765
16241W        W80174  35.907   7.201  13.909
16242W        W80175  16.170  25.024  14.982
16243W        W80176  10.180  10.784   0.902
16244W        W80177   9.343  31.643  13.803
16245W        W80178  26.074  21.663  10.427
16246W        W80179  39.947   1.790  14.953
16247W        W80180   6.829  40.024  14.292
16248W        W80181   0.310  36.559  14.319
16249W        W80182  14.277  17.154   2.373
16250W        W80183  26.590  13.756  12.059
16251W        W80184   9.322   4.930  10.033
16252W        W80185  41.843  37.858   1.796
16253W        W80186   8.660  21.037  13.391
16254W        W80187  33.427   9.813  12.416
16255W        W80188   5.729  40.010  10.465
16256W        W80189   7.724  11.316   4.326
16257W        W80190  14.160  18.731   0.291
16258W        W80191  20.178  41.791   4.814
16259W        W80192  16.164  20.618  12.912
16260W        W80193  17.269  11.329  12.535
16261W        W80194  20.745  42.345  14.947
16262W        W80195  36.073   6.262   2.272
16263W        W80196  21.179  27.479  14.805
16264W        W80197  10.380  32.896   1.241
16265W        W80198  16.148  28.497   3.820
16266W        W80199  40.984  36.018   4.782
16267W        W80200  34.468   7.711   0.413
16268W        W80201  29.545  35.055   5.313
16269W        W80202  14.315  31.996  11.071
16270W        W80203  18.786   2.790   0.393
16271W        W80204  14.168  30.498  12.931
16272W        W80205   1.927  11.322  14.851
16273W        W80206   9.782   5.387  13.351
16274W        W80207  29.127  33.618   0.815
16275W        W80208  24.629  31.545  12.563
16276W        W80209  18.610  33.953   4.235
16277W        W80210  18.745  44.895  11.456
16278W        W80211  24.076  18.282   1.838
16279W        W80212   5.709  13.764  11.462
16280W        W80213  18.210  22.513   2.853
16281W        W80214  12.799   6.844  14.024
16282W        W80215  13.178  15.784  10.954
16283W        W80216   2.418  33.044   0.446
16284W        W80217   1.271   4.857  11.500
16285W        W80218  16.290  29.993   3.200
16286W        W80219  39.545  35.511   0.781
16287W        W80220   0.989   5.802   2.681
16288W        W80221  25.477  13.114   9.463
16289W        W80222   3.369  10.266  13.899
16290W        W80223  15.724   9.299  14.896
16291W        W80224   0.381  32.072   4.354
16292W        W80225  22.042  39.851  13.007
16293W        W80226  35.399   4.814  11.943
16294W        W80227  30.601   0.818  14.887
16295W        W80228  24.596  36.019   3.373
16296W        W80229  21.735  35.526   2.787
16297W        W80230  36.526  22.604  13.968
16298W        W80231   1.384  28.036   2.390
16299W        W80232   7.735  26.521  11.070
16300W        W80233   6.746  24.189  12.065
16301W        W80234   9.348  25.644  12.530
16302W        W80235  42.454   9.230  12.915
16303W        W80236  23.060  25.484  10.951
16304W        W80237   5.773  39.494   4.602
16305W        W80238  11.624  16.796   4.817
16306W        W80239  26.583   9.787   1.918
16307W        W80240   6.683  31.628   1.783
16308W        W80241  25.650  39.416  11.913
16309W        W80242   2.813   4.342   2.719
16310W        W80243  43.769  39.474   2.828
16311W        W80244  24.114  25.014  10.429
16312W        W80245  25.589  21.582   4.215
16313W        W80246  43.473  41.997  13.933
16314W        W80247  20.094   2.375  13.324
16315W        W80248  40.054  28.660  13.866
16316W        W80249   3.794   4.238  13.885
16317W        W80250  24.712  25.660   0.368
16318W        W80251   7.819  25.049  14.360
16319W        W80252  27.080   8.330  13.793
16320W        W80253  34.901  24.098   4.644
16321W        W80254  19.069  41.410  13.386
16322W        W80255  27.603   3.403   1.402
16323W        W80256   0.474  10.145   4.205
16324W        W80257  28.484  27.586   3.257
16325W        W80258  39.433  23.007   2.365
16326W        W80259  43.400  38.889  14.304
16327W        W80260  20.683  19.086   9.995
16328W        W80261  31.022  19.152   1.794
16329W        W80262  17.595  42.881  13.356
16330W        W80263  40.807  29.918  11.083
16331W        W80264   6.221  29.638  11.966
16332W        W80265   4.712  40.344   3.175
16333W        W80266  25.054  36.360   2.381
16334W        W80267  37.462  43.887  12.562
16335W        W80268  22.689  40.411   5.305
16336W        W80269  10.774  28.961  14.977
16337W        W80270   8.868   9.245   1.316
16338W        W80271  15.769  17.181   3.361
16339W        W80272  20.107  22.516   1.734
16340W        W80273  44.836   6.896   2.707
16341W        W80274  32.426  25.969   0.381
16342W        W80275  33.426  35.997   4.274
16343W        W80276  32.597   6.725  11.061
16344W        W80277  31.639  41.437  12.367
16345W        W80278  36.382  17.721   0.266
16346W        W80279   1.395  34.582  13.948
16347W        W80280   0.872   8.897  14.005
16348W        W80281  21.063  13.649  10.624
16349W        W80282   4.935  28.174  11.994
16350W        W80283   3.714  16.687   2.340
16351W        W80284  24.022  20.556   3.650
16352W        W80285   4.779  14.120   2.370
16353W        W80286  32.396  26.521  11.386
16354W        W80287   2.265  43.957   0.473
16355W        W80288  14.291  31.036   3.665
16356W        W80289  40.450  18.617   2.180
16357W        W80290   9.816  25.162   1.416
16358W        W80291  37.420  26.614   3.712
16359W        W80292  14.671   6.914   3.711
16360W        W80293  24.977  38.873  10.973
16361W        W80294  16.307  42.007  12.910
16362W        W80295   1.285  19.703   1.857
16363W        W80296  16.105  20.658   0.364
16364W        W80297  41.520  37.888  12.569
16365W        W80298  11.796  12.254   2.877
16366W        W80299  17.095  29.574   0.468
16367W        W80300  21.596   8.761   3.832
16368W        W80301  30.006  40.976  13.339
16369W        W80302  24.694  38.053   4.167
16370W        W80303  33.060   2.927  12.548
16371W        W80304  10.339   8.671   2.373
16372W        W80305   9.180  38.521   1.903
16373W        W80306   6.888  37.541  11.602
16374W        W80307  13.296  31.619  12.404
16375W        W80308  29.124  14.322   2.388
16376W        W80309   9.160  39.844   0.430
16377W        W80310  17.774  40.463   0.869
16378W        W80311  23.155   9.740   3.736
16379W        W80312  22.634  22.535   4.169
16380W        W80313   5.244  34.112  13.464
16381W        W80314  15.166  28.162  12.938
16382W        W80315  30.991  16.691   1.366
16383W        W80316  38.867  39.020   4.208
16384W        W80317  27.000  11.797   1.820
16385W        W80318  40.438   3.786   0.268
16386W        W80319   6.327  39.463   3.858
16387W        W80320  29.643  36.937   4.147
16388W        W80321  21.116  41.968  14.426
16389W        W80322  10.652  26.008  14.015
16390W        W80323  38.414  39.960   1.920
16391W        W80324   2.917  31.034   0.449
16392W        W80325   3.947  33.559  10.605
16393W        W80326  31.071   4.860  10.903
16394W        W80327  27.472  35.852  13.481
16395W        W80328  43.275   9.864   3.204
16396W        W80329  25.491  33.122   1.267
16397W        W80330  30.054  30.954   0.845
16398W        W80331  30.023  42.831   4.661
16399W        W80332  35.360  14.096  13.862
16400W        W80333  16.110  25.069  10.634
16401W        W80334  42.876  10.222  14.449
16402W        W80335  24.164  39.840   4.725
16403W        W80336  35.999  35.416  12.012
16404W        W80337  33.012  15.677  11.016
16405W        W80338   9.845  17.720  12.839
16406W        W80339  17.142  28.956   2.406
16407W        W80340  28.079   7.337  11.550
16408W        W80341  22.077  31.431  11.491
16409W        W80342  25.979   3.242   4.652
16410W        W80343   9.733  18.132   0.741
16411W        W80344   6.188   5.716  13.312
16412W        W80345  18.252  37.355   4.607
16413W        W80346  23.178  43.839  13.885
16414W        W80347  12.211  16.598  13.024
16415W        W80348  20.122  30.633  14.901
16416W        W80349   2.268  29.112  13.337
16417W        W80350  39.928   4.714  10.427
16418W        W80351  25.065  35.017  12.371
16419W        W80352  38.446   7.852  14.481
16420W        W80353   4.771  15.611   9.982
16421W        W80354  34.007  29.101  13.890
16422W        W80355  28.602  10.163   1.916
16423W        W80356  40.032  31.076  11.583
16424W        W80357  31.005  32.931  11.971
16425W        W80358  24.673  34.049   3.340
16426W        W80359  20.128  15.584   2.782
16427W        W80360  42.820   4.324  12.062
16428W        W80361  44.438  44.424   3.157
16429W        W80362  33.939  30.038  11.416
16430W        W80363   6.396  30.414  10.516
16431W        W80364   6.316  31.940   1.269
16432W        W80365  41.477  21.645  10.643
16433W        W80366   2.251  11.233   2.849
16434W        W80367  43.420   3.406   0.910
16435W        W80368  42.379  23.564   3.244
16436W        W80369   5.420  12.337   4.176
16437W        W80370  18.594  29.965   0.315
16438W        W80371  22.248   4.409  13.925
16439W        W80372  31.968   6.825   2.378
16440W        W80373   0.815  41.527   3.381
16441W        W80374  33.545  35.495  12.000
16442W        W80375  41.826  23.140  11.539
16443W        W80376  30.066  36.049  14.279
16444W        W80377   0.267  31.419  13.447
16445W        W80378  14.598   5.726   0.359
16446W        W80379  27.961  37.549   3.683
16447W        W80380   6.814   5.348   0.817
16448W        W80381   1.937  41.959  13.494
16449W        W80382  44.471  30.911   1.775
16450W        W80383  40.046  24.549  10.486
16451W        W80384  21.157  43.404   2.811
16452W        W80385  32.419   5.367  12.430
16453W        W80386  43.781  11.707  12.483
16454W        W80387  23.622   4.705  12.834
16455W        W80388  37.520  37.360   3.186
16456W        W80389  43.447  32.579  14.978
16457W        W80390   0.288   5.826   0.791
16458W        W80391  17.290  40.977  13.945
16459W        W80392  21.690   2.812  11.590
16460W        W80393  32.056  22.612  10.924
16461W        W80394  15.206  17.727   2.359
16462W        W80395   5.339   0.247  12.007
16463W        W80396  16.667  14.270   2.398
16464W        W80397   6.808   7.362   1.890
16465W        W80398  42.412  32.414  13.018
16466W        W80399  37.862   3.448   2.191
16467W        W80400  24.630  41.443   1.900
16468W        W80401  43.341  35.069   5.647
16469W        W80402   3.761  19.771   3.317
16470W        W80403  43.294  20.675  12.541
16471W        W80404  19.103  24.513  14.484
16472W        W80405   8.831  14.170  14.383
16473W        W80406  42.897  42.449  13.014
16474W        W80407  38.000  20.761   3.841
16475W        W80408  13.191  16.225  10.591
16476W        W80409  35.403  33.968  14.420
16477W        W80410  25.999  39.462  12.861
16478W        W80411  16.695   1.881  12.505
16479W        W80412  10.824  33.092  13.990
16480W        W80413  27.166  29.995   0.938
16481W        W80414  28.646  14.794  12.088
16482W        W80415  25.970  23.612   0.772
16483W        W80416  44.755  13.816   2.247
16484W        W80417  36.439   3.271  11.065
16485W        W80418  19.259  14.605  10.405
16486W        W80419   0.419  21.238  11.595
16487W        W80420   3.399  34.419  13.809
16488W        W80421  44.884  34.522  14.506
16489W        W80422  25.142  29.656   0.853
16490W        W80423  30.619  38.005   3.838
16491W        W80424  17.307  11.725  11.914
16492W        W80425  23.025  42.900  12.011
16493W        W80426  40.361  30.992   0.848
16494W        W80427  42.427  30.107   4.818
16495W        W80428  17.767  32.512  13.466
16496W        W80429  38.907   6.422  12.010
16497W        W80430  30.030  32.926  12.072
16498W        W80431  10.694  27.675  12.500
16499W        W80432  27.947  27.164   3.350
16500W        W80433  23.986  41.360  13.852
16501W        W80434  13.214  25.032   1.423
16502W        W80435  40.434  35.988   4.775
16503W        W80436  38.483   4.359   3.856
16504W        W80437  24.196  18.136  11.941
16505W        W80438  16.187  33.011   0.944
16506W        W80439   2.442  38.062   4.735
16507W        W80440  24.173  19.585  14.841
16508W        W80441  33.590   2.422  10.635
16509W        W80442  16.273  42.926  14.798
16510W        W80443  24.612  37.451  14.949
16511W        W80444  34.930  30.530  14.348
16512W        W80445  44.835  42.018  13.451
16513W        W80446  24.092   5.898  11.398
16514W        W80447   4.305  36.410   4.229
16515W        W80448  18.145   4.885   3.744
16516W        W80449  17.211   7.666  13.850
16517W        W80450  31.996  24.612   1.315
16518W        W80451  41.390  36.908  11.127
16519W        W80452  18.242   5.240  11.963
16520W        W80453  10.879  22.155  13.854
16521W        W80454  31.412  29.165  10.414
16522W        W80455  35.503   6.358  12.985
16523W        W80456   6.825  35.875   4.352
16524W        W80457  17.684  31.078  14.885
16525W        W80458  15.173  18.116   0.352
16526W        W80459  41.895   8.658  12.381
16527W        W80460  20.030  11.194   2.868
16528W        W80461  15.675  22.505   0.315
16529W        W80462  14.196  27.571  12.577
16530W        W80463  12.233  39.900  10.906
16531W        W80464   5.893  10.317   3.812
16532W        W80465  10.178  41.533  11.545
16533W        W80466  31.134  36.434  11.531
16534W        W80467   3.275  18.113   4.158
16535W        W80468  31.978  21.192  12.487
16536W        W80469   9.866  32.550   0.746
16537W        W80470  35.534  10.713  12.428
16538W        W80471  44.290  34.982   0.955
16539W        W80472  10.821  37.476  14.944
16540W        W80473  16.263  41.948  11.938
16541W        W80474  14.328  23.009   4.257
16542W        W80475  11.259  27.185  11.107
16543W        W80476  27.672  41.018  11.576
16544W        W80477  11.798  12.244  11.477
16545W        W80478  38.392  27.514   4.672
16546W        W80479  38.392  12.667  10.485
16547W        W80480  36.548  23.709  13.451
16548W        W80481  14.710  41.385  11.473
16549W        W80482  25.072   6.699   4.803
16550W        W80483  27.519  41.009   3.688
16551W        W80484  19.686   0.435   2.212
16552W        W80485  18.646  37.068  14.889
16553W        W80486  38.004   5.420  11.418
16554W        W80487  29.930  26.007   3.181
16555W        W80488  35.394  25.072   3.796
16556W        W80489  22.561   1.871   3.355
16557W        W80490  30.626  11.813   4.836
16558W        W80491   4.292  32.582   2.215
16559W        W80492  42.917  36.578  12.347
16560W        W80493  31.072  12.354   1.340
16561W        W80494  21.170  18.719  10.989
16562W        W80495  35.525  31.068   2.181
16563W        W80496  27.007  36.870  12.089
16564W        W80497  42.908  41.956   4.642
16565W        W80498   1.378  13.775   3.339
16566W        W80499  35.081  42.945  10.086
16567W        W80500   5.802  39.325   2.890
16568W        W80501   9.306  30.912   4.173
16569W        W80502   5.278  23.540  13.481
16570W        W80503   9.154   1.824  14.847
16571W        W80504  14.270   9.848   0.920
16572W        W80505  39.390  11.790  11.544
16573W        W80506  24.000   8.885  11.376
16574W        W80507  36.348  19.623   0.371
16575W        W80508   6.784  18.627   1.845
16576W        W80509  27.559  18.609   1.351
16577W        W80510  29.132  32.117   0.886
16578W        W80511   8.290  24.691  12.921
16579W        W80512  22.012  26.065   5.787
16580W        W80513  31.471  19.738   1.267
16581W        W80514  35.428  36.888  14.899
16582W        W80515  26.591  13.303  12.827
16583W        W80516  27.032  34.051   0.411
16584W        W80517  26.476  40.977  10.967
16585W        W80518  12.265   2.406  11.559
16586W        W80519  15.191  38.031   2.222
16587W        W80520  19.611  31.979   1.421
16588W        W80521  25.155  18.065  12.514
16589W        W80522  33.917  30.638  13.518
16590W        W80523  44.827  16.130  13.992
16591W        W80524  36.570   0.796   0.746
16592W        W80525  18.607  17.100  11.508
16593W        W80526  32.418  40.000  12.575
16594W        W80527  39.391  30.996   3.649
16595W        W80528  22.656  18.571   2.694
16596W        W80529   6.218  21.717  12.355
16597W        W80530  15.636   3.955  13.970
16598W        W80531  36.061   3.311   0.438
16599W        W80532  28.524  42.798  12.870
16600W        W80533  32.072  23.698   0.869
16601W        W80534   2.263   5.206   0.840
16602W        W80535   4.369  30.164   2.351
16603W        W80536  11.701   2.249  14.790
16604W        W80537  25.677  40.942  13.441
16605W        W80538  27.535   7.192  11.038
16606W        W80539   5.702  17.230  12.090
16607W        W80540  24.108   7.192   3.346
16608W        W80541  23.046  10.147   0.773
16609W        W80542  42.802  39.865  11.017
16610W        W80543  24.051   5.863   3.356
16611W        W80544  42.434  34.045  13.017
16612W        W80545  41.424  34.444  10.475
16613W        W80546  17.088  34.487  13.849
16614W        W80547  29.006  15.184   2.712
16615W        W80548  39.318  21.192   2.340
16616W        W80549  21.700   3.330  10.148
16617W        W80550  35.949   5.805  12.362
16618W        W80551  28.005  29.480  11.605
16619W        W80552   5.345  42.801   5.243
16620W        W80553  16.083  42.934  12.541
16621W        W80554  18.566   3.383  12.846
16622W        W80555  34.410  40.370  14.307
16623W        W80556  37.343   7.407   1.801
16624W        W80557  29.956  31.907  11.483
16625W        W80558   8.240   1.818   3.834
16626W        W80559  44.345  14.747  14.388
16627W        W80560  22.168   6.327   3.267
16628W        W80561  25.156  42.506  14.980
16629W        W80562  24.987  11.137  14.021
16630W        W80563   9.872  14.744   1.351
16631W        W80564  12.813  28.934   4.709
16632W        W80565  18.744   2.325   2.737
16633W        W80566  21.642  36.987   0.359
16634W        W80567  35.905  37.999   2.726
16635W        W80568  23.090  21.231  13.819
16636W        W80569  34.863  19.062   2.721
16637W        W80570  26.576  19.061   3.832
16638W        W80571   9.332  28.052  13.927
16639W        W80572  17.148   5.849  13.370
16640W        W80573   9.258   6.734  12.347
16641W        W80574  13.801  14.645  12.849
16642W        W80575  27.101  22.076  11.857
16643W        W80576  17.295  26.184  11.438
16644W        W80577  11.779  37.367  13.857
16645W        W80578  42.432  33.029   3.718
16646W        W80579  21.644  10.366   1.754
16647W        W80580  37.851   8.306   3.207
16648W        W80581  16.200  34.374  14.429
16649W        W80582  12.744  14.698   2.732
16650W        W80583   7.803  33.394   5.081
16651W        W80584  34.995   8.682  14.974
16652W        W80585   5.915  30.033   3.799
16653W        W80586   5.250  41.826   3.644
16654W        W80587   6.243  32.455   2.208
16655W        W80588  13.838   7.777  10.010
16656W        W80589  11.250  14.695   4.292
16657W        W80590  44.372  11.204  12.378
16658W        W80591   2.452  23.031   2.683
16659W        W80592  38.489   5.277   3.716
16660W        W80593   3.718  11.645   3.772
16661W        W80594  10.865  10.653  12.480
16662W        W80595  25.503   8.265   4.658
16663W        W80596  13.147  24.230  13.371
16664W        W80597   6.206  31.521  11.569
16665W        W80598   1.317   0.367  13.465
16666W        W80599  14.116  24.023  13.886
16667W        W80600  21.076  44.954  10.550
16668W        W80601  21.260  13.241  14.928
16669W        W80602  32.441  33.108  10.629
16670W        W80603   3.223  23.700   3.790
16671W        W80604  30.571  14.289   0.459
16672W        W80605   4.775   8.842   4.788
16673W        W80606  40.973  38.380  14.475
16674W        W80607   4.244  39.457  13.931
16675W        W80608  42.789  12.256  11.388
16676W        W80609  22.583  40.505   2.181
16677W        W80610  19.172  30.926   3.637
16678W        W80611  29.468  32.908   3.328
16679W        W80612  20.569  11.832   2.805
16680W        W80613  37.383  13.208  10.560
16681W        W80614  43.895   9.368  12.862
16682W        W80615  24.142   2.448   2.726
16683W        W80616  24.114   9.384  11.396
16684W        W80617   3.924   3.905  14.307
16685W        W80618   3.792   8.895   1.250
16686W        W80619   6.871  32.611  11.417
16687W        W80620   2.458  34.067   3.703
16688W        W80621  26.486   4.223  11.508
16689W        W80622   8.340  40.890   3.162
16690W        W80623   0.753  38.404  10.523
16691W        W80624  23.064   1.794   4.827
16692W        W80625  23.651  37.565   1.881
16693W        W80626  28.054  42.304   3.312
16694W        W80627  25.713   1.968  13.850
16695W        W80628  14.281   9.377  12.542
16696W        W80629  18.676  38.958   1.848
16697W        W80630  34.879  29.043   4.664
16698W        W80631   0.401   9.678   0.905
16699W        W80632  27.947  37.909  10.894
16700W        W80633   0.340  16.752   1.229
16701W        W80634  29.632  43.013  11.030
16702W        W80635   6.233   9.724  14.990
16703W        W80636   3.425   3.857   1.363
16704W        W80637   0.984  22.131  13.888
16705W        W80638  34.092   0.426   3.708
16706W        W80639  38.847  28.119   2.378
16707W        W80640   1.745  13.834  12.432
16708W        W80641  14.296  35.471   2.189
16709W        W80642   9.651   1.738   1.373
16710W        W80643   2.942  23.096  10.444
16711W        W80644  36.885  12.670  12.855
16712W        W80645   7.315  27.117  13.414
16713W        W80646  27.191  29.513  11.039
16714W        W80647  13.277  12.124   4.726
16715W        W80648  35.395  15.327  10.502
16716W        W80649  30.615  10.374   0.456
16717W        W80650  43.307   2.807  12.537
16718W        W80651  10.244  15.270  11.376
16719W        W80652  29.122  26.951   3.351
16720W        W80653  18.659   4.741   9.934
16721W        W80654   3.775   6.895  10.967
16722W        W80655  37.544  42.784   4.285
16723W        W80656  20.138   1.368  13.940
16724W        W80657  35.959  42.804   2.692
16725W        W80658  42.356   3.228   1.308
16726W        W80659  10.728   4.894  12.048
16727W        W80660  32.546  38.836  14.008
16728W        W80661   2.246  26.040   0.858
16729W        W80662  20.644  22.675  12.948
16730W        W80663  41.943  18.549   1.254
16731W        W80664   1.346  33.529  11.519
16732W        W80665  25.622  25.623   3.858
16733W        W80666   5.315  15.227   2.187
16734W        W80667  27.629  42.988  12.379
16735W        W80668  14.280  15.306   3.374
16736W        W80669  11.678  30.601  14.972
16737W        W80670  43.448   5.433   2.306
16738W        W80671   1.740  40.815   4.655
16739W        W80672  17.760   1.314  11.029
16740W        W80673   6.404  17.628  13.003
16741W        W80674   4.306  15.304  12.927
16742W        W80675  14.647  10.682   4.832
16743W        W80676   4.755   9.761   4.288
16744W        W80677  37.425  27.141   1.233
16745W        W80678  35.364  16.760   3.816
16746W        W80679  30.597  26.681  11.511
16747W        W80680   8.737  37.542  10.613
16748W        W80681   8.655  12.138  10.441
16749W        W80682  19.085  26.159  12.470
16750W        W80683  25.972  20.616   3.315
16751W        W80684  16.683  21.263  13.394
16752W        W80685  37.518  13.695  11.008
16753W        W80686  13.643  27.118  14.019
16754W        W80687  34.526  26.632   2.257
16755W        W80688  33.568  35.086  11.587
16756W        W80689  21.110  28.136   0.943
16757W        W80690  22.510  10.196   4.819
16758W        W80691  13.661  11.644   3.735
16759W        W80692  24.988  10.200  14.819
16760W        W80693   3.434  38.977   4.178
16761W        W80694  43.015  38.826  10.449
16762W        W80695  25.033  22.105  11.872
16763W        W80696  12.176  34.006   2.664
16764W        W80697  28.598   0.413  12.885
16765W        W80698  32.938  25.122   1.718
16766W        W80699  44.505   5.271   1.346
16767W        W80700  26.062   3.403  10.617
16768W        W80701  29.478  28.955  10.084
16769W        W80702  23.543   6.330  13.847
16770W        W80703  10.875  35.919   2.722
16771W        W80704  28.444  38.428   3.748
16772W        W80705   7.406   8.814   3.787
16773W        W80706  44.828  42.493   0.852
16774W        W80707  13.758  42.829   2.230
16775W        W80708   1.891   1.904  14.007
16776W        W80709  31.546  34.409   1.233
16777W        W80710   4.208  40.863  14.770
16778W        W80711  29.502  11.285  12.868
16779W        W80712  16.093  43.785  10.642
16780W        W80713  24.170  17.203  13.524
16781W        W80714  32.059  34.990   4.775
16782W        W80715  22.995  18.243   0.772
16783W        W80716  14.224  39.418   4.763
16784W        W80717  32.484  33.464  13.374
16785W        W80718  40.027  13.277   1.888
16786W        W80719  13.174  42.779   2.835
16787W        W80720  39.314  35.938  11.978
16788W        W80721   7.311   8.874   2.816
16789W        W80722  21.695  37.432   3.383
16790W        W80723  35.026  34.088  13.449
16791W        W80724   8.323   8.841  13.050
16792W        W80725  39.046  25.593   0.256
16793W        W80726  36.969  15.129  13.999
16794W        W80727  33.576  31.402   3.716
16795W        W80728  31.966  21.143  11.863
16796W        W80729  10.275  33.399   4.127
16797W        W80730  36.489  39.002  13.311
16798W        W80731  14.094  25.655   3.827
16799W        W80732  10.194  20.741   2.770
16800W        W80733  44.849  14.715   1.214
16801W        W80734   2.364   5.789   1.824
16802W        W80735  11.200  16.719   1.822
16803W        W80736  21.095   6.734  13.323
16804W        W80737  28.998   8.259   4.199
16805W        W80738  13.715  41.316  14.788
16806W        W80739  20.597   7.263  12.916
16807W        W80740  32.437  19.073   2.224
16808W        W80741  15.761   8.221  11.524
16809W        W80742  32.574  25.168   0.405
16810W        W80743  30.067  28.005   4.276
16811W        W80744  38.016  38.016   1.335
16812W        W80745  33.093  11.188   0.881
16813W        W80746  44.978  18.620  13.328
16814W        W80747  14.172   3.365  13.015
16815W        W80748  12.319   2.282  14.470
16816W        W80749   7.232   9.149   5.242
16817W        W80750  27.676  24.493  11.439
16818W        W80751   3.296  14.783   0.482
16819W        W80752  25.158  16.171  12.971
16820W        W80753  16.291  35.942  12.538
16821W        W80754   9.698  17.142   3.159
16822W        W80755  10.671  42.808  13.849
16823W        W80756  14.801  11.220   0.275
16824W        W80757   2.310  28.654  13.063
16825W        W80758  30.137   7.889  14.829
16826W        W80759  23.129  43.410  13.045
16827W        W80760  37.007  19.140   4.143
16828W        W80761  20.107  21.632   0.450
16829W        W80762  18.162   0.463   4.351
16830W        W80763  44.481   7.304  13.457
16831W        W80764  31.508  36.856  12.357
16832W        W80765  24.573  16.803  12.840
16833W        W80766  12.647  32.059  11.102
16834W        W80767  10.291   5.888   4.197
16835W        W80768  38.447  25.175  12.431
16836W        W80769   4.785  21.529   2.317
16837W        W80770   6.822   8.876   4.638
16838W        W80771  38.415  43.302   3.802
16839W        W80772  39.064   5.791  11.863
16840W        W80773  10.660  38.479  11.993
16841W        W80774  20.742  37.929   3.760
16842W        W80775  17.083  18.549  13.310
16843W        W80776  13.143  39.511   2.734
16844W        W80777  41.939  38.532   2.689
16845W        W80778  11.161  37.573  10.411
16846W        W80779  43.406  14.135  13.913
16847W        W80780  29.053  40.396  12.079
16848W        W80781  16.152  13.804   3.812
16849W        W80782  14.593  41.867   2.406
16850W        W80783  43.826  39.495  14.453
16851W        W80784  22.128  24.491   2.268
16852W        W80785  11.195  22.533   0.767
16853W        W80786  13.804   7.704  14.422
16854W        W80787  16.288  26.109  11.510
16855W        W80788   5.832  38.012   0.921
16856W        W80789  12.159   8.703  13.855
16857W        W80790   1.250  39.530  13.355
16858W        W80791  21.179  20.563  10.967
16859W        W80792  28.932  30.488  11.083
16860W        W80793   8.304  44.769  13.049
16861W        W80794  15.316  25.645  14.935
16862W        W80795  15.147  28.964   0.404
16863W        W80796  10.865  35.568  14.792
16864W        W80797  39.452  41.492   4.675
16865W        W80798   1.418  14.199  11.411
16866W        W80799  23.136  32.591   1.799
16867W        W80800   3.440  17.767  13.952
16868W        W80801   2.357  24.722   2.274
16869W        W80802   3.717  35.092  14.830
16870W        W80803   2.859  36.540  10.931
16871W        W80804  10.823   6.860   2.800
16872W        W80805  21.713   0.489   0.857
16873W        W80806  17.216   5.755  14.347
16874W        W80807  18.163   9.676  12.464
16875W        W80808  11.801  29.562   0.292
16876W        W80809  31.521  26.679   3.289
16877W        W80810   8.253  34.556   0.754
16878W        W80811  22.020  17.676   3.858
16879W        W80812  10.874  36.389   1.398
16880W        W80813  42.526  22.176   3.722
16881W        W80814   4.355  32.517  13.945
16882W        W80815  23.234  13.225   0.338
16883W        W80816  42.961   6.302  10.953
16884W        W80817  31.484   0.896   2.894
16885W        W80818   5.874  15.743   4.323
16886W        W80819   2.753  37.344   4.216
16887W        W80820  14.204   7.360   0.913
16888W        W80821  10.357  11.852   3.695
16889W        W80822  17.745  31.616   1.221
16890W        W80823  10.271  21.087   4.605
16891W        W80824   0.407  27.541  11.995
16892W        W80825  28.623  28.641   4.169
16893W        W80826  28.556  18.783  14.311
16894W        W80827  28.568   3.860   3.719
16895W        W80828  42.956  27.524  14.009
16896W        W80829  17.188  32.067  12.557
16897W        W80830  21.664  25.126   0.755
16898W        W80831  13.303  44.374  13.851
16899W        W80832  15.604   4.890  12.475
16900W        W80833  20.707   8.809  12.368
16901W        W80834   2.346  23.732  10.117
16902W        W80835  35.922  42.370   1.852
16903W        W80836  39.974   0.883   0.346
16904W        W80837  23.147  10.748   1.322
16905W        W80838  37.461   4.710   1.852
16906W        W80839  11.646  31.507   1.872
16907W        W80840   8.683  18.570   0.762
16908W        W80841  18.233  22.121  11.502
16909W        W80842  40.410  23.090  14.997
16910W        W80843  15.144  39.510   2.723
16911W        W80844  24.041  34.104  10.412
16912W        W80845  44.998  23.190   1.824
16913W        W80846   8.357  12.711   1.324
16914W        W80847  26.164  30.142   0.320
16915W        W80848  23.614   9.710  12.040
16916W        W80849  14.183   8.257   4.682
16917W        W80850  39.016  40.001   0.831
16918W        W80851  29.064  23.183   4.186
16919W        W80852  21.202  10.140   5.185
16920W        W80853   0.285  11.128   1.390
16921W        W80854  35.502  12.141  11.956
16922W        W80855  32.567  42.404  14.300
16923W        W80856  20.101  35.571   1.282
16924W        W80857  31.601  43.867  12.464
16925W        W80858   7.682  21.511   2.673
16926W        W80859  25.146   9.726  13.899
16927W        W80860   8.342  17.160   2.743
16928W        W80861  44.451   7.183  11.382
16929W        W80862   5.392  36.864   3.237
16930W        W80863   8.856  26.003  14.460
16931W        W80864  11.660  15.181  14.905
16932W        W80865  29.013  38.020   2.187
16933W        W80866   0.829  34.973  11.022
16934W        W80867  32.549  11.140   3.332
16935W        W80868  21.555  27.054   1.858
16936W        W80869   8.294   0.902   3.736
16937W        W80870   6.349  16.596  13.852
16938W        W80871  32.012  16.647   0.767
16939W        W80872   6.720  26.577  10.953
16940W        W80873  35.074   3.784  13.983
16941W        W80874  44.304  34.549  12.972
16942W        W80875  39.037  42.019   1.880
16943W        W80876  32.959  44.860   3.238
16944W        W80877  30.571  28.954  14.835
16945W        W80878  36.052  37.565   0.445
16946W        W80879  37.032   7.245   0.851
16947W        W80880  19.743  14.727  14.760
16948W        W80881  16.097   2.463   1.769
16949W        W80882  24.007  10.707  12.485
16950W        W80883  23.612   0.821  10.964
16951W        W80884   1.843   8.869   2.374
16952W        W80885   7.872  35.064   5.081
16953W        W80886  40.451  16.730   3.852
16954W        W80887   3.267  33.553  10.598
16955W        W80888   2.734  31.626   2.389
16956W        W80889  28.631  26.620   3.291
16957W        W80890   2.891  40.356  13.885
16958W        W80891  18.752  15.808   1.421
16959W        W80892   2.726   7.684   0.758
16960W        W80893  33.452  35.983   0.834
16961W        W80894  24.609   8.306   5.776
16962W        W80895  40.450  15.821   4.600
16963W        W80896  41.387  14.208  11.043
16964W        W80897  20.560  36.557  13.989
16965W        W80898   1.792  43.969  14.320
16966W        W80899  13.296  24.663  11.941
16967W        W80900  40.028  16.164   3.319
16968W        W80901  23.648  18.160  12.357
16969W        W80902  31.899  40.925   0.850
16970W        W80903  44.466  23.190  14.981
16971W        W80904   6.401  39.446   2.233
16972W        W80905   9.353   3.915   1.735
16973W        W80906  21.172   3.250   1.750
16974W        W80907  42.965  27.080   2.327
16975W        W80908  41.954  18.268   4.269
16976W        W80909  22.632  24.547   3.640
16977W        W80910  27.519  26.535  10.547
16978W        W80911  31.456   6.336  12.826
16979W        W80912  15.222  39.010   3.855
16980W        W80913  20.592  34.369   1.885
16981W        W80914   2.236  38.963   1.802
16982W        W80915  18.681   0.253   1.888
16983W        W80916   8.277  34.505  13.325
16984W        W80917   1.263  25.119   2.730
16985W        W80918  13.762  21.031  12.435
16986W        W80919   0.754   5.919   3.313
16987W        W80920  40.004   4.297  13.433
16988W        W80921  19.278  19.196   4.246
16989W        W80922  14.231   7.700  11.559
16990W        W80923  38.407  41.510   3.738
16991W        W80924   0.270  35.886   0.294
16992W        W80925  43.928  14.706   1.399
16993W        W80926  15.743  29.018   4.119
16994W        W80927  33.616  20.189   4.348
16995W        W80928  30.448  35.517   4.208
16996W        W80929  13.714  33.540  13.994
16997W        W80930  34.394  11.184   4.286
16998W        W80931  35.438  26.618  14.384
16999W        W80932   0.361  44.917  10.518
17000W        W80933  27.970  43.421   1.244
17001W        W80934  36.528   9.251  11.511
17002W        W80935  38.366  12.228   0.918
17003W        W80936  41.469  22.550   4.794
17004W        W80937  30.925  26.496  13.894
17005W        W80938  10.766   1.366   1.336
17006W        W80939  33.943  35.873  10.949
17007W        W80940  37.017  12.728  12.503
17008W        W80941  13.740  14.258   1.830
17009W        W80942  32.560  16.663   0.767
17010W        W80943  44.270  21.194   2.730
17011W        W80944  29.109  27.468  14.018
17012W        W80945  20.605  23.043  13.928
17013W        W80946  27.576  41.444  11.905
17014W        W80947  11.632   1.251  14.809
17015W        W80948   7.371  17.097   4.673
17016W        W80949  23.560  12.616  12.910
17017W        W80950  33.883  40.980  11.097
17018W        W80951  29.659   7.723  12.934
17019W        W80952  35.374  24.480  10.410
17020W        W80953  12.734  41.031   4.708
17021W        W80954  36.418  17.709  13.975
17022W        W80955  16.688   0.750  13.530
17023W        W80956  41.361  32.903   3.296
17024W        W80957  24.047   1.774  12.989
17025W        W80958   0.805  35.424   3.813
17026W        W80959  19.185  31.600   1.852
17027W        W80960  12.164  24.035  11.126
17028W        W80961  43.933  13.194  14.435
17029W        W80962  40.000  29.583   3.303
17030W        W80963  12.220  37.556   1.332
17031W        W80964  28.435  28.639   0.383
17032W        W80965  38.405  44.466   4.326
17033W        W80966  42.468  20.191  10.945
17034W        W80967  25.497  43.416   1.817
17035W        W80968  38.031   2.731   1.744
17036W        W80969  20.608  23.077  13.435
17037W        W80970  30.418  21.064  13.887
17038W        W80971  31.992   6.817   4.781
17039W        W80972  22.998  26.523   1.317
17040W        W80973  18.698  41.893   2.308
17041W        W80974  26.014  16.115   2.709
17042W        W80975  10.245  32.994  10.496
17043W        W80976  42.982  22.555   4.835
17044W        W80977   9.672  18.109   4.804
17045W        W80978   4.415   5.752  12.544
17046W        W80979  36.950  37.004   3.214
17047W        W80980  14.181  20.763   3.729
17048W        W80981  28.069  44.872  14.768
17049W        W80982  28.504  28.069  13.037
17050W        W80983  11.328   9.224   4.652
17051W        W80984  20.130  39.023   2.270
17052W        W80985   9.254  23.519  10.639
17053W        W80986  10.258  38.992  14.307
17054W        W80987   1.814  27.602  12.924
17055W        W80988  25.044  20.191   3.700
17056W        W80989   4.777  25.000   3.267
17057W        W80990   5.845  17.589   4.676
17058W        W80991  27.018  43.516  13.023
17059W        W80992  16.645   1.329  12.932
17060W        W80993   1.961  14.765   3.258
17061W        W80994  18.546  33.027  13.977
17062W        W80995   2.421  35.997   0.945
17063W        W80996   3.387   3.382  13.312
17064W        W80997  12.295  15.755   2.767
17065W        W80998   7.384  24.128  12.373
17066W        W80999  40.016  24.088   1.789
17067W        W81000  29.595  22.998  14.872
17068W        W81001  27.114  41.816  12.903
17069W        W81002  23.570  24.521  13.801
17070W        W81003   1.804  17.739  10.512
17071W        W81004  38.863  20.030   1.921
17072W        W81005  40.835   5.281   2.788
17073W        W81006  24.573  14.735  11.881
17074W        W81007   0.831  21.174  14.433
17075W        W81008   6.837   0.340   1.325
17076W        W81009  21.587  31.467  12.443
17077W        W81010   0.400   0.922  13.338
17078W        W81011  33.118  26.635  11.871
17079W        W81012  12.122  23.011   4.649
17080W        W81013   9.383  18.180  14.355
17081W        W81014  43.296  15.234   3.681
17082W        W81015  17.721  38.968  11.446
17083W        W81016  15.301  32.049  13.809
17084W        W81017  12.662  31.630  12.838
17085W        W81018  40.331  28.486  11.117
17086W        W81019   0.941  23.065   3.377
17087W        W81020  37.443  23.157  14.453
17088W        W81021  10.235   4.941  10.432
17089W        W81022   4.232  42.871  13.025
17090W        W81023  12.185  10.659  12.410
17091W        W81024  37.539  30.005  11.384
17092W        W81025   1.451  39.320  14.843
17093W        W81026  27.944  28.125   3.171
17094W        W81027  44.820  20.262  10.930
17095W        W81028   4.317  37.950   0.274
17096W        W81029   4.406  24.132  12.968
17097W        W81030  27.110  40.473  11.372
17098W        W81031  22.529   1.757  12.998
17099W        W81032  42.832   2.766  11.981
17100W        W81033  12.617  14.282  11.910
17101W        W81034  19.245  22.634   2.263
17102W        W81035  21.555   5.757  11.562
17103W        W81036   6.768  34.048  14.449
17104W        W81037  40.039  23.576   3.794
17105W        W81038  32.520   7.303   1.237
17106W        W81039   2.362  13.344   4.209
17107W        W81040   3.875   4.253  12.028
17108W        W81041  37.025  22.577  11.374
17109W        W81042   8.176  10.857   1.254
17110W        W81043   7.668   0.425  14.868
17111W        W81044  21.699  33.950   0.861
17112W        W81045  30.041  19.150   2.848
17113W        W81046  29.085  31.134  13.387
17114W        W81047  26.605  10.689  13.548
17115W        W81048  38.055  16.129   0.786
17116W        W81049  17.627   8.761   4.629
17117W        W81050  31.092  15.219   3.736
17118W        W81051  32.591  37.579  12.457
17119W        W81052  18.166  22.633   0.914
17120W        W81053   3.930  33.395   3.351
17121W        W81054   4.349  41.921   3.663
17122W        W81055  24.507  16.784   0.377
17123W        W81056  20.227  15.127   0.271
17124W        W81057   4.431  12.755   3.360
17125W        W81058  41.857  29.461  13.880
17126W        W81059  12.625  10.230  13.437
17127W        W81060  43.966   5.383   1.916
17128W        W81061  14.281  18.577  14.500
17129W        W81062  38.050  27.948  11.419
17130W        W81063  27.151  36.926  14.461
17131W        W81064  14.208  37.912  10.148
17132W        W81065  14.210  24.087   3.687
17133W        W81066   5.280  42.810   1.330
17134W        W81067  35.096   3.906   0.946
17135W        W81068  42.394  38.977  11.447
17136W        W81069  33.894  40.443  14.398
17137W        W81070  14.202  29.464   0.814
17138W        W81071  40.887   4.749   0.327
17139W        W81072   3.740  21.097  13.503
17140W        W81073  32.482  27.452   2.804
17141W        W81074   6.333   9.862   1.443
17142W        W81075  34.883  44.999   2.884
17143W        W81076  11.752  20.087   4.170
17144W        W81077  36.017  19.089  13.922
17145W        W81078  31.025  39.924  10.475
17146W        W81079  12.237   5.906   4.301
17147W        W81080  22.732  41.866   4.354
17148W        W81081   2.398  34.438   1.739
17149W        W81082  31.434  38.903  10.943
17150W        W81083   6.777  24.501  14.408
17151W        W81084  44.920   8.240  11.456
17152W        W81085  19.680  44.920  14.323
17153W        W81086  26.979  23.725   0.763
17154W        W81087  41.471   1.832  13.858
17155W        W81088   3.748  17.289   1.340
17156W        W81089  24.707  15.177  13.888
17157W        W81090   9.645  41.510  14.806
17158W        W81091  40.881   6.390  13.010
17159W        W81092  33.056   6.183  12.842
17160W        W81093   3.860  12.791   9.446
17161W        W81094  27.970  27.174   0.907
17162W        W81095  18.228  15.095  10.531
17163W        W81096  37.512  24.034  10.542
17164W        W81097  33.610  33.557  11.886
17165W        W81098  27.640  43.790   2.782
17166W        W81099  32.048  31.435  11.452
17167W        W81100  29.495   1.380  13.458
17168W        W81101  25.634  27.552   0.919
17169W        W81102   3.278  34.531  10.643
17170W        W81103   7.298   1.971  14.845
17171W        W81104  17.130  40.342  12.910
17172W        W81105  22.634  25.497  10.067
17173W        W81106   6.911   5.214  10.980
17174W        W81107  10.787  21.218   4.257
17175W        W81108  23.619  44.910  12.047
17176W        W81109  32.091  29.496  13.506
17177W        W81110  28.552  18.078   4.639
17178W        W81111  43.786  32.498   1.704
17179W        W81112  37.515  29.959  10.527
17180W        W81113  38.036  19.132  12.393
17181W        W81114   6.880  16.705   2.685
17182W        W81115  40.044   1.259   3.321
17183W        W81116   8.717  40.822  11.457
17184W        W81117  40.369  14.252   1.330
17185W        W81118  34.047  28.502   3.759
17186W        W81119  16.756  22.661   4.219
17187W        W81120  36.462  23.520  11.876
17188W        W81121  16.716  20.712   0.841
17189W        W81122   4.436  21.712   2.680
17190W        W81123  16.601  26.193   4.288
17191W        W81124  33.420  30.552  14.499
17192W        W81125  30.455  27.961   0.894
17193W        W81126  23.095  30.998  11.897
17194W        W81127  36.470   6.182   3.333
17195W        W81128  37.571  23.534  11.407
17196W        W81129  35.854  15.221   4.810
17197W        W81130   4.285  19.261   1.878
17198W        W81131  28.498   8.758   3.330
17199W        W81132   8.741  32.058  10.489
17200W        W81133  28.093  34.610   4.711
17201W        W81134  32.551  18.058   1.246
17202W        W81135  40.527   3.217   0.292
17203W        W81136  38.826  21.626  13.941
17204W        W81137  41.440  42.008  12.971
17205W        W81138  10.720  36.972  14.385
17206W        W81139  27.013  38.461   0.849
17207W        W81140  43.274   5.689   2.789
17208W        W81141  11.129  21.143  13.997
17209W        W81142  19.180  17.164  14.839
17210W        W81143  31.026  25.060   3.864
17211W        W81144  30.618  29.172   2.228
17212W        W81145   5.698  36.902   4.664
17213W        W81146  40.482  30.555   0.268
17214W        W81147  44.435  14.794  11.490
17215W        W81148  10.857  34.442   4.836
17216W        W81149   2.795   3.882  12.858
17217W        W81150   6.702  24.183   3.187
17218W        W81151  16.596  22.218   4.665
17219W        W81152  23.059  38.433   4.225
17220W        W81153  32.064  41.294   3.331
17221W        W81154  26.152   1.262   0.841
17222W        W81155  34.110  40.014   4.677
17223W        W81156  13.179  33.420  11.452
17224W        W81157  25.555  27.195   0.243
17225W        W81158  20.240  30.630   5.154
17226W        W81159  34.402   0.451   2.198
17227W        W81160   4.228   2.313  14.784
17228W        W81161   8.828   1.432  11.088
17229W        W81162   8.727  41.302  12.395
17230W        W81163   0.861  29.140  12.861
17231W        W81164   6.785  36.854   2.880
17232W        W81165  26.516  41.507   5.157
17233W        W81166  36.879   4.905  14.379
17234W        W81167  21.726  40.390  12.947
17235W        W81168  28.530  36.089   2.326
17236W        W81169   5.847  30.053   2.862
17237W        W81170  33.990   4.230  14.961
17238W        W81171  33.386  10.293   4.737
17239W        W81172   5.209  27.665  10.900
17240W        W81173   2.769  10.202  10.938
17241W        W81174  10.785  15.647   4.219
17242W        W81175   4.811  18.568   3.868
17243W        W81176  15.175  44.792  12.938
17244W        W81177  30.587   0.256   4.690
17245W        W81178  28.640  15.162  14.326
17246W        W81179   8.215  10.819   3.330
17247W        W81180  30.050  32.932   0.372
17248W        W81181  28.581   7.749  12.056
17249W        W81182  20.523   6.904  11.514
17250W        W81183  10.297  33.486   0.285
17251W        W81184  43.422  43.410   1.874
17252W        W81185   1.834   4.337   3.662
17253W        W81186   8.741  44.767  10.913
17254W        W81187  26.504  16.129   3.835
17255W        W81188  31.407  33.545  13.356
17256W        W81189  18.238  21.232   0.795
17257W        W81190   9.176  34.026   0.917
17258W        W81191  14.819   7.199  12.510
17259W        W81192  43.407  43.006   3.758
17260W        W81193  22.663  23.997  10.598
17261W        W81194   4.347  12.813  12.996
17262W        W81195  16.682   7.289  11.963
17263W        W81196   3.745  28.121  14.438
17264W        W81197  37.498   9.330   4.126
17265W        W81198  14.779  30.129  11.068
17266W        W81199  19.149  23.612  13.315
17267W        W81200  10.176  30.431   4.824
17268W        W81201  35.984   1.781   0.748
17269W        W81202  25.640   9.302  14.511
17270W        W81203  29.617   3.217  12.836
17271W        W81204  22.503  35.416  12.870
17272W        W81205   3.764  11.782   3.252
17273W        W81206  13.184  41.872   3.629
17274W        W81207   3.839  10.353   1.403
17275W        W81208  16.083   6.725  11.911
17276W        W81209  10.856   3.372   3.353
17277W        W81210   9.224  25.521  11.603
17278W        W81211  11.693  11.283  11.899
17279W        W81212  13.663   9.824   4.775
17280W        W81213  19.247  18.589  13.013
17281W        W81214   7.858  42.776   4.284
17282W        W81215  27.083   9.211  11.997
17283W        W81216  42.987   5.295   4.770
17284W        W81217   0.768  35.438  14.447
17285W        W81218  26.952  27.674   0.808
17286W        W81219  25.044  29.133  14.993
17287W        W81220  19.278  32.109   0.407
17288W        W81221  44.386   8.850   4.745
17289W        W81222  34.586   2.303  11.547
17290W        W81223  33.041  10.189   0.445
17291W        W81224  37.464  43.402   2.270
17292W        W81225  43.793   9.881  11.911
17293W        W81226  24.157  32.551  12.013
17294W        W81227  25.138  38.397  10.430
17295W        W81228  42.393   2.354   4.610
17296W        W81229  29.553  30.615   0.414
17297W        W81230  12.215   4.927   1.319
17298W        W81231  35.021  29.523  12.874
17299W        W81232   4.772  29.964  10.946
17300W        W81233   1.454  43.389   1.751
17301W        W81234  30.418  42.999  12.860
17302W        W81235   2.877   0.827   1.815
17303W        W81236   4.279  35.572   0.910
17304W        W81237  41.312  40.819  11.532
17305W        W81238   2.343  10.144   0.392
17306W        W81239  21.102  15.138  12.481
17307W        W81240   1.335  40.022  11.513
17308W        W81241  33.595  27.670   2.858
17309W        W81242   5.309  25.489   2.385
17310W        W81243  27.659  20.127  13.987
17311W        W81244  28.620   3.266  12.485
17312W        W81245  14.646  16.251   3.789
17313W        W81246  38.883  44.464  11.936
17314W        W81247  39.419  31.557  10.989
17315W        W81248   1.801  31.548   4.116
17316W        W81249  14.125  17.801   1.821
17317W        W81250  11.831   3.803  11.465
17318W        W81251  10.378  30.931   4.635
17319W        W81252   5.821   3.938  10.934
17320W        W81253  44.901  27.618  12.968
17321W        W81254  14.741  40.526   2.405
17322W        W81255  44.758  29.068  12.935
17323W        W81256  20.732  40.023  10.995
17324W        W81257  14.209  15.819   3.294
17325W        W81258  25.022  29.525  11.941
17326W        W81259  31.150   7.285   1.303
17327W        W81260  39.816  16.189   0.377
17328W        W81261  10.379  32.606   4.667
17329W        W81262  43.292  16.208  10.609
17330W        W81263  14.223  25.965   4.184
17331W        W81264  20.639  35.046   2.893
17332W        W81265  40.488  17.262   3.339
17333W        W81266  29.995   8.376   0.920
17334W        W81267  18.116   4.767  14.981
17335W        W81268  11.741  38.884   5.206
17336W        W81269   7.364  40.023  10.928
17337W        W81270  27.586  15.179   1.873
17338W        W81271   6.184   1.470  14.853
17339W        W81272  25.126  39.893   2.242
17340W        W81273  18.686  35.000   2.229
17341W        W81274  30.485  12.350  11.076
17342W        W81275   7.865  31.917  10.003
17343W        W81276  34.505  35.055  13.034
17344W        W81277  41.874  35.882  11.524
17345W        W81278  30.519  11.640   1.431
17346W        W81279  40.971  36.857   9.558
17347W        W81280   7.729  36.589  11.073
17348W        W81281  31.530  18.602   2.727
17349W        W81282  17.084  30.520  12.072
17350W        W81283   6.316  36.873   1.236
17351W        W81284  21.261  44.923   4.231
17352W        W81285   2.838  21.531  14.765
17353W        W81286  18.749  25.665   5.757
17354W        W81287  35.514  34.083  11.528
17355W        W81288  21.677  24.078   4.273
17356W        W81289  18.703   9.247  14.894
17357W        W81290  17.702  15.215   3.667
17358W        W81291  41.440   4.356  12.508
17359W        W81292  14.133   9.819   1.921
17360W        W81293  32.025  20.111  14.025
17361W        W81294  36.579  16.603   0.738
17362W        W81295  28.565  31.527  14.484
17363W        W81296  27.166  33.063   4.785
17364W        W81297  44.982  34.014  13.447
17365W        W81298   4.298  26.022   4.834
17366W        W81299  43.849   9.828   4.600
17367W        W81300  31.069  13.800   2.418
17368W        W81301   6.813  15.102   0.432
17369W        W81302  39.484  15.726  14.370
17370W        W81303   4.370   2.804  10.065
17371W        W81304  26.465  16.105  14.512
17372W        W81305  18.691  32.006   3.871
17373W        W81306  10.655   3.238   4.781
17374W        W81307  10.247  12.684   0.381
17375W        W81308  12.672  18.746  12.370
17376W        W81309  16.662  26.678   3.832
17377W        W81310  35.000  11.344   2.183
17378W        W81311  40.844  33.071   0.917
17379W        W81312  14.679   0.484   2.734
17380W        W81313  34.038  11.136  10.949
17381W        W81314  27.132  25.687  11.884
17382W        W81315  31.973  31.052  11.872
17383W        W81316  11.159  28.010  12.383
17384W        W81317  15.271  16.774  13.480
17385W        W81318  23.522  35.967   2.307
17386W        W81319  29.090  40.918  13.429
17387W        W81320  19.072   5.224  14.455
17388W        W81321  26.018   6.829  10.489
17389W        W81322  40.501  22.713  10.119
17390W        W81323  24.608  40.471  12.938
17391W        W81324   3.750  31.035  14.508
17392W        W81325  18.274   8.346  11.446
17393W        W81326  30.157  24.103  13.310
17394W        W81327  42.348   9.174  14.382
17395W        W81328  19.121  43.827  11.904
17396W        W81329  32.038   0.476  13.496
17397W        W81330  19.650  14.324   1.927
17398W        W81331  10.234  13.330   1.249
17399W        W81332  32.907  19.153  10.953
17400W        W81333  14.141  35.092   1.225
17401W        W81334   7.355  34.461   1.355
17402W        W81335   0.770   8.880  10.553
17403W        W81336  21.102  11.161  14.397
17404W        W81337  39.394  34.613   4.355
17405W        W81338  28.496   8.293   0.409
17406W        W81339  21.120  20.660  11.446
17407W        W81340  33.912  26.206   3.729
17408W        W81341  25.476  10.315   0.257
17409W        W81342  36.424  21.115   3.196
17410W        W81343  25.674  25.645  14.412
17411W        W81344   7.731  35.451  13.052
17412W        W81345  43.485  10.333   0.830
17413W        W81346   4.702  34.572   3.788
17414W        W81347  31.048  24.505  12.346
17415W        W81348  10.209  43.369   1.336
17416W        W81349  37.372  37.414  14.351
17417W        W81350  33.050  23.010   1.210
17418W        W81351  28.161  15.217  12.055
17419W        W81352  25.549  36.999  14.327
17420W        W81353  30.088  11.705  11.537
17421W        W81354   2.377   8.722   4.174
17422W        W81355  39.960   8.385  10.466
17423W        W81356  10.699  39.494  12.042
17424W        W81357  20.586  26.996  11.588
17425W        W81358  41.852  40.840  13.387
17426W        W81359  25.164   6.272  13.347
17427W        W81360  30.638  39.460   0.784
17428W        W81361  38.892  11.182  14.930
17429W        W81362  10.147  38.362  12.447
17430W        W81363   5.230   4.872  14.976
17431W        W81364  39.444  17.738   2.336
17432W        W81365   8.181   7.807   4.272
17433W        W81366  22.249  24.055  12.440
17434W        W81367  28.666   5.383  11.939
17435W        W81368  12.785   1.875   3.825
17436W        W81369  16.754  31.592   2.305
17437W        W81370  28.531  32.922  11.466
17438W        W81371  25.153  10.307   3.717
17439W        W81372  40.029  12.667  11.583
17440W        W81373  14.627   7.908  12.405
17441W        W81374  37.000   9.805  13.957
17442W        W81375  24.670   3.785  14.317
17443W        W81376  25.666  32.941  14.505
17444W        W81377   9.315   0.323  13.515
17445W        W81378  27.105   7.190  13.486
17446W        W81379  23.204  17.181   0.312
17447W        W81380  40.941   9.794  11.527
17448W        W81381  34.410   1.827   4.343
17449W        W81382  22.718  19.054   4.350
17450W        W81383  40.045  19.592   0.914
17451W        W81384  11.798  21.524  12.919
17452W        W81385  19.684  13.778  14.421
17453W        W81386  26.548  39.522   3.650
17454W        W81387   1.347   3.444  10.441
17455W        W81388  28.501   5.261  14.465
17456W        W81389  41.311  20.699  11.898
17457W        W81390  14.659   9.778   5.195
17458W        W81391   1.386  22.504   3.801
17459W        W81392   0.487  34.430  14.356
17460W        W81393  23.088  13.256   2.784
17461W        W81394  15.789  22.054   0.380
17462W        W81395  27.195  30.997  11.093
17463W        W81396  16.140  33.421   2.883
17464W        W81397  21.176  26.549  13.830
17465W        W81398  34.917  13.763  10.634
17466W        W81399  38.037  37.960   0.340
17467W        W81400  30.116  19.056   3.754
17468W        W81401   7.717  36.443  11.542
17469W        W81402  39.466  42.289  12.443
17470W        W81403   7.829   1.957   3.234
17471W        W81404  39.466  27.195   0.275
17472W        W81405  24.586  35.443   3.742
17473W        W81406  14.755  14.267  11.571
17474W        W81407  11.154  33.495   2.191
17475W        W81408  20.230  13.194   2.886
17476W        W81409  37.473  39.892  10.938
17477W        W81410  38.048  41.311  10.937
17478W        W81411  37.902  10.680   0.743
17479W        W81412  36.864  19.620  13.044
17480W        W81413   3.818   0.828  12.063
17481W        W81414  27.116   1.309  12.956
17482W        W81415  38.030  37.966   3.349
17483W        W81416  41.850  41.789   4.151
17484W        W81417  22.538  31.505  14.424
17485W        W81418  39.424  30.431  13.311
17486W        W81419  32.541  41.444   3.199
17487W        W81420  28.497   8.674  14.415
17488W        W81421   2.283  40.510  10.626
17489W        W81422  33.094   0.763   2.248
17490W        W81423  25.001  25.578   1.288
17491W        W81424   1.937  15.815   0.358
17492W        W81425  35.497  28.028  12.889
17493W        W81426   6.856   0.299   4.182
17494W        W81427   1.451  22.232   4.751
17495W        W81428  35.005  41.303   1.239
17496W        W81429  25.696   9.724  11.384
17497W        W81430  37.886  23.544   3.705
17498W        W81431  44.947  42.955  10.917
17499W        W81432  14.286  24.056   3.180
17500W        W81433  28.970   3.941  12.889
17501W        W81434  22.151  38.837  13.466
17502W        W81435   4.890  16.659  11.105
17503W        W81436  39.844  26.103   0.861
17504W        W81437  36.985   1.853   2.408
17505W        W81438   3.367  44.262   1.268
17506W        W81439  42.938  26.095  11.385
17507W        W81440  41.805   1.775  12.879
17508W        W81441  43.954  22.628  14.482
17509W        W81442  31.453  14.646   4.795
17510W        W81443   1.389  36.506   3.827
17511W        W81444   6.405   1.420  11.898
17512W        W81445  20.551  44.377  13.012
17513W        W81446  19.261  44.914  13.435
17514W        W81447  39.379  30.941  13.846
17515W        W81448  36.891  29.454   3.706
17516W        W81449   1.464  26.075   1.336
17517W        W81450  36.431  13.603   2.418
17518W        W81451   7.345  27.576   1.871
17519W        W81452   0.892   0.361   3.859
17520W        W81453  36.374  15.298  12.448
17521W        W81454  40.381   1.437  10.998
17522W        W81455   7.207  38.874   1.395
17523W        W81456  41.449  24.699  12.536
17524W        W81457  34.598  25.631  14.975
17525W        W81458  28.110  30.999   4.201
17526W        W81459  29.004  42.353  13.858
17527W        W81460  14.202  42.831  14.009
17528W        W81461   1.948  41.386  10.511
17529W        W81462  32.525   5.766   0.858
17530W        W81463  32.503  24.663   0.737
17531W        W81464  28.525   5.862   4.697
17532W        W81465  18.107  26.197   3.822
17533W        W81466  21.074  11.167  13.898
17534W        W81467  12.233  22.229  10.475
17535W        W81468  38.924   1.332  11.057
17536W        W81469  31.061  29.923  13.986
17537W        W81470  39.467  27.552  14.318
17538W        W81471   5.355  23.675   2.671
17539W        W81472   3.938  42.952   0.886
17540W        W81473   9.882  19.275  11.596
17541W        W81474  29.921  42.801  12.442
17542W        W81475   4.351   1.268  11.003
17543W        W81476   4.746  42.468   4.206
17544W        W81477  30.495   1.278   1.759
17545W        W81478  34.006  39.878  12.850
17546W        W81479  29.090  33.431  14.023
17547W        W81480   9.368  35.412  11.865
17548W        W81481  43.970   8.407  12.047
17549W        W81482  29.507  41.460  14.437
17550W        W81483  21.725  12.853  12.000
17551W        W81484   8.262   8.258   4.685
17552W        W81485   7.250  31.442  10.472
17553W        W81486  41.822   6.908   1.250
17554W        W81487  36.370  13.300   4.287
17555W        W81488  22.203  29.670  11.969
17556W        W81489   4.889  42.288  12.568
17557W        W81490  34.504  40.330  11.070
17558W        W81491   3.407   2.897   3.633
17559W        W81492  44.930  25.630  11.489
17560W        W81493  35.903   8.749  12.451
17561W        W81494  28.569  25.514   4.124
17562W        W81495  34.998  25.193  13.871
17563W        W81496  18.650   0.965  14.874
17564W        W81497   6.402  33.993  10.634
17565W        W81498  26.065   4.299   1.280
17566W        W81499   4.936  36.377   0.379
17567W        W81500  10.694  30.117   1.798
17568W        W81501  41.975  34.912  13.018
17569W        W81502   9.721  28.014   3.725
17570W        W81503  33.951   2.269   1.445
17571W        W81504  33.483  29.999   4.236
17572W        W81505  18.293   8.324  11.032
17573W        W81506  26.657  25.492  14.480
17574W        W81507  39.875   3.352  13.420
17575W        W81508  39.905  38.338   2.197
17576W        W81509   8.214  18.739  11.038
17577W        W81510  44.984   9.868  13.961
17578W        W81511  36.074  35.854  10.955
17579W        W81512  17.236  13.713   1.777
17580W        W81513  20.244  25.556  10.616
17581W        W81514  12.824   1.962  14.012
17582W        W81515  41.011  19.185  12.844
17583W        W81516  44.958  15.806  13.516
17584W        W81517   2.352  42.336  13.413
17585W        W81518  12.754  10.730  10.473
17586W        W81519  11.270  11.755  13.916
17587W        W81520   7.805  27.966  13.814
17588W        W81521  20.135  44.330  14.781
17589W        W81522   7.325  18.172  13.542
17590W        W81523  41.441  38.560   2.771
17591W        W81524  26.988  11.634  11.985
17592W        W81525  40.489  38.391   3.328
17593W        W81526   9.275  34.101  12.987
17594W        W81527  28.510   1.817   2.401
17595W        W81528   6.191  12.319  13.336
17596W        W81529   2.372  41.339   1.311
17597W        W81530   7.299   5.915   2.408
17598W        W81531  42.959  25.701  12.373
17599W        W81532  15.735  15.327  13.042
17600W        W81533  28.644  26.646  14.403
17601W        W81534  28.501  35.056  11.506
17602W        W81535   3.793  24.658   4.195
17603W        W81536  36.442   3.742  13.021
17604W        W81537   8.869   1.459  12.867
17605W        W81538  39.857  39.903   1.810
17606W        W81539  41.446  27.010  13.398
17607W        W81540   8.680   7.324  11.403
17608W        W81541  23.514  21.651  10.623
17609W        W81542   6.330  32.050   4.347
17610W        W81543   0.881  17.153  14.308
17611W        W81544  23.503  27.068   0.288
17612W        W81545  18.550  16.569  12.973
17613W        W81546  26.132   7.688  13.461
17614W        W81547  24.978  40.843  10.956
17615W        W81548  13.201  17.717   2.318
17616W        W81549   9.675  14.121  11.523
17617W        W81550  36.398   3.277  12.038
17618W        W81551  35.908  44.290   2.344
17619W        W81552   8.318  27.458   4.606
17620W        W81553   8.813   2.313  10.466
17621W        W81554   2.378  40.891   4.155
17622W        W81555   6.782  41.407   0.842
17623W        W81556  43.432  17.268   4.336
17624W        W81557  33.986  28.623  13.993
17625W        W81558  27.120   1.843   2.823
17626W        W81559  38.055  30.986   0.844
17627W        W81560  26.087  28.535  11.504
17628W        W81561  22.091  33.557  12.474
17629W        W81562  26.071   3.284   2.718
17630W        W81563  24.631  41.867   2.419
17631W        W81564  14.194  30.577  14.840
17632W        W81565  17.165   7.856  12.360
17633W        W81566  13.119  36.538   2.755
17634W        W81567   5.886  20.624   3.315
17635W        W81568  34.396  35.073   2.737
17636W        W81569  15.687  13.124  12.465
17637W        W81570   0.799   2.248   4.157
17638W        W81571  32.551  27.942   4.615
17639W        W81572   6.280   9.344  10.441
17640W        W81573   5.276  12.328   1.210
17641W        W81574   0.289  22.553  12.863
17642W        W81575   5.314  21.601  12.031
17643W        W81576  17.596   0.365   1.715
17644W        W81577  17.753   3.807   1.839
17645W        W81578  14.673  36.512   2.187
17646W        W81579  37.889  35.873  10.504
17647W        W81580  32.023   5.277  11.860
17648W        W81581  32.110  20.252  14.398
17649W        W81582  32.962  18.279   1.358
17650W        W81583  19.101  42.288  13.960
17651W        W81584  29.106  10.645   2.811
17652W        W81585  18.203  24.522  12.506
17653W        W81586  40.308  34.871  14.494
17654W        W81587  20.710   4.907  12.092
17655W        W81588  39.991  27.545   1.247
17656W        W81589  16.178   9.871   5.647
17657W        W81590  37.050  13.138  14.989
17658W        W81591  42.372  29.538   4.167
17659W        W81592  21.561  31.480   0.297
17660W        W81593  19.266  28.679  10.093
17661W        W81594  32.412  23.625  12.480
17662W        W81595   7.718  10.769   0.751
17663W        W81596  39.543   9.805   4.168
17664W        W81597  18.775  26.138  14.914
17665W        W81598  14.651  35.420  14.287
17666W        W81599  13.702   0.790  14.808
17667W        W81600  18.228  36.939   4.660
17668W        W81601  18.557  43.281  14.498
17669W        W81602   3.300  14.173  11.073
17670W        W81603  17.306  44.879  14.294
17671W        W81604   3.812  28.087  10.115
17672W        W81605  13.807  30.073   4.748
17673W        W81606   0.889  22.559   1.875
17674W        W81607  37.910  34.101  11.428
17675W        W81608  13.269   7.715   1.226
17676W        W81609  29.632  43.905   4.668
17677W        W81610  29.539  22.116  13.379
17678W        W81611   3.329  36.414  11.017
17679W        W81612  32.518  17.773   4.131
17680W        W81613  38.508   8.671  11.454
17681W        W81614  34.916  18.585  12.939
17682W        W81615  40.035  26.671   0.838
17683W        W81616  31.050  37.906   4.608
17684W        W81617   4.749  42.791   0.355
17685W        W81618  13.208  38.001   4.299
17686W        W81619  43.897   2.766   0.863
17687W        W81620  36.859  26.537  12.428
17688W        W81621   4.757   2.234   2.350
17689W        W81622   5.734  36.882  13.904
17690W        W81623   0.373  32.420   0.316
17691W        W81624  30.140  30.501   4.778
17692W        W81625  44.935  24.165   3.791
17693W        W81626  19.062   8.687  12.830
17694W        W81627   8.878  29.960   2.352
17695W        W81628  26.146  21.231  14.945
17696W        W81629   7.861  28.526   3.721
17697W        W81630  34.046  29.083   1.416
17698W        W81631  13.265  24.707  10.955
17699W        W81632  31.007   1.887   0.728
17700W        W81633  21.738  29.469  11.994
17701W        W81634  12.201   2.237   3.678
17702W        W81635  27.135  34.414  14.933
17703W        W81636  31.929   2.917  10.485
17704W        W81637   7.831  34.069  13.884
17705W        W81638  27.481  30.929   3.678
17706W        W81639   1.895  35.562   1.403
17707W        W81640  35.446  36.425  14.970
17708W        W81641  17.182   5.717   3.693
17709W        W81642  37.991  42.019   3.865
17710W        W81643  14.820  12.227   0.369
17711W        W81644  30.050  12.145  14.308
17712W        W81645  15.233   1.453  12.977
17713W        W81646  43.391  12.749  12.988
17714W        W81647  11.373  26.079  14.792
17715W        W81648  19.188   7.906   2.345
17716W        W81649  30.033   5.747   3.742
17717W        W81650  40.508  29.116   4.604
17718W        W81651  44.777  37.450   0.844
17719W        W81652  12.214  17.711  11.020
17720W        W81653  30.479  12.662   1.333
17721W        W81654   6.403  43.397   2.777
17722W        W81655  44.887  41.986   2.831
17723W        W81656   4.401  32.957  11.946
17724W        W81657   2.904  41.296   2.270
17725W        W81658  26.658  39.054  14.836
17726W        W81659  43.377  22.093  11.118
17727W        W81660   4.432  12.815   5.657
17728W        W81661  17.140  39.441   9.610
17729W        W81662  37.337  20.665   2.848
17730W        W81663   0.469  32.131  11.457
17731W        W81664  34.086  19.083  12.499
17732W        W81665  43.318  26.520  14.830
17733W        W81666   0.780  10.664   2.811
17734W        W81667   9.230  14.784  11.598
17735W        W81668  30.004  15.591  13.505
17736W        W81669  24.006  29.507   0.354
17737W        W81670   5.414  43.378  12.563
17738W        W81671   6.908  22.599   2.263
17739W        W81672  27.518   4.796  14.810
17740W        W81673  19.690   4.250   1.824
17741W        W81674  11.228  29.094  13.853
17742W        W81675  41.454   6.193  13.858
17743W        W81676   0.974  38.369   5.167
17744W        W81677  39.879  28.668   1.235
17745W        W81678  44.820  27.972   3.240
17746W        W81679   8.250  19.730  13.021
17747W        W81680  34.392  13.146   1.436
17748W        W81681  33.437   7.746   1.372
17749W        W81682  39.953  33.946  13.842
17750W        W81683  26.647  21.588  10.940
17751W        W81684  15.287  24.662   2.238
17752W        W81685  36.974  28.626   1.697
17753W        W81686  39.424  36.998  14.008
17754W        W81687  10.796  19.668  14.354
17755W        W81688  44.280   5.376  11.929
17756W        W81689  31.951  31.481  12.991
17757W        W81690  35.887   3.820  13.499
17758W        W81691  23.632   4.828   3.663
17759W        W81692  21.054  36.096   4.155
17760W        W81693  31.552  23.995  12.847
17761W        W81694  17.618  18.570  13.013
17762W        W81695   6.389  38.558  10.411
17763W        W81696  37.913  13.714  11.968
17764W        W81697  44.368   3.719  10.641
17765W        W81698  33.494  14.134   4.711
17766W        W81699  20.737   3.886  13.906
17767W        W81700   1.373  34.920   2.825
17768W        W81701   5.734  14.668   1.439
17769W        W81702  40.305  25.075   3.760
17770W        W81703  28.530  15.812   2.268
17771W        W81704  39.980  32.129  13.437
17772W        W81705  28.134  43.012   4.671
17773W        W81706  33.536  40.548  11.523
17774W        W81707  16.800  41.811  11.911
17775W        W81708  37.030  17.108   1.363
17776W        W81709  18.788  41.894  10.975
17777W        W81710  34.966  27.965  12.574
17778W        W81711  17.195  32.142  13.042
17779W        W81712  33.970  43.273   4.750
17780W        W81713  20.720  13.780   4.199
17781W        W81714  11.284   7.170   2.268
17782W        W81715  36.538  16.751   3.298
17783W        W81716  16.641  29.128   9.611
17784W        W81717  19.283   8.675  13.960
17785W        W81718   3.393  24.639   1.298
17786W        W81719  39.356  43.891  10.625
17787W        W81720   7.266  16.622  14.283
17788W        W81721  30.138   1.259  11.453
17789W        W81722   5.860  28.030  14.341
17790W        W81723  41.501  12.761   3.267
17791W        W81724  24.031  12.668   4.821
17792W        W81725   5.771   4.329  13.820
17793W        W81726  25.538   1.388  10.453
17794W        W81727  21.649  24.596  12.961
17795W        W81728  19.121  38.924   0.244
17796W        W81729  22.223  18.134   2.686
17797W        W81730  32.114  37.962  10.604
17798W        W81731  18.091  29.007   3.631
17799W        W81732  35.935  28.104   3.701
17800W        W81733  24.507   7.287   0.869
17801W        W81734  30.499  38.487   0.309
17802W        W81735  19.062  20.608   2.365
17803W        W81736   1.461  22.105   1.915
17804W        W81737   1.389  35.538  13.525
17805W        W81738  31.498  14.153   2.333
17806W        W81739   8.164   5.832  12.374
17807W        W81740   6.404  33.122  14.353
17808W        W81741  35.376  22.556   1.388
17809W        W81742  27.992  29.962   1.835
17810W        W81743  25.552  41.487   3.198
17811W        W81744  23.507   2.897   1.787
17812W        W81745   1.420  20.242   4.280
17813W        W81746  33.913  20.724   4.219
17814W        W81747  36.496  36.958   3.206
17815W        W81748  21.225  19.756  14.449
17816W        W81749  36.424  18.118  12.986
17817W        W81750  41.855  39.844   4.676
17818W        W81751  25.577  14.165   3.802
17819W        W81752  37.446   0.450   3.247
17820W        W81753  11.637   2.310  13.935
17821W        W81754  28.526  37.479  13.502
17822W        W81755   0.379  30.039  12.082
17823W        W81756  38.902  10.637  11.953
17824W        W81757   8.857  20.154  13.485
17825W        W81758   9.867  15.790  14.372
17826W        W81759   3.914   7.782   0.925
17827W        W81760  13.723  28.012  13.546
17828W        W81761  11.362  32.455  14.400
17829W        W81762  43.312  24.568   2.730
17830W        W81763  21.577  35.966   1.738
17831W        W81764   3.371  39.482   4.295
17832W        W81765  21.696  31.426  14.894
17833W        W81766  44.472  44.990  13.422
17834W        W81767  44.884  10.813  13.381
17835W        W81768  24.985  23.628  11.863
17836W        W81769  39.337  36.073  12.497
17837W        W81770  33.521   6.281   4.330
17838W        W81771  32.477  14.731   3.784
17839W        W81772  32.523  18.063  10.415
17840W        W81773  41.491  40.494  13.308
17841W        W81774  30.030  32.592   0.463
17842W        W81775  26.008  30.111   3.631
17843W        W81776   9.750  34.079   3.822
17844W        W81777  15.755  28.033  13.845
17845W        W81778  10.846  10.753   3.340
17846W        W81779  34.887  40.354   4.731
17847W        W81780  27.117  12.274  11.922
17848W        W81781  17.567  24.201   3.674
17849W        W81782  14.115   4.228  10.459
17850W        W81783  29.448  28.111   2.312
17851W        W81784  17.623  14.638   0.774
17852W        W81785  44.753  27.682   2.233
17853W        W81786  15.146  22.192  10.432
17854W        W81787   2.401  10.738   3.308
17855W        W81788  34.047  32.091  13.909
17856W        W81789   1.375  13.757  13.400
17857W        W81790  29.481  39.813  14.783
17858W        W81791  43.002  40.958   2.220
17859W        W81792  22.077   6.850  13.039
17860W        W81793   4.436  38.552   3.667
17861W        W81794   9.761  43.295  12.581
17862W        W81795  28.009  41.868   1.398
17863W        W81796  12.793  28.566   4.223
17864W        W81797   8.364   9.818  14.504
17865W        W81798  37.571  42.509   4.729
17866W        W81799  19.246  41.981  10.569
17867W        W81800  34.041   0.257  12.486
17868W        W81801  18.059   3.871   2.664
17869W        W81802  44.999  36.861   5.616
17870W        W81803  34.462   8.689  14.369
17871W        W81804  28.574  35.036   4.810
17872W        W81805  33.426  40.363   3.645
17873W        W81806  38.554   6.218   1.322
17874W        W81807  12.233  11.652   4.354
17875W        W81808  30.024  17.212  14.348
17876W        W81809  40.041  42.788   0.853
17877W        W81810  13.351  15.689  12.955
17878W        W81811  28.108  23.199   3.720
17879W        W81812  37.039  18.713   0.876
17880W        W81813  22.246  43.817  12.036
17881W        W81814  35.002  13.690   2.377
17882W        W81815   2.895   4.806  14.274
17883W        W81816  39.954  27.974   1.353
17884W        W81817  10.250  14.647   3.705
17885W        W81818  32.097   0.357  12.044
17886W        W81819  34.929  18.191  14.002
17887W        W81820  24.627  29.061  12.062
17888W        W81821  17.690  36.499  14.417
17889W        W81822  38.346  18.582   1.351
17890W        W81823  39.516   2.252   1.284
17891W        W81824  11.729  40.465   0.939
17892W        W81825   8.363  32.950  14.342
17893W        W81826  26.162   7.399  11.911
17894W        W81827  43.959  21.082   3.223
17895W        W81828   1.843  38.867   3.835
17896W        W81829  38.472   9.704   2.803
17897W        W81830   5.339  10.223  12.895
17898W        W81831   0.902   5.709   0.368
17899W        W81832   2.919  10.273  14.758
17900W        W81833   8.211  42.379   4.823
17901W        W81834  22.682  23.709   3.285
17902W        W81835   1.758  33.430   4.126
17903W        W81836  37.966   1.867   4.741
17904W        W81837  41.965   4.892  12.526
17905W        W81838  43.366  26.041   2.234
17906W        W81839  14.310  37.897  11.395
17907W        W81840   2.859  35.398   0.852
17908W        W81841  37.042  28.617   4.690
17909W        W81842  28.543   1.479   0.449
17910W        W81843  26.535  16.106   0.312
17911W        W81844  24.696  32.058   0.888
17912W        W81845   4.225  43.936   2.281
17913W        W81846  24.179  19.208   2.803
17914W        W81847   0.339  36.536  10.421
17915W        W81848   1.369  37.349   2.887
17916W        W81849   4.421  35.959  14.323
17917W        W81850  30.614   8.388   1.430
17918W        W81851  31.989  14.817  12.882
17919W        W81852  23.547  25.634  12.050
17920W        W81853  23.562  23.506  11.512
17921W        W81854  22.044  37.943   2.714
17922W        W81855  13.139  26.174  13.843
17923W        W81856  28.606  22.639  10.630
17924W        W81857  25.202  26.096  13.522
17925W        W81858  22.638  10.159  13.903
17926W        W81859  20.128   9.193  14.415
17927W        W81860  19.697  16.808   2.398
17928W        W81861   1.740  23.527  12.525
17929W        W81862   1.427  42.441   2.281
17930W        W81863   7.381  33.449  13.334
17931W        W81864  16.244  22.007   2.282
17932W        W81865   1.410  41.952   1.239
17933W        W81866  26.177  44.337   0.307
17934W        W81867  28.443  17.210   2.370
17935W        W81868   7.885  29.023  13.520
17936W        W81869   7.671  21.236   3.631
17937W        W81870  25.626   9.718   0.324
17938W        W81871  11.158  25.663  12.093
17939W        W81872  28.088  24.021   3.182
17940W        W81873   3.801  11.225  11.022
17941W        W81874   0.789  19.170  13.402
17942W        W81875  18.158  27.979  13.790
17943W        W81876   8.834   7.222  12.054
17944W        W81877  18.154  31.446   1.907
17945W        W81878  26.955  19.642  12.576
17946W        W81879   9.725  24.200  11.866
17947W        W81880   0.375  26.543  13.347
17948W        W81881  12.269  13.128   2.712
17949W        W81882  24.581  20.534   1.401
17950W        W81883  42.812  18.241   3.370
17951W        W81884  35.947   6.326   4.804
17952W        W81885  11.137   3.817   2.377
17953W        W81886  36.080  15.278   2.699
17954W        W81887  32.437  27.075  10.586
17955W        W81888  42.471  13.299  10.554
17956W        W81889  21.031  27.019   2.841
17957W        W81890  37.988  23.158   0.926
17958W        W81891  21.544  38.345   1.931
17959W        W81892   3.331  41.508   1.421
17960W        W81893  11.633   3.894  13.342
17961W        W81894  39.382   6.386   2.819
17962W        W81895   1.915  15.781  12.460
17963W        W81896   8.263  23.227   3.233
17964W        W81897  20.068  35.900   4.128
17965W        W81898  27.617  22.242  14.005
17966W        W81899  20.606  17.081   3.387
17967W        W81900  43.892   3.256   1.398
17968W        W81901   5.234  43.969  11.920
17969W        W81902  27.100  43.796  12.850
17970W        W81903  24.017   4.367   1.422
17971W        W81904  36.388  23.707   3.208
17972W        W81905   9.656  34.369  14.348
17973W        W81906  37.979  12.808   5.253
17974W        W81907  42.822  14.231   2.394
17975W        W81908  43.376  14.642   2.341
17976W        W81909   8.390  42.483  10.451
17977W        W81910   4.229  10.653  10.504
17978W        W81911   0.924  32.009  11.985
17979W        W81912   8.763  10.204   2.728
17980W        W81913  35.926  30.074  14.836
17981W        W81914  44.286  12.297   3.702
17982W        W81915  15.654  19.718  11.514
17983W        W81916  36.968   1.908  11.528
17984W        W81917  11.299  11.278  10.416
17985W        W81918   9.644  31.646  14.409
17986W        W81919  21.674  26.972   3.382
17987W        W81920  28.091  28.040   2.390
17988W        W81921  41.831  39.865   0.336
17989W        W81922  43.419  38.539  13.485
17990W        W81923   2.227  38.327   3.868
17991W        W81924  41.839   0.839   0.953
17992W        W81925   2.228  44.371   4.319
17993W        W81926   4.929  40.302  14.817
17994W        W81927  20.727   2.285  12.366
17995W        W81928  37.070  37.006   1.832
17996W        W81929  41.297  34.112   3.663
17997W        W81930   7.867  44.922  11.394
17998W        W81931  16.687  12.319  12.956
17999W        W81932  22.502   9.190   2.816
18000W        W81933  44.835  31.531  10.541
18001W        W81934  39.047   8.363  11.559
18002W        W81935   5.304   1.250  13.446
18003W        W81936  14.775  36.999  12.397
18004W        W81937  11.717  36.535  12.340
18005W        W81938  15.627  12.354   1.389
18006W        W81939  27.189  29.143   4.722
18007W        W81940   1.928   8.672  11.938
18008W        W81941  43.507  13.786   2.312
18009W        W81942  18.616   4.337  14.781
18010W        W81943  16.585  25.501   3.663
18011W        W81944   3.334  38.327  11.458
18012W        W81945  29.055   0.940   2.797
18013W        W81946  19.680  42.880   3.205
18014W        W81947  43.415  26.976  13.959
18015W        W81948  27.196  13.754  14.897
18016W        W81949  27.472   9.278  12.071
18017W        W81950  16.247  31.981   0.379
18018W        W81951  43.281  12.843  13.344
18019W        W81952   4.885  24.133  13.424
18020W        W81953  22.027  19.112   2.294
18021W        W81954   4.397  11.201   1.255
18022W        W81955  32.072   9.687   4.693
18023W        W81956  19.266  14.258   4.740
18024W        W81957   3.829   9.161   4.632
18025W        W81958  43.364   0.744  13.906
18026W        W81959  18.241  26.130   3.200
18027W        W81960  19.773   9.312   1.796
18028W        W81961   0.430  31.979  13.026
18029W        W81962  40.526   3.716   3.814
18030W        W81963  23.180  15.610  10.561
18031W        W81964   4.395  33.001   3.320
18032W        W81965  40.839  39.833   3.259
18033W        W81966  38.002  35.446  11.121
18034W        W81967  30.605   8.811  13.940
18035W        W81968   0.953   4.446  13.924
18036W        W81969   6.846  22.582  11.886
18037W        W81970  21.158  28.137   3.162
18038W        W81971   4.820   4.388   2.864
18039W        W81972   6.777   1.238  13.501
18040W        W81973  21.165   8.164  10.412
18041W        W81974  44.381  25.499   3.839
18042W        W81975  11.130   8.706   1.873
18043W        W81976  15.771   9.221   3.740
18044W        W81977  44.857  23.596  12.436
18045W        W81978  11.354  18.174   0.346
18046W        W81979  34.393   6.377   3.369
18047W        W81980   6.423   8.309  11.413
18048W        W81981  13.744  26.655  14.985
18049W        W81982  30.052  32.888   3.782
18050W        W81983  37.850  39.500   4.319
18051W        W81984  42.836  20.238   3.271
18052W        W81985  14.239  12.322   0.760
18053W        W81986  19.586   7.753  13.335
18054W        W81987  42.475  37.344   0.305
18055W        W81988  21.547  28.135   2.315
18056W        W81989  10.232  13.275  10.919
18057W        W81990  20.149  18.744   5.133
18058W        W81991  42.792  42.391  12.051
18059W        W81992  30.433  10.300  11.521
18060W        W81993  23.130   9.286   2.663
18061W        W81994   0.984  26.133  14.478
18062W        W81995   4.712   7.883   2.273
18063W        W81996  22.572   8.257  10.435
18064W        W81997   9.395  29.632  13.873
18065W        W81998  30.149  11.747   1.359
18066W        W81999   5.876  43.967   4.182
18067W        W82000  13.260  39.407   1.845
18068W        W82001  14.661  39.944  14.869
18069W        W82002  41.866  17.181   3.184
18070W        W82003  41.474  26.999   2.723
18071W        W82004  36.433  42.830   1.929
18072W        W82005  17.114   2.421   4.149
18073W        W82006  34.949  27.557   1.417
18074W        W82007  14.275  43.999  14.299
18075W        W82008   6.381   5.236   4.272
18076W        W82009  17.569  33.110  12.494
18077W        W82010  23.492  43.869   1.436
18078W        W82011   1.453  41.786  12.484
18079W        W82012  34.021  30.502   4.723
18080W        W82013   2.403  38.022   3.161
18081W        W82014  15.142   6.296   2.236
18082W        W82015   6.407  41.026  12.382
18083W        W82016  23.569   8.208   1.306
18084W        W82017   0.426  43.885   4.201
18085W        W82018  10.314  38.539  11.080
18086W        W82019  44.880  10.309   3.688
18087W        W82020   9.801  40.955   2.211
18088W        W82021  25.537  23.221  10.433
18089W        W82022  12.192   7.859  14.894
18090W        W82023   3.777  27.954   5.088
18091W        W82024  30.064  41.462  12.936
18092W        W82025  25.602  28.110   0.288
18093W        W82026   1.961  21.140   4.140
18094W        W82027   0.840  10.257   4.271
18095W        W82028   3.453  15.278  12.938
18096W        W82029  13.344  14.646  11.445
18097W        W82030  34.491  36.363  11.426
18098W        W82031   3.362   0.255   2.748
18099W        W82032  35.054   1.421   0.463
18100W        W82033   4.770  11.780   1.295
18101W        W82034  14.782  23.530  13.433
18102W        W82035  15.652   0.880  10.516
18103W        W82036  44.922  14.789   3.655
18104W        W82037  43.893  36.043  10.999
18105W        W82038  11.857  18.762   1.316
18106W        W82039  42.793   2.881  12.501
18107W        W82040  19.149  38.398  13.394
18108W        W82041  41.333  11.329   3.229
18109W        W82042  34.392  14.743   2.770
18110W        W82043   1.299  12.117   2.869
18111W        W82044  37.002  27.106   4.747
18112W        W82045  33.430  44.960  11.455
18113W        W82046   4.831  13.649  13.357
18114W        W82047  28.183  37.978   1.784
18115W        W82048  35.947   7.342   4.724
18116W        W82049  42.800   7.862   4.820
18117W        W82050  23.098  32.637  14.390
18118W        W82051   5.235  34.928  14.998
18119W        W82052  23.713   0.755  11.490
18120W        W82053  18.753  19.088   5.576
18121W        W82054  28.930   0.294   0.749
18122W        W82055  32.016  37.061  14.809
18123W        W82056   0.320  15.744  12.418
18124W        W82057  22.725  14.137   1.229
18125W        W82058  37.520   8.284  10.902
18126W        W82059  35.952  39.817   1.248
18127W        W82060  11.825   8.240  12.944
18128W        W82061  36.573  39.000  14.896
18129W        W82062  37.535  41.940   2.723
18130W        W82063  24.512  31.567   2.351
18131W        W82064  19.058  44.914  12.349
18132W        W82065  32.083  17.559   0.356
18133W        W82066  21.246  35.475   1.219
18134W        W82067  35.565  41.437  14.777
18135W        W82068   9.796  44.927  13.323
18136W        W82069  39.906  20.716  12.379
18137W        W82070  32.888  18.605  10.501
18138W        W82071   6.749  25.635  13.369
18139W        W82072  37.857  11.292   2.735
18140W        W82073   5.407  20.752  12.484
18141W        W82074  41.006   7.274   2.747
18142W        W82075   8.309  20.272  13.033
18143W        W82076  23.150  21.591  10.999
18144W        W82077   8.825  28.483   3.636
18145W        W82078  27.180  11.305   5.651
18146W        W82079  16.675   7.862   0.468
18147W        W82080  33.103  17.066   3.643
18148W        W82081  24.716  19.715   0.792
18149W        W82082  14.676  35.574   2.825
18150W        W82083  15.625  34.914  14.452
18151W        W82084  43.019  14.318  13.519
18152W        W82085   9.175  33.905   1.352
18153W        W82086   6.677  31.007   3.287
18154W        W82087  39.380  11.157  14.023
18155W        W82088  35.571  19.728  11.923
18156W        W82089   8.849  21.086  12.431
18157W        W82090  43.924  27.003  13.434
18158W        W82091  44.424  40.884   0.849
18159W        W82092   1.243   1.362   0.753
18160W        W82093  33.011  35.561   4.306
18161W        W82094  19.247  12.301   1.290
18162W        W82095  14.174  31.423  14.998
18163W        W82096   5.755  25.507   0.825
18164W        W82097  10.808   2.322   1.795
18165W        W82098  18.119  42.441  10.575
18166W        W82099  24.220  34.998  11.086
18167W        W82100  26.086   9.697   2.292
18168W        W82101  32.022   4.824   5.302
18169W        W82102   0.922  39.532   0.403
18170W        W82103  28.679   4.875   0.942
18171W        W82104  22.239  14.777   3.664
18172W        W82105  18.723  37.929   1.317
18173W        W82106  17.687   4.842  14.497
18174W        W82107   3.907  24.173   0.399
18175W        W82108  14.209   2.438  11.426
18176W        W82109  32.925  43.282   3.369
18177W        W82110  29.991  21.133  14.424
18178W        W82111   8.852  21.670  13.850
18179W        W82112  20.639  15.192   2.736
18180W        W82113   1.788  38.973   1.427
18181W        W82114   0.833   5.769   0.941
18182W        W82115  10.327   9.321  10.638
18183W        W82116  34.995  34.411  10.622
18184W        W82117  18.637   9.364   3.346
18185W        W82118  19.565   7.190  10.912
18186W        W82119  31.596  24.681  13.957
18187W        W82120  36.098  29.536  11.065
18188W        W82121  33.932  21.745   3.276
18189W        W82122  28.155  15.286   3.238
18190W        W82123  12.308   5.814  14.424
18191W        W82124  39.449  22.118  10.952
18192W        W82125   4.222  12.315  11.078
18193W        W82126  25.086  26.089  14.502
18194W        W82127  33.101  34.592   4.773
18195W        W82128  27.521  11.860  12.364
18196W        W82129   8.688  41.812   1.361
18197W        W82130   7.274  32.082   1.268
18198W        W82131  25.481   8.342  10.528
18199W        W82132   6.897  19.209  12.065
18200W        W82133  36.077  23.115  14.369
18201W        W82134  41.919  35.875  10.558
18202W        W82135  35.875  44.268  12.447
18203W        W82136   7.706  44.975  13.883
18204W        W82137  33.041  36.512   0.743
18205W        W82138  37.900   1.482  11.010
18206W        W82139  31.491  17.286   4.640
18207W        W82140  25.098  17.150   4.699
18208W        W82141  13.741  39.373  13.008
18209W        W82142   1.397  20.057   2.181
18210W        W82143  38.543  33.406   4.759
18211W        W82144  36.044  30.470   4.177
18212W        W82145  15.740  44.846  14.027
18213W        W82146  41.947  42.988   5.144
18214W        W82147  41.404  20.576   3.176
18215W        W82148  28.185  32.449  13.061
18216W        W82149  28.445  44.779   2.873
18217W        W82150  24.004   8.200  11.859
18218W        W82151   2.813  20.250   4.242
18219W        W82152  21.202  38.461   4.150
18220W        W82153  33.485   3.377  11.530
18221W        W82154  24.504  20.705  13.917
18222W        W82155  21.125  26.192  10.447
18223W        W82156  25.053   9.786   5.118
18224W        W82157   1.858  16.585  13.435
18225W        W82158  20.101  19.078  13.862
18226W        W82159   5.698  30.589   3.865
18227W        W82160   4.867  40.852  14.829
18228W        W82161   4.903  23.581  14.886
18229W        W82162   6.263  29.018  10.567
18230W        W82163   0.250  39.372  11.535
18231W        W82164  40.956  10.808   0.398
18232W        W82165   4.810  22.105   0.726
18233W        W82166  43.980  23.173   0.374
18234W        W82167  44.461  29.479   0.964
18235W        W82168  37.462  10.670   2.220
18236W        W82169   6.885  27.002  14.504
18237W        W82170  36.378  29.551  14.410
18238W        W82171   5.765  39.965   3.296
18239W        W82172  31.994  30.514  10.906
18240W        W82173  33.505  22.028  11.855
18241W        W82174  31.133   3.301  10.912
18242W        W82175  20.646  37.962  13.335
18243W        W82176  41.813   6.683   1.901
18244W        W82177  31.138   0.389  14.378
18245W        W82178   4.932   7.814  12.474
18246W        W82179  24.061   9.372   4.319
18247W        W82180  39.536  32.062  14.364
18248W        W82181  11.682   8.295  13.905
18249W        W82182  14.190  25.529  11.013
18250W        W82183  20.066   7.722  13.388
18251W        W82184   2.858  40.048  13.997
18252W        W82185   9.156  37.867   1.219
18253W        W82186   1.959  10.218   3.742
18254W        W82187  29.176  15.604   1.439
18255W        W82188  19.724  22.183  14.862
18256W        W82189   2.861  32.069   0.368
18257W        W82190  17.139  15.596  14.315
18258W        W82191  14.786   3.864  12.478
18259W        W82192  32.396   2.898   2.821
18260W        W82193  37.043   9.668   1.864
18261W        W82194  18.290   7.780  11.945
18262W        W82195  35.919  29.029  14.863
18263W        W82196  31.511  18.619   0.270
18264W        W82197  14.244   5.373   0.452
18265W        W82198  16.306  41.949   1.409
18266W        W82199  36.898  23.586   2.891
18267W        W82200  34.507  21.694   1.407
18268W        W82201  35.559  31.030   0.315
18269W        W82202   6.910  24.032   0.296
18270W        W82203  12.136  22.571  13.861
18271W        W82204  34.499  35.582   0.792
18272W        W82205  21.101   3.812  14.021
18273W        W82206  26.556   4.294   4.129
18274W        W82207  36.884  34.954  11.060
18275W        W82208  21.108  17.174  12.574
18276W        W82209  21.523  36.500  14.865
18277W        W82210  41.354  34.014  14.441
18278W        W82211  36.871   5.899   2.780
18279W        W82212  43.012  32.619  11.882
18280W        W82213  41.486  11.229  13.393
18281W        W82214  13.660  14.200  14.479
18282W        W82215  26.517  39.814   1.863
18283W        W82216   0.753  15.212  10.540
18284W        W82217  25.709  26.072  13.847
18285W        W82218  39.539  36.348   4.659
18286W        W82219  15.325  29.603  10.630
18287W        W82220  16.246  15.616  13.917
18288W        W82221  40.008   7.330   0.841
18289W        W82222  21.020  15.224  11.605
18290W        W82223   0.891  23.174   0.379
18291W        W82224  18.722  29.960   1.225
18292W        W82225  20.712   2.799   2.284
18293W        W82226  24.011  20.658   2.261
18294W        W82227  33.623  33.912   2.836
18295W        W82228  37.059  12.230   0.774
18296W        W82229   3.226  43.005   0.445
18297W        W82230  15.598  32.060   3.732
18298W        W82231  28.571  41.922  11.449
18299W        W82232   3.817  23.003   1.861
18300W        W82233  22.161  35.062  12.046
18301W        W82234   5.880  20.565  13.451
18302W        W82235  11.651  32.406  13.363
18303W        W82236   7.308  14.602  10.890
18304W        W82237  31.529  32.018  12.396
18305W        W82238  19.593  40.802  13.505
18306W        W82239  38.869  43.009  14.007
18307W        W82240  43.384  30.659   1.922
18308W        W82241   5.693  40.505  12.536
18309W        W82242   2.398  31.937   1.427
18310W        W82243  24.663  41.340   0.294
18311W        W82244  28.543  12.841   3.726
18312W        W82245  36.042  42.887   1.380
18313W        W82246  27.090  40.376  11.032
18314W        W82247  34.509  44.469   2.371
18315W        W82248  16.770   6.747   2.395
18316W        W82249  32.452  28.530  13.515
18317W        W82250   8.286  17.652  12.978
18318W        W82251   5.347  23.658   0.362
18319W        W82252  33.086   9.358  11.609
18320W        W82253  37.428  28.017  11.037
18321W        W82254  23.517  14.645   0.733
18322W        W82255  20.599   7.263  14.386
18323W        W82256  36.918   0.887  14.339
18324W        W82257  17.091  35.939   0.373
18325W        W82258  39.967   6.251   2.320
18326W        W82259   1.928  34.954   4.767
18327W        W82260  29.560   5.234  14.818
18328W        W82261  37.956  25.629  11.096
18329W        W82262  33.435  17.301   2.293
18330W        W82263  28.516   0.400   9.969
18331W        W82264  39.040  41.036  12.876
18332W        W82265  41.924   4.782  11.442
18333W        W82266  14.646  12.616  12.869
18334W        W82267   0.336  26.519  11.519
18335W        W82268  33.474  19.120  13.361
18336W        W82269   4.256  26.136   1.752
18337W        W82270  32.111  31.955   1.364
18338W        W82271  32.588  17.081   2.730
18339W        W82272  25.146  35.554  12.409
18340W        W82273  36.095  33.990  13.982
18341W        W82274  12.854  34.410  13.931
18342W        W82275  35.877   3.348  13.922
18343W        W82276  15.085   7.300   1.880
18344W        W82277   1.798   2.759  14.346
18345W        W82278  29.600  29.635   1.246
18346W        W82279  29.093   0.843  10.027
18347W        W82280  10.661   0.777   3.246
18348W        W82281  26.114  18.149   2.715
18349W        W82282   8.183  21.204  13.485
18350W        W82283  11.837  42.006  10.455
18351W        W82284  13.765  17.698   2.899
18352W        W82285  15.690   8.311   3.734
18353W        W82286  14.211  38.449  12.882
18354W        W82287  40.864  20.732  14.504
18355W        W82288  20.572  33.125  11.596
18356W        W82289   8.863  21.072   3.169
18357W        W82290  35.424  44.849  12.866
18358W        W82291  20.596   4.442   3.747
18359W        W82292   9.765  42.795   1.241
18360W        W82293  37.985   6.242  11.469
18361W        W82294  11.819  13.270  13.055
18362W        W82295  22.667  30.626  14.011
18363W        W82296  23.503  15.188   3.774
18364W        W82297  14.590  18.262  14.361
18365W        W82298  15.167  17.753   5.193
18366W        W82299  24.118   1.901  10.122
18367W        W82300  39.544  11.202   1.288
18368W        W82301  38.075  29.485  11.590
18369W        W82302  16.741  35.471   1.381
18370W        W82303   4.800  21.749   4.706
18371W        W82304  39.451  34.377  11.501
18372W        W82305  16.163  16.640   0.276
18373W        W82306  32.036  37.959   2.749
18374W        W82307  38.869  22.089  14.958
18375W        W82308  42.359  26.615   3.820
18376W        W82309  36.561  17.672   2.788
18377W        W82310   8.678  13.243  10.986
18378W        W82311   0.316  10.850  10.973
18379W        W82312  32.058  41.432  13.420
18380W        W82313  32.525  43.364   1.212
18381W        W82314  34.101  29.031  11.475
18382W        W82315  21.125  21.145  14.962
18383W        W82316   3.296  14.267   0.476
18384W        W82317   7.732   5.319  10.454
18385W        W82318   9.677  22.608  11.968
18386W        W82319  20.184  24.122  14.275
18387W        W82320  10.330  18.694   5.295
18388W        W82321  19.087  23.671   3.380
18389W        W82322  11.196  39.923   1.358
18390W        W82323  34.533  10.307   1.776
18391W        W82324  23.060  14.125  11.964
18392W        W82325   8.741   8.791   3.223
18393W        W82326  11.777  34.881  10.976
18394W        W82327  42.810   4.805   2.877
18395W        W82328  16.106   0.321   0.316
18396W        W82329  11.798  32.548  14.926
18397W        W82330  31.081  22.729   2.293
18398W        W82331   5.254   9.149  14.306
18399W        W82332  27.956  41.483   0.482
18400W        W82333  14.753  40.988  12.546
18401W        W82334  29.980  27.947   2.687
18402W        W82335   6.797   9.674  12.857
18403W        W82336  25.509  13.315   1.888
18404W        W82337  30.530   2.426   0.276
18405W        W82338  38.517   7.374   3.799
18406W        W82339  27.161  22.227   1.885
18407W        W82340  40.911   1.305   1.262
18408W        W82341   3.806   5.330  11.404
18409W        W82342  38.330  10.192  14.925
18410W        W82343  31.036  43.988  12.038
18411W        W82344   3.272  32.993   0.730
18412W        W82345  42.515  28.555  11.118
18413W        W82346  26.673  13.325  11.481
18414W        W82347   6.300  18.262   0.750
18415W        W82348  16.593  25.618  10.902
18416W        W82349  34.396  40.447  13.421
18417W        W82350  26.493  13.140  12.357
18418W        W82351  43.437  39.953   4.636
18419W        W82352  32.585  25.501  13.440
18420W        W82353   6.299  12.653  10.991
18421W        W82354  28.122  16.681  12.951
18422W        W82355  42.350   4.745   0.732
18423W        W82356  17.762  19.178  12.416
18424W        W82357  44.947   7.699   3.274
18425W        W82358  18.287   7.733   4.237
18426W        W82359   1.361  10.283   3.866
18427W        W82360  34.873  33.967   3.776
18428W        W82361  11.678  29.140  13.913
18429W        W82362  14.264  12.630   0.437
18430W        W82363  27.492  12.718   1.391
18431W        W82364  44.006  32.080  10.412
18432W        W82365  25.123   1.428  14.916
18433W        W82366  31.509  31.425   3.678
18434W        W82367  41.512  34.088  13.327
18435W        W82368  29.967  40.041  12.348
18436W        W82369  29.502  30.919  11.452
18437W        W82370   2.270  11.231  11.516
18438W        W82371  15.794  17.086  13.395
18439W        W82372   1.437   4.774   3.283
18440W        W82373  14.807  19.128   0.884
18441W        W82374  42.935  39.010   0.360
18442W        W82375  31.643  11.833   2.250
18443W        W82376  33.422  40.911  12.869
18444W        W82377  16.634  20.679   1.258
18445W        W82378  43.907  18.073   1.920
18446W        W82379  10.160  40.381  13.546
18447W        W82380  24.480   4.787   1.852
18448W        W82381  19.589  37.421   0.247
18449W        W82382  29.140  22.617  10.619
18450W        W82383  34.025   1.428  13.001
18451W        W82384  18.780  32.616   3.637
18452W        W82385  24.095   0.974  11.990
18453W        W82386  20.242  39.556  13.915
18454W        W82387  39.522  30.113   2.693
18455W        W82388  20.074   3.450  11.387
18456W        W82389  20.591   2.896   4.162
18457W        W82390  26.668   5.804   3.357
18458W        W82391   7.176  39.924   0.370
18459W        W82392  34.094   4.297  12.445
18460W        W82393  22.086  10.254   9.664
18461W        W82394  15.284  34.552   3.262
18462W        W82395   3.729   6.365  12.846
18463W        W82396   7.666   4.324   0.285
18464W        W82397  21.211  43.864   4.604
18465W        W82398  22.546  38.356  13.895
18466W        W82399   6.193  31.963  13.503
18467W        W82400  42.388  26.646  11.087
18468W        W82401  14.636   6.408  13.934
18469W        W82402  14.333  39.898   0.404
18470W        W82403  23.112  29.985   3.256
18471W        W82404  18.626  30.091  10.619
18472W        W82405  18.728  10.675   4.606
18473W        W82406  36.498  26.499  13.447
18474W        W82407   7.685   5.923  10.982
18475W        W82408  12.745  29.956  11.917
18476W        W82409   8.772  17.185  13.870
18477W        W82410  10.328   9.734   2.246
18478W        W82411   0.855  41.809  14.384
18479W        W82412  19.719  27.176   3.753
18480W        W82413   3.374  13.650  13.048
18481W        W82414  41.512  25.024   0.767
18482W        W82415  25.469  28.095  10.456
18483W        W82416  24.065  19.231   4.652
18484W        W82417  27.948  38.968   1.909
18485W        W82418   6.703  34.977  12.829
18486W        W82419   3.818  37.486   0.746
18487W        W82420  29.540  38.495   3.350
18488W        W82421  33.544   5.739   3.186
18489W        W82422  34.116  44.892  14.369
18490W        W82423  34.049  13.328   4.309
18491W        W82424  40.001  14.267  13.930
18492W        W82425  32.885  25.672   3.699
18493W        W82426  43.867  42.890  13.893
18494W        W82427  31.962  37.403   0.948
18495W        W82428  23.532  43.823  13.863
18496W        W82429  42.480   4.719  13.436
18497W        W82430  38.885  24.146  14.436
18498W        W82431  40.915  27.132   2.411
18499W        W82432   9.367   0.905   0.896
18500W        W82433  20.532  23.713   2.334
18501W        W82434   0.823  26.558  11.589
18502W        W82435  25.492  30.055  12.045
18503W        W82436  24.486  18.770   0.362
18504W        W82437  11.838  11.141  13.015
18505W        W82438  17.100   9.788   2.683
18506W        W82439  16.780  33.558  11.380
18507W        W82440  27.633  36.410   0.887
18508W        W82441  31.558  26.003  14.899
18509W        W82442  36.554   9.164   4.669
18510W        W82443   6.716  32.141   1.736
18511W        W82444  36.979  36.350  12.518
18512W        W82445  38.024  41.953  10.626
18513W        W82446  24.519  16.166  13.048
18514W        W82447  32.466   8.319  10.585
18515W        W82448   9.313  25.170   0.430
18516W        W82449  11.806  24.178  12.560
18517W        W82450  29.034  34.509  13.464
18518W        W82451  20.561  31.098   0.249
18519W        W82452  22.179  33.975   4.668
18520W        W82453  38.850  11.700   4.335
18521W        W82454  36.515  38.454  11.996
18522W        W82455  27.650  33.481   2.851
18523W        W82456   0.343  19.263  11.976
18524W        W82457  29.662  19.257  13.540
18525W        W82458   9.732  26.100   1.350
18526W        W82459  12.850  35.571  14.861
18527W        W82460   4.339   8.352   0.798
18528W        W82461   2.948  22.030  11.982
18529W        W82462  30.976  28.472   2.201
18530W        W82463  23.148   5.193   2.665
18531W        W82464  39.981  43.802  10.495
18532W        W82465  19.053   3.785  11.420
18533W        W82466  42.879  32.979  11.085
18534W        W82467  16.576  26.100  13.534
18535W        W82468   1.461  41.841   3.632
18536W        W82469  22.599  31.976  11.504
18537W        W82470   1.459  41.375   4.310
18538W        W82471  37.950  30.111   3.742
18539W        W82472   6.242  41.461  10.071
18540W        W82473  34.457  18.057  12.937
18541W        W82474  42.450  23.659   3.803
18542W        W82475  12.691   8.361  14.892
18543W        W82476  19.717  12.701  12.921
18544W        W82477  34.467  26.556  14.470
18545W        W82478  39.923  10.869   4.246
18546W        W82479   2.414  33.902  14.283
18547W        W82480  35.370   4.256   0.896
18548W        W82481  24.016  29.490  12.067
18549W        W82482  12.228   6.424   2.234
18550W        W82483  14.805  39.325   2.818
18551W        W82484  36.883  33.106  12.447
18552W        W82485   3.277  32.061   1.383
18553W        W82486  29.430   3.807  13.486
18554W        W82487  42.839   6.341   4.731
18555W        W82488  19.263  13.754   4.738
18556W        W82489   5.708  18.609  12.918
18557W        W82490  39.829  20.603   4.804
18558W        W82491  20.267  11.294   3.644
18559W        W82492  40.951  21.652   3.300
18560W        W82493  15.195  17.719   1.273
18561W        W82494  17.234  14.831  14.380
18562W        W82495  29.110  27.008  10.917
18563W        W82496  13.123  10.659  11.441
18564W        W82497  25.158  11.133  10.938
18565W        W82498   8.757  36.871   4.157
18566W        W82499  24.517  41.981  13.476
18567W        W82500  24.111  29.105   1.815
18568W        W82501  28.173  12.783  11.872
18569W        W82502   4.699   3.316  14.931
18570W        W82503   2.340  17.210   1.336
18571W        W82504  38.983   8.339   3.694
18572W        W82505   3.314  24.000  10.930
18573W        W82506   9.235  39.002  13.371
18574W        W82507  14.156  35.450  13.502
18575W        W82508  42.519  37.424  14.404
18576W        W82509  23.098  12.356  14.293
18577W        W82510  42.802  34.907   2.667
18578W        W82511   5.702  15.737  11.525
18579W        W82512  40.524  43.431  14.339
18580W        W82513  30.060  36.519   2.865
18581W        W82514   9.849  41.907  14.456
18582W        W82515   0.452  20.588  14.935
18583W        W82516  31.516  26.691  13.522
18584W        W82517  34.478  15.787  10.412
18585W        W82518  42.841  26.053   0.483
18586W        W82519  27.032  27.066  12.561
18587W        W82520  26.677  12.725  13.972
18588W        W82521  29.148  30.645  14.966
18589W        W82522   1.952   8.270  12.991
18590W        W82523  28.585  10.237   1.212
18591W        W82524  36.439  44.418  10.565
18592W        W82525   3.412  34.987   0.482
18593W        W82526  22.674  11.839  10.543
18594W        W82527   5.366  27.068  11.025
18595W        W82528  21.080  38.842   5.279
18596W        W82529  36.027  13.182  13.039
18597W        W82530  30.596  43.017   9.993
18598W        W82531  27.679  24.151   2.798
18599W        W82532  15.752  29.643   5.219
18600W        W82533  30.096  36.478  11.601
18601W        W82534  11.346  11.206  12.851
18602W        W82535  25.539  30.966  11.392
18603W        W82536  16.709  35.424   3.717
18604W        W82537  42.366  44.444   0.775
18605W        W82538  20.036  13.702   1.761
18606W        W82539  18.589  25.568   5.250
18607W        W82540  20.060  12.825   9.935
18608W        W82541  30.979  31.478   3.799
18609W        W82542   2.954  44.484   1.783
18610W        W82543  34.874   7.369  14.488
18611W        W82544  36.462  21.252  13.030
18612W        W82545  21.162  19.284  14.924
18613W        W82546  32.394  43.783   4.744
18614W        W82547  30.454  33.484  11.478
18615W        W82548   5.228  37.965  13.321
18616W        W82549   1.459  25.512  12.404
18617W        W82550  38.961  10.334  11.992
18618W        W82551   5.385  37.338  12.422
18619W        W82552  32.908  16.073   2.252
18620W        W82553   6.772  40.920   3.277
18621W        W82554  32.082  10.285   0.841
18622W        W82555  40.348   4.863   0.735
18623W        W82556   9.349  38.461  14.850
18624W        W82557  23.548  43.497  13.908
18625W        W82558   0.250  43.011  11.584
18626W        W82559  27.104  40.867  11.556
18627W        W82560  12.222  38.552  14.935
18628W        W82561  42.008  12.204  13.432
18629W        W82562  36.846  31.993  12.518
18630W        W82563  28.664  39.526  14.502
18631W        W82564  14.645   8.174  13.513
18632W        W82565  15.140   0.318  12.499
18633W        W82566  10.737  39.886  12.376
18634W        W82567   3.461  35.430  11.962
18635W        W82568  36.860   0.893   0.454
18636W        W82569  24.607  36.850   0.738
18637W        W82570  12.848  17.568   2.841
18638W        W82571  34.880  21.099  13.892
18639W        W82572   6.399  35.471   4.182
18640W        W82573   6.833  17.791  12.932
18641W        W82574   0.824  27.603   1.214
18642W        W82575  35.532  42.452   1.861
18643W        W82576  39.326  15.786  13.011
18644W        W82577   7.213  14.650   1.233
18645W        W82578  36.927  32.630  12.376
18646W        W82579  40.027   5.896   2.824
18647W        W82580   9.778  11.346   4.144
18648W        W82581  27.519  15.774   0.866
18649W        W82582  21.717   7.861  14.507
18650W        W82583  17.162  23.538   4.834
18651W        W82584  13.148  18.769   2.335
18652W        W82585  15.095  14.780   0.914
18653W        W82586  42.838  39.542  11.030
18654W        W82587  15.633   9.382   9.994
18655W        W82588  30.494  43.507   2.702
18656W        W82589  13.817   9.858  12.421
18657W        W82590  22.685  37.372   2.664
18658W        W82591  15.681   4.892  10.487
18659W        W82592  12.618  39.824   0.964
18660W        W82593  24.024  19.741  10.133
18661W        W82594  22.032  14.816  10.997
18662W        W82595  18.199  29.094   1.810
18663W        W82596  19.702  43.455   4.787
18664W        W82597  22.029  10.365  14.832
18665W        W82598  41.525  27.555  10.966
18666W        W82599   2.830  32.483   1.830
18667W        W82600  38.014  21.032   0.467
18668W        W82601  29.106  14.612   4.191
18669W        W82602  43.947  16.799   1.850
18670W        W82603   6.830   7.763  11.893
18671W        W82604  39.932  29.006  13.878
18672W        W82605  26.527  13.692  12.863
18673W        W82606  23.010  39.949  10.892
18674W        W82607  14.808  41.501   2.854
18675W        W82608  30.528   1.876   1.288
18676W        W82609   1.965   6.788   2.225
18677W        W82610  31.602  16.186   2.832
18678W        W82611  43.951   5.832  14.321
18679W        W82612  21.590  34.968   0.415
18680W        W82613  33.422  42.367   1.233
18681W        W82614  36.038  44.423  14.032
18682W        W82615  40.843  28.614  14.885
18683W        W82616  36.931  34.597  14.919
18684W        W82617  39.842  40.838  13.325
18685W        W82618  24.483  34.076   0.390
18686W        W82619  18.239  15.612   2.689
18687W        W82620  16.664  23.591   4.154
18688W        W82621   5.343  37.393   5.216
18689W        W82622  23.720   0.465   3.251
18690W        W82623  32.588  15.118   0.318
18691W        W82624  38.053  20.595   3.378
18692W        W82625   4.755  43.800  10.063
18693W        W82626  12.195  13.840   4.626
18694W        W82627  30.080   8.385   4.280
18695W        W82628  12.265  13.846   3.752
18696W        W82629   1.977  36.991  13.527
18697W        W82630  27.171  37.538  14.788
18698W        W82631  31.547  31.925   1.293
18699W        W82632  28.154  41.462   3.175
18700W        W82633  25.491  27.053  13.810
18701W        W82634  29.071   6.865   0.364
18702W        W82635  28.134  21.047  14.853
18703W        W82636  36.085  35.540   3.730
18704W        W82637  40.335   4.371  10.523
18705W        W82638  26.635  28.636   1.389
18706W        W82639  35.370  30.517  10.889
18707W        W82640  10.313  42.956  13.793
18708W        W82641  26.190   8.800   1.294
18709W        W82642  13.715  41.333  14.342
18710W        W82643  32.060  29.566  10.962
18711W        W82644  31.625  40.547  13.405
18712W        W82645  20.586  34.414  10.502
18713W        W82646  30.627  41.421  14.025
18714W        W82647   7.388  43.826  10.519
18715W        W82648  30.011   4.213   2.378
18716W        W82649  25.067  44.435  11.988
18717W        W82650   5.837  38.509  12.391
18718W        W82651   9.341   0.838   0.381
18719W        W82652  35.591  26.108   4.796
18720W        W82653  42.426  28.450  13.814
18721W        W82654  36.006  20.718   1.750
18722W        W82655   6.272  42.378  12.882
18723W        W82656  29.547  23.004   2.365
18724W        W82657   2.814  31.423   2.888
18725W        W82658  17.701  17.639   0.913
18726W        W82659  38.949   9.849  11.973
18727W        W82660  30.518  24.196   0.848
18728W        W82661   4.244  37.572   3.247
18729W        W82662   1.886   8.176   0.275
18730W        W82663  16.124  44.441   4.238
18731W        W82664  16.258  24.119   4.145
18732W        W82665  10.768  26.025  14.765
18733W        W82666  15.813  41.440   0.268
18734W        W82667   0.387  37.943  11.550
18735W        W82668   9.181  40.386  13.889
18736W        W82669  34.460   8.376  10.438
18737W        W82670  37.483  34.418  13.017
18738W        W82671   0.401  19.270  11.523
18739W        W82672  18.601  26.167   3.706
18740W        W82673  37.577   8.694  13.504
18741W        W82674   4.713  27.012  10.618
18742W        W82675  17.133  26.492  12.453
18743W        W82676  26.968  28.124  11.857
18744W        W82677  16.615  27.130   3.327
18745W        W82678  43.394   6.702   2.340
18746W        W82679  39.404  21.521   1.813
18747W        W82680   7.183   6.184   4.238
18748W        W82681  14.156  12.359  14.932
18749W        W82682   4.333  25.006   0.836
18750W        W82683   0.911   1.440  13.321
18751W        W82684  41.335   1.436   4.691
18752W        W82685  14.737   4.232   4.239
18753W        W82686  30.558   6.871   0.390
18754W        W82687  27.043  26.699   1.315
18755W        W82688  11.209   6.238   0.472
18756W        W82689  22.217  22.070   0.413
18757W        W82690  39.364  26.680  11.409
18758W        W82691  24.571   6.881   2.195
18759W        W82692  21.183   0.315   2.758
18760W        W82693  42.419  12.841   2.352
18761W        W82694  23.565   3.227  12.934
18762W        W82695  21.143   6.182  13.935
18763W        W82696  41.849  36.055   2.309
18764W        W82697  28.581  23.603   0.726
18765W        W82698   4.945  10.710   3.219
18766W        W82699   1.850  22.168  11.006
18767W        W82700  21.212  21.731  10.613
18768W        W82701  20.652  28.095   2.723
18769W        W82702   7.812  20.711  14.444
18770W        W82703  42.365  24.690   3.640
18771W        W82704   7.185  22.710   2.413
18772W        W82705  25.190  20.688  12.482
18773W        W82706   5.912   8.233   3.723
18774W        W82707  20.132  16.173  10.617
18775W        W82708  14.276  32.112  14.998
18776W        W82709  26.199  38.463   0.807
18777W        W82710  29.654  12.315   3.762
18778W        W82711  28.054  20.643   1.816
18779W        W82712  34.028  43.296  12.899
18780W        W82713  11.843  22.579   2.389
18781W        W82714  33.908  32.502   1.837
18782W        W82715   3.768   7.805  11.064
18783W        W82716  30.923  30.022   3.748
18784W        W82717  11.297  35.948   4.223
18785W        W82718   2.848  31.626  12.020
18786W        W82719  35.505  25.588  10.554
18787W        W82720  17.560  17.123  11.565
18788W        W82721  17.650  40.026   0.851
18789W        W82722  19.584  43.445   3.375
18790W        W82723  22.545  23.169   2.182
18791W        W82724   3.731  28.672   4.313
18792W        W82725   9.795  24.148   0.745
18793W        W82726  23.027  31.944  11.103
18794W        W82727  40.980  37.924  12.545
18795W        W82728  43.886   4.400  11.469
18796W        W82729  43.384  25.674   2.740
18797W        W82730  31.039  25.676  11.002
18798W        W82731   5.412  29.525  14.885
18799W        W82732  43.433  37.872  11.099
18800W        W82733  39.406  39.535   1.843
18801W        W82734  40.867  22.235  13.316
18802W        W82735  32.132   6.215   5.144
18803W        W82736  43.312  34.986   4.640
18804W        W82737  23.985   2.284   3.245
18805W        W82738  17.682  35.561  10.637
18806W        W82739  44.970  14.147   2.838
18807W        W82740   0.745  28.649  13.390
18808W        W82741  21.522  41.973   4.828
18809W        W82742  14.712  33.890   3.764
18810W        W82743  17.287  39.811   1.700
18811W        W82744  10.875   1.365   2.349
18812W        W82745  42.338  11.751  13.423
18813W        W82746  28.184  34.869  12.504
18814W        W82747  38.834   7.721   4.210
18815W        W82748   0.845  40.872   0.761
18816W        W82749   7.797  37.032   2.795
18817W        W82750  23.142  43.404  14.816
18818W        W82751  37.012  41.383  11.421
18819W        W82752  27.153  44.935   3.156
18820W        W82753  14.246   7.830   0.426
18821W        W82754  25.171  19.606   1.424
18822W        W82755  10.678  23.147  14.784
18823W        W82756  32.085  19.756  13.496
18824W        W82757  30.488  10.213  13.516
18825W        W82758  29.549  44.435  10.494
18826W        W82759  27.987  14.686   3.350
18827W        W82760  40.380  34.075   4.335
18828W        W82761  21.628   3.946  13.334
18829W        W82762  24.027  40.449   4.605
18830W        W82763  36.488  12.719  11.856
18831W        W82764  20.220  35.511   0.910
18832W        W82765  24.488  15.276   1.423
18833W        W82766  33.620   0.484  13.891
18834W        W82767  16.762  38.372   0.884
18835W        W82768  38.864  36.091  13.834
18836W        W82769  16.801  26.023  14.766
18837W        W82770  29.539  34.381   4.322
18838W        W82771  23.032   6.241  11.860
18839W        W82772  11.161   6.845  10.594
18840W        W82773  12.808  36.060  13.521
18841W        W82774   4.215  28.121   3.779
18842W        W82775  17.637   3.308   3.715
18843W        W82776  13.797  44.906   1.892
18844W        W82777   2.429  22.701   1.820
18845W        W82778   5.390  19.109  11.058
18846W        W82779   6.788   8.170   4.121
18847W        W82780  34.041  13.225  10.587
18848W        W82781  31.628  20.034   4.738
18849W        W82782  34.953  11.157   3.856
18850W        W82783  43.004  15.788  12.040
18851W        W82784  33.968  32.456  14.961
18852W        W82785  21.703  14.242   2.714
18853W        W82786  37.973   0.467  12.957
18854W        W82787   6.785  43.908   2.743
18855W        W82788  16.214  13.290  11.572
18856W        W82789  32.563  32.424   2.802
18857W        W82790   9.855   4.709   2.186
18858W        W82791  15.326  28.071   1.836
18859W        W82792  44.806  23.100   0.269
18860W        W82793  30.032  23.647  11.015
18861W        W82794  20.201  31.456   2.286
18862W        W82795  38.498  22.175   4.662
18863W        W82796  16.190  16.182  11.077
18864W        W82797  42.997   4.941  11.119
18865W        W82798  35.490   6.808  11.406
18866W        W82799   0.254   5.197   0.463
18867W        W82800  44.991   8.673  11.898
18868W        W82801  31.118  42.892   3.829
18869W        W82802  18.600  39.530   3.176
18870W        W82803  44.472  35.591  14.456
18871W        W82804  36.401  22.114  13.837
18872W        W82805  43.842  19.557   3.298
18873W        W82806  43.308  33.004  10.547
18874W        W82807   9.198  27.521   3.718
18875W        W82808   0.264  39.034   5.158
18876W        W82809  40.986   1.911   3.385
18877W        W82810  20.113  25.648  12.835
18878W        W82811  31.114  35.412   0.841
18879W        W82812  16.593  11.175  13.036
18880W        W82813  32.433  28.532  14.493
18881W        W82814  16.794  24.568  10.556
18882W        W82815  41.322  37.502   3.353
18883W        W82816  10.329   1.743   3.734
18884W        W82817   0.907  27.170  14.399
18885W        W82818   6.349  35.577  11.939
18886W        W82819   1.318  34.539  14.922
18887W        W82820  39.920   6.755   2.243
18888W        W82821  39.861  29.127  10.555
18889W        W82822   0.325  15.295  12.426
18890W        W82823  39.962   1.918  12.046
18891W        W82824  31.041  21.538   3.191
18892W        W82825  11.794   2.361  14.331
18893W        W82826  38.494  13.200   3.302
18894W        W82827   1.880  18.550  13.935
18895W        W82828  27.624   3.946   3.194
18896W        W82829   6.828   0.857   3.237
18897W        W82830  30.527   3.751  10.462
18898W        W82831  21.738  35.384  14.514
18899W        W82832  43.271  10.220  14.967
18900W        W82833  31.535  40.548  11.570
18901W        W82834  37.441  32.100   5.233
18902W        W82835  37.908  33.572  11.541
18903W        W82836   8.175   1.960   2.698
18904W        W82837  40.331  39.992   0.384
18905W        W82838  32.994  43.840   2.756
18906W        W82839  38.496  12.290  13.969
18907W        W82840  41.979  15.301  11.909
18908W        W82841   7.174  19.082  14.886
18909W        W82842  28.068   9.291   4.201
18910W        W82843  15.195  17.214   1.766
18911W        W82844  26.998  15.166   2.714
18912W        W82845  41.517  34.516  13.342
18913W        W82846  32.598  33.520   1.738
18914W        W82847  25.060  17.645  11.464
18915W        W82848  37.946  29.452  10.495
18916W        W82849  23.219  10.688  11.532
18917W        W82850  29.425  41.460   3.239
18918W        W82851  40.445  31.923  11.990
18919W        W82852   7.319   5.206   9.942
18920W        W82853  17.688  42.945   1.212
18921W        W82854  30.556  31.480   4.611
18922W        W82855   3.249  13.618  14.031
18923W        W82856   6.353  19.238   2.844
18924W        W82857  27.653  42.973  13.874
18925W        W82858  40.865  35.979   3.230
18926W        W82859  21.649  31.120  14.907
18927W        W82860   5.812  18.610   2.885
18928W        W82861   1.921  12.260  10.979
18929W        W82862  15.648  35.881   0.932
18930W        W82863  17.206   1.802   4.205
18931W        W82864  38.331  10.648  10.505
18932W        W82865  36.562  28.092   4.139
18933W        W82866  17.116   0.848   0.867
18934W        W82867  17.578   6.710   1.816
18935W        W82868  42.905   4.427  10.589
18936W        W82869  29.153  44.338   0.824
18937W        W82870   2.855  33.063   1.816
18938W        W82871  33.980  10.186  12.043
18939W        W82872  31.014  37.359   1.874
18940W        W82873  27.589  30.451   4.692
18941W        W82874  40.502  33.483   2.743
18942W        W82875  27.115  23.562   1.437
18943W        W82876  22.551  37.551   0.815
18944W        W82877  36.939  44.335   4.297
18945W        W82878  38.330  10.807  11.468
18946W        W82879  25.138  26.168  11.007
18947W        W82880  33.115  16.587   0.772
18948W        W82881   8.863  18.086  13.416
18949W        W82882  15.212  37.564  12.087
18950W        W82883  14.738   4.749   3.322
18951W        W82884  16.293  34.385  13.496
18952W        W82885  29.451  23.208   0.875
18953W        W82886  40.805  12.147   4.162
18954W        W82887  22.678  35.046  10.052
18955W        W82888  33.461  41.821   3.659
18956W        W82889  27.505  44.414  12.075
18957W        W82890   2.770  41.840  13.420
18958W        W82891  36.542  15.675   3.205
18959W        W82892  21.182  39.824  14.465
18960W        W82893  38.484  14.258  14.787
18961W        W82894  40.318  43.005   3.656
18962W        W82895   5.927  10.692  12.897
18963W        W82896  13.270  36.888  13.879
18964W        W82897  39.837  44.260   4.768
18965W        W82898  25.125  30.962   2.402
18966W        W82899  32.971  27.119  10.964
18967W        W82900  17.684  23.124  14.347
18968W        W82901   2.868  11.363   3.207
18969W        W82902  16.623  34.536   3.257
18970W        W82903  31.404  27.948  13.845
18971W        W82904   8.822   1.872   3.214
18972W        W82905  31.975  17.132   4.129
18973W        W82906  43.893   4.254   1.792
18974W        W82907  17.697  12.221  11.422
18975W        W82908  30.466  26.020  10.589
18976W        W82909  22.736  17.717   3.718
18977W        W82910   3.331   0.426  10.024
18978W        W82911  11.215  32.509  11.870
18979W        W82912   5.885  39.024   0.340
18980W        W82913   7.802   8.657   5.202
18981W        W82914  11.348  35.966  12.382
18982W        W82915   6.365   4.276  11.920
18983W        W82916  18.230   3.332  12.945
18984W        W82917   1.343   2.249   2.743
18985W        W82918   1.376  43.921   2.208
18986W        W82919  37.378  20.274   1.439
18987W        W82920  28.481  17.282   0.454
18988W        W82921  24.054  39.933  14.469
18989W        W82922  30.523  27.509  12.448
18990W        W82923  18.169  35.575  12.531
18991W        W82924  24.718  42.855  13.016
18992W        W82925   5.895  29.591  10.603
18993W        W82926  44.308  17.104  14.362
18994W        W82927   3.419  17.651   1.413
18995W        W82928  42.478  27.652   4.311
18996W        W82929  11.239  15.140   2.179
18997W        W82930  17.087  43.988  11.964
18998W        W82931  16.295  24.656   0.314
18999W        W82932  31.538  34.037   4.238
19000W        W82933   0.909  13.802   0.317
19001W        W82934  30.520  12.126   1.346
19002W        W82935  37.056  14.134   2.344
19003W        W82936  34.595  38.957   3.303
19004W        W82937  35.903  16.222   4.699
19005W        W82938  39.404   2.963  10.431
19006W        W82939  31.026  38.366   2.284
19007W        W82940  13.731   4.807  11.107
19008W        W82941   3.299  11.772   4.687
19009W        W82942  34.451  37.489   0.306
19010W        W82943  43.393  13.254   0.383
19011W        W82944  14.279  31.644  12.533
19012W        W82945   3.321  22.608  10.470
19013W        W82946  24.621   7.282   3.716
19014W        W82947  30.563  18.581  10.963
19015W        W82948  26.504  42.495   2.373
19016W        W82949   4.850   7.286  14.927
19017W        W82950   7.841  26.182  13.437
19018W        W82951  43.491  28.676  12.413
19019W        W82952  20.058  19.662   3.278
19020W        W82953  38.384  29.140   2.713
19021W        W82954  17.713  34.985  10.637
19022W        W82955  41.958  39.866   3.347
19023W        W82956  21.564  10.215  10.447
19024W        W82957  37.509  22.163  12.458
19025W        W82958  29.554  43.375   4.123
19026W        W82959   5.908  39.388   0.856
19027W        W82960  13.641  23.228  10.408
19028W        W82961   2.466   3.817   2.713
19029W        W82962  24.481  19.236  13.025
19030W        W82963  21.668  20.194  11.519
19031W        W82964  20.708  39.841   4.762
19032W        W82965  35.003  14.767   2.387
19033W        W82966   2.859   7.207  11.082
19034W        W82967  31.898  14.614  13.918
19035W        W82968  22.250  15.639   1.337
19036W        W82969  24.153   5.733  14.413
19037W        W82970  20.251  26.981   1.349
19038W        W82971  21.084  18.108  10.455
19039W        W82972  10.712  43.343   4.816
19040W        W82973  27.046  10.186   5.181
19041W        W82974  42.303  28.011   0.781
19042W        W82975  38.409  19.197  10.891
19043W        W82976  40.481  15.646  14.492
19044W        W82977  30.065  38.561  12.387
19045W        W82978   9.159  14.662   1.904
19046W        W82979  16.135  32.498  13.515
19047W        W82980  40.395  39.377  10.462
19048W        W82981  30.049  15.273  12.469
19049W        W82982  13.125  32.894   1.777
19050W        W82983   0.344  30.418   2.681
19051W        W82984  11.816  19.041   4.213
19052W        W82985  19.234  15.143  13.469
19053W        W82986  39.413  44.465  12.374
19054W        W82987   2.964  32.985   3.315
19055W        W82988  38.512  40.945  13.468
19056W        W82989  29.111  14.312   0.751
19057W        W82990  21.078  15.125  14.917
19058W        W82991  11.290  15.103  13.541
19059W        W82992  36.897   0.489  12.565
19060W        W82993   8.897  26.638   0.438
19061W        W82994  36.390  33.522  11.009
19062W        W82995  23.734  33.586  10.588
19063W        W82996  17.172  31.059  12.001
19064W        W82997  42.391   7.383  12.836
19065W        W82998   1.919  30.657   2.743
19066W        W82999  25.563  27.182  10.565
19067W        W83000  23.154   6.794   2.790
19068W        W83001  15.122  13.738  14.821
19069W        W83002  10.228  13.128   2.401
19070W        W83003  17.162  33.417  14.995
19071W        W83004  38.466  40.407  11.055
19072W        W83005  15.715  25.219   4.327
19073W        W83006  29.082  19.672   1.711
19074W        W83007  16.277  36.936   4.163
19075W        W83008  20.058  10.759  14.275
19076W        W83009  38.393  24.600  14.920
19077W        W83010  26.468  18.111  12.903
19078W        W83011  31.061  37.480  13.060
19079W        W83012  43.827   9.779   2.898
19080W        W83013  41.942  29.167   0.295
19081W        W83014  41.292  31.429   4.346
19082W        W83015  31.093  35.483  11.526
19083W        W83016  44.293  28.495   3.860
19084W        W83017  22.999  31.060  13.059
19085W        W83018  24.599  20.265  13.506
19086W        W83019  38.980  26.095   1.894
19087W        W83020  12.729   3.906   1.398
19088W        W83021  41.977  24.698   0.353
19089W        W83022  30.146  12.338   4.689
19090W        W83023  16.159   5.321   0.429
19091W        W83024   7.357   4.750  12.962
19092W        W83025   4.327  20.124  13.504
19093W        W83026  33.876  41.031   4.218
19094W        W83027  14.835  20.105  13.515
19095W        W83028  18.700  43.445   2.188
19096W        W83029  17.207  17.202   1.251
19097W        W83030  37.356   1.842   1.812
19098W        W83031   3.394  23.087  13.004
19099W        W83032  29.512  29.424   2.241
19100W        W83033   4.323   7.337  13.881
19101W        W83034  37.862   8.322   1.806
19102W        W83035  31.480   8.306  14.801
19103W        W83036  34.416  14.634   0.940
19104W        W83037  39.874  25.109  13.306
19105W        W83038  37.468  13.294  11.957
19106W        W83039  33.379  31.052  13.418
19107W        W83040  26.049  27.514   2.222
19108W        W83041  13.764   0.767   0.883
19109W        W83042  38.889  29.522  12.382
19110W        W83043  35.864  23.646  11.870
19111W        W83044  26.626  40.819  13.476
19112W        W83045  22.699  16.290  11.471
19113W        W83046  17.145  13.162   1.277
19114W        W83047  10.149   2.382   3.164
19115W        W83048  20.090  24.092   1.345
19116W        W83049  23.131  14.323   3.272
19117W        W83050  16.191   7.346   2.806
19118W        W83051  31.576  20.065   1.881
19119W        W83052  12.295  39.899   1.734
19120W        W83053   9.150  39.508  13.532
19121W        W83054  18.704  44.296  13.396
19122W        W83055  40.441  43.376   3.179
19123W        W83056   9.237  38.076  14.908
19124W        W83057   8.318  18.077   3.191
19125W        W83058  19.108  15.312   2.411
19126W        W83059  22.247  17.669   1.395
19127W        W83060   6.819  41.823   2.389
19128W        W83061  22.245  42.022  13.845
19129W        W83062  40.422  33.946   0.785
19130W        W83063  29.444  27.134  14.908
19131W        W83064   9.335  39.841   0.797
19132W        W83065  27.549  23.594   0.847
19133W        W83066  28.182  38.932  12.851
19134W        W83067  37.023  18.552  14.419
19135W        W83068  35.404  38.945  10.544
19136W        W83069  22.999  19.063  13.538
19137W        W83070  38.383  41.363   4.207
19138W        W83071  15.150   9.328  11.874
19139W        W83072  37.968  18.692   2.891
19140W        W83073  22.164  11.626   4.146
19141W        W83074  36.386   8.674   0.785
19142W        W83075  42.402  41.993   3.160
19143W        W83076   6.721  25.689   3.653
19144W        W83077  11.314  33.609  10.891
19145W        W83078  35.103  22.654  10.408
19146W        W83079  19.065  33.030  11.583
19147W        W83080  40.401  40.511   4.639
19148W        W83081  31.061   3.764   1.832
19149W        W83082  12.747  35.008  12.883
19150W        W83083  37.929  30.096  11.121
19151W        W83084   7.667  26.647   0.376
19152W        W83085  41.900  18.639   2.689
19153W        W83086   3.886  32.080  10.577
19154W        W83087  37.918   0.271   0.392
19155W        W83088  14.700  39.049  12.542
19156W        W83089  21.752  22.618  11.052
19157W        W83090  23.657   1.804  11.866
19158W        W83091  41.527  17.205   1.415
19159W        W83092  38.417  26.542   1.434
19160W        W83093  44.399   0.960  12.836
19161W        W83094  15.688  28.936  12.995
19162W        W83095  14.820  25.012  14.834
19163W        W83096  14.829  30.980   4.629
19164W        W83097   9.747  41.932   3.200
19165W        W83098  25.106  28.452  10.475
19166W        W83099  19.540   3.443  14.856
19167W        W83100  20.524  41.020  14.946
19168W        W83101  13.806  14.207   0.482
19169W        W83102  16.193   0.361   3.818
19170W        W83103  31.018   9.664   3.268
19171W        W83104  26.593  37.992  12.056
19172W        W83105  37.986  13.236   0.952
19173W        W83106  38.364  36.057   2.840
19174W        W83107   5.200   4.751   2.345
19175W        W83108  10.160  39.368  12.840
19176W        W83109  23.136  40.522  14.322
19177W        W83110  40.452   5.918  14.487
19178W        W83111   0.309  28.167   3.306
19179W        W83112  42.943  42.029  11.087
19180W        W83113  43.490  13.648   0.744
19181W        W83114   3.311  35.903  10.977
19182W        W83115  16.687  36.028   4.829
19183W        W83116  28.596  12.624   4.615
19184W        W83117   7.291  43.870   4.704
19185W        W83118  35.049  30.027  11.875
19186W        W83119   1.803  20.585   1.375
19187W        W83120  36.434  31.433   3.270
19188W        W83121  43.000  41.377  10.553
19189W        W83122  21.539  26.562  11.399
19190W        W83123   5.732   0.474  13.012
19191W        W83124  40.411   7.779   4.184
19192W        W83125   6.355  31.916  11.040
19193W        W83126  39.531   0.414   1.355
19194W        W83127  16.671  40.873   2.338
19195W        W83128  38.385  26.607  14.278
19196W        W83129  39.394   5.913  10.502
19197W        W83130  26.549  32.983   2.859
19198W        W83131  30.428  10.796   3.853
19199W        W83132   6.265   8.362  13.473
19200W        W83133   4.205  30.000   3.320
19201W        W83134  10.638  18.600   2.864
19202W        W83135  22.729  19.634  12.897
19203W        W83136  20.684  28.556   1.909
19204W        W83137  25.033  24.623  13.472
19205W        W83138  32.448  22.620   3.302
19206W        W83139   5.905  15.750   2.798
19207W        W83140  15.237  41.008  13.036
19208W        W83141   2.728  17.604   4.693
19209W        W83142  24.029  11.866  14.019
19210W        W83143  14.811  17.076   3.710
19211W        W83144  14.278  32.930  14.905
19212W        W83145  20.237  18.155   1.740
19213W        W83146  19.155   8.286   0.447
19214W        W83147  44.849  19.068   2.303
19215W        W83148  41.013  19.707   2.834
19216W        W83149  26.123   3.813  11.557
19217W        W83150  15.579  11.693   3.750
19218W        W83151  13.804  38.068   3.825
19219W        W83152  18.623   7.806   3.689
19220W        W83153   7.783  34.001   1.728
19221W        W83154  23.657   6.819  11.032
19222W        W83155  18.598  20.221  10.956
19223W        W83156  17.671  23.236   2.688
19224W        W83157  42.473   9.260   3.200
19225W        W83158   6.773  44.976   2.361
19226W        W83159   2.263  12.188   3.228
19227W        W83160  32.904  26.669  14.828
19228W        W83161  27.085  40.431   0.334
19229W        W83162  36.425  35.420   4.743
19230W        W83163  17.654  37.528   0.377
19231W        W83164  30.530  13.759  14.832
19232W        W83165  36.587  18.081   4.770
19233W        W83166  35.452  13.132  10.616
19234W        W83167  37.449  40.500   2.303
19235W        W83168  41.509  22.127  10.479
19236W        W83169  17.598  18.650   1.698
19237W        W83170   2.726  15.792  13.507
19238W        W83171  38.465  30.427  10.417
19239W        W83172  28.471  38.916  11.579
19240W        W83173   1.929  39.855  13.412
19241W        W83174  23.621  31.077  12.019
19242W        W83175  37.839  24.501   0.932
19243W        W83176  28.613  35.442  11.024
19244W        W83177  35.537  28.002  14.816
19245W        W83178  22.191  41.939  13.010
19246W        W83179   3.346   6.894   2.196
19247W        W83180  14.280   4.444  12.043
19248W        W83181  27.009   0.906  12.424
19249W        W83182  16.281  15.629  10.408
19250W        W83183   1.290  29.158  11.021
19251W        W83184   1.338  31.028  12.063
19252W        W83185  21.182  39.864  12.537
19253W        W83186  41.972  16.803   0.832
19254W        W83187  31.059  29.008  12.918
19255W        W83188  26.960  11.767   1.398
19256W        W83189   1.258  22.562  11.920
19257W        W83190   0.290  13.719   0.418
19258W        W83191  18.050  19.247  10.431
19259W        W83192  34.602  31.128   3.368
19260W        W83193  26.140  13.779   3.806
19261W        W83194  20.257  17.119  10.950
19262W        W83195  21.018  27.597  13.324
19263W        W83196   8.806  37.382   4.123
19264W        W83197  15.635  14.798   4.756
19265W        W83198  32.502  40.860   3.750
19266W        W83199   1.288  42.395   3.772
19267W        W83200  29.669  42.011  10.541
19268W        W83201  28.017  26.549  14.457
19269W        W83202  43.427  35.912  13.871
19270W        W83203  41.873  23.597  13.977
19271W        W83204   1.425  19.735   2.683
19272W        W83205  41.484   8.672  13.835
19273W        W83206  19.714  35.007   4.810
19274W        W83207  36.905  16.305  12.943
19275W        W83208   0.802  43.429   3.697
19276W        W83209  14.211  36.515  13.038
19277W        W83210   3.947  28.074   1.911
19278W        W83211  38.073  16.267  13.832
19279W        W83212  43.486  12.209  12.495
19280W        W83213  22.226   2.286   1.293
19281W        W83214   5.844  23.124   3.869
19282W        W83215   7.803  17.194   5.204
19283W        W83216  35.987  25.131   4.735
19284W        W83217  17.065   5.423  13.333
19285W        W83218  10.299   6.692  12.574
19286W        W83219  26.058  17.762   0.270
19287W        W83220  19.561  19.558   1.336
19288W        W83221  38.983  17.227  11.866
19289W        W83222  18.769  39.383  10.100
19290W        W83223  31.046   5.198  10.999
19291W        W83224  40.431   4.756   0.261
19292W        W83225  11.233  17.571   0.301
19293W        W83226   0.958  34.417  12.387
19294W        W83227  42.928  11.330  11.524
19295W        W83228  18.759  24.649  11.075
19296W        W83229  29.503   2.388  10.528
19297W        W83230  42.013  28.649  13.934
19298W        W83231   7.841  36.385  10.463
19299W        W83232  22.113  29.108   1.442
19300W        W83233  15.189  25.218  12.825
19301W        W83234  18.587  19.586  14.460
19302W        W83235   5.737  17.768  11.998
19303W        W83236  42.986  14.207  11.006
19304W        W83237  37.518  25.479  13.947
19305W        W83238  19.602  43.871   3.160
19306W        W83239  40.379   0.920   2.758
19307W        W83240  20.672  18.678  13.538
19308W        W83241  43.384   4.887   2.186
19309W        W83242  25.993  39.417   4.824
19310W        W83243  34.569   7.844  11.922
19311W        W83244   5.916  27.006   2.872
19312W        W83245   9.835  20.039   1.712
19313W        W83246  42.912   3.254   3.256
19314W        W83247   3.367  21.541   3.832
19315W        W83248  23.123  17.071   4.121
19316W        W83249  28.033  14.317   2.854
19317W        W83250  27.973   0.274   3.314
19318W        W83251  26.491  13.289   2.364
19319W        W83252  22.672  39.036  13.053
19320W        W83253   0.482  14.676  11.921
19321W        W83254   4.900  34.018   4.116
19322W        W83255  15.743  30.601   0.451
19323W        W83256  37.950  36.355  13.833
19324W        W83257  19.672  41.975   4.220
19325W        W83258  42.845   5.728   3.831
19326W        W83259  11.267  34.522   0.919
19327W        W83260  14.190  25.133  14.817
19328W        W83261  28.990  18.706  14.929
19329W        W83262   5.215  34.507  14.371
19330W        W83263  41.481  38.984  13.024
19331W        W83264  15.279  32.452   3.836
19332W        W83265  42.406  27.122   1.436
19333W        W83266  15.763  43.337   1.356
19334W        W83267  41.007  18.737   1.817
19335W        W83268  25.610   9.658   0.778
19336W        W83269  39.822  22.513  10.950
19337W        W83270  34.456  18.103  12.072
19338W        W83271  38.867  32.582   4.278
19339W        W83272  17.131  40.977  11.583
19340W        W83273  12.339  19.284   4.692
19341W        W83274  17.764  39.868   5.579
19342W        W83275   1.445  21.216   5.254
19343W        W83276  20.056  11.863  11.514
19344W        W83277   8.161  29.970   0.460
19345W        W83278   1.769   4.356   2.763
19346W        W83279  16.231  29.527  10.145
19347W        W83280   6.830  41.447   1.864
19348W        W83281  12.797  33.385  12.532
19349W        W83282  22.016  13.700  13.344
19350W        W83283  26.667   3.725  11.383
19351W        W83284  36.868   6.685   0.293
19352W        W83285  32.503  23.021  13.452
19353W        W83286  25.707  28.136  12.066
19354W        W83287  40.481  26.123   4.249
19355W        W83288  11.721  39.947   0.439
19356W        W83289  20.205  15.173   2.348
19357W        W83290  14.801  25.013   2.243
19358W        W83291  25.980  33.606  14.877
19359W        W83292   5.220  42.301  10.596
19360W        W83293  24.024  10.276   3.220
19361W        W83294  24.039   4.829  12.546
19362W        W83295  42.317  35.512  14.809
19363W        W83296  31.470  35.043  13.859
19364W        W83297  36.470  41.324   1.819
19365W        W83298  17.766  36.585   4.751
19366W        W83299   2.427  12.848  12.993
19367W        W83300  38.406  39.934   3.225
19368W        W83301  36.590  38.071   0.327
19369W        W83302   9.238   1.459  14.411
19370W        W83303   4.852  27.493  12.361
19371W        W83304  43.994   0.439   3.238
19372W        W83305  28.143  18.158  13.044
19373W        W83306  18.736  21.140  10.637
19374W        W83307  35.952  35.371  14.467
19375W        W83308  24.493   0.968   5.134
19376W        W83309  32.513  40.008  10.476
19377W        W83310  25.687  10.163  11.968
19378W        W83311  18.053  10.217   3.174
19379W        W83312  40.004  40.048  14.890
19380W        W83313  20.129  42.297  14.422
19381W        W83314  11.273  17.147   4.775
19382W        W83315  22.578  25.695   1.402
19383W        W83316  42.494  17.761   3.672
19384W        W83317  44.891   3.263  10.042
19385W        W83318   5.272  44.262  13.887
19386W        W83319  44.764  35.436  12.871
19387W        W83320  18.286  28.497   3.657
19388W        W83321  41.421  13.633  14.771
19389W        W83322   1.318  44.003  13.394
19390W        W83323  43.872  11.712   2.798
19391W        W83324  18.562  30.427   1.380
19392W        W83325  42.428  36.924  14.479
19393W        W83326  14.128  31.110   3.317
19394W        W83327   6.406  42.982  10.539
19395W        W83328  15.622  27.484   1.787
19396W        W83329  44.351   7.245  11.126
19397W        W83330  13.199   2.748   3.810
19398W        W83331  11.829  12.325  14.311
19399W        W83332  20.587   2.848  13.422
19400W        W83333  40.461  37.915  13.958
19401W        W83334  14.288  18.625   2.809
19402W        W83335  29.475  12.169   2.680
19403W        W83336   0.864  20.742  11.446
19404W        W83337  42.925  20.734  13.316
19405W        W83338  24.705  11.655  12.015
19406W        W83339   1.315  22.513  11.581
19407W        W83340  26.693  34.541   0.356
19408W        W83341  36.011  12.177  12.831
19409W        W83342  17.716  20.269  12.552
19410W        W83343  43.487  28.046   2.232
19411W        W83344  29.168  32.035   1.287
19412W        W83345  28.053  20.118   4.756
19413W        W83346  43.787   1.772   1.345
19414W        W83347   9.325  31.642  13.528
19415W        W83348  38.945   9.702   4.810
19416W        W83349  16.237  10.303  14.927
19417W        W83350  10.677   7.351   2.683
19418W        W83351  21.653  36.041  11.123
19419W        W83352  33.592  37.489  12.534
19420W        W83353  43.916  16.128  10.582
19421W        W83354  32.436  12.622   4.286
19422W        W83355  24.095  37.507   0.792
19423W        W83356   3.866  33.933  14.334
19424W        W83357   9.173  38.394  13.360
19425W        W83358   0.490   3.862   2.260
19426W        W83359  39.011  34.989   9.997
19427W        W83360  32.546  11.157  13.960
19428W        W83361  16.174   3.395  12.362
19429W        W83362  18.628  18.556  11.542
19430W        W83363  24.533  37.516   3.378
19431W        W83364   7.702  33.003   3.717
19432W        W83365  25.007  16.228   1.438
19433W        W83366  37.844  24.978  13.359
19434W        W83367  13.698  34.976  12.361
19435W        W83368  16.755  27.084  13.321
19436W        W83369  41.793  22.650  10.621
19437W        W83370  19.662  27.942   0.964
19438W        W83371  19.650  18.289   4.149
19439W        W83372   0.756  44.419   5.157
19440W        W83373   6.224  25.682  12.488
19441W        W83374  18.642  32.592   1.349
19442W        W83375   1.972  33.897   0.278
19443W        W83376   4.841  34.563  14.986
19444W        W83377  12.676  42.979   3.639
19445W        W83378  17.064  25.060   2.346
19446W        W83379  38.480  25.131  14.409
19447W        W83380   3.811  22.060   0.366
19448W        W83381  15.299  41.889   2.228
19449W        W83382  10.825  12.653  12.827
19450W        W83383  43.003  16.675   3.378
19451W        W83384  18.110  10.660   1.393
19452W        W83385  44.781  36.944  11.129
19453W        W83386  25.480  13.834   0.427
19454W        W83387  12.622  36.378  11.076
19455W        W83388  30.926  28.069  11.520
19456W        W83389  43.283  22.080  13.310
19457W        W83390   5.885  27.113  13.480
19458W        W83391   4.865  26.611  14.452
19459W        W83392  37.413  29.575   5.260
19460W        W83393  31.499   9.853  12.023
19461W        W83394  42.842  26.475   0.780
19462W        W83395  35.553  24.138   3.863
19463W        W83396  33.983   5.394   2.841
19464W        W83397  33.582  22.014  14.470
19465W        W83398   1.251   7.298  13.359
19466W        W83399   1.790  30.136   0.300
19467W        W83400  35.520  41.528  13.027
19468W        W83401  28.468   1.966   0.893
19469W        W83402   0.427  38.995   2.313
19470W        W83403  10.746  29.512   0.858
19471W        W83404  40.540  18.134  10.987
19472W        W83405  44.443  25.177  11.115
19473W        W83406  40.013  42.284  13.409
19474W        W83407   3.385  43.489   4.253
19475W        W83408  28.558   8.312  13.008
19476W        W83409  22.571  24.667  10.990
19477W        W83410  28.010  14.295   1.288
19478W        W83411   6.243  38.531   4.629
19479W        W83412   3.821  24.564  11.862
19480W        W83413   1.261  44.448   4.644
19481W        W83414   6.755  18.574   1.317
19482W        W83415   1.837   5.261   3.870
19483W        W83416  28.670  14.737   0.374
19484W        W83417  28.941  42.365  10.010
19485W        W83418  31.151  16.709   2.299
19486W        W83419  26.636  44.940   1.704
19487W        W83420   3.742   1.272  14.761
19488W        W83421  20.225  15.705  10.630
19489W        W83422  42.788  41.918  12.450
19490W        W83423  26.498  37.032  14.983
19491W        W83424  35.451  11.663   1.293
19492W        W83425  15.650  14.126   0.815
19493W        W83426   6.873  33.110  14.348
19494W        W83427   0.949   9.684  11.388
19495W        W83428   5.274  29.170  12.979
19496W        W83429  14.776  27.448   0.264
19497W        W83430  16.667  36.498   9.654
19498W        W83431  19.617  23.032  14.306
19499W        W83432  18.070  11.185   2.312
19500W        W83433  11.809  32.439   2.721
19501W        W83434   6.775  35.040   1.393
19502W        W83435   6.815   0.757   1.350
19503W        W83436  29.459  25.104   0.818
19504W        W83437  20.661  43.280   3.229
19505W        W83438  33.074  14.795  14.848
19506W        W83439  42.414  33.990  13.926
19507W        W83440  12.191  36.518  14.292
19508W        W83441   9.671  17.259  10.574
19509W        W83442  39.020  35.571  14.419
19510W        W83443   8.893  11.716  10.633
19511W        W83444  40.511   5.312   3.761
19512W        W83445  25.995  17.199   2.845
19513W        W83446  38.535  12.186  14.424
19514W        W83447  34.397  11.770  14.491
19515W        W83448  43.983   9.323   2.271
19516W        W83449  42.844  18.252  10.958
19517W        W83450  37.044  17.212   3.683
19518W        W83451  35.465  16.622  12.421
19519W        W83452  36.888  30.105   2.236
19520W        W83453  28.633   2.802   0.327
19521W        W83454  43.965   7.292  14.354
19522W        W83455   1.295  26.022   1.789
19523W        W83456  12.783  36.054   1.426
19524W        W83457  37.895  42.988  13.825
19525W        W83458  38.495  29.509  11.071
19526W        W83459   8.221   7.785  13.048
19527W        W83460   0.352  43.830   3.640
19528W        W83461  21.698  12.669  10.040
19529W        W83462   7.323  10.646  10.616
19530W        W83463  43.355  11.154   0.736
19531W        W83464  17.607  30.973  12.553
19532W        W83465  36.354  19.606  11.489
19533W        W83466  20.274  43.868   3.795
19534W        W83467  41.948  12.631  12.519
19535W        W83468  44.927   7.310   4.211
19536W        W83469  14.119  20.266   3.330
19537W        W83470   6.286  33.064  13.865
19538W        W83471  32.630  43.774   1.341
19539W        W83472   0.906  42.816   3.650
19540W        W83473  10.295   9.763  10.147
19541W        W83474  44.854   1.380   0.315
19542W        W83475  29.094   0.355   3.205
19543W        W83476   3.291  10.145   3.373
19544W        W83477  21.523  12.213  13.815
19545W        W83478  35.024  14.719  11.107
19546W        W83479  32.918   6.238   4.649
19547W        W83480  10.243  24.985   1.312
19548W        W83481  18.600  12.141   4.709
19549W        W83482  15.748  14.787  10.070
19550W        W83483  11.766  41.964  11.463
19551W        W83484  34.383  23.034   3.743
19552W        W83485  28.556  25.065  14.019
19553W        W83486  41.826  22.207  14.398
19554W        W83487  28.151  25.679   1.807
19555W        W83488  41.887  40.928   4.266
19556W        W83489  44.421   8.778  14.461
19557W        W83490  33.111  17.741  11.477
19558W        W83491   1.866   8.325   3.785
19559W        W83492  22.195  32.897   1.298
19560W        W83493  18.199  34.390   2.716
19561W        W83494  37.524   9.179  12.401
19562W        W83495  19.154   5.239  13.951
19563W        W83496  35.961  39.040  11.128
19564W        W83497   7.287  36.426  11.060
19565W        W83498  20.681  22.067  10.461
19566W        W83499  32.966  42.358   4.627
19567W        W83500  43.984  42.960   0.461
19568W        W83501  27.051  39.816  11.888
19569W        W83502  25.662  14.309   9.983
19570W        W83503  12.222  26.541  11.978
19571W        W83504  33.584  32.980   0.268
19572W        W83505   8.270  38.392  13.939
19573W        W83506  34.086  42.882   9.950
19574W        W83507  21.522  26.986   5.087
19575W        W83508  36.858  44.854   4.815
19576W        W83509  44.935  20.131   3.780
19577W        W83510  25.105   7.321   4.670
19578W        W83511  33.923   9.238   1.295
19579W        W83512  19.774  39.460  13.323
19580W        W83513  40.893   6.846  10.610
19581W        W83514  29.670  35.579  10.901
19582W        W83515  23.193  36.861   1.414
19583W        W83516   2.418  20.545  13.964
19584W        W83517  43.015  13.273  14.501
19585W        W83518  26.653   9.670   0.886
19586W        W83519   7.297  34.374   2.690
19587W        W83520   6.277  13.686   2.730
19588W        W83521  33.397  24.193   1.309
19589W        W83522   9.830   8.758  11.424
19590W        W83523  30.457  24.105  10.995
19591W        W83524  18.654   3.925  11.408
19592W        W83525  22.729   3.843   0.837
19593W        W83526  36.375  40.019   1.282
19594W        W83527  19.239  15.739  13.870
19595W        W83528   7.413  37.837   4.733
19596W        W83529  30.477  24.579   2.357
19597W        W83530   2.312   5.913  13.901
19598W        W83531  19.691  23.129  14.982
19599W        W83532   6.745  36.562  11.519
19600W        W83533  43.491  39.492   9.981
19601W        W83534  15.085   5.761  11.923
19602W        W83535  11.788  18.174   1.832
19603W        W83536  12.818  32.515   2.854
19604W        W83537  11.652  28.604  10.899
19605W        W83538  37.536  38.992  13.955
19606W        W83539  19.275  18.631  13.355
19607W        W83540  24.978  40.960   3.764
19608W        W83541   6.218   0.488   1.762
19609W        W83542  44.294  30.599   2.744
19610W        W83543   7.764  28.125   4.256
19611W        W83544  20.209  43.870  11.543
19612W        W83545  11.860  40.925  11.946
19613W        W83546  35.923  34.585  13.394
19614W        W83547  40.326  41.483  12.512
19615W        W83548  13.244  12.787   0.340
19616W        W83549  34.478  11.797  12.460
19617W        W83550  42.429  42.495  11.417
19618W        W83551  23.619   8.736  11.070
19619W        W83552  36.369  15.317   3.817
19620W        W83553  40.382  17.172   1.773
19621W        W83554   2.798  35.868   1.699
19622W        W83555   3.903  25.174   3.867
19623W        W83556  13.129  13.188   3.798
19624W        W83557  30.465  11.738   0.759
19625W        W83558  37.897  16.637  13.507
19626W        W83559  12.194  15.123   0.919
19627W        W83560  28.943  28.599   4.196
19628W        W83561   9.726  16.731  11.052
19629W        W83562  29.636  21.040  13.353
19630W        W83563   4.262   7.717  11.407
19631W        W83564  13.666  41.337   0.854
19632W        W83565  24.200   7.224  10.587
19633W        W83566   7.309  25.638  13.421
19634W        W83567  41.435   6.309   4.253
19635W        W83568  31.443  16.787   2.693
19636W        W83569  29.036  14.756   1.814
19637W        W83570  43.403   3.337  14.367
19638W        W83571  38.893  43.014  14.340
19639W        W83572  23.201   7.292  14.945
19640W        W83573  12.138  39.536  10.932
19641W        W83574   8.364  37.355   2.848
19642W        W83575  20.540  14.774   1.417
19643W        W83576  28.574  25.984   2.360
19644W        W83577  16.722  35.108   3.198
19645W        W83578  28.181  20.557   2.209
19646W        W83579  35.546   1.753   1.237
19647W        W83580  43.510  25.654   1.294
19648W        W83581  42.499  19.285   2.281
19649W        W83582   5.436   5.199   3.266
19650W        W83583  23.114  29.561  11.473
19651W        W83584  12.228  23.540   0.249
19652W        W83585  36.533  40.869   1.294
19653W        W83586   2.947   7.340   4.287
19654W        W83587   2.263  35.527   2.390
19655W        W83588  31.911  22.675  14.478
19656W        W83589   4.916   8.880  10.032
19657W        W83590  24.169   6.322  14.968
19658W        W83591  40.804   9.352   3.804
19659W        W83592   3.709  30.975  13.487
19660W        W83593  10.651   1.356  12.900
19661W        W83594  35.913  22.072  10.523
19662W        W83595  19.257  16.664   5.615
19663W        W83596  10.735  33.936   4.171
19664W        W83597  40.054  22.536  12.876
19665W        W83598  28.465  20.068   0.794
19666W        W83599   7.676  20.590  11.119
19667W        W83600  12.755  25.077  10.442
19668W        W83601  12.847  39.901  14.972
19669W        W83602  11.680  25.642  13.349
19670W        W83603  41.871  36.058  13.064
19671W        W83604  25.079   9.772   4.615
19672W        W83605  30.960  31.079  10.553
19673W        W83606  34.090  41.365   1.284
19674W        W83607  39.532  28.003  14.901
19675W        W83608  34.886   5.879  13.999
19676W        W83609   3.896   9.373   1.902
19677W        W83610  33.620  18.088  14.344
19678W        W83611  39.986  32.455  10.940
19679W        W83612  31.112  33.438   3.685
19680W        W83613  13.706  24.535  10.949
19681W        W83614   0.804  28.133  12.868
19682W        W83615   1.884   4.383  11.597
19683W        W83616  33.586   0.756   1.334
19684W        W83617  17.792  23.105  10.589
19685W        W83618  11.765  26.465  13.010
19686W        W83619   3.876   1.443   1.846
19687W        W83620  11.628  25.542   3.869
19688W        W83621  39.813  41.930  14.452
19689W        W83622  28.656   3.832   0.783
19690W        W83623  24.548   7.342   0.333
19691W        W83624  17.765   3.864   0.301
19692W        W83625  22.559  34.870   4.125
19693W        W83626  31.453  28.000   3.800
19694W        W83627  19.727  21.105  12.959
19695W        W83628  20.574  17.642   4.315
19696W        W83629  36.538  12.301   1.794
19697W        W83630   9.890  24.007  14.868
19698W        W83631  41.873  16.302   0.244
19699W        W83632  19.080   0.929   2.384
19700W        W83633   9.667  34.096   1.371
19701W        W83634  20.042  26.456  14.857
19702W        W83635  17.625  25.060   4.289
19703W        W83636   2.305  28.972   2.193
19704W        W83637  38.430   0.466   2.709
19705W        W83638  41.506  31.094   1.705
19706W        W83639  11.833   0.938   1.309
19707W        W83640  39.849  14.755   0.343
19708W        W83641  13.265   3.924  10.571
19709W        W83642   1.947   4.775  13.050
19710W        W83643  28.502  27.125  12.465
19711W        W83644  18.590  29.652  13.309
19712W        W83645   4.787  13.632   0.770
19713W        W83646  11.826   5.793  12.835
19714W        W83647  34.534  37.336   4.835
19715W        W83648   4.700  22.243   3.855
19716W        W83649  21.159  12.340   1.887
19717W        W83650  37.408  28.553  14.314
19718W        W83651  16.205  20.724  14.837
19719W        W83652  30.091  32.543  11.378
19720W        W83653  12.156   5.288   2.302
19721W        W83654   6.689  28.942   3.650
19722W        W83655  24.188  39.496  13.840
19723W        W83656  26.536  34.068   3.818
19724W        W83657  32.118  27.190   0.806
19725W        W83658  40.342  31.993  10.573
19726W        W83659  21.699  19.722   2.384
19727W        W83660   2.953   6.882  13.831
19728W        W83661  23.600   6.911   4.184
19729W        W83662  17.647  29.666   1.263
19730W        W83663  33.099  20.722   2.773
19731W        W83664  22.084   2.400  14.789
19732W        W83665  39.841  11.849  14.841
19733W        W83666  39.448  20.585  14.351
19734W        W83667  17.112   1.374  13.905
19735W        W83668  42.353  18.745  12.011
19736W        W83669  43.007   0.419   4.333
19737W        W83670   6.718   4.370  12.035
19738W        W83671  17.288  40.855  10.408
19739W        W83672   8.339  34.902   3.766
19740W        W83673  19.091   1.755   4.154
19741W        W83674   2.275  26.094  11.436
19742W        W83675   2.836  30.511  11.910
19743W        W83676  33.412   7.705   3.786
19744W        W83677  35.874   1.750   2.666
19745W        W83678  38.420  43.483   3.281
19746W        W83679  40.932  20.088   3.695
19747W        W83680  32.958  35.472   3.632
19748W        W83681  26.580  18.209   0.770
19749W        W83682  19.640  23.227   2.309
19750W        W83683  38.903  36.075  10.922
19751W        W83684  43.764  41.802   3.236
19752W        W83685  14.744  20.765  12.871
19753W        W83686  32.473   4.774  11.914
19754W        W83687   7.736  28.140  14.825
19755W        W83688  44.349  15.756  12.522
19756W        W83689  31.964  29.999   4.631
19757W        W83690  11.649  42.389  14.334
19758W        W83691  39.520  11.847  12.382
19759W        W83692  24.146  21.703   0.963
19760W        W83693   4.236   0.957  13.539
19761W        W83694  35.999  37.837  12.421
19762W        W83695  18.689  25.205  12.455
19763W        W83696  25.636   2.833   2.364
19764W        W83697  16.222  30.523  12.397
19765W        W83698  43.508  24.489   3.354
19766W        W83699  26.204  22.640  14.911
19767W        W83700  44.291  34.458   2.343
19768W        W83701   8.754  23.192  13.316
19769W        W83702  21.703  26.698   2.669
19770W        W83703  29.000  18.169  14.403
19771W        W83704   3.311  40.312  12.884
19772W        W83705  43.418  37.855  11.420
19773W        W83706  35.499   6.259  13.456
19774W        W83707  40.012  42.401  12.362
19775W        W83708  32.105   4.427   1.815
19776W        W83709  30.448  44.856  13.342
19777W        W83710  20.688   4.377   0.384
19778W        W83711  36.960  22.535  13.052
19779W        W83712  22.656  34.590   4.215
19780W        W83713  30.041  32.486   2.856
19781W        W83714   5.233  11.624   3.360
19782W        W83715  38.426  15.748   1.448
19783W        W83716  33.021   5.203   4.824
19784W        W83717  18.288  23.549   0.394
19785W        W83718  43.354  36.450  13.334
19786W        W83719  38.967  21.119  10.903
19787W        W83720  37.076  32.985  13.880
19788W        W83721  17.698  38.489   3.721
19789W        W83722  21.088  23.545  14.839
19790W        W83723  37.960  19.279   4.652
19791W        W83724  14.715  19.073  12.851
19792W        W83725  20.620  15.282  10.615
19793W        W83726  12.197   7.412   2.179
19794W        W83727  34.096  38.015   4.788
19795W        W83728  20.238  42.285  13.842
19796W        W83729   4.417  34.982   2.789
19797W        W83730  39.471  13.289   2.742
19798W        W83731   9.649  28.475  12.409
19799W        W83732  13.647   1.287   4.199
19800W        W83733  19.745  40.537  11.959
19801W        W83734  20.202  21.028  10.981
19802W        W83735   9.356   1.967  11.463
19803W        W83736   6.697  16.616   4.296
19804W        W83737   9.709  42.846  11.959
19805W        W83738   6.727  22.568  14.930
19806W        W83739   3.434  16.084   3.670
19807W        W83740  16.235   7.776  14.361
19808W        W83741  12.186   6.887  13.834
19809W        W83742  42.340  35.580   1.258
19810W        W83743  18.184  15.795  11.963
19811W        W83744  31.562   3.386   4.616
19812W        W83745  26.963   5.197   2.743
19813W        W83746  18.563  39.337  14.899
19814W        W83747  15.247  19.077   3.341
19815W        W83748  36.468  17.272  11.384
19816W        W83749   5.279  26.469  11.020
19817W        W83750  39.857  29.551   4.207
19818W        W83751   8.817   8.352  10.965
19819W        W83752  33.994  32.565   0.398
19820W        W83753  33.975  39.999   0.902
19821W        W83754  13.804  25.558  11.080
19822W        W83755   7.909  13.263  10.619
19823W        W83756   2.402  13.733  11.894
19824W        W83757  29.067  24.563   3.259
19825W        W83758   4.774   5.356  13.419
19826W        W83759  32.532  34.571  13.470
19827W        W83760  34.438  30.467   4.603
19828W        W83761   3.865  41.858  11.546
19829W        W83762  20.203  31.946  13.366
19830W        W83763  42.975  37.425   1.386
19831W        W83764  38.997  24.042  13.449
19832W        W83765  29.522  38.462  13.507
19833W        W83766  13.690  18.729   4.773
19834W        W83767  10.214   5.428   2.707
19835W        W83768  39.482   1.412   3.764
19836W        W83769   4.411  15.152   5.689
19837W        W83770  16.616  12.842   4.233
19838W        W83771  29.428  20.638   0.268
19839W        W83772  37.553  29.050  13.507
19840W        W83773  43.955  12.769  13.520
19841W        W83774   0.256  26.066   1.764
19842W        W83775  16.710   2.856   3.667
19843W        W83776  18.695   6.224   2.416
19844W        W83777   1.429  44.771   0.808
19845W        W83778  37.549  22.565   1.813
19846W        W83779  23.095   7.734  13.478
19847W        W83780  19.052  41.927   0.333
19848W        W83781  18.619  25.062  13.056
19849W        W83782  28.053  24.054   0.366
19850W        W83783  20.621  33.075   2.254
19851W        W83784   9.293  37.044   3.653
19852W        W83785  11.163  44.290   4.226
19853W        W83786  37.389   8.367  13.334
19854W        W83787  36.393  25.545  11.930
19855W        W83788  42.798  26.458   4.833
19856W        W83789  40.988  18.785  14.016
19857W        W83790  23.601  38.369  13.793
19858W        W83791  22.035  25.062   1.319
19859W        W83792  15.775   3.303  13.025
19860W        W83793  23.020  41.796  12.902
19861W        W83794  23.508  18.134   4.735
19862W        W83795  14.189   9.845  10.417
19863W        W83796   0.766  39.555  12.851
19864W        W83797  14.805   8.183   1.447
19865W        W83798   3.952   8.359   1.776
19866W        W83799  33.571   7.173   0.461
19867W        W83800   1.323  17.270  12.484
19868W        W83801  38.997  11.157  12.577
19869W        W83802   3.794  22.104   2.817
19870W        W83803  15.577  38.463   0.308
19871W        W83804  28.931   9.307  13.444
19872W        W83805  42.320  34.967   2.776
19873W        W83806  25.043  13.631   1.382
19874W        W83807  25.549  33.596   1.769
19875W        W83808   4.325  33.582  13.943
19876W        W83809  28.182   7.800   2.317
19877W        W83810   8.684  20.194   3.162
19878W        W83811  15.167  35.913   1.297
19879W        W83812  26.640  20.756   0.901
19880W        W83813  35.056  28.175   4.289
19881W        W83814  33.384  30.137   1.783
19882W        W83815  25.692  17.294   9.970
19883W        W83816  29.528   3.287   3.678
19884W        W83817  42.903   6.758  10.895
19885W        W83818  30.636  38.456  12.019
19886W        W83819  22.213  31.428  13.394
19887W        W83820   3.458   8.696  11.407
19888W        W83821  32.928  31.137   3.149
19889W        W83822  13.661  18.621  10.597
19890W        W83823  16.614  39.436   1.914
19891W        W83824  32.419  39.862  12.977
19892W        W83825  29.153  25.659   2.287
19893W        W83826  17.280  25.553  13.378
19894W        W83827  26.983  20.266   3.318
19895W        W83828   9.393  43.434   2.245
19896W        W83829  24.987  28.647   1.222
19897W        W83830  19.078  12.683  12.059
19898W        W83831  29.040  27.948   1.298
19899W        W83832  27.574  10.276   0.920
19900W        W83833  37.984   9.722   1.273
19901W        W83834   5.688   8.733   1.334
19902W        W83835  43.829   4.778  12.882
19903W        W83836  22.130  16.661   0.287
19904W        W83837  40.480  17.698   1.367
19905W        W83838  44.317  41.395  10.918
19906W        W83839  23.692  24.148   3.200
19907W        W83840  21.019  40.305   5.112
19908W        W83841   1.439  33.092   0.384
19909W        W83842  15.736   2.422   0.826
19910W        W83843   9.296  43.950  13.017
19911W        W83844   2.339  24.153  14.948
19912W        W83845  22.604  11.784  13.481
19913W        W83846  23.031  31.036  13.393
19914W        W83847   2.934  18.714   1.892
19915W        W83848  43.355  42.999  12.528
19916W        W83849  39.932  19.746  11.994
19917W        W83850  44.419  15.787  13.490
19918W        W83851   5.864  24.723  14.886
19919W        W83852   5.817  42.463  12.521
19920W        W83853   8.310  21.218   4.834
19921W        W83854  20.527  42.455   3.257
19922W        W83855  26.011  26.571   3.665
19923W        W83856  38.939  22.536   4.773
19924W        W83857  12.300   5.919  11.400
19925W        W83858  31.040  13.219  13.899
19926W        W83859  33.395   3.405   4.695
19927W        W83860  41.508  33.564  11.067
19928W        W83861  44.927   4.757  11.088
19929W        W83862  24.219  21.060  11.959
19930W        W83863  18.624  36.984  11.535
19931W        W83864   4.419  17.778   0.277
19932W        W83865  29.478  28.116   1.816
19933W        W83866  33.022  15.160   3.296
19934W        W83867  29.017  16.796   4.792
19935W        W83868  39.817  16.781   0.920
19936W        W83869   4.915  42.382   2.820
19937W        W83870   6.722  44.483   2.404
19938W        W83871  15.190   6.835  12.056
19939W        W83872  39.030  31.428  12.570
19940W        W83873  40.920  30.426  11.413
19941W        W83874  43.303  27.623   2.293
19942W        W83875  12.694  19.160   3.868
19943W        W83876  29.036  39.383  14.453
19944W        W83877  25.194  40.896  12.934
19945W        W83878  15.738  14.834  13.998
19946W        W83879  31.555   0.782   3.752
19947W        W83880  40.383  26.540   0.735
19948W        W83881  32.422  44.358   3.159
19949W        W83882  33.448  33.445   3.284
19950W        W83883  37.394  28.121   2.323
19951W        W83884  13.608  30.604   2.280
19952W        W83885  19.777  30.920  11.404
19953W        W83886   0.842  31.119   3.788
19954W        W83887  10.860   7.770  13.336
19955W        W83888  44.420  29.171   1.248
19956W        W83889  13.624  13.680  11.563
19957W        W83890  16.078  30.524  11.065
19958W        W83891  37.897  43.799  14.310
19959W        W83892  40.397  17.611  12.034
19960W        W83893   5.367   7.785  13.543
19961W        W83894  40.437  19.099  11.037
19962W        W83895  37.473  14.713   4.304
19963W        W83896  28.674  10.826  10.426
19964W        W83897   7.202  30.427  14.027
19965W        W83898  43.913   3.768   1.341
19966W        W83899  43.828  24.655  11.423
19967W        W83900  18.096  15.594   0.356
19968W        W83901  42.914  10.782   0.738
19969W        W83902  44.988  42.996   3.803
19970W        W83903  16.214   2.424  12.580
19971W        W83904  15.261  29.074  13.005
19972W        W83905  44.335   7.303  14.366
19973W        W83906  44.791   5.702   2.745
19974W        W83907  11.200   6.373  12.577
19975W        W83908  17.192  19.648   3.858
19976W        W83909  33.561  14.803   0.776
19977W        W83910  32.398  28.514   3.192
19978W        W83911  28.134   4.365   3.242
19979W        W83912  43.368   9.694  13.047
19980W        W83913  32.065   0.888  14.371
19981W        W83914  41.401  41.010   3.191
19982W        W83915   1.856  19.703  11.417
19983W        W83916  11.288  23.626   1.423
19984W        W83917  26.461   2.724  11.491
19985W        W83918  25.693  30.572  11.981
19986W        W83919  25.125  33.567   3.856
19987W        W83920  32.994  40.050   4.117
19988W        W83921  11.778  11.274   3.225
19989W        W83922  36.052  32.133  11.441
19990W        W83923  29.999  36.992   4.276
19991W        W83924  32.117  39.442  14.802
19992W        W83925  40.807   5.379  14.320
19993W        W83926   9.182  31.465   3.350
19994W        W83927  43.295   9.188  12.451
19995W        W83928  13.794  16.306   3.780
19996W        W83929  37.021  34.459   0.840
19997W        W83930  14.116  22.568  11.036
19998W        W83931  12.329  22.599   0.316
19999W        W83932  15.581   1.846   4.836
20000W        W83933  40.921  33.990   0.847
20001W        W83934   1.964  25.087  12.859
20002W        W83935  17.670  21.755   0.825
20003W        W83936  20.165  18.132  12.954
20004W        W83937  26.988  32.521  14.502
20005W        W83938  18.671  37.538  13.794
20006W        W83939  15.700  25.649   2.734
20007W        W83940  14.611   7.863  11.914
20008W        W83941  20.089  21.221  12.450
20009W        W83942  39.842  25.483  13.367
20010W        W83943  42.386  31.598   2.732
20011W        W83944  34.106   4.828   0.838
20012W        W83945   4.812  20.613  12.903
20013W        W83946  10.369  31.544   0.793
20014W        W83947   7.191  22.147   0.888
20015W        W83948   8.313   9.717   4.620
20016W        W83949  36.486  23.084   3.168
20017W        W83950  32.532   8.403  11.017
20018W        W83951  32.997  38.833   3.816
20019W        W83952  22.100  17.568   1.778
20020W        W83953  41.877   3.296   4.787
20021W        W83954  20.577  29.088   4.147
20022W        W83955  27.599  43.909  11.933
20023W        W83956  14.594  42.931   2.286
20024W        W83957  21.100  30.610   1.773
20025W        W83958  38.496   1.355   3.362
20026W        W83959   2.472  37.426  14.433
20027W        W83960  24.538  28.937   3.234
20028W        W83961  33.128  39.838  13.520
20029W        W83962  20.065  21.159  12.092
20030W        W83963  33.882   8.403   1.866
20031W        W83964  11.146  32.130   2.311
20032W        W83965  35.998  24.174  12.876
20033W        W83966  30.551  31.973  11.499
20034W        W83967  27.946  38.365   1.420
20035W        W83968  33.442  34.508   3.797
20036W        W83969   7.252  28.116   2.334
20037W        W83970  12.227  19.254  11.487
20038W        W83971  34.082  10.212   5.260
20039W        W83972   8.896  41.301   4.136
20040W        W83973  15.655  29.469   1.407
20041W        W83974  11.319  27.446   2.274
20042W        W83975  19.117   3.920   1.735
20043W        W83976  34.024  41.881   4.209
20044W        W83977  37.483   5.238   4.131
20045W        W83978   0.964  15.123  14.806
20046W        W83979  44.996   6.279  10.465
20047W        W83980  33.461   8.274  11.089
20048W        W83981   7.721  40.972   0.271
20049W        W83982  27.522  38.020   4.667
20050W        W83983  19.679   4.327  10.913
20051W        W83984   5.928  17.729  13.368
20052W        W83985  26.050  10.362  14.980
20053W        W83986  34.404  32.548   0.431
20054W        W83987  29.940  13.107   4.329
20055W        W83988  36.848  44.384   0.371
20056W        W83989  39.334   8.195   4.315
20057W        W83990  39.890  31.555   0.830
20058W        W83991  28.032  33.484  14.985
20059W        W83992   1.420  19.276   0.727
20060W        W83993  29.540  44.390   2.195
20061W        W83994  40.045  43.467   3.674
20062W        W83995  26.062  12.722   3.846
20063W        W83996  44.011   9.212   1.325
20064W        W83997  23.715  33.621  13.820
20065W        W83998  17.651  10.313   1.702
20066W        W83999  12.260  32.910   4.786
20067W        W84000  15.683  42.848  14.929
20068W        W84001  30.914  23.561   0.420
20069W        W84002  16.115  44.326  10.510
20070W        W84003  15.327   5.370  10.525
20071W        W84004  11.861  11.622  14.419
20072W        W84005  23.535  14.315  11.537
20073W        W84006  31.966  35.055   1.694
20074W        W84007   5.387  41.919  14.282
20075W        W84008   6.829  31.030  12.930
20076W        W84009   8.731  23.505   4.252
20077W        W84010  14.196  12.172  10.916
20078W        W84011   6.218   0.862   5.303
20079W        W84012  20.746  13.785   2.875
20080W        W84013  11.697  27.158   2.389
20081W        W84014  37.343  31.481  11.471
20082W        W84015  24.676  17.668  10.619
20083W        W84016   6.411  21.653  14.880
20084W        W84017  28.524   5.815  13.338
20085W        W84018  31.034  33.895   1.844
20086W        W84019  41.894  31.079  13.032
20087W        W84020   6.402  26.109  13.965
20088W        W84021  33.912  19.274   0.410
20089W        W84022  41.435  36.383   3.226
20090W        W84023  20.171  36.472   0.437
20091W        W84024  28.557  22.194  10.997
20092W        W84025  10.315   3.225  11.504
20093W        W84026  11.231  37.856  11.066
20094W        W84027  30.149  29.456   1.821
20095W        W84028  34.048   6.878   1.443
20096W        W84029  40.950   5.924  11.529
20097W        W84030  35.941  10.184   2.862
20098W        W84031  13.256  37.396  12.863
20099W        W84032  44.007   5.864   2.250
20100W        W84033  10.792   0.854  14.809
20101W        W84034  35.388  21.654   0.940
20102W        W84035   8.842  20.240   2.195
20103W        W84036  17.722  12.145  10.909
20104W        W84037   2.945  16.763  11.470
20105W        W84038  41.525   9.707  12.483
20106W        W84039  17.181  36.935  12.361
20107W        W84040  15.683  42.481   3.253
20108W        W84041  10.811   2.323  11.524
20109W        W84042  37.426  15.138  14.388
20110W        W84043  19.164  37.903   1.699
20111W        W84044   7.782  18.172  14.412
20112W        W84045  40.360  41.946   5.122
20113W        W84046   0.418   9.200  10.525
20114W        W84047  20.199  17.071  12.968
20115W        W84048  12.292  30.995   1.770
20116W        W84049  31.024   5.866   0.480
20117W        W84050  11.788   6.263  13.524
20118W        W84051   5.700   8.852   3.733
20119W        W84052   6.225  28.044  14.806
20120W        W84053  42.866   5.837   2.765
20121W        W84054  35.412  33.907   4.132
20122W        W84055  10.271  35.576  13.045
20123W        W84056  31.494  31.457  10.944
20124W        W84057   7.214  27.072  11.503
20125W        W84058   1.847  22.556   5.296
20126W        W84059  44.497  42.913  11.498
20127W        W84060   9.651  25.703  14.822
20128W        W84061  10.166   3.451   1.858
20129W        W84062  29.138  20.605  11.034
20130W        W84063   6.733  13.202  11.872
20131W        W84064  27.144  13.233  13.544
20132W        W84065  30.650  17.730  12.014
20133W        W84066   9.697  33.046   2.289
20134W        W84067  29.105  41.324   3.768
20135W        W84068  37.938  30.598  12.829
20136W        W84069  42.818  25.213  11.403
20137W        W84070  39.868  32.441   3.205
20138W        W84071  34.434  32.457   1.739
20139W        W84072   3.396  23.495  14.894
20140W        W84073  16.258   5.203  13.499
20141W        W84074  44.924  37.396  13.364
20142W        W84075  16.617   7.872  11.115
20143W        W84076  23.596  33.561  10.933
20144W        W84077  42.437  38.405   4.116
20145W        W84078  38.834  32.889   2.781
20146W        W84079  15.177  42.315   2.902
20147W        W84080  41.439  20.703  12.948
20148W        W84081  26.132  35.466   4.702
20149W        W84082  25.712   0.913   4.278
20150W        W84083  35.028   3.395  14.472
20151W        W84084  38.507  23.600  14.861
20152W        W84085   1.307  26.583  12.037
20153W        W84086  38.034  24.185  11.482
20154W        W84087   6.853  34.062  13.376
20155W        W84088   8.775   6.776   2.845
20156W        W84089  15.796  22.502  11.381
20157W        W84090  27.185  41.912   4.688
20158W        W84091  14.729  42.012   4.191
20159W        W84092  33.992   0.904   2.399
20160W        W84093  18.742  29.037   1.365
20161W        W84094  25.705  41.346   0.808
20162W        W84095  22.169   6.853  13.433
20163W        W84096  33.510  11.369  12.415
20164W        W84097   7.322  44.280  12.570
20165W        W84098  21.035  10.384  10.405
20166W        W84099   5.893   2.732   1.724
20167W        W84100  27.680  44.835   0.807
20168W        W84101  26.555  14.805   0.483
20169W        W84102  42.469   7.793  13.972
20170W        W84103   2.801  33.016  11.544
20171W        W84104  33.025   3.301   2.297
20172W        W84105  23.151   8.783  14.344
20173W        W84106  25.139  23.059   3.733
20174W        W84107  22.201  35.361   4.683
20175W        W84108  26.543  22.698   2.858
20176W        W84109  25.068  12.178   0.408
20177W        W84110   6.827   1.889  14.842
20178W        W84111  25.967  24.007   1.731
20179W        W84112  42.420  25.674  10.617
20180W        W84113   1.935  35.873  12.446
20181W        W84114  12.844  36.471   2.290
20182W        W84115  30.632  44.375  12.927
20183W        W84116  24.027  23.125   4.712
20184W        W84117  15.749   5.279   2.346
20185W        W84118  32.996  24.987  10.570
20186W        W84119  44.787  29.570   0.289
20187W        W84120  18.598  38.933   2.243
20188W        W84121  30.092  41.880   4.202
20189W        W84122  24.565   7.752  13.916
20190W        W84123   5.795  16.122  10.910
20191W        W84124   0.955  32.420  10.991
20192W        W84125   6.922  29.619   1.424
20193W        W84126  39.466  32.576  14.458
20194W        W84127  14.156  11.622   1.404
20195W        W84128  32.633  40.822  14.798
20196W        W84129   5.696  32.445  13.477
20197W        W84130  14.176  42.309   1.734
20198W        W84131  14.635   3.328   0.954
20199W        W84132  40.949   9.385  14.504
20200W        W84133  16.805  44.364   4.308
20201W        W84134  22.116  10.381   1.381
20202W        W84135  24.587  19.093   2.341
20203W        W84136  38.350  44.778   2.280
20204W        W84137  40.883  10.728   2.793
20205W        W84138  17.179   1.862  11.576
20206W        W84139  38.066  18.139  13.941
20207W        W84140  20.108  31.951   0.459
20208W        W84141  13.161  41.351  11.562
20209W        W84142  20.587  24.998  13.502
20210W        W84143  34.399  22.224   3.250
20211W        W84144  30.085  44.471   2.688
20212W        W84145  24.523   0.490  11.397
20213W        W84146   5.389  24.126   3.203
20214W        W84147  27.149   9.343   4.691
20215W        W84148  22.629  23.550  11.553
20216W        W84149  12.336   2.753   3.760
20217W        W84150   7.236  23.735   0.263
20218W        W84151  26.058  42.010   0.283
20219W        W84152  11.342  11.654  12.056
20220W        W84153  17.106  41.468   0.772
20221W        W84154  33.487  16.599  13.914
20222W        W84155  24.722  31.467  13.892
20223W        W84156  23.683  43.318   1.891
20224W        W84157  25.627  31.145   4.283
20225W        W84158  35.582  35.082  14.794
20226W        W84159  22.589  34.488   4.753
20227W        W84160  38.056  24.073  13.047
20228W        W84161  14.680  37.996  10.008
20229W        W84162   2.288  11.848  10.614
20230W        W84163  38.462  12.310  10.499
20231W        W84164   4.379  12.806   3.849
20232W        W84165   9.217  21.125  12.344
20233W        W84166  38.005  19.587   3.868
20234W        W84167  15.755  20.649  12.359
20235W        W84168  28.020  22.127  10.970
20236W        W84169   0.829  40.046  12.504
20237W        W84170  27.072  16.181  14.826
20238W        W84171  20.564  42.513  13.382
20239W        W84172  20.744   2.424  11.003
20240W        W84173  39.422  35.504  13.920
20241W        W84174  11.348  30.949   4.127
20242W        W84175   4.899  44.345  12.546
20243W        W84176   5.738  40.812   2.843
20244W        W84177  21.630  36.970   4.132
20245W        W84178  37.059  21.061  14.953
20246W        W84179  42.451  35.905   3.217
20247W        W84180   3.853  22.669  12.359
20248W        W84181  42.433  44.428  10.996
20249W        W84182  30.023   6.426  14.338
20250W        W84183   0.910   5.310   2.248
20251W        W84184  17.125  42.417   0.780
20252W        W84185  26.972  29.507   2.306
20253W        W84186  23.085  21.664   0.265
20254W        W84187   6.414   0.336  12.908
20255W        W84188  26.666  40.966   2.219
20256W        W84189  44.872  42.984  10.501
20257W        W84190   6.778  25.574  14.829
20258W        W84191  14.650  31.496   2.822
20259W        W84192   2.352  30.940   4.191
20260W        W84193  14.258  44.429   4.804
20261W        W84194  27.069  13.702  12.088
20262W        W84195  40.032  25.050  13.825
20263W        W84196  23.026  44.332  13.049
20264W        W84197  28.181  27.084   1.323
20265W        W84198  15.583   0.792  11.098
20266W        W84199   0.974  40.804   3.280
20267W        W84200  28.093  28.060  12.986
20268W        W84201  25.076  34.031   0.883
20269W        W84202  29.589  10.190   4.295
20270W        W84203  20.046  19.260   4.338
20271W        W84204   5.813  39.909  10.919
20272W        W84205  18.696  28.041   3.788
20273W        W84206  36.874   9.655   1.402
20274W        W84207  21.571  34.870  13.333
20275W        W84208  25.531  40.940  10.436
20276W        W84209   3.816   3.248  11.042
20277W        W84210  21.027  42.416  14.993
20278W        W84211  10.204   2.314  13.819
20279W        W84212  30.456  43.922   0.258
20280W        W84213  24.556   2.316   2.396
20281W        W84214  40.401   7.693  13.020
20282W        W84215  32.488  42.283  11.116
20283W        W84216  26.110  16.176   3.359
20284W        W84217  17.164  17.650   0.340
20285W        W84218  20.631   9.253  13.502
20286W        W84219  23.120   1.480  12.497
20287W        W84220  26.130  39.430   1.232
20288W        W84221  39.419  18.721  11.943
20289W        W84222  15.819   0.359   4.297
20290W        W84223  25.027   6.821   3.776
20291W        W84224  23.510   6.775  11.576
20292W        W84225  37.572  41.019   2.686
20293W        W84226  26.961  31.467  14.915
20294W        W84227  42.888  11.743   4.745
20295W        W84228  17.706  37.903   2.366
20296W        W84229  36.589  31.478   3.641
20297W        W84230  35.369  22.147   4.761
20298W        W84231   0.769  30.112   3.821
20299W        W84232  44.312   5.901   0.750
20300W        W84233  27.068   4.709   3.332
20301W        W84234  39.417  38.535  13.791
20302W        W84235   1.301  42.924   4.676
20303W        W84236  14.619  43.350  13.916
20304W        W84237  40.368  32.523  10.510
20305W        W84238  44.282  36.477   5.192
20306W        W84239  15.742   9.670  11.936
20307W        W84240  30.970   8.839  11.503
20308W        W84241  29.137  15.291  11.581
20309W        W84242  29.050   0.290  10.498
20310W        W84243  17.291  33.921  12.530
20311W        W84244  41.415  41.815   1.870
20312W        W84245  36.358   2.764   2.814
20313W        W84246   6.225  21.732  14.502
20314W        W84247  27.539  13.715  12.404
20315W        W84248   4.377  37.933   0.774
20316W        W84249  33.925   9.654   2.247
20317W        W84250  21.135  16.133   1.414
20318W        W84251  15.715  29.454   3.754
20319W        W84252   4.371   6.902   4.791
20320W        W84253  14.668   8.305  10.456
20321W        W84254  36.409   9.871   2.246
20322W        W84255   3.307  17.741  14.511
20323W        W84256  19.762  41.294  10.640
20324W        W84257  26.640  14.679  13.516
20325W        W84258  41.868  30.143   3.278
20326W        W84259  14.708  30.417   2.404
20327W        W84260  25.096  24.031  14.415
20328W        W84261  41.967  29.586  14.986
20329W        W84262  25.662  29.616   0.316
20330W        W84263  35.491  31.984   3.195
20331W        W84264  29.600  33.912  10.942
20332W        W84265  15.811   1.241  14.319
20333W        W84266  27.471  39.962  14.280
20334W        W84267  15.708  28.588   4.774
20335W        W84268  12.216  36.931   3.690
20336W        W84269  17.291  19.051  11.111
20337W        W84270  36.459  11.742   2.736
20338W        W84271  14.331   9.322  14.775
20339W        W84272  10.253   3.845   1.405
20340W        W84273  32.138  10.643  12.538
20341W        W84274   1.945  39.921   3.697
20342W        W84275  13.214  24.004   0.908
20343W        W84276  42.977  26.527  10.534
20344W        W84277  22.742  29.474   0.296
20345W        W84278  37.568  15.326  11.523
20346W        W84279   7.876  11.658  12.856
20347W        W84280  30.501  43.798  13.495
20348W        W84281  43.974   4.934   4.617
20349W        W84282   8.377   4.322  14.972
20350W        W84283  39.523  40.852  10.585
20351W        W84284  23.227  37.010  13.977
20352W        W84285  10.642  42.342  13.008
20353W        W84286   7.852  14.700  13.816
20354W        W84287  32.463  24.664  13.036
20355W        W84288  34.397   8.883  13.350
20356W        W84289  27.019  34.369   2.371
20357W        W84290  36.476  34.119   3.277
20358W        W84291  17.702  25.620  11.408
20359W        W84292  34.477  30.508  13.489
20360W        W84293  28.984  42.311  12.415
20361W        W84294  37.858  26.048   1.255
20362W        W84295  26.066   3.406  13.949
20363W        W84296  30.088  33.487   1.268
20364W        W84297  25.106   5.769  12.545
20365W        W84298   6.905   3.245  13.419
20366W        W84299   4.282   9.863   4.210
20367W        W84300  38.493  44.355  10.497
20368W        W84301  18.782  27.195  12.000
20369W        W84302  26.152   2.791   4.190
20370W        W84303  18.134   0.949   3.190
20371W        W84304   9.655  26.171   3.375
20372W        W84305   2.782  34.991  12.430
20373W        W84306   4.381  33.887  12.940
20374W        W84307  14.335   3.343   3.853
20375W        W84308  11.657  34.021   3.810
20376W        W84309  35.852  44.263   1.770
20377W        W84310  29.096  34.020   0.318
20378W        W84311  42.838  41.828  14.759
20379W        W84312  14.314  33.477  11.891
20380W        W84313  39.490  26.062  10.511
20381W        W84314   8.169   6.766   0.319
20382W        W84315  21.046   9.774  12.569
20383W        W84316  21.574  21.152   4.715
20384W        W84317  18.620  25.699   4.628
20385W        W84318  43.818  10.696   1.401
20386W        W84319  41.946  43.824   2.683
20387W        W84320   7.857   2.350  14.007
20388W        W84321  13.716   0.464  13.520
20389W        W84322  39.057  22.685   9.997
20390W        W84323  17.633  25.138   3.300
20391W        W84324   5.691  31.969   4.623
20392W        W84325  23.036  20.751   0.269
20393W        W84326  41.964   4.283   4.321
20394W        W84327   0.370  34.044  11.016
20395W        W84328  27.135  22.523   9.979
20396W        W84329  29.568   3.360  11.097
20397W        W84330  42.492  33.601   4.310
20398W        W84331  39.855   8.244   4.664
20399W        W84332  19.106  10.234   0.263
20400W        W84333  38.871   5.268  11.551
20401W        W84334  21.748  22.998   4.139
20402W        W84335  17.722  13.309  14.795
20403W        W84336  17.280  15.784  11.937
20404W        W84337  35.406  20.660   0.817
20405W        W84338   9.816   9.823   4.349
20406W        W84339   3.230   0.424  13.969
20407W        W84340  28.957   5.780  13.892
20408W        W84341   7.760  35.474   1.250
20409W        W84342  12.248  29.635   4.685
20410W        W84343  32.571   8.216   0.288
20411W        W84344  41.477   8.339  11.605
20412W        W84345  19.105  31.065   0.869
20413W        W84346  32.934  39.358   0.262
20414W        W84347  16.269  35.441   3.870
20415W        W84348  21.684  20.138   2.318
20416W        W84349  44.823   3.841  10.595
20417W        W84350  16.625  38.550  13.883
20418W        W84351   1.337   2.387   0.929
20419W        W84352  40.922  25.062  11.539
20420W        W84353  31.628  39.854  14.866
20421W        W84354   1.797  44.291  13.332
20422W        W84355  27.009   6.716   1.856
20423W        W84356  12.793  16.217   1.776
20424W        W84357  14.639  36.892   3.386
20425W        W84358  29.654  33.883   2.306
20426W        W84359  23.226  18.229  12.912
20427W        W84360  22.516  16.643  14.807
20428W        W84361   0.381  22.585   1.833
20429W        W84362  44.848  31.405   4.169
20430W        W84363   5.863  18.126   2.835
20431W        W84364  42.374   9.228   0.745
20432W        W84365   4.898  25.102  13.834
20433W        W84366  12.196  24.111   3.645
20434W        W84367  40.489   9.337  10.928
20435W        W84368   7.761   0.451  12.558
20436W        W84369  30.464  41.789  11.400
20437W        W84370  18.616  27.681   3.740
20438W        W84371  27.160   9.710  12.868
20439W        W84372   5.387  22.676   4.681
20440W        W84373   1.351  40.400  11.958
20441W        W84374  33.942  28.090  14.471
20442W        W84375  44.930  31.588  11.468
20443W        W84376  24.564  34.601  13.039
20444W        W84377   2.819  42.831   3.737
20445W        W84378   1.372  17.207   1.896
20446W        W84379  39.051  30.916  13.947
20447W        W84380  29.136  11.773  11.951
20448W        W84381  34.068   6.814   4.224
20449W        W84382  28.451  43.406  11.522
20450W        W84383  17.249  31.059   2.788
20451W        W84384  42.822  21.619  13.460
20452W        W84385   3.242  15.106  10.135
20453W        W84386  15.720  13.624   3.722
20454W        W84387  17.190  20.749  13.037
20455W        W84388  12.329  10.143  13.913
20456W        W84389  22.735  39.539   2.222
20457W        W84390  43.346  35.557   0.385
20458W        W84391   2.872  15.617   4.156
20459W        W84392   1.431  25.075   0.289
20460W        W84393  43.942  40.847   3.841
20461W        W84394  16.577  44.452  11.887
20462W        W84395  32.089  38.543  13.878
20463W        W84396   6.705  17.730  11.540
20464W        W84397  33.601  40.506   4.805
20465W        W84398  24.089  44.395   3.295
20466W        W84399   3.780  19.097  13.993
20467W        W84400  41.409   0.818  11.038
20468W        W84401  17.173   2.265  13.059
20469W        W84402  29.511  18.145   1.839
20470W        W84403   5.356   9.227   1.428
20471W        W84404  34.065  16.209  13.408
20472W        W84405  43.903  25.101  11.967
20473W        W84406  40.874  14.694  13.464
20474W        W84407  38.462  36.470  11.968
20475W        W84408  14.225   9.825   2.821
20476W        W84409  26.037  24.593  13.019
20477W        W84410  29.922  10.144   2.709
20478W        W84411  41.469  41.374  12.352
20479W        W84412   4.235   7.260  11.097
20480W        W84413  35.937   0.890   4.151
20481W        W84414  43.901   8.713  12.984
20482W        W84415  27.084  11.662   0.778
20483W        W84416  17.579  20.665  14.940
20484W        W84417  30.478  44.774   1.930
20485W        W84418   5.885  42.829   5.260
20486W        W84419  12.149  36.428  12.016
20487W        W84420  32.943  27.552  12.392
20488W        W84421  35.555  10.752   4.699
20489W        W84422  22.706  31.922  13.965
20490W        W84423  18.650  37.978   1.742
20491W        W84424  30.614  29.999  10.547
20492W        W84425   3.737  19.705  10.555
20493W        W84426   4.231  19.761   3.655
20494W        W84427  30.933  22.030   1.747
20495W        W84428  16.704   2.240   0.395
20496W        W84429   1.278  31.599  11.520
20497W        W84430   4.827  18.097   0.889
20498W        W84431   0.970  33.095   0.774
20499W        W84432  35.536  14.277   0.350
20500W        W84433  11.817  11.297   2.806
20501W        W84434  15.678  16.278  10.006
20502W        W84435  42.356  17.605  12.877
20503W        W84436   9.388  39.839  11.095
20504W        W84437   0.415   8.849   1.341
20505W        W84438  38.524  14.792  11.036
20506W        W84439   8.247  19.213   3.740
20507W        W84440  12.676   1.907  12.972
20508W        W84441  15.813  18.637   3.340
20509W        W84442   9.842  12.640   4.196
20510W        W84443  24.537  18.148   3.326
20511W        W84444  43.277  24.157   3.769
20512W        W84445   6.337  26.607   0.773
20513W        W84446   6.317  13.299   1.891
20514W        W84447  22.546   8.881   1.807
20515W        W84448  30.949  18.689  13.365
20516W        W84449  16.793  10.175   1.917
20517W        W84450   1.921  25.170   3.691
20518W        W84451  20.706  29.511   2.217
20519W        W84452  41.418  18.721   4.220
20520W        W84453  25.989  33.900  12.401
20521W        W84454   9.706  23.197  11.410
20522W        W84455  38.535   3.389   4.167
20523W        W84456  38.433  41.529   3.157
20524W        W84457  21.129  25.669  14.461
20525W        W84458  42.357  27.559  10.980
20526W        W84459  38.835  26.047   3.860
20527W        W84460  20.119  17.191   4.830
20528W        W84461  28.442  40.021   1.780
20529W        W84462   2.815   9.650   2.680
20530W        W84463  39.064  12.151  11.478
20531W        W84464  29.521  30.912  13.505
20532W        W84465  19.635  31.134   1.757
20533W        W84466   0.451  40.944  14.796
20534W        W84467  38.354   6.390  11.000
20535W        W84468  21.740  23.696   1.932
20536W        W84469  16.105  36.003   4.160
20537W        W84470   9.332  31.899  12.837
20538W        W84471  18.260  15.275  12.091
20539W        W84472  30.598  26.059  10.967
20540W        W84473  16.663  36.929  11.406
20541W        W84474   5.822  35.053  10.631
20542W        W84475   8.285  25.149  12.969
20543W        W84476   8.851  25.530   3.730
20544W        W84477   5.894  32.485   2.900
20545W        W84478  20.156  18.601  14.408
20546W        W84479  38.979  19.593  13.382
20547W        W84480   3.309   1.890   0.429
20548W        W84481  10.824  16.628   0.735
20549W        W84482  27.143  33.990  14.957
20550W        W84483  30.564  24.489   4.341
20551W        W84484  43.296  27.690  11.467
20552W        W84485  10.848  39.401   0.460
20553W        W84486   4.878  37.395   2.737
20554W        W84487  13.801   4.370  11.455
20555W        W84488  33.458  14.797   3.370
20556W        W84489  27.488  11.732   2.411
20557W        W84490   6.902  25.633   4.719
20558W        W84491   5.759  10.789   3.278
20559W        W84492  40.964  42.401  14.902
20560W        W84493  44.342  14.159   4.788
20561W        W84494  30.546  11.662  10.585
20562W        W84495   2.843   2.235  13.531
20563W        W84496  31.965   9.225   3.675
20564W        W84497  35.956  20.208  12.071
20565W        W84498  19.070  26.130   0.913
20566W        W84499  10.277  30.937  13.033
20567W        W84500  18.613  31.526   2.328
20568W        W84501  21.624  36.577   0.447
20569W        W84502  14.743  43.848   0.831
20570W        W84503  19.120  42.991  13.952
20571W        W84504  18.229   3.227   3.821
20572W        W84505  10.229  33.567  14.850
20573W        W84506  19.176  44.382  12.353
20574W        W84507  23.054   1.449   2.185
20575W        W84508  43.780  41.538  12.890
20576W        W84509   2.403  40.917   1.795
20577W        W84510   8.171  29.467   1.449
20578W        W84511  34.490  34.032  10.524
20579W        W84512   1.916  22.722   3.326
20580W        W84513  19.578  21.135   4.651
20581W        W84514  31.637   6.916  11.945
20582W        W84515  40.042  15.596   0.314
20583W        W84516  12.661  38.491  13.014
20584W        W84517   7.690   8.282   4.257
20585W        W84518  43.353  33.905   3.150
20586W        W84519  37.921  10.831  11.031
20587W        W84520  25.714  22.672   2.804
20588W        W84521  26.470  27.946  12.412
20589W        W84522  19.687  33.556  14.322
20590W        W84523  23.511  23.035   1.448
20591W        W84524  27.072  26.621  12.502
20592W        W84525  44.753  25.608  13.907
20593W        W84526  43.487  17.708  14.291
20594W        W84527  39.494  19.197   1.250
20595W        W84528  19.727   0.771  14.899
20596W        W84529  31.463  25.541   3.771
20597W        W84530  29.668  10.296  14.796
20598W        W84531   9.820  39.051   2.418
20599W        W84532  33.452  13.668  12.457
20600W        W84533  15.727  12.225  13.499
20601W        W84534  10.218  27.617  10.975
20602W        W84535  20.092  25.076   4.608
20603W        W84536   0.973  41.831  10.620
20604W        W84537  23.189  17.203  11.887
20605W        W84538  21.555  11.241  10.417
20606W        W84539  11.728  43.802   3.308
20607W        W84540  26.659  42.377   2.679
20608W        W84541  24.070  21.220   5.128
20609W        W84542  14.706  34.522  12.997
20610W        W84543  22.213   9.278   1.377
20611W        W84544   6.734  28.963  14.843
20612W        W84545  25.087  23.690  12.410
20613W        W84546  10.322  15.278   9.997
20614W        W84547  24.027  23.114  10.603
20615W        W84548  22.582   1.862  11.975
20616W        W84549  13.759  14.312   1.313
20617W        W84550  28.621  18.142   3.836
20618W        W84551  31.923  11.369   1.844
20619W        W84552   8.663   4.885   0.466
20620W        W84553  32.637  22.562  10.976
20621W        W84554  33.599  10.346   4.133
20622W        W84555  23.660  26.059  12.956
20623W        W84556  12.755  32.922  14.426
20624W        W84557  14.328  40.367   0.854
20625W        W84558   7.710  39.845  10.617
20626W        W84559  12.788  31.025   0.290
20627W        W84560  28.019  27.555   3.351
20628W        W84561   1.815  33.025  11.860
20629W        W84562  18.618  24.132   1.436
20630W        W84563  20.688  41.840  10.957
20631W        W84564  43.968  15.672  13.966
20632W        W84565  33.583  36.505   0.258
20633W        W84566   7.407  18.630   3.810
20634W        W84567  19.673  14.248  11.556
20635W        W84568   2.928  24.508   2.386
20636W        W84569  28.143  27.002  13.848
20637W        W84570  38.835  10.327   5.246
20638W        W84571  10.655   5.852   0.413
20639W        W84572  13.111  17.121  13.315
20640W        W84573  19.194   5.857   1.356
20641W        W84574   7.751  16.676   2.701
20642W        W84575   2.451  39.903   4.177
20643W        W84576  34.927  39.464   4.772
20644W        W84577  27.483  31.640  10.900
20645W        W84578  28.129  37.873   2.864
20646W        W84579  30.618   6.815   3.221
20647W        W84580  15.610  20.169   3.272
20648W        W84581  14.169  35.042   4.163
20649W        W84582  24.575  20.033  11.424
20650W        W84583  25.534   3.942   1.295
20651W        W84584  15.614  40.503  12.062
20652W        W84585  27.554  16.229   4.288
20653W        W84586  43.921  22.120   0.740
20654W        W84587  41.514   7.682  10.492
20655W        W84588  30.095   6.423  12.537
20656W        W84589  37.057   3.742  11.875
20657W        W84590  19.252  20.700  12.888
20658W        W84591  37.555  35.960  11.505
20659W        W84592  18.268  14.684   2.766
20660W        W84593  30.568   3.376  14.278
20661W        W84594  32.444  23.232   3.236
20662W        W84595   1.435  14.697   3.386
20663W        W84596  44.297  22.519   1.353
20664W        W84597  31.460  15.323  12.422
20665W        W84598  27.662  39.550  12.355
20666W        W84599  30.483  41.941  14.957
20667W        W84600  27.635  42.339  12.368
20668W        W84601  16.195  15.601  12.345
20669W        W84602  21.689  14.218   1.790
20670W        W84603  36.505  21.091   0.350
20671W        W84604  31.598  38.394   4.260
20672W        W84605  32.054  37.982   0.305
20673W        W84606  44.444   0.325   2.868
20674W        W84607  39.355   2.853   2.893
20675W        W84608   2.950  29.027   0.952
20676W        W84609  14.095  16.704   0.738
20677W        W84610  43.505  19.764  14.867
20678W        W84611  12.147  16.610   4.153
20679W        W84612  36.498  27.540   1.387
20680W        W84613  12.780   5.225  14.917
20681W        W84614  37.984  41.829  11.894
20682W        W84615  42.453  23.194   0.941
20683W        W84616  38.839  21.708   2.670
20684W        W84617   6.769  39.318  11.894
20685W        W84618  44.383  19.589  13.900
20686W        W84619   1.885  11.287   1.412
20687W        W84620  40.426  40.545  14.887
20688W        W84621  27.619  24.225  12.038
20689W        W84622  14.592  21.546   3.324
20690W        W84623   7.303  35.556  13.956
20691W        W84624  29.962   9.350   0.310
20692W        W84625  14.192  10.872  11.909
20693W        W84626  16.108  12.774  14.937
20694W        W84627   5.405  32.081  11.570
20695W        W84628  24.179  12.704   1.228
20696W        W84629  20.207   9.811   0.434
20697W        W84630  20.088   0.491   4.719
20698W        W84631  10.217  13.291   1.817
20699W        W84632  13.661  28.050   4.753
20700W        W84633  27.653  13.345  14.322
20701W        W84634  29.656  28.485  11.581
20702W        W84635  39.889   0.787   2.367
20703W        W84636  26.463   8.298   4.208
20704W        W84637   1.248  25.585  11.390
20705W        W84638  12.788  22.714  13.459
20706W        W84639  35.049  42.294   3.361
20707W        W84640  30.525  26.465  13.021
20708W        W84641   6.756  37.852   1.759
20709W        W84642   8.367  39.491  10.458
20710W        W84643  15.293  36.865  14.030
20711W        W84644   9.811  22.518  14.936
20712W        W84645  44.461   2.243  11.457
20713W        W84646  14.686  34.581  11.977
20714W        W84647   8.799  30.605   3.786
20715W        W84648   0.760  18.677  12.531
20716W        W84649  31.012   2.448  14.943
20717W        W84650  19.277  16.121   1.278
20718W        W84651  37.537  35.490   0.739
20719W        W84652   3.854  29.509   2.767
20720W        W84653   4.906  44.475  14.461
20721W        W84654  29.473   4.403  11.411
20722W        W84655  12.770  24.199   1.759
20723W        W84656  42.843  43.919  14.479
20724W        W84657  10.340  22.560  12.379
20725W        W84658  36.076   5.930   4.118
20726W        W84659   6.745   9.775   3.353
20727W        W84660  23.078  31.465   0.484
20728W        W84661  23.017  20.629  13.926
20729W        W84662  36.862  17.221  14.918
20730W        W84663  38.839  25.608  12.398
20731W        W84664   7.387  43.271   3.284
20732W        W84665  18.184  44.361   1.706
20733W        W84666   6.863  23.579  13.996
20734W        W84667  22.701  26.113   5.191
20735W        W84668  44.415  26.630  12.373
20736W        W84669  24.024  38.466   0.941
20737W        W84670  10.679  17.118   1.417
20738W        W84671   7.672  34.444   3.801
20739W        W84672  30.471  30.934   1.277
20740W        W84673  44.336  16.098   1.782
20741W        W84674  15.272  31.585  13.484
20742W        W84675   8.171  14.753  12.966
20743W        W84676   2.908   8.317   4.350
20744W        W84677  39.809   3.801  11.972
20745W        W84678  29.568   4.403  14.783
20746W        W84679  20.175   1.782   2.844
20747W        W84680   2.287   8.884  14.780
20748W        W84681   6.359   2.896   2.690
20749W        W84682  14.773   9.836  10.640
20750W        W84683  25.487  11.806  10.557
20751W        W84684   2.388  32.983   1.397
20752W        W84685  37.365  38.847  10.639
20753W        W84686  30.991   8.751   1.863
20754W        W84687  38.871  18.252  12.089
20755W        W84688  34.404  11.276  14.335
20756W        W84689  42.857  29.080  12.913
20757W        W84690  34.056  39.411  13.490
20758W        W84691  41.041  32.547  11.042
20759W        W84692   9.310  26.617   0.307
20760W        W84693  30.456  40.892  11.486
20761W        W84694  15.631   7.893   4.158
20762W        W84695  36.004  17.290   2.829
20763W        W84696  43.448  15.730  14.931
20764W        W84697  20.660  12.305  14.319
20765W        W84698  22.630  44.982  10.933
20766W        W84699   9.741   7.854   1.292
20767W        W84700  24.197  35.938  12.013
20768W        W84701  42.826   3.723  13.322
20769W        W84702  19.233  20.061   0.779
20770W        W84703   2.797  41.000   0.387
20771W        W84704  34.391  15.295   0.286
20772W        W84705  41.520   9.371   0.962
20773W        W84706  34.075  29.156   4.804
20774W        W84707  41.838   2.372  10.488
20775W        W84708  19.616  27.991   3.843
20776W        W84709   4.700  43.424  11.427
20777W        W84710  14.245  23.641  13.421
20778W        W84711  37.033  42.984  11.404
20779W        W84712   3.845  21.038   1.277
20780W        W84713  39.511   8.234  11.096
20781W        W84714  43.504  28.599   2.247
20782W        W84715  33.111   0.478  11.543
20783W        W84716   8.779   8.850   3.689
20784W        W84717  25.065  11.665   2.692
20785W        W84718  23.990   8.163   5.155
20786W        W84719  41.950  32.973  12.394
20787W        W84720  18.265  21.217  13.032
20788W        W84721  24.151  22.157  14.975
20789W        W84722  44.292  35.907   0.329
20790W        W84723  38.918   3.839   0.374
20791W        W84724  16.810  43.277  12.563
20792W        W84725  32.616  15.224   3.378
20793W        W84726  15.091   6.687   3.178
20794W        W84727  23.152  43.917  13.427
20795W        W84728  38.823   6.731  11.899
20796W        W84729  20.652  25.197  12.894
20797W        W84730  18.256  21.634   2.295
20798W        W84731  26.015  10.842   4.192
20799W        W84732  26.480  20.673  14.446
20800W        W84733  34.023  42.526   0.753
20801W        W84734  13.305  44.307  13.053
20802W        W84735  28.177  37.453  10.592
20803W        W84736  36.483  30.638  14.767
20804W        W84737   0.780   4.303  11.067
20805W        W84738  23.017  10.706  12.899
20806W        W84739   3.806  15.824  10.505
20807W        W84740  26.096  44.986  11.401
20808W        W84741  32.107  14.217   4.743
20809W        W84742  43.821  10.138  12.901
20810W        W84743  44.273  44.770  14.912
20811W        W84744  43.334   6.309   4.171
20812W        W84745  35.937  12.855  12.982
20813W        W84746  25.206  32.975  10.643
20814W        W84747  18.686   9.796  13.801
20815W        W84748  27.090  26.114   3.856
20816W        W84749   0.334  34.887   2.771
20817W        W84750  15.803  16.781  14.977
20818W        W84751  43.989  22.651  12.534
20819W        W84752  23.633  37.418   3.724
20820W        W84753   6.198  34.867  13.056
20821W        W84754  27.591   7.358  13.318
20822W        W84755  24.006  13.134  14.477
20823W        W84756  21.566   6.751   0.349
20824W        W84757  44.267  34.956   4.207
20825W        W84758  41.478   1.257  11.004
20826W        W84759  22.593  24.501   3.311
20827W        W84760  23.029   8.336  10.965
20828W        W84761  35.471  20.249   1.719
20829W        W84762  21.672  20.263   4.272
20830W        W84763   5.303  37.439  13.374
20831W        W84764   6.368  12.247  14.322
20832W        W84765  44.420  34.944   3.740
20833W        W84766  24.110  35.863   0.425
20834W        W84767  19.761  40.307  13.850
20835W        W84768  42.358  19.058   2.691
20836W        W84769  29.049   6.205   2.353
20837W        W84770  39.497  21.101   0.384
20838W        W84771  35.576  10.363   4.289
20839W        W84772   8.190  31.588   1.216
20840W        W84773   9.348  23.562   0.814
20841W        W84774   0.493  37.905   1.382
20842W        W84775   4.293  20.643   0.940
20843W        W84776  21.565   2.414  13.864
20844W        W84777  44.987  35.080  14.307
20845W        W84778   2.270  21.223  11.578
20846W        W84779   7.344  22.546  14.396
20847W        W84780  26.958   2.459   4.643
20848W        W84781  23.181  44.960  11.514
20849W        W84782   9.179   3.249   3.317
20850W        W84783  18.275  26.074   5.286
20851W        W84784   6.186  11.314  10.613
20852W        W84785  30.957  25.691   1.857
20853W        W84786   1.737  40.307   1.859
20854W        W84787  27.097  13.837  12.418
20855W        W84788  14.182  19.249  12.483
20856W        W84789  43.940   9.315   0.825
20857W        W84790  38.990  16.658  11.905
20858W        W84791  29.996  13.211  12.383
20859W        W84792   4.334   7.773  14.983
20860W        W84793  28.623  22.133  13.821
20861W        W84794  26.062  39.896   1.238
20862W        W84795  35.474   9.276   0.297
20863W        W84796   1.852  42.296  14.294
20864W        W84797  27.459  14.629  13.357
20865W        W84798  14.703  15.816   1.895
20866W        W84799  15.222  43.809   1.932
20867W        W84800  29.641  23.195   0.364
20868W        W84801  26.675  27.507  10.953
20869W        W84802  34.473  14.202  10.504
20870W        W84803   8.849   7.816   5.098
20871W        W84804   5.228  18.767   0.470
20872W        W84805  41.460  27.476  13.920
20873W        W84806  37.998   6.837  12.011
20874W        W84807   8.354  36.024  13.929
20875W        W84808  44.480  24.144   1.301
20876W        W84809   4.234  31.043   4.135
20877W        W84810  33.998  29.089   3.638
20878W        W84811  42.990  41.442  13.046
20879W        W84812  26.996  32.142   2.738
20880W        W84813  30.475   6.314  13.392
20881W        W84814   7.687   7.386   2.750
20882W        W84815  36.028  15.276   0.421
20883W        W84816   8.886  24.484   3.708
20884W        W84817  41.371  44.006   3.738
20885W        W84818  13.750   9.337  13.434
20886W        W84819  18.728  37.569   4.339
20887W        W84820   8.873  29.619  14.365
20888W        W84821  20.262   7.364  12.024
20889W        W84822  24.047  13.168  14.893
20890W        W84823  16.593  25.165   0.961
20891W        W84824  27.495   5.761  11.427
20892W        W84825  36.972   1.843   4.765
20893W        W84826  23.648  23.642  13.330
20894W        W84827  43.864  19.625   2.405
20895W        W84828  10.766  35.487   4.352
20896W        W84829  11.204  20.729  13.315
20897W        W84830  38.448  20.706  13.507
20898W        W84831  15.164  27.152  13.871
20899W        W84832  30.975  43.462  14.828
20900W        W84833  28.932  25.534   4.613
20901W        W84834  10.383   5.884  11.524
20902W        W84835  37.436  17.588   2.368
20903W        W84836   5.818  34.507   0.746
20904W        W84837  16.636  18.050  12.461
20905W        W84838  28.614  29.932   4.116
20906W        W84839  18.580  23.051  12.970
20907W        W84840   5.234  39.961   0.309
20908W        W84841  18.774   1.739  13.908
20909W        W84842  17.592  27.021   0.445
20910W        W84843  33.938   6.682   0.420
20911W        W84844  16.197  14.636   0.454
20912W        W84845   3.865  33.926   2.731
20913W        W84846   1.765  29.120   4.283
20914W        W84847   5.325  44.285   3.768
20915W        W84848  15.247  12.768  14.777
20916W        W84849  21.221  12.638   0.730
20917W        W84850  29.447  20.038  10.538
20918W        W84851  37.485  22.576  14.429
20919W        W84852  33.001  29.168   2.380
20920W        W84853  14.833  24.212   0.403
20921W        W84854  16.180  14.331  12.346
20922W        W84855   1.831  14.126  14.283
20923W        W84856   6.322  43.906  10.635
20924W        W84857   4.319   6.755   0.829
20925W        W84858   4.752  31.917  14.768
20926W        W84859  31.104  10.323   9.958
20927W        W84860   2.334  12.233   0.888
20928W        W84861  40.866  31.450   3.286
20929W        W84862   9.788   2.750  14.477
20930W        W84863  12.143  40.870   3.772
20931W        W84864  35.962   2.784   3.780
20932W        W84865  19.547  33.074  11.509
20933W        W84866   4.709  23.518   4.326
20934W        W84867  32.976  11.345  12.051
20935W        W84868  33.541  35.439   0.953
20936W        W84869  29.459  41.479   2.379
20937W        W84870  29.994  11.236   3.221
20938W        W84871   7.269  11.685  13.364
20939W        W84872   1.882  25.117  14.338
20940W        W84873   0.381  14.604  11.422
20941W        W84874  25.686  12.162   1.786
20942W        W84875  24.662  11.347  13.512
20943W        W84876   7.325  11.309  14.314
20944W        W84877   1.400  15.745  11.473
20945W        W84878  39.487  39.050   4.208
20946W        W84879  29.545  26.516   1.822
20947W        W84880  40.457  29.099  12.067
20948W        W84881  22.020  24.021  13.008
20949W        W84882  40.455  24.226   0.798
20950W        W84883  35.501  16.172   0.925
20951W        W84884   3.440  43.984   2.186
20952W        W84885  22.563  36.579  11.392
20953W        W84886  29.172  42.303   2.403
20954W        W84887   6.329  27.061   4.660
20955W        W84888   5.220  29.571  13.514
20956W        W84889  20.082  34.961  14.341
20957W        W84890   5.696  24.697   0.459
20958W        W84891  37.419   2.786  12.050
20959W        W84892  19.686   2.345   1.402
20960W        W84893  26.488  38.481  14.012
20961W        W84894  37.396   1.384   2.255
20962W        W84895  44.306  28.946   0.937
20963W        W84896   6.766   7.340   3.328
20964W        W84897  16.211  10.217   1.397
20965W        W84898  13.633  35.941   0.432
20966W        W84899  34.491  27.068   1.750
20967W        W84900  28.465  35.983   0.936
20968W        W84901  43.407  36.411   2.877
20969W        W84902   8.356   1.341  13.933
20970W        W84903  15.694  33.080   0.312
20971W        W84904   8.321  21.107   1.802
20972W        W84905  41.372  31.047   5.211
20973W        W84906  23.575  26.097   1.830
20974W        W84907  31.631  24.007  12.436
20975W        W84908  19.179  33.382  13.921
20976W        W84909  39.373  20.272  12.896
20977W        W84910  18.671  27.141   1.327
20978W        W84911  23.694  44.993  14.874
20979W        W84912   1.296  39.883  12.828
20980W        W84913  41.863   2.914   2.808
20981W        W84914  28.636  16.191  14.365
20982W        W84915  25.112  13.334   0.794
20983W        W84916  44.973  31.979  11.932
20984W        W84917  15.231  41.403   3.172
20985W        W84918   8.665  29.514  11.921
20986W        W84919  35.410  22.586   4.807
20987W        W84920  39.515   3.849  11.455
20988W        W84921   9.393  18.175   4.253
20989W        W84922  39.509  41.944   0.322
20990W        W84923  16.135  36.056   5.298
20991W        W84924  18.199  20.749   4.323
20992W        W84925  11.159   1.777  14.790
20993W        W84926  15.145   5.340   3.311
20994W        W84927  21.607  36.042  12.059
20995W        W84928  16.150   5.402  11.381
20996W        W84929   4.865   7.172   9.988
20997W        W84930  13.609  38.467   0.856
20998W        W84931   4.309  40.848   2.206
20999W        W84932  24.505  36.051   2.182
21000W        W84933  39.903  39.353   2.384
21001W        W84934  14.154  13.278  13.962
21002W        W84935  39.528  14.632  12.984
21003W        W84936  22.231  15.589  10.925
21004W        W84937   0.424   8.814  11.469
21005W        W84938  28.069  43.397  13.793
21006W        W84939  21.040  26.134  11.889
21007W        W84940  28.461  11.673   2.186
21008W        W84941  29.452  42.517  12.471
21009W        W84942  31.585  29.580  12.468
21010W        W84943  24.585  10.180  10.992
21011W        W84944   9.295  41.973   0.860
21012W        W84945  26.119  41.473   1.318
21013W        W84946  30.976  28.173  10.002
21014W        W84947   1.733   1.928  10.550
21015W        W84948   6.325   6.417  13.017
21016W        W84949  38.842  22.502   1.439
21017W        W84950  40.872  26.102  13.868
21018W        W84951  24.174  19.270  12.543
21019W        W84952   3.258  19.111   2.281
21020W        W84953   9.661  30.079   0.474
21021W        W84954   8.382  44.877   1.781
21022W        W84955  13.791  10.213  12.537
21023W        W84956  19.149  37.918  12.839
21024W        W84957  23.217  40.449   2.397
21025W        W84958  34.058  20.131   2.840
21026W        W84959   8.695  38.571   0.729
21027W        W84960  28.661  11.185  13.829
21028W        W84961  24.578  43.839   1.785
21029W        W84962  25.539   7.812  12.892
21030W        W84963   1.256   4.733   1.801
21031W        W84964  33.502  26.955  10.430
21032W        W84965  37.478  30.577  14.433
21033W        W84966  18.743  19.551   4.752
21034W        W84967   7.834  43.335  11.504
21035W        W84968  15.694  21.568   3.719
21036W        W84969  26.993  20.542  14.370
21037W        W84970   2.799  35.082   2.380
21038W        W84971  27.515  21.566   4.789
21039W        W84972  36.581  39.978   0.821
21040W        W84973  21.612  44.757   3.322
21041W        W84974  44.915  25.519   2.350
21042W        W84975  15.709  18.170   0.351
21043W        W84976  15.162  30.511   4.239
21044W        W84977  39.528  19.596   2.219
21045W        W84978  26.677  18.733  14.833
21046W        W84979  22.170  36.858  12.425
21047W        W84980  34.448  23.063  14.480
21048W        W84981  27.544  14.769   0.348
21049W        W84982   3.914  41.466   1.332
21050W        W84983   9.811  36.061  13.040
21051W        W84984  43.787  13.156  12.930
21052W        W84985  23.219  38.077  14.328
21053W        W84986  23.636  18.273  14.761
21054W        W84987   9.241  37.546   1.217
21055W        W84988  17.741  41.946   1.289
21056W        W84989  12.333  40.402  11.447
21057W        W84990  27.966  38.976  10.895
21058W        W84991  19.110  19.715  12.456
21059W        W84992  43.503  20.760   4.695
21060W        W84993   0.468   2.383  12.531
21061W        W84994  38.556  12.321   0.418
21062W        W84995  25.006  21.017   3.250
21063W        W84996  30.022  19.536   3.252
21064W        W84997   6.292  44.442  14.938
21065W        W84998  40.905  42.908   1.806
21066W        W84999  21.224   1.861   0.471
21067W        W85000  36.978  26.506   2.810
21068W        W85001  38.829  24.979   2.239
21069W        W85002  18.633  19.715  10.035
21070W        W85003  18.660  15.224   2.184
21071W        W85004  44.974  21.133   0.279
21072W        W85005  41.823   5.342  14.327
21073W        W85006   5.369  23.219   4.833
21074W        W85007   2.878  19.708  12.950
21075W        W85008  38.327  43.474  12.059
21076W        W85009  17.743  31.029   0.386
21077W        W85010  11.177  36.593  12.562
21078W        W85011  42.893   2.750   3.204
21079W        W85012   9.368  26.179  11.998
21080W        W85013  34.543  28.962   2.858
21081W        W85014  38.952  10.301   3.300
21082W        W85015  17.186  21.705  11.425
21083W        W85016   9.358  26.198  13.837
21084W        W85017  11.677  21.744  10.887
21085W        W85018  33.473  36.941   3.372
21086W        W85019   8.872   4.797   4.708
21087W        W85020  34.070   6.319  10.564
21088W        W85021  39.011  35.434   2.745
21089W        W85022  28.181   3.417  13.891
21090W        W85023  23.033   1.860  13.400
21091W        W85024  35.039  29.557  14.401
21092W        W85025   4.386  23.690   9.552
21093W        W85026   7.252  32.504   3.370
21094W        W85027  18.613   4.756  11.024
21095W        W85028  43.895  12.336   2.752
21096W        W85029  10.242  30.621  14.031
21097W        W85030  20.231  36.013  14.796
21098W        W85031   5.274  32.985  12.860
21099W        W85032  36.541  21.725  14.811
21100W        W85033  32.038  32.127   4.139
21101W        W85034  23.013  11.144  13.989
21102W        W85035   4.204  32.947  14.289
21103W        W85036   1.287   5.394   0.752
21104W        W85037  31.601  28.592   4.307
21105W        W85038  29.446  20.273  12.390
21106W        W85039  37.440  22.156  14.310
21107W        W85040  15.689   6.258  14.376
21108W        W85041   4.885  19.089   1.706
21109W        W85042  10.792  38.495   4.353
21110W        W85043  44.978  16.678  14.974
21111W        W85044   2.803  35.983   0.402
21112W        W85045  16.755  17.640   3.310
21113W        W85046  34.503  14.772   0.279
21114W        W85047   7.366  18.180   4.617
21115W        W85048  13.331  28.624   0.347
21116W        W85049  17.219   0.297   2.851
21117W        W85050  41.402  26.479  10.905
21118W        W85051  41.467  23.599   3.186
21119W        W85052  29.526  28.173  13.003
21120W        W85053  39.990   9.291  12.497
21121W        W85054  14.337  28.657   1.395
21122W        W85055   1.467   1.427  13.435
21123W        W85056   9.734   8.221  14.933
21124W        W85057  18.724   6.396  12.419
21125W        W85058   7.811  27.029   3.775
21126W        W85059  13.751  18.662   2.218
21127W        W85060   8.694  19.735  11.108
21128W        W85061  14.719  23.496   1.744
21129W        W85062  18.570   3.273   0.254
21130W        W85063  24.611   9.836  10.576
21131W        W85064   0.305  22.663   2.365
21132W        W85065  25.535  30.440   9.986
21133W        W85066  12.767   3.214  11.913
21134W        W85067  21.582   5.697  11.006
21135W        W85068  19.051  44.445  12.966
21136W        W85069  12.257  27.086   2.395
21137W        W85070  24.072  16.602   2.694
21138W        W85071   1.414  18.262   4.739
21139W        W85072   9.184  36.376   1.933
21140W        W85073  18.100   7.416   1.302
21141W        W85074  41.473  16.762   3.181
21142W        W85075  19.590  38.989   2.828
21143W        W85076  44.877  15.124   2.817
21144W        W85077  37.484  40.467   4.817
21145W        W85078  23.521  38.522   2.686
21146W        W85079  29.132  22.051   4.831
21147W        W85080  38.555   5.757   1.271
21148W        W85081  10.836  34.526   4.129
21149W        W85082  37.443  12.258  12.096
21150W        W85083  40.321  23.491  10.950
21151W        W85084   7.735  34.882  11.524
21152W        W85085  22.691  44.820  10.558
21153W        W85086   7.227  32.624   0.850
21154W        W85087  41.309  37.872   3.228
21155W        W85088   2.919  19.059  14.512
21156W        W85089   0.271  28.554   4.158
21157W        W85090  17.101  14.678   1.295
21158W        W85091  10.364  34.504   2.803
21159W        W85092  24.105   1.912  11.971
21160W        W85093  43.866  29.966   3.866
21161W        W85094  16.270   4.357  12.831
21162W        W85095  23.580  13.633  14.313
21163W        W85096  37.982  14.748   2.249
21164W        W85097  25.523   7.900  13.387
21165W        W85098   2.356  16.139   4.829
21166W        W85099  40.411  12.775  13.996
21167W        W85100  41.503  10.213   1.880
21168W        W85101  13.307   3.830   1.432
21169W        W85102  36.522  34.382   1.810
21170W        W85103  22.574   1.802   2.393
21171W        W85104  10.332   5.211   3.217
21172W        W85105   9.794  38.330   0.895
21173W        W85106  15.764   5.773  10.949
21174W        W85107  28.929   0.428   2.884
21175W        W85108  36.049  11.198  14.389
21176W        W85109  29.433  44.967  12.964
21177W        W85110   2.370  13.199   2.351
21178W        W85111  43.798  36.532  11.054
21179W        W85112  14.255   2.963   4.743
21180W        W85113  19.039  24.099   1.902
21181W        W85114  21.678  25.999  11.430
21182W        W85115  31.066  17.217  14.489
21183W        W85116  35.085  34.569   4.824
21184W        W85117  17.236  32.547   1.889
21185W        W85118  31.108  18.162  14.864
21186W        W85119  17.800  39.461  10.909
21187W        W85120  34.521   8.679   1.842
21188W        W85121  16.271   4.294   2.281
21189W        W85122  44.389  26.558  14.017
21190W        W85123  21.177  24.668  12.387
21191W        W85124  32.524  42.517   0.859
21192W        W85125   0.936  41.300   4.314
21193W        W85126  25.000  43.003   9.950
21194W        W85127   3.872  10.187  14.770
21195W        W85128  21.558  18.626   0.849
21196W        W85129  42.992  24.482   2.689
21197W        W85130  35.413  17.796   0.785
21198W        W85131  17.265  17.619  12.494
21199W        W85132   2.775  14.725  10.945
21200W        W85133  24.530  22.186   4.657
21201W        W85134  31.483  23.143   0.394
21202W        W85135  27.646  15.267  10.640
21203W        W85136  35.528  43.912  12.935
21204W        W85137  31.476  44.755  12.497
21205W        W85138  43.850  41.950   0.732
21206W        W85139   5.400  28.028  11.510
21207W        W85140  27.537  27.596   4.751
21208W        W85141   6.339   3.827  13.533
21209W        W85142  10.766   8.380   1.350
21210W        W85143  12.150  34.892  14.297
21211W        W85144   0.947  33.928   0.783
21212W        W85145  36.478  28.079  11.535
21213W        W85146  37.870  35.978   2.757
21214W        W85147  41.372  18.758   4.618
21215W        W85148  24.715  30.589   2.825
21216W        W85149  28.060   7.348   1.272
21217W        W85150  39.919  12.661  13.321
21218W        W85151   0.797   7.365   0.737
21219W        W85152   5.354  23.163   1.763
21220W        W85153  18.161   4.708  12.446
21221W        W85154  34.377  17.613  13.051
21222W        W85155  31.412   6.229  11.397
21223W        W85156   3.876   2.840  10.576
21224W        W85157  24.043  17.787   0.410
21225W        W85158  35.445  17.251   2.900
21226W        W85159   1.449  26.527   2.328
21227W        W85160  22.656  17.150  14.284
21228W        W85161  31.994   5.240   4.191
21229W        W85162  42.318   0.449  10.547
21230W        W85163  19.565  43.345   4.329
21231W        W85164   1.346  34.062  14.458
21232W        W85165   5.393  18.699  13.371
21233W        W85166  19.652   6.332   4.791
21234W        W85167  24.182  34.957   2.417
21235W        W85168   2.247  25.545  14.489
21236W        W85169  33.490   5.315   1.909
21237W        W85170  14.119  20.194   3.836
21238W        W85171  23.192  18.291  13.359
21239W        W85172  17.300  29.045  11.874
21240W        W85173  32.632  22.731  13.454
21241W        W85174   0.788  31.908  13.848
21242W        W85175  26.047  42.457  12.938
21243W        W85176  25.057  32.979   4.708
21244W        W85177   8.665   7.831   3.762
21245W        W85178  14.606  33.074  12.941
21246W        W85179  38.368  23.580  12.572
21247W        W85180   5.867  35.095   2.201
21248W        W85181  33.960  41.006   2.241
21249W        W85182   7.182  38.909   5.211
21250W        W85183  26.492  31.086  10.918
21251W        W85184  34.427   4.944  14.404
21252W        W85185  26.048  13.164   0.937
21253W        W85186  10.861  16.781  11.996
21254W        W85187  35.511  34.590   3.228
21255W        W85188   1.383  40.020  14.763
21256W        W85189  32.629  15.221   4.312
21257W        W85190  29.940  25.195   1.715
21258W        W85191  28.502  21.708   0.354
21259W        W85192  17.075  13.349  10.419
21260W        W85193  43.363  29.454   2.775
21261W        W85194  25.982  22.095  10.545
21262W        W85195  11.331  22.645   1.376
21263W        W85196  28.999  35.586   3.729
21264W        W85197  26.652  19.550   4.289
21265W        W85198  10.852  37.553   0.806
21266W        W85199  12.256  42.466  10.615
21267W        W85200  26.005  31.115   3.649
21268W        W85201   9.673   4.784  10.485
21269W        W85202  38.562   9.325  13.451
21270W        W85203   1.299  16.072  13.359
21271W        W85204  17.714  29.507  10.996
21272W        W85205  19.184   9.645   0.352
21273W        W85206  10.863   0.467   3.367
21274W        W85207   3.415  20.186   1.325
21275W        W85208  17.768  43.994   4.606
21276W        W85209  40.881  30.109   0.811
21277W        W85210  33.115   5.831  12.847
21278W        W85211  13.335   4.823  10.579
21279W        W85212  30.159  34.583   1.909
21280W        W85213  30.997  32.525   4.179
21281W        W85214   6.364  38.909  13.404
21282W        W85215  17.186  38.071   3.383
21283W        W85216  39.452  40.465   2.406
21284W        W85217  10.671  35.498  14.360
21285W        W85218  36.455  28.150  13.962
21286W        W85219  44.836   5.883   4.208
21287W        W85220  24.541   2.413   0.281
21288W        W85221  36.504  34.905  10.641
21289W        W85222   5.213  23.533  10.043
21290W        W85223  24.064  35.586   4.190
21291W        W85224  27.489   9.746  13.886
21292W        W85225   7.874  18.551   2.800
21293W        W85226  38.035  38.473  11.978
21294W        W85227  17.100  42.524   1.742
21295W        W85228  12.708  19.752  13.803
21296W        W85229  37.836  38.959  14.436
21297W        W85230   7.267   2.386   2.197
21298W        W85231  24.540  28.598  11.110
21299W        W85232  43.876  40.948  11.882
21300W        W85233   4.904   9.731  12.059
21301W        W85234  41.895  33.528   1.329
21302W        W85235   6.295   0.439   2.718
21303W        W85236  34.542  28.008  11.070
21304W        W85237  21.046  35.005   3.366
21305W        W85238  17.238  28.172  12.835
21306W        W85239  29.640  35.438   0.408
21307W        W85240  20.599   2.317   0.921
21308W        W85241   6.329  22.104   3.797
21309W        W85242  44.872  16.741   3.159
21310W        W85243  20.738  23.006  12.939
21311W        W85244  25.202   4.845   3.209
21312W        W85245  27.504  28.132   3.779
21313W        W85246   1.459  34.027  12.976
21314W        W85247  26.589  31.924   3.146
21315W        W85248  38.552  33.923   4.822
21316W        W85249  26.604  22.672  10.628
21317W        W85250   6.820  42.525   2.751
21318W        W85251  31.912  21.654  13.512
21319W        W85252  17.740  38.509   3.322
21320W        W85253  29.448  27.089   1.881
21321W        W85254   6.715  25.594  10.092
21322W        W85255  22.692  29.095  12.016
21323W        W85256   7.352  11.674  12.418
21324W        W85257  32.963   2.785   2.237
21325W        W85258  11.258  15.786  12.914
21326W        W85259  32.556  28.939  11.099
21327W        W85260  37.537  11.245  14.015
21328W        W85261  10.382  16.232   4.722
21329W        W85262  35.094  33.931  14.388
21330W        W85263   3.273  43.841  14.855
21331W        W85264  28.555  10.675  13.842
21332W        W85265  10.156  23.027   1.373
21333W        W85266  23.174   1.743   2.226
21334W        W85267  41.498  10.244   2.804
21335W        W85268  41.850   4.880  13.529
21336W        W85269   9.350  38.532   0.805
21337W        W85270  43.394  25.981  13.933
21338W        W85271  11.147  23.567  11.419
21339W        W85272  22.067  32.030  10.955
21340W        W85273   9.816  31.920   4.632
21341W        W85274  23.664  13.331   2.279
21342W        W85275  11.177  34.492   3.647
21343W        W85276  20.114  44.831   4.780
21344W        W85277  29.002  26.496   2.749
21345W        W85278  17.746  17.721  11.097
21346W        W85279  43.498  35.595   2.350
21347W        W85280  13.635  38.019   1.286
21348W        W85281  35.553  44.333   2.293
21349W        W85282  16.231  24.483   3.327
21350W        W85283   5.745  20.753   2.265
21351W        W85284  13.838  19.569   2.323
21352W        W85285  28.651  43.447  13.537
21353W        W85286  19.602   3.272   4.237
21354W        W85287  30.512  22.069  12.418
21355W        W85288  40.848  17.667  14.925
21356W        W85289  18.612  11.803  11.906
21357W        W85290  20.039  31.474   4.637
21358W        W85291  26.459  31.961   5.233
21359W        W85292  26.020  34.479   4.170
21360W        W85293  34.606  39.549   0.791
21361W        W85294  41.353   4.339  11.535
21362W        W85295   8.771  20.169  11.091
21363W        W85296   9.343  20.753  12.964
21364W        W85297   8.282  36.366  14.332
21365W        W85298  18.267  26.530  14.856
21366W        W85299   2.758  41.889   2.681
21367W        W85300  16.300   9.286   3.311
21368W        W85301  23.675   9.186   1.385
21369W        W85302  24.672  13.817   0.307
21370W        W85303   0.404  29.038  14.436
21371W        W85304  12.258   8.830   2.764
21372W        W85305  34.882  32.622  11.488
21373W        W85306  12.311  33.057  14.443
21374W        W85307  23.735  34.088  12.832
21375W        W85308  27.511  20.687  11.107
21376W        W85309  20.184  36.402  14.486
21377W        W85310   3.392   9.828   1.330
21378W        W85311  17.272  36.946  10.632
21379W        W85312  17.682   6.211   5.157
21380W        W85313   9.158  42.301  14.997
21381W        W85314   3.864   5.850  14.988
21382W        W85315  43.953   5.237  12.509
21383W        W85316   9.756  36.454  13.462
21384W        W85317   5.829   2.929  12.394
21385W        W85318  30.092  26.593   3.187
21386W        W85319  39.337  43.510  12.909
21387W        W85320  22.180   5.394   4.620
21388W        W85321  12.671   6.375   0.767
21389W        W85322  22.034  10.797   9.515
21390W        W85323  17.702  39.344   5.628
21391W        W85324  28.136   0.853  11.866
21392W        W85325  19.271  20.626  10.428
21393W        W85326   4.271   4.886  12.341
21394W        W85327  41.360   9.814   4.346
21395W        W85328  31.578   9.699   2.395
21396W        W85329  43.866  17.308  10.891
21397W        W85330  19.660  41.040  13.061
21398W        W85331  15.579  20.670   3.634
21399W        W85332  15.117  43.893  10.491
21400W        W85333  26.176  16.289  11.503
21401W        W85334  18.687   2.332   4.760
21402W        W85335  34.427  13.759   2.735
21403W        W85336  42.982  36.946   1.699
21404W        W85337  14.684   9.154   3.757
21405W        W85338  25.113  38.022  10.945
21406W        W85339  21.022  27.118   1.713
21407W        W85340  22.581  42.437   1.847
21408W        W85341  23.699  42.881   4.175
21409W        W85342  10.861   8.241   3.254
21410W        W85343   6.699   8.897  11.078
21411W        W85344  13.302  38.485   1.828
21412W        W85345  35.482   0.778  14.820
21413W        W85346  38.533  15.722   2.381
21414W        W85347  20.122  39.492   1.915
21415W        W85348  19.636  15.243  12.078
21416W        W85349   3.879  38.329  11.005
21417W        W85350  35.593  12.801   0.754
21418W        W85351  39.320  31.106   1.806
21419W        W85352   2.772  38.965  13.529
21420W        W85353  36.915  29.492  11.862
21421W        W85354  13.698  21.253  10.597
21422W        W85355  35.419  26.579   4.287
21423W        W85356  12.311  30.992   0.863
21424W        W85357   0.277   8.298   4.175
21425W        W85358  27.974  24.706   0.472
21426W        W85359  21.689   5.224   1.894
21427W        W85360  20.158  39.487  10.144
21428W        W85361   3.304   2.744  11.105
21429W        W85362  42.006  11.831   3.365
21430W        W85363   2.287  19.722   3.310
21431W        W85364   8.190  20.138   3.769
21432W        W85365  16.160   5.827   2.355
21433W        W85366  18.265  44.426   3.726
21434W        W85367   6.276  37.068  11.447
21435W        W85368  36.472  41.358  10.410
21436W        W85369  38.993  10.834   1.427
21437W        W85370  32.580  11.158  14.927
21438W        W85371  23.160   1.304   4.738
21439W        W85372  33.506  25.004   5.295
21440W        W85373  25.997  11.222   2.745
21441W        W85374   6.312  29.636   3.649
21442W        W85375  20.701  18.099  13.960
21443W        W85376  17.141  42.971  11.955
21444W        W85377  37.915   7.883   4.171
21445W        W85378  31.598  10.293   0.760
21446W        W85379  40.380  16.307   3.849
21447W        W85380  26.682   6.361   4.249
21448W        W85381   4.376  16.710   0.937
21449W        W85382  30.507   9.318   5.202
21450W        W85383  38.404  15.174   1.432
21451W        W85384  26.024  16.285  12.469
21452W        W85385  43.924  32.542  14.485
21453W        W85386  20.678  37.387  13.926
21454W        W85387  20.180  17.659   1.311
21455W        W85388  25.647   4.789  10.542
21456W        W85389  21.215  21.513  11.596
21457W        W85390   6.723  27.064  10.406
21458W        W85391  13.299  43.270  14.358
21459W        W85392  26.691  14.262   4.294
21460W        W85393  36.417   9.184  12.074
21461W        W85394  20.746  16.184   0.932
21462W        W85395  17.291  41.447   2.185
21463W        W85396  40.517  40.010  13.412
21464W        W85397  20.604  35.050  13.906
21465W        W85398  14.177  34.495  11.886
21466W        W85399  36.952  11.779  11.126
21467W        W85400  37.511  26.698  10.497
21468W        W85401  12.807  36.355  12.561
21469W        W85402   7.847  31.547   1.794
21470W        W85403  43.514   8.176   0.846
21471W        W85404  15.654  29.551  14.949
21472W        W85405  35.499  14.741  12.459
21473W        W85406   3.348   4.344  10.404
21474W        W85407  22.094   3.804   2.672
21475W        W85408  10.875  38.483  14.301
21476W        W85409  10.761  37.481   2.872
21477W        W85410  40.872  14.749   4.782
21478W        W85411  20.206  26.147  10.146
21479W        W85412  43.862  31.636   4.613
21480W        W85413  34.886  15.744   0.363
21481W        W85414  40.530   5.203  13.356
21482W        W85415  12.255  20.685   1.772
21483W        W85416   4.918  33.626   2.705
21484W        W85417   3.951  44.323  13.887
21485W        W85418  13.165  33.941  13.436
21486W        W85419  18.130  30.083  11.574
21487W        W85420  12.331   3.274  13.317
21488W        W85421  33.519  35.009   4.831
21489W        W85422  32.525   8.760  14.491
21490W        W85423  39.425   4.882  14.464
21491W        W85424   1.862   3.361   2.270
21492W        W85425   3.391  42.973  14.968
21493W        W85426  30.450   6.752  12.886
21494W        W85427   2.268  14.623  12.457
21495W        W85428  16.709  36.527   0.775
21496W        W85429  22.142  12.752   9.990
21497W        W85430  27.949  17.237   3.653
21498W        W85431  28.477  18.189  14.888
21499W        W85432  25.156   8.230   0.866
21500W        W85433  32.583   7.693   1.253
21501W        W85434  31.540  13.252  11.608
21502W        W85435   2.851  36.983   1.788
21503W        W85436   4.824  14.246  13.974
21504W        W85437  11.852  15.204   2.260
21505W        W85438  40.911  44.263   3.781
21506W        W85439  32.092  26.625  11.554
21507W        W85440  22.655   0.266  10.949
21508W        W85441  36.545  20.251  12.073
21509W        W85442  21.686  13.266   3.182
21510W        W85443   0.384  44.000  13.422
21511W        W85444  21.622  28.934  12.888
21512W        W85445   7.795  17.284   4.189
21513W        W85446  23.560  24.157   1.366
21514W        W85447  32.409   3.217  13.806
21515W        W85448  23.086  11.334   0.319
21516W        W85449  34.475  36.385  10.454
21517W        W85450  43.414  27.952   2.693
21518W        W85451  20.629  20.673   2.664
21519W        W85452  36.585  41.460  11.988
21520W        W85453  33.478  41.383   4.786
21521W        W85454  12.665   6.687  10.520
21522W        W85455  27.116  12.307  10.002
21523W        W85456  40.401  16.097   4.739
21524W        W85457  28.460  39.901  12.009
21525W        W85458  40.979  20.701   0.926
21526W        W85459  43.288  12.253  11.920
21527W        W85460  13.609  16.084  12.018
21528W        W85461  26.031  37.934   0.246
21529W        W85462   0.428  25.713  13.021
21530W        W85463  30.568  27.995  12.966
21531W        W85464   8.343  15.689  11.912
21532W        W85465   1.876  29.658  12.869
21533W        W85466   0.855  16.618   3.822
21534W        W85467  31.052  17.151   0.274
21535W        W85468  36.889  18.122  12.497
21536W        W85469  30.550  41.040  11.125
21537W        W85470  35.054  31.462   4.614
21538W        W85471  17.086  31.549   3.382
21539W        W85472  20.768  44.355   2.290
21540W        W85473  23.657  36.502  10.409
21541W        W85474  37.835  43.412  12.536
21542W        W85475  39.496  19.705   3.829
21543W        W85476   1.912   6.350   0.324
21544W        W85477  38.919  39.927   4.603
21545W        W85478  38.888  10.741   2.721
21546W        W85479  33.595   5.389   4.347
21547W        W85480  28.180  16.316   3.320
21548W        W85481   6.730  35.935   1.243
21549W        W85482  35.951   0.981  13.898
21550W        W85483  27.631  28.657  14.434
21551W        W85484  27.491  43.822  13.341
21552W        W85485  44.368  32.620   4.299
21553W        W85486  18.087  43.923   3.231
21554W        W85487  24.186  44.962   2.730
21555W        W85488   0.940  36.415   2.375
21556W        W85489  23.597   6.255   0.916
21557W        W85490  35.857  23.147   0.453
21558W        W85491  44.397  14.815  11.934
21559W        W85492   5.393  44.791   3.780
21560W        W85493  40.405   3.427   3.716
21561W        W85494  30.068  39.523  10.530
21562W        W85495  29.534  44.919  11.457
21563W        W85496  24.224  33.893  14.873
21564W        W85497   1.744  15.128   2.704
21565W        W85498  35.025  26.567  13.855
21566W        W85499  23.565  31.070  14.440
21567W        W85500  19.201   8.804  13.391
21568W        W85501  36.358  16.758   3.851
21569W        W85502  33.449   2.376  14.849
21570W        W85503  12.165   5.863  10.155
21571W        W85504  28.151   8.304  12.387
21572W        W85505   0.894   2.895  12.512
21573W        W85506   0.752   9.392  14.351
21574W        W85507  39.334  21.243  12.433
21575W        W85508  10.299  25.148   4.184
21576W        W85509  38.442  26.563  11.955
21577W        W85510  16.228  42.797  11.415
21578W        W85511  35.581  35.032   3.707
21579W        W85512  30.547  15.815   3.698
21580W        W85513  37.016  12.706   3.175
21581W        W85514  26.054   9.247   2.901
21582W        W85515  15.732  18.577  12.052
21583W        W85516  29.620   9.372  10.888
21584W        W85517  18.253   7.800   1.727
21585W        W85518  36.073   6.400  13.311
21586W        W85519   4.926  43.341   5.312
21587W        W85520  31.634  17.763   2.343
21588W        W85521  34.997  17.169   2.361
21589W        W85522  23.731  34.983  13.799
21590W        W85523   6.266  12.795   3.781
21591W        W85524   7.845  30.931   3.284
21592W        W85525  11.629  23.061  13.342
21593W        W85526   3.431  36.358   4.121
21594W        W85527  39.926  22.681  14.289
21595W        W85528  27.616  27.535  14.516
21596W        W85529  28.062  31.025  13.898
21597W        W85530   6.918  42.979  13.342
21598W        W85531  28.981  44.483   2.363
21599W        W85532  18.743  24.039   0.358
21600W        W85533   7.241  12.713  10.541
21601W        W85534  34.996  34.427  12.520
21602W        W85535  13.770  38.873  11.095
21603W        W85536  15.109  22.142   4.341
21604W        W85537  20.051  13.281  12.348
21605W        W85538   8.322  37.439  10.492
21606W        W85539   6.242  10.662  11.958
21607W        W85540  43.391  28.503   0.286
21608W        W85541   7.306  10.694   4.328
21609W        W85542  40.326  27.044   0.418
21610W        W85543  19.696  15.140   4.753
21611W        W85544  30.424  25.523  10.946
21612W        W85545  36.526  33.474   3.727
21613W        W85546  13.843  17.228   3.227
21614W        W85547  15.124   6.371  10.924
21615W        W85548  44.806  18.241  12.404
21616W        W85549   4.378   9.700  14.973
21617W        W85550  12.335  37.565   1.857
21618W        W85551  30.603  42.884   3.378
21619W        W85552  36.950  13.695   2.784
21620W        W85553   5.687  38.008   2.285
21621W        W85554   2.314  43.504   1.776
21622W        W85555   4.254  13.324  13.957
21623W        W85556  19.628  10.185  11.076
21624W        W85557  30.413  29.128   0.466
21625W        W85558   5.256   1.307   1.260
21626W        W85559  39.904  30.120   1.415
21627W        W85560   9.284  23.174  12.371
21628W        W85561  26.593  39.053   2.410
21629W        W85562   4.808  41.977   2.663
21630W        W85563  41.404  14.642   1.764
21631W        W85564  39.318  25.109  13.919
21632W        W85565  39.502  18.673  12.445
21633W        W85566  27.054  21.099  14.371
21634W        W85567  34.066  10.728  12.015
21635W        W85568  20.639  36.564  13.463
21636W        W85569  43.873  43.340   1.932
21637W        W85570  10.300  17.262   3.835
21638W        W85571   3.285  16.723  13.002
21639W        W85572   8.185  26.127   1.933
21640W        W85573   0.883  14.623   1.281
21641W        W85574  15.580  44.951   0.931
21642W        W85575  36.416  22.659  11.091
21643W        W85576  44.484  25.624  10.105
21644W        W85577  11.346   9.160  11.606
21645W        W85578  18.236  21.635  12.074
21646W        W85579  44.342  14.652   1.404
21647W        W85580  13.162  11.789  14.422
21648W        W85581  22.517  26.613   4.632
21649W        W85582  24.569  27.107  14.453
21650W        W85583  29.588  36.889  13.394
21651W        W85584  33.058  14.826   2.745
21652W        W85585   1.267  19.758   2.342
21653W        W85586  37.517  13.639   2.858
21654W        W85587  32.563  25.094   2.295
21655W        W85588  10.214  14.748  13.370
21656W        W85589  35.566  40.946  13.955
21657W        W85590   8.814  19.612   5.156
21658W        W85591   5.343  36.431  10.527
21659W        W85592   5.437  42.825  13.967
21660W        W85593   4.793  26.120   1.219
21661W        W85594  38.949  33.046  11.930
21662W        W85595   6.199  26.630  12.485
21663W        W85596   4.222  15.726  11.986
21664W        W85597  38.947  28.482  11.998
21665W        W85598  17.578  12.132  11.907
21666W        W85599  10.635   3.441   4.257
21667W        W85600  40.334  36.355  12.353
21668W        W85601  30.161  18.740   1.918
21669W        W85602  16.790  38.037  13.355
21670W        W85603   9.362   2.228  14.378
21671W        W85604   9.233   6.835  10.471
21672W        W85605  19.615  10.359  13.466
21673W        W85606   5.701   6.731  10.542
21674W        W85607  12.283  35.572   1.391
21675W        W85608  31.045   4.219   0.406
21676W        W85609  22.500   0.878   4.231
21677W        W85610  40.993   0.885  14.923
21678W        W85611  14.258  44.009   3.729
21679W        W85612  10.797   7.258   4.302
21680W        W85613  19.577  13.798  13.378
21681W        W85614  32.626  37.574  11.065
21682W        W85615  18.670  41.029  14.835
21683W        W85616  40.805  35.357   5.269
21684W        W85617  42.380  11.174   4.653
21685W        W85618  40.440  13.326   2.210
21686W        W85619  29.652  27.676   1.342
21687W        W85620  19.189  18.752   0.336
21688W        W85621  26.957  33.926   3.156
21689W        W85622  41.991  35.392   5.182
21690W        W85623   7.801  23.566  10.063
21691W        W85624  17.644  37.554   0.789
21692W        W85625  22.088  20.697   3.815
21693W        W85626  18.185  17.273   4.703
21694W        W85627  29.665   5.259   3.379
21695W        W85628  13.279   6.185  13.457
21696W        W85629  41.295  39.043   1.382
21697W        W85630   4.386  20.153   2.822
21698W        W85631  26.568  32.914   1.396
21699W        W85632  39.010  12.192  13.458
21700W        W85633  12.800  23.173  12.038
21701W        W85634  15.233  40.514   1.722
21702W        W85635  36.962  31.936  10.578
21703W        W85636   4.249  13.131  10.488
21704W        W85637  39.403  13.206  11.456
21705W        W85638  14.289  21.193   5.089
21706W        W85639   3.949  17.786   2.370
21707W        W85640  13.618  33.574   0.814
21708W        W85641  18.659  10.810  11.546
21709W        W85642  43.917  26.205  14.941
21710W        W85643  13.324  36.076   2.408
21711W        W85644   2.309  41.335   2.885
21712W        W85645   0.948  33.931  10.634
21713W        W85646  21.710  43.320   2.385
21714W        W85647  19.672  27.531  12.396
21715W        W85648  18.685  30.495  13.795
21716W        W85649  17.186  36.350   2.296
21717W        W85650  24.090  19.729  11.608
21718W        W85651  28.660  26.602   2.730
21719W        W85652   6.792  13.842  13.538
21720W        W85653  36.950  17.232  13.834
21721W        W85654  34.380  21.126   0.435
21722W        W85655  33.622  20.530   4.225
21723W        W85656  33.875  44.830   2.202
21724W        W85657   4.834  24.656  11.563
21725W        W85658  15.742  42.298   3.817
21726W        W85659  21.631  27.688   2.790
21727W        W85660  21.718  25.032  12.541
21728W        W85661   8.783   5.719  12.422
21729W        W85662  21.623   4.912   0.749
21730W        W85663  24.978   5.716  10.959
21731W        W85664  24.032  20.524   4.789
21732W        W85665  10.827  17.127   0.260
21733W        W85666  19.058  24.618   2.725
21734W        W85667  32.625   6.312   4.267
21735W        W85668   2.264  26.168   4.649
21736W        W85669   0.310  11.853   2.221
21737W        W85670   2.240  37.002   1.330
21738W        W85671   7.339  15.212   1.735
21739W        W85672  13.769  30.922   0.397
21740W        W85673  14.242  15.274   3.818
21741W        W85674   9.158  38.504   4.651
21742W        W85675  29.955  17.693  12.831
21743W        W85676   5.414  28.153   4.193
21744W        W85677  11.141  24.708   1.796
21745W        W85678  17.166  33.007   3.822
21746W        W85679   0.755  40.804  12.927
21747W        W85680   7.252  28.614   4.823
21748W        W85681   5.869   1.944   1.296
21749W        W85682  43.856  15.597  10.606
21750W        W85683   0.298  37.014  11.881
21751W        W85684  23.635  39.013  10.468
21752W        W85685  37.957  18.175   4.771
21753W        W85686   2.886  43.914  11.038
21754W        W85687  17.772   8.257  14.467
21755W        W85688  44.879  44.975  13.485
21756W        W85689  24.669   0.841  11.112
21757W        W85690  41.918  12.818   1.845
21758W        W85691  17.244  42.337   2.847
21759W        W85692  17.168  41.372  12.574
21760W        W85693  15.808  44.853   3.709
21761W        W85694   6.875  28.637  14.988
21762W        W85695  25.651   9.688   2.221
21763W        W85696  18.741  26.653   1.248
21764W        W85697  32.582   9.772  13.845
21765W        W85698  21.151  14.146  12.382
21766W        W85699  14.261   9.856  14.861
21767W        W85700   5.267   9.762   0.772
21768W        W85701  20.230  19.635  14.490
21769W        W85702  40.505  11.179  13.337
21770W        W85703  11.271  29.645  11.865
21771W        W85704  21.023  36.391   4.636
21772W        W85705  24.581  19.260  10.617
21773W        W85706  32.460  13.729   3.172
21774W        W85707  27.136  32.590  11.125
21775W        W85708  20.118  33.892  13.360
21776W        W85709  12.157  38.991   2.777
21777W        W85710  11.205  33.382  10.618
21778W        W85711  38.566  27.523  13.493
21779W        W85712  38.836   8.704   2.410
21780W        W85713   8.279   4.906  12.023
21781W        W85714  37.894   3.926   2.360
21782W        W85715  27.687  23.654   4.294
21783W        W85716   2.958  39.460   1.699
21784W        W85717   1.851  37.577   5.207
21785W        W85718  19.271  39.512  14.307
21786W        W85719  18.667  10.801  13.364
21787W        W85720   1.905  38.461   0.467
21788W        W85721   2.260   0.423  14.425
21789W        W85722  25.076  37.343  12.564
21790W        W85723   9.331  15.148  10.503
21791W        W85724  35.463   6.819  12.911
21792W        W85725  29.613  23.228  11.527
21793W        W85726  16.803  34.496   1.864
21794W        W85727  35.048  14.297   0.774
21795W        W85728   0.472  14.709   4.316
21796W        W85729  24.572  18.056   3.751
21797W        W85730  33.950  13.188   4.784
21798W        W85731  28.988  21.244   4.777
21799W        W85732  16.810  40.388  13.326
21800W        W85733  36.473  41.837   2.397
21801W        W85734  22.146   1.818   2.764
21802W        W85735  26.998  42.406  14.820
21803W        W85736  41.021  29.578  13.899
21804W        W85737  24.111  14.616   2.780
21805W        W85738  22.229   1.901  13.388
21806W        W85739  21.633   3.298  12.830
21807W        W85740  32.009  27.002   2.782
21808W        W85741   2.950  36.416  13.426
21809W        W85742  32.532  22.616   0.368
21810W        W85743  41.858  15.223   3.752
21811W        W85744   6.825  39.928  13.349
21812W        W85745   6.353   5.391   9.656
21813W        W85746  24.116  40.536  13.525
21814W        W85747  36.391  13.333   3.232
21815W        W85748  25.977  23.214   4.280
21816W        W85749  20.197  44.842   3.707
21817W        W85750  40.467  37.917   4.151
21818W        W85751  10.769  34.430   0.301
21819W        W85752  36.398   9.383  14.978
21820W        W85753   3.318  40.894   2.748
21821W        W85754  12.785   2.911  13.889
21822W        W85755  43.423  41.337   4.289
21823W        W85756   1.358  27.125  12.882
21824W        W85757  22.018  19.736  12.062
21825W        W85758  14.771   7.669  11.083
21826W        W85759  35.878  13.107  14.383
21827W        W85760   0.311   3.460   2.409
21828W        W85761  44.787  39.861  12.871
21829W        W85762  36.347  33.494  10.105
21830W        W85763  44.863  19.542  12.487
21831W        W85764  19.615  42.803   2.816
21832W        W85765  26.145  25.703  14.824
21833W        W85766  27.945   2.330  11.478
21834W        W85767  43.827   7.384  12.047
21835W        W85768   5.871   9.718  12.390
21836W        W85769  24.200  30.428  12.376
21837W        W85770  38.831   1.465   4.726
21838W        W85771  18.652   2.457  11.999
21839W        W85772   4.744  42.442   3.643
21840W        W85773   2.887  45.000  12.864
21841W        W85774  37.057   9.377  11.066
21842W        W85775  24.127   3.849   3.152
21843W        W85776   5.426  34.990   2.707
21844W        W85777  15.819   1.743  12.409
21845W        W85778  23.499  25.468   2.400
21846W        W85779  28.995  41.537  14.408
21847W        W85780   0.964  17.770   4.226
21848W        W85781  27.086  42.930  10.978
21849W        W85782   2.917   7.674   4.728
21850W        W85783  42.865  44.348  14.847
21851W        W85784  43.459  43.991   1.773
21852W        W85785  39.006  12.136   1.817
21853W        W85786  12.301  19.069  14.284
21854W        W85787  21.541  15.272  11.091
21855W        W85788  22.565  36.941  12.426
21856W        W85789  27.585   6.402   2.880
21857W        W85790  19.582  29.081   4.201
21858W        W85791  33.058  12.220   4.818
21859W        W85792   3.311   6.189  11.604
21860W        W85793   7.817   1.337  12.089
21861W        W85794   0.262  33.438   4.620
21862W        W85795  33.550  16.137  10.501
21863W        W85796  15.677  36.399  14.766
21864W        W85797  14.636  13.322  12.845
21865W        W85798   6.346  16.149  12.442
21866W        W85799  35.458   6.847  13.828
21867W        W85800   3.845  22.666   0.859
21868W        W85801  25.995  12.127   5.210
21869W        W85802   5.887  25.181   2.388
21870W        W85803  44.940  25.017  13.452
21871W        W85804   1.750  10.250  14.449
21872W        W85805  30.489  42.026  10.416
21873W        W85806  10.183  43.513  12.859
21874W        W85807  24.160  12.758  10.967
21875W        W85808  22.128  10.800  10.035
21876W        W85809  19.092  24.206  10.997
21877W        W85810  23.209  20.681  13.482
21878W        W85811  29.664  31.025   1.729
21879W        W85812   5.813  32.953  12.063
21880W        W85813  18.227  23.018   2.338
21881W        W85814  14.824  25.177   2.899
21882W        W85815  40.938  26.090  11.006
21883W        W85816   1.792  25.141  14.960
21884W        W85817  26.113  31.973   4.795
21885W        W85818   1.331  22.039  13.499
21886W        W85819   7.306   2.943  12.887
21887W        W85820   7.714  29.154   3.160
21888W        W85821  38.338  24.716   2.747
21889W        W85822  26.094  28.062  11.530
21890W        W85823   2.362  16.627   2.235
21891W        W85824  36.415  27.604  12.554
21892W        W85825   6.734  20.083  12.984
21893W        W85826  35.979  25.979   1.317
21894W        W85827  42.842   0.844   3.154
21895W        W85828   1.335  36.050  11.433
21896W        W85829  10.752  23.037  11.127
21897W        W85830  37.983  24.193   4.752
21898W        W85831  31.087  38.385  14.950
21899W        W85832   9.829  42.853  10.572
21900W        W85833  22.194  23.190  11.447
21901W        W85834  30.636  35.003  10.412
21902W        W85835   7.815  14.177  11.483
21903W        W85836  44.351   7.806   5.308
21904W        W85837   3.346  39.508  10.643
21905W        W85838  41.856  30.964   1.810
21906W        W85839  15.199  19.073   1.304
21907W        W85840  33.974  25.599   4.233
21908W        W85841  40.541   6.373  14.003
21909W        W85842  37.859  14.226   2.794
21910W        W85843  39.362  37.923  14.512
21911W        W85844  36.563   4.210  10.910
21912W        W85845  42.911   2.325  11.974
21913W        W85846   5.761  28.989   3.295
21914W        W85847  22.038  25.133   2.833
21915W        W85848  27.138  27.529   2.859
21916W        W85849  36.924  28.977   2.297
21917W        W85850   6.344  39.020   3.275
21918W        W85851   3.398   6.361   5.302
21919W        W85852  20.147  26.973   0.333
21920W        W85853  19.626   7.275   4.614
21921W        W85854  18.779  39.855   4.606
21922W        W85855  36.493  43.436  11.525
21923W        W85856  44.447  11.221  11.495
21924W        W85857  27.646  42.439   3.703
21925W        W85858  25.690  10.219  12.387
21926W        W85859   5.787  13.702   0.457
21927W        W85860  24.072  18.201  13.809
21928W        W85861  11.637  11.762   3.802
21929W        W85862  28.666   8.659  10.548
21930W        W85863   5.292  13.281  14.858
21931W        W85864  18.664  27.037  10.969
21932W        W85865  39.919  18.290  10.550
21933W        W85866  20.197  22.055  13.813
21934W        W85867  41.941  10.350  10.006
21935W        W85868  30.610  39.397   2.242
21936W        W85869  33.909  41.832  10.977
21937W        W85870  27.023  39.863   3.774
21938W        W85871  22.074   0.830  10.931
21939W        W85872  25.130  26.600   4.632
21940W        W85873  26.993   0.273   0.744
21941W        W85874  40.980  20.756  11.894
21942W        W85875  11.267  34.530  12.080
21943W        W85876  33.482   5.353  13.850
21944W        W85877  26.155   0.323   3.385
21945W        W85878  34.866  26.518   3.804
21946W        W85879  25.160  27.459   0.471
21947W        W85880  36.415  13.118  10.604
21948W        W85881  33.004   4.745   4.766
21949W        W85882  34.005   4.798  11.607
21950W        W85883  15.278   9.821   1.298
21951W        W85884  38.455  17.762   1.306
21952W        W85885  31.038  39.494  11.868
21953W        W85886  24.561   2.445  13.805
21954W        W85887  20.130   0.407  14.836
21955W        W85888  10.351  20.272  12.580
21956W        W85889  24.600  18.674   1.854
21957W        W85890   8.349   0.851   1.841
21958W        W85891   1.756   6.389   4.755
21959W        W85892  11.755  15.214   1.878
21960W        W85893   2.826  17.171   1.835
21961W        W85894  26.073  34.065  11.460
21962W        W85895  19.261  36.593  14.315
21963W        W85896   8.656   7.228  14.780
21964W        W85897  17.662  24.660  14.968
21965W        W85898   7.778  34.105   2.188
21966W        W85899  16.264  13.147  12.357
21967W        W85900   2.250  16.780  14.442
21968W        W85901  10.335  28.064   3.697
21969W        W85902   6.327  20.666   0.767
21970W        W85903   6.692  39.004   2.360
21971W        W85904  25.187   7.370   1.435
21972W        W85905  27.518  32.467  14.981
21973W        W85906   6.868  43.985   1.932
21974W        W85907  27.645  17.742  11.606
21975W        W85908  29.027  14.787  13.808
21976W        W85909  37.517  15.666  13.822
21977W        W85910  23.150  41.349  13.967
21978W        W85911   0.882  14.172   4.640
21979W        W85912  41.304  28.545   0.795
21980W        W85913   5.750  29.106   2.855
21981W        W85914  36.052  42.894   3.716
21982W        W85915  15.239  17.231   0.857
21983W        W85916   0.929  40.839  14.434
21984W        W85917  12.623  11.634  10.544
21985W        W85918  33.104  31.532   4.323
21986W        W85919   6.801  34.579   1.807
21987W        W85920  11.141  31.104   4.777
21988W        W85921  28.029   6.685   2.308
21989W        W85922  24.150  24.129  11.082
21990W        W85923   6.877  19.241  13.495
21991W        W85924  30.016  42.500   3.171
21992W        W85925  20.048  36.415   3.698
21993W        W85926  41.949  44.880   4.300
21994W        W85927   4.898  36.011  11.461
21995W        W85928  15.249  30.539   2.892
21996W        W85929  33.552  10.720   3.359
21997W        W85930  14.098  17.630  12.409
21998W        W85931  26.972   9.826  13.852
21999W        W85932  11.263  28.614   2.869
22000W        W85933  17.741  13.130  10.438
22001W        W85934  17.185   8.233  13.917
22002W        W85935  21.619  20.221   4.800
22003W        W85936  43.272  39.874   2.735
22004W        W85937  23.181   5.819   3.357
22005W        W85938  22.206  30.525   1.386
22006W        W85939  24.566  30.019   3.266
22007W        W85940  42.834  29.601   2.878
22008W        W85941  31.555  34.109   2.267
22009W        W85942  44.313  21.254  13.005
22010W        W85943  40.818  26.127  13.449
22011W        W85944  18.708  20.728  13.903
22012W        W85945  20.649  34.478  11.500
22013W        W85946  41.502  30.638  13.909
22014W        W85947  42.292  39.477  13.952
22015W        W85948  39.927  33.964  11.956
22016W        W85949  29.151  24.527   1.264
22017W        W85950  11.848  22.175  13.433
22018W        W85951   9.364  40.986   1.354
22019W        W85952  14.671  24.512  12.566
22020W        W85953  33.039   8.227   1.818
22021W        W85954  40.897  41.892   0.272
22022W        W85955   3.412  21.668  13.426
22023W        W85956  36.845  38.565  14.026
22024W        W85957   0.982  18.604  11.441
22025W        W85958  27.590  28.588  12.421
22026W        W85959   4.333  36.466   1.369
22027W        W85960  31.143  39.949  11.958
22028W        W85961  41.996  38.468  14.353
22029W        W85962  18.237   8.685  11.556
22030W        W85963  36.939  19.541  10.616
22031W        W85964  37.035  29.645  14.464
22032W        W85965  27.684  40.911   0.283
22033W        W85966  20.042   8.799   3.671
22034W        W85967  42.318   3.918   1.240
22035W        W85968  16.296  31.577  12.995
22036W        W85969   8.676  44.812   4.338
22037W        W85970  18.156   5.308   2.856
22038W        W85971  33.472   3.770   4.720
22039W        W85972  34.978   8.777   2.673
22040W        W85973  22.725   5.905   2.663
22041W        W85974  28.451  24.011  14.818
22042W        W85975  21.650  12.200   5.593
22043W        W85976  34.063  21.544  14.846
22044W        W85977  23.241  15.712   3.789
22045W        W85978   3.246   7.223  11.905
22046W        W85979  11.727   1.757   3.744
22047W        W85980  31.550  10.732  10.513
22048W        W85981   8.329  19.142  14.907
22049W        W85982  34.897  42.787   1.263
22050W        W85983   8.790  20.760  14.289
22051W        W85984  23.161  34.896   0.264
22052W        W85985  10.674  19.610   5.317
22053W        W85986  36.553   5.376   0.461
22054W        W85987  36.414  23.014   4.284
22055W        W85988  10.246  40.366  11.413
22056W        W85989  33.612  29.631   0.778
22057W        W85990  15.322   7.270   0.433
22058W        W85991   1.291  44.011   1.821
22059W        W85992  21.161  37.484  13.326
22060W        W85993   5.846  24.567   2.668
22061W        W85994  12.319  21.613   1.712
22062W        W85995   7.311  12.613  10.979
22063W        W85996  29.456  33.904  14.995
22064W        W85997  10.332   6.390  13.322
22065W        W85998  14.726   5.326  14.004
22066W        W85999  31.406  37.542  10.493
22067W        W86000  43.474  41.292  13.431
22068W        W86001   8.859   3.900   0.385
22069W        W86002  13.740  15.761  11.932
22070W        W86003  37.565  33.454  13.829
22071W        W86004   9.666  15.609  10.585
22072W        W86005  42.009  44.805   0.761
22073W        W86006  41.362  20.178  12.033
22074W        W86007  12.753  40.828   1.360
22075W        W86008  15.750  31.135  12.457
22076W        W86009  14.694  40.910  14.885
22077W        W86010  44.389  42.797  14.788
22078W        W86011  11.801  31.911   2.886
22079W        W86012  26.041   6.213   1.913
22080W        W86013  36.894   4.916   0.417
22081W        W86014  22.089  18.645   3.165
22082W        W86015  41.332  27.555   2.851
22083W        W86016   5.250  13.761   4.168
22084W        W86017   6.923  18.699  12.395
22085W        W86018  38.858  15.624  14.346
22086W        W86019  40.452  24.708   2.356
22087W        W86020  30.465   0.362   1.342
22088W        W86021   8.789  23.147   2.665
22089W        W86022   7.359  15.661  14.020
22090W        W86023  33.518  12.728  12.962
22091W        W86024  43.963   8.778   2.192
22092W        W86025   0.280  34.896  11.560
22093W        W86026  13.187  20.544  12.502
22094W        W86027  27.580  23.560   3.272
22095W        W86028  12.157   2.352   0.470
22096W        W86029   5.368  38.939   0.314
22097W        W86030   8.160  39.828   4.171
22098W        W86031  17.290  36.985   0.294
22099W        W86032  21.665  14.799  14.394
22100W        W86033   2.302  20.042  14.845
22101W        W86034  17.695  36.028  13.881
22102W        W86035  22.114  20.597  11.947
22103W        W86036  14.321  37.418  14.934
22104W        W86037   9.169   7.906   0.316
22105W        W86038  29.661  39.953   1.368
22106W        W86039   5.327  20.243   4.805
22107W        W86040   5.866  21.725  14.308
22108W        W86041   1.443  17.744   0.751
22109W        W86042  18.677  39.009  12.556
22110W        W86043   4.308  13.208   3.179
22111W        W86044  16.759  31.034   4.776
22112W        W86045  29.152  20.075   4.307
22113W        W86046  26.176   1.388   0.362
22114W        W86047  41.940  16.248   1.305
22115W        W86048  32.891  31.548  14.876
22116W        W86049  39.350  34.549  13.827
22117W        W86050  36.573  15.219   0.277
22118W        W86051  22.118  39.501   1.327
22119W        W86052  36.919  43.479  12.021
22120W        W86053   3.926  28.573   4.698
22121W        W86054  22.646  25.137  13.027
22122W        W86055  13.815  23.698  12.377
22123W        W86056  28.479  43.302  14.333
22124W        W86057   5.219  11.632  11.528
22125W        W86058  22.554   2.327   0.398
22126W        W86059   8.347  14.254  14.891
22127W        W86060   3.916  15.761  12.969
22128W        W86061   0.420  21.088   3.218
22129W        W86062   7.844  26.637   4.335
22130W        W86063  35.959  22.152  14.505
22131W        W86064  35.598  30.153  13.545
22132W        W86065  21.261  42.382   0.769
22133W        W86066  27.990  26.140   0.422
22134W        W86067   6.267  29.062  13.032
22135W        W86068  27.503  35.044  12.041
22136W        W86069  14.135  42.018  11.502
22137W        W86070  40.934  29.977   4.790
22138W        W86071  10.855  24.078   1.884
22139W        W86072  41.907   8.294   4.711
22140W        W86073  34.928   1.880  12.023
22141W        W86074  22.571  14.723   0.770
22142W        W86075  14.184  21.261   3.255
22143W        W86076   2.948  28.125  12.021
22144W        W86077  16.808  16.595   9.635
22145W        W86078   3.250  44.851  10.547
22146W        W86079  38.376  24.141  11.441
22147W        W86080  21.186   7.757  12.046
22148W        W86081  18.771  13.828   3.309
22149W        W86082  26.099   3.762  11.909
22150W        W86083  28.044  40.440  10.619
22151W        W86084  21.093  15.817  14.491
22152W        W86085   5.404  32.109   3.869
22153W        W86086   2.884  12.318  14.471
22154W        W86087  31.983  15.774   5.240
22155W        W86088   7.377  43.434  13.817
22156W        W86089  24.111  33.430   0.731
22157W        W86090  24.619  31.565  10.899
22158W        W86091   6.295  20.191  10.497
22159W        W86092   5.238   9.645  13.024
22160W        W86093  14.250  39.443   0.379
22161W        W86094   5.854  30.459  11.499
22162W        W86095   4.354  13.660   1.371
22163W        W86096  38.074  24.028   0.841
22164W        W86097  25.037   4.418   4.346
22165W        W86098   8.256  35.953   4.229
22166W        W86099  15.088  24.700   2.733
22167W        W86100  22.105  38.019   4.307
22168W        W86101   7.795  10.165   1.843
22169W        W86102  33.047  14.120  13.842
22170W        W86103  32.979  16.073  11.030
22171W        W86104   7.232  26.592   3.830
22172W        W86105  15.191  38.517  11.862
22173W        W86106   1.876   0.363   4.312
22174W        W86107   4.935  12.165   3.225
22175W        W86108  23.223  11.337   3.645
22176W        W86109   2.749  39.908  14.933
22177W        W86110   7.229   5.356  11.893
22178W        W86111  15.286   7.294  14.850
22179W        W86112  34.060  33.471   3.789
22180W        W86113  25.020  16.299  12.497
22181W        W86114  41.469  38.329  10.569
22182W        W86115  30.416  42.292   4.182
22183W        W86116  41.488  38.872  11.602
22184W        W86117  23.143  28.459  10.506
22185W        W86118  31.945  38.338  10.560
22186W        W86119  22.573  17.703   3.221
22187W        W86120  40.925  13.675  10.475
22188W        W86121  34.103  33.542   4.343
22189W        W86122  22.722  18.231  11.459
22190W        W86123  39.900  44.487  13.545
22191W        W86124   5.800  11.861   4.237
22192W        W86125  16.745   3.278  10.930
22193W        W86126  37.484  22.123  10.423
22194W        W86127  11.701  39.516   1.755
22195W        W86128  12.763  26.088  10.486
22196W        W86129   6.287  44.917  11.605
22197W        W86130  17.216  20.256   0.922
22198W        W86131  17.692  11.130  11.059
22199W        W86132  25.136  39.956  12.544
22200W        W86133  39.366   8.236   3.846
22201W        W86134  20.082  39.877   4.261
22202W        W86135   3.909   8.307   0.783
22203W        W86136  22.602  41.534   5.215
22204W        W86137  21.127  18.253   2.831
22205W        W86138  21.556   2.268   4.332
22206W        W86139  29.586  18.706   4.207
22207W        W86140  18.641   5.865  11.539
22208W        W86141   2.349  36.863  14.786
22209W        W86142  37.553   3.430  13.521
22210W        W86143  14.817  43.945  12.348
22211W        W86144  26.977   7.689   3.380
22212W        W86145  20.174  20.559  12.996
22213W        W86146  30.097  40.427  14.839
22214W        W86147  24.028  26.126  10.975
22215W        W86148  22.045   0.312  13.897
22216W        W86149  22.149  28.179  12.982
22217W        W86150  43.971  19.559  12.956
22218W        W86151   8.175  40.357   2.895
22219W        W86152  31.010  19.190  10.973
22220W        W86153  19.705  33.042  10.903
22221W        W86154  25.477  31.421  10.454
22222W        W86155  19.094  32.035  10.593
22223W        W86156  25.162  35.404   4.774
22224W        W86157  20.572  17.748  13.433
22225W        W86158   9.237   3.944   4.236
22226W        W86159  29.465  38.456  14.980
22227W        W86160  26.966  33.426  12.463
22228W        W86161   3.899  36.473  12.053
22229W        W86162  42.372  39.510   3.745
22230W        W86163  27.668   2.357  11.942
22231W        W86164   4.426  32.135   0.348
22232W        W86165  18.075  28.573   0.838
22233W        W86166   4.907   9.645  10.542
22234W        W86167   6.378   8.727  12.823
22235W        W86168  17.614  20.237   1.362
22236W        W86169  43.336  38.892   5.109
22237W        W86170  41.402  39.929   0.966
22238W        W86171  15.172   7.263  14.341
22239W        W86172  42.519  31.476   1.316
22240W        W86173  14.218  29.459   3.805
22241W        W86174  20.157   3.446  14.488
22242W        W86175  44.999  28.602   4.608
22243W        W86176   1.303  20.737   4.742
22244W        W86177  33.001  20.634  13.347
22245W        W86178   1.407  44.474   1.759
22246W        W86179  10.659  23.545  12.872
22247W        W86180  17.186  19.658  10.546
22248W        W86181  40.020   7.903  11.586
22249W        W86182  28.539   2.856  14.274
22250W        W86183  13.188   7.284  14.299
22251W        W86184   0.302  43.312  10.579
22252W        W86185  24.060  44.295   0.448
22253W        W86186  26.204  31.605   1.818
22254W        W86187   9.888  43.348  14.032
22255W        W86188  40.349  14.132  14.363
22256W        W86189  13.751  31.510  14.992
22257W        W86190  17.789   6.194  11.449
22258W        W86191   1.977  13.239  12.839
22259W        W86192  10.167   7.299  12.548
22260W        W86193   5.822  42.379  14.401
22261W        W86194  17.627  23.040   1.424
22262W        W86195  13.627  11.642  14.759
22263W        W86196  26.144   2.322  12.452
22264W        W86197  37.558  35.883   1.909
22265W        W86198   1.928  14.698   3.697
22266W        W86199  27.949  26.493  11.057
22267W        W86200  19.776  43.401   1.398
22268W        W86201  22.663  37.939   2.758
22269W        W86202  33.009   8.769  14.799
22270W        W86203  13.754  39.384  11.529
22271W        W86204  14.708  29.524   3.791
22272W        W86205  29.635  40.846  13.861
22273W        W86206  31.073   8.334  12.473
22274W        W86207  27.502  43.938   1.801
22275W        W86208  14.677  38.885  10.557
22276W        W86209  30.112  39.990   0.877
22277W        W86210  31.934   0.831   1.828
22278W        W86211  42.467   5.752   3.859
22279W        W86212  23.163  30.444  11.416
22280W        W86213  16.208   0.980  14.325
22281W        W86214   1.903  34.007   2.833
22282W        W86215  12.700  38.327  10.483
22283W        W86216   5.247  18.699   3.257
22284W        W86217   0.904  10.309   2.729
22285W        W86218  43.915  42.922  12.548
22286W        W86219  25.657  40.367  12.439
22287W        W86220  12.647  31.595  13.535
22288W        W86221  36.042  17.063   0.405
22289W        W86222   1.750  29.951   0.931
22290W        W86223  38.355  12.302  11.492
22291W        W86224  18.749  22.024   1.904
22292W        W86225   4.800  31.947   4.166
22293W        W86226   1.807  18.709   1.376
22294W        W86227   3.756  22.562  13.352
22295W        W86228  33.964  39.975  13.367
22296W        W86229   5.688  34.997   2.735
22297W        W86230  31.493  43.859  13.862
22298W        W86231   7.832  20.260  13.986
22299W        W86232   0.403  12.758  14.800
22300W        W86233   9.293  21.194   1.220
22301W        W86234  24.130  37.074   4.160
22302W        W86235  32.550  25.518  14.458
22303W        W86236  30.099   8.813  13.515
22304W        W86237  20.122  12.362   0.289
22305W        W86238  26.599   1.294  12.071
22306W        W86239  20.230   6.920   2.243
22307W        W86240  43.882  16.670  13.355
22308W        W86241   8.769  10.845  13.978
22309W        W86242  30.456  38.043   4.609
22310W        W86243  41.898   3.261  10.890
22311W        W86244  37.339   5.335   2.766
22312W        W86245  20.260  37.459  11.589
22313W        W86246  18.588  18.718  14.872
22314W        W86247  25.108  43.956   3.283
22315W        W86248  39.888  30.988  13.335
22316W        W86249   5.372  39.036  11.020
22317W        W86250  35.535   2.243   1.914
22318W        W86251  21.030  40.458   3.786
22319W        W86252  44.799  37.840   5.698
22320W        W86253   1.858   9.286   4.769
22321W        W86254   4.729   2.809  11.930
22322W        W86255  12.199  15.111  10.963
22323W        W86256   0.797  26.145   3.294
22324W        W86257  15.086  25.168   3.747
22325W        W86258   3.739  16.227   1.236
22326W        W86259   2.882  12.777   4.147
22327W        W86260  29.589  32.021   2.872
22328W        W86261   1.461  23.231  11.602
22329W        W86262  14.097  41.307  11.999
22330W        W86263  34.595   5.741   1.386
22331W        W86264  42.851  41.908   0.327
22332W        W86265  33.515  41.385  11.574
22333W        W86266   8.890  24.547  14.032
22334W        W86267  29.989  11.305  13.943
22335W        W86268  36.051  43.430   1.438
22336W        W86269  42.819  10.638   4.694
22337W        W86270  26.135  44.865  14.880
22338W        W86271  34.048  27.133  14.279
22339W        W86272  24.159   7.892  12.416
22340W        W86273  19.106  24.669  14.982
22341W        W86274  26.579  11.174   5.568
22342W        W86275  10.838  33.413  10.919
22343W        W86276   7.217  27.964   3.678
22344W        W86277  12.172  36.988  11.421
22345W        W86278   7.725  41.816  12.575
22346W        W86279  26.099  22.163   4.281
22347W        W86280  30.490  17.746   1.808
22348W        W86281   6.904  23.606  12.984
22349W        W86282   6.335  43.311  13.525
22350W        W86283   0.853  39.415  13.446
22351W        W86284  44.453  41.335   1.335
22352W        W86285   0.398  20.766   3.219
22353W        W86286  31.014  14.646  14.386
22354W        W86287  34.558  26.141   2.398
22355W        W86288   6.271  44.374   1.338
22356W        W86289  14.096  38.510   4.346
22357W        W86290  15.773  17.636  12.460
22358W        W86291   8.160   0.493   2.793
22359W        W86292  35.882  37.906  14.849
22360W        W86293  44.899  39.399  14.983
22361W        W86294  18.564  34.075   2.809
22362W        W86295  21.547   0.845   3.674
22363W        W86296  39.849  21.732  12.444
22364W        W86297  37.871   7.300  10.503
22365W        W86298   8.401   2.777  10.549
22366W        W86299   8.247  41.393  10.642
22367W        W86300  25.121  19.568   4.742
22368W        W86301  13.323  10.759   4.611
22369W        W86302  25.643  26.660   0.855
22370W        W86303  23.515   6.369  12.521
22371W        W86304  17.753  15.679   2.871
22372W        W86305  22.691  29.461  12.906
22373W        W86306  24.040  16.668   1.722
22374W        W86307   7.811  40.980  10.962
22375W        W86308   0.299  37.504  14.841
22376W        W86309  27.182  22.562   3.273
22377W        W86310  38.062  12.359   0.824
22378W        W86311  36.464  37.421   4.627
22379W        W86312  35.090  33.039  14.494
22380W        W86313  44.943  16.692  13.825
22381W        W86314  32.444  19.737  13.406
22382W        W86315  18.673   6.810   4.188
22383W        W86316   2.793  44.493  10.905
22384W        W86317   3.915  40.912   4.210
22385W        W86318  13.174   8.384   9.988
22386W        W86319   8.214  28.163   0.783
22387W        W86320  10.341  15.620   2.726
22388W        W86321  24.095  27.069  10.544
22389W        W86322  27.524  44.296   2.844
22390W        W86323  14.225  21.097  14.026
22391W        W86324  19.284  18.607  14.822
22392W        W86325  29.119  39.551  14.943
22393W        W86326  32.565  20.129   4.125
22394W        W86327  15.788  11.358   1.838
22395W        W86328  15.623  13.196  11.592
22396W        W86329  27.539  34.962  14.812
22397W        W86330  27.146  12.686   1.796
22398W        W86331  25.979  31.905  10.978
22399W        W86332  22.738   5.716  12.855
22400W        W86333  22.241   6.415   4.726
22401W        W86334   0.346  30.009   2.264
22402W        W86335  44.472  33.079   0.879
22403W        W86336  29.646  30.433   1.416
22404W        W86337  43.957   5.394  14.404
22405W        W86338  21.733  28.476   2.873
22406W        W86339   7.362  15.710   2.750
22407W        W86340   9.212  39.359  11.076
22408W        W86341  32.550   5.395  14.382
22409W        W86342  34.545   0.967   0.963
22410W        W86343  26.594  12.234  12.513
22411W        W86344  16.176  10.329   5.086
22412W        W86345  25.003  39.005  13.399
22413W        W86346   4.717  33.998   3.865
22414W        W86347   9.358  37.028   1.788
22415W        W86348  11.174  28.622  11.966
22416W        W86349  38.992  42.934  10.057
22417W        W86350  20.148  37.841   4.722
22418W        W86351  14.787  24.033  11.997
22419W        W86352  38.918  18.788  11.860
22420W        W86353   1.317   1.297  10.975
22421W        W86354  11.354   0.287  11.020
22422W        W86355  41.504  31.104  13.046
22423W        W86356   8.214  33.397   3.762
22424W        W86357  31.412  35.927   3.370
22425W        W86358   0.421  40.024  14.778
22426W        W86359  33.906  21.044  11.411
22427W        W86360  20.702   2.356  14.026
22428W        W86361  22.598  22.644  14.876
22429W        W86362  10.290  26.670   4.239
22430W        W86363  34.926   9.819   2.838
22431W        W86364  26.583  18.654   3.738
22432W        W86365  40.380  38.872  10.596
22433W        W86366  27.943  19.589   2.393
22434W        W86367  37.581  38.889  14.805
22435W        W86368  19.044   0.819  10.437
22436W        W86369  18.127  43.849   2.339
22437W        W86370  25.995  14.807   1.804
22438W        W86371   7.741  40.384   0.727
22439W        W86372  18.265  26.998   2.366
22440W        W86373   2.384  12.258   5.152
22441W        W86374  27.685   8.843   3.214
22442W        W86375   3.933  11.162   9.563
22443W        W86376  31.948  34.500   1.253
22444W        W86377   0.341  43.515   2.367
22445W        W86378  41.391   9.786   4.757
22446W        W86379   3.247   4.924   5.265
22447W        W86380   0.986  27.077  11.939
22448W        W86381   8.677  36.532  10.967
22449W        W86382   7.259  36.075  14.775
22450W        W86383  25.183  21.545  12.051
22451W        W86384   6.185  38.960   1.252
22452W        W86385  39.434  35.955  14.286
22453W        W86386  18.176  19.271   5.154
22454W        W86387  34.055  28.948   2.282
22455W        W86388  15.200  32.444   3.361
22456W        W86389  12.795  23.006   3.188
22457W        W86390  44.851  10.850   4.189
22458W        W86391  40.034  36.959  14.320
22459W        W86392  12.848  21.512   4.346
22460W        W86393   4.885  33.038  14.404
22461W        W86394  38.041  39.900  13.345
22462W        W86395   8.250  20.647   4.231
22463W        W86396  32.471   4.876  12.924
22464W        W86397  29.048  20.632   1.360
22465W        W86398  23.177  10.336  13.007
22466W        W86399  27.691  21.046   0.924
22467W        W86400  19.077   9.799  12.882
22468W        W86401  17.098  29.493   2.261
22469W        W86402  23.115  36.355   3.378
22470W        W86403  39.416   1.275  10.463
22471W        W86404  38.533  35.391   1.376
22472W        W86405  19.683  37.860  14.312
22473W        W86406  42.465   2.812  10.529
22474W        W86407  19.103   6.824  11.899
22475W        W86408   5.275  44.973   4.217
22476W        W86409  26.035   5.860  14.996
22477W        W86410  43.405  39.487   3.330
22478W        W86411  21.146  22.150   1.409
22479W        W86412  23.062  44.338  14.015
22480W        W86413   0.763  44.818  11.585
22481W        W86414  39.376  17.104   4.664
22482W        W86415  11.858  14.281  14.795
22483W        W86416   0.831  44.002   3.315
22484W        W86417  31.440  41.004  13.792
22485W        W86418  21.731  19.267  14.912
22486W        W86419  17.646   3.736  11.909
22487W        W86420   9.333   7.795   1.432
22488W        W86421  37.968   9.175   2.894
22489W        W86422  40.358   6.291   5.085
22490W        W86423  36.900  41.981  12.385
22491W        W86424  21.601  27.124  10.954
22492W        W86425  19.640  36.918   4.349
22493W        W86426  23.505  28.681   2.388
22494W        W86427  18.086  28.545   4.729
22495W        W86428   8.873  36.071  11.063
22496W        W86429  29.433   6.424  11.031
22497W        W86430  15.801  17.270   9.626
22498W        W86431  18.118  37.942  13.336
22499W        W86432  34.877  15.138  13.486
22500W        W86433  42.337  15.158   0.740
22501W        W86434  41.903  25.011  10.109
22502W        W86435  25.993  44.390  13.930
22503W        W86436  12.624   2.337  14.448
22504W        W86437  13.800  14.711   4.210
22505W        W86438  44.443  44.299  11.490
22506W        W86439  33.024   9.870   4.163
22507W        W86440  28.483   2.859  10.439
22508W        W86441  25.633   7.712   0.258
22509W        W86442  34.588  35.471  14.279
22510W        W86443   4.439  13.199   2.293
22511W        W86444  12.195   5.789  10.604
22512W        W86445  40.994  31.541  12.395
22513W        W86446  20.101  31.610  13.798
22514W        W86447  37.381  44.277  13.450
22515W        W86448   3.803  21.141   0.356
22516W        W86449  38.531  36.460  14.393
22517W        W86450   1.736  13.299   3.741
22518W        W86451  22.092  10.287   1.804
22519W        W86452   4.761   5.230  10.027
22520W        W86453   4.893  35.023   4.299
22521W        W86454  41.326  36.481   0.275
22522W        W86455  30.052  15.248   0.462
22523W        W86456  20.166   3.445   3.763
22524W        W86457  35.043  44.315   2.354
22525W        W86458  22.121  32.530  10.411
22526W        W86459  33.564  26.093  13.951
22527W        W86460  18.615  30.096   3.236
22528W        W86461  18.103  16.624  13.928
22529W        W86462  37.425   3.238  10.061
22530W        W86463  23.526  12.350   1.412
22531W        W86464  36.537  32.614  12.013
22532W        W86465  44.452   7.198   2.271
22533W        W86466   3.711  38.342   3.824
22534W        W86467  40.445  14.134  13.874
22535W        W86468  18.103  38.022  13.819
22536W        W86469  27.523  20.721   4.141
22537W        W86470  26.973  39.011  10.959
22538W        W86471  27.997  36.870   3.727
22539W        W86472   8.189  27.093  14.316
22540W        W86473  44.320  33.574  13.494
22541W        W86474  43.307   0.286  12.368
22542W        W86475  27.664  38.528  10.630
22543W        W86476  35.897  20.155  14.810
22544W        W86477  18.121  24.590  14.402
22545W        W86478  17.681  24.040   1.418
22546W        W86479  27.125  33.459   1.226
22547W        W86480   3.303  30.616   1.801
22548W        W86481  27.602  13.256  12.825
22549W        W86482  21.661  27.624  13.814
22550W        W86483  19.078   9.746  14.446
22551W        W86484  19.618  13.152   0.414
22552W        W86485  39.371  14.207  14.018
22553W        W86486  18.216   9.330  13.035
22554W        W86487  29.936  24.114  14.335
22555W        W86488  28.939   6.258   2.808
22556W        W86489   8.899  24.683   1.274
22557W        W86490  34.596   5.811   4.674
22558W        W86491  18.253  35.062   2.324
22559W        W86492   6.229   7.401   2.889
22560W        W86493  12.770  43.824  13.032
22561W        W86494  20.187  29.063   2.215
22562W        W86495   1.345  15.199   2.848
22563W        W86496  25.601  18.558  13.995
22564W        W86497  16.735  42.384  13.869
22565W        W86498   2.349  41.298   4.230
22566W        W86499  42.451   2.855   0.416
22567W        W86500  16.802  19.202   1.743
22568W        W86501  25.044  14.726   4.720
22569W        W86502  35.362   3.934  10.510
22570W        W86503  20.531  28.104  10.039
22571W        W86504   9.658  30.417   4.628
22572W        W86505  33.588  29.028   9.959
22573W        W86506  31.545   3.778   3.748
22574W        W86507  29.589  30.929  13.987
22575W        W86508  31.146  18.200  11.611
22576W        W86509  15.710   0.341  10.054
22577W        W86510  40.398  36.892   3.282
22578W        W86511  28.065  11.698  12.437
22579W        W86512  28.555  13.761  14.337
22580W        W86513  20.271   2.245  14.849
22581W        W86514  39.468  40.419  12.073
22582W        W86515  22.678  18.737  14.763
22583W        W86516  13.172  21.168   1.215
22584W        W86517  30.045  44.945  13.472
22585W        W86518  12.195   9.229  14.029
22586W        W86519  44.282   6.751   2.803
22587W        W86520  29.941  35.936  12.930
22588W        W86521  20.543  19.726   2.355
22589W        W86522  17.276  20.171   1.350
22590W        W86523  29.577  24.998   5.226
22591W        W86524  21.747  14.817  14.929
22592W        W86525  42.912  20.262  14.977
22593W        W86526  31.463  40.318  11.974
22594W        W86527   7.800   9.263   2.355
22595W        W86528  25.088  15.751  10.990
22596W        W86529  24.519  32.615   4.240
22597W        W86530  22.009  29.665   3.666
22598W        W86531  22.245  42.783   0.303
22599W        W86532  39.403  26.082   1.218
22600W        W86533  44.283  19.571  10.034
22601W        W86534  30.134  18.560  14.918
22602W        W86535  21.586  42.373  14.492
22603W        W86536  12.345   4.288   0.304
22604W        W86537  33.460  12.242   3.369
22605W        W86538  18.713  15.764  11.099
22606W        W86539  20.246   0.866   4.756
22607W        W86540  25.159  41.434  12.089
22608W        W86541  36.527   2.804  12.939
22609W        W86542  17.676   6.880  10.515
22610W        W86543   5.769  22.568   1.229
22611W        W86544   4.756  10.337  14.822
22612W        W86545  39.877  21.203  12.418
22613W        W86546  39.406   4.221   4.151
22614W        W86547  38.008  33.129   3.783
22615W        W86548   9.679   9.218   4.685
22616W        W86549  35.362   8.259   4.694
22617W        W86550  24.613  33.100   1.721
22618W        W86551  19.569   0.351  10.927
22619W        W86552  40.866  37.877  13.421
22620W        W86553  40.804  22.678   2.251
22621W        W86554  31.409  34.529   1.765
22622W        W86555   4.913  39.999   9.928
22623W        W86556   6.189  42.804   1.863
22624W        W86557   0.356  15.799  10.572
22625W        W86558  41.023  19.700   4.295
22626W        W86559  32.533   8.365  11.520
22627W        W86560  42.315   7.322   0.929
22628W        W86561  34.878  43.465  13.520
22629W        W86562   1.902  10.214   0.806
22630W        W86563  28.945   4.415   1.761
22631W        W86564  16.717  30.094   0.401
22632W        W86565   1.451   9.296   3.858
22633W        W86566   3.898  40.319   1.764
22634W        W86567   6.407  37.989   3.232
22635W        W86568   7.667  31.633   3.357
22636W        W86569   7.832  11.211  13.048
22637W        W86570  17.768  24.608  11.437
22638W        W86571  30.425   7.380  11.007
22639W        W86572   5.329  30.111  10.961
22640W        W86573  16.604  39.435   2.304
22641W        W86574  23.672  37.061   1.393
22642W        W86575  42.296  29.507   3.358
22643W        W86576  14.295  13.213   1.855
22644W        W86577  15.822   6.408  11.077
22645W        W86578   2.875  21.134   4.125
22646W        W86579  17.604  22.598  12.960
22647W        W86580   7.371  27.054   2.838
22648W        W86581  33.935  33.478  10.530
22649W        W86582  15.098  31.980  11.448
22650W        W86583  10.738  29.605  14.316
22651W        W86584   6.326  21.681   2.264
22652W        W86585  15.204  12.765   3.381
22653W        W86586  15.735  11.831  14.797
22654W        W86587  21.710   6.265   4.323
22655W        W86588  18.755  42.957  10.156
22656W        W86589  42.858   8.682  10.611
22657W        W86590  34.966  18.703   1.695
22658W        W86591  10.281  14.221   2.319
22659W        W86592  22.698  20.708   3.348
22660W        W86593  43.773   2.383   1.908
22661W        W86594  16.756  18.219  12.915
22662W        W86595  35.879   0.471  13.834
22663W        W86596  26.064  19.733  13.909
22664W        W86597  29.572  11.634   1.214
22665W        W86598  23.614   3.804   4.634
22666W        W86599  17.758  22.628   1.403
22667W        W86600  37.401  38.520   0.860
22668W        W86601  12.238  34.590   0.278
22669W        W86602   6.350   8.659  10.094
22670W        W86603  17.285  27.179   4.127
22671W        W86604  19.148  22.118   3.846
22672W        W86605  32.605  37.566   4.608
22673W        W86606   6.781  26.055  10.985
22674W        W86607  18.695  33.921  11.537
22675W        W86608   3.819   0.388   4.708
22676W        W86609  37.582  10.678  14.345
22677W        W86610  27.619  22.724  10.900
22678W        W86611   9.714  28.064   2.821
22679W        W86612  23.688  34.614  14.027
22680W        W86613  19.064  40.037   3.215
22681W        W86614  25.611  27.078   4.259
22682W        W86615  18.064  27.028   4.170
22683W        W86616  24.166  30.626  13.540
22684W        W86617  36.969  19.262  12.445
22685W        W86618  44.958  38.397   3.223
22686W        W86619  22.701   4.877  14.830
22687W        W86620   8.665  13.821  12.514
22688W        W86621  34.427  16.270  13.857
22689W        W86622   5.373  25.628   4.213
22690W        W86623  34.499  32.512  10.645
22691W        W86624  21.111  26.002   3.303
22692W        W86625  23.683  18.630  13.372
22693W        W86626  32.059  15.330   4.276
22694W        W86627   4.759  16.748   0.743
22695W        W86628  11.648  35.034   5.309
22696W        W86629  17.278  41.819  14.016
22697W        W86630  40.899   6.201   3.848
22698W        W86631   0.833   7.357  12.929
22699W        W86632   5.929  26.602  10.471
22700W        W86633  40.830  20.056   1.382
22701W        W86634  16.796  26.963   5.314
22702W        W86635  26.025  44.306  14.899
22703W        W86636  32.977   9.349  10.441
22704W        W86637   8.768   5.412  12.563
22705W        W86638  21.082   0.311  11.524
22706W        W86639  39.399  23.695  12.533
22707W        W86640   3.775  39.376  14.326
22708W        W86641  20.644  40.428  11.127
22709W        W86642  15.170  42.032   3.267
22710W        W86643  11.287  15.160   1.243
22711W        W86644  12.787  17.622   2.314
22712W        W86645  40.808  30.537  13.519
22713W        W86646  41.800  18.206   0.315
22714W        W86647  18.247   7.842   0.473
22715W        W86648  42.499  25.645  13.902
22716W        W86649  24.694  44.409   1.784
22717W        W86650  23.991  23.184  14.468
22718W        W86651  44.991  25.476   2.692
22719W        W86652   3.397  40.854   0.269
22720W        W86653   3.409  44.292  13.344
22721W        W86654  40.852  27.517  13.837
22722W        W86655  28.524   0.421   0.938
22723W        W86656   0.950  11.255   3.304
22724W        W86657  38.041   1.793   5.247
22725W        W86658  33.127   2.382  12.882
22726W        W86659  13.152  24.620   2.333
22727W        W86660  25.615   8.801  11.540
22728W        W86661  35.486  27.079  11.487
22729W        W86662  25.540  22.651  13.434
22730W        W86663  27.515   1.402  10.964
22731W        W86664  41.363   2.354   3.330
22732W        W86665  39.829  14.697  11.979
22733W        W86666  26.046   3.431   1.764
22734W        W86667  19.173  41.444   1.816
22735W        W86668  29.488  16.251  13.434
22736W        W86669  19.626  15.130   5.175
22737W        W86670  24.064  36.890   1.420
22738W        W86671  10.182  32.899   4.825
22739W        W86672  13.161  23.110  11.562
22740W        W86673  22.032  28.491  12.823
22741W        W86674  25.105   0.492  13.819
22742W        W86675  19.159   0.266   1.295
22743W        W86676  39.044  32.534  10.503
22744W        W86677   5.747  21.556  14.962
22745W        W86678  41.527  18.143  13.459
22746W        W86679  27.056  27.624  11.580
22747W        W86680  17.149  18.130  14.821
22748W        W86681  40.485  14.324   1.694
22749W        W86682   6.759  20.719  14.782
22750W        W86683  17.705  14.308   3.649
22751W        W86684   6.776  40.478   4.696
22752W        W86685  32.458   9.198   2.386
22753W        W86686  40.430  19.629  11.966
22754W        W86687  25.652  22.167  14.901
22755W        W86688  28.033  41.509   0.955
22756W        W86689  34.510  10.254   3.376
22757W        W86690   3.307  29.149   1.256
22758W        W86691  34.993  30.119  11.439
22759W        W86692  11.788  28.522   3.832
22760W        W86693  34.968  19.086  13.546
22761W        W86694  24.130  36.465   3.866
22762W        W86695  39.394  43.795  14.863
22763W        W86696  35.547   5.266   1.369
22764W        W86697  13.201   0.955  14.948
22765W        W86698  43.365  14.295   1.235
22766W        W86699  16.601  16.081   1.791
22767W        W86700  27.994  31.527   2.338
22768W        W86701  31.629  36.023  14.298
22769W        W86702  44.979   5.889  10.439
22770W        W86703  37.839  26.121  13.793
22771W        W86704  17.182  28.491   0.419
22772W        W86705  43.489  42.902  13.002
22773W        W86706  19.649  18.692  14.494
22774W        W86707  24.130  17.570  14.302
22775W        W86708   7.764  19.157   0.748
22776W        W86709  43.368  31.990   3.798
22777W        W86710   5.377  12.172  13.984
22778W        W86711  32.969   8.771   4.305
22779W        W86712  11.356  10.823   0.785
22780W        W86713   3.285  28.075   0.278
22781W        W86714  25.196  41.320  14.921
22782W        W86715  40.536  28.074   4.786
22783W        W86716   1.268   4.942   1.322
22784W        W86717   3.317  20.113   4.771
22785W        W86718   8.189  21.721   1.432
22786W        W86719  29.002  44.912   1.781
22787W        W86720   9.301  12.666  11.991
22788W        W86721  37.859  18.636   4.657
22789W        W86722  24.674  10.263   0.964
22790W        W86723  22.162   5.867   1.281
22791W        W86724  13.132   2.401   1.377
22792W        W86725  43.280   2.886   0.905
22793W        W86726  28.008  27.674   2.213
22794W        W86727  15.594   5.339   4.784
22795W        W86728  13.816  23.167   4.836
22796W        W86729   5.892   6.873   9.658
22797W        W86730   6.323  27.659   3.710
22798W        W86731   3.732  35.494   1.819
22799W        W86732  14.696  27.980   1.278
22800W        W86733  35.074  12.630   2.902
22801W        W86734  20.569   9.349   1.716
22802W        W86735  26.656  33.424  13.403
22803W        W86736  10.370  21.636  10.577
22804W        W86737  38.973  14.604  12.038
22805W        W86738  15.239  41.909  10.953
22806W        W86739   3.728  20.756  12.991
22807W        W86740  43.776   9.263   0.242
22808W        W86741   7.178  17.173  13.938
22809W        W86742   2.730  41.379   4.758
22810W        W86743  10.374  25.983   2.228
22811W        W86744  29.092   6.245  10.639
22812W        W86745  24.025   1.970   0.843
22813W        W86746  29.002  35.069  12.398
22814W        W86747  31.123  19.081  12.379
22815W        W86748  31.559  35.451  10.527
22816W        W86749  29.642  15.302  12.087
22817W        W86750  31.508  30.481   2.796
22818W        W86751   8.740  34.570  14.937
22819W        W86752   0.853  28.443   1.900
22820W        W86753  12.726  10.675  11.393
22821W        W86754  14.810   7.808   0.297
22822W        W86755  13.256  33.520   1.857
22823W        W86756  33.904  40.931   3.819
22824W        W86757  31.628  18.621  12.563
22825W        W86758  30.471  19.194   3.256
22826W        W86759   6.322  43.978   4.639
22827W        W86760  43.491   8.364  14.379
22828W        W86761  13.185  12.314  13.926
22829W        W86762   3.743  31.579   2.824
22830W        W86763  39.023   2.762   4.787
22831W        W86764  41.419  37.343   0.333
22832W        W86765  14.202  33.879   4.769
22833W        W86766  39.540  23.517   1.421
22834W        W86767  12.181   0.772  10.463
22835W        W86768  13.340  16.224  13.957
22836W        W86769  33.569  39.020   0.850
22837W        W86770   4.897  19.267   4.257
22838W        W86771  11.656  22.580   1.852
22839W        W86772   1.857  20.031   3.723
22840W        W86773  29.569  33.062  14.373
22841W        W86774  24.515  22.704   3.243
22842W        W86775   6.392  39.866  12.354
22843W        W86776  43.796  20.157   1.876
22844W        W86777  32.469  20.130  13.944
22845W        W86778  44.994   1.253  14.503
22846W        W86779  17.567  24.140  12.991
22847W        W86780  33.438  13.171  13.517
22848W        W86781  21.241  19.167  14.018
22849W        W86782   4.220  16.754   3.307
22850W        W86783   6.256   2.907   5.753
22851W        W86784  43.289  11.163   1.333
22852W        W86785  17.711  23.680  13.429
22853W        W86786  18.640   9.786  11.100
22854W        W86787  30.536   3.417   4.212
22855W        W86788  23.176  22.627  14.789
22856W        W86789   9.820   0.401  14.985
22857W        W86790  35.496   0.283  11.047
22858W        W86791  10.161  39.844  12.973
22859W        W86792  22.691  39.041  11.929
22860W        W86793   3.896  23.078  13.453
22861W        W86794  14.254  42.879   1.306
22862W        W86795  24.561  19.118  11.044
22863W        W86796  41.432   9.658   1.808
22864W        W86797  36.087  32.619  10.519
22865W        W86798  40.549  18.117  13.895
22866W        W86799   4.349  35.012   0.280
22867W        W86800  22.042   2.928   2.771
22868W        W86801  10.699  31.635   0.382
22869W        W86802   4.423  41.435   3.280
22870W        W86803   5.910  43.438   2.809
22871W        W86804  22.717  21.520   0.880
22872W        W86805  28.569  36.056  13.450
22873W        W86806  27.126  37.340   9.970
22874W        W86807  10.666  39.931   1.798
22875W        W86808  44.339  14.734  10.480
22876W        W86809   4.791  15.737  13.515
22877W        W86810  38.481  22.699   4.664
22878W        W86811  31.099  15.768   3.176
22879W        W86812  29.488  36.861   4.750
22880W        W86813  44.303  33.891   3.181
22881W        W86814  27.651  17.208   2.378
22882W        W86815  28.955  19.767  13.417
22883W        W86816  17.691  41.496  10.931
22884W        W86817  12.812   4.714  11.075
22885W        W86818  28.640  33.070   2.244
22886W        W86819  41.929   4.292  11.064
22887W        W86820   1.424  33.528  10.626
22888W        W86821  25.561  22.209  13.023
22889W        W86822  12.678  11.279   4.804
22890W        W86823   6.778  31.477   3.751
22891W        W86824  10.369  15.805   4.704
22892W        W86825  23.119  11.804   0.316
22893W        W86826  24.052  42.976  14.898
22894W        W86827  38.843  38.985  11.002
22895W        W86828  23.565  12.756   0.728
22896W        W86829   6.906  18.226  11.409
22897W        W86830  41.031  13.752  10.893
22898W        W86831  26.474  41.397   3.269
22899W        W86832  17.264  25.619   2.285
22900W        W86833  36.006  42.961  13.368
22901W        W86834  33.380  44.924  11.044
22902W        W86835  34.542  37.901  11.991
22903W        W86836  21.061  13.240   2.785
22904W        W86837  32.535   4.909   2.236
22905W        W86838   0.248  17.209  11.563
22906W        W86839  35.485  26.110   1.390
22907W        W86840  32.447  30.625   1.247
22908W        W86841  13.255  28.650  11.380
22909W        W86842   3.253   6.223   4.270
22910W        W86843  25.660  25.609  11.017
22911W        W86844  35.071   8.341   4.830
22912W        W86845  37.490  39.456   0.307
22913W        W86846   1.283  28.956   2.891
22914W        W86847  26.010  18.713   2.326
22915W        W86848  25.517   1.470  12.970
22916W        W86849  14.719  20.177   3.659
22917W        W86850  17.595  34.917  11.597
22918W        W86851  44.301  41.844  13.525
22919W        W86852  14.280  37.935   4.204
22920W        W86853  42.778  14.653  10.518
22921W        W86854  37.418  38.443   2.406
22922W        W86855  17.608  40.376   1.261
22923W        W86856  33.943   5.925  13.359
22924W        W86857  19.685   0.891  12.465
22925W        W86858  40.834  31.570   4.300
22926W        W86859  12.825  20.617  13.020
22927W        W86860  14.155   0.405  10.463
22928W        W86861  34.480   4.945  12.914
22929W        W86862  29.004  25.139  14.977
22930W        W86863  30.003  35.402  14.502
22931W        W86864  19.624  14.158   3.711
22932W        W86865  43.924  36.050   2.825
22933W        W86866  12.130  40.836  13.995
22934W        W86867  33.069   6.257  10.634
22935W        W86868  21.564  43.390   4.210
22936W        W86869  19.105  39.533   9.949
22937W        W86870  33.090  32.517   4.833
22938W        W86871   7.863   3.865   0.952
22939W        W86872  35.878   7.731  10.992
22940W        W86873  10.316  28.939   1.439
22941W        W86874  13.664  18.770  14.502
22942W        W86875  32.890   3.895  10.566
22943W        W86876  18.102  21.060  11.999
22944W        W86877  23.500   1.378   3.724
22945W        W86878  38.514  27.521  13.978
22946W        W86879  16.690   6.258   4.206
22947W        W86880  13.111  13.649   1.891
22948W        W86881  13.756  19.202  14.495
22949W        W86882  15.597  28.548   4.199
22950W        W86883  35.478   9.208   1.372
22951W        W86884   4.408  23.121   1.387
22952W        W86885  36.416  15.300  10.945
22953W        W86886  32.887   9.377   1.302
22954W        W86887  26.205  31.102  14.791
22955W        W86888  15.206  42.425  14.295
22956W        W86889   7.294  36.540  12.989
22957W        W86890   6.908   6.923  13.404
22958W        W86891   8.759  12.318   2.834
22959W        W86892  14.806  36.027  11.513
22960W        W86893  10.753  43.318  12.572
22961W        W86894  38.377  13.650   1.422
22962W        W86895  24.664  31.130   1.404
22963W        W86896  42.389  24.069  11.971
22964W        W86897  13.780  16.679   2.178
22965W        W86898  24.608  40.954  13.528
22966W        W86899  44.933  29.542  12.502
22967W        W86900  15.690  29.081   3.147
22968W        W86901  18.609  34.933   0.398
22969W        W86902   5.852  21.099   1.702
22970W        W86903  10.753  22.623  14.516
22971W        W86904  39.388  28.058  11.593
22972W        W86905  25.188  37.062   1.788
22973W        W86906  34.447  11.159   2.235
22974W        W86907  20.745  44.948   3.186
22975W        W86908   6.187   4.221   4.242
22976W        W86909   8.186  19.149   1.359
22977W        W86910  18.627  30.509   1.704
22978W        W86911  30.025  35.060   2.785
22979W        W86912  10.288  42.007  14.447
22980W        W86913  16.170  14.096  13.392
22981W        W86914   7.905  16.259   4.832
22982W        W86915  44.947   9.762   2.854
22983W        W86916  23.648  20.631   0.340
22984W        W86917  27.175  21.239  10.465
22985W        W86918  29.023  20.571   3.327
22986W        W86919   0.371  22.527   4.724
22987W        W86920  43.348  33.603  11.420
22988W        W86921  28.653   1.374   3.162
22989W        W86922  32.601  31.500  11.435
22990W        W86923  44.307  17.655   0.431
22991W        W86924  23.642  42.894  12.990
22992W        W86925  36.362  28.562   4.276
22993W        W86926  41.925   8.789  11.946
22994W        W86927  21.085  26.669  13.002
22995W        W86928  20.269  37.341   1.801
22996W        W86929  21.179  14.626   0.917
22997W        W86930   6.888   7.853   4.620
22998W        W86931  44.452  17.675  11.463
22999W        W86932  15.140  25.578   2.186
23000W        W86933   3.791  30.549  11.996
23001W        W86934   1.479  36.081   2.692
23002W        W86935   1.242   5.312   3.147
23003W        W86936   2.835  31.614   4.243
23004W        W86937  30.422  13.248  12.553
23005W        W86938   0.389  34.072  13.856
23006W        W86939  18.586  18.064  14.446
23007W        W86940  16.782  40.519   3.149
23008W        W86941  23.719   6.302   3.762
23009W        W86942  30.421  33.092  12.913
23010W        W86943  43.420   2.256  11.888
23011W        W86944   4.785  37.475  12.378
23012W        W86945  19.139  14.300   3.792
23013W        W86946  37.834  31.972   0.877
23014W        W86947  23.632   3.745   1.907
23015W        W86948  31.906  39.047  13.350
23016W        W86949  36.448   4.918  10.446
23017W        W86950  34.382   0.289  12.071
23018W        W86951  43.426   5.317  10.432
23019W        W86952  26.549  30.938   0.797
23020W        W86953  37.357  18.593   3.197
23021W        W86954  42.921   4.912   3.351
23022W        W86955   6.748   8.402   0.440
23023W        W86956  33.993  28.091  10.109
23024W        W86957  43.840  42.442   4.330
23025W        W86958   8.374  42.011  12.462
23026W        W86959  35.031   1.337   0.905
23027W        W86960   6.216   1.978   4.334
23028W        W86961  12.240  19.668  12.409
23029W        W86962   2.853  35.428  11.557
23030W        W86963   3.759  36.408  10.580
23031W        W86964  18.639  16.806   2.400
23032W        W86965   9.336  37.906   4.278
23033W        W86966  36.533   7.252   2.812
23034W        W86967  37.000  19.089  13.032
23035W        W86968  33.924   1.293  10.609
23036W        W86969  20.684  18.220   0.359
23037W        W86970  33.582  22.550   0.372
23038W        W86971  18.198  13.315   3.350
23039W        W86972  32.971  19.599  11.985
23040W        W86973  42.937  25.976   1.870
23041W        W86974  23.006  23.722   3.265
23042W        W86975  13.630  31.044   0.772
23043W        W86976  37.956  32.421   2.304
23044W        W86977   4.423  24.547  14.852
23045W        W86978  32.950  27.138   1.437
23046W        W86979   1.754  39.944  13.992
23047W        W86980  17.781   6.824   4.706
23048W        W86981  21.037   8.789  10.910
23049W        W86982  25.632  35.552  11.035
23050W        W86983   7.410   8.350  14.366
23051W        W86984   4.932  11.686   5.144
23052W        W86985  33.115   3.778  13.329
23053W        W86986  22.224  27.617  13.860
23054W        W86987  44.291  25.212  12.033
23055W        W86988  14.713  12.191  13.862
23056W        W86989  10.691  23.195  13.024
23057W        W86990  18.261  29.925   2.284
23058W        W86991   9.768  31.962  11.049
23059W        W86992  17.117  24.666  14.844
23060W        W86993  20.187  12.247   2.225
23061W        W86994  11.231   7.687  12.063
23062W        W86995  44.978  15.797   3.285
23063W        W86996  23.684  13.306  13.410
23064W        W86997  26.140  16.189   0.843
23065W        W86998   5.364  23.002  12.523
23066W        W86999   1.847  27.192  13.803
23067W        W87000   0.874  21.667   2.342
23068W        W87001  43.354  26.616   0.876
23069W        W87002  42.947  40.547   2.889
23070W        W87003  30.051  18.087   3.362
23071W        W87004   1.923   1.365  13.816
23072W        W87005   9.290  30.004  10.552
23073W        W87006  22.123  25.200  10.895
23074W        W87007  14.194  14.775   0.788
23075W        W87008  13.146  39.972  10.580
23076W        W87009  21.665  15.764  14.853
23077W        W87010  12.646  20.126  10.629
23078W        W87011   9.393  32.460   2.307
23079W        W87012  39.540   7.219   0.314
23080W        W87013   1.360  21.605  13.832
23081W        W87014  26.125  39.352  13.503
23082W        W87015   8.325  31.038  10.567
23083W        W87016  21.753   3.382  13.936
23084W        W87017  39.502  43.013  13.991
23085W        W87018   9.195  31.004   1.764
23086W        W87019  39.500  21.516   1.361
23087W        W87020   3.253  18.269   1.887
23088W        W87021  13.709  32.119  11.556
23089W        W87022  10.343  19.600  14.017
23090W        W87023  18.072  37.520   1.414
23091W        W87024  31.136  23.094   0.285
23092W        W87025  36.460   1.849  13.926
23093W        W87026   8.367  37.903   0.793
23094W        W87027  32.485  19.272   3.757
23095W        W87028   5.219  41.442  14.899
23096W        W87029  19.588  18.778   0.374
23097W        W87030   5.304  28.535   3.356
23098W        W87031   7.908  28.966   4.776
23099W        W87032   5.380  23.110   1.378
23100W        W87033  10.276  38.852  12.507
23101W        W87034  16.087  29.134   4.286
23102W        W87035  14.733  44.486   3.191
23103W        W87036  35.905  32.620  12.894
23104W        W87037  29.049  40.879   1.300
23105W        W87038  39.543   5.320  14.421
23106W        W87039  26.120  16.804   2.840
23107W        W87040  32.014  29.100  14.874
23108W        W87041  37.418   2.262  13.505
23109W        W87042  10.192  29.433   3.677
23110W        W87043  16.283   3.331  13.392
23111W        W87044   9.646  21.183   4.712
23112W        W87045   5.714  19.245  12.516
23113W        W87046  20.106   7.188   0.800
23114W        W87047  38.513  40.467  13.858
23115W        W87048  32.475   3.317   4.159
23116W        W87049  21.082  15.768   5.279
23117W        W87050   6.229  10.214   0.479
23118W        W87051  39.872  13.717   4.598
23119W        W87052  35.593  44.400  14.010
23120W        W87053  33.998  13.843  10.561
23121W        W87054  44.788  30.587   2.396
23122W        W87055  39.387  40.836   0.958
23123W        W87056  23.582  41.358  11.905
23124W        W87057  18.067   3.368   4.609
23125W        W87058  19.739   5.791   3.833
23126W        W87059   2.941  11.238   1.244
23127W        W87060   3.821  41.302  13.384
23128W        W87061  41.811   6.818  11.529
23129W        W87062  37.529  14.329   1.846
23130W        W87063  12.613  41.964   4.836
23131W        W87064   7.206   7.200   2.306
23132W        W87065  38.471  13.173   4.323
23133W        W87066  30.973   3.400  10.049
23134W        W87067  25.024   9.668  11.417
23135W        W87068   9.811   5.415   3.712
23136W        W87069   1.818  18.190  14.423
23137W        W87070  44.390  19.668  12.891
23138W        W87071  13.818  40.861   2.247
23139W        W87072  20.259  13.218   1.852
23140W        W87073   5.212  17.204  12.422
23141W        W87074  10.694   1.327   0.345
23142W        W87075   7.308  14.301   4.787
23143W        W87076  38.448  26.087  13.419
23144W        W87077  30.553  24.721  10.592
23145W        W87078  24.046  39.811  12.091
23146W        W87079   1.416  10.758   3.738
23147W        W87080   4.205   5.285  11.603
23148W        W87081  18.688  31.493  13.396
23149W        W87082  37.458  17.136  10.433
23150W        W87083  36.942  36.961  12.527
23151W        W87084  36.571  10.776   1.835
23152W        W87085  30.090   7.808   3.291
23153W        W87086  12.183  34.022   3.727
23154W        W87087  22.025  32.533   3.761
23155W        W87088   1.885  23.704  10.959
23156W        W87089  40.313  33.056  12.833
23157W        W87090  11.700  44.896   3.655
23158W        W87091   7.906  25.179   2.873
23159W        W87092   5.730  42.316   2.271
23160W        W87093  32.886   1.838  13.832
23161W        W87094  18.623  16.297  13.365
23162W        W87095  29.471  12.231   1.356
23163W        W87096  40.360  44.331  10.606
23164W        W87097   7.205   5.438   0.454
23165W        W87098  27.467  13.725   3.247
23166W        W87099  42.285  28.542  11.561
23167W        W87100  12.839  14.677   0.849
23168W        W87101  35.968  27.522   3.653
23169W        W87102  15.250  12.778  10.510
23170W        W87103  31.455  26.023   0.842
23171W        W87104  22.719  14.196   3.736
23172W        W87105  12.838  25.037  13.029
23173W        W87106  28.080  22.190   3.844
23174W        W87107  12.684  10.691  12.513
23175W        W87108  17.129   6.898   3.204
23176W        W87109  12.725  38.876  11.571
23177W        W87110  18.144  43.804   2.808
23178W        W87111  10.377  38.397  10.151
23179W        W87112   2.905  33.946  10.423
23180W        W87113   6.209  17.290  12.888
23181W        W87114  41.454   7.227   3.287
23182W        W87115   8.296  42.414  11.462
23183W        W87116  13.759  36.478  12.067
23184W        W87117   7.293  35.069   3.165
23185W        W87118  28.537  33.390   1.812
23186W        W87119  25.968  15.216   4.675
23187W        W87120  26.161  34.925   4.152
23188W        W87121  33.458  18.673  11.426
23189W        W87122   7.351  13.624  11.515
23190W        W87123  31.444  21.108  14.975
23191W        W87124  13.752  22.542  14.954
23192W        W87125  42.348  21.146   0.461
23193W        W87126   5.756  44.876  11.996
23194W        W87127  36.869   5.353  11.106
23195W        W87128   3.355  24.596   0.318
23196W        W87129  10.878  26.486   2.300
23197W        W87130  36.886  44.796  13.420
23198W        W87131   6.777  30.589  13.827
23199W        W87132   9.318  19.624  13.325
23200W        W87133   8.713  41.027  13.023
23201W        W87134  13.144   9.153  12.944
23202W        W87135  39.054  37.368  13.460
23203W        W87136  18.294  36.987   0.393
23204W        W87137  44.326  35.097   4.600
23205W        W87138  19.247  44.908  11.915
23206W        W87139   6.852  15.732  11.513
23207W        W87140   5.698   0.954   3.753
23208W        W87141  26.006  19.718   0.813
23209W        W87142   1.258  20.591  11.110
23210W        W87143  31.024   1.289   0.799
23211W        W87144  15.703  11.758  11.420
23212W        W87145   1.311  18.608  14.927
23213W        W87146  36.070  26.017   4.790
23214W        W87147  40.015  42.955  13.972
23215W        W87148   8.786   8.726   4.634
23216W        W87149  35.604  40.012   2.391
23217W        W87150  23.190  20.712  11.396
23218W        W87151  10.168  41.486  12.035
23219W        W87152  36.970  11.213  11.128
23220W        W87153  18.220   7.296  13.515
23221W        W87154  42.350  13.352  14.881
23222W        W87155  39.369  31.935   1.869
23223W        W87156   5.706   7.298  12.895
23224W        W87157   2.910  18.287   3.778
23225W        W87158  10.842  18.705  12.433
23226W        W87159   7.213  35.914   0.435
23227W        W87160  44.363  16.662   3.346
23228W        W87161  11.851  16.219  12.980
23229W        W87162  37.952  23.518  13.537
23230W        W87163  42.834  35.986   5.304
23231W        W87164   2.844   3.795   4.297
23232W        W87165  15.283  40.897   2.385
23233W        W87166  21.175  22.635  10.154
23234W        W87167   6.876  23.150  11.506
23235W        W87168  25.691  12.612  13.963
23236W        W87169   5.351   7.714  12.511
23237W        W87170  26.028  40.359  10.523
23238W        W87171  42.962   0.761   2.288
23239W        W87172  22.203  42.895  14.830
23240W        W87173  30.014  10.177   2.327
23241W        W87174   0.321  24.529   4.233
23242W        W87175   7.377  32.517  12.506
23243W        W87176  31.466  26.557  14.325
23244W        W87177  28.577  11.241   4.751
23245W        W87178  15.185  13.151   3.158
23246W        W87179   1.825   3.450  13.992
23247W        W87180  30.473  30.018  12.403
23248W        W87181  35.007  18.575  11.012
23249W        W87182   1.391  30.088   1.883
23250W        W87183  18.782  39.873  10.457
23251W        W87184  35.921   8.748  10.576
23252W        W87185  28.563  31.900  12.373
23253W        W87186  26.043  28.950  13.866
23254W        W87187  18.077  37.424   0.931
23255W        W87188   7.325  33.070   3.748
23256W        W87189  18.183  39.381  13.455
23257W        W87190   9.784   9.757   0.279
23258W        W87191  22.681   8.404  14.914
23259W        W87192   0.973  27.942  11.594
23260W        W87193  32.565  19.052   4.117
23261W        W87194   3.240  32.032  11.051
23262W        W87195  38.519  37.029  10.442
23263W        W87196  35.578  28.156   4.772
23264W        W87197  34.002  43.481  11.576
23265W        W87198  34.536  33.059  13.064
23266W        W87199  26.008   4.422  10.538
23267W        W87200   5.345  21.138  10.047
23268W        W87201  34.425   9.335   4.332
23269W        W87202   4.777  33.505  10.602
23270W        W87203  27.538  34.023  11.404
23271W        W87204  44.757  25.677  12.834
23272W        W87205  10.226  26.647  13.950
23273W        W87206  43.362  32.537   4.146
23274W        W87207   1.358  18.227   2.794
23275W        W87208  41.348   5.715  12.552
23276W        W87209   8.370   9.733  12.929
23277W        W87210  30.937  13.714  14.967
23278W        W87211   4.307  10.696   4.771
23279W        W87212  22.617   0.412   4.161
23280W        W87213  15.211  15.794  11.022
23281W        W87214  32.481  15.729   0.907
23282W        W87215  29.972   3.799  11.106
23283W        W87216  11.269   4.318  13.375
23284W        W87217   2.232   2.873  12.853
23285W        W87218  35.954   7.834   1.299
23286W        W87219  14.213  20.533  13.060
23287W        W87220  35.030  41.355  13.013
23288W        W87221  10.324   7.255   2.325
23289W        W87222  34.058   5.396   0.313
23290W        W87223   2.945  10.312   1.298
23291W        W87224  15.091  19.548  13.014
23292W        W87225  15.170  15.772  14.301
23293W        W87226  21.164  36.923  12.921
23294W        W87227  19.127  36.871  13.013
23295W        W87228  26.603  31.462  10.468
23296W        W87229  16.567  30.962   2.325
23297W        W87230   0.319  26.625   4.304
23298W        W87231  15.589   4.767   5.142
23299W        W87232  27.467  25.492   0.309
23300W        W87233  36.948   1.865  13.044
23301W        W87234  22.586  37.401  11.003
23302W        W87235  43.309  31.975   4.825
23303W        W87236  35.379   3.281   1.220
23304W        W87237  25.142  36.048   2.344
23305W        W87238  41.826  40.815  11.009
23306W        W87239  23.203   7.312   4.214
23307W        W87240   2.394  44.784  14.028
23308W        W87241  19.167  33.975  13.527
23309W        W87242  30.427   2.238   2.204
23310W        W87243  18.270  26.090  13.475
23311W        W87244  12.653  34.448   0.926
23312W        W87245  24.993  22.501  12.544
23313W        W87246  33.960   6.259   1.926
23314W        W87247  25.551   7.848  14.950
23315W        W87248  37.900  11.294   1.451
23316W        W87249  32.003  35.408   0.949
23317W        W87250  11.701  40.337  10.630
23318W        W87251  31.144  36.871   4.280
23319W        W87252  37.444   4.817   1.396
23320W        W87253   1.382  37.087   0.810
23321W        W87254  22.097  12.265   1.308
23322W        W87255  27.686  33.502   1.399
23323W        W87256  38.500  29.669  12.459
23324W        W87257   4.821  18.668   0.782
23325W        W87258  35.503  25.639  14.813
23326W        W87259  39.065  35.026   5.267
23327W        W87260  43.838  38.345   5.294
23328W        W87261  32.420  43.922   1.871
23329W        W87262  12.206  44.948   3.316
23330W        W87263  19.581  28.940  11.116
23331W        W87264  18.250  39.918  10.935
23332W        W87265  42.031   9.267   4.811
23333W        W87266  42.362  31.989   3.380
23334W        W87267   1.328  19.236   3.827
23335W        W87268  14.165  17.239   3.760
23336W        W87269  25.059  37.558  10.546
23337W        W87270  22.156  43.930   4.317
23338W        W87271  10.714  12.621  13.892
23339W        W87272  11.705  39.006  10.014
23340W        W87273  29.161  27.163   0.933
23341W        W87274  43.279  38.938   5.742
23342W        W87275   0.900  12.731  11.885
23343W        W87276  44.499  30.146   3.280
23344W        W87277  19.741   3.450   0.821
23345W        W87278   5.236  44.903   0.280
23346W        W87279  23.558  31.047   1.344
23347W        W87280  33.394  27.104  13.821
23348W        W87281  38.950  20.615  11.554
23349W        W87282  23.586  15.722   4.277
23350W        W87283  35.104   6.843   1.826
23351W        W87284  11.859  22.156   2.846
23352W        W87285  12.135  19.567   0.334
23353W        W87286  19.201   7.209   2.781
23354W        W87287  37.378  36.501  12.029
23355W        W87288  36.036  19.104  11.040
23356W        W87289  28.449  28.465  12.031
23357W        W87290  17.565  41.802  12.918
23358W        W87291  21.051  32.091   0.964
23359W        W87292  12.329   4.820  14.463
23360W        W87293  29.579  15.633   2.724
23361W        W87294   3.415  38.511   2.757
23362W        W87295  25.975  30.435   1.279
23363W        W87296  28.951   6.880  13.528
23364W        W87297  32.946  26.065  12.509
23365W        W87298   4.775  12.262  14.882
23366W        W87299  31.929   0.922  11.961
23367W        W87300  15.682  12.750  10.468
23368W        W87301  26.609  24.491  14.459
23369W        W87302  42.365  11.295   2.789
23370W        W87303  14.745  25.981  11.864
23371W        W87304  29.950  22.116   4.222
23372W        W87305  44.482  14.102  13.315
23373W        W87306  19.061  38.326   0.415
23374W        W87307  14.336  36.904   4.180
23375W        W87308  26.183   8.395  14.288
23376W        W87309  32.091  12.746   0.755
23377W        W87310  28.012   0.427   2.373
23378W        W87311  11.369  42.448   2.191
23379W        W87312  30.447  34.507   0.748
23380W        W87313   0.366  34.484  13.545
23381W        W87314  30.949  20.534   2.726
23382W        W87315  44.388  43.987   0.457
23383W        W87316  29.087  17.060  11.128
23384W        W87317  10.830   9.734  13.965
23385W        W87318   8.340  21.634   2.349
23386W        W87319  37.457  19.765  13.015
23387W        W87320  22.126   5.298  12.897
23388W        W87321  39.337  27.161  13.545
23389W        W87322  12.167  34.104  14.463
23390W        W87323   5.387   0.814   0.251
23391W        W87324  17.296  35.011   1.751
23392W        W87325  35.956  22.235   1.910
23393W        W87326  19.063  27.644  14.026
23394W        W87327  43.975  30.031   3.161
23395W        W87328  17.656  40.887  12.008
23396W        W87329  39.015  33.898  12.445
23397W        W87330  21.693  29.444  11.084
23398W        W87331  35.105   9.296  13.407
23399W        W87332  18.699  38.418   2.722
23400W        W87333  35.898   5.883   2.898
23401W        W87334  19.598  37.360   0.904
23402W        W87335   0.345  33.555   3.182
23403W        W87336   6.310  39.978  13.340
23404W        W87337  33.594  31.142  12.558
23405W        W87338  18.663   5.244  13.487
23406W        W87339  26.065  36.875   0.757
23407W        W87340   6.691  27.573   5.280
23408W        W87341  21.522  30.921  13.926
23409W        W87342  27.595  30.115   4.790
23410W        W87343   1.355   9.863   4.756
23411W        W87344   0.754   6.749   2.260
23412W        W87345  33.471  37.352  13.874
23413W        W87346  20.747  21.017  10.570
23414W        W87347   7.869  15.184   3.318
23415W        W87348   7.739   1.964   3.690
23416W        W87349   4.359  19.573   2.396
23417W        W87350  32.003  18.296  12.395
23418W        W87351  16.682   7.359   1.825
23419W        W87352  42.977  41.526   4.724
23420W        W87353  18.744  27.617   2.209
23421W        W87354   3.240  41.424   1.912
23422W        W87355   8.701  11.244  13.872
23423W        W87356   8.299  11.687   2.696
23424W        W87357   8.747  42.353  11.077
23425W        W87358  25.029  10.764  11.611
23426W        W87359  31.093  44.328   4.277
23427W        W87360   4.788  10.759  10.516
23428W        W87361  33.977  34.473   3.710
23429W        W87362   0.327   7.793  12.353
23430W        W87363  30.053   6.206  11.405
23431W        W87364   1.276  35.859   2.331
23432W        W87365  15.723   6.335   1.857
23433W        W87366  23.537  37.463  11.461
23434W        W87367  12.316  30.048   3.184
23435W        W87368  19.563   7.313   1.863
23436W        W87369  33.012  10.307  14.855
23437W        W87370  21.256  16.606  10.518
23438W        W87371  32.582  28.121   2.672
23439W        W87372  16.647  12.839  14.774
23440W        W87373   9.357  15.270  11.882
23441W        W87374  10.149  18.625  12.397
23442W        W87375  29.033  34.869  13.973
23443W        W87376  11.847  29.109   9.930
23444W        W87377  31.139  40.882  10.636
23445W        W87378  29.120   2.818  12.091
23446W        W87379  38.917  38.966  11.443
23447W        W87380  10.367  13.611   3.306
23448W        W87381  10.185  26.655  10.467
23449W        W87382   5.364  25.215   2.331
23450W        W87383  33.606   2.411  11.089
23451W        W87384  38.377   5.395  13.366
23452W        W87385  11.367   6.741  13.349
23453W        W87386  42.896  32.044  11.585
23454W        W87387   3.720  18.281  13.050
23455W        W87388  30.650  10.666   4.249
23456W        W87389  20.618  11.227   4.712
23457W        W87390  42.790  16.637   4.352
23458W        W87391  17.615  41.040   1.700
23459W        W87392  34.484  20.207   1.245
23460W        W87393  19.102  24.624  13.004
23461W        W87394  17.647  36.863  13.351
23462W        W87395  37.984  10.692   1.372
23463W        W87396   7.863   6.839  10.545
23464W        W87397  12.763   4.834  14.385
23465W        W87398  14.789  12.747  11.999
23466W        W87399   4.297  16.312  12.828
23467W        W87400   3.782   9.879  13.937
23468W        W87401   8.681  40.477  11.061
23469W        W87402  19.735   6.736  11.385
23470W        W87403  39.061  40.415  12.486
23471W        W87404  33.978  29.654  14.279
23472W        W87405   9.678  40.924  13.484
23473W        W87406  24.680  37.367   0.460
23474W        W87407  38.842  33.603   4.195
23475W        W87408  31.966   5.795   3.245
23476W        W87409  35.399  22.744  12.048
23477W        W87410  20.628   4.897   4.777
23478W        W87411  21.256  16.231  10.975
23479W        W87412  32.578  34.457  10.537
23480W        W87413  35.087  32.001  11.402
23481W        W87414   6.898  26.018  12.030
23482W        W87415  14.328  44.278  14.000
23483W        W87416  39.447  10.372  10.110
23484W        W87417  13.690  12.274  11.857
23485W        W87418  23.728  33.884   2.192
23486W        W87419   6.264  29.120   0.779
23487W        W87420   7.758   8.277  13.024
23488W        W87421  17.225  22.240  12.463
23489W        W87422  31.953  20.538   4.278
23490W        W87423  27.146  10.719   2.868
23491W        W87424  29.154   5.805   0.407
23492W        W87425   4.417  34.534   1.322
23493W        W87426  14.732  34.925   4.713
23494W        W87427   3.379   9.150  14.455
23495W        W87428  10.179   9.208   0.881
23496W        W87429  19.132  33.961  11.886
23497W        W87430  33.888  13.112  13.412
23498W        W87431  28.648  29.532  13.952
23499W        W87432  22.155   8.295  13.792
23500W        W87433  10.877  24.590   1.906
23501W        W87434  26.650  36.002   3.181
23502W        W87435  42.442  32.067  12.974
23503W        W87436  22.114  39.885   3.167
23504W        W87437  13.106  33.565  13.459
23505W        W87438  16.762  21.139   4.312
23506W        W87439   7.907  16.717   0.814
23507W        W87440  38.040  30.443   3.766
23508W        W87441  41.384   4.423   2.296
23509W        W87442  19.123  39.435   0.823
23510W        W87443  38.529  11.145   0.387
23511W        W87444  35.929  19.609  14.888
23512W        W87445  20.082  43.013   1.388
23513W        W87446   3.802   1.364  13.827
23514W        W87447   7.837  32.970  13.429
23515W        W87448  43.509  39.492   2.220
23516W        W87449  29.172   1.255  11.581
23517W        W87450  35.370  22.517  14.286
23518W        W87451   8.250  29.477  12.065
23519W        W87452  13.712   2.927  10.518
23520W        W87453  11.130  17.135  11.968
23521W        W87454  38.041  41.007   1.375
23522W        W87455   4.260  34.573  13.395
23523W        W87456  32.503  10.831   2.684
23524W        W87457  29.051  22.596  11.996
23525W        W87458  31.610  20.706  12.506
23526W        W87459  43.410  23.160   1.216
23527W        W87460  36.417  30.019  11.590
23528W        W87461  11.187  13.845   0.448
23529W        W87462   3.805  27.492   3.160
23530W        W87463   7.343  25.992   4.288
23531W        W87464  43.318  36.457  12.892
23532W        W87465   5.816   9.665   4.225
23533W        W87466  32.581  23.184   1.917
23534W        W87467   6.364   6.313   0.305
23535W        W87468  32.971   5.867   1.316
23536W        W87469  23.593  40.039  12.447
23537W        W87470  11.150  28.584   4.745
23538W        W87471  20.698  33.584   3.238
23539W        W87472  32.452  30.426  11.982
23540W        W87473  30.560   2.722  14.791
23541W        W87474  13.778  12.274  11.062
23542W        W87475  31.926  31.025   3.228
23543W        W87476  13.278   7.301  12.004
23544W        W87477  13.603  21.611   4.778
23545W        W87478   2.895  29.567   0.373
23546W        W87479  20.753  37.568  12.052
23547W        W87480  36.512  32.077  12.388
23548W        W87481  16.715  10.846   0.931
23549W        W87482  15.253  27.126  11.022
23550W        W87483  43.387  39.021  10.134
23551W        W87484   2.234  44.790   1.235
23552W        W87485  21.679  37.954  14.354
23553W        W87486   6.418  17.773   4.712
23554W        W87487   9.380  27.655   1.903
23555W        W87488  16.609  34.029   4.250
23556W        W87489  42.975  18.568  14.937
23557W        W87490  23.995  38.867  12.026
23558W        W87491  24.016   6.309   4.295
23559W        W87492   5.819  13.244  13.002
23560W        W87493  40.347  40.055  14.407
23561W        W87494  20.107  17.790   2.687
23562W        W87495  44.450  13.742  12.011
23563W        W87496   7.273  25.185   2.841
23564W        W87497  26.135  29.563  11.581
23565W        W87498  24.129  15.244  11.857
23566W        W87499  34.911  18.223   2.706
23567W        W87500  11.716  38.335  14.467
23568W        W87501  14.240  12.161  11.481
23569W        W87502  24.173  13.258   0.438
23570W        W87503   3.251  20.171  11.404
23571W        W87504  20.678   7.857   2.238
23572W        W87505  42.977  35.432  10.107
23573W        W87506  38.901  24.084  12.969
23574W        W87507  28.134  41.337  10.613
23575W        W87508  17.796  35.869   2.315
23576W        W87509  41.477  33.072  12.384
23577W        W87510  39.898  24.136  14.781
23578W        W87511  17.200   9.774  13.324
23579W        W87512  44.977  24.566   2.389
23580W        W87513  35.899  41.809   0.801
23581W        W87514  35.439  42.324  12.544
23582W        W87515  21.609  43.990  10.921
23583W        W87516  31.014   8.366   0.308
23584W        W87517  13.112   8.880   2.411
23585W        W87518  39.382  44.961   2.329
23586W        W87519  40.479  41.887  14.010
23587W        W87520   7.303  23.692  12.479
23588W        W87521  11.174  10.217  10.452
23589W        W87522   4.733  26.957   0.773
23590W        W87523  14.707  19.194   4.168
23591W        W87524  37.881   8.172  11.543
23592W        W87525  11.785  17.740   3.743
23593W        W87526  13.350  36.551  11.099
23594W        W87527  14.634  21.699   4.704
23595W        W87528   7.721  11.264   3.720
23596W        W87529  34.926   4.740  11.563
23597W        W87530  27.464  16.183  13.026
23598W        W87531  41.893   5.778   3.154
23599W        W87532  21.217  10.650  10.527
23600W        W87533  23.496  41.383  14.854
23601W        W87534  43.422  40.408  11.126
23602W        W87535  27.660   2.845   3.367
23603W        W87536  39.901  37.868   2.416
23604W        W87537  42.304  13.629  11.414
23605W        W87538  11.628  38.846   3.740
23606W        W87539   7.708  22.169  10.138
23607W        W87540   5.350  19.239  14.332
23608W        W87541  36.919  19.195   0.382
23609W        W87542  13.647  36.850   1.798
23610W        W87543  16.178  22.529   1.218
23611W        W87544  24.096   3.263   5.307
23612W        W87545  13.827  26.557   0.765
23613W        W87546  28.450  33.449  12.383
23614W        W87547  21.252  28.071   5.264
23615W        W87548  29.656  38.895   4.754
23616W        W87549   3.864  42.783  10.889
23617W        W87550  35.480  37.561   2.258
23618W        W87551  42.959  15.115  14.439
23619W        W87552  44.946  36.923   3.717
23620W        W87553  39.484   8.671  10.584
23621W        W87554  12.804  44.408  14.333
23622W        W87555  24.672  15.735  14.791
23623W        W87556  37.453  12.670  14.876
23624W        W87557  33.925  19.207   4.290
23625W        W87558   2.908   6.755  10.468
23626W        W87559  13.649   1.972   0.846
23627W        W87560  26.012  22.190  11.875
23628W        W87561   3.768  12.172   2.342
23629W        W87562  24.589  13.249  10.598
23630W        W87563  10.776  19.628  13.831
23631W        W87564  24.501  32.928   3.369
23632W        W87565  41.004  34.557  11.056
23633W        W87566  36.996  19.236   4.837
23634W        W87567  31.979  36.848   1.786
23635W        W87568   3.242  26.476   0.265
23636W        W87569  26.534  32.443  14.299
23637W        W87570  11.359   3.730  13.507
23638W        W87571   8.248  16.581  11.860
23639W        W87572  38.548  14.666  13.991
23640W        W87573  33.614  41.516   4.341
23641W        W87574  22.531  26.474   5.289
23642W        W87575  39.913   0.983   3.173
23643W        W87576  25.199  29.948  13.339
23644W        W87577  22.114   5.200  14.496
23645W        W87578  30.026  21.095  13.919
23646W        W87579   5.886  27.605  10.528
23647W        W87580  41.825  26.672  12.951
23648W        W87581   0.866  44.441  14.360
23649W        W87582  19.672  24.138  11.484
23650W        W87583  40.820  43.340  13.313
23651W        W87584  36.009  28.960  13.438
23652W        W87585  26.119   4.796   4.629
23653W        W87586   1.812  12.689  13.405
23654W        W87587  32.589   5.904   3.150
23655W        W87588  20.677   6.396  12.938
23656W        W87589  17.260  18.596   1.694
23657W        W87590   8.389  32.604   0.316
23658W        W87591  44.422  20.740  13.000
23659W        W87592  35.941  29.579   3.255
23660W        W87593  28.944   6.322   4.300
23661W        W87594  27.035  20.254  14.510
23662W        W87595  11.669   0.253  11.097
23663W        W87596   1.305  23.640   4.702
23664W        W87597  17.183   7.260   5.641
23665W        W87598  13.638  20.164  14.009
23666W        W87599  11.188  35.983  11.514
23667W        W87600  36.552  21.192  14.008
23668W        W87601  35.530  15.086  13.050
23669W        W87602  21.228  16.291   2.307
23670W        W87603  11.247  31.984   3.870
23671W        W87604  27.947  35.398   3.639
23672W        W87605  32.444   3.880  11.937
23673W        W87606  26.567  16.253   1.378
23674W        W87607  23.712  23.089  13.049
23675W        W87608   8.833  21.147   4.736
23676W        W87609   1.283  44.400  12.841
23677W        W87610  16.261  28.535  14.760
23678W        W87611  30.040   5.211   4.770
23679W        W87612   6.865   5.283   4.650
23680W        W87613   0.811  16.786   1.867
23681W        W87614  23.202  17.557   0.309
23682W        W87615  41.526  11.863   3.786
23683W        W87616  24.024   3.460   2.190
23684W        W87617  15.717  27.539   2.234
23685W        W87618  24.083  22.153  12.513
23686W        W87619  21.588  39.363  13.797
23687W        W87620  43.412  23.116  10.634
23688W        W87621  16.591  39.014  14.930
23689W        W87622  25.524  25.175   4.746
23690W        W87623  33.898  14.797   4.787
23691W        W87624   7.877   0.881  10.056
23692W        W87625  35.866   4.855   5.150
23693W        W87626  38.545  44.449   0.934
23694W        W87627   3.236   0.889   4.181
23695W        W87628  13.208  17.713   4.780
23696W        W87629  25.583  11.243   2.730
23697W        W87630  35.968  13.327  10.530
23698W        W87631  32.430  17.726   2.804
23699W        W87632  14.717  36.491  12.950
23700W        W87633  36.027  20.546   0.743
23701W        W87634  14.814  21.050   9.944
23702W        W87635  15.262  33.112   4.777
23703W        W87636  14.807  19.581  13.976
23704W        W87637  34.400   4.227   0.871
23705W        W87638  29.105  24.670  14.310
23706W        W87639   3.327  38.565   0.875
23707W        W87640  37.996  34.610   3.755
23708W        W87641  38.519   1.840  13.331
23709W        W87642   3.867  35.361  14.831
23710W        W87643   5.728  14.824  14.469
23711W        W87644  21.723  27.995  11.907
23712W        W87645  41.439  35.993   4.124
23713W        W87646  44.907  14.206  11.973
23714W        W87647  21.675   7.346   4.726
23715W        W87648  30.910  10.196   2.413
23716W        W87649   9.352  37.387   3.239
23717W        W87650  13.766  31.565  12.445
23718W        W87651  32.622   0.290   4.216
23719W        W87652  33.039   8.854  13.527
23720W        W87653  22.535   3.861  14.342
23721W        W87654   8.235  44.870  11.487
23722W        W87655  41.036   3.326  14.822
23723W        W87656  33.519  12.151  14.350
23724W        W87657  37.905  13.318  14.404
23725W        W87658  39.872  18.152   3.805
23726W        W87659  21.098   3.334   2.699
23727W        W87660  43.886  43.997  11.389
23728W        W87661  37.849   9.367  13.880
23729W        W87662  16.207  10.656  12.432
23730W        W87663  30.915  35.361  14.479
23731W        W87664  12.173   3.359  14.501
23732W        W87665  18.082  17.138   0.799
23733W        W87666  12.643   1.300   2.856
23734W        W87667  15.601  37.925   4.264
23735W        W87668   0.978  23.197  12.547
23736W        W87669  38.571  39.404   4.629
23737W        W87670   8.698  30.132   1.366
23738W        W87671   0.826  14.205   1.846
23739W        W87672  11.756  20.101   4.631
23740W        W87673  36.475  40.979   2.239
23741W        W87674  19.753  40.923   2.788
23742W        W87675  28.996  31.107  10.421
23743W        W87676  18.190  18.640   5.221
23744W        W87677  10.837  22.512  13.926
23745W        W87678  37.562  26.108   1.267
23746W        W87679  12.154   5.833  12.344
23747W        W87680  10.331  42.026   4.724
23748W        W87681   8.407  41.846  13.520
23749W        W87682  16.812  19.598   4.234
23750W        W87683  17.674  42.936   2.274
23751W        W87684  44.270  23.580   1.216
23752W        W87685  20.534  43.340  11.524
23753W        W87686   5.389  30.502  12.872
23754W        W87687  42.802   3.916  14.830
23755W        W87688  36.953  31.537   2.398
23756W        W87689   2.784  41.837   0.792
23757W        W87690   5.850   7.379   3.215
23758W        W87691  30.433  34.062  13.815
23759W        W87692   1.346  11.688   3.343
23760W        W87693  34.116  32.515  10.981
23761W        W87694  16.702  36.397   4.639
23762W        W87695  18.123  39.861   5.188
23763W        W87696  20.703   0.493  14.355
23764W        W87697  31.441  41.476   1.317
23765W        W87698  43.012  10.765   1.366
23766W        W87699   7.225  10.309   2.410
23767W        W87700  15.650  25.526  12.921
23768W        W87701  20.691  37.078   2.234
23769W        W87702   8.672  25.681  11.559
23770W        W87703  10.763  35.432  13.492
23771W        W87704  35.529   4.323   3.758
23772W        W87705  20.615  21.698   3.772
23773W        W87706  21.637  16.721   2.225
23774W        W87707   9.777  41.487   3.353
23775W        W87708  16.313  43.405  12.905
23776W        W87709   4.830  24.531   9.559
23777W        W87710  41.441  10.666   0.845
23778W        W87711  11.798  13.749   0.248
23779W        W87712  33.521  28.445   1.287
23780W        W87713  42.394  25.539  14.976
23781W        W87714  13.249  24.988  11.891
23782W        W87715  21.581   2.326   1.327
23783W        W87716   1.841  34.052  11.085
23784W        W87717  38.040  14.330   3.190
23785W        W87718   9.705   1.394   1.877
23786W        W87719  44.387  36.371  13.036
23787W        W87720  20.134  11.821   1.333
23788W        W87721  35.078  30.129   4.694
23789W        W87722  17.190   6.341   0.943
23790W        W87723   5.785  20.757   4.708
23791W        W87724  18.560  22.006   2.275
23792W        W87725  36.505  28.521   3.659
23793W        W87726   3.245   1.920   4.670
23794W        W87727  31.916   1.951   4.227
23795W        W87728  44.475  39.478  10.895
23796W        W87729  10.737   3.840  13.936
23797W        W87730  41.978  44.811   2.217
23798W        W87731   3.242  36.996   3.664
23799W        W87732  26.038  34.388  11.408
23800W        W87733  19.258  25.495   4.123
23801W        W87734  25.068  43.332   2.868
23802W        W87735  15.805  20.272  13.393
23803W        W87736  18.184  41.520  10.129
23804W        W87737  18.245  15.187  14.898
23805W        W87738  10.300   2.862   9.932
23806W        W87739  20.168   4.296   1.371
23807W        W87740   5.823  21.136  14.331
23808W        W87741  40.825  20.754  10.938
23809W        W87742   6.387  33.110  12.886
23810W        W87743  27.169  12.212   1.703
23811W        W87744  42.832  24.496  10.525
23812W        W87745  10.319   9.650   4.182
23813W        W87746  27.006  31.602   4.670
23814W        W87747   3.287   3.714   9.949
23815W        W87748  40.959  16.075   3.242
23816W        W87749  13.775  28.100   0.770
23817W        W87750   0.767  38.835   0.876
23818W        W87751  20.030  11.790   0.794
23819W        W87752  24.533   9.203   3.251
23820W        W87753  19.042  36.847  14.998
23821W        W87754  28.559  34.890   0.787
23822W        W87755  18.216   0.313   3.687
23823W        W87756  25.108  39.871  14.311
23824W        W87757  41.516  11.360   1.894
23825W        W87758   5.693  17.145   2.705
23826W        W87759  35.089   3.884   2.892
23827W        W87760  24.559  32.093  12.536
23828W        W87761  40.311  38.325  12.392
23829W        W87762  36.424  29.044   1.775
23830W        W87763  43.433  30.582   5.276
23831W        W87764  32.098  44.346   2.690
23832W        W87765  36.489  25.095  12.078
23833W        W87766   5.282   6.919  14.831
23834W        W87767  10.226  25.693   0.926
23835W        W87768  31.454  29.440   2.273
23836W        W87769  21.173  15.634  13.446
23837W        W87770  42.838  43.395   3.720
23838W        W87771  41.893  41.459  11.500
23839W        W87772  14.184  24.628   4.180
23840W        W87773   4.411  23.090  10.922
23841W        W87774  25.129   2.960   1.381
23842W        W87775  25.528  29.101  10.913
23843W        W87776  31.127  34.901   4.759
23844W        W87777  18.235  35.514  14.508
23845W        W87778  15.111  13.681   3.275
23846W        W87779  37.429  32.114   2.360
23847W        W87780  43.782   8.394   2.855
23848W        W87781  20.098   9.813   4.131
23849W        W87782  14.128  41.326  13.937
23850W        W87783  21.604  39.389  14.436
23851W        W87784   0.806  21.671   2.691
23852W        W87785  16.751   3.882   2.731
23853W        W87786  10.858  26.083   0.254
23854W        W87787  12.818   4.902  13.050
23855W        W87788  42.935  27.501  11.406
23856W        W87789  21.036  37.373   1.395
23857W        W87790   8.224   7.804   2.768
23858W        W87791  36.897  25.639   3.670
23859W        W87792  18.658  22.604   0.414
23860W        W87793   1.458  20.557  11.599
23861W        W87794  14.111  25.103  11.495
23862W        W87795  15.271   8.762  12.886
23863W        W87796  33.960  22.614  14.899
23864W        W87797  44.905  33.912  11.599
23865W        W87798   9.675  41.903   1.931
23866W        W87799   8.819  39.538  11.580
23867W        W87800  23.085  13.834   2.217
23868W        W87801   4.216  26.983  13.969
23869W        W87802  12.809   9.886   4.340
23870W        W87803  12.238   0.764   1.347
23871W        W87804  27.587  39.026   3.295
23872W        W87805   5.805  11.283   3.213
23873W        W87806  29.480  10.306  10.940
23874W        W87807  12.258   2.950  13.957
23875W        W87808  37.532   9.856  14.771
23876W        W87809  30.543  16.597   4.750
23877W        W87810   2.801  18.290   0.757
23878W        W87811  30.519  37.011  11.502
23879W        W87812  22.163   8.761  10.898
23880W        W87813  27.544  19.279  10.930
23881W        W87814   0.825  19.056   2.321
23882W        W87815  40.539   7.787  13.803
23883W        W87816  41.522  40.327  11.522
23884W        W87817  11.362  16.297   3.816
23885W        W87818   1.388  10.245   4.831
23886W        W87819  19.157  10.163  14.023
23887W        W87820   4.376  34.596   3.379
23888W        W87821   3.727   2.900  12.562
23889W        W87822   4.939  25.572  13.514
23890W        W87823  21.156  14.192  10.934
23891W        W87824   5.377  38.998  12.947
23892W        W87825  35.929  11.796  10.413
23893W        W87826   3.834  11.650  13.048
23894W        W87827   7.854  35.012  10.145
23895W        W87828  44.438  12.172  12.984
23896W        W87829  39.549  27.468   1.708
23897W        W87830  34.504  15.188  12.940
23898W        W87831  10.244  41.879   5.266
23899W        W87832   5.313  21.754   4.807
23900W        W87833  33.607   3.878  11.097
23901W        W87834  40.977  33.962  12.466
23902W        W87835   0.753  16.776  13.871
23903W        W87836  29.472  35.081  14.870
23904W        W87837  12.191  33.491  12.471
23905W        W87838  26.000  35.875  11.098
23906W        W87839   1.353  39.938   0.380
23907W        W87840   8.846  38.440  12.560
23908W        W87841   7.676  23.510   2.739
23909W        W87842  37.042  16.198   2.871
23910W        W87843  16.162  40.006   2.880
23911W        W87844  30.587  23.012   2.248
23912W        W87845   3.753  40.528   4.702
23913W        W87846  17.718  14.707  13.987
23914W        W87847   8.309  10.739   2.188
23915W        W87848  33.536   0.982  13.537
23916W        W87849  24.520   4.372   4.186
23917W        W87850  10.775  14.330  10.469
23918W        W87851  19.264  41.460  14.287
23919W        W87852   8.737  40.879  13.323
23920W        W87853   2.931  31.101   1.851
23921W        W87854   6.830  39.366   1.781
23922W        W87855  38.524  39.813  13.860
23923W        W87856  22.592  34.536  14.823
23924W        W87857  17.678  37.425   1.860
23925W        W87858  12.347  30.552   3.221
23926W        W87859  32.408  23.592   2.697
23927W        W87860   3.380   9.770   4.826
23928W        W87861  31.423  44.467  12.011
23929W        W87862   2.412  11.272   4.624
23930W        W87863  18.193  12.775   2.772
23931W        W87864  29.485   4.449   4.171
23932W        W87865  33.962  19.768  10.592
23933W        W87866  35.425  36.473   2.339
23934W        W87867  30.624  12.697  11.977
23935W        W87868   4.898   6.260  10.444
23936W        W87869   7.818   8.237   2.717
23937W        W87870  23.620   9.682  14.906
23938W        W87871  13.116  19.192  10.633
23939W        W87872  14.307   7.705  13.503
23940W        W87873   6.278  22.740   3.162
23941W        W87874  43.889  34.001  12.981
23942W        W87875   2.280  21.248   0.942
23943W        W87876   3.385  18.683   3.305
23944W        W87877  36.387   1.311   2.799
23945W        W87878  43.311  41.802   1.328
23946W        W87879  20.229   9.173   2.229
23947W        W87880  42.865  44.963  13.949
23948W        W87881   2.898   6.775   4.287
23949W        W87882  41.297  37.947  10.898
23950W        W87883  19.600   1.820   4.603
23951W        W87884   6.248  21.754   4.343
23952W        W87885   4.387  19.653  13.384
23953W        W87886  35.097   3.746  10.628
23954W        W87887  28.000  34.911   3.173
23955W        W87888  33.525  41.389  12.021
23956W        W87889  10.278   0.488   4.700
23957W        W87890  40.866  21.210  12.360
23958W        W87891  12.808  12.145   4.669
23959W        W87892   3.388  25.580   3.760
23960W        W87893  10.721  26.637   4.725
23961W        W87894  15.778   4.722   3.201
23962W        W87895  15.091   8.347  12.355
23963W        W87896  37.523  16.142   3.649
23964W        W87897   0.766  20.029   1.449
23965W        W87898  32.987  32.985   0.854
23966W        W87899  22.657   2.394  11.907
23967W        W87900   6.862  24.530   4.666
23968W        W87901   8.731  38.040   0.289
23969W        W87902  20.167   6.234  14.798
23970W        W87903  14.763  16.653  13.493
23971W        W87904  38.848   1.838   2.903
23972W        W87905  35.983  23.528  10.992
23973W        W87906  19.776  13.257   3.302
23974W        W87907  30.968   3.355  11.429
23975W        W87908  17.588  36.002   1.784
23976W        W87909  39.038  23.567   3.311
23977W        W87910  16.651  21.577  11.543
23978W        W87911  16.250  42.815   3.351
23979W        W87912   3.748   9.319   3.233
23980W        W87913  15.779  43.016  13.806
23981W        W87914  35.071  13.303   4.689
23982W        W87915  21.169   0.749  11.483
23983W        W87916  36.074  30.646   0.357
23984W        W87917  22.632  12.265   5.081
23985W        W87918  16.191  12.645  13.497
23986W        W87919  43.776  40.008   4.157
23987W        W87920  29.003   8.160  11.491
23988W        W87921  25.482  37.403  10.901
23989W        W87922  34.982  37.474   3.641
23990W        W87923  20.532   5.418   3.318
23991W        W87924  14.286  23.668  14.992
23992W        W87925   4.942  20.095   2.746
23993W        W87926  35.376  42.781  13.998
23994W        W87927  26.640  34.425   3.227
23995W        W87928  13.300  38.535   0.273
23996W        W87929  30.004   8.851  13.930
23997W        W87930   4.363  29.531  10.956
23998W        W87931  18.683  21.733  14.342
23999W        W87932   0.904  11.626  12.532
24000W        W87933  44.328  36.455   4.318
24001W        W87934  42.964   5.721  12.372
24002W        W87935  34.880  39.383  12.923
24003W        W87936  17.218  28.028   0.789
24004W        W87937  23.187  22.636   0.284
24005W        W87938   7.285  37.548   3.151
24006W        W87939   9.191  26.042   2.677
24007W        W87940  26.515  18.643  10.951
24008W        W87941   4.787  38.888  13.493
24009W        W87942  12.350   0.415  13.464
24010W        W87943  16.805   0.885   3.361
24011W        W87944  10.774  41.503  11.956
24012W        W87945  38.062  24.589   2.790
24013W        W87946   1.454  25.486   1.857
24014W        W87947  44.384  18.687  11.899
24015W        W87948   6.789  20.040  13.486
24016W        W87949  44.421  37.003  14.382
24017W        W87950  11.680   2.455   3.704
24018W        W87951   8.378  13.835   2.219
24019W        W87952  34.523  43.779   0.381
24020W        W87953  18.218  27.196   3.716
24021W        W87954  42.331  34.489   2.225
24022W        W87955   1.452  17.196  12.065
24023W        W87956  32.454  19.600   3.697
24024W        W87957  28.679  40.837   2.697
24025W        W87958  15.319   3.447   4.280
24026W        W87959  12.317  35.466   4.121
24027W        W87960  29.953  15.306  12.956
24028W        W87961  24.706   0.282   1.820
24029W        W87962  26.530   8.278   0.791
24030W        W87963  32.473  14.227   1.763
24031W        W87964  19.088  35.360   3.689
24032W        W87965  25.705  40.910  12.540
24033W        W87966  17.801  18.623   3.751
24034W        W87967  10.687  22.032   0.857
24035W        W87968  36.018  17.660  10.625
24036W        W87969  24.997   4.761  13.917
24037W        W87970  42.368  16.213  14.855
24038W        W87971  10.186  20.106  10.518
24039W        W87972  40.010  32.546   3.811
24040W        W87973  42.868  28.449  12.547
24041W        W87974   6.223  28.044   1.384
24042W        W87975  25.557  33.512  14.972
24043W        W87976  34.566   6.341   4.736
24044W        W87977  18.628  36.841   0.367
24045W        W87978   0.311  34.396   0.928
24046W        W87979   3.855   2.388  11.517
24047W        W87980  40.842  18.692   0.331
24048W        W87981  44.490  18.714   2.347
24049W        W87982  22.170  32.029  10.518
24050W        W87983  32.116  10.799   4.121
24051W        W87984  30.916  17.633   0.772
24052W        W87985  40.901   0.817   1.814
24053W        W87986  13.111  12.613   4.241
24054W        W87987   4.904  11.315  10.972
24055W        W87988   9.332  41.824  13.502
24056W        W87989   3.950   6.415   0.916
24057W        W87990  25.571  10.356   2.776
24058W        W87991  18.682  43.867  13.853
24059W        W87992  32.423  11.741   0.742
24060W        W87993   9.689  27.063   3.834
24061W        W87994  20.078   0.749  14.779
24062W        W87995   9.287   3.219  12.076
24063W        W87996   6.693  35.504  14.289
24064W        W87997   8.679  26.052   3.338
24065W        W87998  25.581  18.646  14.479
24066W        W87999  20.760   0.392   0.913
24067W        W88000   4.401  33.935   4.321
24068W        W88001  32.099  10.780  11.878
24069W        W88002  44.279  32.140  11.558
24070W        W88003  38.858   2.371   1.850
24071W        W88004  13.213  42.827  10.935
24072W        W88005  34.937  14.312   4.343
24073W        W88006  20.076   8.781  13.509
24074W        W88007  10.769  11.157   3.371
24075W        W88008  44.446  18.085  11.556
24076W        W88009  29.119  40.467   1.379
24077W        W88010  20.584  43.403   3.666
24078W        W88011   5.439  11.162  11.568
24079W        W88012  27.575  18.680   2.333
24080W        W88013   0.347   2.762  13.484
24081W        W88014  26.986   1.829   3.789
24082W        W88015   5.401  10.200  14.490
24083W        W88016  36.494  35.361   3.672
24084W        W88017  41.431  22.097  14.387
24085W        W88018   0.364  28.154  14.915
24086W        W88019  35.959  17.113  12.444
24087W        W88020   5.799   5.360   4.151
24088W        W88021  15.796  15.196  13.987
24089W        W88022  38.041  43.488   4.597
24090W        W88023  17.635  38.385  13.864
24091W        W88024  24.105   1.805   2.288
24092W        W88025   5.342  13.307  11.954
24093W        W88026   8.703  41.487   1.821
24094W        W88027  14.259   5.282  12.434
24095W        W88028  23.182  33.493  12.432
24096W        W88029  32.970  12.290   3.680
24097W        W88030  26.196  28.007   4.127
24098W        W88031  26.471   7.245   4.295
24099W        W88032  42.816   1.742   1.446
24100W        W88033  23.604  21.578  13.940
24101W        W88034   2.463  13.308  11.007
24102W        W88035  35.059  38.470   2.334
24103W        W88036  15.800  19.714  12.024
24104W        W88037  24.159  38.445   2.291
24105W        W88038  25.508  39.320   4.178
24106W        W88039  26.594  23.615  13.414
24107W        W88040  34.889  27.454   3.792
24108W        W88041  43.820  17.776  14.439
24109W        W88042  18.752  42.400   4.325
24110W        W88043  37.848   2.898  13.495
24111W        W88044   3.924  12.348  13.357
24112W        W88045  22.116   5.363   1.275
24113W        W88046  25.139  38.847  14.002
24114W        W88047  28.489   5.303   4.192
24115W        W88048  25.588   0.879   1.714
24116W        W88049  28.642  31.049   0.765
24117W        W88050  15.769  35.890  10.928
24118W        W88051   4.712   9.346  12.040
24119W        W88052  28.159  15.149  13.473
24120W        W88053  12.731  37.549   0.348
24121W        W88054  23.049  13.174  11.590
24122W        W88055  15.086  17.762  12.927
24123W        W88056  33.027  24.503   2.207
24124W        W88057  39.819   2.786   0.902
24125W        W88058   6.904   9.881  11.581
24126W        W88059  27.451  31.994   3.380
24127W        W88060  41.921  17.660  14.989
24128W        W88061   6.395  25.149   3.296
24129W        W88062  38.461  44.876  10.997
24130W        W88063   4.725  28.108  12.531
24131W        W88064   7.824   8.667   4.154
24132W        W88065  44.267  30.483  13.905
24133W        W88066   7.397   2.738  12.049
24134W        W88067  36.356  32.487   4.829
24135W        W88068  39.043  26.989   2.822
24136W        W88069  11.837  14.254   9.987
24137W        W88070  38.460  43.022   4.606
24138W        W88071  23.188  25.713   2.666
24139W        W88072  30.590  15.822   4.767
24140W        W88073  32.020  31.585  12.374
24141W        W88074  25.116  13.222   2.415
24142W        W88075  32.906  10.809   1.421
24143W        W88076  14.337  37.947   0.303
24144W        W88077  38.478  39.828  12.045
24145W        W88078  19.083  29.584   0.249
24146W        W88079  22.562   1.855  11.465
24147W        W88080  18.094  38.489   0.860
24148W        W88081  29.592  25.073   4.309
24149W        W88082  17.244  14.202  12.477
24150W        W88083  19.599  19.262  10.985
24151W        W88084  17.114  33.516   4.609
24152W        W88085   4.751  12.656  12.386
24153W        W88086  38.899  37.477   3.714
24154W        W88087  29.560  33.073   0.745
24155W        W88088  44.941  19.233   4.352
24156W        W88089  14.328  13.141  14.856
24157W        W88090  42.514  13.244  11.454
24158W        W88091  25.621  41.359   9.985
24159W        W88092  27.088   4.317  14.943
24160W        W88093  37.891  30.923   3.208
24161W        W88094   8.786  22.024  11.574
24162W        W88095  18.076  14.634  10.941
24163W        W88096  23.020  21.709   2.264
24164W        W88097   4.257  14.207  12.455
24165W        W88098  22.026  26.468  12.849
24166W        W88099   3.925  39.853   4.339
24167W        W88100  36.360  21.204  12.056
24168W        W88101  17.800   5.714   9.546
24169W        W88102  37.051  21.626   0.789
24170W        W88103   8.218  41.991  10.535
24171W        W88104  17.683  20.637  12.925
24172W        W88105  17.685  16.157   9.457
24173W        W88106  15.634  14.207  10.958
24174W        W88107   6.411  28.115  13.876
24175W        W88108  21.240  39.867   2.788
24176W        W88109  29.138  22.196  14.959
24177W        W88110   6.317   5.785   3.219
24178W        W88111  10.283   9.656  14.486
24179W        W88112  32.459  33.542   1.228
24180W        W88113  36.467  11.187   3.303
24181W        W88114  28.679  31.592   4.295
24182W        W88115  14.750  42.348  12.010
24183W        W88116  41.871  16.786   2.719
24184W        W88117  22.020  34.487  14.901
24185W        W88118   2.297   4.891   2.862
24186W        W88119  33.031   4.397   2.306
24187W        W88120  33.004   4.235   0.417
24188W        W88121  15.765   0.429   2.881
24189W        W88122  22.018  27.552   2.783
24190W        W88123  27.463  32.618   2.881
24191W        W88124   7.839  39.813   3.870
24192W        W88125   0.272   6.365  10.589
24193W        W88126   1.470  24.566  10.960
24194W        W88127  42.925  24.150  14.990
24195W        W88128  33.112  26.159   2.735
24196W        W88129   8.805  29.112  10.913
24197W        W88130  22.106  24.172   1.342
24198W        W88131  44.968  10.296   4.792
24199W        W88132  32.089  29.970   1.913
24200W        W88133  11.826   7.171  12.081
24201W        W88134   9.222  36.079  13.334
24202W        W88135  35.520  35.900   0.332
24203W        W88136  16.140   4.295   2.729
24204W        W88137  10.698   6.882  13.005
24205W        W88138  11.247  37.987   2.299
24206W        W88139   1.320   1.887   3.804
24207W        W88140  37.442  20.052  14.966
24208W        W88141  17.800  16.211  11.512
24209W        W88142  40.828  41.530  13.317
24210W        W88143  42.981   8.665   0.892
24211W        W88144  33.029  10.266   1.357
24212W        W88145  43.894   8.806  14.001
24213W        W88146  18.693   4.293  13.362
24214W        W88147   1.249   7.721  13.794
24215W        W88148  44.759  16.595   1.434
24216W        W88149  12.319  11.152   1.416
24217W        W88150  20.701  39.810  12.509
24218W        W88151   3.891  43.980   1.368
24219W        W88152  33.455  34.440  11.543
24220W        W88153   5.287  20.751   1.412
24221W        W88154  24.551   4.370  13.523
24222W        W88155  42.407   1.731   4.690
24223W        W88156   5.829  22.586   2.803
24224W        W88157  21.127  12.288   3.172
24225W        W88158   1.388  36.095  12.495
24226W        W88159  12.643  12.192   4.293
24227W        W88160  43.818  18.649   3.779
24228W        W88161  43.279  15.294   2.252
24229W        W88162  39.826  22.156  12.430
24230W        W88163  40.494  23.720  10.464
24231W        W88164  30.508  28.608  12.400
24232W        W88165  23.171  40.804   4.748
24233W        W88166  42.481  33.384  13.846
24234W        W88167   4.295   1.965  10.101
24235W        W88168  39.421  27.544  11.960
24236W        W88169  15.770  22.242  10.476
24237W        W88170  29.169   3.236  13.472
24238W        W88171  37.064  22.651   1.358
24239W        W88172   8.283  35.025   0.940
24240W        W88173  17.107   5.860  11.496
24241W        W88174  12.329  13.675   2.778
24242W        W88175  35.052   9.308   1.872
24243W        W88176  22.194  14.094   4.178
24244W        W88177  16.315  40.444  14.491
24245W        W88178  39.819  23.599   4.784
24246W        W88179  16.676  17.256  11.009
24247W        W88180  23.060   5.436  14.359
24248W        W88181  33.928  25.102  13.502
24249W        W88182  12.206  44.971   2.874
24250W        W88183  40.342  11.744  12.375
24251W        W88184   3.899  40.335  12.363
24252W        W88185  12.298   5.852   4.819
24253W        W88186  15.318   1.919  14.922
24254W        W88187  34.894  40.050   2.406
24255W        W88188   2.920  23.088   2.349
24256W        W88189   5.278  40.825  12.946
24257W        W88190   7.303   5.323  14.428
24258W        W88191   7.889  29.954   3.157
24259W        W88192  41.961   5.769  14.989
24260W        W88193  31.570  33.618   0.829
24261W        W88194   3.896   7.321  12.899
24262W        W88195  16.129   5.404   2.229
24263W        W88196   6.200  14.611   3.789
24264W        W88197  21.728   4.344   0.424
24265W        W88198  40.049  24.108   4.127
24266W        W88199  12.828  41.990   2.821
24267W        W88200   8.288   9.746   0.959
24268W        W88201  30.948  20.134   3.245
24269W        W88202  40.400  40.802  12.844
24270W        W88203  36.395  30.561  11.863
24271W        W88204  31.898  40.854  13.878
24272W        W88205  28.089  36.849   2.777
24273W        W88206   0.282  34.491  14.923
24274W        W88207   8.669  43.357   2.686
24275W        W88208  29.116   7.206   1.368
24276W        W88209   7.292   7.229  14.820
24277W        W88210  39.421  34.527  12.952
24278W        W88211  39.316  27.075   4.783
24279W        W88212  13.247  33.899   4.260
24280W        W88213   5.745  28.435  11.061
24281W        W88214  41.293  13.833   2.730
24282W        W88215  31.508   1.246   3.256
24283W        W88216  21.731  30.035   2.772
24284W        W88217   3.249  27.613  12.875
24285W        W88218  23.562  25.995  11.429
24286W        W88219  41.990   1.419  14.324
24287W        W88220  35.982   6.256  12.909
24288W        W88221  26.012  37.506   4.814
24289W        W88222  27.478  19.671  14.344
24290W        W88223  25.145  30.988  13.892
24291W        W88224  41.924  19.127  12.349
24292W        W88225  19.599  18.706  12.572
24293W        W88226  26.459   2.335   2.279
24294W        W88227  29.964  30.484  14.887
24295W        W88228  31.420  34.063   0.895
24296W        W88229   3.945   8.338   1.239
24297W        W88230  16.267  36.397   4.690
24298W        W88231  25.210  10.673   0.893
24299W        W88232  20.196  37.838  14.974
24300W        W88233  16.641   6.808  14.974
24301W        W88234  13.178  11.675   4.330
24302W        W88235  27.115   9.716   9.972
24303W        W88236  18.762  23.496  13.478
24304W        W88237  42.496   3.856  10.979
24305W        W88238  29.627  15.821  12.447
24306W        W88239  29.052   3.717   0.920
24307W        W88240   7.205  28.085  12.934
24308W        W88241  28.505  34.463   2.228
24309W        W88242  41.808  39.043  12.846
24310W        W88243  27.575   7.199   1.713
24311W        W88244   9.366  17.698   3.363
24312W        W88245  19.659  17.706   3.707
24313W        W88246  33.622   1.945  11.423
24314W        W88247   7.248   3.348   3.256
24315W        W88248  32.507   3.346   3.854
24316W        W88249  22.673  33.392   0.795
24317W        W88250  36.858  44.399  12.964
24318W        W88251  33.902  31.077  13.036
24319W        W88252  32.594  39.949   0.856
24320W        W88253  25.172  12.244   4.710
24321W        W88254  16.235   8.703   1.320
24322W        W88255  39.036  24.110   4.689
24323W        W88256  12.174  27.503  13.026
24324W        W88257   0.836  32.025  14.456
24325W        W88258  44.420  20.170  14.451
24326W        W88259  32.068   0.258   1.758
24327W        W88260  31.541  39.814   4.825
24328W        W88261  24.079  31.108  14.780
24329W        W88262  42.990  12.322  11.010
24330W        W88263  26.206  26.644  10.528
24331W        W88264  35.886   0.301   2.298
24332W        W88265  41.003  41.386   1.336
24333W        W88266  17.715  27.021   3.710
24334W        W88267  39.526  44.408   3.750
24335W        W88268   2.744  26.958   0.374
24336W        W88269  14.633  34.014  10.966
24337W        W88270  15.588  25.552  11.483
24338W        W88271  43.299  29.592  12.388
24339W        W88272   2.270   6.276   3.364
24340W        W88273  26.013   4.874  11.489
24341W        W88274  14.598  40.975  10.631
24342W        W88275   4.323  31.468   3.719
24343W        W88276   8.714   1.289   2.830
24344W        W88277  20.721   4.926   1.245
24345W        W88278  35.948  27.007  11.507
24346W        W88279  26.023   9.196   3.231
24347W        W88280  42.856  28.553   3.858
24348W        W88281  42.021   3.911  11.065
24349W        W88282   9.367  43.348   1.322
24350W        W88283  41.518  35.997  11.533
24351W        W88284  11.160  19.247  12.034
24352W        W88285  43.936  10.370   1.259
24353W        W88286   9.201   7.840   2.190
24354W        W88287  44.834  28.437  14.484
24355W        W88288  36.528  43.966   1.746
24356W        W88289  39.023  26.180   4.204
24357W        W88290  17.763   8.223   5.257
24358W        W88291  29.018  43.951  10.477
24359W        W88292   2.941  18.590  14.883
24360W        W88293  14.236   3.262   1.833
24361W        W88294  21.522  11.160   0.334
24362W        W88295  14.772  38.416  13.520
24363W        W88296  28.186  28.525  13.914
24364W        W88297   7.714  38.892   9.959
24365W        W88298  35.389   3.798   4.334
24366W        W88299   4.348  24.498   2.763
24367W        W88300  19.709   4.788   4.652
24368W        W88301  12.307  11.191  13.539
24369W        W88302  14.616  40.476  12.517
24370W        W88303   0.276  36.871  13.961
24371W        W88304   8.344  15.621   3.679
24372W        W88305  43.279  31.950   5.275
24373W        W88306  10.341  21.213   4.255
24374W        W88307  17.719  16.786  12.824
24375W        W88308   5.277   8.742   3.303
24376W        W88309  27.068  35.904   1.378
24377W        W88310   9.368  24.006   1.871
24378W        W88311  19.119  33.095   3.154
24379W        W88312  22.207  40.943   1.822
24380W        W88313  39.560  16.726  11.427
24381W        W88314  44.895  19.063   3.836
24382W        W88315  14.165  40.508   1.287
24383W        W88316  16.250  25.522   2.308
24384W        W88317  36.067  16.806  13.491
24385W        W88318  26.687   0.331  11.544
24386W        W88319  24.493  17.776   2.803
24387W        W88320  38.871  44.849   2.744
24388W        W88321  36.924   0.818  12.062
24389W        W88322  31.034   3.922  10.538
24390W        W88323  29.637   6.210   0.360
24391W        W88324  39.979  40.345  13.867
24392W        W88325  38.356   6.837  10.605
24393W        W88326   0.814  43.894   0.786
24394W        W88327  34.489  32.049  10.020
24395W        W88328  37.910  39.957  11.924
24396W        W88329  39.543   9.218   0.776
24397W        W88330  21.728  35.917   3.225
24398W        W88331   9.339   6.763   1.809
24399W        W88332   2.830  10.692  11.417
24400W        W88333  18.066  31.050  10.480
24401W        W88334   2.937   5.780  14.807
24402W        W88335  11.681  16.308   4.182
24403W        W88336   2.244  17.115   0.387
24404W        W88337  21.517  34.936   3.299
24405W        W88338   9.792  20.706  14.762
24406W        W88339  39.008  27.008  12.439
24407W        W88340  18.092   6.202   1.823
24408W        W88341   4.871  43.312  13.328
24409W        W88342   0.915  19.218  14.322
24410W        W88343  10.328  38.546  14.812
24411W        W88344  23.150  23.107  14.988
24412W        W88345  12.176  17.720  12.458
24413W        W88346  35.973  39.864   0.281
24414W        W88347  18.721  27.951  12.965
24415W        W88348   6.308  11.187  12.924
24416W        W88349  21.675  22.523   2.314
24417W        W88350  35.461  32.910  13.055
24418W        W88351  40.505   1.433   3.340
24419W        W88352  32.636   0.449  11.493
24420W        W88353  30.595  43.011  12.373
24421W        W88354  25.998  15.683   0.318
24422W        W88355   4.278  11.159  11.434
24423W        W88356   0.771  13.749   4.131
24424W        W88357  33.496   8.691  12.089
24425W        W88358  35.520  26.600   5.196
24426W        W88359   7.674  30.582  12.388
24427W        W88360   8.370  39.831   0.874
24428W        W88361  18.222   5.697  10.608
24429W        W88362  40.306  24.168  14.920
24430W        W88363  39.356  24.123  13.062
24431W        W88364   8.707  15.721   1.242
24432W        W88365  40.307  20.155   1.717
24433W        W88366  20.070  10.317  14.289
24434W        W88367  21.210  15.285   2.748
24435W        W88368  11.333   3.773   0.410
24436W        W88369  17.757  24.652   2.245
24437W        W88370   6.764  44.832  13.996
24438W        W88371  37.411  38.055   0.967
24439W        W88372  26.621  18.268   0.315
24440W        W88373  20.203   2.358  13.860
24441W        W88374  44.500  38.872   4.317
24442W        W88375  10.724  30.624   3.636
24443W        W88376  16.284  23.585  11.859
24444W        W88377  24.007  25.573   2.356
24445W        W88378  14.684  29.125  13.414
24446W        W88379  37.928  12.834   2.890
24447W        W88380  15.155   2.870  12.083
24448W        W88381  15.174  37.445   2.862
24449W        W88382  29.479  39.523   2.287
24450W        W88383  37.867  38.963   2.748
24451W        W88384  15.617  20.130   1.449
24452W        W88385   3.268   0.828  14.472
24453W        W88386  44.891  36.021   4.731
24454W        W88387  27.625  16.316  11.556
24455W        W88388  13.779  22.155   3.855
24456W        W88389  40.489  14.818   1.799
24457W        W88390  22.159  30.513  14.329
24458W        W88391  39.877  12.236  11.464
24459W        W88392   9.159  10.344  14.502
24460W        W88393   2.952  35.853   3.283
24461W        W88394  42.983  20.707   2.247
24462W        W88395  30.480  14.189   4.697
24463W        W88396  16.143  30.926  12.540
24464W        W88397   7.208  42.972  13.001
24465W        W88398   7.299  11.311  11.487
24466W        W88399  22.009  35.453   2.232
24467W        W88400  44.839  38.389   1.433
24468W        W88401  15.668  33.111  10.138
24469W        W88402  28.135   3.845  14.331
24470W        W88403   2.923   1.397   1.829
24471W        W88404  23.004   4.929   3.822
24472W        W88405  33.005  26.694  10.480
24473W        W88406  24.620  36.563   3.845
24474W        W88407  35.077  35.445   1.797
24475W        W88408  30.067  27.674   2.237
24476W        W88409  41.870  42.844  14.847
24477W        W88410  26.976  43.401   2.805
24478W        W88411   3.824  21.230   4.257
24479W        W88412   6.680  22.121  10.608
24480W        W88413  25.170  40.386  14.865
24481W        W88414  26.121  35.476  14.898
24482W        W88415  22.111   4.342  11.595
24483W        W88416  31.485  19.214   4.666
24484W        W88417   6.329  39.835   3.161
24485W        W88418  30.052  31.430  13.793
24486W        W88419  39.512   2.381  14.769
24487W        W88420  14.769  36.878  11.870
24488W        W88421  12.287   3.456   5.271
24489W        W88422  39.491   4.872  12.044
24490W        W88423  20.573  18.623  13.057
24491W        W88424  38.436   7.318  11.860
24492W        W88425   0.398  17.687  14.913
24493W        W88426  43.975   3.835   0.368
24494W        W88427  17.076  31.529   1.859
24495W        W88428  43.403   0.279  11.576
24496W        W88429  34.417  18.579   3.271
24497W        W88430  19.606  19.265   1.318
24498W        W88431  36.990  39.002  12.499
24499W        W88432  18.762  34.456  14.413
24500W        W88433  24.087  11.128   2.308
24501W        W88434  33.521  14.285  12.545
24502W        W88435  16.195  35.054  13.910
24503W        W88436   6.752   2.416   2.779
24504W        W88437  42.480   7.711  14.769
24505W        W88438  26.066  14.736   4.308
24506W        W88439  19.751  26.580  13.505
24507W        W88440  27.066  36.934  11.468
24508W        W88441   7.884   3.762  12.979
24509W        W88442  17.083  33.910   4.310
24510W        W88443  13.270  18.236  13.537
24511W        W88444   3.401  19.663   4.778
24512W        W88445  31.082  21.098   0.822
24513W        W88446  13.697  20.198   0.785
24514W        W88447  21.562  22.147   0.468
24515W        W88448  35.022  22.238  14.874
24516W        W88449  23.600  27.151  12.371
24517W        W88450   0.820  36.925   3.230
24518W        W88451  34.550   8.369   1.860
24519W        W88452  20.547  33.925   4.328
24520W        W88453  19.186  26.112   4.118
24521W        W88454  31.908  26.064   1.778
24522W        W88455  13.173  23.139   3.303
24523W        W88456  38.460   9.382  11.892
24524W        W88457  13.834  43.424   3.646
24525W        W88458  26.619   8.186   3.154
24526W        W88459   6.725   4.294   4.150
24527W        W88460  41.915  37.457  13.356
24528W        W88461  31.048  40.853  13.999
24529W        W88462  42.999  24.652  14.350
24530W        W88463  14.213  29.540   4.676
24531W        W88464  40.892  35.409   2.795
24532W        W88465  38.883   3.221  11.104
24533W        W88466  20.679  39.525   2.869
24534W        W88467  31.439   7.201   0.963
24535W        W88468  25.701   3.448   4.156
24536W        W88469  36.045  38.846   3.685
24537W        W88470   4.386  26.080  14.421
24538W        W88471  44.309  10.718  12.859
24539W        W88472  35.398  32.041  13.335
24540W        W88473  10.335  30.910  14.287
24541W        W88474  32.487  31.992   5.307
24542W        W88475   5.288  42.813  12.052
24543W        W88476  20.640  40.370   0.386
24544W        W88477  13.234   0.308  10.427
24545W        W88478  21.687   8.840   3.298
24546W        W88479  40.030  34.561  13.889
24547W        W88480  38.929  24.504   2.884
24548W        W88481  15.711  41.400  12.515
24549W        W88482   4.412   5.751  10.422
24550W        W88483  13.239  25.629  11.404
24551W        W88484  37.437  43.887  11.581
24552W        W88485  33.086  20.555   3.147
24553W        W88486  40.873  44.861  14.775
24554W        W88487  30.512  21.645   2.210
24555W        W88488  38.987  11.849   5.242
24556W        W88489   5.867  20.175  11.436
24557W        W88490   1.972  22.587  14.934
24558W        W88491  43.818  40.875  12.564
24559W        W88492   7.300  23.728  11.387
24560W        W88493  22.618  11.799  11.979
24561W        W88494  10.272  17.562  14.956
24562W        W88495  11.206  43.312   3.866
24563W        W88496  16.639  31.036  13.489
24564W        W88497  21.154   2.774  10.441
24565W        W88498   8.234  24.700  13.883
24566W        W88499  39.980  42.830  11.943
24567W        W88500  15.746  25.025   0.259
24568W        W88501   4.377  30.471  11.893
24569W        W88502  26.537   5.400  14.856
24570W        W88503  43.374   5.738  12.534
24571W        W88504  19.265  30.607  11.905
24572W        W88505  20.755  19.551  10.540
24573W        W88506   7.672  37.579   3.283
24574W        W88507  27.969  39.820   2.673
24575W        W88508  21.213  11.162   4.625
24576W        W88509   3.767  29.452  12.928
24577W        W88510   0.425  32.409   2.834
24578W        W88511  26.095  12.770   0.871
24579W        W88512  43.386  40.866  14.963
24580W        W88513  43.967  18.165  11.089
24581W        W88514   0.860   7.383   3.155
24582W        W88515  19.675  34.584   0.440
24583W        W88516   8.353  11.265   1.759
24584W        W88517  11.149  27.513   4.838
24585W        W88518  16.575  20.226  13.863
24586W        W88519  34.600  12.143  14.788
24587W        W88520  19.674   1.877  10.908
24588W        W88521  37.858  17.568   4.330
24589W        W88522   2.230  18.057  12.513
24590W        W88523   6.267  28.543   4.161
24591W        W88524  29.494  33.485  12.960
24592W        W88525   9.724  33.484   4.822
24593W        W88526  35.931  20.069  12.967
24594W        W88527  37.341  14.243  12.016
24595W        W88528   9.180  41.904  13.924
24596W        W88529  42.994  11.312   0.922
24597W        W88530  19.623  11.267  12.016
24598W        W88531   7.251   7.337  13.509
24599W        W88532  44.980  26.161   0.331
24600W        W88533   3.316  25.640  14.759
24601W        W88534  41.394  38.987   3.175
24602W        W88535   1.897  19.559   0.412
24603W        W88536  12.706   4.300   4.756
24604W        W88537  16.188  26.118   4.145
24605W        W88538  21.658  15.763   3.836
24606W        W88539  42.290  28.093   4.315
24607W        W88540  13.130   2.468  14.779
24608W        W88541   7.706  40.907  12.022
24609W        W88542   8.660   9.327   4.235
24610W        W88543   1.286  33.028  13.063
24611W        W88544  11.136  37.335  13.906
24612W        W88545  44.503  18.757  14.441
24613W        W88546  11.772   2.434  13.010
24614W        W88547   0.400  39.420  11.028
24615W        W88548  35.003   7.255   4.201
24616W        W88549  30.421   4.375   4.631
24617W        W88550  38.028  42.283  14.414
24618W        W88551  31.602   0.827   2.312
24619W        W88552   3.867  33.404  12.397
24620W        W88553  23.559  38.865   4.713
24621W        W88554  13.141   8.383   0.382
24622W        W88555  44.788  22.742  14.918
24623W        W88556  21.071   2.368  14.776
24624W        W88557  34.102  21.180   3.162
24625W        W88558   4.393  22.067   4.300
24626W        W88559  22.685   3.280  11.051
24627W        W88560   7.719   3.411   1.931
24628W        W88561  24.528  38.894   1.698
24629W        W88562  34.916  13.816  14.934
24630W        W88563  36.460  14.112  13.012
24631W        W88564  41.322  20.176  13.892
24632W        W88565  42.424  18.109   1.883
24633W        W88566   1.818   5.362  14.390
24634W        W88567  34.466  19.128  13.325
24635W        W88568   7.378  37.425  10.500
24636W        W88569   8.166  11.337  10.972
24637W        W88570  11.764  21.184   0.309
24638W        W88571  39.920  19.747   3.823
24639W        W88572  31.481  22.624  12.982
24640W        W88573  28.070  26.631   2.200
24641W        W88574  35.551  20.586   4.769
24642W        W88575  13.235  35.066   0.427
24643W        W88576   9.887  19.683   1.346
24644W        W88577  31.443  44.869   3.703
24645W        W88578   6.751  13.254   0.761
24646W        W88579  41.341  22.738   2.787
24647W        W88580  27.637  36.917  14.371
24648W        W88581  13.188   1.283  13.054
24649W        W88582  21.521  33.571   1.234
24650W        W88583   2.364   5.244   0.341
24651W        W88584  28.494  10.251   4.338
24652W        W88585  38.067  30.591  13.470
24653W        W88586  26.115  37.480  12.850
24654W        W88587  42.342  13.160  13.380
24655W        W88588   3.731  41.825   1.288
24656W        W88589  21.586   5.365   4.806
24657W        W88590   5.227  11.212  13.354
24658W        W88591   4.266  36.910   0.279
24659W        W88592  20.129  43.503   0.384
24660W        W88593  41.315   6.906   4.336
24661W        W88594  13.712   0.331   2.233
24662W        W88595  10.757   8.822  14.438
24663W        W88596  25.684  16.232   0.481
24664W        W88597  11.252  39.950  11.940
24665W        W88598  40.934  36.034  10.979
24666W        W88599   7.778  13.241   1.249
24667W        W88600  10.756  25.551  12.847
24668W        W88601  44.335  20.734   3.705
24669W        W88602  20.037   0.969  14.492
24670W        W88603  23.195  15.730   2.799
24671W        W88604  43.372  13.178   1.780
24672W        W88605  17.681  16.789   2.729
24673W        W88606  35.027  43.006   3.187
24674W        W88607  30.991  10.845  11.861
24675W        W88608   4.352  35.591  14.474
24676W        W88609  27.569  43.829  13.904
24677W        W88610  32.080   0.962  12.456
24678W        W88611  25.481  33.121   2.708
24679W        W88612  43.324   5.200  13.360
24680W        W88613  41.339  42.776   5.282
24681W        W88614  43.281  34.096  12.924
24682W        W88615  34.088  31.414  13.005
24683W        W88616  22.247  19.556   4.627
24684W        W88617  28.113  15.808   2.805
24685W        W88618  24.164   8.196  14.286
24686W        W88619  39.547  35.096   2.397
24687W        W88620  11.674  29.663   2.847
24688W        W88621   9.825  23.160   1.260
24689W        W88622  22.692  28.481   1.328
24690W        W88623   7.337  38.043   2.853
24691W        W88624  40.303   2.385  13.545
24692W        W88625  30.612  16.806   2.316
24693W        W88626   7.172  14.167  12.459
24694W        W88627   8.290  11.365   2.340
24695W        W88628  40.905   3.928  10.428
24696W        W88629  20.265   4.395  10.542
24697W        W88630  43.958   1.927  13.444
24698W        W88631  40.380  41.016  10.472
24699W        W88632  12.356  32.513   2.848
24700W        W88633  39.899  32.635  11.903
24701W        W88634  27.620   6.824   0.448
24702W        W88635  24.033  14.185   5.108
24703W        W88636   0.939  12.188  12.403
24704W        W88637  14.832  29.542   2.745
24705W        W88638  13.734   2.855  10.911
24706W        W88639  21.737  11.671  11.492
24707W        W88640   8.351  28.118   2.898
24708W        W88641  38.074  44.299   0.789
24709W        W88642   0.952  16.106   4.771
24710W        W88643  29.593  15.114  13.320
24711W        W88644  34.052  32.410  11.478
24712W        W88645   2.906  27.977   1.244
24713W        W88646  39.544  40.411  14.782
24714W        W88647   9.775  39.973   0.373
24715W        W88648  14.768   8.171   2.691
24716W        W88649  18.574  14.816  13.943
24717W        W88650  35.075  36.405   3.753
24718W        W88651  19.609  11.674  11.879
24719W        W88652  29.425   4.863   0.757
24720W        W88653   4.284  15.259  11.541
24721W        W88654  24.158   3.753  13.513
24722W        W88655   4.327  27.167  14.901
24723W        W88656  10.347   4.356   2.893
24724W        W88657  32.496  15.715   0.412
24725W        W88658  41.487  39.499  12.882
24726W        W88659  37.413   8.760  12.555
24727W        W88660  30.471   8.332  13.368
24728W        W88661   3.365  39.390  12.395
24729W        W88662  28.019  38.463  14.491
24730W        W88663  43.959  32.419  13.817
24731W        W88664   9.824  15.258   1.793
24732W        W88665   9.336  37.977  10.620
24733W        W88666   6.411   2.812  10.887
24734W        W88667  23.046  14.157   1.700
24735W        W88668  29.552  21.669   1.237
24736W        W88669  31.484  18.757  10.571
24737W        W88670  39.528  42.894   0.278
24738W        W88671  28.625  33.484  14.889
24739W        W88672  42.859  16.685  13.360
24740W        W88673  41.988  37.971   0.925
24741W        W88674   7.833  20.121  13.313
24742W        W88675   2.752  13.167  13.398
24743W        W88676  36.460  37.479  14.467
24744W        W88677   7.249   6.287   9.593
24745W        W88678  41.527  10.827   3.726
24746W        W88679   5.794  21.715   1.402
24747W        W88680  30.504  19.213   4.189
24748W        W88681  32.505   4.288   2.219
24749W        W88682  38.525   4.898   0.836
24750W        W88683  35.887  41.499  13.314
24751W        W88684   2.799  38.571   3.729
24752W        W88685  17.121   7.801  11.529
24753W        W88686  37.417  41.986   3.246
24754W        W88687  18.204  29.546   4.353
24755W        W88688  36.433   8.369  14.794
24756W        W88689  14.722  29.560   5.292
24757W        W88690  32.058   8.852  14.421
24758W        W88691  22.058  41.396   0.748
24759W        W88692   8.840  26.131  12.354
24760W        W88693  42.493  25.079   3.798
24761W        W88694   5.210   3.800  11.576
24762W        W88695  33.542  23.575   4.809
24763W        W88696   0.449  32.465  14.466
24764W        W88697  18.753  22.642   2.756
24765W        W88698   6.418   4.309  13.376
24766W        W88699  12.268   3.417   0.332
24767W        W88700   6.420  34.948  13.837
24768W        W88701  30.551  19.540   3.834
24769W        W88702  16.778   7.888   5.101
24770W        W88703  21.074  33.598   4.763
24771W        W88704  44.388  22.639   2.803
24772W        W88705  28.035  27.641  10.981
24773W        W88706  11.714  35.046   2.190
24774W        W88707  23.658  33.079  12.972
24775W        W88708  20.528  37.953   1.745
24776W        W88709  14.705   1.970   0.829
24777W        W88710  34.982  12.275  11.100
24778W        W88711  38.927  44.896   3.290
24779W        W88712  11.126   9.661   3.198
24780W        W88713  25.129  19.614   0.804
24781W        W88714  40.398   1.248  11.514
24782W        W88715  34.970   1.753  13.502
24783W        W88716  26.083  30.602  14.803
24784W        W88717   7.225  29.012  13.904
24785W        W88718  36.377  11.794  11.476
24786W        W88719  12.791  28.114   2.883
24787W        W88720  12.305  27.191  14.357
24788W        W88721  31.960  10.146  11.035
24789W        W88722  16.684   8.746   2.764
24790W        W88723   5.838  37.006  11.560
24791W        W88724  14.704  20.727  12.468
24792W        W88725  40.479  10.238  12.854
24793W        W88726  22.599  11.263   0.366
24794W        W88727  23.497  35.994  11.602
24795W        W88728  19.052   6.845  13.439
24796W        W88729   3.780  12.824  12.358
24797W        W88730  43.337  24.482  12.472
24798W        W88731  32.061  41.898   3.345
24799W        W88732  17.664  21.090  13.846
24800W        W88733   0.870  21.563  14.344
24801W        W88734  26.683  43.816   2.895
24802W        W88735  43.901  44.978   4.174
24803W        W88736  33.443  28.064  10.961
24804W        W88737  34.008  24.123   2.804
24805W        W88738  16.645  43.389   4.598
24806W        W88739   5.748  32.044   1.349
24807W        W88740   3.874  11.842   1.257
24808W        W88741  21.594  21.677  13.523
24809W        W88742  19.147  25.060  14.444
24810W        W88743  42.908  10.756  11.996
24811W        W88744  44.893   0.407   2.266
24812W        W88745  30.042  43.768   3.871
24813W        W88746  35.057  30.425  11.041
24814W        W88747  38.029   9.658   0.928
24815W        W88748  21.164   3.438  13.491
24816W        W88749  37.885  29.626   3.801
24817W        W88750  38.415   2.306  12.945
24818W        W88751  19.215  13.231   3.326
24819W        W88752  19.659  33.977  14.884
24820W        W88753  25.025  42.383   4.156
24821W        W88754  13.311   9.880   3.685
24822W        W88755  30.040  17.597  14.397
24823W        W88756   8.667  10.869  11.481
24824W        W88757  15.730  44.312   3.342
24825W        W88758   4.903  40.839   4.354
24826W        W88759  15.220  31.940  12.413
24827W        W88760  43.825  39.324   3.154
24828W        W88761   0.360  30.149   1.276
24829W        W88762   0.492  41.303  12.066
24830W        W88763  28.989  19.582   1.391
24831W        W88764  44.342  23.558  14.023
24832W        W88765  28.983  18.673  13.857
24833W        W88766  16.757  13.773  13.038
24834W        W88767   6.414  36.575  13.925
24835W        W88768  41.509   6.894  11.462
24836W        W88769  39.548  11.363  14.340
24837W        W88770  20.698  22.621  13.943
24838W        W88771   9.674  27.496  12.942
24839W        W88772  19.157  30.043  14.892
24840W        W88773  16.752  38.863  12.857
24841W        W88774  11.207   8.876   0.380
24842W        W88775  41.970  28.992  11.424
24843W        W88776  29.460  30.468  13.925
24844W        W88777   4.249  37.377  11.487
24845W        W88778  29.161  38.964   2.221
24846W        W88779  29.640  44.371  11.024
24847W        W88780   4.220  27.684   1.760
24848W        W88781  26.124   4.739  13.807
24849W        W88782  33.425  40.893   4.789
24850W        W88783  13.335  25.962  14.948
24851W        W88784  32.932   4.296   1.897
24852W        W88785   0.760  18.579  12.027
24853W        W88786  40.976  43.373  14.847
24854W        W88787  38.820  16.077  11.570
24855W        W88788  13.845  19.230   1.726
24856W        W88789  16.719   0.383  12.037
24857W        W88790  35.992  21.742   3.830
24858W        W88791  31.550  10.379   0.479
24859W        W88792  19.687  23.683  14.357
24860W        W88793  30.478   9.292   0.821
24861W        W88794  34.003  28.095  11.903
24862W        W88795  35.571  41.411   4.701
24863W        W88796  42.399  10.279   4.654
24864W        W88797  22.551  38.992  12.461
24865W        W88798  33.934   9.229  14.949
24866W        W88799   3.743   6.389   3.306
24867W        W88800  39.342  33.528  12.036
24868W        W88801  19.113  34.016   1.912
24869W        W88802  19.266   1.467  13.964
24870W        W88803  41.354  29.515   3.175
24871W        W88804  29.619   9.716  13.363
24872W        W88805   9.689  40.383  12.488
24873W        W88806  31.987  35.979  14.497
24874W        W88807  21.743  38.483  11.868
24875W        W88808  20.686   1.861   3.714
24876W        W88809   8.717  23.548  11.962
24877W        W88810  21.534  24.103   1.285
24878W        W88811  39.925  38.430   3.658
24879W        W88812  33.916  34.556  10.944
24880W        W88813   4.866   2.471   0.817
24881W        W88814  30.053  23.160  12.394
24882W        W88815   0.406  27.062  12.083
24883W        W88816  38.333  25.569   2.666
24884W        W88817  26.471  18.631   0.308
24885W        W88818  41.336  29.641  11.122
24886W        W88819  32.001  36.427   4.119
24887W        W88820   4.901  41.523   2.727
24888W        W88821  27.159  19.246   3.195
24889W        W88822  12.145   9.647   2.783
24890W        W88823  33.043  25.051   3.682
24891W        W88824  14.589  14.657   1.737
24892W        W88825   6.800  38.953   1.310
24893W        W88826  15.741  24.659  10.566
24894W        W88827  10.371  43.422  10.495
24895W        W88828  33.114   5.789   4.172
24896W        W88829  13.778   3.785  13.026
24897W        W88830  44.765   4.886   0.258
24898W        W88831  22.243   2.720   0.365
24899W        W88832  13.285   6.776  12.873
24900W        W88833  38.436  32.929   0.355
24901W        W88834  17.211  31.059   1.255
24902W        W88835  18.235  10.221  12.833
24903W        W88836  39.332  14.830  10.935
24904W        W88837  36.012  36.886  11.538
24905W        W88838  27.002  42.009   1.911
24906W        W88839   8.727  27.167   2.705
24907W        W88840   5.437  39.815   3.819
24908W        W88841  33.994  31.125  12.477
24909W        W88842  33.937   8.838   1.796
24910W        W88843  36.442  33.899  12.871
24911W        W88844   5.701   2.273  12.489
24912W        W88845   9.229  31.601   1.886
24913W        W88846  32.469  26.502   1.290
24914W        W88847  12.699  14.173   0.272
24915W        W88848  36.428  34.409  14.014
24916W        W88849  30.493  12.828   1.883
24917W        W88850  29.046  40.835   2.263
24918W        W88851  33.939   3.441   0.369
24919W        W88852  43.295   6.817   1.885
24920W        W88853  42.834  28.956  12.380
24921W        W88854   8.735  23.143   4.334
24922W        W88855   6.868  31.460  10.621
24923W        W88856  23.716  39.416   3.303
24924W        W88857  24.668   9.309   0.862
24925W        W88858  39.451  41.497   2.223
24926W        W88859  25.533   7.801  11.986
24927W        W88860  30.642   6.297  10.454
24928W        W88861  36.070  44.458   2.736
24929W        W88862  17.244  30.947  13.017
24930W        W88863  33.942  13.712   4.646
24931W        W88864  41.358  41.509   3.817
24932W        W88865  23.014   9.308  12.365
24933W        W88866  14.618  25.981   3.683
24934W        W88867  33.088  43.913   3.378
24935W        W88868  39.012  26.659  13.444
24936W        W88869  34.042   2.876  14.931
24937W        W88870  41.499   3.917  13.419
24938W        W88871   6.379  13.790   9.990
24939W        W88872  30.932  15.138  11.460
24940W        W88873  36.914  13.782  12.543
24941W        W88874  35.457  28.088  11.050
24942W        W88875  27.497  22.721  13.456
24943W        W88876  19.250   7.264   4.803
24944W        W88877  31.603  29.057   4.154
24945W        W88878  29.520  37.491  11.114
24946W        W88879  10.212  27.138  11.525
24947W        W88880   4.377  31.126   2.765
24948W        W88881  28.936   7.245   1.859
24949W        W88882  20.185  29.452  10.571
24950W        W88883   1.300  33.415  13.794
24951W        W88884   6.243  43.834  14.826
24952W        W88885  13.838  15.114  14.325
24953W        W88886  12.837  16.283   2.333
24954W        W88887   6.383   1.384   3.307
24955W        W88888  31.961  26.007   3.324
24956W        W88889  35.012  35.413  10.951
24957W        W88890  42.949  12.855   2.733
24958W        W88891   8.734  40.816  12.000
24959W        W88892   8.403  11.776   3.765
24960W        W88893  42.900   5.365  13.005
24961W        W88894  34.951  18.125  10.551
24962W        W88895   7.204   5.879  14.363
24963W        W88896   6.204  14.340   0.841
24964W        W88897  22.161  38.475   4.728
24965W        W88898  29.075   3.393   4.605
24966W        W88899  30.547  30.597  12.508
24967W        W88900  35.931  17.621   2.185
24968W        W88901  14.701  12.314   1.370
24969W        W88902  24.021  30.084  12.523
24970W        W88903  14.333  31.086  13.799
24971W        W88904  20.552  14.681   2.281
24972W        W88905  41.902  37.577  13.041
24973W        W88906  41.432  23.028  11.477
24974W        W88907  40.949   2.242  13.506
24975W        W88908  13.150   8.753  14.390
24976W        W88909  34.888  20.711   4.816
24977W        W88910  17.557  42.024  11.566
24978W        W88911   1.944  40.308   3.367
24979W        W88912  33.006  35.062   2.671
24980W        W88913  30.477  38.383  13.366
24981W        W88914  12.262  35.860   0.314
24982W        W88915  43.896  17.741   1.785
24983W        W88916  15.760   7.697  12.840
24984W        W88917   8.801  33.563  13.000
24985W        W88918  39.957   8.161  13.989
24986W        W88919  44.853  13.713  13.825
24987W        W88920  23.177  27.515  14.801
24988W        W88921   8.880  10.824  14.873
24989W        W88922  35.499  23.609  14.763
24990W        W88923  15.159  14.618  13.375
24991W        W88924  44.279  39.884   2.715
24992W        W88925  12.315  16.279  10.498
24993W        W88926   4.863  44.919  10.969
24994W        W88927  28.511   7.861  12.387
24995W        W88928  28.635  16.197   3.857
24996W        W88929  15.273  39.997   5.165
24997W        W88930   2.355   1.249   2.370
24998W        W88931  33.066   3.712   3.262
24999W        W88932  31.897  16.318   2.818
25000W        W88933  29.101  25.025  14.304
25001W        W88934  37.917  24.573  13.410
25002W        W88935  39.859  22.533   0.288
25003W        W88936  37.076  33.451  12.346
25004W        W88937  27.172  21.183  11.083
25005W        W88938  44.876   2.296  10.538
25006W        W88939  20.591  23.201  10.421
25007W        W88940  17.273  16.636  10.995
25008W        W88941  32.080  33.917   3.236
25009W        W88942  12.854  11.220  13.925
25010W        W88943  27.660  20.602  13.862
25011W        W88944  44.949  36.036  14.877
25012W        W88945  23.023  16.317  12.353
25013W        W88946  20.560   6.821   0.913
25014W        W88947  10.776  37.929   4.616
25015W        W88948  39.962  32.418  14.461
25016W        W88949   0.426  37.030  14.445
25017W        W88950  22.551  15.277   2.746
25018W        W88951  32.478  13.299   1.374
25019W        W88952  14.261  33.975   2.328
25020W        W88953  24.519  32.531  13.867
25021W        W88954  14.674  10.794   4.227
25022W        W88955  30.613   3.228   4.650
25023W        W88956  43.493  10.697  14.410
25024W        W88957   3.760  21.209   5.191
25025W        W88958  15.706  26.173  11.051
25026W        W88959  44.899  28.010  10.981
25027W        W88960  11.749  12.296   2.251
25028W        W88961  41.808   2.268   2.897
25029W        W88962   7.324  25.113  11.886
25030W        W88963   4.914  12.249   5.569
25031W        W88964  26.651  42.430  11.103
25032W        W88965  36.542  39.811  11.048
25033W        W88966  41.352  40.876   1.237
25034W        W88967  29.993  17.209  10.430
25035W        W88968  25.481  30.072   4.701
25036W        W88969  25.219  29.082  11.863
25037W        W88970  39.840  18.134  12.027
25038W        W88971  28.469  41.344  11.455
25039W        W88972  33.625  28.153   0.892
25040W        W88973  16.740  17.719  11.033
25041W        W88974  41.971  10.301  13.947
25042W        W88975  24.488  20.658  14.851
25043W        W88976  42.433  27.690   2.326
25044W        W88977  18.600  43.495  10.433
25045W        W88978   9.345  30.143  11.449
25046W        W88979  12.636  19.591  13.347
25047W        W88980  20.634  16.729   0.946
25048W        W88981  40.873  11.194   3.773
25049W        W88982  14.773  19.102  10.506
25050W        W88983  18.627   1.842   4.165
25051W        W88984  14.121  38.894  11.428
25052W        W88985  42.390  13.784   2.830
25053W        W88986  23.035   8.295  13.810
25054W        W88987  44.336  18.640   3.819
25055W        W88988  12.767  44.392  13.806
25056W        W88989  44.491   0.915   2.673
25057W        W88990  17.688  13.802   2.215
25058W        W88991   7.718   3.854   0.458
25059W        W88992  20.103   1.899  14.881
25060W        W88993  22.169  14.742  14.456
25061W        W88994  11.237  42.313   4.155
25062W        W88995   0.765  25.686   4.737
25063W        W88996  44.312  22.133  11.521
25064W        W88997  33.129   3.379  11.886
25065W        W88998   1.303  21.148  10.499
25066W        W88999   4.418  27.618  14.374
25067W        W89000  23.011  36.975  12.431
25068W        W89001   7.207  21.530  13.354
25069W        W89002   4.723  38.431  10.485
25070W        W89003  28.175  12.229  10.964
25071W        W89004  22.213  11.317  10.079
25072W        W89005  22.696  10.265   4.161
25073W        W89006  29.509  29.049  12.545
25074W        W89007  21.627  20.186  12.354
25075W        W89008  13.175  22.021  11.981
25076W        W89009  21.707   9.374  11.436
25077W        W89010  41.401  38.964  11.120
25078W        W89011  27.015   2.417   0.961
25079W        W89012  29.549   4.387   0.745
25080W        W89013   5.713  21.598  10.973
25081W        W89014  34.930  36.494   1.786
25082W        W89015  33.992  35.883  12.960
25083W        W89016   4.718  20.764  12.429
25084W        W89017  23.704   8.792   2.780
25085W        W89018   1.319   2.723  12.339
25086W        W89019  14.813  36.457  14.276
25087W        W89020  29.939   5.271   1.778
25088W        W89021  25.567  39.951   3.677
25089W        W89022   9.882  38.335   4.637
25090W        W89023   5.286   5.729  14.941
25091W        W89024  18.662   9.871  10.548
25092W        W89025  13.833  14.665  11.407
25093W        W89026  23.065   1.910  14.445
25094W        W89027  27.993  18.179  13.354
25095W        W89028  13.694  38.056   4.817
25096W        W89029  35.408  22.135   3.208
25097W        W89030  26.568  16.195  12.903
25098W        W89031   8.880   7.393  12.424
25099W        W89032  29.498   3.847   4.778
25100W        W89033  32.004  15.309  14.501
25101W        W89034  35.950  24.512  13.474
25102W        W89035  33.554  20.605   1.420
25103W        W89036   3.883   0.349  14.879
25104W        W89037  36.394  21.676   4.165
25105W        W89038  37.471  33.939  11.576
25106W        W89039  30.531  20.595  10.561
25107W        W89040  35.043   7.771   3.674
25108W        W89041  13.688  22.526  14.350
25109W        W89042  22.216   7.248   3.262
25110W        W89043  17.087   8.674  12.352
25111W        W89044  35.399   4.429  11.090
25112W        W89045  21.605  26.152   2.206
25113W        W89046  10.784  39.543   1.785
25114W        W89047   3.721  40.824   1.430
25115W        W89048  18.760   5.731   3.300
25116W        W89049   0.898  14.175  12.479
25117W        W89050  37.470  42.474   3.266
25118W        W89051  17.792  28.638  10.488
25119W        W89052   8.711  38.970   4.175
25120W        W89053  32.409  26.521   4.145
25121W        W89054  19.214  32.514   0.776
25122W        W89055  36.902  28.556  11.545
25123W        W89056  24.048  16.705   3.661
25124W        W89057  44.914  12.743  13.351
25125W        W89058  30.909  21.119  13.394
25126W        W89059  20.585  14.686  13.864
25127W        W89060  12.662  31.995  14.292
25128W        W89061  15.772  17.801  10.521
25129W        W89062   8.708   3.403  11.041
25130W        W89063  16.603  11.211  12.521
25131W        W89064  11.646  33.606  10.476
25132W        W89065  22.206  42.296   0.290
25133W        W89066  41.514  11.846  11.087
25134W        W89067  36.056  35.978  12.899
25135W        W89068  11.817  31.560  12.984
25136W        W89069  10.667   7.403  11.934
25137W        W89070   9.713  12.284  13.906
25138W        W89071  17.801   3.278   1.325
25139W        W89072  37.489  18.091  12.566
25140W        W89073   0.386  36.461  11.007
25141W        W89074  18.156  13.781   2.797
25142W        W89075  37.391   9.355   0.451
25143W        W89076  10.638  20.532   0.330
25144W        W89077  18.166  31.583  10.563
25145W        W89078  20.694  35.563   1.260
25146W        W89079  42.823  17.765   2.664
25147W        W89080  22.509  23.565   2.689
25148W        W89081   7.356  31.594   1.787
25149W        W89082  43.964   1.248  12.403
25150W        W89083  44.860  13.292   3.814
25151W        W89084  37.368  19.214  12.972
25152W        W89085  33.897  14.247   2.817
25153W        W89086  24.629  22.551   1.316
25154W        W89087  33.448  11.710   0.259
25155W        W89088   2.332   8.235  13.918
25156W        W89089  11.167  10.793  14.480
25157W        W89090  30.100  32.939   0.932
25158W        W89091  44.425  33.625  11.397
25159W        W89092   5.252   1.344  14.433
25160W        W89093  43.293  33.108  10.961
25161W        W89094  31.963  30.022   3.650
25162W        W89095  43.375  34.377  10.022
25163W        W89096  38.980   1.271  14.275
25164W        W89097  33.546  36.039  10.508
25165W        W89098  30.977  11.712  10.526
25166W        W89099  44.765  26.515  12.543
25167W        W89100   6.785   3.841   4.194
25168W        W89101  36.583  40.915   2.716
25169W        W89102  39.381  10.771   2.726
25170W        W89103  33.604  16.090   2.884
25171W        W89104  31.119  37.888  12.363
25172W        W89105  38.987  24.534  13.836
25173W        W89106  35.602  24.684  11.565
25174W        W89107  18.721  18.736   2.305
25175W        W89108  20.065  37.862   0.273
25176W        W89109  27.690   6.799  10.981
25177W        W89110  11.332   6.750  12.418
25178W        W89111  33.596  11.689  11.482
25179W        W89112  17.756  14.295   0.761
25180W        W89113  32.538  11.747  13.353
25181W        W89114  29.995  42.870   2.790
25182W        W89115  27.181  17.233  13.960
25183W        W89116   7.826  14.119  14.456
25184W        W89117   7.747  38.849   2.758
25185W        W89118   5.383   5.272   3.665
25186W        W89119  32.959  22.034   0.807
25187W        W89120  29.641  39.438  11.031
25188W        W89121  29.580  20.175   1.775
25189W        W89122   5.290   0.332   3.786
25190W        W89123  30.104  16.230   2.350
25191W        W89124  34.511  19.700  14.296
25192W        W89125   2.843   7.779  10.528
25193W        W89126  42.397  15.188  12.961
25194W        W89127  43.805   5.305   2.890
25195W        W89128   4.844  11.627  12.945
25196W        W89129  27.549   8.260   1.835
25197W        W89130  44.851  18.127   0.824
25198W        W89131  27.646  25.039   4.603
25199W        W89132   5.193  17.109  13.821
25200W        W89133  23.646  15.586   1.891
25201W        W89134   1.418  35.997   3.242
25202W        W89135  26.198   1.965   5.191
25203W        W89136  35.912  32.436   0.738
25204W        W89137  40.547   1.737  12.465
25205W        W89138   5.246   5.197   0.927
25206W        W89139  28.451  43.421  10.074
25207W        W89140  14.782  30.027   0.457
25208W        W89141  22.237  21.753   2.690
25209W        W89142  11.359   4.711  13.930
25210W        W89143   4.361  43.309  13.329
25211W        W89144   0.863  18.262   2.735
25212W        W89145   4.431  10.638   2.893
25213W        W89146  23.705  16.739   4.142
25214W        W89147  20.206  20.741   2.764
25215W        W89148   2.351  15.644  14.854
25216W        W89149  18.592  16.095   1.919
25217W        W89150  44.462   4.920   1.727
25218W        W89151  32.431   9.831   1.211
25219W        W89152  31.906  12.142  12.918
25220W        W89153  42.470  37.843   4.292
25221W        W89154   7.784  31.539  11.582
25222W        W89155  13.815  25.639   0.913
25223W        W89156   5.746  29.113  10.601
25224W        W89157  36.475   2.324   2.299
25225W        W89158   1.284   0.867   4.299
25226W        W89159  21.227  40.376   0.945
25227W        W89160  26.154  21.524  14.278
25228W        W89161  30.153   2.737   0.810
25229W        W89162  34.044  34.559   4.796
25230W        W89163  37.042   6.764  14.295
25231W        W89164  14.191  22.605   3.774
25232W        W89165  37.956   5.249  11.025
25233W        W89166  22.036  26.673   4.684
25234W        W89167   0.284  26.100  14.866
25235W        W89168  31.046  32.490   4.812
25236W        W89169  37.478  39.012  12.495
25237W        W89170  34.012  26.079   1.858
25238W        W89171  37.041  39.554   2.833
25239W        W89172  20.056  25.984  14.878
25240W        W89173  18.586   6.311  11.088
25241W        W89174  32.967  34.894   4.314
25242W        W89175   5.225   6.252   3.743
25243W        W89176  39.000  27.686   3.340
25244W        W89177  11.192  37.413  13.522
25245W        W89178  28.956  43.300  14.444
25246W        W89179  12.791  27.540  11.571
25247W        W89180  15.253   2.840   0.480
25248W        W89181  12.779   3.282  11.106
25249W        W89182   2.825  28.064   3.298
25250W        W89183  41.933  11.236  14.811
25251W        W89184   9.297  23.150  14.014
25252W        W89185   8.252  13.729  11.429
25253W        W89186  10.204   3.440  13.426
25254W        W89187   9.734  16.197   4.811
25255W        W89188  29.941   6.364   4.233
25256W        W89189  44.429  43.316   2.742
25257W        W89190  39.908  10.372   0.334
25258W        W89191  11.835  37.440  11.474
25259W        W89192  15.615   2.891  13.337
25260W        W89193  17.130   4.319   1.791
25261W        W89194   1.782  43.450  10.501
25262W        W89195  27.641  42.342   2.744
25263W        W89196  32.065  43.925  12.451
25264W        W89197  12.620   7.323  13.327
25265W        W89198   5.333  39.560   2.800
25266W        W89199  43.792  21.029  13.973
25267W        W89200   0.377  15.116   3.252
25268W        W89201   4.829  36.553  11.098
25269W        W89202  14.801  27.646  10.606
25270W        W89203  11.752  37.937   1.286
25271W        W89204  19.543  17.566  13.921
25272W        W89205  13.763  12.737  14.436
25273W        W89206  15.249  39.508  10.120
25274W        W89207  34.431   3.223  14.877
25275W        W89208  18.685  25.570  11.108
25276W        W89209  16.606  14.611  10.998
25277W        W89210   8.807  24.178  13.883
25278W        W89211  13.226  40.024   1.299
25279W        W89212  29.126  18.096  13.818
25280W        W89213  34.090  26.132  13.969
25281W        W89214  32.956   7.701  14.827
25282W        W89215  19.131   6.844  10.952
25283W        W89216  39.514  20.085  11.372
25284W        W89217  33.080  12.822   1.431
25285W        W89218  18.631  39.391  13.801
25286W        W89219  29.536  38.342   0.759
25287W        W89220  35.861  36.039   3.269
25288W        W89221  40.037  27.679  14.301
25289W        W89222  12.352  36.847  14.416
25290W        W89223   5.849   5.929   3.739
25291W        W89224  34.031  11.722  10.436
25292W        W89225  27.648  37.379  12.539
25293W        W89226  43.498  31.128   0.743
25294W        W89227   9.746  36.394  14.349
25295W        W89228  11.292  24.054  10.926
25296W        W89229  20.197   5.794  12.361
25297W        W89230  20.161  37.443   4.134
25298W        W89231  20.574  21.254   2.852
25299W        W89232  39.453  39.014  11.933
25300W        W89233   7.315  23.162   3.248
25301W        W89234  44.963  26.072  13.822
25302W        W89235  30.030  37.054   3.844
25303W        W89236  31.011  40.831   2.876
25304W        W89237  12.673  38.516  14.383
25305W        W89238  12.296   1.411  13.320
25306W        W89239  18.137  33.540  14.010
25307W        W89240  10.639   6.730  11.453
25308W        W89241  12.255  18.589  11.611
25309W        W89242  12.842  14.160   4.341
25310W        W89243  33.922   9.279   4.159
25311W        W89244  42.853   7.257  12.488
25312W        W89245   5.374  24.219  13.984
25313W        W89246  21.048   1.795  11.929
25314W        W89247  34.086  15.310   4.302
25315W        W89248  15.098  26.668  14.424
25316W        W89249  10.683   7.778  14.833
25317W        W89250   9.315  14.623   1.377
25318W        W89251  36.498  37.463   0.341
25319W        W89252  14.147   7.679  11.063
25320W        W89253  13.139  11.257  12.022
25321W        W89254  23.194  12.291   3.869
25322W        W89255  40.984  18.102  12.095
25323W        W89256  11.167  15.291   0.347
25324W        W89257  38.483  15.214   3.703
25325W        W89258   1.450  10.722   1.924
25326W        W89259  42.839  41.935  10.615
25327W        W89260  35.435  19.573   4.209
25328W        W89261  29.978  31.044  13.443
25329W        W89262   3.860   3.454  12.377
25330W        W89263  18.780  20.110  10.073
25331W        W89264  24.090  19.262  10.619
25332W        W89265  33.498  36.412  10.944
25333W        W89266   5.814  26.508   4.184
25334W        W89267   0.824  15.248   0.298
25335W        W89268  44.405  40.962  11.882
25336W        W89269  27.178  42.896   0.351
25337W        W89270   4.878  44.459   4.247
25338W        W89271  41.003   2.939   1.333
25339W        W89272  32.567  15.606   4.771
25340W        W89273  15.306   4.433  13.408
25341W        W89274   2.313  28.952   3.806
25342W        W89275  11.315  23.080  11.036
25343W        W89276  26.080  40.906   0.820
25344W        W89277   4.338  20.623  14.466
25345W        W89278  15.635  33.915   4.644
25346W        W89279  34.889  15.194  14.427
25347W        W89280  32.554  44.884   0.372
25348W        W89281  19.663   2.903  12.437
25349W        W89282  32.610  15.580  10.460
25350W        W89283  18.714  43.801  11.431
25351W        W89284  44.341  40.908  10.919
25352W        W89285  34.587  14.658  13.407
25353W        W89286  25.689  43.938   0.458
25354W        W89287  14.812  11.863  12.848
25355W        W89288  27.987  14.324   0.861
25356W        W89289  29.444  31.577  13.522
25357W        W89290  13.143  28.466  14.440
25358W        W89291  22.664  12.799  13.350
25359W        W89292   2.360  11.201   0.790
25360W        W89293   6.792  40.844   0.900
25361W        W89294  19.208   5.377  10.991
25362W        W89295  22.612  10.220  11.979
25363W        W89296  12.213  31.638  13.937
25364W        W89297  15.279  40.037   0.382
25365W        W89298  19.283   2.755   2.835
25366W        W89299   0.855  25.619   3.197
25367W        W89300  14.196   1.295   4.740
25368W        W89301  27.502  14.338   1.422
25369W        W89302  29.980  38.352  14.360
25370W        W89303   0.966  26.034   4.836
25371W        W89304   7.171  33.000  14.973
25372W        W89305  12.362   9.293   2.687
25373W        W89306  28.965  21.159   3.183
25374W        W89307  37.888  40.045  14.463
25375W        W89308  44.758  31.537   2.192
25376W        W89309   8.341   1.904   0.251
25377W        W89310  31.079  37.885   4.150
25378W        W89311  29.437  37.079   3.310
25379W        W89312  44.435  32.002  12.479
25380W        W89313  27.072  20.125   0.364
25381W        W89314  28.104  27.608  14.852
25382W        W89315   2.344  18.053   0.745
25383W        W89316  37.415   7.398   4.150
25384W        W89317  26.649  29.669   0.285
25385W        W89318  14.272  28.976  13.344
25386W        W89319  40.918   9.807   0.751
25387W        W89320  18.743  37.881   0.301
25388W        W89321  18.766  43.458   1.289
25389W        W89322  35.090   0.803  13.934
25390W        W89323  11.189   5.316   4.715
25391W        W89324  11.347   0.959   3.763
25392W        W89325  25.603  24.671   1.844
25393W        W89326  38.010   9.797  12.043
25394W        W89327  30.626  30.528  11.378
25395W        W89328  26.968  27.012   3.783
25396W        W89329  18.216  38.541  12.546
25397W        W89330  28.672   0.781  13.416
25398W        W89331  40.843  13.623  11.929
25399W        W89332   5.369  39.976  14.475
25400W        W89333  42.460   9.263  14.884
25401W        W89334   8.301  14.717  14.929
25402W        W89335  30.927  21.694  14.444
25403W        W89336   7.275   0.258  11.553
25404W        W89337   9.319  18.778   2.663
25405W        W89338   6.299   2.293  13.358
25406W        W89339  35.596  23.526   4.151
25407W        W89340  43.459  11.270   1.769
25408W        W89341  37.866  30.568  11.047
25409W        W89342   6.372  25.174  13.390
25410W        W89343  13.156   0.465   0.332
25411W        W89344  42.788  23.012  13.813
25412W        W89345   5.241  18.199  11.115
25413W        W89346  26.063   0.918   2.317
25414W        W89347  14.337  43.501  12.528
25415W        W89348  24.711  36.397   1.811
25416W        W89349   5.910  29.055  11.083
25417W        W89350  26.624  32.414  12.837
25418W        W89351  29.536  10.665  14.872
25419W        W89352  41.448   5.196   0.370
25420W        W89353  32.035   0.463  14.874
25421W        W89354  25.011   6.881  13.511
25422W        W89355  24.503  33.904   2.895
25423W        W89356  44.362  22.205   0.425
25424W        W89357  40.821  14.800   2.855
25425W        W89358  15.769  31.038   4.154
25426W        W89359  10.664  21.528   3.693
25427W        W89360  41.415   2.879  11.000
25428W        W89361  34.445   9.362   1.416
25429W        W89362  20.549  34.028  14.502
25430W        W89363   3.355  26.137   2.274
25431W        W89364  23.001  17.645  11.053
25432W        W89365  18.091  10.687  14.339
25433W        W89366   8.717  18.126   2.393
25434W        W89367  22.127  38.871  14.901
25435W        W89368  36.423   9.705  13.794
25436W        W89369  30.998  25.681  12.425
25437W        W89370   1.926   5.350   0.800
25438W        W89371   9.308   9.868  13.415
25439W        W89372  36.930   8.164  11.093
25440W        W89373  31.108  14.310   3.173
25441W        W89374  11.687  37.920  14.914
25442W        W89375   6.186   7.830  11.400
25443W        W89376   6.760  12.139   4.287
25444W        W89377   1.328  31.078   2.248
25445W        W89378   7.229  19.208  11.043
25446W        W89379  44.468   1.436   0.291
25447W        W89380  18.672  17.099  13.865
25448W        W89381  16.729  26.593   2.322
25449W        W89382  18.224  41.994  11.025
25450W        W89383   4.447   6.236  10.520
25451W        W89384  32.906  23.023   0.305
25452W        W89385  42.512  15.122  13.808
25453W        W89386  18.644  15.306   4.725
25454W        W89387   2.352  25.055   0.746
25455W        W89388  33.462   5.701  13.849
25456W        W89389  43.301  36.883  14.869
25457W        W89390   6.297   1.894  12.851
25458W        W89391   7.897   7.283   5.256
25459W        W89392  22.747  24.723   0.481
25460W        W89393  12.362  16.091   4.191
25461W        W89394  21.146  23.233   2.208
25462W        W89395  18.211  43.807   4.125
25463W        W89396  13.692  44.435  11.599
25464W        W89397   3.741  15.727   1.800
25465W        W89398  28.086  13.717  12.048
25466W        W89399  23.696  21.700  13.539
25467W        W89400  42.028  17.794  13.314
25468W        W89401  25.057  41.386  13.848
25469W        W89402   6.294  25.654  12.839
25470W        W89403  40.329  35.371   0.951
25471W        W89404   0.749  34.450  11.924
25472W        W89405  25.526   7.791  12.523
25473W        W89406  12.730  38.383   4.685
25474W        W89407  42.420  41.478  10.446
25475W        W89408   9.675   4.703  12.925
25476W        W89409  26.503  24.027   4.773
25477W        W89410  35.536   6.218   3.362
25478W        W89411  36.580   3.785   1.924
25479W        W89412  18.583   6.323   4.234
25480W        W89413  21.660  32.004   9.966
25481W        W89414  33.405  31.948  13.963
25482W        W89415  28.635  37.970  12.908
25483W        W89416  30.581  10.824  12.061
25484W        W89417  17.094  30.569   2.787
25485W        W89418  15.113  29.451  12.386
25486W        W89419  10.173  41.313  13.014
25487W        W89420  27.473  39.962   0.902
25488W        W89421  39.540  10.241   3.755
25489W        W89422  22.179  17.691  13.421
25490W        W89423  31.906  11.330  14.026
25491W        W89424  24.554  12.837  10.029
25492W        W89425  27.605  32.571  13.483
25493W        W89426  21.144  25.975   1.404
25494W        W89427   3.421  16.112  13.543
25495W        W89428  22.166  44.977  11.904
25496W        W89429   8.259  26.545   2.895
25497W        W89430  39.979  35.500   4.722
25498W        W89431  24.150  13.284   3.817
25499W        W89432  44.972  41.945  14.426
25500W        W89433   5.217  42.310   3.664
25501W        W89434  42.979  37.347  13.041
25502W        W89435  12.675  44.301   2.324
25503W        W89436  32.462  28.672   1.858
25504W        W89437  27.689  13.216  11.393
25505W        W89438   2.834   5.288   2.247
25506W        W89439  22.230  12.232   0.399
25507W        W89440  44.263  26.699   3.192
25508W        W89441   2.259  20.765  11.906
25509W        W89442   3.751  43.415  12.935
25510W        W89443   7.331  32.446  10.941
25511W        W89444  24.554  23.553   3.256
25512W        W89445  13.785   3.838   2.325
25513W        W89446  26.136  35.961   0.396
25514W        W89447  11.152   2.270  11.088
25515W        W89448  20.175  27.009   0.909
25516W        W89449  36.467  37.899  14.374
25517W        W89450  13.740  28.124  10.478
25518W        W89451  33.605  20.606   0.369
25519W        W89452   2.337  26.187   3.238
25520W        W89453  14.099  26.572   3.152
25521W        W89454  23.195   5.426  11.087
25522W        W89455   8.374  37.502   1.800
25523W        W89456   2.274  44.775  14.366
25524W        W89457   7.186  22.724   0.397
25525W        W89458  17.146  40.051  13.496
25526W        W89459   1.735  42.366   4.702
25527W        W89460  32.003   7.694   1.428
25528W        W89461  35.542  25.965  11.509
25529W        W89462  27.516   3.949  13.526
25530W        W89463  32.621  18.112  14.313
25531W        W89464  37.082  17.278   2.327
25532W        W89465   0.306  36.018  13.898
25533W        W89466   3.722  21.185   2.413
25534W        W89467  35.575  22.057  11.965
25535W        W89468  18.780  33.933  13.432
25536W        W89469  20.754  19.588   1.926
25537W        W89470  23.677  17.778   0.909
25538W        W89471  34.012  16.735  12.986
25539W        W89472  20.177  17.734  12.865
25540W        W89473   0.909  27.021   0.254
25541W        W89474  41.373   2.796   0.268
25542W        W89475  24.609  21.141   4.285
25543W        W89476  41.332  33.020   1.934
25544W        W89477   6.204  32.598  10.965
25545W        W89478  13.689   1.399   1.821
25546W        W89479  35.956  17.233  13.994
25547W        W89480  35.601   3.305   3.160
25548W        W89481  16.714  16.090  11.013
25549W        W89482  28.038  12.774  10.633
25550W        W89483  11.668  21.592   1.811
25551W        W89484  35.049  35.411  13.425
25552W        W89485  23.151  28.165  14.426
25553W        W89486  26.967  20.075   1.406
25554W        W89487  20.603  21.106  14.298
25555W        W89488   8.828  44.391   2.686
25556W        W89489  23.046  21.684   1.376
25557W        W89490  19.087  44.859   1.302
25558W        W89491  43.942  43.988   1.821
25559W        W89492   1.402   3.320   1.798
25560W        W89493  32.135  14.595   1.245
25561W        W89494  42.949  13.297  12.474
25562W        W89495  26.670  15.779  11.518
25563W        W89496  23.715   8.690  10.058
25564W        W89497  23.699  10.753   1.434
25565W        W89498  31.923  25.068   0.760
25566W        W89499  14.655  19.155   1.893
25567W        W89500  21.660   9.811   0.291
25568W        W89501  19.282  35.016   4.757
25569W        W89502   9.788   8.827  13.480
25570W        W89503  44.915  19.689   4.615
25571W        W89504  32.100  33.974   0.328
25572W        W89505  43.941  32.013   2.279
25573W        W89506  12.809  27.981   2.199
25574W        W89507  40.849   8.192  14.921
25575W        W89508  27.577  34.537   2.219
25576W        W89509  17.586  43.445  12.995
25577W        W89510  37.894   6.369   3.329
25578W        W89511  28.670  14.335   1.714
25579W        W89512  13.739   5.796   3.843
25580W        W89513  38.873  22.538  12.916
25581W        W89514   5.891  14.599   0.922
25582W        W89515  20.745  43.006  10.105
25583W        W89516  19.616  25.985   5.272
25584W        W89517  27.627   4.916   2.842
25585W        W89518  33.528  42.791  13.498
25586W        W89519  23.547  25.210  10.941
25587W        W89520  22.546   8.357   0.301
25588W        W89521   4.875  39.522  13.430
25589W        W89522  30.581  22.704  11.121
25590W        W89523   0.797   4.393   0.343
25591W        W89524  29.122  32.397   0.457
25592W        W89525  11.273  33.464  11.534
25593W        W89526   8.717  41.972  10.463
25594W        W89527  24.992  21.211  12.538
25595W        W89528   0.812  28.487  14.847
25596W        W89529   6.306  15.290  12.982
25597W        W89530  30.444  23.131   4.319
25598W        W89531  32.572   5.333   2.386
25599W        W89532  22.594  30.129  13.540
25600W        W89533   7.714  44.418   2.842
25601W        W89534   5.904  28.474   3.359
25602W        W89535   1.968  26.077  12.845
25603W        W89536   7.675  23.143   0.920
25604W        W89537   4.360  12.727  11.913
25605W        W89538  23.094   8.379  10.567
25606W        W89539  15.214  11.634   1.281
25607W        W89540   3.344  39.509   1.780
25608W        W89541   4.444  29.953   4.322
25609W        W89542  24.017   0.812   5.144
25610W        W89543  27.607  21.511  11.408
25611W        W89544  31.037   1.900   2.712
25612W        W89545  40.921  40.928   3.647
25613W        W89546   6.770  26.608  12.903
25614W        W89547   7.293  38.326  11.114
25615W        W89548  41.918  16.308   4.743
25616W        W89549  37.852  17.234   2.879
25617W        W89550  15.737  12.777   4.696
25618W        W89551   7.273   1.458   3.736
25619W        W89552  13.787  24.722  13.794
25620W        W89553  18.066  29.481  11.400
25621W        W89554   3.251  23.608   4.117
25622W        W89555  24.482  28.099  13.450
25623W        W89556  26.515  22.708   1.818
25624W        W89557  40.420  43.874   3.160
25625W        W89558   7.781  24.625  11.058
25626W        W89559  25.127   4.273  14.015
25627W        W89560  16.212  30.585  12.950
25628W        W89561   8.388  20.090   4.301
25629W        W89562  30.434  16.251  10.924
25630W        W89563  35.014   9.787  13.029
25631W        W89564  24.561  36.590   0.944
25632W        W89565  30.977  33.419   0.869
25633W        W89566   1.330  32.430  11.007
25634W        W89567  11.195  32.046  13.448
25635W        W89568  23.225   9.672  13.360
25636W        W89569  29.641  19.209  14.320
25637W        W89570  25.696  42.886   3.226
25638W        W89571  12.716   7.909   4.231
25639W        W89572   6.906  37.987   4.647
25640W        W89573   6.725  42.432   1.235
25641W        W89574  24.485  13.168   2.364
25642W        W89575  11.743  23.216  10.412
25643W        W89576  27.477  29.966  10.614
25644W        W89577  41.475  32.539   1.360
25645W        W89578  29.445  42.834   1.739
25646W        W89579   8.659  43.288   2.358
25647W        W89580   5.241   3.343  12.450
25648W        W89581  10.792  42.011  11.400
25649W        W89582  18.744  17.180   0.952
25650W        W89583   9.754  37.890   2.838
25651W        W89584   5.337   9.368   4.650
25652W        W89585   6.374  20.678   4.762
25653W        W89586  25.140  22.135   2.352
25654W        W89587   9.285   9.178  14.760
25655W        W89588  18.768  14.601   4.193
25656W        W89589  21.672  21.692   0.923
25657W        W89590  17.606   1.426  11.383
25658W        W89591  38.916  21.028   5.311
25659W        W89592  22.685  13.169  11.453
25660W        W89593   4.864  39.055   0.807
25661W        W89594  18.216  22.202  13.888
25662W        W89595  21.097  13.698  11.590
25663W        W89596   7.199   7.404  10.998
25664W        W89597  17.069  12.623   1.835
25665W        W89598   7.863  15.323  12.379
25666W        W89599  27.074  13.308   3.809
25667W        W89600  10.742  14.742  13.837
25668W        W89601  13.174  15.610   1.823
25669W        W89602   2.782  19.048  14.892
25670W        W89603  44.292  24.980   0.253
25671W        W89604  39.004  33.910  11.567
25672W        W89605  32.499  36.450  14.870
25673W        W89606   9.335   7.195   1.767
25674W        W89607   8.870  13.281   1.407
25675W        W89608   9.176  35.481   4.116
25676W        W89609  28.486  27.178  11.469
25677W        W89610  35.856  26.989   3.338
25678W        W89611  10.257  17.275   3.369
25679W        W89612  44.923  24.644   3.734
25680W        W89613  30.549  21.219  10.460
25681W        W89614  44.339  29.441  13.495
25682W        W89615  27.074   6.793   3.639
25683W        W89616  35.871  28.446  13.872
25684W        W89617  29.473  36.011   9.935
25685W        W89618   2.330  23.700  10.907
25686W        W89619   2.457  15.217  13.011
25687W        W89620  43.294  31.154  11.034
25688W        W89621  30.480  26.679   3.810
25689W        W89622  29.982  44.395  14.957
25690W        W89623  18.222  18.070   5.306
25691W        W89624  33.500   5.757  11.459
25692W        W89625  15.796  32.558   0.815
25693W        W89626  23.071  38.953   2.687
25694W        W89627  23.522  44.417   1.770
25695W        W89628   8.201   7.183   0.387
25696W        W89629  25.215  16.674  14.784
25697W        W89630  38.962  25.204  14.507
25698W        W89631  43.389   1.424  14.432
25699W        W89632  27.594  19.063   1.370
25700W        W89633  33.104  36.030  11.599
25701W        W89634  37.854  28.151   2.337
25702W        W89635  33.939  20.158   1.904
25703W        W89636  11.270   9.221  14.824
25704W        W89637  26.489  44.302   4.609
25705W        W89638  29.601  39.977   9.991
25706W        W89639  30.026  36.573  10.600
25707W        W89640   3.893  25.687  14.828
25708W        W89641  22.711   6.330   3.193
25709W        W89642  41.422   9.714  11.488
25710W        W89643  11.665  37.874  11.401
25711W        W89644  36.012  35.974   2.186
25712W        W89645  13.790  40.890   0.260
25713W        W89646  11.373  30.558  13.512
25714W        W89647  30.981   0.907  12.519
25715W        W89648  10.731  30.639  14.000
25716W        W89649   9.313  22.507  11.080
25717W        W89650  17.561  38.482  11.437
25718W        W89651  40.945  20.088  11.937
25719W        W89652  22.714  13.286   2.289
25720W        W89653  13.145  20.100   3.850
25721W        W89654  18.227  44.895  11.864
25722W        W89655  30.037  40.856  11.973
25723W        W89656  25.584  28.627   0.845
25724W        W89657  18.074   4.937   1.826
25725W        W89658  17.619  15.290   4.286
25726W        W89659  32.002  12.785  12.479
25727W        W89660  35.044  23.057  13.366
25728W        W89661  15.806   0.389   3.365
25729W        W89662   9.800  11.319   4.699
25730W        W89663  16.807   0.743  11.032
25731W        W89664   2.260   0.976   2.254
25732W        W89665  19.244  23.219  12.042
25733W        W89666  22.733  24.147   2.363
25734W        W89667  44.454   6.409  13.425
25735W        W89668  20.071  10.740  11.567
25736W        W89669  30.972  26.550  14.826
25737W        W89670  12.349  24.503   1.900
25738W        W89671  16.078  18.232  11.553
25739W        W89672  36.987  40.898  13.849
25740W        W89673  29.046   4.217   4.646
25741W        W89674  17.756  39.843   3.355
25742W        W89675  36.421  33.434  11.587
25743W        W89676  16.072  17.555  13.470
25744W        W89677  35.057  21.716   3.265
25745W        W89678  22.550  12.207  13.978
25746W        W89679  34.491  33.547  14.800
25747W        W89680  44.360  18.727  12.930
25748W        W89681  28.930  38.380  11.388
25749W        W89682   1.447  35.468   0.760
25750W        W89683  20.160  35.388  11.471
25751W        W89684  17.794  20.623   9.476
25752W        W89685   4.366  17.179  13.425
25753W        W89686  39.354  31.613   2.288
25754W        W89687  36.427  13.338   1.277
25755W        W89688  23.052   9.252   0.953
25756W        W89689  40.335  28.138  12.377
25757W        W89690  20.589  13.623  13.993
25758W        W89691  16.609   5.715   4.127
25759W        W89692  43.414  12.697   0.384
25760W        W89693  43.849  30.145  14.960
25761W        W89694  41.514  31.440   3.344
25762W        W89695  43.907  19.085   2.202
25763W        W89696  17.298  40.364   1.716
25764W        W89697  27.113   5.904   4.297
25765W        W89698  20.070  25.156  12.967
25766W        W89699   6.679  33.073  14.786
25767W        W89700   3.283  42.346  14.315
25768W        W89701  15.760  34.503  10.624
25769W        W89702  33.420   1.865  13.925
25770W        W89703  21.151  41.949  11.492
25771W        W89704   9.211  20.074  13.402
25772W        W89705  16.090  41.825   0.828
25773W        W89706  40.836  35.039   1.845
25774W        W89707  24.164   6.348   0.737
25775W        W89708  12.783  15.267  13.544
25776W        W89709  29.944  11.336   4.324
25777W        W89710  10.190  25.100  12.940
25778W        W89711  30.592  32.456   1.873
25779W        W89712  28.033  10.227  13.469
25780W        W89713  26.702  10.698  12.485
25781W        W89714   1.868  40.968   3.823
25782W        W89715   4.721  34.113   2.796
25783W        W89716  34.079  20.261  12.851
25784W        W89717  29.661  18.117   2.750
25785W        W89718  21.069  43.506  11.098
25786W        W89719   4.355  44.415  13.471
25787W        W89720  37.537   5.879  12.051
25788W        W89721   4.703  16.812  12.057
25789W        W89722  20.531  25.567   2.412
25790W        W89723  40.911  14.278   3.690
25791W        W89724  31.115  13.132  12.090
25792W        W89725  11.844  16.637  10.467
25793W        W89726   4.837  22.700   1.785
25794W        W89727  44.975   7.398   1.272
25795W        W89728  41.446  15.753   4.697
25796W        W89729  43.397   7.345  11.562
25797W        W89730  24.991  35.510  12.841
25798W        W89731  26.474  20.045  14.838
25799W        W89732  12.809   2.463  10.470
25800W        W89733   2.416  13.761  13.310
25801W        W89734   9.696   1.281   0.358
25802W        W89735  39.525  21.689  12.450
25803W        W89736  40.001   8.702   4.283
25804W        W89737   4.432  22.192  14.940
25805W        W89738  43.462  44.974  13.041
25806W        W89739   7.860  18.782  14.931
25807W        W89740  23.716  19.690   4.242
25808W        W89741  18.573  13.117  14.277
25809W        W89742  35.460  17.305   2.359
25810W        W89743  29.927  12.362   2.817
25811W        W89744  33.411  16.228  14.285
25812W        W89745  26.611  34.419  12.547
25813W        W89746  38.014   8.762  14.838
25814W        W89747  21.248   7.848   3.240
25815W        W89748  23.553  44.890  10.643
25816W        W89749   3.858  16.689   0.424
25817W        W89750   4.796  17.785  10.458
25818W        W89751  18.781  42.478   3.312
25819W        W89752  32.440  14.153  11.953
25820W        W89753  40.381  15.288  11.381
25821W        W89754  15.769   9.291  11.926
25822W        W89755   2.795   9.158   3.737
25823W        W89756  17.118   7.412   2.812
25824W        W89757  43.974   1.838   0.944
25825W        W89758  10.293  11.216   4.633
25826W        W89759  28.659  25.675  12.471
25827W        W89760  42.880  43.948  11.487
25828W        W89761  36.408  44.849  11.566
25829W        W89762  23.183  30.597  12.921
25830W        W89763   8.743  43.791   1.717
25831W        W89764  26.658  19.142   0.289
25832W        W89765   7.207  39.810   3.675
25833W        W89766  32.031  34.479   4.601
25834W        W89767  21.034  34.567  12.013
25835W        W89768  16.632   5.366  13.826
25836W        W89769  32.015  43.838  13.914
25837W        W89770  19.701  13.730  11.049
25838W        W89771  35.489  42.438  12.904
25839W        W89772  22.716  42.315  11.987
25840W        W89773   7.907   2.956   4.340
25841W        W89774  41.512  37.440  11.444
25842W        W89775  36.094  38.397  14.500
25843W        W89776  40.474  40.008   1.215
25844W        W89777  32.946  36.461  11.498
25845W        W89778  17.585  33.962   3.309
25846W        W89779  12.760  19.188  13.450
25847W        W89780  13.139  27.588  14.464
25848W        W89781   6.731   0.757   2.299
25849W        W89782  25.585  42.388   2.320
25850W        W89783  17.167  25.549   4.174
25851W        W89784  25.110   7.698   3.199
25852W        W89785   1.357  32.427   2.334
25853W        W89786  36.568  22.065   4.737
25854W        W89787   1.430  37.546   2.411
25855W        W89788  21.654  35.954  10.407
25856W        W89789  37.369  14.268   0.745
25857W        W89790  28.998  13.610  11.116
25858W        W89791  23.144  42.019   1.214
25859W        W89792  41.981  13.709  13.529
25860W        W89793   9.882  37.509  12.067
25861W        W89794  24.205   0.911   4.191
25862W        W89795  10.748  31.919  11.989
25863W        W89796  33.505   5.344  14.956
25864W        W89797   4.916  15.273   3.380
25865W        W89798  31.968  33.593  11.406
25866W        W89799  18.593  26.145   2.332
25867W        W89800  35.001   3.300  13.846
25868W        W89801  13.312  14.693   2.857
25869W        W89802  30.632  41.811   3.809
25870W        W89803  12.680  40.450   2.380
25871W        W89804  43.922   0.293   4.754
25872W        W89805  43.826  40.990   2.785
25873W        W89806  38.467  44.412   1.412
25874W        W89807  23.670  17.195   2.693
25875W        W89808  23.711   4.424  11.072
25876W        W89809  30.142   9.849   2.703
25877W        W89810  13.185  18.186  12.001
25878W        W89811  37.863  39.028   3.782
25879W        W89812  10.820  14.814  14.494
25880W        W89813  19.594  43.276  13.498
25881W        W89814  40.345  33.040  10.626
25882W        W89815  20.692  27.601   2.670
25883W        W89816  18.140  24.614  13.952
25884W        W89817  40.418   9.650  10.575
25885W        W89818   1.433  28.044   2.847
25886W        W89819   9.394  29.501   1.741
25887W        W89820  34.106  37.515  11.885
25888W        W89821  26.972  23.532  11.001
25889W        W89822  19.111  26.475  14.498
25890W        W89823   5.232  42.806   2.385
25891W        W89824  23.236  36.593   0.372
25892W        W89825  25.977   1.876  10.151
25893W        W89826  18.618  22.728   2.300
25894W        W89827  19.133  25.561   1.727
25895W        W89828  44.823  38.350   5.244
25896W        W89829  17.114   5.246   5.247
25897W        W89830  35.409  42.461   2.354
25898W        W89831  23.550  26.532   2.373
25899W        W89832  42.450   3.329  13.360
25900W        W89833  14.216   1.333  11.097
25901W        W89834  38.946  31.096   4.637
25902W        W89835  35.498  11.803  11.901
25903W        W89836  35.989  34.058  11.990
25904W        W89837   9.297  12.293  11.017
25905W        W89838  28.160   8.851   2.202
25906W        W89839  32.449  37.361   3.308
25907W        W89840   2.228  30.917  10.583
25908W        W89841  40.455   8.203  14.953
25909W        W89842   5.879  35.501  12.891
25910W        W89843  18.148  37.461   2.743
25911W        W89844  30.942  17.209  13.343
25912W        W89845  39.547  35.525  10.895
25913W        W89846  30.431  35.423   0.925
25914W        W89847   2.795  25.217   1.373
25915W        W89848  30.015  12.218  11.479
25916W        W89849   3.862  27.563  14.380
25917W        W89850   0.923  21.093  10.411
25918W        W89851  42.391  22.610   0.378
25919W        W89852  38.835  22.076  13.389
25920W        W89853  42.367  36.431   0.928
25921W        W89854  25.078   4.735  13.015
25922W        W89855  20.186  42.809  12.374
25923W        W89856   1.271  11.640   4.239
25924W        W89857  41.903  16.769  14.923
25925W        W89858   8.189  11.729  10.553
25926W        W89859  30.467  13.650   4.716
25927W        W89860  18.244  19.056  11.886
25928W        W89861  24.999  26.150  13.022
25929W        W89862  25.186  15.660  12.505
25930W        W89863  38.365  40.389  11.922
25931W        W89864  34.543  26.612   2.754
25932W        W89865  13.637  10.827   1.783
25933W        W89866  33.620  42.812  12.086
25934W        W89867  11.715   1.281   1.879
25935W        W89868  20.580  18.722   0.262
25936W        W89869  42.006  30.161  11.441
25937W        W89870  13.158  23.524  14.470
25938W        W89871   3.234   8.893   3.381
25939W        W89872  24.518  34.102   2.323
25940W        W89873  15.170  42.990  10.499
25941W        W89874  19.718  12.181   0.727
25942W        W89875  32.979  16.797  13.399
25943W        W89876  31.012  21.252   1.230
25944W        W89877  20.534  36.420   3.717
25945W        W89878  42.843   3.726   1.826
25946W        W89879  15.742   0.849  11.456
25947W        W89880  22.139  15.713  14.822
25948W        W89881  27.152  34.965  13.962
25949W        W89882  23.138   9.803   1.333
25950W        W89883  11.154  38.001   3.824
25951W        W89884  12.848   3.315  13.474
25952W        W89885  22.614   4.761   3.831
25953W        W89886   5.393  20.697   2.284
25954W        W89887  29.051  11.214  13.920
25955W        W89888  44.347  22.637   3.770
25956W        W89889  44.965  13.813  14.847
25957W        W89890  19.252  19.251   4.820
25958W        W89891  16.653   8.690  12.842
25959W        W89892  35.435  41.934   1.745
25960W        W89893  14.207  17.070  11.063
25961W        W89894   0.489  15.118   2.818
25962W        W89895  27.491  35.405  12.846
25963W        W89896  20.166  28.480  13.889
25964W        W89897   1.943  23.045  12.072
25965W        W89898   0.912   9.748  11.896
25966W        W89899  43.509  21.034  10.086
25967W        W89900  20.094  37.837  10.888
25968W        W89901  38.932  35.526   4.339
25969W        W89902  15.329   5.261   0.795
25970W        W89903   9.752  13.322  14.464
25971W        W89904   7.789   7.828   3.346
25972W        W89905  12.255   8.691  12.938
25973W        W89906  17.261  18.710   0.809
25974W        W89907  25.065   5.700   1.917
25975W        W89908  44.878  41.016   2.701
25976W        W89909   4.420  25.508  13.395
25977W        W89910  43.995  29.436  13.539
25978W        W89911  38.462  19.051  13.377
25979W        W89912  13.691  42.802  14.499
25980W        W89913  24.035  17.716  13.529
25981W        W89914  35.963  32.094  13.027
25982W        W89915   3.760  12.321  14.839
25983W        W89916   7.339  17.699   4.313
25984W        W89917  21.642  38.491  14.868
25985W        W89918   1.374  31.484  14.321
25986W        W89919   3.326  41.833  14.885
25987W        W89920  25.538  11.664  11.946
25988W        W89921  14.786  20.178   1.349
25989W        W89922  29.529  37.444   1.433
25990W        W89923  20.043  28.645   0.947
25991W        W89924  12.679  33.102  10.553
25992W        W89925  16.785  19.102  14.288
25993W        W89926   7.368  40.460  13.507
25994W        W89927  35.870   2.819  14.892
25995W        W89928  37.542  26.670  10.016
25996W        W89929  11.165  14.172   2.216
25997W        W89930  27.486  21.128   3.248
25998W        W89931  29.654  22.624  14.472
25999W        W89932  31.457   1.867  12.848
26000W        W89933  37.455  39.809  10.111
26001W        W89934  29.147  19.284   0.838
26002W        W89935   4.282  33.396   0.284
26003W        W89936  42.323   4.333  13.371
26004W        W89937  11.356  32.077   1.812
26005W        W89938  20.666  36.593  12.924
26006W        W89939  11.751  35.414  12.859
26007W        W89940  27.640   0.779   3.653
26008W        W89941  27.630   8.799  11.890
26009W        W89942  22.036  24.481   3.362
26010W        W89943  22.204  40.506   2.332
26011W        W89944  15.177  33.382   4.747
26012W        W89945  18.599  27.098   4.184
26013W        W89946  17.109  28.167   1.405
26014W        W89947   3.779  21.585   4.139
26015W        W89948  25.174   2.931   0.289
26016W        W89949  36.464  32.614  12.447
26017W        W89950  42.860  34.080   0.330
26018W        W89951  23.594  33.590   1.911
26019W        W89952  40.868  40.409   1.334
26020W        W89953  35.072  20.761  14.844
26021W        W89954  33.068   1.899   3.643
26022W        W89955   8.371  22.227   2.275
26023W        W89956  38.872   8.294   0.353
26024W        W89957  41.434  42.791   0.894
26025W        W89958  41.865  31.136  11.414
26026W        W89959  38.422   9.855  11.006
26027W        W89960  14.794  18.631   1.763
26028W        W89961  43.463   2.778  11.450
26029W        W89962   9.336  17.128   4.275
26030W        W89963  35.997  23.720  13.000
26031W        W89964   5.263  20.176   3.278
26032W        W89965  41.516  33.553  10.567
26033W        W89966   0.941  29.664  12.497
26034W        W89967  29.620   9.375   0.878
26035W        W89968  30.027  40.921  11.453
26036W        W89969   5.694  32.068  12.853
26037W        W89970  43.386  22.015   1.393
26038W        W89971   6.205  16.150   1.227
26039W        W89972  35.519  22.582  11.123
26040W        W89973  15.801  12.356   3.385
26041W        W89974  25.964  40.826  12.464
26042W        W89975  13.326   1.969  10.404
26043W        W89976  17.719   5.893  12.942
26044W        W89977  22.168   0.494  10.478
26045W        W89978   0.945  20.210  11.037
26046W        W89979   5.276  23.054  14.935
26047W        W89980  33.557  13.784  10.631
26048W        W89981  15.704   3.949  12.498
26049W        W89982  30.017   3.932  10.487
26050W        W89983   5.265  29.174  11.523
26051W        W89984   7.888  13.799   2.197
26052W        W89985  28.135  11.797  11.106
26053W        W89986  37.859   5.376  12.901
26054W        W89987  41.299   5.784   0.732
26055W        W89988  16.189  30.097  10.643
26056W        W89989   2.472  24.112   2.205
26057W        W89990   6.729   2.790   3.639
26058W        W89991  44.468  37.386   3.380
26059W        W89992   6.261  16.148  11.535
26060W        W89993   3.446   6.418  14.455
26061W        W89994  30.505  41.891  13.948
26062W        W89995  37.075  39.545   0.305
26063W        W89996   2.460  30.064   4.354
26064W        W89997   7.229  26.191  12.444
26065W        W89998   5.802  42.334  13.961
26066W        W89999  26.512  17.130  12.065
26067W        W90000   7.890  16.182   0.835
26068W        W90001  34.884   2.448  11.951
26069W        W90002  16.615  37.831   3.633
26070W        W90003  33.589  10.148   1.760
26071W        W90004  44.959  15.132   2.355
26072W        W90005  23.728  30.024  14.026
26073W        W90006  38.882  28.533  11.024
26074W        W90007  34.476  23.183  10.565
26075W        W90008  38.820  30.110  14.369
26076W        W90009  34.118  10.147   2.296
26077W        W90010  32.019   5.270   3.341
26078W        W90011  43.926  23.627  11.480
26079W        W90012  22.087   0.920   4.833
26080W        W90013   7.911  12.724   2.810
26081W        W90014  11.701  17.781  10.515
26082W        W90015  37.564  41.435   1.442
26083W        W90016  27.658  12.737   2.879
26084W        W90017  12.219   7.882   3.256
26085W        W90018  43.841  13.644   0.303
26086W        W90019  15.795   6.306  11.892
26087W        W90020  29.543  41.990   3.288
26088W        W90021   4.321   8.775  11.538
26089W        W90022  33.083  44.267  14.305
26090W        W90023   8.161  11.739  14.780
26091W        W90024  30.910  37.894  10.569
26092W        W90025  21.668  18.791  13.885
26093W        W90026   5.347  27.032   0.290
26094W        W90027  14.672  34.513  10.511
26095W        W90028  22.091  12.665  14.978
26096W        W90029   9.237  36.929  12.366
26097W        W90030  35.092  16.604  13.031
26098W        W90031  19.162  17.248   3.674
26099W        W90032  14.754   2.754  12.406
26100W        W90033  31.580  27.647   3.352
26101W        W90034  23.136  33.411   1.451
26102W        W90035  25.574  19.569   4.202
26103W        W90036  42.795  44.776   4.824
26104W        W90037  25.060  12.317  11.039
26105W        W90038   2.237  17.251  12.860
26106W        W90039  37.451  41.012  10.600
26107W        W90040  27.038  18.169  12.866
26108W        W90041  30.947   6.338  13.377
26109W        W90042  26.183  37.875  11.432
26110W        W90043  19.141  13.260  14.852
26111W        W90044  33.044  35.452  12.951
26112W        W90045  33.438  17.729  12.073
26113W        W90046  27.592  28.978   3.867
26114W        W90047   5.750   1.286  12.498
26115W        W90048  12.777  18.175   4.272
26116W        W90049  11.807  36.018  10.585
26117W        W90050  23.534  21.734   1.788
26118W        W90051  31.071  39.868  14.924
26119W        W90052   6.714  24.048   1.713
26120W        W90053  24.585   8.362  10.131
26121W        W90054  41.417  26.171   4.809
26122W        W90055  37.962  12.130  13.870
26123W        W90056  22.738  43.306   3.841
26124W        W90057  36.502  32.595   0.844
26125W        W90058  21.598  32.053   4.696
26126W        W90059  23.619  43.504   2.377
26127W        W90060  36.438   2.253  14.895
26128W        W90061  36.371  22.199   3.678
26129W        W90062  40.322  32.545   4.181
26130W        W90063  20.161   3.457  11.109
26131W        W90064  40.481  38.515  11.903
26132W        W90065  31.617  30.458   3.734
26133W        W90066  15.683  36.007  10.079
26134W        W90067  28.014  19.581   4.347
26135W        W90068   7.357  42.947   0.867
26136W        W90069  20.200   8.339   1.229
26137W        W90070   6.829  12.336  11.552
26138W        W90071   1.898  10.207  10.469
26139W        W90072   2.923  30.037   1.696
26140W        W90073   6.248  42.803  11.606
26141W        W90074  31.424  13.253  10.977
26142W        W90075  25.157   4.780   0.808
26143W        W90076   3.917   1.804   1.803
26144W        W90077  23.051  10.201   2.714
26145W        W90078  28.023  14.333  14.382
26146W        W90079  27.562   3.433  11.917
26147W        W90080  27.039  14.730  10.610
26148W        W90081  23.129  25.137  11.414
26149W        W90082  27.184  15.795   3.332
26150W        W90083   5.419  24.533  14.770
26151W        W90084  15.780  24.050  10.987
26152W        W90085   9.227  21.082   2.789
26153W        W90086  12.808  21.671  13.816
26154W        W90087  32.498  15.582  13.957
26155W        W90088  25.110  43.891  14.883
26156W        W90089   4.412  28.134  10.974
26157W        W90090  40.524  24.157   5.195
26158W        W90091  14.299   6.275  14.887
26159W        W90092   6.337   5.368   9.943
26160W        W90093   9.237  40.543   3.815
26161W        W90094   7.211  26.565   3.326
26162W        W90095  19.170  27.490  11.567
26163W        W90096  13.614  30.965   4.255
26164W        W90097   5.254   3.885   3.177
26165W        W90098  27.064  10.868   4.710
26166W        W90099  29.517  11.321  14.464
26167W        W90100  23.196   4.748   1.389
26168W        W90101  24.193   2.429   4.263
26169W        W90102  14.190  19.728  11.018
26170W        W90103  17.143  38.429  11.084
26171W        W90104  36.533  39.553   1.731
26172W        W90105  35.549  14.244  13.356
26173W        W90106  24.227  22.603   3.831
26174W        W90107  38.493  15.162   4.636
26175W        W90108  39.459   1.347   3.149
26176W        W90109  12.683  18.293  13.881
26177W        W90110  25.064  20.613   3.345
26178W        W90111  42.313   4.309  13.889
26179W        W90112  32.953   9.303  13.506
26180W        W90113  19.700  16.240  14.350
26181W        W90114  20.217   9.729  14.304
26182W        W90115   9.363  19.149   3.802
26183W        W90116  17.133   5.376  12.402
26184W        W90117   1.789  32.032   4.686
26185W        W90118   2.281  37.339   5.311
26186W        W90119  16.167  43.380  14.368
26187W        W90120  35.890  32.994  13.048
26188W        W90121  32.480   9.383  12.477
26189W        W90122  31.131  31.039  13.423
26190W        W90123  22.063  18.097  10.628
26191W        W90124   6.416  20.230  14.012
26192W        W90125  24.094  15.583   5.244
26193W        W90126  13.751  20.110  13.351
26194W        W90127   9.330  33.459  12.947
26195W        W90128  15.189   7.864  13.024
26196W        W90129  27.132   5.794  13.951
26197W        W90130  38.434  16.781  13.463
26198W        W90131   0.963  15.172   4.323
26199W        W90132  29.543  34.112  13.903
26200W        W90133  12.222  30.151   2.845
26201W        W90134  31.150  40.841  14.396
26202W        W90135  40.419   9.765  11.525
26203W        W90136  16.178  42.367   0.472
26204W        W90137  12.707  39.522   1.310
26205W        W90138  22.230   6.728   1.264
26206W        W90139  20.753  38.392  13.503
26207W        W90140   2.334  37.479  11.467
26208W        W90141  27.138  35.081  10.468
26209W        W90142  27.564  16.211   3.283
26210W        W90143   8.189  30.946   4.646
26211W        W90144  35.901  40.932   2.813
26212W        W90145   1.743   2.425  11.877
26213W        W90146  31.047  28.965  11.466
26214W        W90147   1.432  28.506   1.312
26215W        W90148  33.086  32.483  11.021
26216W        W90149  24.528  18.171   2.723
26217W        W90150  13.803  28.127  14.401
26218W        W90151   8.660   8.175  12.577
26219W        W90152  43.960  15.263  11.976
26220W        W90153  13.234  11.244  12.379
26221W        W90154  15.578  37.575  10.046
26222W        W90155  14.275  20.093  11.476
26223W        W90156  27.657  39.522   3.178
26224W        W90157   7.286   8.322  11.860
26225W        W90158  20.758  34.114   4.611
26226W        W90159   7.899  32.912   2.375
26227W        W90160  30.601  14.192   0.791
26228W        W90161  43.802  35.469   2.839
26229W        W90162  41.451  27.065  14.990
26230W        W90163   0.941  14.130   2.818
26231W        W90164  40.819   6.238   1.440
26232W        W90165  19.595  13.603  11.494
26233W        W90166  33.496  16.799  11.394
26234W        W90167  35.006  31.504  12.863
26235W        W90168  36.048  31.441  12.023
26236W        W90169  16.218   8.347  12.385
26237W        W90170  14.095  19.603   1.257
26238W        W90171  30.493  15.702   0.958
26239W        W90172   7.709  31.940  10.608
26240W        W90173  19.776   9.809  13.041
26241W        W90174  27.690  32.544  12.399
26242W        W90175   8.247  35.005  11.947
26243W        W90176  20.765  22.735  14.763
26244W        W90177  42.831  40.847  13.347
26245W        W90178  29.664  32.012  12.498
26246W        W90179  40.829   7.893  14.806
26247W        W90180  44.324  37.838   1.745
26248W        W90181  14.196   3.889  14.891
26249W        W90182  30.467   1.953   0.355
26250W        W90183  24.700  24.064   0.413
26251W        W90184  28.058  18.708  14.846
26252W        W90185   7.370  30.038  12.917
26253W        W90186  43.827  34.605   1.327
26254W        W90187  27.500   9.862  13.337
26255W        W90188  32.063  36.948   2.814
26256W        W90189  28.022   8.866   4.615
26257W        W90190  19.228   1.271  12.823
26258W        W90191  26.594  36.582  14.011
26259W        W90192   9.848  27.472  14.916
26260W        W90193  38.835  30.137  12.501
26261W        W90194  35.594   2.443  12.368
26262W        W90195  36.924  41.948  11.607
26263W        W90196  43.430  22.192   2.306
26264W        W90197  30.936  20.230   0.742
26265W        W90198  33.893   7.844  11.908
26266W        W90199  18.260  36.407  12.950
26267W        W90200  44.342   0.835  11.583
26268W        W90201   5.239   1.912  12.371
26269W        W90202  31.597  24.207   0.926
26270W        W90203  44.860   7.391   2.295
26271W        W90204   9.319  31.924  14.400
26272W        W90205  44.385  14.696   0.283
26273W        W90206  27.511   4.276   1.707
26274W        W90207  41.480  39.835  13.322
26275W        W90208  44.954  21.546  14.970
26276W        W90209  40.869   1.251   1.853
26277W        W90210  35.965  32.464   1.248
26278W        W90211  43.867  14.235   3.332
26279W        W90212  10.776   9.336   1.218
26280W        W90213   2.785  44.367  10.039
26281W        W90214  15.110   8.840   5.270
26282W        W90215  27.477   3.749   1.908
26283W        W90216  40.322  42.995  12.392
26284W        W90217  11.804  15.133   0.819
26285W        W90218  18.765  26.581   2.775
26286W        W90219  32.480   6.699  10.453
26287W        W90220   0.923   4.827  11.859
26288W        W90221  23.099  14.635   1.891
26289W        W90222  37.415   3.388   2.404
26290W        W90223  12.359  37.934   3.366
26291W        W90224  15.703  22.025  13.485
26292W        W90225  33.092  37.544   3.380
26293W        W90226   9.769   9.771   0.773
26294W        W90227   7.363   5.726   5.299
26295W        W90228  44.342  37.937   0.351
26296W        W90229  19.675  40.003   1.777
26297W        W90230  24.081  26.524  13.876
26298W        W90231  12.769   6.777   2.413
26299W        W90232  44.877   8.358   4.800
26300W        W90233  32.584  41.940  11.968
26301W        W90234  43.974  38.347  14.855
26302W        W90235   9.342  12.124  10.485
26303W        W90236  42.986  22.551  14.480
26304W        W90237  29.523   5.803  12.509
26305W        W90238  15.776   1.815   1.223
26306W        W90239  27.061  13.242  14.837
26307W        W90240   1.811  27.454  14.798
26308W        W90241  14.280  12.828   3.660
26309W        W90242   7.842   6.899  12.828
26310W        W90243  12.218  30.626   4.255
26311W        W90244  25.055  17.767  12.349
26312W        W90245  19.611  20.555  12.875
26313W        W90246  41.310  17.210   4.294
26314W        W90247  12.654  31.639   4.315
26315W        W90248  30.073  14.628  11.069
26316W        W90249   7.313  40.964  13.528
26317W        W90250  24.024  13.739  13.797
26318W        W90251  33.569  30.098  14.481
26319W        W90252  36.869  23.227   1.213
26320W        W90253  40.478  36.928   0.735
26321W        W90254  31.475  21.673   4.685
26322W        W90255  28.520  26.566  13.369
26323W        W90256  25.076   1.337   4.747
26324W        W90257   5.815   1.819  10.088
26325W        W90258  36.410  11.693  13.388
26326W        W90259  19.745   3.423  12.924
26327W        W90260  17.099  12.770   0.253
26328W        W90261  24.200  27.641   2.718
26329W        W90262   5.792   9.778  11.082
26330W        W90263  39.888  32.037   1.919
26331W        W90264  38.513  32.596   2.195
26332W        W90265   3.256  44.480  12.517
26333W        W90266  27.187  13.636  11.551
26334W        W90267  35.502  30.499   4.668
26335W        W90268   6.881  19.627  14.441
26336W        W90269  11.178  27.952   2.666
26337W        W90270  27.088   1.881  13.023
26338W        W90271  42.367  10.778   4.291
26339W        W90272   8.393  31.009   1.292
26340W        W90273  34.935  39.980  14.000
26341W        W90274   5.854  10.806  14.385
26342W        W90275  32.009  21.606  14.474
26343W        W90276   4.308  32.013   1.715
26344W        W90277  39.316   0.280   4.242
26345W        W90278   5.687  34.453   2.730
26346W        W90279  33.006  28.473  14.434
26347W        W90280   3.751  38.072  10.513
26348W        W90281   3.849  32.484   3.771
26349W        W90282  41.907  38.348   0.320
26350W        W90283  39.454   0.445   2.781
26351W        W90284  33.942  33.050   1.866
26352W        W90285  15.310  44.904   4.663
26353W        W90286  22.645   3.781  11.568
26354W        W90287  16.688  29.957  10.541
26355W        W90288  14.211  16.625  12.871
26356W        W90289  26.016  18.694  12.482
26357W        W90290  36.855  19.144  11.955
26358W        W90291  18.624  42.879  11.382
26359W        W90292   9.843  28.681  13.976
26360W        W90293  33.009  15.596  14.904
26361W        W90294  18.194   7.729  13.941
26362W        W90295  16.781   9.668  13.964
26363W        W90296  27.975  24.543  10.081
26364W        W90297  29.064   7.203  14.389
26365W        W90298  43.859   8.346   1.906
26366W        W90299  36.563  23.107   1.301
26367W        W90300  13.179  15.667   4.156
26368W        W90301  41.510   5.876  14.020
26369W        W90302  37.537  28.987  12.550
26370W        W90303  42.448  31.986   2.374
26371W        W90304   0.906  22.139   4.820
26372W        W90305  21.664  28.438  13.026
26373W        W90306  44.271  24.628   4.260
26374W        W90307  37.408   2.804   3.697
26375W        W90308   0.402   4.425  11.489
26376W        W90309   0.422  11.799   1.411
26377W        W90310  25.987  28.558  12.362
26378W        W90311  29.598  33.110  13.454
26379W        W90312   1.404  30.589   4.658
26380W        W90313  21.588  22.575   3.668
26381W        W90314  11.777  15.656  12.360
26382W        W90315  30.646  16.594   4.210
26383W        W90316  24.561   4.819   1.362
26384W        W90317   5.873   8.704  12.538
26385W        W90318  42.487  16.259  11.074
26386W        W90319  41.034  44.835  12.509
26387W        W90320  10.374  19.691   1.432
26388W        W90321   8.665  37.365   1.366
26389W        W90322  31.097  41.428  13.971
26390W        W90323  13.605  44.299  12.533
26391W        W90324  34.447   2.919   2.875
26392W        W90325  11.756  10.199   9.950
26393W        W90326   4.838   8.249   2.701
26394W        W90327  42.438  19.236  14.513
26395W        W90328  36.540   1.812   2.401
26396W        W90329  43.413  19.069  14.331
26397W        W90330  12.631   5.251   1.449
26398W        W90331  44.753  16.701  12.943
26399W        W90332  28.010  21.534   4.826
26400W        W90333   9.794  16.243  13.481
26401W        W90334   0.853  31.491  14.327
26402W        W90335  11.371  14.099  11.867
26403W        W90336  24.003  43.287  14.350
26404W        W90337  18.073  40.840  11.028
26405W        W90338  38.920  25.497   0.891
26406W        W90339  42.887   5.426   0.440
26407W        W90340  29.088  42.450  14.478
26408W        W90341  25.588  16.647   4.818
26409W        W90342   3.859  32.549   2.862
26410W        W90343  21.581  10.729  14.368
26411W        W90344  32.961  44.400   2.239
26412W        W90345  12.789  41.469  10.527
26413W        W90346  43.964  18.197   4.236
26414W        W90347  11.332  38.334   0.781
26415W        W90348  22.212  27.103  10.907
26416W        W90349  37.849  10.681   1.896
26417W        W90350  24.997  16.804   4.278
26418W        W90351  39.979   2.880   1.895
26419W        W90352  31.491   0.395  11.559
26420W        W90353  26.112  13.650  12.416
26421W        W90354  40.901  23.497   3.354
26422W        W90355  26.552   9.731  10.962
26423W        W90356  29.969  17.671   0.269
26424W        W90357  23.200  22.602  13.331
26425W        W90358  18.267  15.790   4.266
26426W        W90359   3.872  24.060  13.315
26427W        W90360  43.411  19.106   1.263
26428W        W90361   9.774  29.598   0.798
26429W        W90362   6.221  17.229   5.115
26430W        W90363   7.257  29.137  10.411
26431W        W90364  26.055  28.637   0.791
26432W        W90365   2.299  25.989   1.798
26433W        W90366  30.564  17.692  10.966
26434W        W90367  43.890  43.347  11.093
26435W        W90368   5.838  44.480  11.033
26436W        W90369  40.354   8.835   4.621
26437W        W90370  11.286  12.162  10.478
26438W        W90371   2.904   7.832   1.864
26439W        W90372  27.994  35.509   1.758
26440W        W90373  34.918  38.396  12.360
26441W        W90374  37.012  44.357   1.351
26442W        W90375   4.800  22.571  11.502
26443W        W90376  31.576   4.760  14.915
26444W        W90377  32.632   4.711   1.837
26445W        W90378  37.065  44.962  14.761
26446W        W90379  10.271  37.077  14.030
26447W        W90380  37.075  44.832   2.405
26448W        W90381  23.721  29.546   3.298
26449W        W90382   0.327  13.661   3.272
26450W        W90383   9.182   7.820  11.909
26451W        W90384  23.122  36.992  14.906
26452W        W90385  32.108  35.412  14.823
26453W        W90386  28.476  39.831   4.349
26454W        W90387  13.313  26.164   0.827
26455W        W90388  23.025  14.712   4.336
26456W        W90389  15.121  37.042   3.279
26457W        W90390   5.772   3.723   1.804
26458W        W90391  12.649  10.284   1.880
26459W        W90392  16.230  21.705  10.887
26460W        W90393  16.783   3.305  13.388
26461W        W90394  36.010  36.557   2.859
26462W        W90395  36.367  36.043   3.689
26463W        W90396  44.917  44.383   4.191
26464W        W90397  44.363  12.274  13.987
26465W        W90398  21.515  37.959  13.414
26466W        W90399   7.360  24.670  14.859
26467W        W90400  16.719  32.119  11.895
26468W        W90401  39.989   2.930  11.504
26469W        W90402  33.388   2.871  11.560
26470W        W90403   2.244  15.803  12.998
26471W        W90404  38.019  40.432  11.495
26472W        W90405  21.709  41.477   3.201
26473W        W90406  36.577  26.679  10.918
26474W        W90407  40.903   4.938  13.514
26475W        W90408  33.064  29.120   0.963
26476W        W90409  35.438   4.243   1.324
26477W        W90410  24.087   4.275  13.920
26478W        W90411  14.336  26.488   4.324
26479W        W90412   5.807  41.829   3.163
26480W        W90413  42.485  32.971   4.275
26481W        W90414   2.875  12.231   0.876
26482W        W90415  10.247  15.291   3.338
26483W        W90416  44.806  43.363  10.404
26484W        W90417  39.963  20.749   2.408
26485W        W90418  43.859  22.703   1.796
26486W        W90419  32.448  17.127  13.931
26487W        W90420  42.439   6.391   0.271
26488W        W90421   1.901  28.609   2.851
26489W        W90422   7.744   5.854   1.429
26490W        W90423  31.939   6.892  12.984
26491W        W90424  31.004  39.485  14.761
26492W        W90425  31.575  37.962   1.228
26493W        W90426  16.776  24.506   1.232
26494W        W90427  24.636  37.066   3.856
26495W        W90428  37.529  38.376  13.835
26496W        W90429  13.222   7.399  13.935
26497W        W90430  34.020  29.527   0.343
26498W        W90431  20.110  35.556   4.243
26499W        W90432  16.303  17.631   5.644
26500W        W90433   2.456  27.591  12.005
26501W        W90434  39.977   3.288   5.229
26502W        W90435  16.312  23.510   2.797
26503W        W90436  42.973  44.953  11.503
26504W        W90437  33.481   8.759  14.347
26505W        W90438   6.223  34.932  11.940
26506W        W90439  34.019  37.981   3.225
26507W        W90440  38.335  21.662   3.686
26508W        W90441  16.223   0.963   0.454
26509W        W90442   6.342   3.221  11.403
26510W        W90443  16.665  16.573   1.358
26511W        W90444  43.998  19.259  11.879
26512W        W90445  15.150   1.775   1.805
26513W        W90446   9.759   1.374  11.902
26514W        W90447  42.401  10.786   1.336
26515W        W90448  30.466  12.202   4.324
26516W        W90449  40.528  28.136  13.358
26517W        W90450   7.682   0.756  13.519
26518W        W90451  17.624  37.582   3.709
26519W        W90452  12.827  29.475   4.320
26520W        W90453  32.613  31.474   2.828
26521W        W90454  35.986  22.686  14.361
26522W        W90455   9.182  23.169   2.339
26523W        W90456   4.315  12.187   9.648
26524W        W90457   0.937  36.377  10.033
26525W        W90458  27.646  34.964   4.281
26526W        W90459  31.607   6.229  10.430
26527W        W90460  18.236  25.078   1.288
26528W        W90461  29.506  10.761   0.845
26529W        W90462  20.114  16.096  13.792
26530W        W90463  23.669  41.477  10.946
26531W        W90464  37.448  26.154   3.742
26532W        W90465  39.416   6.703   4.669
26533W        W90466  16.207  11.720  13.957
26534W        W90467  14.690   2.945  14.778
26535W        W90468  42.827  16.176   0.368
26536W        W90469  33.987   9.294   2.856
26537W        W90470  12.818  17.283   4.812
26538W        W90471   2.947  36.528   2.896
26539W        W90472  41.005  37.475   2.239
26540W        W90473  38.460   6.903  14.024
26541W        W90474   3.407  44.391   0.824
26542W        W90475  18.263   6.706  11.899
26543W        W90476  16.685  41.987  10.578
26544W        W90477   6.368  16.613  14.375
26545W        W90478  43.305   8.655   2.310
26546W        W90479  44.322   0.954   4.808
26547W        W90480  18.253   5.403   1.390
26548W        W90481  30.448  25.216  14.957
26549W        W90482  40.509   9.862  12.962
26550W        W90483  32.500  37.871   2.264
26551W        W90484  41.482  37.360  10.959
26552W        W90485  13.707   0.893  11.865
26553W        W90486  32.010   4.297   4.262
26554W        W90487  20.616  14.797   0.451
26555W        W90488   2.820   9.286   3.356
26556W        W90489  40.893   9.716  12.977
26557W        W90490  36.379   7.783  12.850
26558W        W90491  34.435  23.592  10.591
26559W        W90492  38.902  30.457   4.691
26560W        W90493  39.914  40.844  11.907
26561W        W90494  17.764  12.205  13.380
26562W        W90495  38.979  19.183  13.335
26563W        W90496  38.983  18.112  11.448
26564W        W90497   8.349   1.743   1.777
26565W        W90498  40.476   0.920  13.031
26566W        W90499  41.319  35.943  10.558
26567W        W90500   9.258  40.410   1.318
26568W        W90501  15.638  17.580   4.623
26569W        W90502  15.128  19.090  11.519
26570W        W90503  10.795  18.578  13.813
26571W        W90504  35.465  17.276   3.196
26572W        W90505  28.000  13.790  10.556
26573W        W90506  20.039  16.664  11.074
26574W        W90507  18.786  22.116  12.902
26575W        W90508  12.143   0.307   2.829
26576W        W90509  23.119  31.083   0.277
26577W        W90510  42.808   1.758  10.942
26578W        W90511   7.789   7.200   4.679
26579W        W90512   9.849  38.950   3.238
26580W        W90513  24.629  43.357  10.630
26581W        W90514  22.677  37.866   3.690
26582W        W90515  41.464   9.264   4.643
26583W        W90516  39.476   5.345   0.968
26584W        W90517  25.001  23.528   2.313
26585W        W90518  43.997  18.694  14.804
26586W        W90519  18.561  24.190  10.125
26587W        W90520   8.314  24.587  12.079
26588W        W90521   1.346  19.247  11.510
26589W        W90522   8.356  37.957   3.188
26590W        W90523  24.045  34.962  12.890
26591W        W90524   9.232  33.077  14.942
26592W        W90525  19.087   6.692   1.780
26593W        W90526  19.045   1.461  10.611
26594W        W90527  38.039  19.571   4.816
26595W        W90528  27.983   6.820   4.695
26596W        W90529  36.449  31.406  12.932
26597W        W90530   0.754  29.161   1.891
26598W        W90531  31.006  28.111   2.801
26599W        W90532   1.905  42.878  13.820
26600W        W90533  29.630   7.873   4.179
26601W        W90534   5.274  28.044  11.102
26602W        W90535  42.482  43.829   0.765
26603W        W90536  14.618  40.054   3.369
26604W        W90537  41.346  23.111   0.366
26605W        W90538  42.899   4.900  11.592
26606W        W90539  19.125  28.998   5.222
26607W        W90540  30.940  21.744   2.850
26608W        W90541   5.333  29.064  13.901
26609W        W90542  20.082  26.115   5.235
26610W        W90543  13.624  39.558  10.421
26611W        W90544  19.118  42.318  13.347
26612W        W90545   3.249  24.603  14.464
26613W        W90546  43.956  31.948  12.845
26614W        W90547   6.231  21.555   0.428
26615W        W90548  22.567  38.504  10.034
26616W        W90549  29.937  39.843  14.416
26617W        W90550   5.728  16.314  11.371
26618W        W90551  16.769  10.770  11.988
26619W        W90552  37.422  27.466   3.765
26620W        W90553   7.309  35.109  12.405
26621W        W90554  23.112  31.444   1.862
26622W        W90555  40.481  25.652   3.765
26623W        W90556  27.592  10.227   3.633
26624W        W90557  31.085  29.008  12.354
26625W        W90558  37.933  27.490   0.441
26626W        W90559  24.220  24.625   3.283
26627W        W90560   0.446  38.436   5.137
26628W        W90561  19.103  17.664   2.402
26629W        W90562  10.269   5.271  13.494
26630W        W90563  39.049  22.055   4.836
26631W        W90564  17.640  25.102   3.823
26632W        W90565  41.010  12.319   2.685
26633W        W90566   9.235  15.271  14.938
26634W        W90567  41.398  37.836  11.958
26635W        W90568  36.984   9.783  14.306
26636W        W90569   2.950  29.039   1.423
26637W        W90570  13.190   6.359   3.847
26638W        W90571  40.018  38.492   2.666
26639W        W90572  16.587  24.218   1.758
26640W        W90573  25.165  30.430   2.775
26641W        W90574  43.886  36.958  14.020
26642W        W90575  32.050  13.793  10.948
26643W        W90576  41.800  35.097   2.211
26644W        W90577  32.041  30.599   4.723
26645W        W90578  16.670   6.895   3.710
26646W        W90579  11.152  25.541   1.428
26647W        W90580  31.915  35.035   4.302
26648W        W90581   1.829  11.289  10.426
26649W        W90582   5.419  15.115   1.219
26650W        W90583   4.313   7.302   3.734
26651W        W90584  28.659  25.128  11.535
26652W        W90585  26.137  39.893  11.933
26653W        W90586   0.288  36.354   1.406
26654W        W90587  39.955  32.525   1.319
26655W        W90588  26.013  30.051  13.454
26656W        W90589   7.258  18.608  13.977
26657W        W90590  39.436  22.601  11.906
26658W        W90591  27.505  29.979  13.368
26659W        W90592   3.295   0.256  14.785
26660W        W90593  32.557  37.994  12.900
26661W        W90594  35.058  10.682   0.879
26662W        W90595  17.718  41.856  10.148
26663W        W90596   8.198  38.484  14.978
26664W        W90597  44.348  29.157   0.429
26665W        W90598   7.702  31.034   1.883
26666W        W90599  19.657  21.747   1.378
26667W        W90600  11.839  14.771  11.959
26668W        W90601  16.286   3.457  13.912
26669W        W90602   9.868  34.467   4.345
26670W        W90603   9.683  37.941   4.292
26671W        W90604  20.167  11.743  13.450
26672W        W90605  21.518  15.684  12.381
26673W        W90606  23.548  44.935   0.357
26674W        W90607  34.389  24.570  14.809
26675W        W90608  42.850   1.364   3.309
26676W        W90609  29.166  23.619  14.864
26677W        W90610  17.724  22.500   1.825
26678W        W90611  43.982  27.018   1.885
26679W        W90612  15.242  18.688  10.113
26680W        W90613  43.399  42.003  11.895
26681W        W90614  23.522  35.052   1.287
26682W        W90615   4.357  39.547  12.965
26683W        W90616   3.903  37.443   1.426
26684W        W90617  31.941   5.764   1.872
26685W        W90618   5.200  10.225   2.690
26686W        W90619  30.447  20.080   1.328
26687W        W90620  20.038   4.448  11.094
26688W        W90621  21.032  34.399  12.968
26689W        W90622  43.985  35.467  14.509
26690W        W90623  16.808  27.080   9.928
26691W        W90624  36.995  22.249  13.966
26692W        W90625  35.909   6.821  13.824
26693W        W90626  25.522  31.127  12.460
26694W        W90627  23.015  32.909  10.592
26695W        W90628  41.026  24.040   3.272
26696W        W90629  37.350   9.291  12.007
26697W        W90630  40.903   2.448   1.840
26698W        W90631  29.994  13.252   3.648
26699W        W90632  38.333  39.817   0.282
26700W        W90633   8.362   3.730   0.917
26701W        W90634  26.595  25.101  11.418
26702W        W90635  38.938  19.538  12.530
26703W        W90636  12.857  32.000  13.913
26704W        W90637  37.869  30.456   0.836
26705W        W90638  35.416   8.732   0.324
26706W        W90639  43.970  15.606   0.941
26707W        W90640  34.586  25.561   3.759
26708W        W90641  20.607  11.746   4.152
26709W        W90642  41.327   2.409   0.440
26710W        W90643  31.495   8.231  10.604
26711W        W90644  18.242   3.744   4.804
26712W        W90645   2.244  19.582   0.481
26713W        W90646  15.324  16.647  14.776
26714W        W90647  30.018  15.099  10.996
26715W        W90648  26.615  15.604   2.245
26716W        W90649  38.471  32.000   3.839
26717W        W90650  22.551  33.947  11.074
26718W        W90651  29.081  27.628  14.374
26719W        W90652  26.702  10.746  11.128
26720W        W90653   2.876  22.657   0.882
26721W        W90654  14.292  40.309  14.457
26722W        W90655  29.637  31.456  14.881
26723W        W90656   9.782   2.322   3.353
26724W        W90657   0.949   6.222  10.476
26725W        W90658  17.215  16.698   0.915
26726W        W90659   6.736  14.599  13.336
26727W        W90660  24.499  36.467  10.628
26728W        W90661  24.048  39.888   0.760
26729W        W90662  36.561   0.836   2.316
26730W        W90663  41.406   0.376  13.801
26731W        W90664  24.226  42.969  12.927
26732W        W90665  16.303  40.938  14.849
26733W        W90666   7.268   0.474  14.483
26734W        W90667  10.684   2.808  14.016
26735W        W90668  31.126  13.223   0.483
26736W        W90669  39.545   3.415   4.297
26737W        W90670  19.250  16.100   4.221
26738W        W90671  25.058  36.058   1.302
26739W        W90672  36.011  21.548  12.948
26740W        W90673  18.618  40.338   0.257
26741W        W90674   2.237  11.310   3.250
26742W        W90675  14.635   0.379  11.940
26743W        W90676  29.651   4.873   4.158
26744W        W90677  13.683  33.955  11.911
26745W        W90678  24.026  21.077   3.324
26746W        W90679  22.588   4.844  11.107
26747W        W90680  37.084  24.096  10.986
26748W        W90681  44.941  33.090   4.782
26749W        W90682   6.272  29.428   2.224
26750W        W90683  11.350  31.595  14.778
26751W        W90684  17.596  41.002   3.268
26752W        W90685  44.325  28.002  14.289
26753W        W90686   2.746  44.953  14.974
26754W        W90687  13.144  31.024  13.446
26755W        W90688  21.668   9.860   2.789
26756W        W90689  23.720  15.146  14.493
26757W        W90690   8.756   5.713  10.953
26758W        W90691  42.416  25.508  11.994
26759W        W90692  13.187   8.217   2.389
26760W        W90693   9.786  27.483   1.369
26761W        W90694  26.667  21.687  10.598
26762W        W90695  44.981   4.777   1.330
26763W        W90696  19.075  42.311   2.804
26764W        W90697   6.397  20.219   1.749
26765W        W90698  23.208   4.219   3.237
26766W        W90699  19.231   4.276  12.886
26767W        W90700  21.755  44.766   4.708
26768W        W90701  41.307  24.544  11.947
26769W        W90702  34.543  20.179  11.582
26770W        W90703  37.536  25.097   0.853
26771W        W90704  37.038  11.239  14.309
26772W        W90705  32.576   2.732   0.297
26773W        W90706  25.045  17.110   4.238
26774W        W90707   2.817  28.083   2.322
26775W        W90708  11.708  16.606  14.846
26776W        W90709  22.008  13.705   0.820
26777W        W90710  33.914  36.063   3.678
26778W        W90711  15.091   7.877  10.502
26779W        W90712   8.818   3.724   2.677
26780W        W90713  31.906   1.250  12.567
26781W        W90714  22.206  41.350   3.814
26782W        W90715   4.918   2.893   3.326
26783W        W90716   0.360  21.193  14.808
26784W        W90717   4.734  32.587   5.234
26785W        W90718   8.330  10.736  14.855
26786W        W90719   0.361  25.542   0.335
26787W        W90720  15.190  26.544  10.572
26788W        W90721  28.643  35.986  11.374
26789W        W90722   5.728  32.583   4.216
26790W        W90723  44.438   5.802   4.147
26791W        W90724  24.051   3.251  13.376
26792W        W90725   4.849  12.729   2.328
26793W        W90726  27.642  16.192   2.817
26794W        W90727  23.704  44.964  14.498
26795W        W90728   5.343   2.874  11.439
26796W        W90729  11.726  14.613  11.571
26797W        W90730  26.101  30.946  11.102
26798W        W90731  29.141  37.865   3.192
26799W        W90732  18.708  31.145   4.243
26800W        W90733  38.849  13.843  13.483
26801W        W90734   8.344  29.521  14.967
26802W        W90735  12.285   2.465   0.935
26803W        W90736  20.045  29.634   2.682
26804W        W90737  26.558  33.603   5.230
26805W        W90738  42.008  15.744  11.921
26806W        W90739   3.442  11.830   0.339
26807W        W90740  30.555   8.305  14.819
26808W        W90741  26.696  19.584  11.879
26809W        W90742  31.420  21.034   3.803
26810W        W90743  43.915  32.979  11.065
26811W        W90744  21.173   5.346   5.173
26812W        W90745   4.361  23.534   3.771
26813W        W90746  29.488   7.693   1.822
26814W        W90747  11.250  24.184   1.317
26815W        W90748  31.946   1.834   0.921
26816W        W90749   6.731  22.665  13.799
26817W        W90750   9.248  20.124  12.577
26818W        W90751  44.306  23.050   2.672
26819W        W90752  44.324  10.222  14.918
26820W        W90753  27.570  19.158  12.836
26821W        W90754  39.878   4.315  14.508
26822W        W90755  23.712  29.980  12.862
26823W        W90756  34.868  35.437   2.197
26824W        W90757  44.365  31.030  10.607
26825W        W90758  31.647  20.107   1.273
26826W        W90759  27.572  32.933   1.801
26827W        W90760  35.926  13.682  14.275
26828W        W90761  34.609  27.521   4.779
26829W        W90762  12.253  14.653  14.296
26830W        W90763   7.292   9.283  14.955
26831W        W90764  44.983   0.476   4.615
26832W        W90765  35.433  23.558   0.359
26833W        W90766   0.466  34.081   1.883
26834W        W90767  25.664  40.054  13.433
26835W        W90768  28.001  43.925  11.113
26836W        W90769  37.571  23.645  12.491
26837W        W90770  25.176  41.976   2.745
26838W        W90771   5.742   1.422   5.800
26839W        W90772   2.394   2.847  11.427
26840W        W90773  26.528   2.444  10.002
26841W        W90774  38.398  14.727  11.976
26842W        W90775  43.273  11.189   2.855
26843W        W90776  26.115   8.243  12.899
26844W        W90777  12.306  18.766  14.001
26845W        W90778  20.628  12.638   2.707
26846W        W90779  10.782  44.965  12.836
26847W        W90780  35.046  44.760   3.327
26848W        W90781   4.844  25.690   1.852
26849W        W90782   5.392  21.638   1.210
26850W        W90783   6.238   5.227  14.912
26851W        W90784  39.907  18.701   0.400
26852W        W90785  25.562  43.873  13.330
26853W        W90786  37.887  23.195   1.320
26854W        W90787   0.289  39.483   0.371
26855W        W90788  34.505   7.340   3.870
26856W        W90789  24.552  38.048  14.513
26857W        W90790  28.648   4.343   4.752
26858W        W90791  43.911   4.884  14.791
26859W        W90792  33.972   2.892  10.551
26860W        W90793  29.981  10.859   4.605
26861W        W90794  23.693  25.502   1.802
26862W        W90795  13.137   8.671  10.153
26863W        W90796  33.571  38.419   3.771
26864W        W90797  21.190   4.833  12.013
26865W        W90798  39.493  39.330  12.963
26866W        W90799  39.423  35.891   1.389
26867W        W90800  14.134  39.397  14.967
26868W        W90801   1.458  30.579   3.835
26869W        W90802   3.891   4.852  12.970
26870W        W90803  36.899  44.355  14.464
26871W        W90804  15.632  36.580  14.442
26872W        W90805  21.710   4.432   2.254
26873W        W90806   7.333  36.066   2.204
26874W        W90807   3.405  35.097   0.756
26875W        W90808  32.028  14.750   5.313
26876W        W90809  15.139  25.094   2.179
26877W        W90810  13.631  24.516   2.847
26878W        W90811  40.509  44.371  11.915
26879W        W90812  10.362  41.955  13.874
26880W        W90813  33.485  43.921   3.858
26881W        W90814  13.714  35.441   4.807
26882W        W90815   4.450   9.888  12.047
26883W        W90816  37.531  26.609  10.994
26884W        W90817  23.188  15.329   2.291
26885W        W90818  15.259  17.731   0.882
26886W        W90819  32.950  29.507   2.832
26887W        W90820  19.576  43.980  11.438
26888W        W90821  33.129   8.828   0.401
26889W        W90822  29.989   3.435   0.380
26890W        W90823  40.994  10.843  12.923
26891W        W90824  41.808   1.870   1.908
26892W        W90825  14.620  16.601   1.283
26893W        W90826  15.115  10.287   0.963
26894W        W90827  15.706  18.759   4.836
26895W        W90828  40.522   8.758   3.182
26896W        W90829  28.140  35.381  13.361
26897W        W90830  30.554   9.362   1.397
26898W        W90831  31.106   2.242  10.461
26899W        W90832  27.166  35.853   1.747
26900W        W90833  31.127  24.143  14.956
26901W        W90834   2.888  22.649   4.616
26902W        W90835   3.243   3.410  13.017
26903W        W90836  23.660   4.807  11.451
26904W        W90837   4.856  24.044   2.836
26905W        W90838  22.009  25.055  11.425
26906W        W90839  33.965  10.682   4.303
26907W        W90840  38.887  19.192  10.565
26908W        W90841  20.067  21.581   3.748
26909W        W90842  21.586  12.155  12.085
26910W        W90843  18.570  28.977   0.950
26911W        W90844   1.941  44.434   0.809
26912W        W90845  43.386  13.137   2.673
26913W        W90846  24.044  36.370   0.756
26914W        W90847  25.538  34.083  13.870
26915W        W90848  20.146   9.694   3.359
26916W        W90849  42.450  33.015  12.415
26917W        W90850  36.419  21.713  13.983
26918W        W90851  25.485  17.739  13.449
26919W        W90852  18.132  43.883  10.592
26920W        W90853  39.972  25.126  10.480
26921W        W90854   2.329  23.101  11.529
26922W        W90855  40.445   6.760   3.282
26923W        W90856   1.241  41.314   1.301
26924W        W90857  13.641  16.786  10.530
26925W        W90858  31.921   5.321  14.977
26926W        W90859   6.373  44.993  11.958
26927W        W90860  20.250  26.188  14.515
26928W        W90861  42.852  20.598  11.069
26929W        W90862   8.793  29.017   4.144
26930W        W90863  29.003  25.642   1.295
26931W        W90864  16.217  32.415   3.169
26932W        W90865  24.487   6.739   2.760
26933W        W90866  37.028   5.769  14.031
26934W        W90867  28.124  12.330   0.308
26935W        W90868   1.440   5.409   1.867
26936W        W90869   0.903  29.133   0.822
26937W        W90870  38.368  25.091   1.235
26938W        W90871   0.387   2.840   2.840
26939W        W90872  21.237   0.434  11.078
26940W        W90873  16.288   3.737   4.743
26941W        W90874  44.913  19.178  11.064
26942W        W90875  27.645  44.412   0.364
26943W        W90876  16.189  28.097   3.715
26944W        W90877  31.518  44.882   0.389
26945W        W90878  36.961   0.256   3.819
26946W        W90879  27.475  17.663  12.388
26947W        W90880  39.049  28.001  11.044
26948W        W90881  34.611  33.507  11.393
26949W        W90882  37.995   4.374   2.243
26950W        W90883  32.621  30.565   0.929
26951W        W90884  12.809  24.216  12.987
26952W        W90885  29.105  19.566   3.225
26953W        W90886   7.828   4.727  14.437
26954W        W90887  18.657   7.341  10.534
26955W        W90888  19.569   2.394  13.432
26956W        W90889  33.429   1.345   2.775
26957W        W90890   1.909   9.319  10.509
26958W        W90891   0.823   7.264  14.879
26959W        W90892  21.177  40.899  14.854
26960W        W90893  34.423  32.103   1.712
26961W        W90894  34.927   7.415  14.863
26962W        W90895   5.846   9.284  13.854
26963W        W90896  20.149  29.070  14.468
26964W        W90897  13.343  16.114   2.298
26965W        W90898  25.544  35.085   0.466
26966W        W90899  29.651  22.232   0.410
26967W        W90900   2.300  41.910  14.309
26968W        W90901  16.645  43.417   1.850
26969W        W90902   9.673   4.442   0.791
26970W        W90903  44.848  15.194   3.250
26971W        W90904  41.335  34.879  13.856
26972W        W90905   7.679  13.617  14.331
26973W        W90906  12.336  42.821   1.256
26974W        W90907  40.968  43.939   2.231
26975W        W90908  20.226  37.533   0.370
26976W        W90909  44.878  25.158   0.251
26977W        W90910   7.678  25.592   1.280
26978W        W90911  33.905  32.576   3.199
26979W        W90912  41.374   2.790  11.917
26980W        W90913   0.742  21.042   4.645
26981W        W90914  29.014  33.047   4.608
26982W        W90915   9.229  19.147   3.281
26983W        W90916   6.798  25.709  14.327
26984W        W90917   3.795   6.417  11.591
26985W        W90918  44.277  15.660   1.263
26986W        W90919  44.861  31.550   0.275
26987W        W90920  24.688  42.784   4.211
26988W        W90921  10.193  26.182   4.328
26989W        W90922  34.863   6.291   2.888
26990W        W90923   3.446  16.234   3.252
26991W        W90924  28.048  36.954   0.407
26992W        W90925  10.289  31.561  12.876
26993W        W90926   3.723  29.436   3.292
26994W        W90927  31.083  38.894  14.868
26995W        W90928  26.640   3.310  10.440
26996W        W90929  20.577  31.445  11.531
26997W        W90930  40.496  11.761   0.859
26998W        W90931  14.775  15.103   2.877
26999W        W90932  14.804  27.153  10.555
27000W        W90933  42.282  16.681   3.239
27001W        W90934  12.643   8.191   2.304
27002W        W90935   9.668   3.427   5.107
27003W        W90936  33.438   2.304   0.483
27004W        W90937  38.028   9.684  14.932
27005W        W90938  30.593  40.892   2.665
27006W        W90939  40.370  17.158   1.260
27007W        W90940  35.022   6.274  11.874
27008W        W90941   7.708  44.414   2.187
27009W        W90942   5.904  29.436   0.472
27010W        W90943  33.520   5.303  12.862
27011W        W90944  34.975   2.799   2.875
27012W        W90945  25.657  32.071   1.699
27013W        W90946  21.687  19.243  14.022
27014W        W90947  31.637  17.628   1.740
27015W        W90948  33.113  21.601  14.466
27016W        W90949   0.791  40.948  10.961
27017W        W90950  19.625  36.347  11.514
27018W        W90951  39.365  17.085  14.321
27019W        W90952  13.177  11.237   1.251
27020W        W90953  24.003   4.310  11.104
27021W        W90954  35.959  11.326   0.412
27022W        W90955  42.917  17.762  11.957
27023W        W90956  11.633   9.381   2.213
27024W        W90957  10.655   4.388  12.915
27025W        W90958  16.674  18.136   2.745
27026W        W90959  24.102   8.362   2.861
27027W        W90960  20.266  30.949  11.124
27028W        W90961  36.903  44.866   0.361
27029W        W90962  27.564  30.589   1.697
27030W        W90963   3.931  38.971   0.307
27031W        W90964  43.296  35.412   3.348
27032W        W90965  41.360  31.026   2.330
27033W        W90966  11.749   7.898   2.700
27034W        W90967  18.647  32.086  11.381
27035W        W90968  11.698  33.391   5.295
27036W        W90969   8.887   7.186   2.892
27037W        W90970   8.749  38.979   2.773
27038W        W90971   9.184  30.960   3.821
27039W        W90972   4.323  29.996  14.770
27040W        W90973   6.731  15.295  10.039
27041W        W90974  20.055  41.439   2.762
27042W        W90975  23.644  12.232   3.857
27043W        W90976  41.011  27.601   0.255
27044W        W90977  12.844  18.174  12.859
27045W        W90978  34.024  18.251   2.684
27046W        W90979  14.727  39.541  11.874
27047W        W90980   6.800  10.791   4.271
27048W        W90981  42.968  25.053   4.204
27049W        W90982   5.289  11.784   3.860
27050W        W90983  25.191  38.880   1.793
27051W        W90984   5.688   4.411  11.584
27052W        W90985  18.064  20.246  11.550
27053W        W90986  35.564  19.741   0.740
27054W        W90987  40.499  16.663  14.352
27055W        W90988  35.970  36.452   4.307
27056W        W90989  26.029  13.610   4.122
27057W        W90990  44.788  42.821   4.824
27058W        W90991   3.452   7.261  11.411
27059W        W90992  30.037  14.708  14.788
27060W        W90993   9.743  39.419   0.416
27061W        W90994  24.582  24.104  14.516
27062W        W90995  25.540   8.864   1.424
27063W        W90996  34.909  32.461  12.871
27064W        W90997   9.702  37.885   3.743
27065W        W90998  41.905  13.792   0.872
27066W        W90999  14.149  44.769  11.522
27067W        W91000  32.508  39.321  10.411
27068W        W91001   4.343  39.436   0.330
27069W        W91002  30.117  35.485   1.338
27070W        W91003  13.633  29.031  14.805
27071W        W91004  40.496  28.475   4.788
27072W        W91005  20.609   2.952  10.930
27073W        W91006  27.559   4.213  10.618
27074W        W91007  41.516  15.209   4.272
27075W        W91008  40.897  30.574  11.997
27076W        W91009  20.123  26.017   1.365
27077W        W91010  17.705   0.929  13.477
27078W        W91011  35.095  32.635   0.931
27079W        W91012  37.075  42.838   1.704
27080W        W91013  25.682   9.337  11.886
27081W        W91014  41.796  10.377   3.341
27082W        W91015  32.962  37.534   1.830
27083W        W91016  12.340   4.339  10.616
27084W        W91017  22.219   7.885   3.691
27085W        W91018  39.983   1.963   3.287
27086W        W91019  38.549   4.780  13.960
27087W        W91020  32.004  24.691  11.567
27088W        W91021   5.312  36.424   3.672
27089W        W91022  10.213  10.338   4.194
27090W        W91023  10.668  32.094   4.697
27091W        W91024  36.378  37.496  14.982
27092W        W91025   1.951  14.653  13.923
27093W        W91026   7.408  21.206   2.315
27094W        W91027  31.437  34.408  13.791
27095W        W91028  28.061  36.991  11.379
27096W        W91029  32.561  44.475   4.228
27097W        W91030  27.150  26.958  11.548
27098W        W91031  32.581   7.758  11.391
27099W        W91032  35.105  24.045   3.161
27100W        W91033  24.074  26.103   3.825
27101W        W91034  43.000  24.499  11.402
27102W        W91035  22.627  25.634   4.339
27103W        W91036  27.966  37.561  12.412
27104W        W91037  43.411  44.999   2.811
27105W        W91038  36.864  37.442  13.947
27106W        W91039  34.380  40.417   1.764
27107W        W91040  23.056  10.838  12.069
27108W        W91041  32.925  26.023  10.546
27109W        W91042   9.374   2.276  12.556
27110W        W91043  32.989  12.774  11.487
27111W        W91044  12.837  27.159  11.009
27112W        W91045  31.941  43.940  13.445
27113W        W91046  37.582  28.985   2.187
27114W        W91047  29.962  38.959  13.983
27115W        W91048  28.030  33.947  13.399
27116W        W91049  42.520  21.632  14.433
27117W        W91050   2.400  41.435  11.468
27118W        W91051  35.956   4.890  10.534
27119W        W91052   8.309  31.904  11.981
27120W        W91053  16.086  24.998   2.772
27121W        W91054  10.209  15.756   3.711
27122W        W91055  37.492  26.547   4.634
27123W        W91056   8.694  10.700   0.925
27124W        W91057  41.496   3.944  14.302
27125W        W91058  19.724   2.460   0.759
27126W        W91059  27.121   1.948  10.028
27127W        W91060  27.112  34.421  12.034
27128W        W91061  35.995   9.849  14.275
27129W        W91062  35.031  23.017  11.942
27130W        W91063  44.286  39.051   3.669
27131W        W91064   2.378  14.750  10.993
27132W        W91065  33.914   0.961  13.915
27133W        W91066  34.444  30.414   4.289
27134W        W91067  38.840  21.028  11.490
27135W        W91068   5.213   5.318   2.687
27136W        W91069  35.576  23.031   2.829
27137W        W91070  19.117   7.371  14.501
27138W        W91071  38.053  35.963  12.384
27139W        W91072  37.042   2.412  10.898
27140W        W91073  44.988  38.022   3.740
27141W        W91074  34.932  38.916   0.469
27142W        W91075  25.027  11.158  14.785
27143W        W91076  30.013   7.893   4.680
27144W        W91077  34.039  12.231  10.949
27145W        W91078  42.029  43.493   0.299
27146W        W91079  20.647  37.439   1.302
27147W        W91080  39.028  31.903  14.413
27148W        W91081  14.641  15.271  10.498
27149W        W91082  34.892  34.529  12.046
27150W        W91083   3.820  32.619  13.402
27151W        W91084  44.984  29.988  13.996
27152W        W91085  14.775  25.654   1.902
27153W        W91086   2.450  28.573   4.173
27154W        W91087  22.664  32.453  13.857
27155W        W91088  22.161   3.414  14.761
27156W        W91089  29.558  29.006   5.242
27157W        W91090   1.245  28.519   3.757
27158W        W91091   6.890  29.644  14.940
27159W        W91092   5.288  23.087  11.493
27160W        W91093  20.229  31.153   0.941
27161W        W91094  42.478  32.026   4.618
27162W        W91095  40.326   2.879   3.269
27163W        W91096  17.565  23.072  12.998
27164W        W91097  18.657  23.177  11.074
27165W        W91098  31.925  38.870  10.478
27166W        W91099  22.654  33.130  11.920
27167W        W91100  31.606   7.703   3.863
27168W        W91101   3.812   4.207  11.458
27169W        W91102  15.249  21.709   4.706
27170W        W91103  29.960   9.158   4.139
27171W        W91104   8.389  41.003   0.807
27172W        W91105  33.601  25.144   1.235
27173W        W91106  28.961  34.426  13.919
27174W        W91107  27.066  35.917   2.862
27175W        W91108   6.244  15.309  12.014
27176W        W91109  41.970  36.395  12.031
27177W        W91110   8.860  31.424   0.288
27178W        W91111  23.084  32.024   5.216
27179W        W91112  18.719   7.272   3.181
27180W        W91113  23.637  35.454  10.628
27181W        W91114  38.394  14.169   1.401
27182W        W91115  43.929  31.541   2.727
27183W        W91116  39.363  39.504   2.189
27184W        W91117  19.618  17.753  11.481
27185W        W91118   2.455  22.670  12.050
27186W        W91119  28.535  40.494  12.083
27187W        W91120  18.655  20.086  14.501
27188W        W91121  16.102  35.592  13.918
27189W        W91122  30.968  39.438  13.377
27190W        W91123  28.932  17.559  14.442
27191W        W91124  16.159  38.996  11.608
27192W        W91125   9.761  44.937  11.888
27193W        W91126  36.539  12.233   0.338
27194W        W91127  29.145  12.719  11.011
27195W        W91128  14.128  27.586   3.179
27196W        W91129  10.252  26.028  12.908
27197W        W91130  22.602  11.158   4.126
27198W        W91131  20.630  35.058  11.581
27199W        W91132  24.166  41.535  14.979
27200W        W91133   2.401  24.676  11.887
27201W        W91134  42.415  44.789  13.951
27202W        W91135  11.652  11.858  10.918
27203W        W91136  42.999  44.929   0.813
27204W        W91137  37.519  19.255  12.500
27205W        W91138  18.059  27.946   9.943
27206W        W91139   4.867  37.926  13.843
27207W        W91140  29.481   9.737  11.978
27208W        W91141  11.148  33.471   4.630
27209W        W91142   8.303   4.708  13.012
27210W        W91143  21.570  44.394   0.358
27211W        W91144  25.645   9.326  13.440
27212W        W91145  12.210   9.222   2.412
27213W        W91146  11.648  14.095  11.476
27214W        W91147   1.872  20.744  12.871
27215W        W91148  20.681  24.156   0.431
27216W        W91149  12.174   3.790  10.908
27217W        W91150   2.458  32.483   3.862
27218W        W91151  31.908   3.459   4.210
27219W        W91152  27.504  23.683   2.775
27220W        W91153   0.917   1.925  11.406
27221W        W91154  33.459  39.485  13.524
27222W        W91155  35.548  44.472   0.386
27223W        W91156  32.477  40.862  13.936
27224W        W91157  41.792  30.007   2.722
27225W        W91158  10.174  44.333  10.431
27226W        W91159  37.496   5.354   3.356
27227W        W91160   1.242   0.828  10.555
27228W        W91161  33.017  26.696  11.505
27229W        W91162   4.866  24.632  14.309
27230W        W91163  24.707   2.754  13.842
27231W        W91164   6.248  42.524   0.784
27232W        W91165  16.667  23.102  13.800
27233W        W91166  17.169   7.372  14.444
27234W        W91167  41.319  43.454  11.611
27235W        W91168  27.944  21.633  14.967
27236W        W91169  23.211  11.841  12.378
27237W        W91170  35.037   2.929   4.804
27238W        W91171   5.382  20.723  14.875
27239W        W91172   1.836  38.883  12.490
27240W        W91173   3.390  38.040   3.776
27241W        W91174  35.053  41.815   0.770
27242W        W91175  26.461  38.073  11.481
27243W        W91176  19.584  12.246   3.650
27244W        W91177   2.452  42.357   1.344
27245W        W91178  41.503  27.999   1.439
27246W        W91179  32.479  27.003   1.759
27247W        W91180   5.380  39.960  13.443
27248W        W91181  27.559  24.541   1.312
27249W        W91182  22.025  17.214  10.518
27250W        W91183  44.862   8.655  13.969
27251W        W91184  37.027  35.383   0.821
27252W        W91185   3.427  17.590  13.441
27253W        W91186  32.467  24.612   1.843
27254W        W91187  38.906  23.106   4.619
27255W        W91188   1.480  43.786  14.993
27256W        W91189  30.429  44.444   4.823
27257W        W91190  38.932  36.443   2.804
27258W        W91191  25.645   6.350   1.349
27259W        W91192   8.280   2.283   0.360
27260W        W91193   1.929  31.905  12.054
27261W        W91194  27.560  12.161  12.948
27262W        W91195  27.043   5.222   0.859
27263W        W91196  37.880  14.110  10.905
27264W        W91197   4.923  37.045  13.926
27265W        W91198  24.139  10.210   1.805
27266W        W91199  42.989   9.851   2.851
27267W        W91200  11.352  22.011   0.789
27268W        W91201  35.395  13.190   2.842
27269W        W91202   8.676   8.344  14.461
27270W        W91203   4.360  19.147   3.677
27271W        W91204  27.948  34.952  11.033
27272W        W91205  40.432  20.047   3.171
27273W        W91206  20.557  13.246   1.307
27274W        W91207  10.295  26.999   1.262
27275W        W91208  44.921   7.756   1.770
27276W        W91209   1.421  19.153   1.815
27277W        W91210  41.329  10.697  13.031
27278W        W91211  27.020  27.141   0.307
27279W        W91212   8.706  35.040   4.296
27280W        W91213  41.325  30.157  14.441
27281W        W91214   6.874   6.703  10.424
27282W        W91215  28.019   8.880  10.469
27283W        W91216  43.018  25.091   1.333
27284W        W91217  23.151  32.964  14.413
27285W        W91218  29.003   3.439   3.823
27286W        W91219  17.206  32.535  12.056
27287W        W91220  30.645  27.578   3.844
27288W        W91221  14.785  19.227   2.408
27289W        W91222  36.095  42.325  10.895
27290W        W91223  23.733   8.313   4.819
27291W        W91224  35.853  20.198   4.153
27292W        W91225   2.747  14.794   3.178
27293W        W91226   8.764  15.603  14.419
27294W        W91227  31.472  44.496   0.382
27295W        W91228  12.737   8.761  11.086
27296W        W91229  26.111  20.119  12.939
27297W        W91230  29.514   9.203  12.389
27298W        W91231  13.288  32.004   4.134
27299W        W91232  25.642   0.493  12.563
27300W        W91233   0.985  22.240   0.280
27301W        W91234  11.373  30.043   0.410
27302W        W91235  14.786  12.193  11.918
27303W        W91236  11.282  13.800   2.696
27304W        W91237  41.932   0.356  14.853
27305W        W91238  25.558   0.890   1.405
27306W        W91239  30.557  44.898  11.566
27307W        W91240   1.411   1.960  13.351
27308W        W91241  14.699   7.750  13.874
27309W        W91242  22.657  25.665   1.734
27310W        W91243  26.115  34.536  11.869
27311W        W91244  43.453  22.207  10.643
27312W        W91245  41.010  24.227   1.813
27313W        W91246  16.773  21.097   2.821
27314W        W91247  44.882  43.489   4.723
27315W        W91248  33.061  30.437  11.509
27316W        W91249  40.530  26.527  12.540
27317W        W91250  15.138   6.328   4.225
27318W        W91251  18.660  28.533  10.602
27319W        W91252  38.448   9.692  14.992
27320W        W91253  27.016  43.968   0.385
27321W        W91254  30.034  19.278   1.702
27322W        W91255  40.367  25.541   3.384
27323W        W91256   0.945  12.337   1.701
27324W        W91257  42.331  19.597   4.151
27325W        W91258  38.543  23.686   1.771
27326W        W91259  41.036   1.770   0.254
27327W        W91260  20.553  30.007   1.251
27328W        W91261   3.279  13.818  14.978
27329W        W91262  24.998   5.312  14.793
27330W        W91263   1.433   1.763   0.953
27331W        W91264  11.265  33.488  12.046
27332W        W91265  34.870  35.024  13.362
27333W        W91266   9.347  30.525   0.826
27334W        W91267  39.535  33.607  12.826
27335W        W91268   9.358  23.168  10.122
27336W        W91269  15.750   7.201  13.371
27337W        W91270  11.282  42.874   0.462
27338W        W91271  35.981  10.290  11.396
27339W        W91272  44.493  42.902   2.756
27340W        W91273  35.425  36.033  14.962
27341W        W91274  19.274  36.452  12.053
27342W        W91275  23.634  37.016  10.538
27343W        W91276   3.810  31.456  14.777
27344W        W91277  24.144  14.706   2.408
27345W        W91278  20.267  41.815   2.725
27346W        W91279  17.652  36.982   0.321
27347W        W91280  38.983  44.319   4.836
27348W        W91281  26.115   7.869  13.852
27349W        W91282   3.401  44.798  14.969
27350W        W91283   4.933  41.530  10.595
27351W        W91284  11.182  40.043   2.851
27352W        W91285  32.888  32.477  14.857
27353W        W91286  16.804  28.496   3.850
27354W        W91287  35.886   5.427  14.898
27355W        W91288  17.723  24.496   4.677
27356W        W91289  24.132  30.462  14.021
27357W        W91290  34.997  19.580   0.873
27358W        W91291   4.330  36.520   0.407
27359W        W91292  41.936  13.743  11.411
27360W        W91293  41.493  39.004  13.494
27361W        W91294  28.612   0.770   1.365
27362W        W91295   2.462  11.847   3.680
27363W        W91296  39.874  42.367   4.837
27364W        W91297   4.725  11.849   2.868
27365W        W91298  36.992   8.697  14.513
27366W        W91299  19.100  14.665   3.713
27367W        W91300   7.173   5.802  10.458
27368W        W91301  11.182   3.787  12.868
27369W        W91302  32.617  36.503   0.474
27370W        W91303  44.320   0.917   3.191
27371W        W91304  17.770  19.152   3.661
27372W        W91305  28.605  20.597   1.447
27373W        W91306  37.874  19.697   2.264
27374W        W91307  28.976  39.951  10.411
27375W        W91308  31.909   6.896   1.856
27376W        W91309  23.216  39.823  11.979
27377W        W91310  37.559  11.371   3.691
27378W        W91311  14.833  26.694   3.337
27379W        W91312  25.561  20.163   2.187
27380W        W91313  29.568  29.477   1.713
27381W        W91314  18.266  21.164  14.996
27382W        W91315  44.940  35.436   5.604
27383W        W91316  15.163   0.914  13.960
27384W        W91317  44.933  30.580   4.646
27385W        W91318  40.322  34.440  14.497
27386W        W91319   2.832   6.421  12.043
27387W        W91320  14.165   2.250   2.817
27388W        W91321  24.163  32.527   3.688
27389W        W91322  18.071  21.157   4.639
27390W        W91323   1.389  36.384  11.089
27391W        W91324  35.359   3.429   4.811
27392W        W91325  37.450   3.811  13.907
27393W        W91326   0.338  25.615   0.783
27394W        W91327  10.277  19.726   0.760
27395W        W91328   7.796  40.388  14.909
27396W        W91329  39.039   2.466  13.956
27397W        W91330  18.116  39.036  12.494
27398W        W91331   5.845  23.211  13.856
27399W        W91332  26.083  35.971  13.421
27400W        W91333   2.793   1.334  12.547
27401W        W91334  21.078  42.872  13.942
27402W        W91335  16.633  26.676   3.259
27403W        W91336   1.766  16.202   3.262
27404W        W91337  36.040   5.879   3.213
27405W        W91338  20.261  40.452  12.378
27406W        W91339  32.621  43.297  11.042
27407W        W91340   6.407  19.568  13.369
27408W        W91341  18.768   5.330   3.771
27409W        W91342  27.070  10.243   1.756
27410W        W91343   7.786  36.068  14.798
27411W        W91344   5.327  30.520   3.368
27412W        W91345   6.182  20.721  11.953
27413W        W91346  18.739  32.546  11.589
27414W        W91347  35.032  12.284  13.038
27415W        W91348  36.492  31.112   0.903
27416W        W91349   3.778  30.057   0.878
27417W        W91350  36.427  28.987   3.789
27418W        W91351  16.697  22.072   0.834
27419W        W91352  39.943  14.743   1.366
27420W        W91353  10.380  42.822  10.110
27421W        W91354   3.857  19.244   2.223
27422W        W91355  28.015  28.590   2.337
27423W        W91356  24.215  27.545  12.027
27424W        W91357  31.549  26.047   3.367
27425W        W91358  39.014   7.331  12.826
27426W        W91359  30.972  15.819  10.543
27427W        W91360  19.594  42.412   4.709
27428W        W91361   9.212  44.933   2.263
27429W        W91362  36.016  33.544  11.918
27430W        W91363  31.414   8.400   1.317
27431W        W91364  16.108  25.181   3.216
27432W        W91365  11.685  22.733  10.589
27433W        W91366  12.134  34.517  14.973
27434W        W91367  40.042   9.766  12.574
27435W        W91368  26.106  25.105  10.472
27436W        W91369   3.891   2.963   1.793
27437W        W91370  33.421  38.934  14.004
27438W        W91371  40.388  40.011   3.319
27439W        W91372  43.303   1.444  13.337
27440W        W91373  34.035  15.182  14.824
27441W        W91374  40.886  39.054  12.508
27442W        W91375  15.665   3.719   4.245
27443W        W91376  15.649  40.997   5.151
27444W        W91377  37.388  30.982   1.424
27445W        W91378   8.162   6.241   5.279
27446W        W91379  32.068  44.466   2.333
27447W        W91380   0.302  39.818   3.836
27448W        W91381  30.012  24.121   0.894
27449W        W91382  24.515  22.514   2.342
27450W        W91383  25.699  39.973  10.110
27451W        W91384  43.312  12.359   3.665
27452W        W91385  29.025   5.875   2.769
27453W        W91386  41.790   5.412  12.823
27454W        W91387  31.994  36.430   4.601
27455W        W91388  36.977  18.078   3.238
27456W        W91389  22.075  31.488  13.884
27457W        W91390  30.499  41.371  12.849
27458W        W91391  43.374   1.426   3.677
27459W        W91392   9.710  11.192   0.339
27460W        W91393   3.832  28.989   1.861
27461W        W91394  35.585  18.733   1.717
27462W        W91395  28.661  20.213   1.393
27463W        W91396   0.832  31.969   3.283
27464W        W91397  17.255  25.103  12.510
27465W        W91398   1.834  37.359  14.487
27466W        W91399  37.997  31.933  13.833
27467W        W91400  18.163  43.769  11.066
27468W        W91401  26.044  14.662  14.486
27469W        W91402  22.130  18.708  10.450
27470W        W91403   4.912   7.845  14.483
27471W        W91404  35.009  31.045  11.911
27472W        W91405  21.604  14.206  13.511
27473W        W91406  34.047  29.973  11.086
27474W        W91407  39.416  21.102  11.877
27475W        W91408   5.736  34.002  14.470
27476W        W91409  15.190  34.071  12.440
27477W        W91410  14.103  28.542  10.422
27478W        W91411  41.389   4.304  14.792
27479W        W91412  34.990  29.430   3.196
27480W        W91413  39.458  21.579  10.609
27481W        W91414  34.424  39.423  13.018
27482W        W91415  14.100   0.494  12.551
27483W        W91416  34.433  20.173  10.631
27484W        W91417   9.714   0.808   3.757
27485W        W91418  25.143   7.828   4.121
27486W        W91419  15.780   5.431  10.440
27487W        W91420  31.129   9.352   1.866
27488W        W91421  28.098  17.165  11.077
27489W        W91422  42.526   1.923   1.904
27490W        W91423  11.229  22.210  10.583
27491W        W91424  39.827  12.329  11.935
27492W        W91425   1.966  16.300  14.293
27493W        W91426  28.581   9.220   2.250
27494W        W91427  16.809   0.899  10.545
27495W        W91428  21.594  30.007  14.476
27496W        W91429  28.046  10.361   2.341
27497W        W91430  12.201  18.114  12.566
27498W        W91431  36.885   3.712  10.577
27499W        W91432   0.748  42.833   5.271
27500W        W91433  27.496  15.218   2.232
27501W        W91434   3.889  16.257  11.867
27502W        W91435  25.593   7.794   1.272
27503W        W91436  16.261  26.650   3.251
27504W        W91437   9.188  11.263  14.491
27505W        W91438  25.521  33.075  11.988
27506W        W91439  26.097  22.080   4.740
27507W        W91440  15.112  35.905   3.740
27508W        W91441  44.868  13.237  11.962
27509W        W91442   9.691  42.818   4.670
27510W        W91443  38.414  34.895  13.430
27511W        W91444   7.758   1.267   1.763
27512W        W91445   8.404  44.010   0.920
27513W        W91446  27.609  32.456   4.702
27514W        W91447   1.243  26.655   3.702
27515W        W91448   7.683   8.386   2.268
27516W        W91449   8.820  16.807   1.343
27517W        W91450  24.613  40.340   1.425
27518W        W91451  25.621  16.150   0.925
27519W        W91452  43.973   3.235   1.800
27520W        W91453  24.216  34.941  14.762
27521W        W91454  23.045   4.279  14.345
27522W        W91455  32.112  44.759   0.786
27523W        W91456  30.471  29.632  13.832
27524W        W91457   4.725  29.457   1.879
27525W        W91458   3.859  32.563  10.911
27526W        W91459  13.822   8.841  10.969
27527W        W91460  37.523   3.232   1.358
27528W        W91461  10.342  10.719   1.352
27529W        W91462  22.631  20.206  11.478
27530W        W91463  40.436  35.479   1.285
27531W        W91464  43.820  42.457   2.217
27532W        W91465   8.198   7.342   0.830
27533W        W91466  17.248  44.839  13.457
27534W        W91467  20.720  32.049   2.410
27535W        W91468  43.486  19.051  11.417
27536W        W91469  23.177  28.064   2.396
27537W        W91470   1.351   4.760  13.532
27538W        W91471  14.246  31.110  13.062
27539W        W91472  19.107  35.995  11.996
27540W        W91473   6.368  27.575  14.497
27541W        W91474  36.007  28.984  11.908
27542W        W91475  22.013   6.321  11.511
27543W        W91476  40.325  26.488   1.734
27544W        W91477   6.407  24.615  11.484
27545W        W91478   7.890  25.117   0.414
27546W        W91479  25.647  23.165   3.822
27547W        W91480  10.676  23.496   4.799
27548W        W91481   2.263  42.974   3.267
27549W        W91482  30.017  13.145  10.979
27550W        W91483   5.758   8.192  14.860
27551W        W91484  32.085  33.427  14.994
27552W        W91485  32.960   7.796  11.073
27553W        W91486  24.672   3.253   1.355
27554W        W91487  20.681  22.561   2.822
27555W        W91488  29.424  37.422   0.315
27556W        W91489  40.996  40.979   2.309
27557W        W91490  15.302  30.479  11.408
27558W        W91491  40.518  13.109  12.972
27559W        W91492   6.268  34.531  12.425
27560W        W91493  18.566  17.293   3.700
27561W        W91494  38.325   1.301   4.676
27562W        W91495  31.556  12.630   4.698
27563W        W91496  34.079   8.764  13.061
27564W        W91497  18.558  41.478   2.274
27565W        W91498  11.838  32.003   5.107
27566W        W91499   7.787  40.963   0.755
27567W        W91500  37.368   3.823   4.302
27568W        W91501  43.986   7.255  14.924
27569W        W91502  24.976   5.207   4.291
27570W        W91503  40.945  17.293   2.814
27571W        W91504  18.287  25.532   3.341
27572W        W91505  14.768  27.124  13.345
27573W        W91506  36.371  20.594  13.803
27574W        W91507  38.514   6.875   2.665
27575W        W91508  16.703  23.499  13.804
27576W        W91509  17.757  42.396   1.868
27577W        W91510   8.337  10.296  13.856
27578W        W91511  11.860   0.785  10.421
27579W        W91512  36.026   2.366   2.812
27580W        W91513  28.459   8.209  13.892
27581W        W91514  20.246   6.190   4.347
27582W        W91515   4.432  17.588  10.588
27583W        W91516  16.800  30.490   2.357
27584W        W91517  20.628  10.260  13.430
27585W        W91518  44.480  35.414   0.243
27586W        W91519   2.926  37.853  14.819
27587W        W91520  29.508   1.468   1.751
27588W        W91521   6.748  41.436  14.974
27589W        W91522  40.431  10.665  12.008
27590W        W91523  15.634  35.918  13.443
27591W        W91524  15.211  43.488  14.874
27592W        W91525  12.731  27.147   2.690
27593W        W91526  12.284  32.502  11.081
27594W        W91527  27.033   1.386   0.897
27595W        W91528  25.976   1.364   1.219
27596W        W91529   3.818  41.999  13.026
27597W        W91530  13.790  20.645   1.748
27598W        W91531  22.642  23.550  10.461
27599W        W91532  32.947  19.576  10.984
27600W        W91533  28.662   3.741  13.884
27601W        W91534  16.659   9.368   2.880
27602W        W91535  15.732  43.934   4.825
27603W        W91536   8.713  43.287  13.958
27604W        W91537  10.147  35.103  14.820
27605W        W91538  28.956  11.323  14.853
27606W        W91539  40.395  15.783   2.849
27607W        W91540   0.322  15.606  13.496
27608W        W91541  40.879   8.852   4.122
27609W        W91542  29.493  12.702   1.705
27610W        W91543  38.514  15.817  13.961
27611W        W91544  24.220  25.068   4.156
27612W        W91545  18.618  18.243   1.848
27613W        W91546  14.151  19.256  12.043
27614W        W91547   9.205   7.778   1.866
27615W        W91548  37.900  37.847   4.239
27616W        W91549  13.162   2.754   2.199
27617W        W91550  32.048  12.154  12.529
27618W        W91551  27.030  26.110   3.303
27619W        W91552  27.111  35.505  14.937
27620W        W91553   5.821   8.853  13.463
27621W        W91554  10.149  19.615  10.036
27622W        W91555  15.186  22.158  13.365
27623W        W91556  30.096   3.225   1.418
27624W        W91557  33.933  42.285   4.710
27625W        W91558  25.135   4.912   1.848
27626W        W91559  16.295  29.511  14.845
27627W        W91560  10.810  12.701  11.939
27628W        W91561   0.823  28.107   1.270
27629W        W91562  19.751  29.503   1.402
27630W        W91563  13.303  41.923  10.598
27631W        W91564  37.871  44.386  10.080
27632W        W91565  16.121   7.244  14.414
27633W        W91566  44.391   2.752   0.245
27634W        W91567  12.796  11.196   4.166
27635W        W91568  22.010  31.137  12.513
27636W        W91569   4.942  22.722   3.832
27637W        W91570  41.948   5.758   0.461
27638W        W91571   0.429   7.312  14.843
27639W        W91572  31.489  41.314   3.725
27640W        W91573   9.851  30.080   3.244
27641W        W91574  25.177  15.638   2.702
27642W        W91575  38.954  30.945   4.245
27643W        W91576  44.863  29.969   4.655
27644W        W91577  26.583  32.078  12.825
27645W        W91578   6.893   5.331  13.907
27646W        W91579  43.954   8.751   3.816
27647W        W91580   5.852  24.083   2.709
27648W        W91581  12.193  13.817  13.914
27649W        W91582  41.453  24.034   1.433
27650W        W91583  30.992  35.600  13.932
27651W        W91584   6.371   8.228   2.393
27652W        W91585  31.013   7.347  12.828
27653W        W91586  17.678  36.843   1.851
27654W        W91587  41.505   9.808  10.980
27655W        W91588   0.966  25.552  11.459
27656W        W91589   6.873  22.098  13.471
27657W        W91590  19.589  14.663   2.748
27658W        W91591   9.689   2.739  13.534
27659W        W91592   3.459   7.808   2.866
27660W        W91593  36.576   7.694   0.468
27661W        W91594  13.822  35.448  11.108
27662W        W91595  20.699  36.985  12.540
27663W        W91596  22.633  24.589  14.420
27664W        W91597  23.511  26.512  14.026
27665W        W91598   0.944  13.817  13.326
27666W        W91599  21.563   3.758  11.405
27667W        W91600  37.969  43.363  13.544
27668W        W91601  31.020   6.277  13.873
27669W        W91602  41.947  40.049   2.265
27670W        W91603   0.829  35.946  14.786
27671W        W91604  22.565  44.783  12.911
27672W        W91605  11.790  39.555   3.851
27673W        W91606   7.202  10.286  14.350
27674W        W91607  36.037  18.635   3.770
27675W        W91608  42.344  20.252  13.535
27676W        W91609   5.355  35.877   1.308
27677W        W91610  33.888  41.394  14.958
27678W        W91611  28.660  41.508  12.344
27679W        W91612   8.398  10.869  13.369
27680W        W91613   3.370  28.043  10.958
27681W        W91614  39.817  10.729  12.827
27682W        W91615  27.670  33.075  12.964
27683W        W91616   3.942  13.709   3.783
27684W        W91617  26.664  29.172  12.392
27685W        W91618  17.099  19.712   4.832
27686W        W91619  11.651  11.815  12.463
27687W        W91620  43.860  39.848  12.557
27688W        W91621  18.141  25.499   0.752
27689W        W91622  20.157  34.480   2.853
27690W        W91623   6.325  39.495  14.354
27691W        W91624   6.684  35.412   4.633
27692W        W91625  30.488  37.447   4.669
27693W        W91626  18.111   9.268  13.856
27694W        W91627  12.761  12.629   1.778
27695W        W91628  14.132  36.449   1.403
27696W        W91629  24.710  19.236   2.784
27697W        W91630  43.849  33.987   4.763
27698W        W91631   4.864  24.637   2.760
27699W        W91632  35.953  36.398   0.303
27700W        W91633   1.426  34.929   0.390
27701W        W91634  21.178  41.939   0.386
27702W        W91635  16.079  28.575   4.685
27703W        W91636  12.128  30.609   3.696
27704W        W91637  42.468  34.499   9.438
27705W        W91638  38.850  13.623   2.821
27706W        W91639  14.715  36.550   0.400
27707W        W91640   5.755   6.273  12.542
27708W        W91641   3.291  39.976  14.000
27709W        W91642  35.067  38.430  14.896
27710W        W91643  24.484  17.605  11.984
27711W        W91644  13.803   3.253  12.538
27712W        W91645  15.810   1.786  14.293
27713W        W91646  17.644  18.580   0.338
27714W        W91647  15.285  44.806   3.825
27715W        W91648  39.406  32.064   3.797
27716W        W91649  13.796   8.402   3.318
27717W        W91650  42.355  39.918   1.716
27718W        W91651  38.882  10.837   4.144
27719W        W91652  19.757  44.486  12.440
27720W        W91653  21.598  39.953  10.414
27721W        W91654  13.171  20.756   1.230
27722W        W91655  36.900   1.314   1.934
27723W        W91656   6.379  15.303   5.292
27724W        W91657  44.438  32.038  10.004
27725W        W91658  36.032  11.356   2.289
27726W        W91659  41.534  15.625  10.515
27727W        W91660  18.667  38.985  14.997
27728W        W91661  22.018  42.365  12.876
27729W        W91662  44.914  15.586   0.286
27730W        W91663  28.057  21.102  10.064
27731W        W91664   6.240  41.999  14.306
27732W        W91665  14.630  16.574  12.832
27733W        W91666  31.540  26.184  13.850
27734W        W91667  44.789  39.865   4.164
27735W        W91668  34.019  23.688  10.618
27736W        W91669   4.266  23.591   4.820
27737W        W91670  18.558  43.918  10.622
27738W        W91671   3.234   1.413   0.895
27739W        W91672  26.972   4.935  10.558
27740W        W91673  34.544  16.794  10.595
27741W        W91674  29.051   2.421  12.904
27742W        W91675  10.217  31.062  10.927
27743W        W91676   9.353  28.609  14.324
27744W        W91677  41.407   7.843   0.334
27745W        W91678   2.875  24.011  10.464
27746W        W91679   0.814  29.050  11.604
27747W        W91680  24.674   8.830  12.502
27748W        W91681   1.858  12.245  10.640
27749W        W91682  39.979  13.721  13.860
27750W        W91683  27.001   1.431   0.387
27751W        W91684  27.668  16.802   4.124
27752W        W91685  26.474  13.746  11.526
27753W        W91686  41.487  27.600  10.612
27754W        W91687  40.481  37.365   0.729
27755W        W91688  29.980   3.822  12.094
27756W        W91689  41.451  13.643  13.365
27757W        W91690  42.450  25.537   1.368
27758W        W91691   0.347  22.182   1.347
27759W        W91692  24.130  39.551   2.867
27760W        W91693  29.599  17.758   1.449
27761W        W91694  24.632   5.869  14.809
27762W        W91695  22.627  37.904   4.775
27763W        W91696  35.018  36.573   3.180
27764W        W91697  32.406  29.014  12.481
27765W        W91698   1.774  25.599  13.042
27766W        W91699  24.581  33.034   4.203
27767W        W91700  40.924  37.839  13.033
27768W        W91701   1.363  13.193  13.445
27769W        W91702  27.513  42.379  13.853
27770W        W91703  23.120   6.295   1.247
27771W        W91704  10.184  42.481   1.718
27772W        W91705  16.260  26.052  13.883
27773W        W91706  42.866  17.160   2.298
27774W        W91707   6.760  35.438  13.396
27775W        W91708  23.188  40.342  12.938
27776W        W91709  32.081   2.434   3.809
27777W        W91710  27.143  11.128  12.500
27778W        W91711  28.473   4.433   2.275
27779W        W91712   3.307   0.463  10.455
27780W        W91713  24.989   4.822  13.375
27781W        W91714  14.127  30.554  11.583
27782W        W91715  29.923  21.233   2.769
27783W        W91716  38.926   7.395   4.265
27784W        W91717  43.305  12.810   1.388
27785W        W91718  35.545   4.332  14.020
27786W        W91719  38.835  14.316  12.403
27787W        W91720  42.513   2.374   4.180
27788W        W91721   5.427   5.769   3.303
27789W        W91722  24.669  17.207  11.999
27790W        W91723  38.008  44.926   1.716
27791W        W91724  11.784  44.904  10.541
27792W        W91725  21.598  16.777  14.857
27793W        W91726   0.435  23.735  12.047
27794W        W91727  31.413  20.105  10.550
27795W        W91728  11.248  23.644  13.539
27796W        W91729  36.512   1.451  11.503
27797W        W91730  40.522  13.766  13.542
27798W        W91731  22.585  32.610   0.934
27799W        W91732  24.212  39.984   9.961
27800W        W91733   6.762  22.196  12.453
27801W        W91734  13.111  18.067   4.742
27802W        W91735  17.289   3.223   4.249
27803W        W91736  15.657  15.664   2.700
27804W        W91737  44.925  16.129   1.745
27805W        W91738  42.291  12.729   3.732
27806W        W91739  38.431  18.626  12.412
27807W        W91740  23.149   8.698   3.200
27808W        W91741  24.706  26.134   4.229
27809W        W91742  12.180  27.015   3.385
27810W        W91743  39.817  30.968   2.792
27811W        W91744  31.050  23.992   1.294
27812W        W91745  22.011  34.522   4.117
27813W        W91746  33.936  12.139  13.450
27814W        W91747  16.077  19.119   2.300
27815W        W91748  33.080  33.982   0.933
27816W        W91749  19.200  12.669  14.931
27817W        W91750   7.264  26.604  12.989
27818W        W91751  31.054  28.949   2.329
27819W        W91752  39.383   9.251  13.883
27820W        W91753  15.781  37.966   5.216
27821W        W91754  11.247   6.890  14.484
27822W        W91755  22.721  13.294   4.353
27823W        W91756   9.274   2.951   3.770
27824W        W91757  33.040  27.678   2.254
27825W        W91758  15.296   4.413  11.572
27826W        W91759  23.177  22.675   4.688
27827W        W91760  35.517  44.406  13.405
27828W        W91761  27.056   4.210   3.275
27829W        W91762  28.483   8.788  12.017
27830W        W91763   4.757  31.439   2.314
27831W        W91764  25.084  16.730  14.367
27832W        W91765  27.531  10.767  14.445
27833W        W91766  15.749  42.338  12.041
27834W        W91767  38.336  36.546  10.432
27835W        W91768  22.191   2.852  14.846
27836W        W91769  36.968  27.451   3.770
27837W        W91770   2.895  26.100   0.270
27838W        W91771  16.657  23.621  12.425
27839W        W91772  22.209   5.857  11.861
27840W        W91773  33.966  24.644   0.946
27841W        W91774  22.653  19.180   4.739
27842W        W91775  26.656  22.718  14.316
27843W        W91776  14.775  18.288   2.396
27844W        W91777  24.997  14.784  11.548
27845W        W91778  28.182  27.544  13.062
27846W        W91779  43.269  24.093  14.512
27847W        W91780  43.896  43.348   1.415
27848W        W91781  23.010  14.326   0.268
27849W        W91782  16.657   2.913  12.053
27850W        W91783  29.640   7.684  13.325
27851W        W91784  26.657  35.985  11.408
27852W        W91785   9.838   8.842   0.369
27853W        W91786   2.291  15.266   5.125
27854W        W91787  33.991  21.027  14.977
27855W        W91788   9.375  32.472   0.309
27856W        W91789  35.899  21.059   4.176
27857W        W91790  12.838   5.932   5.265
27858W        W91791  34.065  27.516  10.584
27859W        W91792   6.274  18.698  14.021
27860W        W91793  30.047  24.028   3.815
27861W        W91794  43.841  18.078  14.513
27862W        W91795  23.076  44.305  10.921
27863W        W91796  43.874   6.773   3.713
27864W        W91797  20.587  28.985  12.080
27865W        W91798  13.186  13.828  11.081
27866W        W91799  39.362   0.334  12.050
27867W        W91800  32.917  38.033   3.225
27868W        W91801  27.965   9.179   4.661
27869W        W91802  28.560  26.561  12.528
27870W        W91803  23.498  31.116  10.555
27871W        W91804   3.954  39.497   3.843
27872W        W91805   3.346  42.311  11.910
27873W        W91806   0.988   5.695  13.893
27874W        W91807   4.894  30.530  11.484
27875W        W91808  37.350   7.190  12.862
27876W        W91809  23.720   5.708  12.514
27877W        W91810  21.081   6.701   0.912
27878W        W91811   4.244  44.297  14.024
27879W        W91812  23.575   0.947   3.802
27880W        W91813  10.142  15.774   0.365
27881W        W91814  23.110  34.483   3.159
27882W        W91815  37.047  14.282   4.823
27883W        W91816  10.256  40.373  13.842
27884W        W91817  32.138  39.460  11.922
27885W        W91818  39.430  43.428   2.382
27886W        W91819  24.587   9.256   1.876
27887W        W91820  10.779  12.795   4.653
27888W        W91821  44.000  39.868  11.032
27889W        W91822   8.683   6.255  13.882
27890W        W91823  34.058  28.653   3.352
27891W        W91824  21.021  24.032  14.456
27892W        W91825   6.411  23.025   1.932
27893W        W91826  20.096  34.476  10.025
27894W        W91827   4.909   1.270  14.460
27895W        W91828  24.046  21.086  11.580
27896W        W91829   8.832   3.881  14.864
27897W        W91830  42.512  44.476   4.116
27898W        W91831  11.626  40.309   2.199
27899W        W91832  16.690  41.323  12.063
27900W        W91833  19.268   9.684  13.540
27901W        W91834  33.479  20.558   0.927
27902W        W91835  17.606  24.540  10.566
27903W        W91836  24.493  13.272  10.069
27904W        W91837  12.791   0.272   0.833
27905W        W91838   8.864   9.719  11.940
27906W        W91839  20.713  21.155   1.256
27907W        W91840   3.834  10.678  13.334
27908W        W91841   4.826  11.732   3.164
27909W        W91842  22.114   7.679  13.459
27910W        W91843  24.984  38.912   4.683
27911W        W91844   8.212  18.714   1.227
27912W        W91845  15.621  35.418  13.967
27913W        W91846  21.029  19.585   4.271
27914W        W91847  11.369   8.218   2.903
27915W        W91848   1.404  13.796   1.256
27916W        W91849  17.708  32.072   3.688
27917W        W91850  39.425  30.557   1.828
27918W        W91851  33.083  18.781   0.360
27919W        W91852  34.935   0.752   0.764
27920W        W91853  30.947  12.118  11.990
27921W        W91854  11.213  24.662   1.381
27922W        W91855   8.305  33.883  13.862
27923W        W91856  15.207  32.889  14.943
27924W        W91857  24.480  39.332  13.369
27925W        W91858  20.086  33.622  12.062
27926W        W91859  11.778   4.235   0.301
27927W        W91860   9.250   9.675  12.919
27928W        W91861  41.313  21.626  14.402
27929W        W91862  19.086   0.943  12.090
27930W        W91863  28.150  37.342   2.700
27931W        W91864  21.203   2.878   2.354
27932W        W91865   5.823  14.157  12.524
27933W        W91866  23.226  31.518  13.348
27934W        W91867   7.275  10.758   2.880
27935W        W91868  28.158   7.858  11.960
27936W        W91869  25.217  31.070   1.276
27937W        W91870  43.301  35.523   3.743
27938W        W91871  42.971  11.819   1.370
27939W        W91872  42.353   0.285   2.310
27940W        W91873  26.039   8.791  12.365
27941W        W91874  40.549  38.387   0.385
27942W        W91875  44.990  32.140   4.148
27943W        W91876  22.587  43.882  11.877
27944W        W91877  32.075  22.063   2.381
27945W        W91878  23.591  21.233  12.890
27946W        W91879  23.051  29.078   1.816
27947W        W91880  10.372  20.114   3.760
27948W        W91881  29.573  34.111  12.467
27949W        W91882   2.276  26.066  11.922
27950W        W91883  14.656  44.867  11.025
27951W        W91884   2.467  16.647  11.904
27952W        W91885  27.691  23.677  13.489
27953W        W91886  43.512  31.144   1.401
27954W        W91887  10.772  17.717  12.911
27955W        W91888  31.453  14.817  11.050
27956W        W91889  19.722  25.525  13.335
27957W        W91890   1.817  10.874  14.467
27958W        W91891   6.801  32.934  10.512
27959W        W91892  19.771  10.706  14.974
27960W        W91893   8.269  12.158   2.213
27961W        W91894  15.585   1.376   0.474
27962W        W91895  14.604  39.392  10.593
27963W        W91896  38.841  30.560  14.366
27964W        W91897   2.733  31.064   1.359
27965W        W91898  15.812  29.540   3.193
27966W        W91899   5.709  13.232   3.703
27967W        W91900  12.327  21.047  14.965
27968W        W91901  25.475  39.393   3.365
27969W        W91902  35.097  27.945   0.402
27970W        W91903  31.915  18.223  12.896
27971W        W91904   6.788  14.665   4.646
27972W        W91905  36.066  34.086   0.347
27973W        W91906  21.513  12.209  11.589
27974W        W91907   3.376   0.970  12.438
27975W        W91908   8.161  31.495  14.468
27976W        W91909  26.071  14.173   0.920
27977W        W91910   0.753  33.456  11.605
27978W        W91911  30.649  37.005   3.262
27979W        W91912  32.502   7.868   2.697
27980W        W91913  17.250  34.936  13.522
27981W        W91914   5.764  39.922   4.638
27982W        W91915  29.170  20.574   3.855
27983W        W91916  19.084   3.397   3.855
27984W        W91917  22.579  14.337   5.307
27985W        W91918   7.262  25.162  10.932
27986W        W91919   4.914  44.326   5.145
27987W        W91920  20.666  38.396   0.841
27988W        W91921  19.690  31.407  10.908
27989W        W91922  40.539  37.533   3.330
27990W        W91923  26.960  37.956  13.030
27991W        W91924  25.528  40.375   1.923
27992W        W91925  26.990  42.810  12.002
27993W        W91926  28.568  24.516   3.326
27994W        W91927  26.703  37.842  12.455
27995W        W91928   9.264  31.977   1.886
27996W        W91929  40.873   6.798   0.382
27997W        W91930  11.778  42.004  13.975
27998W        W91931   1.976  26.156   2.745
27999W        W91932  36.036   2.949   1.753
28000W        W91933  29.637  40.366   5.296
28001W        W91934  17.639  29.551   0.342
28002W        W91935  15.702   1.278   0.842
28003W        W91936   8.217  22.669  14.969
28004W        W91937  10.238  35.999   5.121
28005W        W91938  29.094  21.741   2.673
28006W        W91939  15.218  27.553  14.758
28007W        W91940  17.208   7.733  10.892
28008W        W91941  26.632  11.344   0.353
28009W        W91942   0.891  35.413   0.884
28010W        W91943  30.474   8.808  10.986
28011W        W91944   1.403  34.915   3.359
28012W        W91945  43.858   4.299   3.813
28013W        W91946  19.042   9.259  11.384
28014W        W91947  43.940  14.194   0.300
28015W        W91948  29.528   5.245   2.839
28016W        W91949   0.348  43.858  11.949
28017W        W91950   6.697   0.314  12.479
28018W        W91951   4.707  19.258   0.433
28019W        W91952  30.420  17.598   4.752
28020W        W91953  13.746  22.734   3.261
28021W        W91954   4.714  18.693   3.198
28022W        W91955  22.030   4.755  10.967
28023W        W91956   1.974  17.649  12.073
28024W        W91957  21.029  10.348   9.923
28025W        W91958   4.321  26.690  13.870
28026W        W91959  41.338  41.456  14.485
28027W        W91960  22.179  27.042   2.386
28028W        W91961   3.395  25.100  10.962
28029W        W91962  33.448  16.179  11.557
28030W        W91963   3.874  27.070   1.402
28031W        W91964  22.157  42.883  10.979
28032W        W91965  19.165  13.296   0.902
28033W        W91966  29.434  28.611  14.780
28034W        W91967  34.974   2.767  10.607
28035W        W91968  24.126  38.820   3.176
28036W        W91969  20.657  38.075  10.475
28037W        W91970  20.207  25.502  13.951
28038W        W91971  37.868  29.539   0.771
28039W        W91972  24.981  12.729   3.780
28040W        W91973  19.684  33.575  12.904
28041W        W91974  37.456  26.476  12.080
28042W        W91975  41.370   4.365   1.896
28043W        W91976  13.676  14.215  12.967
28044W        W91977  11.168  43.461  11.401
28045W        W91978  42.955  43.988   1.877
28046W        W91979  18.294  38.869  13.544
28047W        W91980   6.843  25.020  13.543
28048W        W91981   1.767  36.012  14.011
28049W        W91982  25.566  41.484   1.834
28050W        W91983   8.269   3.319  12.472
28051W        W91984  31.529   7.332   3.169
28052W        W91985   4.313  20.199  10.909
28053W        W91986   8.200   0.447   3.287
28054W        W91987   0.756  14.625   0.873
28055W        W91988   1.425   1.774  10.536
28056W        W91989   1.802  18.568   0.267
28057W        W91990  18.755  40.531  13.489
28058W        W91991   8.856  10.344   2.399
28059W        W91992  34.901  10.847  11.442
28060W        W91993  15.738  15.095   3.342
28061W        W91994  34.398  35.557  14.001
28062W        W91995  16.077  27.945   0.856
28063W        W91996  15.207  22.685   1.778
28064W        W91997  25.993  34.586   1.253
28065W        W91998  18.064   6.717  12.927
28066W        W91999  40.864  14.802   3.218
28067W        W92000  12.716  23.695  13.915
28068W        W92001  43.835   0.379  13.936
28069W        W92002  15.793   9.290   4.757
28070W        W92003   1.930  29.560  10.894
28071W        W92004  31.435  34.422  14.764
28072W        W92005  20.211  23.505   0.363
28073W        W92006  41.900  42.508   0.929
28074W        W92007   2.906  42.950   2.779
28075W        W92008   6.285  23.231  14.289
28076W        W92009  43.850  33.547   0.258
28077W        W92010   7.808  29.653  11.413
28078W        W92011  22.733  30.644  10.925
28079W        W92012  24.562   9.304  13.316
28080W        W92013   8.692   2.866   2.306
28081W        W92014   0.326   1.401  14.852
28082W        W92015  41.958  44.769   0.343
28083W        W92016  42.350   3.431   2.799
28084W        W92017   5.701   9.174   3.218
28085W        W92018   9.881  17.139  12.437
28086W        W92019  23.071  35.065   0.810
28087W        W92020  22.117   1.444   2.307
28088W        W92021   0.437   5.886  10.426
28089W        W92022   9.189  17.595   1.866
28090W        W92023  44.779   0.819  11.968
28091W        W92024  28.464  15.783  10.971
28092W        W92025  44.347  32.026   3.238
28093W        W92026  28.627   8.269  10.424
28094W        W92027  29.571  22.558  12.030
28095W        W92028  15.602  40.444  14.463
28096W        W92029  24.209  14.212  10.492
28097W        W92030   9.740  29.612   3.223
28098W        W92031   5.883  32.598  13.850
28099W        W92032  29.072  11.683  12.447
28100W        W92033   7.776  24.050   1.766
28101W        W92034  29.092   4.405   2.831
28102W        W92035   0.471  24.168  11.918
28103W        W92036  42.293  35.362   1.771
28104W        W92037  26.131  32.010  14.890
28105W        W92038  35.875  18.780   0.442
28106W        W92039  37.539   3.365  12.518
28107W        W92040   6.275  21.245   1.807
28108W        W92041  19.651  36.881  13.964
28109W        W92042  14.588  18.131  10.892
28110W        W92043  26.599  36.425  14.304
28111W        W92044  12.281  36.383   3.661
28112W        W92045  40.542  19.662   3.630
28113W        W92046  43.488  14.661   3.707
28114W        W92047   2.413  27.185  10.634
28115W        W92048  38.014  20.527  12.072
28116W        W92049  40.317  27.616  14.280
28117W        W92050  44.936   2.865   1.227
28118W        W92051  29.949  38.431   3.368
28119W        W92052  23.557  27.550  11.937
28120W        W92053  36.523   7.827  12.535
28121W        W92054  16.662  11.839  10.535
28122W        W92055  36.023  40.932  13.816
28123W        W92056  17.178  25.175   2.783
28124W        W92057  22.507  22.674   9.928
28125W        W92058  33.117  40.038   3.772
28126W        W92059  36.395  19.659   5.091
28127W        W92060  11.804  24.138   0.793
28128W        W92061  32.950  24.103  10.510
28129W        W92062  32.102  15.118  11.908
28130W        W92063   4.316  37.475  13.013
28131W        W92064   3.880   1.392  13.408
28132W        W92065  27.112  21.545   2.673
28133W        W92066   2.240  26.702   4.788
28134W        W92067  38.053   8.218   4.779
28135W        W92068  36.942  14.741   1.706
28136W        W92069  11.351  38.033   0.271
28137W        W92070   8.837  25.688   4.324
28138W        W92071  31.419   6.261  10.939
28139W        W92072  41.308  10.730  14.392
28140W        W92073  31.452   9.677   1.357
28141W        W92074   6.786   1.968   2.385
28142W        W92075  39.937  25.053   3.737
28143W        W92076   3.372   4.755   2.814
28144W        W92077  15.782  28.999  10.068
28145W        W92078  32.909  10.301  12.095
28146W        W92079  36.592  43.021  11.423
28147W        W92080  12.288  29.457  11.399
28148W        W92081  30.085  12.684  13.466
28149W        W92082  32.532  20.569  13.412
28150W        W92083  24.156  42.519   3.824
28151W        W92084   7.187  19.629   2.234
28152W        W92085  43.291  33.045  11.888
28153W        W92086  36.475  28.937   5.117
28154W        W92087  14.300  30.645  13.327
28155W        W92088  42.883  32.899   3.250
28156W        W92089  31.018  18.177   2.801
28157W        W92090   6.919  39.324   4.740
28158W        W92091  32.508  40.398  11.889
28159W        W92092  38.061   0.933   0.271
28160W        W92093  44.962  12.243   1.709
28161W        W92094  17.780  14.679  14.489
28162W        W92095   8.673  14.208   1.895
28163W        W92096   9.890  26.106  10.944
28164W        W92097  11.189  42.345   2.901
28165W        W92098  32.039  31.506   1.279
28166W        W92099  19.682   2.425   2.277
28167W        W92100  19.087  20.602   3.729
28168W        W92101  30.133  31.582  14.332
28169W        W92102  43.948   3.443  13.992
28170W        W92103  41.476  38.822  14.288
28171W        W92104  21.024   5.858   2.685
28172W        W92105  27.965  44.341   3.687
28173W        W92106  11.172  25.686   0.895
28174W        W92107  40.860  38.945  13.881
28175W        W92108  10.340  22.556   5.279
28176W        W92109  20.265  36.013  10.538
28177W        W92110   2.871  37.432  14.408
28178W        W92111  17.564  35.983   3.279
28179W        W92112   1.315  15.105   0.407
28180W        W92113  40.898   2.293   0.892
28181W        W92114  13.169   7.342   3.280
28182W        W92115  40.355  22.170  10.448
28183W        W92116   7.395  38.360  11.476
28184W        W92117  18.747  42.512   4.805
28185W        W92118   8.298  40.025  13.919
28186W        W92119   5.254  22.211   2.311
28187W        W92120  41.938  43.488  14.283
28188W        W92121  35.941  27.987   2.386
28189W        W92122  31.976  27.594  10.888
28190W        W92123   7.368  23.492   4.671
28191W        W92124  25.689  28.164   4.730
28192W        W92125  34.403  13.694  13.483
28193W        W92126  20.124  32.576   0.895
28194W        W92127   4.930  15.119  14.298
28195W        W92128   9.727  30.973  14.475
28196W        W92129   4.892  32.406  13.378
28197W        W92130  37.862   1.438  13.501
28198W        W92131  43.449   5.349  12.894
28199W        W92132  30.516  32.013   3.324
28200W        W92133  41.295  19.624  10.947
28201W        W92134  22.172  14.200  14.298
28202W        W92135  31.613  19.611   5.253
28203W        W92136  14.210  18.225  10.918
28204W        W92137   6.920  11.753   0.731
28205W        W92138  32.041  10.681   3.728
28206W        W92139  21.186  29.485   2.838
28207W        W92140  34.905  13.178   4.149
28208W        W92141  13.136  12.745  14.766
28209W        W92142  30.646  25.584   0.368
28210W        W92143  18.083   0.347  10.969
28211W        W92144  18.572  20.652   0.875
28212W        W92145  14.710  22.190  14.303
28213W        W92146  18.099  44.815   3.281
28214W        W92147  42.341  12.284  12.835
28215W        W92148  41.403  21.584  10.892
28216W        W92149  39.356  33.105  12.491
28217W        W92150   8.255  19.638   2.323
28218W        W92151  15.750  31.933  10.588
28219W        W92152   8.669   2.828  14.837
28220W        W92153  28.659  26.495  14.013
28221W        W92154   9.278  15.617   2.872
28222W        W92155  17.065  39.854  10.928
28223W        W92156  22.212  30.918   0.739
28224W        W92157  28.016   1.258  10.992
28225W        W92158  30.522  32.131  14.930
28226W        W92159  16.295   6.683  13.369
28227W        W92160  25.976   3.883  13.908
28228W        W92161  37.498  11.846   5.159
28229W        W92162  22.110  32.585  13.960
28230W        W92163   3.920  44.326   4.619
28231W        W92164  22.729  25.983  11.401
28232W        W92165  43.419  14.247  13.365
28233W        W92166  26.133   0.824   1.768
28234W        W92167  42.850  12.325   1.864
28235W        W92168  13.627  15.824  13.329
28236W        W92169  27.103   8.688  10.599
28237W        W92170  37.832  29.103  14.758
28238W        W92171  16.802  21.544  14.860
28239W        W92172  23.517  19.054  14.019
28240W        W92173  18.266  43.346  14.932
28241W        W92174  32.626  25.038  10.981
28242W        W92175  23.542  29.124   1.779
28243W        W92176  33.596  19.200   2.407
28244W        W92177  11.317   6.346  13.451
28245W        W92178   9.680  21.112   0.785
28246W        W92179  32.022  28.137   3.790
28247W        W92180   3.456  17.604  10.464
28248W        W92181   4.784  26.957   2.687
28249W        W92182  24.636  19.713   3.815
28250W        W92183  24.720  41.473  13.377
28251W        W92184  26.499  28.528   3.381
28252W        W92185  20.691   8.172  11.910
28253W        W92186  29.606  33.914   0.268
28254W        W92187   0.789  28.099   5.196
28255W        W92188   1.481  38.552  12.360
28256W        W92189  42.028  14.113   3.212
28257W        W92190  10.240  18.291   1.702
28258W        W92191  20.126  43.471  12.959
28259W        W92192  44.853  14.239   1.261
28260W        W92193  42.965  34.905   4.281
28261W        W92194  19.622  19.192  11.575
28262W        W92195  18.080  13.663   3.861
28263W        W92196  31.485   0.743  13.019
28264W        W92197  33.589  14.301  12.064
28265W        W92198  25.161  43.288  13.315
28266W        W92199  31.066   6.763  11.008
28267W        W92200   3.733   8.184  13.410
28268W        W92201  40.303  11.781   2.743
28269W        W92202  27.546  30.134  12.469
28270W        W92203  10.318  30.420   3.752
28271W        W92204  40.838  13.154   0.343
28272W        W92205  22.650  23.517   4.291
28273W        W92206  38.463  22.173  12.354
28274W        W92207  31.417  29.648   0.889
28275W        W92208   8.762   7.896   1.388
28276W        W92209  38.957   6.797   0.808
28277W        W92210  26.584  36.476  12.950
28278W        W92211   5.351   2.880  14.413
28279W        W92212   3.352  23.994   0.320
28280W        W92213  36.356  10.279  13.474
28281W        W92214  14.728  25.192  11.930
28282W        W92215  21.199   0.860  11.878
28283W        W92216   8.216  12.773  10.498
28284W        W92217  12.791   2.817   4.206
28285W        W92218  14.246  33.086   3.778
28286W        W92219   8.858  19.190   0.894
28287W        W92220   8.828   4.803   3.293
28288W        W92221   1.415  11.317   1.734
28289W        W92222  22.089  24.585   0.288
28290W        W92223  13.760  18.168  11.422
28291W        W92224  25.610  19.724   1.445
28292W        W92225  19.625  36.444   3.759
28293W        W92226  32.584  36.018   0.379
28294W        W92227  24.179  14.128  10.984
28295W        W92228  11.798  22.199   3.279
28296W        W92229  35.908   2.327  10.988
28297W        W92230  29.160   8.702   3.716
28298W        W92231   6.268  19.707  13.050
28299W        W92232  42.829  12.788   4.605
28300W        W92233  26.186   4.886   3.784
28301W        W92234  38.839  43.812   2.411
28302W        W92235  41.517  37.078   0.328
28303W        W92236   3.270  17.304   2.794
28304W        W92237  18.167   3.224  10.418
28305W        W92238  10.279   3.452  12.872
28306W        W92239  18.636  28.512   0.903
28307W        W92240  12.204  24.022  11.546
28308W        W92241  26.059   2.308  13.462
28309W        W92242  15.824  39.043  12.579
28310W        W92243  40.533   8.275   3.868
28311W        W92244   7.864   4.214   1.446
28312W        W92245  27.047   2.873  13.859
28313W        W92246  30.032  36.963   1.721
28314W        W92247   8.215  18.280   1.857
28315W        W92248   6.309  43.987  14.331
28316W        W92249   7.200   4.902  13.923
28317W        W92250   5.287  13.834  12.352
28318W        W92251   2.321  25.106  13.866
28319W        W92252  27.484   2.736  12.371
28320W        W92253  16.274  29.160  10.496
28321W        W92254  15.225   5.279  11.007
28322W        W92255  41.872   9.203  12.912
28323W        W92256   4.848  43.424  10.895
28324W        W92257   2.960  33.100   4.299
28325W        W92258  32.432   9.889   4.124
28326W        W92259  33.497   3.381  14.279
28327W        W92260  29.151  19.094   3.678
28328W        W92261   7.762  32.948   4.619
28329W        W92262  32.112  24.067  12.901
28330W        W92263  32.064   6.718  10.429
28331W        W92264   7.724  35.391   0.748
28332W        W92265  24.135  37.564  12.392
28333W        W92266  21.604  22.685  10.525
28334W        W92267  33.411  43.384   3.707
28335W        W92268  34.884  39.993   1.840
28336W        W92269  36.882  29.928   1.808
28337W        W92270   9.315  22.251   2.846
28338W        W92271  31.471   9.243  14.801
28339W        W92272  32.530  38.385  11.009
28340W        W92273  17.603  26.561   9.524
28341W        W92274  37.431  19.578  10.528
28342W        W92275  26.539  32.950   4.640
28343W        W92276  11.825   9.162  11.120
28344W        W92277   4.306  32.944   0.892
28345W        W92278  27.179  34.883  14.352
28346W        W92279  31.604   1.427  14.848
28347W        W92280   2.800  40.820  13.514
28348W        W92281  35.996  35.511   0.799
28349W        W92282   6.403  18.152   1.804
28350W        W92283   8.801  17.251  12.452
28351W        W92284  35.537  39.928  12.422
28352W        W92285  36.854   7.209  10.569
28353W        W92286   6.339  16.196  14.856
28354W        W92287   4.283  12.335   1.366
28355W        W92288  18.232  40.936  14.462
28356W        W92289  31.046  26.175   4.699
28357W        W92290  32.593  37.447  14.312
28358W        W92291  16.710  27.608  13.370
28359W        W92292   9.658  43.470   0.306
28360W        W92293   2.937  29.130   4.305
28361W        W92294  17.207  42.990   1.791
28362W        W92295  42.298   8.806   4.701
28363W        W92296   3.390  12.720   5.318
28364W        W92297  37.387  25.575   1.739
28365W        W92298   8.190  30.985  11.582
28366W        W92299  23.637  18.623  13.890
28367W        W92300  14.105   2.426   2.390
28368W        W92301   3.863  43.782   4.793
28369W        W92302   2.417  32.412  14.383
28370W        W92303   0.768  42.397   2.183
28371W        W92304  43.791  43.933   3.863
28372W        W92305  20.588  15.789  12.056
28373W        W92306  25.169  28.611  11.933
28374W        W92307  18.610  39.943   2.208
28375W        W92308  43.924  29.566  10.448
28376W        W92309  38.406  32.897   4.270
28377W        W92310  27.539   2.725   0.422
28378W        W92311  31.559  16.149  14.382
28379W        W92312   4.798  30.478   1.740
28380W        W92313   7.410  23.001   0.890
28381W        W92314  15.269   8.880   0.734
28382W        W92315  23.112   9.168   3.178
28383W        W92316   0.261  24.115  12.979
28384W        W92317   3.838  36.349  11.462
28385W        W92318  37.349  40.396  10.457
28386W        W92319  43.807  19.710  10.422
28387W        W92320  19.188  25.662  14.330
28388W        W92321  14.667  40.485  14.804
28389W        W92322  15.688  17.754   1.814
28390W        W92323  26.972  24.541  11.998
28391W        W92324  28.011  10.262  11.888
28392W        W92325   8.689   4.332   0.961
28393W        W92326  24.526  34.997   1.267
28394W        W92327  20.649  27.144  11.003
28395W        W92328  15.298  16.287  10.982
28396W        W92329  21.524  29.510  10.579
28397W        W92330  39.423  25.603   1.315
28398W        W92331   9.830  24.568  13.545
28399W        W92332  38.455  15.814  13.410
28400W        W92333  42.388  17.685  14.797
28401W        W92334  41.349   0.374   1.869
28402W        W92335  20.525  40.927   1.257
28403W        W92336  38.879  41.536  13.516
28404W        W92337   1.929  40.309   4.642
28405W        W92338  37.369  32.475   1.723
28406W        W92339  43.505  26.515   2.190
28407W        W92340   6.194  21.241   0.854
28408W        W92341  12.147  17.685   4.326
28409W        W92342  42.405   9.341   4.718
28410W        W92343  33.877   2.897  12.051
28411W        W92344  27.163   6.405   0.774
28412W        W92345  22.075  34.553  11.086
28413W        W92346  18.257  39.458   2.702
28414W        W92347  22.231  29.652  13.000
28415W        W92348  17.607  34.905  13.821
28416W        W92349  17.700  36.939   4.193
28417W        W92350  20.681  28.964  13.870
28418W        W92351   2.408  24.050   0.401
28419W        W92352  32.003  17.762  10.520
28420W        W92353   1.775  10.292  11.999
28421W        W92354  22.060  11.630   0.410
28422W        W92355   8.655  44.969   3.785
28423W        W92356   8.318  40.923  13.416
28424W        W92357  31.499  41.884   2.870
28425W        W92358  21.055  10.312  13.346
28426W        W92359   0.356  26.117   2.719
28427W        W92360  40.030  33.493  10.921
28428W        W92361  44.376  22.201  14.383
28429W        W92362   0.778  25.148  12.546
28430W        W92363   8.308  24.588  14.896
28431W        W92364  23.640  36.564   4.627
28432W        W92365  22.544  18.693   3.160
28433W        W92366   9.236  32.110   4.124
28434W        W92367  36.998  24.974   2.338
28435W        W92368  14.616   7.783  10.500
28436W        W92369  13.834   7.301  12.998
28437W        W92370   7.688  33.401  13.989
28438W        W92371  13.343  12.654  14.414
28439W        W92372   3.717   1.376   3.155
28440W        W92373  23.119  33.114   2.828
28441W        W92374  41.974  17.111  13.991
28442W        W92375  27.012  24.213  12.831
28443W        W92376  38.843  32.890   1.908
28444W        W92377  20.540  41.517   1.287
28445W        W92378   4.206  26.102   3.335
28446W        W92379   1.258  29.584   4.123
28447W        W92380  36.939  27.974   2.261
28448W        W92381  32.407   1.932  13.041
28449W        W92382  31.907  19.730  10.962
28450W        W92383   0.882   3.740   2.751
28451W        W92384   6.781   2.939   9.490
28452W        W92385  27.134  36.537  14.952
28453W        W92386  21.512  42.866  13.963
28454W        W92387  17.635  21.673  12.344
28455W        W92388  37.888  20.727   2.791
28456W        W92389  43.944   4.387   2.206
28457W        W92390  31.416   4.254  10.961
28458W        W92391  25.140  10.709   3.173
28459W        W92392  43.288  20.611   1.851
28460W        W92393  24.159  32.535   1.785
28461W        W92394  20.577  10.634  14.907
28462W        W92395  27.998  14.189   3.774
28463W        W92396  36.385  20.672   2.664
28464W        W92397  28.552  30.510   3.378
28465W        W92398  20.538  35.583  10.994
28466W        W92399  39.817  31.058  10.474
28467W        W92400   1.944  42.518  12.955
28468W        W92401  35.867  26.028   3.854
28469W        W92402  35.065   1.373   4.329
28470W        W92403   4.359   1.937  13.813
28471W        W92404  21.046  32.571  12.083
28472W        W92405  43.486  25.120  10.535
28473W        W92406   9.292  27.067  10.067
28474W        W92407   3.336  19.780   2.375
28475W        W92408   5.315  27.462  11.928
28476W        W92409  11.156  40.822  14.836
28477W        W92410  44.754  33.026  11.520
28478W        W92411  15.315   0.958   0.255
28479W        W92412  37.053   5.319  12.501
28480W        W92413  14.772  25.697  10.643
28481W        W92414  16.683  28.512   9.527
28482W        W92415  40.416  24.148  11.015
28483W        W92416  12.826  13.265   4.757
28484W        W92417  41.399  43.937  13.809
28485W        W92418   3.353   3.244  14.846
28486W        W92419  11.632  40.824   0.743
28487W        W92420  27.678   8.676  11.550
28488W        W92421   2.356  10.834   1.909
28489W        W92422  12.218  19.629  11.074
28490W        W92423  42.951  14.320  14.493
28491W        W92424  37.414   1.320   1.239
28492W        W92425  14.788   8.690   2.739
28493W        W92426  20.177  24.166  14.903
28494W        W92427   6.360   8.767   0.340
28495W        W92428  35.419  10.762  14.951
28496W        W92429  37.870  36.569   1.356
28497W        W92430  14.785   9.293  13.489
28498W        W92431   9.798  19.539   0.413
28499W        W92432  29.158  32.016   3.231
28500W        W92433   4.929  30.427  10.979
28501W        W92434  40.411  36.364   4.784
28502W        W92435  40.343  35.057  13.492
28503W        W92436  43.392  34.513   5.314
28504W        W92437  27.467  13.756  10.444
28505W        W92438   4.358  31.099   0.882
28506W        W92439  16.169  20.060  13.357
28507W        W92440  13.151  27.682  11.482
28508W        W92441  33.067  41.470   2.372
28509W        W92442   9.814  26.997   2.864
28510W        W92443  21.542  16.121   4.614
28511W        W92444  31.618  22.099  12.365
28512W        W92445   9.788  28.501  14.858
28513W        W92446  22.582  36.591  14.970
28514W        W92447  23.547  39.965  11.601
28515W        W92448  36.524  41.938  10.530
28516W        W92449  10.245   8.734   1.451
28517W        W92450  33.471  19.536  14.514
28518W        W92451   9.277  25.506  14.793
28519W        W92452  11.639  29.444  12.910
28520W        W92453   9.367  36.354   2.883
28521W        W92454  14.743  18.624  10.592
28522W        W92455  36.442  14.327  14.472
28523W        W92456  38.529   3.805   2.776
28524W        W92457  37.892   0.432   4.712
28525W        W92458  38.515  43.890  10.972
28526W        W92459   8.344   0.404   0.813
28527W        W92460  24.548   5.364  13.476
28528W        W92461   1.811  38.018   0.247
28529W        W92462  18.774  31.037   0.324
28530W        W92463   6.414  25.488   3.699
28531W        W92464   3.751  37.986  11.003
28532W        W92465  22.688  12.856   4.727
28533W        W92466  38.882  26.135   4.828
28534W        W92467  30.634  28.667   4.822
28535W        W92468  44.422  34.563   2.781
28536W        W92469  26.479  25.061  14.772
28537W        W92470   4.293   3.720  12.839
28538W        W92471  38.340  23.227   2.724
28539W        W92472  38.022   8.672   3.280
28540W        W92473  22.583  20.552  12.571
28541W        W92474  17.626  17.662   2.362
28542W        W92475  13.227  40.469   3.246
28543W        W92476  36.483  27.524   4.205
28544W        W92477   1.424   3.893   2.219
28545W        W92478   5.311  32.617  12.919
28546W        W92479  21.622  28.681   3.359
28547W        W92480  32.889  38.390  11.474
28548W        W92481  40.997  40.508   4.628
28549W        W92482  34.935  26.987   0.440
28550W        W92483  42.369  12.268  14.871
28551W        W92484  31.108  35.947  13.050
28552W        W92485  40.434   5.750   4.134
28553W        W92486  39.437  19.164  13.882
28554W        W92487  14.221  19.769   4.737
28555W        W92488   4.843  35.430  12.464
28556W        W92489  27.618  39.920  12.880
28557W        W92490  38.030  30.461   1.383
28558W        W92491  35.983   9.858   2.283
28559W        W92492  32.894   9.256  12.929
28560W        W92493  29.155  29.999   0.468
28561W        W92494  40.363  39.892   2.307
28562W        W92495  41.979  27.586   4.712
28563W        W92496   1.946  11.204  14.448
28564W        W92497   4.917  24.086  11.869
28565W        W92498  40.504  33.875   4.726
28566W        W92499   5.893  20.665  10.596
28567W        W92500   4.873   0.384   4.151
28568W        W92501  43.950  19.209  12.529
28569W        W92502  44.371  28.053  11.454
28570W        W92503  14.733  35.424   4.259
28571W        W92504  32.895  21.556   1.394
28572W        W92505  44.487  41.439   1.868
28573W        W92506   3.443  39.355   2.812
28574W        W92507  21.680  36.864  13.034
28575W        W92508  14.592  43.767   3.862
28576W        W92509  13.630  15.698   4.663
28577W        W92510   0.414   0.900   0.388
28578W        W92511  15.285  20.072  12.014
28579W        W92512   5.924  33.880   2.256
28580W        W92513  42.888  11.834  11.371
28581W        W92514  22.617  26.563  11.128
28582W        W92515  27.581  29.630  12.090
28583W        W92516   8.353  40.821  14.392
28584W        W92517  29.506   8.263   4.115
28585W        W92518  40.320   4.360   0.764
28586W        W92519   1.332  28.079   1.314
28587W        W92520   8.236  36.406  12.835
28588W        W92521   3.326  43.861  14.351
28589W        W92522  39.939  26.015  11.001
28590W        W92523  28.011  36.446   3.753
28591W        W92524  28.077  34.566   5.127
28592W        W92525   7.416   5.193   3.311
28593W        W92526  43.502  43.349   3.291
28594W        W92527  22.196  20.526   4.656
28595W        W92528  10.215  42.906   2.900
28596W        W92529  42.030   4.743  11.877
28597W        W92530  31.152  16.657  12.832
28598W        W92531  19.137   4.381  13.941
28599W        W92532   3.262   3.328  14.375
28600W        W92533  10.347  41.377   1.254
28601W        W92534  41.506  19.657  10.458
28602W        W92535  29.168  18.196   3.169
28603W        W92536  24.190   0.968   0.784
28604W        W92537  44.356   5.314   0.901
28605W        W92538  13.683  41.406   3.854
28606W        W92539  43.349  43.485  10.523
28607W        W92540  38.338   0.922  14.498
28608W        W92541   0.777  21.660  11.544
28609W        W92542  43.495  38.880   3.790
28610W        W92543  42.374  33.929   4.761
28611W        W92544   6.234  21.548  13.029
28612W        W92545   0.857  25.999  11.599
28613W        W92546  21.086  11.304  11.603
28614W        W92547  19.745  26.610  12.081
28615W        W92548  39.042  32.452  10.026
28616W        W92549  43.307  26.983   2.788
28617W        W92550  29.513   3.812   3.202
28618W        W92551  10.817  30.462   2.717
28619W        W92552  28.949  17.204  13.432
28620W        W92553  19.178   6.742   4.242
28621W        W92554  22.625  26.170  11.858
28622W        W92555  21.561  37.932  11.461
28623W        W92556   0.941  14.273   0.256
28624W        W92557  11.680  40.404  11.929
28625W        W92558  37.441  26.525  13.334
28626W        W92559  11.769  22.096  14.450
28627W        W92560  41.797  17.657   1.282
28628W        W92561  13.106  36.438  14.878
28629W        W92562  27.047  14.278   0.380
28630W        W92563  18.767   1.891  11.542
28631W        W92564  24.705  21.577  12.040
28632W        W92565  28.974  12.242   1.896
28633W        W92566  32.897  19.624  13.881
28634W        W92567   4.283  32.895  10.922
28635W        W92568  34.908  29.918  14.804
28636W        W92569  25.643   1.319  11.408
28637W        W92570  25.156   7.243   2.843
28638W        W92571  20.134   6.884   2.793
28639W        W92572  37.440   2.905   1.727
28640W        W92573  15.766   2.424   4.650
28641W        W92574  27.633  12.618  12.023
28642W        W92575  11.666   1.332  14.402
28643W        W92576  32.524  30.574  13.531
28644W        W92577  39.402  30.010  11.101
28645W        W92578   0.407  31.022  13.347
28646W        W92579  27.041  41.415  12.540
28647W        W92580  13.846  18.598   3.212
28648W        W92581  35.086  34.397   3.817
28649W        W92582  40.049  23.680  13.806
28650W        W92583  16.232   6.722   0.243
28651W        W92584  26.503  43.961   2.373
28652W        W92585  15.322  42.868   0.393
28653W        W92586  40.449   1.898   5.225
28654W        W92587  17.148  35.977  12.937
28655W        W92588  27.114  40.491  13.012
28656W        W92589  37.401  17.218   5.309
28657W        W92590   4.855  11.686   1.827
28658W        W92591   7.757  33.518  12.470
28659W        W92592  39.525   3.316   1.737
28660W        W92593  18.205  28.058  13.054
28661W        W92594  36.957   4.444  12.425
28662W        W92595  30.558  36.872   1.795
28663W        W92596  24.570  30.026  10.529
28664W        W92597  24.214   3.774  11.602
28665W        W92598   6.779  36.511  13.428
28666W        W92599  41.837  16.720   3.273
28667W        W92600  13.315  32.095  14.905
28668W        W92601   2.410   1.414   3.729
28669W        W92602   1.926   7.264   3.253
28670W        W92603   5.306  38.431   0.482
28671W        W92604  32.457  21.708  11.983
28672W        W92605  26.130  44.433  13.510
28673W        W92606  14.295  33.110   2.698
28674W        W92607  11.651   2.811   0.450
28675W        W92608  21.582  33.454   4.205
28676W        W92609   9.794  35.523   2.322
28677W        W92610   3.316  44.758   0.818
28678W        W92611  28.011  15.110   1.431
28679W        W92612  31.918  35.968   4.640
28680W        W92613  23.608   3.247  14.867
28681W        W92614  38.961   6.907  12.469
28682W        W92615  38.038   1.369   0.959
28683W        W92616  34.394  12.786  11.477
28684W        W92617  25.097  14.662   4.182
28685W        W92618   6.676  29.158   2.894
28686W        W92619  29.570  25.635   4.155
28687W        W92620  25.619  41.810  14.808
28688W        W92621  20.056  16.110   1.792
28689W        W92622  21.180   5.795   4.353
28690W        W92623  42.408  15.766   4.282
28691W        W92624  30.443  40.519  11.049
28692W        W92625  32.063   1.748  12.839
28693W        W92626   1.793  11.787  12.445
28694W        W92627  31.060  44.983   3.683
28695W        W92628  27.133  44.320   4.299
28696W        W92629   6.723  36.053   4.631
28697W        W92630   2.458   4.284  12.914
28698W        W92631  29.030  13.303  14.973
28699W        W92632  43.838   3.840  13.054
28700W        W92633   9.820  22.198   3.637
28701W        W92634  37.472  29.933   1.890
28702W        W92635  14.320  10.247  10.983
28703W        W92636   1.375   0.420   4.663
28704W        W92637  27.074  24.541   2.838
28705W        W92638  24.226  35.028   3.330
28706W        W92639  19.051   2.455   0.883
28707W        W92640  20.252   3.954   4.622
28708W        W92641  31.014  43.961   1.721
28709W        W92642   3.308   6.816  14.359
28710W        W92643  37.077  36.573  10.460
28711W        W92644  37.544  19.749  12.089
28712W        W92645  36.992  24.982  13.450
28713W        W92646  15.790   7.816   1.328
28714W        W92647  18.553   4.771  11.978
28715W        W92648  14.126  15.757   2.662
28716W        W92649  39.016   7.231  10.009
28717W        W92650  23.000  38.828   2.346
28718W        W92651  36.999  29.093  11.106
28719W        W92652  28.590  34.530  12.462
28720W        W92653   3.895  19.538  12.008
28721W        W92654  22.567   7.665  14.509
28722W        W92655  33.912   6.299   4.254
28723W        W92656  13.786  26.646  13.001
28724W        W92657  35.523  19.088   0.463
28725W        W92658  27.660   9.786   0.895
28726W        W92659  22.505  32.909   2.291
28727W        W92660  24.226  43.306  11.048
28728W        W92661  42.324  41.835  10.415
28729W        W92662  23.114  10.339  14.917
28730W        W92663   9.722   7.185  12.009
28731W        W92664  41.473  15.594  12.926
28732W        W92665  38.855  14.105  13.430
28733W        W92666  21.259  11.625   1.288
28734W        W92667   3.421  22.547  14.314
28735W        W92668  40.448   6.882  13.405
28736W        W92669  19.533  16.647  12.084
28737W        W92670   7.396   5.715   0.334
28738W        W92671  34.078  40.857  13.986
28739W        W92672   2.372   5.884  11.048
28740W        W92673   6.275  10.763  12.904
28741W        W92674  32.085  17.580   0.917
28742W        W92675  20.268  17.156   2.296
28743W        W92676  42.457  22.737   0.743
28744W        W92677  44.963  39.336  13.540
28745W        W92678  26.036  31.605  10.433
28746W        W92679  41.518  23.538   2.692
28747W        W92680  26.029  15.659   2.370
28748W        W92681  12.735  44.340  11.040
28749W        W92682  38.929   4.914  11.914
28750W        W92683  32.113  37.552   1.747
28751W        W92684   4.863  23.565   1.699
28752W        W92685  37.868  18.210  11.964
28753W        W92686   4.762   8.745   3.835
28754W        W92687  36.400   0.863   1.911
28755W        W92688  20.689   3.421  12.838
28756W        W92689  24.014  10.263  14.836
28757W        W92690  41.877  44.811  11.490
28758W        W92691  39.497  30.158  14.314
28759W        W92692   6.356  12.271   1.899
28760W        W92693   4.309  37.076   3.820
28761W        W92694  27.542   7.884  10.581
28762W        W92695  19.162  28.643  11.576
28763W        W92696  21.123  17.785   4.740
28764W        W92697  18.720  23.636   0.730
28765W        W92698  30.504  27.138   2.374
28766W        W92699  27.989   2.899   4.698
28767W        W92700  34.404   6.386   4.153
28768W        W92701  18.620  41.857   1.373
28769W        W92702  39.509   6.877  14.809
28770W        W92703   9.160  12.141  12.052
28771W        W92704  20.046   0.978  12.441
28772W        W92705  41.908   4.350  11.473
28773W        W92706  21.035   2.925  13.463
28774W        W92707  29.482   9.667   4.292
28775W        W92708   6.298  40.507  13.433
28776W        W92709  32.959  28.517  12.029
28777W        W92710  12.631   1.328  14.443
28778W        W92711  39.997  36.419  13.547
28779W        W92712  26.088  44.839   2.254
28780W        W92713  39.986  34.908  10.555
28781W        W92714  12.209  30.064   1.801
28782W        W92715  30.973  44.287  11.438
28783W        W92716  21.644  16.234   1.389
28784W        W92717  26.172  20.048  13.973
28785W        W92718  25.544  22.174   4.733
28786W        W92719  39.065  19.053   4.267
28787W        W92720  11.209  34.920  14.383
28788W        W92721  28.636  32.441   0.411
28789W        W92722   6.249  23.684  11.559
28790W        W92723   9.878  43.426  14.885
28791W        W92724  36.509  16.270   0.940
28792W        W92725  13.654   3.441  10.916
28793W        W92726  28.614  42.425  11.548
28794W        W92727   0.749   5.409   1.293
28795W        W92728  34.610  26.197  11.903
28796W        W92729  17.684  31.429  14.833
28797W        W92730   4.331   9.679   3.327
28798W        W92731  17.748  31.900  11.585
28799W        W92732  32.528  39.343   2.381
28800W        W92733   0.790  40.843  14.801
28801W        W92734  26.199  32.892  14.364
28802W        W92735   4.265  14.834   3.743
28803W        W92736  25.572   5.232  12.053
28804W        W92737  37.474  27.663  12.370
28805W        W92738  30.039   1.429  11.905
28806W        W92739  39.992  37.835  14.458
28807W        W92740  30.584  33.011  10.412
28808W        W92741  27.643  15.803   3.829
28809W        W92742   9.235  21.527   1.270
28810W        W92743  44.856   8.185  14.802
28811W        W92744  31.934  39.442  12.543
28812W        W92745  39.553  22.597  14.903
28813W        W92746  20.606  43.883  14.798
28814W        W92747  32.001   4.346  14.862
28815W        W92748  42.834  43.946  14.014
28816W        W92749  26.559   8.279   2.868
28817W        W92750  15.277  14.650  12.931
28818W        W92751  12.718  18.075   1.797
28819W        W92752  41.996  17.217  13.542
28820W        W92753  34.532   1.869   3.746
28821W        W92754  34.018  39.465   0.480
28822W        W92755  11.146   4.930   0.727
28823W        W92756   6.901  29.534  12.866
28824W        W92757  34.460  27.955   2.713
28825W        W92758   2.450  23.615   1.390
28826W        W92759   9.364   0.367   3.359
28827W        W92760  43.286  17.095   3.678
28828W        W92761  17.153   5.897  10.616
28829W        W92762  11.307   5.785   3.785
28830W        W92763  22.156   0.955   2.891
28831W        W92764  39.875   4.744  11.511
28832W        W92765  13.736  42.781  12.494
28833W        W92766  19.061  33.474  11.100
28834W        W92767  26.676  20.216   2.403
28835W        W92768   5.772  26.986  13.905
28836W        W92769   9.713  23.540   9.544
28837W        W92770  31.495  27.146  11.576
28838W        W92771  16.653  29.926  10.920
28839W        W92772  10.694   6.193  10.547
28840W        W92773  37.010  20.725   2.318
28841W        W92774  34.042  34.939   2.683
28842W        W92775  17.584   9.742   4.723
28843W        W92776  44.299  22.720  11.394
28844W        W92777  34.604  18.628  13.343
28845W        W92778   3.381  44.757   2.354
28846W        W92779   2.900  10.756   0.730
28847W        W92780   8.218   9.856  14.920
28848W        W92781   4.932  36.876  11.433
28849W        W92782  23.588  24.104   0.252
28850W        W92783  12.292  34.503   2.254
28851W        W92784  43.979  43.367   0.458
28852W        W92785  11.765  41.931   1.697
28853W        W92786   2.315  39.331   0.382
28854W        W92787   1.799  40.492  12.849
28855W        W92788  44.466  44.402   4.121
28856W        W92789  32.033  18.671   0.318
28857W        W92790  22.088  36.368   4.277
28858W        W92791   7.276   5.746   4.774
28859W        W92792  25.152  32.892  12.003
28860W        W92793  14.316  19.134  11.098
28861W        W92794   1.293  11.157  11.090
28862W        W92795  25.190  22.533   1.782
28863W        W92796  26.574  36.929   0.262
28864W        W92797  41.336  39.945  11.489
28865W        W92798  30.125  34.116  13.467
28866W        W92799   9.168  35.922   0.449
28867W        W92800  27.600  32.567   4.338
28868W        W92801  23.505   5.407  13.456
28869W        W92802  37.458  40.861  10.958
28870W        W92803   2.465  35.589  14.019
28871W        W92804   2.964  35.898  10.923
28872W        W92805   8.215  11.288  12.826
28873W        W92806  23.162  14.703   3.733
28874W        W92807  12.201  10.874   3.295
28875W        W92808  14.198  23.201   4.763
28876W        W92809  41.910   5.891   0.867
28877W        W92810  37.439  21.047   3.744
28878W        W92811  44.453  39.478   0.376
28879W        W92812  20.089  32.635  12.544
28880W        W92813   4.422  18.609  13.359
28881W        W92814  42.482  35.376  12.833
28882W        W92815  44.504  20.102  10.940
28883W        W92816   1.816   4.819   2.350
28884W        W92817  23.569  17.703   2.262
28885W        W92818  10.682  25.105   1.837
28886W        W92819  44.970   9.165   0.881
28887W        W92820  35.047  28.132  12.834
28888W        W92821  39.453  43.016   3.792
28889W        W92822  43.792  10.212  10.908
28890W        W92823   3.753  35.945   5.166
28891W        W92824   4.911  23.623  14.496
28892W        W92825  19.121  42.335  11.566
28893W        W92826   8.387  20.252   2.240
28894W        W92827  12.766  21.748   0.741
28895W        W92828  36.871   3.946   3.189
28896W        W92829  39.855  22.667  13.875
28897W        W92830  28.617  26.172  12.002
28898W        W92831  38.833  27.175  14.881
28899W        W92832  20.137  33.009   2.774
28900W        W92833   0.341  27.655  12.461
28901W        W92834  19.178  41.509   2.327
28902W        W92835  39.061  17.094   1.442
28903W        W92836  10.830   0.269  14.455
28904W        W92837   8.220  27.602   1.758
28905W        W92838  29.144  40.911  10.553
28906W        W92839   7.679  28.183   2.864
28907W        W92840  25.144  14.612   1.701
28908W        W92841   1.904  35.009   4.155
28909W        W92842  19.277  26.991  11.057
28910W        W92843  25.536  13.224   5.264
28911W        W92844  26.046  24.677  10.605
28912W        W92845  28.466  29.030  13.024
28913W        W92846  24.108  22.181   1.380
28914W        W92847   5.358  34.910   3.811
28915W        W92848  26.012  44.937   0.938
28916W        W92849  17.084  39.900   1.418
28917W        W92850  43.883  29.569   4.780
28918W        W92851   3.375   5.322  14.287
28919W        W92852  29.563  23.197   4.200
28920W        W92853  41.847  27.637   0.472
28921W        W92854  17.619  22.598  14.802
28922W        W92855  22.059  25.557   0.885
28923W        W92856  14.198   4.859   4.661
28924W        W92857  18.722   5.880   4.329
28925W        W92858  20.053  26.151  14.014
28926W        W92859  33.904  39.024  11.059
28927W        W92860  26.014   2.753   1.797
28928W        W92861  26.470  29.537  14.781
28929W        W92862   1.278   7.870  11.970
28930W        W92863   2.279  31.137   2.882
28931W        W92864  22.145  23.055  13.024
28932W        W92865  33.551   5.285   4.764
28933W        W92866  16.236  39.924   1.377
28934W        W92867   7.351  19.751   3.254
28935W        W92868  32.984  19.706   2.665
28936W        W92869  10.312   5.274   1.884
28937W        W92870   3.727   6.816   1.445
28938W        W92871   3.914  33.013  14.328
28939W        W92872  27.673   5.368  11.912
28940W        W92873   9.782  30.165   1.315
28941W        W92874  39.397  18.756   2.823
28942W        W92875   8.227  21.725  14.889
28943W        W92876  20.537   5.230  12.910
28944W        W92877   0.441  44.386   4.771
28945W        W92878  21.751   6.298  11.384
28946W        W92879  38.829  16.292  10.460
28947W        W92880  39.952  27.045  14.023
28948W        W92881  11.201  38.884   3.194
28949W        W92882   2.800  42.458   1.332
28950W        W92883  20.699  13.622  10.544
28951W        W92884  35.042   4.936  12.503
28952W        W92885   3.358  10.262   4.743
28953W        W92886  24.593  13.621   3.266
28954W        W92887  28.651  20.058   3.340
28955W        W92888  23.149  27.669   1.422
28956W        W92889  38.453  43.807  12.020
28957W        W92890   0.946  29.562  10.621
28958W        W92891  32.511  25.966   3.378
28959W        W92892  16.723  42.848   3.732
28960W        W92893  25.473  36.454  10.548
28961W        W92894  10.681  17.761   0.886
28962W        W92895  26.612  17.220  12.509
28963W        W92896  16.284   0.378  10.469
28964W        W92897  39.818  20.710   3.272
28965W        W92898  37.430  14.782  10.412
28966W        W92899  31.093   1.407   1.702
28967W        W92900  17.594  18.548  11.113
28968W        W92901  21.252  30.947   2.297
28969W        W92902  11.663  16.679  12.984
28970W        W92903  30.646  36.078  12.859
28971W        W92904  44.265   7.229  10.079
28972W        W92905  36.060  14.604   2.415
28973W        W92906  41.846   7.276  13.326
28974W        W92907  30.075  37.417  14.297
28975W        W92908  21.616  21.541   3.305
28976W        W92909  16.317  13.308  13.420
28977W        W92910  29.964  25.190  12.004
28978W        W92911  14.744  10.825  13.842
28979W        W92912  30.586  15.206   4.766
28980W        W92913  14.654  24.082   1.210
28981W        W92914  11.367  11.626   2.875
28982W        W92915   6.385   5.261  10.508
28983W        W92916  25.014  11.624   2.260
28984W        W92917  21.551  19.570  11.009
28985W        W92918  40.321   9.728  14.780
28986W        W92919  42.815  15.807   1.345
28987W        W92920  31.030  25.129  13.935
28988W        W92921   8.765  41.363  14.360
28989W        W92922  27.652  28.950  14.796
28990W        W92923  13.836  26.544   1.339
28991W        W92924  26.684  38.064   1.344
28992W        W92925  23.005  40.484  10.130
28993W        W92926  25.643   1.313   3.336
28994W        W92927  39.436  31.040  11.535
28995W        W92928  14.115  12.731   1.421
28996W        W92929   7.781   2.870  12.551
28997W        W92930  35.382  24.725   0.759
28998W        W92931   7.755  15.119   2.186
28999W        W92932  30.503   9.364   3.766
29000W        W92933  31.948  10.368  13.459
29001W        W92934  18.771   3.216   3.372
29002W        W92935  25.028  22.716  13.387
29003W        W92936  32.953  12.278  12.078
29004W        W92937  32.468  23.205   4.296
29005W        W92938  14.109  31.989   3.359
29006W        W92939  14.255  24.715  10.493
29007W        W92940  40.894  30.521   4.131
29008W        W92941  38.519  44.477  14.963
29009W        W92942  25.045  19.041  11.602
29010W        W92943  32.995  22.554  13.859
29011W        W92944  30.536  32.116  12.372
29012W        W92945  24.019  35.941   2.369
29013W        W92946  19.062  35.889  11.508
29014W        W92947   3.951   4.848  10.067
29015W        W92948   7.834  34.906  14.299
29016W        W92949  39.813  34.611   4.633
29017W        W92950   8.764  33.954   2.864
29018W        W92951  39.891  13.330  14.375
29019W        W92952   7.737  44.989   0.276
29020W        W92953  44.466  34.448   4.818
29021W        W92954  44.288  13.330  14.410
29022W        W92955  20.759   5.249  11.485
29023W        W92956  12.219  24.187   0.784
29024W        W92957  20.602  29.660   1.862
29025W        W92958   7.403  25.503  12.926
29026W        W92959   4.721  14.788   0.858
29027W        W92960  33.499   1.478   4.190
29028W        W92961  18.785  19.114  12.920
29029W        W92962  40.436   7.900   2.733
29030W        W92963  24.219  29.983  14.786
29031W        W92964  15.757   8.393  14.783
29032W        W92965  21.609  18.061   3.860
29033W        W92966   2.348  42.908   5.085
29034W        W92967   0.750  15.788   2.668
29035W        W92968  25.589  33.514  12.375
29036W        W92969  40.416  34.412  12.393
29037W        W92970  28.151  38.428   1.796
29038W        W92971  41.339  11.140  14.425
29039W        W92972  39.338   5.199   4.795
29040W        W92973  27.955   3.892  10.144
29041W        W92974  28.026   4.359  14.356
29042W        W92975  37.408  15.789   3.361
29043W        W92976  41.321  35.534  10.891
29044W        W92977  41.826   2.807  14.822
29045W        W92978  38.548  13.740   3.647
29046W        W92979  19.201  12.621   3.667
29047W        W92980  42.919   0.346   1.295
29048W        W92981  40.304  36.510  11.918
29049W        W92982  34.548   1.945   0.260
29050W        W92983  35.854  16.152   3.678
29051W        W92984  12.840  13.155   2.208
29052W        W92985   6.759   7.762   3.365
29053W        W92986  25.668  38.939   2.310
29054W        W92987  30.999  13.316   3.226
29055W        W92988  35.372  37.383  13.392
29056W        W92989  21.733  41.854   1.769
29057W        W92990  25.218  40.423   1.404
29058W        W92991  42.306  33.602   0.898
29059W        W92992  25.086  37.442  11.379
29060W        W92993  21.043  27.982   4.140
29061W        W92994   3.891  12.654   2.399
29062W        W92995  42.017  13.611  11.886
29063W        W92996  24.013  36.472  11.533
29064W        W92997  16.801   0.815   1.890
29065W        W92998  30.615  19.113   0.745
29066W        W92999  42.778  36.462   2.317
29067W        W93000  21.116  14.249   2.342
29068W        W93001   7.735  21.648  13.448
29069W        W93002  44.976  16.648  14.295
29070W        W93003  14.303  42.802   0.901
29071W        W93004   6.914  44.864  12.452
29072W        W93005  16.169   7.910   1.840
29073W        W93006  18.654  38.348   1.805
29074W        W93007  27.179  26.173   0.394
29075W        W93008  29.438  18.173   4.761
29076W        W93009  35.423  27.692  10.520
29077W        W93010  34.499  19.602   1.405
29078W        W93011  12.321  20.675   1.298
29079W        W93012  31.598  33.604  11.003
29080W        W93013  39.447   5.729   1.851
29081W        W93014   6.298  30.565  12.924
29082W        W93015  18.764   7.862   0.417
29083W        W93016  22.727  17.203   1.896
29084W        W93017  25.590  38.061   2.253
29085W        W93018   8.668   1.922  14.849
29086W        W93019  32.041  22.073  13.540
29087W        W93020  30.982  31.528   2.824
29088W        W93021   4.876  36.885   0.413
29089W        W93022  30.927   4.439  10.497
29090W        W93023  27.584   4.225   2.850
29091W        W93024  35.866  34.369   4.271
29092W        W93025  38.849  38.965  12.044
29093W        W93026  25.545  20.616   0.822
29094W        W93027  22.737  24.621  10.498
29095W        W93028  36.972  24.481  13.308
29096W        W93029  38.447  43.906   1.784
29097W        W93030  34.096  22.196  14.502
29098W        W93031  24.118   1.413   4.621
29099W        W93032   7.909  27.962   2.348
29100W        W93033  20.562  19.606   0.329
29101W        W93034  19.177  43.915   3.256
29102W        W93035  10.337  34.053  10.541
29103W        W93036   8.711  20.048  14.456
29104W        W93037  20.600  37.908   2.758
29105W        W93038  16.289   2.315   1.292
29106W        W93039   7.771  34.486   3.255
29107W        W93040  20.744  26.515   1.823
29108W        W93041  10.368   6.836  11.420
29109W        W93042  31.096  42.389  13.382
29110W        W93043  16.257  13.643  11.081
29111W        W93044   0.264  17.729  12.498
29112W        W93045   8.897  43.782   2.284
29113W        W93046  22.563  34.551   2.378
29114W        W93047  15.777  21.106   4.671
29115W        W93048  26.998   9.743  11.090
29116W        W93049   2.854  13.781   1.798
29117W        W93050  41.400  24.550  14.842
29118W        W93051  29.472  28.147  11.081
29119W        W93052  39.939   1.450  14.439
29120W        W93053   2.346  35.016  12.017
29121W        W93054   8.355  26.136  10.604
29122W        W93055  43.317  42.890   1.343
29123W        W93056  16.157  15.107  10.606
29124W        W93057  22.148   6.717  11.121
29125W        W93058  40.983  29.038   0.475
29126W        W93059  17.139  38.430   0.841
29127W        W93060  19.206  19.242  12.448
29128W        W93061  27.030   7.876   4.146
29129W        W93062  41.931  44.765   3.656
29130W        W93063  32.408  26.608  11.896
29131W        W93064   7.321  10.874  13.873
29132W        W93065  37.063   0.902   4.152
29133W        W93066  20.245  23.514   4.614
29134W        W93067  32.558  25.631  10.499
29135W        W93068  25.021   6.861   1.411
29136W        W93069  17.606  24.606   1.803
29137W        W93070  25.059   7.896   1.359
29138W        W93071  21.719   7.181  14.333
29139W        W93072  39.913   2.242  11.080
29140W        W93073  21.176  32.066   2.219
29141W        W93074  40.883  15.641  11.982
29142W        W93075   0.787   5.913   3.791
29143W        W93076   6.228  34.546  12.911
29144W        W93077  13.153  43.775  14.897
29145W        W93078  35.106  14.219   9.940
29146W        W93079  20.567  34.084   0.823
29147W        W93080   8.302   1.785  12.529
29148W        W93081  34.871  28.544  14.376
29149W        W93082  36.925   2.385   0.816
29150W        W93083  38.997  23.053  14.509
29151W        W93084  27.569  15.693  11.584
29152W        W93085  10.238  40.885  11.066
29153W        W93086  21.708  40.408   2.308
29154W        W93087  39.554  34.022  11.862
29155W        W93088  24.684  13.772   5.278
29156W        W93089  18.235  37.843   0.768
29157W        W93090  34.959   1.394  13.363
29158W        W93091   7.698   2.238   2.735
29159W        W93092  37.920  42.395   0.462
29160W        W93093  19.780  26.188   1.376
29161W        W93094  18.232  42.031  13.021
29162W        W93095   1.937   2.353   3.166
29163W        W93096  33.046  11.635  12.006
29164W        W93097  38.430  44.941   0.247
29165W        W93098   2.748  14.328  12.944
29166W        W93099  38.839  30.455   0.931
29167W        W93100  13.258  25.680   4.259
29168W        W93101  28.498  38.495  13.963
29169W        W93102   5.320  35.475   2.295
29170W        W93103   2.364  35.512   1.782
29171W        W93104  18.611  33.578   4.718
29172W        W93105  17.085   7.208  11.095
29173W        W93106  42.311  20.047   2.724
29174W        W93107  23.639  36.992   2.374
29175W        W93108  14.807   5.920   3.185
29176W        W93109  18.674  22.592   0.798
29177W        W93110  21.110  35.478  12.512
29178W        W93111  24.172  42.367   4.174
29179W        W93112  14.753  25.002  13.952
29180W        W93113   5.437  33.450  13.529
29181W        W93114  21.545  16.606   0.244
29182W        W93115  12.116  26.540   4.200
29183W        W93116   0.908  18.225  14.819
29184W        W93117  31.967  29.585  14.898
29185W        W93118  38.397  32.095   4.669
29186W        W93119   4.265  38.921  11.044
29187W        W93120  16.738  42.510   2.806
29188W        W93121   8.773  16.751   0.284
29189W        W93122  25.604  39.874  12.408
29190W        W93123  20.681  37.032   1.741
29191W        W93124  28.077  41.843  12.477
29192W        W93125  30.481   0.939   2.746
29193W        W93126  20.597   0.418   1.377
29194W        W93127  25.024  28.559   3.728
29195W        W93128  26.201   9.284  11.962
29196W        W93129  21.158  25.553   2.768
29197W        W93130   7.908  30.466   3.693
29198W        W93131  34.405  43.980   4.776
29199W        W93132  31.562  11.189  11.592
29200W        W93133  26.637  28.647  11.873
29201W        W93134   7.683  27.471  12.059
29202W        W93135  14.622   2.782  12.848
29203W        W93136  16.684   7.814  12.899
29204W        W93137  29.947  35.069   0.951
29205W        W93138  20.090  25.010  12.359
29206W        W93139  39.356  40.821   1.442
29207W        W93140  29.637  28.491  11.919
29208W        W93141  17.739  17.111  11.055
29209W        W93142  26.006  15.784  10.922
29210W        W93143  22.088  20.079   3.704
29211W        W93144  40.950  28.591  10.638
29212W        W93145  14.168  31.917  12.413
29213W        W93146   6.883  44.912   0.316
29214W        W93147  28.539   2.269  12.394
29215W        W93148   1.243  26.492  11.584
29216W        W93149  19.675   3.737   0.870
29217W        W93150   7.339  14.712  12.029
29218W        W93151  22.541   4.386   1.392
29219W        W93152  19.151  27.487  12.939
29220W        W93153   5.934  41.370   0.907
29221W        W93154  13.687  42.324  13.004
29222W        W93155  16.766  14.791  12.865
29223W        W93156  18.694  37.978   3.374
29224W        W93157  40.546  44.402   2.320
29225W        W93158   2.881  15.794  11.113
29226W        W93159   7.747  30.443  13.025
29227W        W93160   5.910  15.176   2.872
29228W        W93161  16.129  13.614  14.508
29229W        W93162  17.790  36.577   1.214
29230W        W93163  37.082  39.040   1.919
29231W        W93164  35.375  21.523   0.263
29232W        W93165  16.698  36.884   4.329
29233W        W93166  21.244  30.164   4.806
29234W        W93167  10.213  21.215  10.530
29235W        W93168  36.371  41.822   3.630
29236W        W93169  33.613  39.333   3.698
29237W        W93170  40.468  27.991   4.289
29238W        W93171  17.191  34.479   1.765
29239W        W93172   6.817   4.832   2.396
29240W        W93173  23.074  17.180   2.322
29241W        W93174  27.592   6.400   3.820
29242W        W93175  22.638   2.844  12.967
29243W        W93176   4.298  10.859  12.502
29244W        W93177   0.881  26.595  14.872
29245W        W93178  17.285  34.912  11.385
29246W        W93179  24.145  40.407   3.694
29247W        W93180  24.148  44.425  12.965
29248W        W93181  17.557  41.945  13.309
29249W        W93182  11.736  10.332  11.557
29250W        W93183  22.540  41.326  10.462
29251W        W93184   3.893  43.865  11.942
29252W        W93185  36.585  10.296   4.648
29253W        W93186  40.832  33.559   3.155
29254W        W93187  14.809  26.008  14.775
29255W        W93188   2.936  18.597  12.959
29256W        W93189  30.611  32.989   3.744
29257W        W93190  41.486   7.352  13.059
29258W        W93191  21.226  15.147   4.748
29259W        W93192  20.597   4.284  14.887
29260W        W93193  21.251   1.251   3.761
29261W        W93194  17.287  43.401   0.963
29262W        W93195   5.241  33.040   2.836
29263W        W93196  43.889  33.565   4.627
29264W        W93197  35.906  13.169  13.837
29265W        W93198  13.677  36.989   3.786
29266W        W93199  42.923  32.403   1.906
29267W        W93200  39.434   3.711   1.867
29268W        W93201   0.855  13.829  12.017
29269W        W93202  32.401   5.725  13.852
29270W        W93203  14.746  33.603  13.373
29271W        W93204  25.154  31.921   5.206
29272W        W93205  41.405  29.431   1.916
29273W        W93206  39.038   2.829  10.447
29274W        W93207  26.533  21.043  11.391
29275W        W93208  16.266  31.534   3.306
29276W        W93209  34.086  15.085  11.591
29277W        W93210  18.259  32.995  14.490
29278W        W93211   4.860  37.565   4.193
29279W        W93212  39.907  21.565   2.254
29280W        W93213  14.708   2.781   0.282
29281W        W93214  27.690  14.201  13.044
29282W        W93215  18.758  22.684  11.019
29283W        W93216  41.834  29.033  12.416
29284W        W93217  33.611  31.133  11.072
29285W        W93218  15.225  39.526  14.783
29286W        W93219  40.319  25.621  13.837
29287W        W93220  28.601  27.184   2.209
29288W        W93221   0.473   8.894   2.320
29289W        W93222  43.353   2.802   2.856
29290W        W93223   2.410  16.254  14.421
29291W        W93224  40.430  22.622  10.562
29292W        W93225  10.713  20.532   4.295
29293W        W93226   2.855  32.596   3.314
29294W        W93227  43.271   4.367   0.966
29295W        W93228  22.520   4.335   1.815
29296W        W93229  32.127  28.518   0.849
29297W        W93230  37.340  20.222   2.340
29298W        W93231  11.693  30.466  11.907
29299W        W93232  15.616  22.224  14.845
29300W        W93233   3.776  19.229  14.375
29301W        W93234  26.528  10.312   4.770
29302W        W93235   4.250  40.471  12.491
29303W        W93236   7.677  23.712   0.457
29304W        W93237  10.758  35.872   1.444
29305W        W93238  21.140   4.272   3.697
29306W        W93239  31.100  34.577   0.314
29307W        W93240  17.660   9.879  14.878
29308W        W93241  29.670  42.456   1.331
29309W        W93242  36.431  34.878   2.725
29310W        W93243  39.038  25.158   3.669
29311W        W93244  24.531  24.643  12.574
29312W        W93245  43.799  31.004   3.749
29313W        W93246  13.161  31.448   2.331
29314W        W93247   2.766  38.072  14.462
29315W        W93248  23.987  42.298  14.472
29316W        W93249  35.525   8.803   1.733
29317W        W93250  27.481   4.380  11.120
29318W        W93251  27.655   7.229  10.462
29319W        W93252  43.960  30.598   0.420
29320W        W93253   0.400  23.734  14.800
29321W        W93254  37.865  27.475  12.481
29322W        W93255   7.289  37.011   0.862
29323W        W93256  23.666  17.769  12.844
29324W        W93257  23.987  20.031   1.698
29325W        W93258  13.303  29.156   4.249
29326W        W93259  23.514  20.182  13.967
29327W        W93260  21.119  14.801  11.379
29328W        W93261  29.989   6.357  12.876
29329W        W93262  33.431  34.971   4.339
29330W        W93263  37.897  21.559   0.383
29331W        W93264   1.325  40.490   4.694
29332W        W93265   5.249  44.296  14.395
29333W        W93266  21.542  21.668  11.500
29334W        W93267  44.952  27.112  12.847
29335W        W93268  19.130  42.448  14.485
29336W        W93269  18.558   7.355  11.462
29337W        W93270  15.196  23.707   2.318
29338W        W93271   2.783  36.845  13.835
29339W        W93272  34.427  41.387  11.425
29340W        W93273  36.947   6.224   1.349
29341W        W93274  34.458  40.501   3.171
29342W        W93275  30.946  27.966   1.831
29343W        W93276  26.654   3.403   0.855
29344W        W93277  12.652  38.985  12.863
29345W        W93278  17.082  32.958   1.344
29346W        W93279  21.261   3.459  13.867
29347W        W93280  31.408  41.895  12.457
29348W        W93281  10.773  25.030   4.323
29349W        W93282  36.523  10.264  10.557
29350W        W93283  18.293  30.150   4.651
29351W        W93284  38.392  14.639   1.444
29352W        W93285  12.745   5.912   9.938
29353W        W93286  26.108  27.470   0.822
29354W        W93287  32.059   1.342   0.244
29355W        W93288  15.181  21.537   0.393
29356W        W93289   4.908  36.558   2.265
29357W        W93290  35.533  28.493   3.761
29358W        W93291  36.437   8.223  14.023
29359W        W93292  11.833  14.665   2.224
29360W        W93293  12.649  21.688  14.825
29361W        W93294   6.398  27.531  11.468
29362W        W93295  23.094  34.059  10.502
29363W        W93296  17.715  31.569  10.432
29364W        W93297  20.253  38.011   2.285
29365W        W93298  34.002  15.255  13.062
29366W        W93299  42.792  15.300   2.756
29367W        W93300  44.436   0.341  13.057
29368W        W93301  32.968  24.577   0.458
29369W        W93302  31.059  33.884  13.856
29370W        W93303  13.727  36.841   0.426
29371W        W93304   4.730  14.690   2.199
29372W        W93305  26.079  19.254  12.554
29373W        W93306   5.928  11.145   1.826
29374W        W93307  25.010   8.282  12.085
29375W        W93308  27.484  29.074   4.826
29376W        W93309  43.407  21.097  11.490
29377W        W93310  17.760  24.109   2.322
29378W        W93311  30.111  27.013   2.200
29379W        W93312  40.041  41.386  11.477
29380W        W93313   1.331  16.719   4.610
29381W        W93314  34.544  34.961   2.227
29382W        W93315  38.559  22.684  10.961
29383W        W93316  40.812  30.467   0.956
29384W        W93317   2.962  13.609  12.545
29385W        W93318   6.421   0.793  13.508
29386W        W93319  27.519  13.635  14.306
29387W        W93320  39.379   2.419  13.375
29388W        W93321  15.271  38.930   3.366
29389W        W93322  32.998  35.086  14.794
29390W        W93323   7.852  26.554   2.867
29391W        W93324  28.184   9.676  14.876
29392W        W93325  29.476  21.083  11.475
29393W        W93326  27.455  15.280   3.339
29394W        W93327  40.354  28.027   5.253
29395W        W93328  16.279   8.276   2.289
29396W        W93329  14.775  22.106  14.807
29397W        W93330  23.685  39.543  12.458
29398W        W93331  16.702  18.736  11.122
29399W        W93332  13.793   4.851   1.394
29400W        W93333   4.379  24.514  12.560
29401W        W93334  14.643  29.632   4.767
29402W        W93335  17.198  42.796  14.473
29403W        W93336   3.359  14.664   2.805
29404W        W93337   2.819  28.166   0.818
29405W        W93338  22.060  33.598   4.742
29406W        W93339  17.131  30.604  13.546
29407W        W93340   9.186  13.658   1.714
29408W        W93341  27.067   3.296   3.805
29409W        W93342   4.383  10.228  12.486
29410W        W93343   7.329  15.687   4.151
29411W        W93344  25.490  27.049   2.662
29412W        W93345   2.813   9.265   1.834
29413W        W93346  31.501  24.603   4.316
29414W        W93347  43.984  44.493  11.410
29415W        W93348  17.725  35.073   2.377
29416W        W93349  14.333  16.728   3.648
29417W        W93350  38.912   7.820  12.426
29418W        W93351   8.703  39.962  13.501
29419W        W93352   2.346  29.595  12.355
29420W        W93353  21.074  32.594   2.858
29421W        W93354  23.517  44.912  11.405
29422W        W93355   9.233   9.860  10.948
29423W        W93356  19.657  42.824   0.359
29424W        W93357   0.842  13.625   2.311
29425W        W93358  38.455  12.854   0.886
29426W        W93359   9.201   1.388   3.321
29427W        W93360  23.701  36.471   2.399
29428W        W93361  30.068  25.059   0.272
29429W        W93362  29.584   3.339   2.821
29430W        W93363  43.899  12.729  12.362
29431W        W93364  19.200   0.786  13.897
29432W        W93365  28.155  41.508  12.537
29433W        W93366  28.597   8.792  12.863
29434W        W93367  44.978  38.053  10.459
29435W        W93368  28.615  25.477   0.783
29436W        W93369  16.112   1.863   1.809
29437W        W93370  14.828  15.682  12.485
29438W        W93371  10.298   6.772   0.393
29439W        W93372  28.023  33.113   4.140
29440W        W93373   2.779  14.096  11.984
29441W        W93374  28.670  36.367  14.482
29442W        W93375  38.951  18.213   0.897
29443W        W93376  38.411  31.136  13.846
29444W        W93377  23.709  40.413  10.556
29445W        W93378  29.644  40.368  13.924
29446W        W93379  17.297  39.425   4.796
29447W        W93380   5.194  33.963   4.197
29448W        W93381  21.068  41.485   5.317
29449W        W93382  18.246  25.036   4.795
29450W        W93383  34.088   5.244  11.467
29451W        W93384  25.115  13.628  14.883
29452W        W93385  36.034  31.596  11.594
29453W        W93386   3.806  14.276   0.309
29454W        W93387  14.621   1.320  12.017
29455W        W93388   9.248  12.271  12.349
29456W        W93389   8.241  43.844  14.906
29457W        W93390  22.554  30.016  13.007
29458W        W93391  12.713  30.917   3.304
29459W        W93392   6.313  33.397  11.582
29460W        W93393  29.066   9.253   4.820
29461W        W93394  42.820  21.071  12.367
29462W        W93395  19.088   0.366  10.523
29463W        W93396  42.940   6.899   1.227
29464W        W93397  20.142   5.320  10.918
29465W        W93398  31.588  33.968   4.604
29466W        W93399  15.598  30.563   0.800
29467W        W93400  32.943  16.076  13.525
29468W        W93401   2.817  37.005  14.892
29469W        W93402   0.482  36.423   4.279
29470W        W93403  30.119  40.923  13.996
29471W        W93404  22.169  25.509   1.816
29472W        W93405  29.020   6.775  14.392
29473W        W93406   6.234  41.383  13.979
29474W        W93407   8.315  13.255   3.677
29475W        W93408   7.678   5.916   3.246
29476W        W93409  15.137  25.579   0.417
29477W        W93410   6.271  24.202  11.867
29478W        W93411  11.847   2.450  11.117
29479W        W93412   3.941  42.807   4.236
29480W        W93413  23.708   6.811   2.200
29481W        W93414  24.515  42.483  11.885
29482W        W93415  17.177  26.658  14.765
29483W        W93416  26.670  27.560   1.714
29484W        W93417  21.554  12.732   1.431
29485W        W93418  30.161   9.787   0.415
29486W        W93419  23.596   9.237   3.688
29487W        W93420  20.575  44.431   0.951
29488W        W93421  41.353   1.447   1.924
29489W        W93422   7.908  38.383  14.453
29490W        W93423  17.164  40.530   0.788
29491W        W93424   2.834   2.824  14.387
29492W        W93425  29.150  37.356  10.902
29493W        W93426  41.308  25.144   5.204
29494W        W93427  37.495   4.922   3.227
29495W        W93428  27.964  28.548   4.820
29496W        W93429   0.917  39.814   2.846
29497W        W93430  32.000  15.252   2.854
29498W        W93431   6.295   5.298   2.198
29499W        W93432  33.539  29.545  11.076
29500W        W93433  16.704  30.591   3.225
29501W        W93434  29.631   2.769   1.281
29502W        W93435  42.918  27.658  12.520
29503W        W93436  30.437  37.404   0.815
29504W        W93437  15.113  25.545  12.897
29505W        W93438   4.875  32.453   1.887
29506W        W93439   4.887   8.783  11.599
29507W        W93440  34.918  30.162  14.363
29508W        W93441  33.015  41.919   3.791
29509W        W93442  34.487   5.220   1.768
29510W        W93443  16.768  33.073  14.479
29511W        W93444  11.170   5.207  13.515
29512W        W93445   5.366   0.448  14.291
29513W        W93446   4.801  16.278  10.568
29514W        W93447   6.775  15.287  10.422
29515W        W93448  10.354   3.805  13.352
29516W        W93449   7.220  34.927   3.679
29517W        W93450   5.265  12.268  14.978
29518W        W93451  38.412   1.950  12.514
29519W        W93452  38.395   5.307  14.513
29520W        W93453   6.887   8.343   0.847
29521W        W93454  34.413  32.557  13.310
29522W        W93455  33.604  32.526  13.355
29523W        W93456   9.690  10.720  10.626
29524W        W93457  24.581  34.421   4.214
29525W        W93458  30.921   2.721   0.837
29526W        W93459  22.010   2.897   3.830
29527W        W93460  14.325  30.155  14.801
29528W        W93461  27.529  13.811   4.117
29529W        W93462  33.478  42.323  13.015
29530W        W93463   0.420  37.059   2.691
29531W        W93464  23.515  12.183  11.013
29532W        W93465   3.714   2.280   0.467
29533W        W93466  24.157   8.730  12.349
29534W        W93467  34.004  22.717  13.884
29535W        W93468  31.551  34.940  10.573
29536W        W93469  24.006  10.709   1.703
29537W        W93470   5.232  22.192   0.361
29538W        W93471   9.731  35.382  12.841
29539W        W93472  28.549  35.531   4.294
29540W        W93473   0.826   3.743  14.485
29541W        W93474  34.054  12.769   4.766
29542W        W93475   2.291  17.749  10.565
29543W        W93476   6.263   6.242   3.740
29544W        W93477   2.952  14.800  13.020
29545W        W93478  22.604  37.460  14.450
29546W        W93479  35.052  25.612   2.888
29547W        W93480  11.227   1.799  12.842
29548W        W93481  21.581  12.653   0.292
29549W        W93482  27.102  15.202  10.987
29550W        W93483  17.669  31.064  11.944
29551W        W93484   4.867   7.887  11.495
29552W        W93485  29.062  36.038   0.905
29553W        W93486  32.469  16.710   2.414
29554W        W93487   5.899   0.946  11.405
29555W        W93488   2.401  16.588   0.766
29556W        W93489  40.028  20.640   0.755
29557W        W93490  28.075  34.050   4.128
29558W        W93491  18.170  41.458   1.360
29559W        W93492  16.769  29.642  14.490
29560W        W93493  18.203  25.137  10.984
29561W        W93494  12.679  13.742  14.397
29562W        W93495   8.205   3.270   3.346
29563W        W93496  15.652  27.605   2.734
29564W        W93497  36.510  34.543  14.930
29565W        W93498  19.243  28.447   3.846
29566W        W93499  24.011  26.471   4.692
29567W        W93500  24.187   4.870   0.924
29568W        W93501  24.634   1.774   2.825
29569W        W93502   0.492  32.067   1.279
29570W        W93503  23.997  15.731  10.579
29571W        W93504  24.673  27.604  13.015
29572W        W93505   3.260   3.723  13.968
29573W        W93506   2.371  18.258  11.567
29574W        W93507   5.323   9.195   0.893
29575W        W93508  38.351   1.445   2.296
29576W        W93509  31.965  18.699   4.322
29577W        W93510   8.231  27.470   2.389
29578W        W93511   9.782  41.418   4.276
29579W        W93512  12.629  17.127   0.253
29580W        W93513  18.100  18.734   1.802
29581W        W93514  18.614   8.274  13.037
29582W        W93515   0.423  18.658   0.458
29583W        W93516   3.423  34.882  10.951
29584W        W93517  20.076  16.187   3.855
29585W        W93518   1.898  39.041  11.996
29586W        W93519  42.480  20.742  12.520
29587W        W93520  42.509  20.095   0.355
29588W        W93521   7.379  22.663  13.992
29589W        W93522   2.436   7.188  10.448
29590W        W93523  23.016  21.600  12.841
29591W        W93524  38.940   5.914  14.882
29592W        W93525   8.769   1.354   4.836
29593W        W93526  37.058  31.608   1.819
29594W        W93527  26.142  10.263  12.905
29595W        W93528  42.382  14.239   1.236
29596W        W93529   2.784  16.696  12.348
29597W        W93530  14.232  10.351  12.929
29598W        W93531  33.973  16.175  14.427
29599W        W93532  10.161  32.128   2.216
29600W        W93533  18.295   5.211   3.197
29601W        W93534  26.538   6.879  12.900
29602W        W93535  21.089  29.583  11.963
29603W        W93536  28.998  36.975   3.165
29604W        W93537  44.383  21.679  13.452
29605W        W93538  33.959   3.451   4.672
29606W        W93539   1.921  33.893   3.349
29607W        W93540  40.800  14.596   4.349
29608W        W93541   7.698  31.512  12.018
29609W        W93542  10.280  18.628  13.898
29610W        W93543  19.691  24.046   0.816
29611W        W93544  14.702  37.864   0.867
29612W        W93545  36.432  38.409   0.257
29613W        W93546  20.139  44.979  10.434
29614W        W93547   0.896  16.168   2.274
29615W        W93548  16.077  11.726   3.145
29616W        W93549  38.043  23.725  12.535
29617W        W93550  25.043  29.043  11.428
29618W        W93551  26.461  35.560   2.699
29619W        W93552  36.395  19.172   1.254
29620W        W93553  30.640   6.753   4.322
29621W        W93554  37.473  20.093  14.289
29622W        W93555  20.253  24.122  11.030
29623W        W93556  10.753  19.113   3.652
29624W        W93557  35.432  30.603   1.387
29625W        W93558   2.350  17.603   4.804
29626W        W93559  24.975  32.433  12.937
29627W        W93560  21.031  24.480  13.915
29628W        W93561  19.281   3.710   3.149
29629W        W93562   5.698   9.862   3.227
29630W        W93563  24.223  26.069  14.808
29631W        W93564  35.433  34.554  13.887
29632W        W93565  19.052  41.848   1.892
29633W        W93566  22.111   4.899  14.760
29634W        W93567   3.869   9.781   0.463
29635W        W93568  42.864  15.786   0.727
29636W        W93569   4.791   5.699   1.263
29637W        W93570  24.993  11.267   2.671
29638W        W93571  19.706   8.265   4.346
29639W        W93572   7.264  42.365  12.090
29640W        W93573  43.446  38.524  11.456
29641W        W93574  27.029  31.045   0.947
29642W        W93575  15.203  20.582   0.878
29643W        W93576  26.697  40.866   3.864
29644W        W93577   0.884  37.579  14.971
29645W        W93578  14.306   1.314  10.518
29646W        W93579  31.097  44.755  14.350
29647W        W93580  16.612   4.222  10.622
29648W        W93581  12.827  39.051   1.376
29649W        W93582  21.067  29.656   0.890
29650W        W93583  32.531  29.967   1.334
29651W        W93584  27.059  25.214  13.943
29652W        W93585  10.870  11.830  10.097
29653W        W93586   1.310   1.474  12.085
29654W        W93587   7.748  32.484  14.358
29655W        W93588  22.578  44.782   4.767
29656W        W93589  25.185  12.731  11.865
29657W        W93590  14.317  41.903   0.473
29658W        W93591  35.975   3.906   1.411
29659W        W93592  14.699   8.774   1.321
29660W        W93593  29.560  33.522  10.621
29661W        W93594  22.721  30.026  12.345
29662W        W93595  35.456  37.576   4.321
29663W        W93596  28.103  21.736  12.395
29664W        W93597  22.511  35.537   3.695
29665W        W93598  16.716  10.853  14.800
29666W        W93599  25.985  21.242   5.319
29667W        W93600  15.171  37.011   1.789
29668W        W93601  29.092  20.547   0.439
29669W        W93602  43.326   8.851   4.668
29670W        W93603  40.499  10.867  10.577
29671W        W93604  22.624  44.817   3.310
29672W        W93605  29.132  19.553  10.513
29673W        W93606  29.477   7.288   4.764
29674W        W93607  23.198   1.358  14.917
29675W        W93608  12.702  12.796  14.964
29676W        W93609  42.797  38.553   1.713
29677W        W93610  44.955   3.719  13.400
29678W        W93611   9.365  17.626  14.856
29679W        W93612  14.219  37.037  10.922
29680W        W93613  24.501  13.302   2.844
29681W        W93614  33.096  42.893  11.485
29682W        W93615  37.987  36.422  12.867
29683W        W93616  25.648  17.722   3.693
29684W        W93617   9.859  38.906  14.003
29685W        W93618  39.480   8.310  10.522
29686W        W93619  24.617  12.683   2.208
29687W        W93620  19.758  23.043  13.894
29688W        W93621  40.487  28.576  12.931
29689W        W93622   7.259  21.670   2.325
29690W        W93623  21.063  22.711  10.423
29691W        W93624   9.173  23.186   2.788
29692W        W93625  13.232   2.732   1.422
29693W        W93626  19.071  32.036   3.289
29694W        W93627  18.108  44.885   0.922
29695W        W93628  33.612  26.672   5.227
29696W        W93629  15.578  29.135   3.793
29697W        W93630  24.018  41.797  13.493
29698W        W93631  39.405  35.858  11.465
29699W        W93632  17.226  32.508   4.609
29700W        W93633  38.964   3.920  12.356
29701W        W93634   7.314  13.105  14.931
29702W        W93635  11.859  25.063   1.267
29703W        W93636  23.071  36.480   2.822
29704W        W93637   4.936  22.120   0.280
29705W        W93638  21.063  41.005   2.198
29706W        W93639  12.729   0.951  13.518
29707W        W93640   7.878  11.855  13.544
29708W        W93641  44.423  24.195   2.315
29709W        W93642  37.438  27.461   3.186
29710W        W93643   5.369  38.974  11.590
29711W        W93644  40.899  21.166  10.133
29712W        W93645  32.930   0.911  12.565
29713W        W93646  32.995  14.641  11.969
29714W        W93647   1.335  25.521  10.479
29715W        W93648  40.014  31.493   3.155
29716W        W93649  16.080   0.382   3.290
29717W        W93650  11.850  37.545   4.118
29718W        W93651   4.285   4.909   4.598
29719W        W93652   4.352  30.032  11.010
29720W        W93653  11.625  39.417   0.343
29721W        W93654   1.849  42.814   4.300
29722W        W93655  36.893  28.087   0.275
29723W        W93656  23.563  26.701  11.091
29724W        W93657   4.818  40.528   0.931
29725W        W93658  29.127  41.320  11.921
29726W        W93659   7.876  24.101   4.283
29727W        W93660  41.302  29.087  10.644
29728W        W93661  32.539  21.122   0.325
29729W        W93662   4.803  40.964   3.224
29730W        W93663  19.157  14.206  14.858
29731W        W93664  13.311   7.880  11.984
29732W        W93665  12.750  38.891  14.885
29733W        W93666  12.255  35.560  10.464
29734W        W93667  26.983   2.268   3.294
29735W        W93668  19.608  26.084  11.432
29736W        W93669  33.431  36.973   5.160
29737W        W93670  30.419  41.974  11.125
29738W        W93671   8.815  17.663  13.888
29739W        W93672  16.312   2.245   0.804
29740W        W93673  38.571  21.170  11.472
29741W        W93674  32.451  16.313  14.448
29742W        W93675  36.078  37.058   4.229
29743W        W93676  20.242  25.193  11.388
29744W        W93677  32.595  33.602  11.540
29745W        W93678  13.723  32.072   5.199
29746W        W93679  16.663  13.765   4.335
29747W        W93680  30.533  42.830  11.856
29748W        W93681   8.336  38.036  11.376
29749W        W93682  41.463   9.868   0.475
29750W        W93683  19.084  28.986  14.328
29751W        W93684   0.954  36.386   1.817
29752W        W93685  11.260  34.057  11.049
29753W        W93686  34.981  22.696  12.481
29754W        W93687  38.934  29.472  14.770
29755W        W93688  24.564  38.570   3.371
29756W        W93689  41.984  12.727  10.051
29757W        W93690  17.601  30.474   2.701
29758W        W93691  42.819  14.795  13.544
29759W        W93692  38.492   0.297   0.850
29760W        W93693  12.714   8.732   3.309
29761W        W93694  12.814  13.227   3.637
29762W        W93695   7.784  14.811   3.694
29763W        W93696  10.837  36.404   1.748
29764W        W93697   7.414  27.615   0.244
29765W        W93698  40.417  30.474  10.404
29766W        W93699  43.323  44.434  10.553
29767W        W93700  11.744   4.237  10.625
29768W        W93701   3.236  14.732  12.883
29769W        W93702   6.755  41.014   2.289
29770W        W93703  36.411  22.998  10.956
29771W        W93704  16.229  43.995  12.012
29772W        W93705  12.339   6.719  12.440
29773W        W93706  34.981   6.390  11.408
29774W        W93707  31.412   9.226   1.704
29775W        W93708   3.876  15.653   5.145
29776W        W93709  11.861  14.115   2.311
29777W        W93710   5.212  10.835  13.495
29778W        W93711  41.969  41.392   4.606
29779W        W93712  26.025   8.397  13.831
29780W        W93713  36.077  21.696  12.087
29781W        W93714  44.008  25.012  11.111
29782W        W93715  34.882  18.291  11.017
29783W        W93716  18.724   8.229  13.935
29784W        W93717  27.529   8.784  14.438
29785W        W93718  31.956  19.571   2.374
29786W        W93719  33.455  44.898  13.447
29787W        W93720  33.549  33.485   2.417
29788W        W93721  31.068   1.787  10.043
29789W        W93722  23.139   5.232  14.856
29790W        W93723  13.807  23.047   2.244
29791W        W93724  32.930  39.368  12.910
29792W        W93725   9.182  33.955   3.700
29793W        W93726  40.886   5.377   3.298
29794W        W93727   0.839  19.670   4.620
29795W        W93728  39.344   3.292   2.264
29796W        W93729  41.878   9.810   0.925
29797W        W93730  40.046   6.409  11.888
29798W        W93731   0.490  40.369   2.873
29799W        W93732  12.257   4.733  14.029
29800W        W93733  40.464   7.411  12.982
29801W        W93734  29.663  27.522  14.805
29802W        W93735  24.613  43.436   2.353
29803W        W93736  40.529   9.204   2.361
29804W        W93737  34.076  39.962   2.817
29805W        W93738  27.681  42.019   0.822
29806W        W93739  43.855  43.400  12.506
29807W        W93740   1.483  12.819  11.382
29808W        W93741   6.338  22.687  12.547
29809W        W93742   9.175  39.831  11.497
29810W        W93743  14.603  19.595  14.853
29811W        W93744  28.545  27.167  14.810
29812W        W93745  34.397  38.925  12.926
29813W        W93746  43.395   5.431  13.989
29814W        W93747  11.154  34.930   1.429
29815W        W93748  15.647  17.631  12.873
29816W        W93749  39.379   0.435  11.492
29817W        W93750  34.601  24.009   4.746
29818W        W93751  24.175   2.342  11.001
29819W        W93752  26.959  15.758   4.656
29820W        W93753   5.425   6.867  12.875
29821W        W93754  11.821   8.739   1.359
29822W        W93755  15.616  26.494  14.958
29823W        W93756  39.339  40.354   0.778
29824W        W93757   6.814  10.161   4.273
29825W        W93758   6.678  25.203   3.284
29826W        W93759  14.300  18.636   2.338
29827W        W93760  39.444  28.670   1.880
29828W        W93761   3.864  35.485  14.460
29829W        W93762  31.986  13.105  10.422
29830W        W93763   7.867  16.172  13.850
29831W        W93764   3.816  10.191   1.903
29832W        W93765  38.844  12.259   3.349
29833W        W93766  29.539  14.307   0.834
29834W        W93767  32.080  40.361  13.008
29835W        W93768  16.763  19.268  13.052
29836W        W93769   3.770  26.995   4.643
29837W        W93770  40.049  29.654   1.816
29838W        W93771  21.556  26.038   0.790
29839W        W93772  29.919  28.051   3.711
29840W        W93773   0.283  25.132   0.328
29841W        W93774  13.773  17.742   4.826
29842W        W93775  27.665  15.664  11.909
29843W        W93776  30.531  28.051   1.902
29844W        W93777  34.375   3.846   2.821
29845W        W93778  32.615  43.996  12.545
29846W        W93779  28.121  24.594  14.902
29847W        W93780  17.656  23.049   3.161
29848W        W93781  42.464  42.862  10.446
29849W        W93782  35.393  34.059   2.713
29850W        W93783   2.425  35.995   3.673
29851W        W93784  40.020  30.614  12.454
29852W        W93785  22.635  20.047   3.730
29853W        W93786   2.732  19.258  11.076
29854W        W93787   3.447  37.439  14.822
29855W        W93788  23.124  25.119   2.705
29856W        W93789  17.701  36.033   0.945
29857W        W93790   0.478  39.435   1.390
29858W        W93791  39.947  39.049  13.325
29859W        W93792   8.183  14.732   1.810
29860W        W93793   1.857  13.243  10.037
29861W        W93794   1.328  30.657  11.057
29862W        W93795  24.703  26.578   1.360
29863W        W93796  17.192   8.382   3.242
29864W        W93797   7.395   8.383   3.675
29865W        W93798  20.117  19.080   0.950
29866W        W93799  32.474   7.704  13.902
29867W        W93800  39.809  43.432  12.397
29868W        W93801   5.803  38.840  12.939
29869W        W93802   2.800  30.033  10.908
29870W        W93803  30.536  37.438   2.854
29871W        W93804   9.254   7.886   3.191
29872W        W93805   9.257  39.543  14.960
29873W        W93806  16.085  35.506  11.053
29874W        W93807  34.387   9.155  11.106
29875W        W93808  37.856  32.042  11.514
29876W        W93809  42.335   1.284  12.081
29877W        W93810   3.878   1.886  13.991
29878W        W93811  19.762  36.080   2.811
29879W        W93812   2.891   7.337   1.876
29880W        W93813  44.381  19.209   3.366
29881W        W93814  12.123   4.425  13.434
29882W        W93815   9.651  27.023  11.920
29883W        W93816  40.483  24.228   3.716
29884W        W93817  21.522  13.820   4.769
29885W        W93818  17.071  41.793   3.809
29886W        W93819  28.478  32.397  12.068
29887W        W93820   7.829   3.254  13.534
29888W        W93821  21.702  24.519   2.281
29889W        W93822  43.005   8.369  10.537
29890W        W93823  23.177  20.035   4.214
29891W        W93824  23.652  35.892  14.867
29892W        W93825  28.605  11.368  11.056
29893W        W93826  19.239  42.374   1.369
29894W        W93827  10.834  22.543   0.385
29895W        W93828  22.652  23.648   5.111
29896W        W93829   8.317  36.863  14.783
29897W        W93830   1.278  16.082  14.966
29898W        W93831  10.792  33.550  12.860
29899W        W93832  39.990   2.260   4.351
29900W        W93833  35.890  17.606  12.487
29901W        W93834  18.153  22.700   3.849
29902W        W93835   4.341  24.103   2.680
29903W        W93836  10.276  41.467   2.194
29904W        W93837  10.700  24.068  11.481
29905W        W93838  21.224   0.361  14.959
29906W        W93839  30.911  38.940  13.355
29907W        W93840  25.533  24.639   0.879
29908W        W93841  24.716  27.000  11.499
29909W        W93842   3.834  15.794  13.952
29910W        W93843  31.521  44.385  13.330
29911W        W93844  32.120  41.524  11.553
29912W        W93845  43.941  38.831  13.796
29913W        W93846  36.853  21.162   2.766
29914W        W93847  44.314  16.220   3.356
29915W        W93848  44.454  29.440  13.909
29916W        W93849  43.314  22.246   1.694
29917W        W93850   5.932  27.034  14.876
29918W        W93851  10.239  44.281  10.894
29919W        W93852  21.549  28.991   4.790
29920W        W93853  36.026  40.021  13.921
29921W        W93854  16.689  12.763   1.309
29922W        W93855  23.219  14.736  12.463
29923W        W93856  43.894  25.696  13.456
29924W        W93857   4.766  44.933   3.307
29925W        W93858   9.824  25.161  13.461
29926W        W93859   3.869  18.763   1.727
29927W        W93860   8.873  40.524  11.595
29928W        W93861   5.771  13.667   0.746
29929W        W93862   1.910   7.779  11.125
29930W        W93863  26.627  15.694  14.331
29931W        W93864  12.149  18.272   1.878
29932W        W93865  24.181  36.846  12.051
29933W        W93866   3.237  18.549  14.913
29934W        W93867  31.510   5.896   4.220
29935W        W93868  23.160  39.383   1.404
29936W        W93869  35.481  37.076   4.684
29937W        W93870  44.436  32.578   3.261
29938W        W93871  41.322  23.549  14.964
29939W        W93872  39.823  15.171  14.363
29940W        W93873  19.251  36.005  12.419
29941W        W93874   4.774  15.577  14.920
29942W        W93875   6.341  35.049   0.248
29943W        W93876  11.774  31.644  13.979
29944W        W93877   2.828   3.454   4.606
29945W        W93878  25.081  34.113   4.773
29946W        W93879  28.517  11.142  13.391
29947W        W93880   0.413  21.066  10.590
29948W        W93881  13.833  22.104  13.026
29949W        W93882  23.231  32.037   3.172
29950W        W93883  34.111  18.762  12.579
29951W        W93884  24.631  33.884  13.466
29952W        W93885  22.587  42.385  12.949
29953W        W93886  44.435   8.824  13.887
29954W        W93887  26.959  24.148  11.908
29955W        W93888   2.258  39.406   3.869
29956W        W93889  33.894  43.485  10.589
29957W        W93890  11.784  22.644  13.984
29958W        W93891  13.792  11.843  10.454
29959W        W93892  23.185  36.970   3.204
29960W        W93893  21.699  31.449  13.938
29961W        W93894  33.971  39.931   3.266
29962W        W93895  30.916   0.334  12.488
29963W        W93896   2.414  25.090   5.201
29964W        W93897  39.815  15.313   4.764
29965W        W93898   4.314   4.863   0.275
29966W        W93899  30.933  34.515  10.081
29967W        W93900  44.938  44.871  13.006
29968W        W93901   4.850  40.817   0.381
29969W        W93902  32.917  43.473  11.497
29970W        W93903  40.038  27.597   2.348
29971W        W93904   7.385  34.381   0.260
29972W        W93905  37.462  43.340   4.782
29973W        W93906  34.985  18.063   0.246
29974W        W93907  12.676  30.467   4.187
29975W        W93908  36.953  31.124  12.362
29976W        W93909  20.162  41.532   1.251
29977W        W93910  14.213  30.049   1.216
29978W        W93911  16.091  33.902   2.776
29979W        W93912  43.936   0.465  14.327
29980W        W93913   6.306  43.772   2.772
29981W        W93914   6.777  12.348  12.405
29982W        W93915  27.471  16.240   4.699
29983W        W93916   2.864  25.533   0.296
29984W        W93917  30.433  26.046   0.909
29985W        W93918   8.713  42.498  10.583
29986W        W93919  12.679  29.454  10.620
29987W        W93920  12.294  36.380  12.467
29988W        W93921  35.942  35.903  13.384
29989W        W93922  14.606  31.553   1.792
29990W        W93923  41.315  33.945   4.206
29991W        W93924  23.150  33.057  11.392
29992W        W93925  15.260  37.022   4.671
29993W        W93926  41.810  24.994   1.838
29994W        W93927  43.859  31.950   1.782
29995W        W93928  31.523   8.192  12.574
29996W        W93929  29.023  11.169   4.737
29997W        W93930  44.259  40.335   1.427
29998W        W93931  24.188  40.951   3.667
29999W        W93932  37.882  13.765   4.690
30000W        W93933  31.993  15.609  14.762
30001W        W93934  24.626  35.535   0.407
30002W        W93935  43.829  15.233   0.320
30003W        W93936  16.733  14.273  11.118
30004W        W93937  22.547  42.849  10.592
30005W        W93938  37.065  31.481   2.863
30006W        W93939  22.679  24.691  11.922
30007W        W93940  32.942  38.422  10.924
30008W        W93941  40.924  15.636   3.364
30009W        W93942  39.064  44.789  12.978
30010W        W93943  32.010   3.317   0.251
30011W        W93944  38.884   4.769   0.329
30012W        W93945  17.718   8.754  11.570
30013W        W93946   3.302   7.793  14.862
30014W        W93947  15.259  34.114   1.314
30015W        W93948   1.863  24.006   4.632
30016W        W93949  13.252  20.626   4.697
30017W        W93950  14.217   1.762   1.850
30018W        W93951  11.682  42.428   4.129
30019W        W93952  18.128  14.657   3.680
30020W        W93953  33.099   4.243  13.390
30021W        W93954  23.105  20.765   1.743
30022W        W93955   5.732   8.208  14.322
30023W        W93956  14.683  29.479  10.130
30024W        W93957  22.626  42.486   3.353
30025W        W93958  28.537  40.010  12.855
30026W        W93959  19.067  42.882  11.447
30027W        W93960  17.075  25.650   0.758
30028W        W93961  23.230  27.123   4.145
30029W        W93962   3.444  41.489  14.982
30030W        W93963  24.008  30.586  14.345
30031W        W93964  33.044  14.168  11.004
30032W        W93965   6.294  36.919   4.334
30033W        W93966  37.576   3.753  14.400
30034W        W93967  22.142   8.226   3.809
30035W        W93968  34.109  40.953  14.791
30036W        W93969   8.335  22.227  13.903
30037W        W93970   2.906  16.798   1.428
30038W        W93971  16.656  31.530  11.590
30039W        W93972  23.711  24.551   4.599
30040W        W93973  15.279  28.644  14.942
30041W        W93974   0.987   4.780   2.328
30042W        W93975  31.571  16.257   1.716
30043W        W93976  30.110   0.928  14.502
30044W        W93977   5.743  23.194   3.293
30045W        W93978  32.978  11.253  12.415
30046W        W93979  36.519  34.603  12.368
30047W        W93980  23.648  40.543  14.373
30048W        W93981   2.411  30.427  11.472
30049W        W93982   6.266  12.241   2.406
30050W        W93983  27.534  13.657   3.716
30051W        W93984  28.986   6.417   1.723
30052W        W93985   3.308  25.558   0.431
30053W        W93986   1.733  26.116   2.269
30054W        W93987  23.067  28.521   4.740
30055W        W93988  14.669  44.935  13.488
30056W        W93989   2.910  16.243   4.239
30057W        W93990  22.596   6.370  13.420
30058W        W93991  33.428   9.712  11.058
30059W        W93992  42.454  18.286   2.732
30060W        W93993  24.175   3.824   4.134
30061W        W93994  35.536  39.533   0.862
30062W        W93995  40.949  33.526   1.701
30063W        W93996  18.599   3.855   2.801
30064W        W93997   4.381   0.761  11.102
30065W        W93998  12.241  29.952   2.390
30066W        W93999   6.308  23.129   3.697
30067W        W94000  22.238  24.607   4.291
30068W        W94001  29.147  44.449  10.004
30069W        W94002   2.807  14.732   0.454
30070W        W94003   4.707   4.226  10.925
30071W        W94004  27.518   4.719   0.763
30072W        W94005   2.466  25.606  10.439
30073W        W94006  36.463  11.630  10.472
30074W        W94007  34.465  42.982  12.348
30075W        W94008  13.325  26.968  12.375
30076W        W94009  28.494  16.276   4.717
30077W        W94010  44.305   5.687  10.906
30078W        W94011  26.635   5.832   1.314
30079W        W94012   7.665  31.030   3.688
30080W        W94013  15.774  34.428   0.365
30081W        W94014   0.751   8.890   1.385
30082W        W94015  35.362  37.469  13.838
30083W        W94016  35.491  32.531  11.592
30084W        W94017  15.273  40.437   3.347
30085W        W94018  18.181  29.634   2.846
30086W        W94019   7.821  37.360   4.185
30087W        W94020  23.223  40.945   1.244
30088W        W94021  16.078   1.855   0.832
30089W        W94022  14.323  29.620   2.704
30090W        W94023   4.778  28.157  14.840
30091W        W94024  29.634  15.824  10.015
30092W        W94025  44.499   7.833   3.359
30093W        W94026  34.068   3.889   4.665
30094W        W94027  44.341  33.597   0.261
30095W        W94028   6.882  35.579   2.744
30096W        W94029   2.362  27.512  11.612
30097W        W94030  44.811  42.951   4.115
30098W        W94031  33.440  41.995   0.368
30099W        W94032  39.350   4.347  11.997
30100W        W94033  25.541   2.323  11.066
30101W        W94034  22.661  33.420  10.998
30102W        W94035  41.836  24.658   1.695
30103W        W94036   9.230  39.015  12.342
30104W        W94037   1.308  13.811  10.135
30105W        W94038  30.134  10.645  13.422
30106W        W94039  26.018  38.518   2.212
30107W        W94040   8.254   9.742   1.889
30108W        W94041  32.540  31.479   3.759
30109W        W94042   2.773  43.955   3.703
30110W        W94043   5.245   6.816   4.342
30111W        W94044  26.131   3.369  13.509
30112W        W94045  34.909  15.665  12.917
30113W        W94046   7.676  38.907   1.849
30114W        W94047   1.430  18.191  10.590
30115W        W94048   4.861  32.974  13.876
30116W        W94049  33.511   2.406  12.428
30117W        W94050  39.511  21.613   2.387
30118W        W94051  26.666  24.144  13.041
30119W        W94052  31.594  11.291   3.238
30120W        W94053  35.102   9.822  13.887
30121W        W94054  20.703  16.175  11.043
30122W        W94055  13.832  29.588  13.427
30123W        W94056  31.469  36.387  10.889
30124W        W94057   2.889  17.576   3.225
30125W        W94058  32.099   2.885  13.465
30126W        W94059   9.350  44.771  12.395
30127W        W94060   8.159  16.604   2.192
30128W        W94061   4.246   5.760  14.801
30129W        W94062  36.863  43.337  13.317
30130W        W94063  23.086  42.942   1.362
30131W        W94064  29.533  37.987  10.929
30132W        W94065  27.472   9.381   2.744
30133W        W94066   9.256  41.999   4.719
30134W        W94067   2.430  39.524  11.599
30135W        W94068   7.807  31.637  14.405
30136W        W94069  33.554  17.204  13.017
30137W        W94070  35.936   8.351  12.399
30138W        W94071  19.157  28.076  13.355
30139W        W94072   9.719  42.804   1.875
30140W        W94073   4.323   1.324   4.139
30141W        W94074   8.249  16.182  14.509
30142W        W94075   9.339   3.316   2.414
30143W        W94076  38.022  38.010  13.357
30144W        W94077  19.752   5.323   2.393
30145W        W94078  40.049  37.438  10.641
30146W        W94079  34.922  28.460  14.810
30147W        W94080  29.483  39.808   3.258
30148W        W94081  27.087   6.902  11.516
30149W        W94082   5.771  26.047   1.908
30150W        W94083  35.048  43.777  10.545
30151W        W94084  16.185  19.260  13.312
30152W        W94085   0.911  17.212   2.844
30153W        W94086  20.140  18.182   3.771
30154W        W94087  37.458   2.244  10.425
30155W        W94088  19.765  25.058  10.092
30156W        W94089   1.427   0.746  11.472
30157W        W94090  33.039   6.923   4.188
30158W        W94091  41.470  33.412   2.378
30159W        W94092  16.106  15.267   0.767
30160W        W94093  38.337  15.244  12.569
30161W        W94094   3.805  16.126   9.499
30162W        W94095  40.503   9.213  11.872
30163W        W94096   7.805  24.596  14.465
30164W        W94097  30.588   3.432  11.400
30165W        W94098  24.065  14.205  14.488
30166W        W94099  30.004  41.970   1.904
30167W        W94100  40.913  33.437  13.877
30168W        W94101  14.162  23.994   2.218
30169W        W94102  20.707  34.549   3.214
30170W        W94103  15.220  17.688  14.965
30171W        W94104  41.904  39.514  10.617
30172W        W94105  13.229   2.793   1.739
30173W        W94106  12.849  12.237  12.893
30174W        W94107  16.149   9.345   3.680
30175W        W94108  38.039  28.600  12.083
30176W        W94109   7.802   5.820  14.388
30177W        W94110  43.781  23.616   4.693
30178W        W94111  36.891  36.475   0.394
30179W        W94112   8.765  11.797  11.450
30180W        W94113  23.723  30.032   4.831
30181W        W94114   5.237  12.710  13.455
30182W        W94115  29.442  38.481  11.377
30183W        W94116  22.568  41.381   4.285
30184W        W94117  19.610  11.131   0.327
30185W        W94118  14.628   9.837  12.934
30186W        W94119   6.232  36.852   0.932
30187W        W94120  27.514   2.733  14.388
30188W        W94121  39.963  18.604  10.454
30189W        W94122   6.373  20.100   3.374
30190W        W94123  13.638  20.072  11.468
30191W        W94124   8.683  12.695  12.955
30192W        W94125  29.655  11.322  13.476
30193W        W94126  34.370  28.555   1.714
30194W        W94127  41.502  34.481  10.938
30195W        W94128  40.842  19.127  14.835
30196W        W94129   7.360   0.324  10.617
30197W        W94130  36.004   3.273   1.413
30198W        W94131  33.520  15.187  12.543
30199W        W94132  33.431  10.776  12.860
30200W        W94133  22.038  44.936   0.763
30201W        W94134   1.946   0.408   3.764
30202W        W94135  23.203   2.324   1.336
30203W        W94136  42.300  39.524  10.494
30204W        W94137  17.196  28.494   2.772
30205W        W94138  37.431  27.183  11.417
30206W        W94139  42.336  21.733  10.418
30207W        W94140  35.566  12.164   2.769
30208W        W94141   8.209  15.617  14.446
30209W        W94142  19.767  16.167  12.424
30210W        W94143  27.577  17.586  11.004
30211W        W94144  15.781  38.462   3.737
30212W        W94145  24.992  37.411   2.666
30213W        W94146  21.189   4.386  13.463
30214W        W94147   2.417  40.054  12.009
30215W        W94148  37.866  41.905  13.989
30216W        W94149  17.222   3.427  13.357
30217W        W94150  30.109  37.495   0.848
30218W        W94151  35.583  14.727  12.892
30219W        W94152   4.912  22.203   2.760
30220W        W94153   0.384  27.623   2.685
30221W        W94154   8.389  42.901  12.909
30222W        W94155  44.818  28.057   2.694
30223W        W94156  42.831  26.552   2.404
30224W        W94157  31.475   7.682  13.822
30225W        W94158  20.186  38.825  12.345
30226W        W94159  11.730  34.024   1.239
30227W        W94160   9.259  27.045   2.797
30228W        W94161  11.216  18.248   2.833
30229W        W94162  41.415  17.234  14.502
30230W        W94163   9.742  24.565   4.730
30231W        W94164  23.010   7.689   4.720
30232W        W94165  40.842   8.687   1.803
30233W        W94166  30.458   4.785   2.693
30234W        W94167  24.691  36.945  12.013
30235W        W94168   9.364  21.064   3.305
30236W        W94169   9.694  13.706   2.678
30237W        W94170  43.859  34.384  14.978
30238W        W94171  42.470   3.389  13.970
30239W        W94172  33.605  19.221   0.356
30240W        W94173   6.840  26.186   3.857
30241W        W94174  28.550  31.064   3.334
30242W        W94175   1.407   8.242  11.597
30243W        W94176   9.736   3.379  12.927
30244W        W94177   9.242  39.929   4.117
30245W        W94178  31.909  21.729  11.089
30246W        W94179  22.149   6.915   0.356
30247W        W94180   2.788  27.623   2.363
30248W        W94181   5.437  33.389  10.574
30249W        W94182  23.542  21.018  13.920
30250W        W94183  30.129  17.200  11.527
30251W        W94184  44.869  44.805   2.742
30252W        W94185  39.917  26.614   2.252
30253W        W94186  27.594  27.573   3.306
30254W        W94187  32.015   7.225  10.955
30255W        W94188  39.857  12.205   0.372
30256W        W94189  14.814   3.785  10.937
30257W        W94190  39.474  30.966   4.737
30258W        W94191  14.601  42.827  12.848
30259W        W94192  17.150  36.559   3.728
30260W        W94193  39.022  36.472   0.776
30261W        W94194  14.268  13.791   2.373
30262W        W94195   2.405  44.857   1.916
30263W        W94196   5.200  10.297   3.802
30264W        W94197  17.274   6.753   0.460
30265W        W94198  16.669  44.469  13.434
30266W        W94199  39.486  40.306  13.010
30267W        W94200  23.631  44.415  10.591
30268W        W94201   6.703   3.941   0.731
30269W        W94202  26.126  25.090  10.928
30270W        W94203  19.585   7.178  13.907
30271W        W94204   9.272  33.485  10.921
30272W        W94205  28.937  30.916   2.324
30273W        W94206  14.603  35.517  11.497
30274W        W94207  11.635  33.510  11.929
30275W        W94208  38.059   9.839   0.415
30276W        W94209  39.405  14.777   0.288
30277W        W94210   5.292  15.135   5.224
30278W        W94211   8.213  24.577   2.803
30279W        W94212  18.279  16.118   1.920
30280W        W94213  24.534  16.700   1.354
30281W        W94214  43.286  36.937  13.451
30282W        W94215  37.473  25.081  13.814
30283W        W94216   1.928  35.946   1.752
30284W        W94217  25.068  22.667  14.425
30285W        W94218  37.064  30.641   1.282
30286W        W94219   4.429  34.601  11.391
30287W        W94220  14.159   5.365  10.047
30288W        W94221  19.604  20.064  10.643
30289W        W94222   7.326  33.447  11.966
30290W        W94223   7.766  40.546  13.451
30291W        W94224   0.902  18.588   2.381
30292W        W94225  34.520  31.974   2.826
30293W        W94226  12.214  40.442  14.788
30294W        W94227  38.971   4.442   3.797
30295W        W94228  39.983   7.862  14.990
30296W        W94229  32.509  17.618  11.966
30297W        W94230  36.484   2.745   4.778
30298W        W94231   4.718  18.602   1.310
30299W        W94232  43.419  16.694   3.156
30300W        W94233   8.283  15.254  14.327
30301W        W94234  24.030  20.268   4.210
30302W        W94235  20.570  15.632   1.253
30303W        W94236  15.086  42.893   2.278
30304W        W94237  44.265  34.983  14.276
30305W        W94238   7.765  33.523  11.406
30306W        W94239  10.764  30.032   2.265
30307W        W94240  32.529   7.414  11.384
30308W        W94241  10.254  36.961  10.577
30309W        W94242   8.382  33.489   4.786
30310W        W94243  36.072  10.295   0.961
30311W        W94244  32.141  44.868  12.399
30312W        W94245  40.323  36.559   1.927
30313W        W94246  27.691  29.151  11.460
30314W        W94247  16.579  23.036   0.819
30315W        W94248  25.166  17.184  14.396
30316W        W94249   7.174  39.415   4.189
30317W        W94250   6.338   0.294   4.301
30318W        W94251  42.297  26.528  13.529
30319W        W94252  33.111  33.598   0.459
30320W        W94253   4.396  37.928  11.937
30321W        W94254  21.152  33.484   0.825
30322W        W94255  18.591  32.055   0.404
30323W        W94256  14.761  31.448   3.666
30324W        W94257  15.588  10.847  13.989
30325W        W94258  36.994  16.676   3.384
30326W        W94259  21.656  34.949   2.808
30327W        W94260  38.496  16.107  11.472
30328W        W94261  19.552  40.419  12.971
30329W        W94262   9.354  24.089   0.771
30330W        W94263  41.998  14.156  10.989
30331W        W94264  10.184  31.408  13.512
30332W        W94265   5.716  29.461   0.947
30333W        W94266  23.536  27.460   0.919
30334W        W94267  22.747  30.525   0.899
30335W        W94268  27.026  28.465   0.456
30336W        W94269   7.758  38.499  11.878
30337W        W94270  33.988  23.663  14.827
30338W        W94271  41.426  25.484  14.004
30339W        W94272  24.017  32.463   0.826
30340W        W94273  22.665  20.202   0.483
30341W        W94274  29.086  15.781  13.870
30342W        W94275  25.640  31.128   1.858
30343W        W94276  43.386  36.571   3.209
30344W        W94277  43.421  13.163  10.141
30345W        W94278  22.144   7.729  10.988
30346W        W94279  21.128  15.302   2.238
30347W        W94280  37.978  32.554   1.873
30348W        W94281   6.889  31.464   4.630
30349W        W94282  36.404  43.286   0.949
30350W        W94283   3.221  22.140   4.350
30351W        W94284   1.467  31.928  10.090
30352W        W94285  34.992   2.312   4.235
30353W        W94286   5.767  41.905  12.844
30354W        W94287  31.530  19.678  11.120
30355W        W94288   4.701  16.704  11.457
30356W        W94289  43.957   8.696   1.830
30357W        W94290   2.335  16.115  13.036
30358W        W94291  20.224   6.710   1.277
30359W        W94292  36.904   7.225  12.397
30360W        W94293  18.683  29.665  10.429
30361W        W94294   6.847  16.307  11.928
30362W        W94295   8.172   7.790   0.755
30363W        W94296  13.720  22.625   4.146
30364W        W94297  20.552  22.704   4.630
30365W        W94298  15.168   1.483   0.832
30366W        W94299  42.414  35.954  12.847
30367W        W94300  29.114  17.672  10.442
30368W        W94301  39.884  13.745   3.373
30369W        W94302  25.588  28.495   1.231
30370W        W94303   4.735  36.555  13.871
30371W        W94304  28.651   5.802  12.074
30372W        W94305   9.245   5.399   3.172
30373W        W94306  22.228   8.266   1.916
30374W        W94307   3.907  33.054  11.087
30375W        W94308   9.332  18.682   4.266
30376W        W94309  16.771  39.975   4.293
30377W        W94310  40.899   0.932   4.196
30378W        W94311  12.796  35.495   2.686
30379W        W94312   7.362  21.106  10.594
30380W        W94313  13.255  41.476  14.856
30381W        W94314  11.299  41.393   4.193
30382W        W94315  42.905  19.274  13.030
30383W        W94316   2.356  42.470  11.539
30384W        W94317  24.722  25.500   2.772
30385W        W94318   9.292  11.297  12.063
30386W        W94319  32.561  39.823   1.372
30387W        W94320   1.820  27.573  13.425
30388W        W94321  29.534  41.354   2.707
30389W        W94322  14.290  19.655  13.326
30390W        W94323  29.981  39.370  14.934
30391W        W94324  26.162  33.951   1.401
30392W        W94325  11.283  25.647   2.836
30393W        W94326  10.194   8.351  11.876
30394W        W94327  34.560  14.830   4.175
30395W        W94328   2.341  29.526   4.188
30396W        W94329  43.504  13.823  14.369
30397W        W94330   9.256  10.292   3.672
30398W        W94331  26.617  22.018  11.534
30399W        W94332  44.454  43.930   0.755
30400W        W94333  20.158  40.437  10.514
30401W        W94334  12.622  15.271   2.358
30402W        W94335  21.537   0.462  14.374
30403W        W94336  18.285  21.694  13.380
30404W        W94337   5.206  13.252   0.253
30405W        W94338  36.466  41.294  12.853
30406W        W94339  13.127   8.406  14.491
30407W        W94340   6.252  33.405  12.917
30408W        W94341  26.162  40.420   1.874
30409W        W94342  15.673  24.210  13.987
30410W        W94343  29.649  35.908   0.884
30411W        W94344  33.049   2.464  10.537
30412W        W94345  34.577  17.230  10.618
30413W        W94346  26.962   6.788  10.994
30414W        W94347  43.810  13.133   1.268
30415W        W94348   4.727  23.115   1.218
30416W        W94349  10.165  41.397  10.569
30417W        W94350   0.860  19.129   1.823
30418W        W94351  28.575  25.684  11.422
30419W        W94352  38.043  28.125  13.475
30420W        W94353  27.555   1.841   0.889
30421W        W94354  26.632  11.799  14.973
30422W        W94355  28.044  20.052  14.972
30423W        W94356  33.881   3.822   3.632
30424W        W94357  13.221   2.297  11.911
30425W        W94358  27.659  36.571  13.794
30426W        W94359  34.515  27.605  14.357
30427W        W94360  19.590  12.334  11.906
30428W        W94361  25.627   7.183   3.645
30429W        W94362  40.917  20.608   2.676
30430W        W94363  43.507  14.331   1.730
30431W        W94364  17.093  20.654  11.033
30432W        W94365  22.710  16.262   0.750
30433W        W94366   5.752  14.786  12.526
30434W        W94367  43.874  17.265   4.232
30435W        W94368   2.387   2.363   4.245
30436W        W94369   1.851  27.087   0.815
30437W        W94370  12.846  39.901   2.299
30438W        W94371  22.159   7.247  11.986
30439W        W94372  26.556  44.951   4.238
30440W        W94373  17.114  14.137  11.589
30441W        W94374  14.317   4.825   4.233
30442W        W94375  37.416  18.619   0.779
30443W        W94376  21.101  39.055  12.459
30444W        W94377  38.522  17.563   4.785
30445W        W94378   4.743   7.325   2.333
30446W        W94379  22.080   5.308   1.901
30447W        W94380   8.741  43.915  13.366
30448W        W94381  25.600  30.550   1.703
30449W        W94382  32.116   4.739   4.822
30450W        W94383   5.798   0.316   3.690
30451W        W94384  32.559  38.974  13.361
30452W        W94385  36.575  16.299   3.721
30453W        W94386  38.883  26.596   3.793
30454W        W94387  20.630   2.267  14.783
30455W        W94388  13.641  38.999   4.340
30456W        W94389  28.971  40.451   0.293
30457W        W94390  16.584  26.575  14.851
30458W        W94391  39.536  26.071   0.754
30459W        W94392  25.162   8.830  11.881
30460W        W94393   0.884  25.994   0.842
30461W        W94394  37.553   9.789   0.475
30462W        W94395  28.655  12.716  10.471
30463W        W94396  41.446  30.013   4.605
30464W        W94397  40.993   0.947  10.449
30465W        W94398   2.461   0.954   3.232
30466W        W94399  20.089  12.617  14.469
30467W        W94400  37.911  33.584  13.936
30468W        W94401  18.132  23.568   3.751
30469W        W94402  17.159  25.171  11.470
30470W        W94403  27.614  37.451   3.762
30471W        W94404  35.986  39.349   2.824
30472W        W94405  29.102  34.485   0.298
30473W        W94406  28.458   3.346  13.829
30474W        W94407  21.534  13.347   0.404
30475W        W94408   4.810  20.666  14.514
30476W        W94409  13.214   3.896  11.881
30477W        W94410  18.557   3.804   0.442
30478W        W94411  44.457  24.653   0.841
30479W        W94412   8.238   2.466  10.117
30480W        W94413  16.132  40.823   3.151
30481W        W94414  16.157  10.747  14.988
30482W        W94415  40.017  16.149   4.632
30483W        W94416  12.688  17.167   2.181
30484W        W94417  25.121   2.441   2.344
30485W        W94418  17.113  19.230   4.832
30486W        W94419   9.677  26.558  10.016
30487W        W94420  37.369  19.682  14.846
30488W        W94421  15.168   6.262   0.317
30489W        W94422  30.511  19.137   0.358
30490W        W94423  15.612   3.783   3.339
30491W        W94424  28.496  28.478  10.618
30492W        W94425   7.179  35.859  13.358
30493W        W94426  42.337  41.965  14.276
30494W        W94427   1.483  27.585  12.889
30495W        W94428  34.600  29.473   3.687
30496W        W94429  21.118  30.926   3.829
30497W        W94430  21.145  22.022   3.789
30498W        W94431  30.158   3.343  10.000
30499W        W94432  38.044   4.216  11.608
30500W        W94433  44.502  39.923   0.269
30501W        W94434  24.004  15.326   0.346
30502W        W94435  35.598  43.957   3.190
30503W        W94436  20.130  10.276  13.859
30504W        W94437  43.498   9.888   4.275
30505W        W94438  31.522  41.493  12.837
30506W        W94439   8.296  37.373   0.410
30507W        W94440   2.927  23.049  12.425
30508W        W94441   6.335  43.906  11.982
30509W        W94442   0.871   6.308   4.136
30510W        W94443  42.362  30.437   4.641
30511W        W94444   0.872  23.732  12.455
30512W        W94445   2.289  30.530  10.091
30513W        W94446  38.523   3.819   0.426
30514W        W94447  35.398   2.327   1.424
30515W        W94448   4.732  16.099   2.319
30516W        W94449  26.645  33.401   4.175
30517W        W94450  43.923  29.478   0.855
30518W        W94451  12.316   6.280  14.291
30519W        W94452  40.016  37.009   2.902
30520W        W94453  29.061  39.035   0.866
30521W        W94454   5.311  33.417  14.342
30522W        W94455  43.017  11.703  14.346
30523W        W94456  37.561  20.721  11.532
30524W        W94457  20.232  15.683  11.012
30525W        W94458  25.594  32.941  12.429
30526W        W94459  18.155  18.225   2.898
30527W        W94460  16.136   8.166  11.010
30528W        W94461   1.880  23.731   1.928
30529W        W94462  39.345  37.515  13.893
30530W        W94463   2.939  43.392   3.236
30531W        W94464  14.134  30.468   4.224
30532W        W94465  28.972  37.403   3.656
30533W        W94466  33.929  26.673   4.635
30534W        W94467  20.695  16.716  11.531
30535W        W94468   4.943  19.565  14.894
30536W        W94469  41.003  33.492  14.818
30537W        W94470  11.769   1.315  13.009
30538W        W94471  37.906  40.859  11.125
30539W        W94472  11.205  28.992  11.889
30540W        W94473  43.403  36.390  12.465
30541W        W94474   1.265  39.323   2.282
30542W        W94475  14.286   5.423   1.917
30543W        W94476  28.113   7.705   1.763
30544W        W94477  18.216  42.973  13.916
30545W        W94478  37.003  33.022   3.737
30546W        W94479  15.729  33.452   1.761
30547W        W94480   1.921  35.013   2.194
30548W        W94481  43.357  18.676   3.867
30549W        W94482  10.790  10.877  10.936
30550W        W94483  34.034  22.238  12.548
30551W        W94484  44.882   7.266  11.886
30552W        W94485  28.641  13.222  14.432
30553W        W94486  20.729  30.598   3.708
30554W        W94487   0.361  20.676  11.075
30555W        W94488  10.845  11.204  13.534
30556W        W94489  44.766  23.653  13.829
30557W        W94490  30.929  13.784   2.732
30558W        W94491  39.909  15.181   0.873
30559W        W94492   5.696  32.434  14.905
30560W        W94493  41.456  38.336  13.912
30561W        W94494  33.967   1.873   2.199
30562W        W94495  16.627  20.088  11.439
30563W        W94496  34.539  18.202  10.517
30564W        W94497   2.934  29.439  14.021
30565W        W94498  30.118  19.187  11.402
30566W        W94499   5.904  29.646   1.402
30567W        W94500  28.511  38.069   2.711
30568W        W94501  40.024  13.704  14.504
30569W        W94502   7.184   8.864  14.276
30570W        W94503  19.284   5.693  10.954
30571W        W94504  36.519  42.954   4.338
30572W        W94505   0.331  24.189  14.793
30573W        W94506  16.609  14.804  13.870
30574W        W94507   1.377  20.664  12.526
30575W        W94508  29.651  33.063  10.570
30576W        W94509   7.808  21.560   1.391
30577W        W94510  44.315  36.893  12.500
30578W        W94511   7.410  38.892   3.307
30579W        W94512  10.315   8.223  10.065
30580W        W94513  39.024   4.269  11.401
30581W        W94514  30.560  13.664   3.667
30582W        W94515  20.103  30.945   4.813
30583W        W94516  25.117  20.523   3.866
30584W        W94517  31.466   0.361   3.636
30585W        W94518  18.220  28.543  10.631
30586W        W94519  12.272  12.724   0.481
30587W        W94520   2.851   2.903   1.254
30588W        W94521  25.059  18.162  12.049
30589W        W94522  32.996  41.828   3.204
30590W        W94523  38.909  11.690   0.754
30591W        W94524  11.158   6.741  14.955
30592W        W94525  39.505  15.150  13.515
30593W        W94526  11.677  11.833  14.847
30594W        W94527  19.062   3.382   2.762
30595W        W94528   0.325  36.905   1.369
30596W        W94529  35.492  41.902  10.585
30597W        W94530  44.386   6.290  10.477
30598W        W94531  37.528   0.793   0.454
30599W        W94532  18.199  20.177   0.277
30600W        W94533  10.320  12.284   4.819
30601W        W94534  13.637  32.461  14.995
30602W        W94535  18.788  12.650   3.782
30603W        W94536  35.435  37.896  14.880
30604W        W94537  39.961  28.660  13.540
30605W        W94538  19.267  28.167  13.831
30606W        W94539  16.114  12.852  11.546
30607W        W94540  28.603  33.603   3.381
30608W        W94541  31.146  23.134   2.251
30609W        W94542  18.721  30.994   3.178
30610W        W94543  28.632   0.960  10.450
30611W        W94544  11.818  40.865  14.409
30612W        W94545  15.791  27.026   1.894
30613W        W94546   8.269  35.392   0.341
30614W        W94547  24.690  44.998   0.819
30615W        W94548  38.534  27.968  12.447
30616W        W94549  42.416  42.818  12.955
30617W        W94550  12.732  18.552  11.450
30618W        W94551   2.827  26.538   1.246
30619W        W94552  37.010   4.871   3.362
30620W        W94553  31.120  14.277  10.593
30621W        W94554   0.331  22.159  14.477
30622W        W94555  38.824  12.175  14.966
30623W        W94556  40.395  18.274  14.911
30624W        W94557  35.054  32.546   2.274
30625W        W94558   4.911  37.919  14.399
30626W        W94559   6.307  34.388  13.831
30627W        W94560  24.566   8.222   0.841
30628W        W94561  15.661  43.378   0.950
30629W        W94562  11.661  39.848   2.392
30630W        W94563  19.730  23.067  11.499
30631W        W94564   0.356  39.481  13.880
30632W        W94565   0.277  42.782   5.091
30633W        W94566  27.631  26.972   0.823
30634W        W94567   2.273  42.518   2.799
30635W        W94568  18.742   7.398   5.266
30636W        W94569  20.146   3.451  13.316
30637W        W94570  18.737  41.941   0.765
30638W        W94571  22.519   1.866   3.658
30639W        W94572  12.171  12.726  12.381
30640W        W94573   8.395  41.340   0.452
30641W        W94574  35.086  23.575  11.547
30642W        W94575  42.872   2.354  14.890
30643W        W94576  24.498  27.686  14.015
30644W        W94577   4.735  23.160   4.152
30645W        W94578  32.409   5.849  14.297
30646W        W94579  37.906  15.322   4.190
30647W        W94580  36.876  29.152   0.461
30648W        W94581  19.265   0.963  14.497
30649W        W94582  39.894   7.753   4.704
30650W        W94583  20.614   4.838   0.792
30651W        W94584   9.789  33.529   1.438
30652W        W94585  44.934  13.602   0.398
30653W        W94586  30.620  11.176   0.290
30654W        W94587  23.032  23.608  13.978
30655W        W94588  25.996  28.521  13.529
30656W        W94589  16.662  39.398  14.433
30657W        W94590  13.706  27.486  13.539
30658W        W94591  40.803   0.368   1.869
30659W        W94592  37.497  34.894  13.885
30660W        W94593  40.908  31.938  12.871
30661W        W94594   8.706  13.297  11.436
30662W        W94595  40.017  43.355   1.254
30663W        W94596  33.498  37.401  10.474
30664W        W94597  24.006  17.629  14.922
30665W        W94598  43.324  42.389   0.890
30666W        W94599   2.280  44.834   0.413
30667W        W94600  17.107  30.123   4.599
30668W        W94601  34.974  41.515   0.332
30669W        W94602  38.450  27.032  14.006
30670W        W94603   7.791  27.154  10.102
30671W        W94604  35.419   0.980   2.344
30672W        W94605  15.762  19.583  12.377
30673W        W94606   3.394   2.951  11.475
30674W        W94607  32.060  36.570  14.822
30675W        W94608  44.854  11.337   4.302
30676W        W94609  41.322  30.553   2.257
30677W        W94610   2.725   2.854  11.981
30678W        W94611  41.512  26.037   3.195
30679W        W94612  15.283   9.181  14.008
30680W        W94613   8.706   6.214   0.347
30681W        W94614  20.753   4.281  12.493
30682W        W94615  44.383  43.360  10.458
30683W        W94616  25.143  14.753  14.398
30684W        W94617  40.879  36.952   1.867
30685W        W94618  36.406  20.166   0.289
30686W        W94619   2.350  38.558   2.867
30687W        W94620   7.826  43.859   1.833
30688W        W94621  23.050   6.793   2.225
30689W        W94622   2.264  35.483  10.526
30690W        W94623  31.626  30.641   4.737
30691W        W94624  33.877  38.049  14.318
30692W        W94625  22.684   3.808  14.945
30693W        W94626   9.294  14.699   4.749
30694W        W94627   6.850  34.044  12.354
30695W        W94628  35.901  14.662   4.736
30696W        W94629  12.296  12.274   4.715
30697W        W94630   7.740  21.725   0.253
30698W        W94631  20.654  10.727   3.290
30699W        W94632  37.835  29.026   1.404
30700W        W94633  19.704   7.902   1.852
30701W        W94634  12.651  13.203   4.303
30702W        W94635  32.605  11.132   1.434
30703W        W94636  42.409  15.633  13.935
30704W        W94637   6.694  13.189   1.270
30705W        W94638  23.656  24.120  11.478
30706W        W94639   4.943   3.717  11.988
30707W        W94640   7.298   1.450  12.551
30708W        W94641  29.130  20.083   0.453
30709W        W94642  31.094  32.450  11.090
30710W        W94643  26.117  27.119  12.869
30711W        W94644  41.981  28.506  14.365
30712W        W94645   9.785  39.015  14.961
30713W        W94646   1.784  17.121  12.531
30714W        W94647  35.054   1.863  12.564
30715W        W94648  40.459   0.368  11.609
30716W        W94649  38.491  34.395  10.410
30717W        W94650   0.919  43.929  12.982
30718W        W94651  43.957   4.799   3.249
30719W        W94652  13.701  35.601  11.591
30720W        W94653  24.622   1.818   4.271
30721W        W94654  18.054  32.118   3.729
30722W        W94655   7.291  33.043   0.408
30723W        W94656   7.295  36.383  13.430
30724W        W94657   2.241  25.652   4.630
30725W        W94658  37.087  31.999   2.258
30726W        W94659   4.898  15.815   9.592
30727W        W94660  29.457  32.065   5.168
30728W        W94661  22.038  17.578  14.508
30729W        W94662  42.894  26.012   4.690
30730W        W94663  22.999  15.106   3.724
30731W        W94664  17.775  42.866   3.767
30732W        W94665  41.900   9.793   1.820
30733W        W94666   2.785  41.472   3.869
30734W        W94667   7.700  42.431  11.864
30735W        W94668  37.402  30.583  14.941
30736W        W94669  44.292  31.054  12.984
30737W        W94670  26.037  13.331   3.220
30738W        W94671  21.036  22.536  11.955
30739W        W94672  39.866  26.672   2.686
30740W        W94673  44.387   0.971   0.899
30741W        W94674  38.917  15.311   5.137
30742W        W94675  40.966  28.029   3.820
30743W        W94676   1.744  17.675  12.473
30744W        W94677  19.756   9.245   2.231
30745W        W94678   1.385  44.870   3.159
30746W        W94679   9.389  44.971   0.326
30747W        W94680   6.344  19.285   1.271
30748W        W94681  39.444  21.543   4.172
30749W        W94682  24.626   9.167   3.806
30750W        W94683  33.434   8.682   1.756
30751W        W94684  15.269  18.552  12.999
30752W        W94685  37.336   2.458   2.773
30753W        W94686  27.580  42.800  12.877
30754W        W94687  37.028  23.544   0.250
30755W        W94688  13.719   2.891   2.682
30756W        W94689   7.324   4.365  11.964
30757W        W94690  34.487   2.386   4.203
30758W        W94691  31.518  21.197  11.464
30759W        W94692  44.811  32.391  14.812
30760W        W94693   6.797  36.504  10.899
30761W        W94694  10.233   2.735  12.043
30762W        W94695  32.415  21.165  13.937
30763W        W94696   2.738  12.820   1.311
30764W        W94697   9.780   2.450   3.867
30765W        W94698   6.264  31.583  11.860
30766W        W94699  44.992  35.392  13.480
30767W        W94700   9.819  14.611   2.318
30768W        W94701  33.108   7.718   0.915
30769W        W94702  41.006  39.381   9.975
30770W        W94703  10.709  33.119  14.469
30771W        W94704  15.635  18.602   1.885
30772W        W94705  33.926  40.809  12.499
30773W        W94706  26.682  25.191   0.373
30774W        W94707  28.614  38.982  13.909
30775W        W94708  38.462  38.012   2.855
30776W        W94709  26.054  28.939   1.834
30777W        W94710  33.413   5.425  10.041
30778W        W94711  38.025  42.903   5.264
30779W        W94712  39.984  21.249  14.990
30780W        W94713  25.123  15.269  12.407
30781W        W94714   2.878  37.043   4.341
30782W        W94715  27.638  31.018   2.287
30783W        W94716  43.387  18.730   1.900
30784W        W94717  44.373  43.308   1.694
30785W        W94718  40.885  23.672  11.856
30786W        W94719   8.402  18.234   4.710
30787W        W94720   1.256  14.097   3.357
30788W        W94721  39.949   8.260   4.137
30789W        W94722  43.903  28.679   4.610
30790W        W94723  20.223  40.808  10.922
30791W        W94724   2.819  19.612   3.799
30792W        W94725  13.338  27.622  12.448
30793W        W94726  12.187  19.214  14.864
30794W        W94727  12.287  35.581   4.649
30795W        W94728   8.821  32.444   3.219
30796W        W94729   0.819  41.292   9.956
30797W        W94730  43.421  27.488   0.477
30798W        W94731  41.030  42.298   3.822
30799W        W94732  30.500  40.330   3.837
30800W        W94733  39.873   3.376   2.896
30801W        W94734   1.872  14.106  11.122
30802W        W94735  36.094  21.620   0.452
30803W        W94736  43.793  44.261  11.012
30804W        W94737  42.439   2.735  11.408
30805W        W94738  24.035  41.861   2.334
30806W        W94739   4.716  25.475   2.878
30807W        W94740  23.594   2.739   1.360
30808W        W94741  16.752  26.644  11.458
30809W        W94742  24.210  28.103  12.008
30810W        W94743  19.735  12.334   4.825
30811W        W94744  43.402  17.670   2.221
30812W        W94745  35.984  39.461   0.829
30813W        W94746  30.975  28.060   4.703
30814W        W94747  16.713  32.475  14.419
30815W        W94748  37.870  26.629   3.207
30816W        W94749  40.367   9.320  13.062
30817W        W94750  28.105  40.802  13.925
30818W        W94751  39.044  35.890   0.404
30819W        W94752  32.621  14.274  13.387
30820W        W94753  40.858  43.428   3.719
30821W        W94754  20.528  18.138   2.881
30822W        W94755  28.662  37.471   4.288
30823W        W94756   0.892  44.941  12.470
30824W        W94757  27.062   9.754   1.366
30825W        W94758  35.360   2.292   0.478
30826W        W94759  38.839   5.320  11.935
30827W        W94760  37.864  16.155   2.359
30828W        W94761  37.471  24.175   2.309
30829W        W94762  11.257  33.095  12.553
30830W        W94763  41.331  37.899  14.779
30831W        W94764   7.680  16.772  12.572
30832W        W94765  30.930   2.793  14.474
30833W        W94766  33.081  12.145  10.492
30834W        W94767  19.078  29.616  10.475
30835W        W94768  38.933  35.099  11.430
30836W        W94769   1.326   4.300  14.411
30837W        W94770   6.378  23.103  10.081
30838W        W94771  28.540   0.345  14.409
30839W        W94772  37.392  40.039  12.465
30840W        W94773  12.612  20.046   2.300
30841W        W94774  41.882  32.633  11.542
30842W        W94775   8.803  11.341   1.861
30843W        W94776  44.407  43.394  13.464
30844W        W94777   2.247  43.456   4.603
30845W        W94778  16.287  22.177   4.330
30846W        W94779  11.790  37.512   3.168
30847W        W94780  41.296  44.920   0.251
30848W        W94781   0.259  17.575   4.742
30849W        W94782  23.595   4.266   3.227
30850W        W94783   5.269  43.460   4.341
30851W        W94784  13.127  30.414   4.797
30852W        W94785   4.397  32.080  12.915
30853W        W94786  15.796  26.170  12.987
30854W        W94787  18.268   0.858   4.601
30855W        W94788   2.809  13.211   2.326
30856W        W94789  36.038   0.358  10.942
30857W        W94790  18.782  14.765   0.730
30858W        W94791  37.934  14.312  11.597
30859W        W94792   8.217  19.764  13.451
30860W        W94793  33.026  16.144   1.304
30861W        W94794  16.655  30.096  13.972
30862W        W94795  26.054  25.697   3.157
30863W        W94796  31.564   1.370   4.258
30864W        W94797  25.203  23.027   3.195
30865W        W94798  12.753  37.062  14.950
30866W        W94799  15.255  40.506  13.987
30867W        W94800   0.846   2.921  14.361
30868W        W94801  13.331   0.425  13.361
30869W        W94802   4.872   3.319   1.769
30870W        W94803   7.723  24.976   1.364
30871W        W94804  21.522  39.005   1.808
30872W        W94805  25.143  39.017   1.320
30873W        W94806  14.221  14.735  11.434
30874W        W94807  16.591  12.279  13.359
30875W        W94808   2.457  11.349  12.361
30876W        W94809  39.922  44.427   0.889
30877W        W94810  40.340  10.857  13.825
30878W        W94811  28.943  10.149  12.044
30879W        W94812  16.099  42.788  13.464
30880W        W94813  41.460   8.245  13.976
30881W        W94814   7.773  32.543  11.464
30882W        W94815  14.704  37.362  12.056
30883W        W94816  38.995   3.264  11.878
30884W        W94817   0.386  44.898   1.383
30885W        W94818  13.124   4.914   2.901
30886W        W94819  14.734   1.853   1.435
30887W        W94820   5.798  43.381  14.339
30888W        W94821   6.421  36.549  13.013
30889W        W94822  39.409   4.936  13.862
30890W        W94823   8.267  16.773  12.968
30891W        W94824  20.737  35.556  12.912
30892W        W94825  32.983  20.138  11.027
30893W        W94826   6.234  43.914   1.376
30894W        W94827  29.634  32.024  11.395
30895W        W94828   8.796  14.144  12.539
30896W        W94829  24.127  35.974  12.506
30897W        W94830  23.661  17.070   0.893
30898W        W94831  18.139  42.956  10.537
30899W        W94832   8.742   9.238   3.336
30900W        W94833  20.636  38.904  11.040
30901W        W94834  32.060  27.518  13.983
30902W        W94835   9.873  10.807  12.409
30903W        W94836   2.836  24.539  13.006
30904W        W94837  25.673  39.016  12.947
30905W        W94838  32.079  39.929  14.825
30906W        W94839   1.783  21.544   4.157
30907W        W94840  29.119   9.856   4.635
30908W        W94841  24.618  24.705   2.359
30909W        W94842  44.807   5.342   1.876
30910W        W94843  23.002  19.710   0.449
30911W        W94844   9.354   4.388   3.195
30912W        W94845  26.531  42.921   3.366
30913W        W94846  15.123  19.232   0.836
30914W        W94847  11.289  36.415   4.236
30915W        W94848  15.263  41.472   4.700
30916W        W94849  24.709  19.136   0.319
30917W        W94850  11.192   8.898   2.737
30918W        W94851  22.516  28.053  13.048
30919W        W94852   1.900  12.227  13.469
30920W        W94853  32.997   8.215   2.889
30921W        W94854   8.821   0.767   4.159
30922W        W94855  41.980  20.035   4.753
30923W        W94856  18.155  35.454   4.740
30924W        W94857   7.674  44.891  10.436
30925W        W94858  12.138  17.642   0.262
30926W        W94859  22.520  28.673  14.842
30927W        W94860   8.173  20.695   3.729
30928W        W94861  38.553  43.986   3.831
30929W        W94862  43.392  34.518  14.942
30930W        W94863  38.465   5.246   1.777
30931W        W94864  23.118  12.220   1.273
30932W        W94865  24.675  42.032   2.774
30933W        W94866  44.817  44.295  14.398
30934W        W94867  22.616  13.802  14.359
30935W        W94868  19.103  28.110   5.752
30936W        W94869   2.273  30.117  10.502
30937W        W94870  28.533  24.482  11.382
30938W        W94871  42.793  34.101   3.203
30939W        W94872   9.200  27.101   9.460
30940W        W94873  22.021  23.560   1.921
30941W        W94874  29.935  13.198   0.735
30942W        W94875  18.666  36.491   4.825
30943W        W94876  42.000  15.664   4.204
30944W        W94877   6.847  32.056   4.292
30945W        W94878  19.113   1.429   4.614
30946W        W94879  29.579   8.811   2.223
30947W        W94880  30.043  21.573  11.549
30948W        W94881  40.021  44.876  11.086
30949W        W94882  36.006  12.349   0.878
30950W        W94883  27.015  29.926  11.608
30951W        W94884  40.950  36.451   1.258
30952W        W94885   7.233  38.487   4.700
30953W        W94886  13.172  14.821   3.365
30954W        W94887  23.581  13.295  10.902
30955W        W94888   8.338  11.727   3.147
30956W        W94889  34.907  16.171   4.611
30957W        W94890   4.825  36.980   4.147
30958W        W94891  22.516  27.460   3.383
30959W        W94892  30.595  37.556  13.362
30960W        W94893  38.840   3.235   2.189
30961W        W94894  20.571  36.989  13.533
30962W        W94895  13.228  42.331  12.897
30963W        W94896   9.722  21.178   4.346
30964W        W94897  22.129   0.278   0.792
30965W        W94898   8.877  29.543   4.716
30966W        W94899  18.649  19.667  12.449
30967W        W94900   2.388  25.634  12.387
30968W        W94901  18.054  23.650   4.315
30969W        W94902  39.843   3.840  10.619
30970W        W94903  19.125  40.505  12.953
30971W        W94904  16.202  36.077  10.471
30972W        W94905  12.827  35.520   4.791
30973W        W94906  24.666  35.013  12.482
30974W        W94907  12.622  44.970  14.282
30975W        W94908  28.458  14.708  13.955
30976W        W94909  29.966  36.503  14.416
30977W        W94910  18.773  29.566   3.761
30978W        W94911  36.881  37.507   0.805
30979W        W94912  36.418  37.360  11.071
30980W        W94913   3.711  24.525   1.874
30981W        W94914   4.848   7.198  12.524
30982W        W94915  16.297  33.416   1.862
30983W        W94916  32.116   1.830  13.307
30984W        W94917  21.613  10.657   5.568
30985W        W94918  12.326  19.276   1.320
30986W        W94919  28.990  18.768  11.608
30987W        W94920  12.183  41.855  13.362
30988W        W94921  31.574  29.611   0.330
30989W        W94922  21.526  11.215   3.725
30990W        W94923  29.968   5.743   2.247
30991W        W94924  12.356  26.585   1.870
30992W        W94925   0.383  14.304   0.271
30993W        W94926  41.904  14.168   5.083
30994W        W94927  23.014   3.899  11.590
30995W        W94928  12.737  24.989  13.889
30996W        W94929  26.656  24.083  11.544
30997W        W94930  42.511  16.292  14.472
30998W        W94931  16.771  14.598   4.643
30999W        W94932  35.859   8.221  11.443
31000W        W94933  31.541  40.862  13.337
31001W        W94934  17.258   0.880   1.934
31002W        W94935  27.042  13.198   0.804
31003W        W94936  44.757  43.888   2.341
31004W        W94937   1.955  18.772   3.861
31005W        W94938   4.255  19.201   4.690
31006W        W94939  31.040  24.982   1.289
31007W        W94940  28.979  44.915   3.776
31008W        W94941  13.197  36.510   4.264
31009W        W94942  32.586  42.979   4.638
31010W        W94943  26.110  17.177  12.866
31011W        W94944   9.839   4.907  13.436
31012W        W94945   2.318   6.735   1.401
31013W        W94946   5.436  39.381  13.519
31014W        W94947  31.058  24.480  13.885
31015W        W94948  12.260  15.661   4.755
31016W        W94949  13.284  32.551  11.560
31017W        W94950  33.909  42.298  11.964
31018W        W94951  12.718  25.217  12.462
31019W        W94952  42.009  43.502  13.799
31020W        W94953   7.826  31.959  12.899
31021W        W94954  37.048  37.474   0.301
31022W        W94955  13.761  11.193  12.467
31023W        W94956  30.622  28.146   2.769
31024W        W94957  28.030  40.881  13.425
31025W        W94958  11.155  19.745   0.807
31026W        W94959  44.459  42.435  14.304
31027W        W94960  32.942   1.942  14.985
31028W        W94961  16.709   3.276   4.738
31029W        W94962  41.357  25.652  11.960
31030W        W94963   3.937   7.250   3.783
31031W        W94964  43.804  31.547  12.426
31032W        W94965  14.699  35.890   1.774
31033W        W94966  23.117   2.311   0.442
31034W        W94967  33.897  27.027  11.397
31035W        W94968  10.203  16.088   0.254
31036W        W94969  42.816  30.942   4.740
31037W        W94970  13.286  29.657   1.849
31038W        W94971   5.248  12.615   3.182
31039W        W94972  40.337  30.625   5.292
31040W        W94973  35.359   2.809  10.413
31041W        W94974  18.124  29.663  11.088
31042W        W94975  42.831  15.660   2.862
31043W        W94976   2.741  13.171   3.363
31044W        W94977  20.694   6.851   4.219
31045W        W94978   2.935  31.023   2.810
31046W        W94979   0.771  30.615   4.802
31047W        W94980  33.575  33.534   5.127
31048W        W94981  16.194  20.164  14.800
31049W        W94982  23.020   4.431  14.760
31050W        W94983  37.451  38.000   1.409
31051W        W94984   8.836  31.930   4.678
31052W        W94985   1.874  27.477   4.150
31053W        W94986  26.693  15.193  10.161
31054W        W94987  38.941   7.881   0.321
31055W        W94988  31.447   2.407   3.146
31056W        W94989   8.739  26.576   1.382
31057W        W94990  18.729  23.115   0.761
31058W        W94991  12.685   5.415  13.331
31059W        W94992  21.028   3.842   2.670
31060W        W94993   9.882  29.016   3.183
31061W        W94994  44.325   0.382  14.869
31062W        W94995  22.232  29.065  12.039
31063W        W94996  20.543  10.847  12.852
31064W        W94997   6.917   8.196   3.182
31065W        W94998  18.777   8.736   0.245
31066W        W94999  16.762  39.894  11.014
31067W        W95000  29.562  16.276   2.349
31068W        W95001  16.220   5.899  14.948
31069W        W95002  21.030  33.917  13.519
31070W        W95003  16.075  21.059  12.524
31071W        W95004  10.236  14.124   5.252
31072W        W95005   8.723  35.877  12.360
31073W        W95006  36.399  25.999   4.690
31074W        W95007   5.433  13.154   4.152
31075W        W95008  25.637   2.335  12.506
31076W        W95009  34.114   7.821   4.117
31077W        W95010  32.493  26.117  11.963
31078W        W95011   8.315  30.627   0.767
31079W        W95012   3.812  43.970   3.677
31080W        W95013  15.110  34.081   4.286
31081W        W95014  11.789  36.404   2.731
31082W        W95015   4.371  24.534  11.489
31083W        W95016  40.853  19.696  11.555
31084W        W95017  44.409  36.966   1.354
31085W        W95018  17.306  41.504  10.038
31086W        W95019   0.487  22.645  13.426
31087W        W95020   4.396  16.706  14.283
31088W        W95021  13.679   2.419   4.280
31089W        W95022  15.255  22.707  10.600
31090W        W95023   4.817   1.371  12.927
31091W        W95024  36.873  34.535  12.541
31092W        W95025  17.224  36.968  14.854
31093W        W95026  29.058  32.636   4.787
31094W        W95027  20.558   6.772   2.699
31095W        W95028  23.990  34.578   4.248
31096W        W95029  26.096   7.246  14.909
31097W        W95030  24.593  15.758   2.350
31098W        W95031  37.016  42.886   1.439
31099W        W95032  28.971   2.458  10.445
31100W        W95033  25.616  23.563  11.970
31101W        W95034  23.639  24.621  11.075
31102W        W95035  21.719   9.166   4.197
31103W        W95036  11.180  21.729  11.484
31104W        W95037  26.526  44.367  12.886
31105W        W95038  15.096  11.760  13.480
31106W        W95039  34.933   0.756  14.504
31107W        W95040   2.962   5.297   0.881
31108W        W95041  39.436  42.976  12.455
31109W        W95042  29.561  30.641  12.907
31110W        W95043  35.035  37.369   4.628
31111W        W95044  25.183  13.340   1.332
31112W        W95045  40.354  22.520   1.224
31113W        W95046   6.833  44.839   4.788
31114W        W95047  36.031  10.324  13.028
31115W        W95048  26.005  15.629   4.686
31116W        W95049  28.602  42.936   5.159
31117W        W95050  39.486  16.287  11.506
31118W        W95051  12.179  17.102  10.490
31119W        W95052   2.858  12.144   4.793
31120W        W95053  39.990   3.452  14.491
31121W        W95054  37.581   0.949  10.447
31122W        W95055  10.816  40.867  14.013
31123W        W95056  44.304   8.854  11.393
31124W        W95057  26.016  32.493  10.618
31125W        W95058  21.751  37.085   2.206
31126W        W95059  38.821  20.733  12.954
31127W        W95060  22.129   5.920  12.410
31128W        W95061  26.028   1.910   3.784
31129W        W95062  12.722  24.594  14.763
31130W        W95063  17.117  41.374  11.013
31131W        W95064  15.603  39.505  14.783
31132W        W95065   1.374  15.244   5.565
31133W        W95066  18.776  18.198   0.810
31134W        W95067   5.418   5.798   0.798
31135W        W95068  15.791  35.518  10.436
31136W        W95069   2.344  17.663  12.362
31137W        W95070  43.844  41.841  13.515
31138W        W95071  44.284  38.855   2.249
31139W        W95072  19.584   0.979  13.833
31140W        W95073  40.833   2.867   1.779
31141W        W95074   6.697   2.746  12.826
31142W        W95075  15.735  10.654   0.763
31143W        W95076  29.957  43.918   3.172
31144W        W95077  41.015  33.049  13.530
31145W        W95078  11.262   5.809  14.491
31146W        W95079  11.272   2.880  14.398
31147W        W95080  27.480  27.492  13.313
31148W        W95081  14.138  25.093   0.941
31149W        W95082   1.314  44.444  14.788
31150W        W95083  28.107  28.101   1.775
31151W        W95084  25.983   8.358   0.803
31152W        W95085  17.240  21.054   1.906
31153W        W95086  36.592  25.576   3.148
31154W        W95087  10.361  27.461   2.784
31155W        W95088  34.498  31.102   2.736
31156W        W95089  13.316  20.129  13.929
31157W        W95090  34.960  14.308   1.733
31158W        W95091  13.631  36.517   4.660
31159W        W95092   0.858  37.508   4.141
31160W        W95093  36.576  35.064   3.668
31161W        W95094  33.034  27.630   0.467
31162W        W95095  18.589  39.821  11.865
31163W        W95096  16.724  42.324   1.830
31164W        W95097   9.246   5.881  14.451
31165W        W95098   4.446  21.107   0.468
31166W        W95099   9.684  44.901   0.833
31167W        W95100  24.624   8.842   0.920
31168W        W95101  39.815  29.656  13.421
31169W        W95102  35.860  37.869  11.415
31170W        W95103   5.742  27.994  10.558
31171W        W95104  17.238  28.581   4.734
31172W        W95105   5.225   9.749   1.449
31173W        W95106  22.545  34.865   4.770
31174W        W95107  23.221  11.686   4.209
31175W        W95108  43.002  33.554  11.920
31176W        W95109  25.181   9.815   1.250
31177W        W95110  10.159  28.508  13.449
31178W        W95111  21.724   5.253  11.515
31179W        W95112  31.976  29.942   3.359
31180W        W95113  36.512  36.390   0.853
31181W        W95114   0.870  15.172  12.952
31182W        W95115  35.051   9.391   1.304
31183W        W95116  26.504  20.741   1.418
31184W        W95117  34.879  33.599  12.923
31185W        W95118  31.935  24.715   1.842
31186W        W95119  15.107   3.271   0.338
31187W        W95120   3.223   6.785   0.803
31188W        W95121  34.015  26.638   3.288
31189W        W95122  41.368  31.134   4.684
31190W        W95123   1.446  20.691  13.491
31191W        W95124  14.124  37.493   9.948
31192W        W95125   9.885   5.890  11.419
31193W        W95126  20.048  37.060  11.458
31194W        W95127  44.476  27.494   1.272
31195W        W95128  29.958   6.382  13.912
31196W        W95129  17.109  25.553  14.000
31197W        W95130   4.424   2.943   0.244
31198W        W95131   3.884  20.190  13.503
31199W        W95132  17.226  10.782  10.458
31200W        W95133  22.543  26.583  12.444
31201W        W95134   7.686  35.056   2.722
31202W        W95135  18.713  10.869   0.339
31203W        W95136  28.984   9.646  13.923
31204W        W95137  25.691  23.725   2.718
31205W        W95138  40.436  30.955  12.344
31206W        W95139  38.465  35.894   3.280
31207W        W95140   7.816   4.256  11.061
31208W        W95141   7.748   8.345  13.967
31209W        W95142  18.177   1.863   3.278
31210W        W95143  29.589  29.002   1.786
31211W        W95144  31.934  29.934  10.990
31212W        W95145  16.092  10.767  12.017
31213W        W95146  31.641   1.756  10.612
31214W        W95147   9.871   5.432  12.344
31215W        W95148  30.984  13.644   0.461
31216W        W95149  35.946  38.827  10.436
31217W        W95150  27.024  33.975  13.049
31218W        W95151  34.461  19.196   3.797
31219W        W95152  17.175  21.578   3.325
31220W        W95153  35.881  14.778   3.194
31221W        W95154   0.825  10.665   4.715
31222W        W95155  39.551   6.714  12.362
31223W        W95156  29.961  25.099   2.373
31224W        W95157   9.266  40.900   3.654
31225W        W95158  24.478  12.161   4.316
31226W        W95159   6.876  30.482  11.456
31227W        W95160  17.753  19.727   5.112
31228W        W95161  37.922  10.783   2.198
31229W        W95162  41.889  12.232  12.947
31230W        W95163   0.877  15.617   1.744
31231W        W95164   3.912  28.098  12.439
31232W        W95165  10.716  34.467  13.463
31233W        W95166  32.909  39.554  14.829
31234W        W95167  30.605  18.282  13.011
31235W        W95168  12.727  32.139   0.320
31236W        W95169  12.696   9.820   4.799
31237W        W95170  41.421   4.896   1.833
31238W        W95171  10.783  44.902   4.662
31239W        W95172  42.974  19.560   1.266
31240W        W95173  43.448  26.208  11.958
31241W        W95174   9.292  28.139   4.200
31242W        W95175  19.254  11.720   0.777
31243W        W95176  23.172  19.211   1.319
31244W        W95177   3.719  42.022  13.894
31245W        W95178  42.798  37.023   3.319
31246W        W95179  37.562  18.754  11.058
31247W        W95180   4.327  32.033   3.217
31248W        W95181  36.421  36.870   4.779
31249W        W95182  35.384   3.772   0.318
31250W        W95183   8.694  32.479  13.885
31251W        W95184  15.736   3.748  11.404
31252W        W95185  27.643  16.274  12.487
31253W        W95186  38.891  20.068   1.315
31254W        W95187  42.310  29.437  13.800
31255W        W95188  34.097  13.225  14.430
31256W        W95189  40.027  10.229   1.337
31257W        W95190   0.913  44.405  11.501
31258W        W95191  35.933  25.655   4.759
31259W        W95192   1.754  20.254   5.275
31260W        W95193  29.458  18.137  14.026
31261W        W95194  42.792  43.506  14.014
31262W        W95195  41.504  43.844  10.945
31263W        W95196   4.836  34.377  11.105
31264W        W95197  30.932   7.814  11.034
31265W        W95198   3.277   3.268  13.934
31266W        W95199  20.225  41.465  10.495
31267W        W95200   9.317  32.946   2.191
31268W        W95201  17.100   8.832  11.415
31269W        W95202   7.173   0.969  14.342
31270W        W95203  19.189  20.750   1.247
31271W        W95204  42.433  23.220  11.960
31272W        W95205  16.674  37.892  10.933
31273W        W95206   8.365  25.469   5.144
31274W        W95207   3.251   2.312  11.424
31275W        W95208  15.121  36.963  11.537
31276W        W95209  19.060  22.635  11.485
31277W        W95210  33.877  25.699   2.849
31278W        W95211  35.491  13.658  11.372
31279W        W95212  37.016  43.475   1.402
31280W        W95213   4.912  31.153   1.742
31281W        W95214  35.921  31.134   1.850
31282W        W95215   2.282  21.668  14.437
31283W        W95216  37.953  41.850   2.362
31284W        W95217   9.365  10.817  10.568
31285W        W95218  18.766  36.875  13.826
31286W        W95219  44.845   2.351  12.418
31287W        W95220  43.454  15.597   2.294
31288W        W95221  18.216  29.000   2.223
31289W        W95222  19.152  24.094   2.202
31290W        W95223   5.225  40.310   0.423
31291W        W95224  25.696   8.746  14.306
31292W        W95225  42.365  29.143   2.345
31293W        W95226  31.461  26.621  10.433
31294W        W95227  30.647   2.343  13.459
31295W        W95228  20.670  42.815  11.904
31296W        W95229  17.604   2.912   4.134
31297W        W95230  28.091   0.393   5.253
31298W        W95231  23.691  30.016  11.031
31299W        W95232  39.359   5.241  11.591
31300W        W95233  23.066  44.289   0.960
31301W        W95234   2.458  10.302   4.735
31302W        W95235  43.283  33.125   4.665
31303W        W95236   3.804  35.886   2.890
31304W        W95237   1.347   9.816  10.506
31305W        W95238  23.111  11.163   3.352
31306W        W95239  18.653  32.099   1.352
31307W        W95240  16.654   8.767  12.046
31308W        W95241   4.711  39.033  13.797
31309W        W95242  39.062  42.869  10.506
31310W        W95243  25.468  43.939   1.256
31311W        W95244   7.277  21.175  11.050
31312W        W95245  24.080  18.662   2.276
31313W        W95246  20.756   1.303   2.789
31314W        W95247  27.472  43.383   3.640
31315W        W95248  27.592  17.664   4.614
31316W        W95249  35.496  11.766  10.981
31317W        W95250   0.746  40.318   0.841
31318W        W95251  26.064   2.242   2.858
31319W        W95252   1.412   0.383  14.472
31320W        W95253  28.953  21.581  13.490
31321W        W95254  42.933  29.550  11.526
31322W        W95255  30.160   5.204   3.151
31323W        W95256  33.587  30.585   5.240
31324W        W95257  24.701   7.809   2.370
31325W        W95258  31.024   4.430  14.965
31326W        W95259  44.437   9.329   4.655
31327W        W95260  42.385  22.578  13.373
31328W        W95261  41.335   9.207   4.248
31329W        W95262  28.931   4.923  13.032
31330W        W95263   5.764  25.690  12.909
31331W        W95264  35.854  23.080   3.800
31332W        W95265  37.055  15.693  11.565
31333W        W95266  39.444  36.352  12.362
31334W        W95267  34.574  41.537   3.798
31335W        W95268   2.255  31.128  14.436
31336W        W95269  12.710  30.631   4.670
31337W        W95270  10.149   1.839  10.405
31338W        W95271  33.603  36.475  14.379
31339W        W95272  20.670  18.219   3.325
31340W        W95273  11.143  44.297  11.917
31341W        W95274  19.676  43.923   4.166
31342W        W95275   1.468   8.232  12.473
31343W        W95276   9.330  25.973   9.933
31344W        W95277  42.996  26.962   3.161
31345W        W95278  33.465  37.530   1.234
31346W        W95279   6.903   8.869   0.774
31347W        W95280  43.457   1.900  12.052
31348W        W95281  34.894   8.392   1.260
31349W        W95282  34.100  44.311   2.759
31350W        W95283   4.745  43.926  11.084
31351W        W95284   0.911  30.502   1.325
31352W        W95285  35.439  41.013  11.925
31353W        W95286  44.402  15.755   3.300
31354W        W95287  32.497  15.654   1.415
31355W        W95288  40.987   3.362  14.372
31356W        W95289  24.620   7.753  12.897
31357W        W95290   7.680   6.920   3.221
31358W        W95291  15.809   6.405  14.879
31359W        W95292  34.049  23.657  13.017
31360W        W95293  34.417  19.568   0.308
31361W        W95294  10.219  21.033   1.912
31362W        W95295  29.621  37.516  14.028
31363W        W95296  40.369  20.627  11.538
31364W        W95297  28.050  29.571  11.124
31365W        W95298  39.963  42.472  12.096
31366W        W95299  23.159  33.395  14.436
31367W        W95300  14.604  38.881  10.973
31368W        W95301  25.970  37.879  14.317
31369W        W95302  15.636  31.576   3.739
31370W        W95303  11.734  35.068  12.562
31371W        W95304  18.588  26.031  12.488
31372W        W95305   5.395  44.413   3.290
31373W        W95306  23.706  28.513  13.497
31374W        W95307  34.373  36.059   0.884
31375W        W95308  15.783  36.350  11.873
31376W        W95309   2.362  19.576   4.207
31377W        W95310  39.961  11.774  12.003
31378W        W95311  27.563  42.314  13.466
31379W        W95312   6.909  23.698  11.609
31380W        W95313   5.874  10.327   3.216
31381W        W95314  14.640  20.217  13.875
31382W        W95315  20.170  22.252  14.342
31383W        W95316  28.064  12.841   1.780
31384W        W95317  12.234  18.676   3.798
31385W        W95318  42.902  13.612   1.217
31386W        W95319  37.038  22.197  11.467
31387W        W95320  19.756   4.237   1.262
31388W        W95321   4.849  33.957   4.619
31389W        W95322   1.891  37.852  14.380
31390W        W95323   0.903  23.071   1.400
31391W        W95324  14.814   1.462  13.350
31392W        W95325  34.004  17.296   4.344
31393W        W95326  14.731   3.260   4.122
31394W        W95327  34.555   7.333   0.328
31395W        W95328  12.284  37.940   0.251
31396W        W95329   3.929  12.759  14.952
31397W        W95330  22.010  39.524   3.227
31398W        W95331  37.915   8.402   2.753
31399W        W95332   0.309  32.611  12.510
31400W        W95333  10.339  44.439  13.452
31401W        W95334  29.140   1.369  13.035
31402W        W95335  10.740  17.686   1.334
31403W        W95336   0.457  24.148   0.867
31404W        W95337  31.419  40.009   2.688
31405W        W95338  12.252  17.585  14.483
31406W        W95339  34.428  33.088   4.624
31407W        W95340  17.238  12.648  14.806
31408W        W95341   1.912   8.297  13.423
31409W        W95342  25.217  22.575  12.965
31410W        W95343  43.799  28.555   4.309
31411W        W95344  12.330   2.921  11.126
31412W        W95345  18.708  20.657   0.342
31413W        W95346  18.584  20.148   2.667
31414W        W95347   5.202  10.874   4.224
31415W        W95348   8.221  14.178  13.832
31416W        W95349  35.034   3.728   4.623
31417W        W95350   5.368   0.311  11.520
31418W        W95351  18.690  15.593  10.056
31419W        W95352  27.008  39.055   3.642
31420W        W95353  18.681  33.566   1.429
31421W        W95354   6.188  33.622   3.765
31422W        W95355  34.941   8.392  13.921
31423W        W95356  23.107  43.898  11.072
31424W        W95357  40.807  19.738   3.846
31425W        W95358  27.059  16.259  12.837
31426W        W95359  16.084  37.002   1.838
31427W        W95360  41.922  31.962   5.226
31428W        W95361  38.469  35.594  14.376
31429W        W95362  22.591   4.803  13.847
31430W        W95363  11.716  13.781  13.965
31431W        W95364  32.928  22.065  14.861
31432W        W95365  24.626  41.837  10.639
31433W        W95366   7.299  35.991   3.698
31434W        W95367  19.148   3.404  13.025
31435W        W95368  42.014  38.875  11.431
31436W        W95369   8.298   7.688  11.533
31437W        W95370  39.454   0.956   3.736
31438W        W95371   7.349   8.803  13.466
31439W        W95372  41.494  35.548  11.890
31440W        W95373   1.331  20.120  12.378
31441W        W95374  26.023  32.424   2.208
31442W        W95375  22.703  27.486  12.524
31443W        W95376  28.555  10.355  11.406
31444W        W95377   3.288  14.190   3.163
31445W        W95378  41.490   0.761   1.868
31446W        W95379  30.157  29.659   4.326
31447W        W95380   3.273  12.815   3.255
31448W        W95381   3.263  22.179  10.530
31449W        W95382  22.054  36.413  11.380
31450W        W95383   4.905  29.610   5.203
31451W        W95384  30.066  41.042   4.142
31452W        W95385  37.417  29.542  12.884
31453W        W95386  22.541  14.827   3.806
31454W        W95387  36.905   4.831   4.287
31455W        W95388  22.048  20.251  14.862
31456W        W95389  38.952  30.111  11.544
31457W        W95390   0.283  24.110  13.916
31458W        W95391   6.686   9.710   2.417
31459W        W95392  12.803  33.887  10.410
31460W        W95393  43.449  27.016   2.371
31461W        W95394  38.862  40.851   2.272
31462W        W95395  17.634  12.154   1.417
31463W        W95396  23.103  27.664   1.814
31464W        W95397  29.434  16.701  10.891
31465W        W95398   7.867  23.086   1.831
31466W        W95399  36.002  14.156  12.513
31467W        W95400   0.743  25.048  12.048
31468W        W95401  26.122  12.199  13.509
31469W        W95402   8.671  23.992   1.451
31470W        W95403  40.547  24.708   3.824
31471W        W95404  19.614  21.043   2.796
31472W        W95405  21.118  25.039  14.380
31473W        W95406  23.502  25.113  12.518
31474W        W95407  43.503   8.745   5.145
31475W        W95408  24.576  33.054   3.835
31476W        W95409  39.011  31.063   1.395
31477W        W95410  37.086  25.665   1.226
31478W        W95411  18.214   3.928   3.681
31479W        W95412   5.328  32.517   0.461
31480W        W95413  23.205  22.174  11.382
31481W        W95414  25.110  14.225  10.626
31482W        W95415  13.824  13.829  11.061
31483W        W95416  29.496  37.931  12.527
31484W        W95417  10.347  19.266  10.478
31485W        W95418  31.415  42.911  11.594
31486W        W95419   0.483  15.283   4.166
31487W        W95420  22.040  26.051   9.936
31488W        W95421   1.792  37.576  10.912
31489W        W95422   8.714  25.116   0.408
31490W        W95423  28.156  16.156  14.358
31491W        W95424  36.376  22.569   9.958
31492W        W95425  23.554  27.677  14.802
31493W        W95426   9.203  43.869   2.337
31494W        W95427  18.698   7.737   1.250
31495W        W95428  18.229  12.270  13.363
31496W        W95429  11.211  34.491   2.865
31497W        W95430  43.808  41.898  11.435
31498W        W95431  35.435  39.889  14.019
31499W        W95432  12.735  37.373   9.941
31500W        W95433   7.867   8.837   3.227
31501W        W95434  14.604   9.269  10.410
31502W        W95435  36.009  15.281   1.227
31503W        W95436   5.911  21.580   4.769
31504W        W95437  27.000  26.519   3.297
31505W        W95438  16.187  12.700  13.911
31506W        W95439   2.865  39.843   4.823
31507W        W95440  23.000  38.879   3.169
31508W        W95441  35.546  16.219  11.502
31509W        W95442  43.408  24.553   4.809
31510W        W95443  21.135  36.368  14.929
31511W        W95444  30.933  38.831   3.147
31512W        W95445  24.654  32.395   1.427
31513W        W95446  11.205   2.790   1.345
31514W        W95447  13.283  13.135  11.574
31515W        W95448  36.493  41.324  13.977
31516W        W95449   0.961   9.228   1.871
31517W        W95450  31.058  39.369   3.318
31518W        W95451  26.549  15.600   1.871
31519W        W95452  18.693  41.404   3.745
31520W        W95453  44.994   1.804  13.054
31521W        W95454  38.490  44.400  13.879
31522W        W95455  27.121   5.805  14.515
31523W        W95456   3.323  42.344   1.230
31524W        W95457   4.906  26.996  13.382
31525W        W95458  40.527  43.998  13.852
31526W        W95459  38.994  26.682   0.942
31527W        W95460  16.708  39.050  14.360
31528W        W95461  20.060  31.073   1.219
31529W        W95462  12.853  44.863  14.882
31530W        W95463   5.426   4.744  12.579
31531W        W95464  43.455  22.173   0.805
31532W        W95465  28.973  19.205  11.021
31533W        W95466  33.919  11.793  11.412
31534W        W95467   6.808  33.086  11.442
31535W        W95468  16.168   1.258   2.413
31536W        W95469  26.081  36.394   2.703
31537W        W95470  20.056   8.821   5.251
31538W        W95471  15.265  39.375   0.838
31539W        W95472  29.151   5.274   1.320
31540W        W95473  14.658   1.381   0.275
31541W        W95474  39.501  14.751   3.238
31542W        W95475  40.468  36.950  14.891
31543W        W95476  29.453  18.075   4.314
31544W        W95477  12.622  35.382  12.571
31545W        W95478  40.919  18.738  10.630
31546W        W95479   6.814   1.464   5.126
31547W        W95480  19.240  39.314  10.596
31548W        W95481  40.374  43.358   4.206
31549W        W95482  17.742  29.020  13.861
31550W        W95483   7.713  11.148   2.416
31551W        W95484  33.100  24.558  10.639
31552W        W95485  43.515   8.722  13.487
31553W        W95486  37.524  22.178   4.306
31554W        W95487  23.049   6.217   3.208
31555W        W95488   3.781   6.870   0.386
31556W        W95489  13.298  42.973   0.829
31557W        W95490  44.967  41.880   1.805
31558W        W95491  12.170  29.944  12.568
31559W        W95492   1.823  27.029   4.645
31560W        W95493  22.582  43.847   0.732
31561W        W95494  24.159  22.198  13.046
31562W        W95495  26.099   5.195  12.494
31563W        W95496  41.946   5.781   3.830
31564W        W95497  13.666  20.130   2.326
31565W        W95498  36.068  17.674   0.389
31566W        W95499  32.115  23.091   1.322
31567W        W95500   2.820   0.276  12.451
31568W        W95501   4.212  28.665   1.220
31569W        W95502  28.538  30.153  14.306
31570W        W95503   5.389  25.964  12.349
31571W        W95504  43.851  25.997   4.127
31572W        W95505  27.001  39.432  14.761
31573W        W95506  18.240  23.221   4.717
31574W        W95507   6.692  16.687  11.474
31575W        W95508   5.868  25.516  12.531
31576W        W95509  35.017  10.781   2.902
31577W        W95510   6.359  20.571  10.595
31578W        W95511   3.349  42.961   2.265
31579W        W95512   7.721  22.106  13.538
31580W        W95513  17.300  19.049   2.238
31581W        W95514  12.220  43.302   3.821
31582W        W95515  10.268   9.324   5.220
31583W        W95516   6.895  26.578   4.151
31584W        W95517  26.492  29.931  13.021
31585W        W95518   2.336   9.823  10.547
31586W        W95519  31.549   3.719  12.480
31587W        W95520  21.119  22.999   3.274
31588W        W95521  12.846  38.410   2.804
31589W        W95522  43.955   4.377   2.771
31590W        W95523  19.204  33.544  12.413
31591W        W95524  14.256  44.797  12.950
31592W        W95525  16.656  44.460  14.328
31593W        W95526   7.196  32.591   4.291
31594W        W95527   6.379  36.948  13.845
31595W        W95528  17.610  44.355   4.194
31596W        W95529  44.885  18.599   3.832
31597W        W95530  10.862  12.135   3.341
31598W        W95531   3.885  11.751   4.643
31599W        W95532  17.601  39.989  13.371
31600W        W95533   7.228  10.803  11.113
31601W        W95534  41.932   3.711  13.410
31602W        W95535  39.507   7.674  14.010
31603W        W95536  36.848  36.417   1.277
31604W        W95537  19.160   0.382   1.732
31605W        W95538  23.721  14.168   4.210
31606W        W95539  23.992  43.784  14.466
31607W        W95540   9.183  10.333  13.833
31608W        W95541  32.005  13.643   1.279
31609W        W95542  28.936  24.152  12.864
31610W        W95543  41.032  17.741  12.497
31611W        W95544  15.219  18.271   2.798
31612W        W95545  39.831  26.691   4.137
31613W        W95546  29.170   7.679  12.508
31614W        W95547  16.141   9.689   3.250
31615W        W95548  18.732  21.541  12.003
31616W        W95549  44.346  16.138   4.837
31617W        W95550  22.134   7.783   1.412
31618W        W95551   5.723  23.092  14.776
31619W        W95552  26.099  36.467   1.360
31620W        W95553  11.664  19.255   4.799
31621W        W95554  10.226  35.963   3.199
31622W        W95555  21.237  25.604   1.257
31623W        W95556  33.102  36.956  12.386
31624W        W95557  19.274  20.053  12.539
31625W        W95558  30.461   4.895   3.147
31626W        W95559   2.334   9.248  12.381
31627W        W95560   8.272  39.378  11.496
31628W        W95561  43.926   2.836   1.716
31629W        W95562  27.023  18.677  13.445
31630W        W95563  16.120  21.117  10.889
31631W        W95564  32.116   0.921  12.996
31632W        W95565   7.729  24.602   0.449
31633W        W95566  25.572  22.118   0.815
31634W        W95567  21.614  18.291   4.115
31635W        W95568   7.882  42.453  10.407
31636W        W95569   7.318  13.308   0.354
31637W        W95570   5.244  44.816   1.773
31638W        W95571   1.454  12.612   4.192
31639W        W95572  17.624  15.757  11.474
31640W        W95573  39.438  12.152   3.660
31641W        W95574  13.182  44.804  11.890
31642W        W95575  34.488  21.602  14.411
31643W        W95576  32.110  11.209  12.070
31644W        W95577  23.715  43.341  11.119
31645W        W95578   5.802   0.306  14.819
31646W        W95579  36.559  16.184   1.830
31647W        W95580  17.067  41.904  12.965
31648W        W95581  17.764  32.476  12.914
31649W        W95582  24.042  15.755   4.715
31650W        W95583   4.269  17.573  13.831
31651W        W95584  42.510  39.418   5.604
31652W        W95585  17.754  21.050   4.660
31653W        W95586  17.765  14.804  12.404
31654W        W95587  25.969   6.253  10.432
31655W        W95588  17.164  25.177  11.975
31656W        W95589  30.005  20.256   4.313
31657W        W95590  41.477  37.835   2.801
31658W        W95591  17.764  35.939  11.380
31659W        W95592  34.424  34.459   1.419
31660W        W95593  37.035  29.025   1.429
31661W        W95594  19.235  34.984  11.461
31662W        W95595   6.337  26.061  14.819
31663W        W95596   9.377  21.207   0.884
31664W        W95597  44.374  37.529   0.377
31665W        W95598   2.256  37.581   4.661
31666W        W95599  25.487  13.775  12.079
31667W        W95600  27.652  12.251   1.329
31668W        W95601  44.967  14.252  10.893
31669W        W95602  28.537   8.789   2.887
31670W        W95603   5.418   8.187   0.952
31671W        W95604  32.132  24.685   0.278
31672W        W95605  27.468  41.534  10.525
31673W        W95606  25.198  15.708  13.343
31674W        W95607  33.513   4.365   0.259
31675W        W95608  30.979  34.965  10.507
31676W        W95609   0.490  13.654  11.485
31677W        W95610   4.732   5.333   2.717
31678W        W95611   5.196  12.178   4.615
31679W        W95612  33.579  18.672  10.938
31680W        W95613  35.053  37.962   3.783
31681W        W95614  32.949   6.306   3.363
31682W        W95615   5.338  19.160  13.364
31683W        W95616  15.763  19.188   5.125
31684W        W95617  26.201  19.567  11.563
31685W        W95618   9.200  26.160  14.940
31686W        W95619  34.592  22.167   1.281
31687W        W95620  14.232   5.811   0.781
31688W        W95621  30.435  44.488  10.555
31689W        W95622  27.473  34.901   0.273
31690W        W95623  43.990  39.392  10.939
31691W        W95624  32.485   2.449  14.409
31692W        W95625  37.056   0.952  14.930
31693W        W95626  21.155  11.767  13.530
31694W        W95627  21.588   1.910   0.728
31695W        W95628  14.255   6.871   0.316
31696W        W95629  34.021   4.852   1.310
31697W        W95630  31.962  17.165  14.400
31698W        W95631  27.659  14.599  11.119
31699W        W95632  30.416   9.866   3.841
31700W        W95633  13.155  17.126   9.972
31701W        W95634  22.518  24.977   4.704
31702W        W95635   2.913  25.671  14.451
31703W        W95636  23.670  31.899   5.302
31704W        W95637  16.099  17.202  11.589
31705W        W95638  36.913  37.930   0.363
31706W        W95639  23.658   6.755  14.962
31707W        W95640  27.494  17.703  14.317
31708W        W95641  22.247  29.131   0.951
31709W        W95642  13.139  33.530  10.061
31710W        W95643  10.349   7.395   3.722
31711W        W95644  40.859  25.550  12.493
31712W        W95645  39.917  27.122   2.890
31713W        W95646  12.728  35.991   3.758
31714W        W95647  24.658  43.962   5.655
31715W        W95648   5.904  26.186   5.251
31716W        W95649   9.652  25.152   2.753
31717W        W95650  30.468  29.980   0.306
31718W        W95651  28.595  12.841   3.236
31719W        W95652  43.923   1.361   0.806
31720W        W95653   8.723  23.584  14.959
31721W        W95654  29.654  35.858   0.463
31722W        W95655  30.415  14.136  12.430
31723W        W95656  36.937  19.688  12.460
31724W        W95657  31.988  24.719   0.878
31725W        W95658  23.159  27.643  11.524
31726W        W95659  33.028  35.603   1.339
31727W        W95660  25.707  39.021   0.282
31728W        W95661   2.929  26.565  12.863
31729W        W95662  20.226  36.999  14.341
31730W        W95663  32.017   2.770  12.005
31731W        W95664  35.067  31.439   1.869
31732W        W95665  18.093  34.975  14.856
31733W        W95666  38.515   4.304   1.397
31734W        W95667   1.268  16.187   2.214
31735W        W95668  18.052  22.139   4.653
31736W        W95669  42.339  33.039  14.393
31737W        W95670  25.683  37.468   3.279
31738W        W95671  13.243  37.019   0.461
31739W        W95672  30.460   9.364  11.476
31740W        W95673  30.465  18.745   1.328
31741W        W95674   1.959  43.457  12.457
31742W        W95675  21.604  29.052   0.889
31743W        W95676  10.785  35.009  11.400
31744W        W95677  26.164  41.934   3.790
31745W        W95678  15.226  16.316   1.915
31746W        W95679  25.578  11.734   0.451
31747W        W95680   6.294  27.633   0.962
31748W        W95681   5.866  12.119  10.503
31749W        W95682  27.114  12.612   3.235
31750W        W95683  28.032  16.084  13.393
31751W        W95684  35.105  35.491  12.851
31752W        W95685   1.422   2.915   0.889
31753W        W95686  16.812  15.234  10.946
31754W        W95687   9.855  23.120   0.832
31755W        W95688  18.726  33.479   0.916
31756W        W95689  16.590  18.649   5.316
31757W        W95690  16.250   7.703   4.671
31758W        W95691  38.537  28.640   3.829
31759W        W95692  32.471  25.550   2.721
31760W        W95693  18.718  22.042  12.350
31761W        W95694  40.938  29.955  12.553
31762W        W95695  32.557  15.756   2.180
31763W        W95696   7.288  43.831   3.854
31764W        W95697  21.638   2.761  13.053
31765W        W95698  39.000  18.155   2.305
31766W        W95699  33.010  14.673  11.415
31767W        W95700  17.169  10.242  12.047
31768W        W95701  37.505   7.327  12.006
31769W        W95702  35.975   8.873  13.959
31770W        W95703  30.923   7.385  14.441
31771W        W95704  31.451  35.041  13.540
31772W        W95705  38.951  38.476  13.455
31773W        W95706  44.416  27.033   0.315
31774W        W95707  19.058  38.832   1.781
31775W        W95708  20.563  22.010  12.378
31776W        W95709  13.655  27.692   4.256
31777W        W95710  31.983  37.534  12.061
31778W        W95711  18.192  10.797  13.524
31779W        W95712  15.608  39.514   4.195
31780W        W95713  29.522  37.038   1.375
31781W        W95714  35.065  22.080   0.842
31782W        W95715  38.420   7.783  12.876
31783W        W95716  36.366  38.985   3.667
31784W        W95717   0.881  25.545  14.436
31785W        W95718   1.914  24.626  12.982
31786W        W95719  34.468  40.417   2.686
31787W        W95720   3.263  18.781  12.966
31788W        W95721  16.693  42.833  11.389
31789W        W95722  31.574  16.292  11.548
31790W        W95723   9.175  44.961  12.996
31791W        W95724  24.008  37.872  14.903
31792W        W95725  13.770  33.078   2.337
31793W        W95726  18.263  13.808   4.649
31794W        W95727  29.140  23.530  10.456
31795W        W95728  31.540  43.304  14.880
31796W        W95729  12.855  37.856   2.285
31797W        W95730   5.316  38.958  12.483
31798W        W95731   0.871   8.161   4.743
31799W        W95732  39.361  42.477  13.828
31800W        W95733  17.075  12.363   0.856
31801W        W95734  21.189  29.546  13.972
31802W        W95735  13.236  12.128   3.266
31803W        W95736  20.642  16.741  13.826
31804W        W95737   7.888  30.466  13.315
31805W        W95738   1.240  28.166   1.912
31806W        W95739   0.815   3.872   1.234
31807W        W95740  14.160  33.556   4.674
31808W        W95741  12.306  39.524   1.717
31809W        W95742   9.650  24.146   5.158
31810W        W95743  25.629  17.775   1.355
31811W        W95744  24.040  10.258  13.810
31812W        W95745  13.308   7.673   2.825
31813W        W95746  25.100  37.063   2.784
31814W        W95747   6.917  31.957  12.379
31815W        W95748  24.665  13.240   5.081
31816W        W95749  14.150  36.443   3.344
31817W        W95750  13.749  37.340  13.419
31818W        W95751  28.557  26.686  14.868
31819W        W95752  33.617  35.909   1.428
31820W        W95753  15.695  26.077  11.872
31821W        W95754  32.628  27.999  12.549
31822W        W95755   7.338  29.451  14.350
31823W        W95756  15.697  27.054  13.059
31824W        W95757   1.253  37.923   2.271
31825W        W95758  34.906  43.966  14.437
31826W        W95759  24.544   6.306  10.483
31827W        W95760   9.688  32.045   1.387
31828W        W95761  41.352  29.604   0.372
31829W        W95762  33.456   0.447  10.566
31830W        W95763  10.300  18.679   4.304
31831W        W95764  17.790  21.237  12.095
31832W        W95765  25.668  38.396   4.221
31833W        W95766  24.006  22.697  14.507
31834W        W95767  32.896  31.971   3.720
31835W        W95768  17.251  30.524   0.457
31836W        W95769  40.540  15.239  12.578
31837W        W95770   4.805   5.401   2.301
31838W        W95771   7.394  34.386  11.537
31839W        W95772  25.527   7.366   0.448
31840W        W95773   4.388  22.554   3.709
31841W        W95774  27.071  17.628   2.367
31842W        W95775  21.560  30.548   3.842
31843W        W95776  27.642  22.245   4.174
31844W        W95777   3.258   7.399   2.789
31845W        W95778  23.691   7.865   4.287
31846W        W95779   3.246   8.247  12.423
31847W        W95780  33.555  42.373   4.806
31848W        W95781  20.629  11.803   4.686
31849W        W95782   3.282  27.602   1.785
31850W        W95783  33.964  30.934   2.289
31851W        W95784   0.437   9.243  10.960
31852W        W95785  25.987  25.982  14.426
31853W        W95786  29.579  35.911   2.875
31854W        W95787  34.454  44.369  10.443
31855W        W95788  27.557  15.295   4.713
31856W        W95789  30.513  29.490  12.542
31857W        W95790  18.610  14.613   2.322
31858W        W95791  32.999  32.958  12.492
31859W        W95792   6.324  28.988   1.287
31860W        W95793  28.108  25.075  12.933
31861W        W95794  41.034  27.197  13.500
31862W        W95795  36.894  22.515   1.874
31863W        W95796  36.441   8.277  11.541
31864W        W95797  15.637  20.049  14.464
31865W        W95798  11.633  36.458   2.179
31866W        W95799  16.591  10.169  10.591
31867W        W95800  12.636  21.670   3.753
31868W        W95801   5.733  21.676  10.584
31869W        W95802  23.066  43.326   1.450
31870W        W95803  14.681  24.636   2.216
31871W        W95804  41.330  17.640   3.182
31872W        W95805  43.451  17.192  11.925
31873W        W95806   3.934  33.980   1.915
31874W        W95807  35.481  39.329  14.773
31875W        W95808  23.659   8.790   4.328
31876W        W95809   5.736  29.521   2.307
31877W        W95810  21.226  36.966  11.512
31878W        W95811  26.201  32.427   0.755
31879W        W95812  14.727  34.517  11.520
31880W        W95813  41.814  27.471  10.493
31881W        W95814   4.434  33.405  11.855
31882W        W95815  24.617   1.953   4.616
31883W        W95816  30.008  34.444   0.801
31884W        W95817   5.910  15.172   4.647
31885W        W95818  29.562  15.146   2.747
31886W        W95819  30.556  15.601  14.494
31887W        W95820   3.275  38.000  12.424
31888W        W95821   0.366  28.438   1.767
31889W        W95822  28.148  23.544  11.930
31890W        W95823  17.714   2.446   4.627
31891W        W95824  38.895  22.182   3.373
31892W        W95825   7.382  34.080  12.940
31893W        W95826   4.859  32.126  11.513
31894W        W95827  29.481  21.160   4.184
31895W        W95828   2.236  33.107   3.804
31896W        W95829  32.920   9.687   0.378
31897W        W95830  36.921  14.706  14.360
31898W        W95831  17.080  44.459  14.983
31899W        W95832   9.855  36.093   3.270
31900W        W95833  42.293  27.008  13.029
31901W        W95834  13.786  30.044  11.588
31902W        W95835  32.553  27.160  14.504
31903W        W95836  36.507   9.383   3.691
31904W        W95837   9.693  42.488   2.703
31905W        W95838  34.425  17.216   1.879
31906W        W95839  24.046  21.592  13.990
31907W        W95840   5.270  23.059  14.478
31908W        W95841  10.819  22.517  11.473
31909W        W95842  39.351  20.544   2.824
31910W        W95843  23.091  32.117   0.845
31911W        W95844  34.385  33.082   0.913
31912W        W95845  31.516   7.287   0.405
31913W        W95846   2.962  18.284   1.269
31914W        W95847   1.411  16.282  11.935
31915W        W95848   9.365   8.700  11.937
31916W        W95849   3.441   6.216   3.695
31917W        W95850  42.006  21.616   2.887
31918W        W95851  15.235  19.650  13.326
31919W        W95852  39.060  10.382  11.493
31920W        W95853  40.817  31.455   2.399
31921W        W95854  12.263  27.109  11.528
31922W        W95855  25.490  42.514   4.228
31923W        W95856  28.628  33.387   3.813
31924W        W95857  18.188  27.943   4.320
31925W        W95858  19.240  19.202  10.525
31926W        W95859  30.006  19.613   2.180
31927W        W95860  12.704  40.000   3.762
31928W        W95861  35.906   6.404  10.594
31929W        W95862  21.552  30.451   0.452
31930W        W95863  21.588  20.732   2.274
31931W        W95864  40.350   4.293  14.425
31932W        W95865   1.458  27.664   4.820
31933W        W95866   3.303  11.868  14.934
31934W        W95867  32.054  18.270   3.383
31935W        W95868   7.682   7.874  10.496
31936W        W95869  16.613  38.380  11.374
31937W        W95870  41.787   7.203   3.266
31938W        W95871  43.824   8.855   2.731
31939W        W95872  29.117  28.042   0.775
31940W        W95873  25.214  18.186  10.929
31941W        W95874  12.206  35.010   3.289
31942W        W95875  23.699   8.196  10.039
31943W        W95876   4.325  32.614   4.630
31944W        W95877  17.783  14.159   1.339
31945W        W95878  13.646  16.640   3.860
31946W        W95879  38.964  31.007   1.723
31947W        W95880  12.298  44.897   4.783
31948W        W95881  35.883  34.927  14.995
31949W        W95882   1.771  34.935   0.799
31950W        W95883  22.071  26.538  10.040
31951W        W95884  33.423  17.259   3.361
31952W        W95885  28.961  15.657   3.836
31953W        W95886   6.693   5.890   1.385
31954W        W95887  11.850  36.010  12.877
31955W        W95888  35.890  27.559   1.814
31956W        W95889  22.556   3.746   0.352
31957W        W95890  21.098  14.099   3.721
31958W        W95891  43.774   9.718  11.581
31959W        W95892  27.547  23.080  11.869
31960W        W95893  37.979   2.806   3.820
31961W        W95894  25.473   6.334  12.569
31962W        W95895  10.824  30.948  12.835
31963W        W95896  35.929  31.103   0.882
31964W        W95897  16.749  33.024  11.034
31965W        W95898  42.493  34.034   3.714
31966W        W95899  19.643   3.438  11.129
31967W        W95900  20.163   6.883  10.538
31968W        W95901   5.751  15.752  12.435
31969W        W95902  16.128   1.936  10.465
31970W        W95903  22.226  26.466  14.956
31971W        W95904  27.466  18.773   0.872
31972W        W95905  10.304  11.667   0.828
31973W        W95906   6.250  36.399  14.335
31974W        W95907  33.030  17.669   3.769
31975W        W95908  26.522  11.320  11.575
31976W        W95909  16.622   1.777   4.218
31977W        W95910  43.899  41.038  11.487
31978W        W95911  35.388  24.023  12.050
31979W        W95912  36.080   0.850  14.914
31980W        W95913   5.844  41.533   1.906
31981W        W95914  15.118  43.393   4.763
31982W        W95915  32.552  27.527   1.804
31983W        W95916  32.570   9.738  12.966
31984W        W95917  44.941  21.093   4.679
31985W        W95918  22.740  39.971   0.413
31986W        W95919  39.998  27.169  14.835
31987W        W95920  11.157   9.731   4.182
31988W        W95921  11.169  22.595  12.576
31989W        W95922  32.578  14.809   4.835
31990W        W95923  21.633  41.024  12.981
31991W        W95924  12.283  36.983   4.292
31992W        W95925  26.691  38.914   4.796
31993W        W95926  26.635  31.621   2.217
31994W        W95927   3.390  39.969   0.290
31995W        W95928  23.184  18.607   1.910
31996W        W95929  21.739  15.610   1.384
31997W        W95930  42.008  18.550   3.330
31998W        W95931  17.235  30.153   3.329
31999W        W95932  13.201   3.339   2.807
32000W        W95933   7.717  43.006   2.773
32001W        W95934  25.574  38.004   0.833
32002W        W95935  30.596  35.899   0.483
32003W        W95936   8.185  38.896  12.449
32004W        W95937  20.641  24.106   3.722
32005W        W95938  27.194  30.489  12.429
32006W        W95939   2.914  13.167  13.850
32007W        W95940  11.226  41.371   2.373
32008W        W95941  42.454  23.190   2.881
32009W        W95942  38.442   2.430   3.212
32010W        W95943  22.050  21.741  14.305
32011W        W95944  43.945  17.301   3.174
32012W        W95945  27.553  30.486  14.024
32013W        W95946   5.743  34.929   3.697
32014W        W95947  12.197  42.478  11.548
32015W        W95948  25.631  38.911   3.357
32016W        W95949   4.383  24.998  14.417
32017W        W95950  42.311  39.005  11.001
32018W        W95951  29.037   7.862   4.245
32019W        W95952  12.713  42.394   4.287
32020W        W95953   9.384  44.354   1.834
32021W        W95954   4.355  26.016  12.872
32022W        W95955  27.639   3.445  14.390
32023W        W95956  34.381  15.147  11.374
32024W        W95957  44.850   8.733   2.693
32025W        W95958  19.637   3.797  10.414
32026W        W95959   8.806  43.411   0.382
32027W        W95960  27.971  28.533  14.996
32028W        W95961  16.240   8.372  14.916
32029W        W95962  43.858  44.006   2.402
32030W        W95963  35.371  14.226  10.644
32031W        W95964   3.896   4.350   2.336
32032W        W95965  36.023  23.625  12.579
32033W        W95966   7.676   4.732   4.634
32034W        W95967  39.316  38.875  13.450
32035W        W95968   5.307  31.131   4.126
32036W        W95969   1.306  21.071  11.549
32037W        W95970  27.615  38.844  13.319
32038W        W95971  44.856  39.529  13.896
32039W        W95972  44.800  25.015   0.800
32040W        W95973  33.037  39.548  13.899
32041W        W95974  18.207  44.467  12.903
32042W        W95975  36.035   1.286  12.552
32043W        W95976  33.532   8.195  13.501
32044W        W95977  28.096   6.827  13.840
32045W        W95978   7.241   9.778  11.509
32046W        W95979   7.792  33.468  14.820
32047W        W95980   4.824  28.444  10.520
32048W        W95981  28.138  31.610   3.738
32049W        W95982  16.235  34.963  14.404
32050W        W95983  12.316   0.370   4.659
32051W        W95984  26.989  39.039   0.365
32052W        W95985  25.568   5.413   1.283
32053W        W95986  13.656  12.793   1.307
32054W        W95987  23.713  44.934   3.167
32055W        W95988   6.358  24.155   3.372
32056W        W95989  13.753  24.626   1.411
32057W        W95990  19.549  39.514  10.933
32058W        W95991   2.907  13.606   1.402
32059W        W95992   6.907  35.908   0.430
32060W        W95993   3.379   6.751   0.478
32061W        W95994   3.758  15.195   5.307
32062W        W95995  44.897  37.439   9.442
32063W        W95996   5.424   3.284   2.737
32064W        W95997   0.762  10.763  14.378
32065W        W95998   1.867  12.636  10.458
32066W        W95999   0.293   0.849  10.599
32067W        W96000  11.236  11.672   4.133
32068W        W96001  22.998  29.489  12.415
32069W        W96002  31.103  19.701  14.359
32070W        W96003  30.085  43.812  12.911
32071W        W96004  16.317  27.680   1.310
32072W        W96005   8.895  13.652   1.729
32073W        W96006  38.936  35.982  13.337
32074W        W96007  18.676  39.972  14.890
32075W        W96008  22.118  44.400  13.009
32076W        W96009  43.436  13.688   3.659
32077W        W96010   3.954  38.865   4.249
32078W        W96011  10.158  24.710   3.329
32079W        W96012  31.425   0.489  12.949
32080W        W96013   0.351  31.568   1.349
32081W        W96014  22.560   0.888  12.074
32082W        W96015   0.369  11.864  12.012
32083W        W96016   4.359  22.048  14.364
32084W        W96017  12.342   0.881   0.291
32085W        W96018  41.472  33.565  11.525
32086W        W96019   1.781  21.658  12.508
32087W        W96020   9.233  38.899   5.131
32088W        W96021  27.479  31.565   0.352
32089W        W96022  21.218  37.839   2.248
32090W        W96023  35.100   9.164   0.448
32091W        W96024   0.301  27.624   4.147
32092W        W96025  15.781  36.065  10.470
32093W        W96026  22.019  29.428  10.047
32094W        W96027  33.468  21.527  13.337
32095W        W96028  14.246   2.947   3.659
32096W        W96029  30.577  23.199   3.153
32097W        W96030  11.366  33.903   1.339
32098W        W96031  29.656   0.442   4.658
32099W        W96032  39.382  16.638  14.286
32100W        W96033  43.021  31.112   4.292
32101W        W96034  20.072  38.331   2.702
32102W        W96035  22.229   8.312  14.460
32103W        W96036   7.724  38.521   3.798
32104W        W96037  12.249  23.176   4.351
32105W        W96038  24.575  18.252   4.274
32106W        W96039  23.619   9.756  12.473
32107W        W96040   1.343  16.236   1.317
32108W        W96041  20.675  42.413  11.121
32109W        W96042  12.729  12.792   1.243
32110W        W96043   6.418  27.033   2.846
32111W        W96044   0.266  43.320   1.764
32112W        W96045   9.374  37.981  13.532
32113W        W96046  44.903  36.487  12.383
32114W        W96047  14.717  40.545  11.895
32115W        W96048  29.539  13.755  13.840
32116W        W96049  22.707  18.624   3.707
32117W        W96050  32.479  31.949   0.810
32118W        W96051  10.242  42.358  10.485
32119W        W96052   4.829  25.978   4.180
32120W        W96053  32.911   8.754  12.964
32121W        W96054   7.705  12.779   0.910
32122W        W96055   2.424  31.911   0.768
32123W        W96056  32.562  34.071  14.463
32124W        W96057  37.336   3.876  11.530
32125W        W96058  17.613  35.046   1.709
32126W        W96059  11.131  43.437   2.243
32127W        W96060  40.943  36.503  11.965
32128W        W96061  18.243  14.760   1.830
32129W        W96062  35.952   3.774   4.777
32130W        W96063  41.526  41.897   3.711
32131W        W96064  24.113  38.869  10.563
32132W        W96065  40.859  34.872  12.557
32133W        W96066  25.569  14.199  14.490
32134W        W96067   8.392  22.151  12.905
32135W        W96068  44.975  32.576  12.899
32136W        W96069   6.348  43.871   1.915
32137W        W96070  31.579  22.729  12.047
32138W        W96071  23.133  13.717  11.941
32139W        W96072  24.512  44.452  11.437
32140W        W96073  24.078   1.886   3.811
32141W        W96074  22.067   3.864  10.932
32142W        W96075  36.018  43.507   4.329
32143W        W96076  23.512  26.546   4.834
32144W        W96077   6.243  10.792   4.688
32145W        W96078  38.877  12.668  14.769
32146W        W96079   1.762  39.547   2.247
32147W        W96080  39.430   5.804  13.799
32148W        W96081   2.294  26.584   3.731
32149W        W96082  15.758  22.502  12.541
32150W        W96083  14.692  40.993   4.210
32151W        W96084  20.084  36.978  13.479
32152W        W96085   3.296  35.900   0.466
32153W        W96086  14.613   4.865  14.765
32154W        W96087  33.509   8.239   3.710
32155W        W96088  17.215  30.994  10.492
32156W        W96089  34.450  21.647  13.516
32157W        W96090  31.640  27.950   4.134
32158W        W96091   2.804  29.599  13.314
32159W        W96092  27.099  39.323  14.361
32160W        W96093   2.362  40.498  13.845
32161W        W96094  30.919  15.272   0.438
32162W        W96095  40.909   7.380  11.985
32163W        W96096  27.104  28.965  13.805
32164W        W96097  27.535   2.315   2.325
32165W        W96098  14.677  27.597   1.237
32166W        W96099  10.650  21.521   2.374
32167W        W96100   8.874  20.754  10.563
32168W        W96101   5.293  44.794  13.429
32169W        W96102  19.658  25.212  13.423
32170W        W96103  14.096  18.665  14.768
32171W        W96104   5.272  16.711  10.587
32172W        W96105  16.242  22.638  10.113
32173W        W96106  15.603  27.073   3.240
32174W        W96107  20.669  16.763   2.690
32175W        W96108   4.372  40.890  12.344
32176W        W96109  38.862  43.434  11.980
32177W        W96110  32.619  35.009   2.725
32178W        W96111  40.993   6.423  11.923
32179W        W96112  32.503  10.250  13.476
32180W        W96113  33.950   4.726   3.219
32181W        W96114  43.364   1.776   1.889
32182W        W96115  27.643  18.725  11.099
32183W        W96116   0.966  34.411  14.959
32184W        W96117  27.561  24.542   2.812
32185W        W96118  40.974  41.431   2.396
32186W        W96119  28.576   2.412   2.872
32187W        W96120  16.749  14.271   0.473
32188W        W96121  28.533  21.264   3.321
32189W        W96122  41.787   5.363   3.866
32190W        W96123  40.483  27.691   1.428
32191W        W96124  32.959  15.136  12.547
32192W        W96125  28.565  20.139   2.296
32193W        W96126  23.121  23.063   0.413
32194W        W96127  37.504  11.691   0.248
32195W        W96128  11.852  17.622   4.832
32196W        W96129  25.977  37.967  13.955
32197W        W96130  42.338  44.931   2.765
32198W        W96131  16.776   8.214  10.519
32199W        W96132  19.266   5.725  14.358
32200W        W96133  42.464   0.299  11.962
32201W        W96134  20.712  36.510   0.912
32202W        W96135   7.272  41.494   3.679
32203W        W96136  22.640   6.278  12.903
32204W        W96137  40.025   2.836   2.301
32205W        W96138  14.122   6.847   3.240
32206W        W96139   5.876  29.999  11.376
32207W        W96140   5.296  27.148  13.794
32208W        W96141  12.351   4.767  12.990
32209W        W96142  29.919   5.303  14.891
32210W        W96143  29.658  14.832  14.794
32211W        W96144  18.100  36.403   1.369
32212W        W96145  13.638  35.022   1.885
32213W        W96146  11.776   5.851  14.440
32214W        W96147  16.281   8.196   3.823
32215W        W96148  34.497  21.181  14.002
32216W        W96149  30.640   1.897  12.929
32217W        W96150  15.223  21.042   2.351
32218W        W96151  18.554  22.142  14.277
32219W        W96152  13.792  15.814   5.202
32220W        W96153  28.141  41.388  14.861
32221W        W96154  36.908   7.804  10.526
32222W        W96155  42.308  17.290  14.377
32223W        W96156  15.322  10.764   2.683
32224W        W96157  41.915  41.846  12.860
32225W        W96158  17.104  28.107  11.467
32226W        W96159  12.295  38.451   4.602
32227W        W96160  25.685   9.264  13.835
32228W        W96161  29.550  10.370   3.835
32229W        W96162  42.809  37.086  13.355
32230W        W96163  23.611  32.963  13.841
32231W        W96164  20.640  38.912  12.521
32232W        W96165   8.750  31.008  12.926
32233W        W96166   2.792  11.792   0.898
32234W        W96167  17.704  25.585  14.829
32235W        W96168  33.103  32.430  12.894
32236W        W96169   2.350   1.916   4.165
32237W        W96170  42.851  25.022   3.805
32238W        W96171   3.315  19.727  12.546
32239W        W96172  22.250  38.447   1.402
32240W        W96173  29.501  11.676  11.601
32241W        W96174  13.709   8.378  10.538
32242W        W96175  27.499  26.131   0.247
32243W        W96176   4.835  27.132  11.477
32244W        W96177   9.162  12.621  10.522
32245W        W96178  18.768  12.344  12.525
32246W        W96179   3.898  18.138   0.365
32247W        W96180   7.236  37.493  12.389
32248W        W96181  16.580  13.323   3.252
32249W        W96182   5.259  36.561  14.981
32250W        W96183  42.887  38.979   5.256
32251W        W96184  13.783  42.984   3.724
32252W        W96185  23.666   8.286  10.981
32253W        W96186  22.504   1.388   0.431
32254W        W96187   4.312  32.504   1.354
32255W        W96188  32.404  14.302   3.840
32256W        W96189  17.598  37.934  12.083
32257W        W96190   1.344  39.863   2.369
32258W        W96191  37.493  10.266   3.324
32259W        W96192  28.512  16.094  13.396
32260W        W96193  13.784  42.483   4.764
32261W        W96194  43.807  30.570   1.444
32262W        W96195  26.968  23.582  13.417
32263W        W96196  37.901   5.214  14.821
32264W        W96197   2.831  38.390  10.950
32265W        W96198  12.350  18.256   0.954
32266W        W96199   8.689   4.889  10.514
32267W        W96200  34.878  15.168  12.986
32268W        W96201  28.444   5.316   0.770
32269W        W96202   3.800   8.383   0.248
32270W        W96203  29.066  32.552   3.634
32271W        W96204  12.304  22.168  11.080
32272W        W96205  16.236  16.701  10.432
32273W        W96206  35.104  18.595   4.826
32274W        W96207  20.661  35.030   0.326
32275W        W96208  20.650  11.170   3.352
32276W        W96209   2.463  32.609  13.064
32277W        W96210  20.058  14.739   4.114
32278W        W96211  44.359  18.748   4.819
32279W        W96212  11.727  27.043   3.258
32280W        W96213  22.570  27.513  12.845
32281W        W96214  10.139  21.186   3.371
32282W        W96215  38.570  24.028  13.371
32283W        W96216  24.981   0.285  10.888
32284W        W96217   2.722   9.239  12.084
32285W        W96218   9.859   2.809   4.598
32286W        W96219  44.948  24.023  14.965
32287W        W96220  16.314  37.020  10.577
32288W        W96221   9.329  13.249  11.021
32289W        W96222  12.701  20.194  13.907
32290W        W96223  13.262  27.088  11.877
32291W        W96224  31.618  31.912   3.779
32292W        W96225  12.619   6.382   5.643
32293W        W96226   2.328  42.864  14.947
32294W        W96227   2.334  30.597   0.954
32295W        W96228   3.916  28.005   2.759
32296W        W96229  15.199  41.512  13.918
32297W        W96230  31.526  38.328   2.663
32298W        W96231  29.666  34.407   0.384
32299W        W96232  34.986  24.677   2.740
32300W        W96233  32.929  34.901   3.784
32301W        W96234  43.370  36.912   0.893
32302W        W96235   9.251  26.631   2.276
32303W        W96236   8.290  17.703  11.967
32304W        W96237  35.458  25.043   2.698
32305W        W96238  23.008  18.773   4.353
32306W        W96239   1.880  16.274  10.416
32307W        W96240  18.625   7.243   9.977
32308W        W96241  24.625   6.832  11.083
32309W        W96242  33.526  18.107   0.306
32310W        W96243  38.892  17.077   2.903
32311W        W96244  39.317  33.121   3.764
32312W        W96245  13.162  38.821   4.348
32313W        W96246  27.968  33.512  10.994
32314W        W96247  34.540   5.330   0.455
32315W        W96248  44.291  33.977   1.406
32316W        W96249   4.854  38.890   1.912
32317W        W96250   0.976  16.284   4.210
32318W        W96251  30.511  38.473   2.859
32319W        W96252  29.065  38.542  11.106
32320W        W96253  42.502  35.966   1.431
32321W        W96254  11.275  23.510   0.923
32322W        W96255  23.644  23.045   3.858
32323W        W96256  15.772  38.834  13.941
32324W        W96257  22.129  41.307  11.926
32325W        W96258  30.594  43.931  12.018
32326W        W96259  11.661  28.173   3.864
32327W        W96260  12.135  19.588   0.760
32328W        W96261   6.200   4.332   2.826
32329W        W96262   2.950  29.938   0.955
32330W        W96263  33.410   2.732  11.921
32331W        W96264  44.377  37.424  12.435
32332W        W96265  23.084  11.152  11.994
32333W        W96266  29.453   5.356   1.255
32334W        W96267  26.181  12.799  12.555
32335W        W96268  33.079  30.568   1.719
32336W        W96269  18.258  24.190  13.430
32337W        W96270  11.821  13.302   2.370
32338W        W96271  30.052  27.053  13.514
32339W        W96272   1.865   9.366   2.283
32340W        W96273  14.326  23.233  12.563
32341W        W96274   2.911  16.127  12.420
32342W        W96275   8.842  22.740  13.037
32343W        W96276   2.276  18.105   1.890
32344W        W96277  32.107  18.236   1.791
32345W        W96278  19.668  32.596  10.952
32346W        W96279  31.914  15.157  11.568
32347W        W96280  24.184  33.023  13.460
32348W        W96281   6.787  29.983   3.299
32349W        W96282  23.512  18.076   0.867
32350W        W96283  12.765  15.702   5.124
32351W        W96284  42.002  34.986   4.340
32352W        W96285  42.925  24.587  12.569
32353W        W96286   1.949  13.636   5.799
32354W        W96287   0.836  17.289   5.218
32355W        W96288  37.869   4.821   2.896
32356W        W96289   3.224  30.468  12.835
32357W        W96290  19.170  31.145   4.197
32358W        W96291  24.191  26.101   0.915
32359W        W96292  15.818  33.123  14.508
32360W        W96293   1.758   5.836  10.630
32361W        W96294  29.097  30.510  13.469
32362W        W96295  41.325  10.343  14.982
32363W        W96296  13.136  12.803   1.771
32364W        W96297  12.669  24.621   0.358
32365W        W96298  36.425  42.506  13.357
32366W        W96299  44.972  44.825  11.434
32367W        W96300   3.826  40.833  11.548
32368W        W96301   7.859   1.733  11.019
32369W        W96302  17.291  44.839  12.981
32370W        W96303  38.419  17.636  11.869
32371W        W96304   4.260  33.975  11.423
32372W        W96305   5.868   9.805   1.767
32373W        W96306   6.289  11.277   2.408
32374W        W96307  34.044   9.310   4.809
32375W        W96308  32.418  25.113  13.478
32376W        W96309  40.325  23.992  13.808
32377W        W96310  34.938  13.780   1.815
32378W        W96311   2.842  15.172   3.802
32379W        W96312  18.157   7.222   5.143
32380W        W96313   7.330   6.837  12.852
32381W        W96314  13.273  35.584  14.848
32382W        W96315  16.771  12.786  12.078
32383W        W96316  16.768   7.357   0.876
32384W        W96317   4.404  39.532  12.024
32385W        W96318  27.007  24.981   5.203
32386W        W96319   0.987  30.595  14.314
32387W        W96320   1.932   3.760   4.792
32388W        W96321   7.774  15.811  14.958
32389W        W96322  17.629  26.513  10.011
32390W        W96323  33.092   3.286  12.469
32391W        W96324   0.459   8.807  13.424
32392W        W96325  42.955  20.229   2.788
32393W        W96326  13.270  26.958  11.417
32394W        W96327   6.410  15.313   2.692
32395W        W96328  25.497  36.951   1.718
32396W        W96329  28.978  29.440   4.741
32397W        W96330   1.852  22.565   4.281
32398W        W96331  41.348   4.844  11.440
32399W        W96332  27.123  24.716  10.992
32400W        W96333   3.334  43.965   4.702
32401W        W96334   5.852  10.768   2.226
32402W        W96335  16.104  35.467   4.618
32403W        W96336  34.080  21.719  13.431
32404W        W96337  39.380   7.395   1.809
32405W        W96338   5.867  16.254  13.509
32406W        W96339  21.138   4.728   4.787
32407W        W96340  15.699  24.500  11.522
32408W        W96341  21.150  31.552  12.376
32409W        W96342  15.636  33.913   1.842
32410W        W96343  17.793  44.836   4.349
32411W        W96344   0.809  29.115   0.336
32412W        W96345  14.179  15.588  10.559
32413W        W96346   0.449  31.576   0.305
32414W        W96347   2.723  41.385  11.430
32415W        W96348  10.176  34.545  11.057
32416W        W96349  17.726  43.394  12.550
32417W        W96350   5.219  27.689  12.969
32418W        W96351  15.661   5.850   3.666
32419W        W96352  33.887  25.553   3.379
32420W        W96353  44.905   2.280  14.799
32421W        W96354  37.023  21.024  13.411
32422W        W96355  27.100  17.263  11.995
32423W        W96356  27.484   8.669   2.874
32424W        W96357  43.873   3.786   2.685
32425W        W96358  15.589  21.239  12.012
32426W        W96359  12.812  23.052  13.880
32427W        W96360  19.126  36.374  12.353
32428W        W96361  23.147   3.297   2.382
32429W        W96362   3.439  29.153  11.536
32430W        W96363  28.469  22.114   0.820
32431W        W96364  43.307  14.815  14.968
32432W        W96365  20.242   1.783  11.458
32433W        W96366   7.297  40.352  14.921
32434W        W96367  27.591  39.487   2.711
32435W        W96368  37.938  28.507  14.001
32436W        W96369  24.129  40.860  10.536
32437W        W96370  14.835  10.206  12.850
32438W        W96371   3.286  28.105  14.503
32439W        W96372   8.398  12.172  13.344
32440W        W96373  37.479   7.884  10.997
32441W        W96374  43.469  36.501  14.515
32442W        W96375   3.370  31.580   1.450
32443W        W96376  19.631  12.680  11.471
32444W        W96377  37.460  35.375  14.513
32445W        W96378  19.156  35.367   1.402
32446W        W96379  17.634  34.043  12.980
32447W        W96380  33.987   1.339  14.903
32448W        W96381   1.779  32.113   5.182
32449W        W96382  29.017  21.085  13.044
32450W        W96383  30.089  28.595  11.956
32451W        W96384  31.148  25.157  10.420
32452W        W96385  21.632  42.946   1.824
32453W        W96386  37.993  10.354  12.021
32454W        W96387  25.017  33.546  12.042
32455W        W96388   2.310  16.264   3.158
32456W        W96389  34.921  26.170  11.581
32457W        W96390  13.314  34.978  10.929
32458W        W96391  27.555   7.243  11.481
32459W        W96392  36.434  24.013  13.021
32460W        W96393  33.388  36.591  13.044
32461W        W96394  30.424  34.499   4.832
32462W        W96395  29.056  21.172  11.392
32463W        W96396  44.445  20.708  14.395
32464W        W96397   5.780  19.274   3.826
32465W        W96398  18.670   9.262  12.355
32466W        W96399  21.088   9.715   3.164
32467W        W96400  30.066   3.416   3.738
32468W        W96401  34.381  29.119   3.783
32469W        W96402  12.205  27.630  14.930
32470W        W96403  29.494  34.468   9.983
32471W        W96404  23.107  10.233  11.939
32472W        W96405  32.562  10.154  11.855
32473W        W96406   6.328  35.510  12.859
32474W        W96407  22.108  22.504   2.185
32475W        W96408  20.570  11.849   3.152
32476W        W96409  26.478   5.827  14.352
32477W        W96410   5.901  20.119   2.303
32478W        W96411  32.604  40.028   1.909
32479W        W96412  42.434  42.332  10.942
32480W        W96413   7.372  43.346   4.783
32481W        W96414  44.812  21.262  10.504
32482W        W96415  17.602  37.454   2.243
32483W        W96416  19.169  36.400   5.232
32484W        W96417  41.974  34.495  13.324
32485W        W96418   5.789  44.454   0.959
32486W        W96419  17.203  23.729   3.326
32487W        W96420  13.282  13.659  14.393
32488W        W96421  15.654  17.586  11.595
32489W        W96422  44.430  23.036   4.188
32490W        W96423  17.673   4.712  12.963
32491W        W96424  43.409  25.597   4.157
32492W        W96425  16.081  42.937  10.550
32493W        W96426  31.568   2.236  13.419
32494W        W96427  26.991  26.022  14.909
32495W        W96428   2.735   4.417   3.695
32496W        W96429  16.763  43.820  14.475
32497W        W96430  29.070  23.175  10.589
32498W        W96431  41.041  27.559  13.547
32499W        W96432  18.564  26.621  13.546
32500W        W96433  33.569  20.225  11.894
32501W        W96434  18.180  38.913   0.293
32502W        W96435  39.907  36.403  12.408
32503W        W96436   2.284  22.995   2.195
32504W        W96437  26.206  25.483  12.825
32505W        W96438   2.280   3.343   1.290
32506W        W96439  29.951   4.415  12.524
32507W        W96440  27.102  19.662  13.846
32508W        W96441  21.083  20.181   1.810
32509W        W96442  25.180  25.660   3.710
32510W        W96443  31.914  20.211   3.163
32511W        W96444  44.970  32.472   3.313
32512W        W96445  33.882  21.062  11.071
32513W        W96446   8.385  19.099   0.769
32514W        W96447  13.810  35.998  14.953
32515W        W96448  37.452  44.844  13.892
32516W        W96449  35.080  31.560   3.767
32517W        W96450  11.720  10.711  11.391
32518W        W96451  28.602  17.243  10.460
32519W        W96452  30.629  23.031  10.999
32520W        W96453  30.433  44.324  13.958
32521W        W96454  16.151  11.647  14.918
32522W        W96455  39.342  28.582   4.286
32523W        W96456  16.580  16.672  14.320
32524W        W96457   6.313  34.421   2.303
32525W        W96458  14.111  23.207  14.856
32526W        W96459  41.391  30.436   0.726
32527W        W96460  10.368   1.311  13.971
32528W        W96461  13.834   7.845  13.905
32529W        W96462  32.418  36.044  10.971
32530W        W96463  32.610  20.590   3.162
32531W        W96464  44.502  26.173  14.898
32532W        W96465  26.513  30.101   2.395
32533W        W96466   6.340  43.430   2.194
32534W        W96467  18.101  17.717  13.983
32535W        W96468  34.543  17.288   4.264
32536W        W96469  39.524  39.951   5.320
32537W        W96470  33.584  33.975  12.860
32538W        W96471  31.029  11.236   4.705
32539W        W96472  41.302  40.950   4.743
32540W        W96473  28.523  42.862   3.257
32541W        W96474   0.358  23.237   2.300
32542W        W96475  26.098  43.785   2.303
32543W        W96476  33.519  23.201   0.903
32544W        W96477   7.856  10.737  10.587
32545W        W96478  26.513  31.521  13.000
32546W        W96479  43.843  16.671   4.619
32547W        W96480  10.842  28.132  13.539
32548W        W96481  20.710  27.951  11.983
32549W        W96482  30.446  38.377  12.976
32550W        W96483   6.198  41.933   3.787
32551W        W96484   3.838  43.862  11.387
32552W        W96485   2.834  29.536  14.945
32553W        W96486  30.426  25.084   0.805
32554W        W96487  21.673   0.821   2.301
32555W        W96488   5.867  14.332  14.409
32556W        W96489  42.519  35.868  10.096
32557W        W96490  18.197   0.888   4.124
32558W        W96491  15.618  33.120   3.183
32559W        W96492  26.189  25.995   3.279
32560W        W96493  10.305   4.212   1.218
32561W        W96494  37.500  15.696  12.030
32562W        W96495   3.428  10.830   3.252
32563W        W96496   0.346  24.510   0.328
32564W        W96497  21.093  30.999  12.833
32565W        W96498  18.071  24.045  14.781
32566W        W96499  44.334  44.405   1.711
32567W        W96500  35.884   0.806   3.752
32568W        W96501  22.617   9.203  13.880
32569W        W96502  40.540  11.188   4.287
32570W        W96503  22.691  19.627   2.349
32571W        W96504  13.669  15.693   2.890
32572W        W96505  10.717  36.580  11.590
32573W        W96506  21.536  37.975  11.080
32574W        W96507  18.659  11.228  13.941
32575W        W96508  23.068  24.512   2.792
32576W        W96509  27.047  25.083   4.746
32577W        W96510  23.195  31.151   3.316
32578W        W96511   8.834   2.460  13.009
32579W        W96512  30.966   9.285   1.370
32580W        W96513  24.491   2.863  13.380
32581W        W96514  28.130  27.576  12.025
32582W        W96515   6.808   4.901   4.292
32583W        W96516  21.565   6.250   1.313
32584W        W96517  29.436  41.026   3.250
32585W        W96518  21.051   3.948   3.674
32586W        W96519  35.523  23.101   1.283
32587W        W96520  22.014  39.898   0.475
32588W        W96521  25.119  34.056   1.433
32589W        W96522  38.024   4.449   1.743
32590W        W96523   2.425  20.187   0.370
32591W        W96524   8.676  23.545   5.258
32592W        W96525  31.135  43.839  12.576
32593W        W96526  24.055  20.224  10.894
32594W        W96527   1.253  43.386   3.209
32595W        W96528  43.437  11.796  10.605
32596W        W96529  19.642   2.334  14.342
32597W        W96530  41.973   1.470  10.907
32598W        W96531  17.657  34.972   0.253
32599W        W96532  43.392  15.233   1.290
32600W        W96533  34.020  30.570  10.436
32601W        W96534  10.222  25.528  14.936
32602W        W96535   4.440  26.172   5.221
32603W        W96536   6.881  33.891   0.393
32604W        W96537  25.694  40.830   0.790
32605W        W96538  42.517   6.328  10.444
32606W        W96539  23.609   4.793   1.912
32607W        W96540   4.716  40.413   4.602
32608W        W96541  26.458  40.374   2.736
32609W        W96542  24.979  18.624   0.420
32610W        W96543  10.723  42.783   0.325
32611W        W96544  44.864  22.585   0.911
32612W        W96545   2.836  17.710  12.067
32613W        W96546   9.212  29.622   2.300
32614W        W96547  15.256  16.764  13.058
32615W        W96548  37.474  36.570  12.365
32616W        W96549  25.143  24.707  12.432
32617W        W96550  25.030  11.345   2.335
32618W        W96551  40.467  35.533  14.374
32619W        W96552  42.984  29.116   9.997
32620W        W96553  40.409  23.496   1.890
32621W        W96554  27.522  16.656  13.008
32622W        W96555   8.870   6.787  11.592
32623W        W96556  22.728   0.868  13.970
32624W        W96557  31.477   7.750   3.362
32625W        W96558  40.304  38.536   3.704
32626W        W96559   2.377  22.718   3.843
32627W        W96560  25.153  38.570  13.844
32628W        W96561  30.922  10.732   0.881
32629W        W96562   8.801   4.258   4.160
32630W        W96563   8.886   5.344   1.355
32631W        W96564  20.118  37.366  14.777
32632W        W96565  43.431  30.951   0.478
32633W        W96566  20.555  10.768  12.400
32634W        W96567   6.408  34.593  11.425
32635W        W96568  28.499  21.621   1.394
32636W        W96569  15.807  37.049  11.587
32637W        W96570  24.611  28.037   4.680
32638W        W96571   4.850  17.620   0.402
32639W        W96572  27.681  17.719  13.019
32640W        W96573   8.210   9.319  10.584
32641W        W96574  27.016  10.184   0.256
32642W        W96575  12.255   9.858  10.913
32643W        W96576  13.724  22.146   0.854
32644W        W96577   0.382  43.849  11.536
32645W        W96578  31.091  15.634   1.836
32646W        W96579  11.256  39.392   1.212
32647W        W96580   6.200   8.239   2.732
32648W        W96581   3.449   2.337   4.219
32649W        W96582   0.847  13.235   2.291
32650W        W96583  16.652  39.850   0.408
32651W        W96584   1.343   2.374   3.637
32652W        W96585   6.239  31.986  11.394
32653W        W96586   4.300   0.832   3.296
32654W        W96587   0.873   7.416  14.397
32655W        W96588  35.019  44.764  14.811
32656W        W96589   2.802  34.033   0.742
32657W        W96590   1.812  24.073   0.458
32658W        W96591   9.374  15.616  14.393
32659W        W96592  38.006   7.829   3.232
32660W        W96593  38.379  28.453   4.188
32661W        W96594  34.587  13.675  14.911
32662W        W96595   1.844  41.823  14.920
32663W        W96596  20.185  40.320  13.007
32664W        W96597  15.200   4.402   2.692
32665W        W96598   9.820  44.317   0.391
32666W        W96599  23.227  24.111  10.981
32667W        W96600  12.134  12.342  14.929
32668W        W96601  40.424   6.761   2.746
32669W        W96602  11.700   5.841   3.764
32670W        W96603  16.699  33.466   0.800
32671W        W96604  40.054  20.625  11.611
32672W        W96605   4.923  23.538   9.929
32673W        W96606  21.101  27.167   0.263
32674W        W96607  42.972  31.066  14.949
32675W        W96608  12.320  12.357  13.861
32676W        W96609  25.700  26.985   0.921
32677W        W96610  36.923  25.564   2.238
32678W        W96611  25.172  42.497   3.844
32679W        W96612  32.945  39.855  12.469
32680W        W96613   7.299  35.439  13.022
32681W        W96614   3.355   4.268  11.539
32682W        W96615   2.410  23.523   2.276
32683W        W96616   9.267  38.907  14.760
32684W        W96617  19.277  32.628  11.398
32685W        W96618   2.933  27.482  11.930
32686W        W96619  28.181  28.988   3.280
32687W        W96620   8.707  29.483   1.838
32688W        W96621   0.837  19.079  12.021
32689W        W96622  23.557  40.910  11.483
32690W        W96623  10.827  28.170   4.353
32691W        W96624  24.655  29.500   0.819
32692W        W96625  44.906  32.098   3.197
32693W        W96626  14.130  44.815   0.740
32694W        W96627  37.063  24.127  14.483
32695W        W96628  36.530  18.640  14.286
32696W        W96629  29.064  28.681   1.439
32697W        W96630   4.221  28.558  13.848
32698W        W96631  31.468  31.473   1.245
32699W        W96632   1.316  19.114  13.928
32700W        W96633  29.577   7.706  11.461
32701W        W96634  22.627  32.456  10.559
32702W        W96635  40.814   2.759  13.959
32703W        W96636   4.210  24.485   0.731
32704W        W96637  14.776  29.166  10.481
32705W        W96638  20.709  13.215  11.374
32706W        W96639  37.478  26.552  13.885
32707W        W96640   0.955  20.152   3.154
32708W        W96641   9.293   7.282   4.615
32709W        W96642  22.610  37.881  13.987
32710W        W96643  23.135  19.719  11.445
32711W        W96644  34.866  14.295  14.424
32712W        W96645  44.280  31.643   3.230
32713W        W96646   0.248  34.031   4.662
32714W        W96647   9.812  10.370  14.977
32715W        W96648   4.259  34.544   2.733
32716W        W96649  39.987  37.021  11.050
32717W        W96650  42.805  25.042  14.473
32718W        W96651   6.810  33.527  10.452
32719W        W96652  44.787   7.188  14.952
32720W        W96653  39.885  36.372  14.500
32721W        W96654  22.651  21.119  14.957
32722W        W96655  34.560  24.170   2.878
32723W        W96656  17.797  35.590  14.339
32724W        W96657  36.009   6.282  14.283
32725W        W96658  40.503  10.875   2.333
32726W        W96659  24.644  25.616  13.507
32727W        W96660  14.801  29.974   2.204
32728W        W96661   1.887  33.925  13.451
32729W        W96662  37.459  18.550  11.536
32730W        W96663  16.749  36.008   0.927
32731W        W96664   7.777  21.693   3.164
32732W        W96665  44.921  18.670   0.764
32733W        W96666  30.413   2.918  13.957
32734W        W96667  42.866  34.563   2.749
32735W        W96668  11.728  39.473  12.371
32736W        W96669  21.064  43.355   3.171
32737W        W96670  44.440  15.190  11.892
32738W        W96671  26.149  30.079  13.901
32739W        W96672   2.326   5.342  12.010
32740W        W96673  15.220  30.993  13.518
32741W        W96674  22.697  17.237   3.689
32742W        W96675  19.226   5.772   0.367
32743W        W96676   3.281  23.993   1.807
32744W        W96677  44.333  21.163  14.369
32745W        W96678  14.147  32.391  14.900
32746W        W96679  10.688  24.111  14.356
32747W        W96680   5.833  11.754   1.396
32748W        W96681  32.400  17.203  11.492
32749W        W96682   0.820  36.010  14.404
32750W        W96683  24.689  15.140   3.713
32751W        W96684  33.036  30.012  12.525
32752W        W96685  39.868  26.641  13.851
32753W        W96686  18.136  33.417  10.576
32754W        W96687  12.738  26.489  14.824
32755W        W96688  29.441  25.157   1.742
32756W        W96689  32.116  28.930  12.016
32757W        W96690  12.841  26.563  12.005
32758W        W96691  32.077  21.588  13.843
32759W        W96692  43.916   9.863   0.470
32760W        W96693   6.866  30.608   2.858
32761W        W96694   9.232  35.473   1.847
32762W        W96695  28.005  17.216   2.403
32763W        W96696  37.464   3.313   3.209
32764W        W96697   0.334  26.068  10.971
32765W        W96698  38.027  36.849   0.942
32766W        W96699   8.694  13.609  12.027
32767W        W96700   6.703  22.229   1.770
32768W        W96701  19.071  16.152   4.614
32769W        W96702  35.998  24.690  11.519
32770W        W96703  19.655  14.625  10.925
32771W        W96704  22.234  10.642  11.493
32772W        W96705  26.660   3.758  13.852
32773W        W96706  21.027  29.508  12.846
32774W        W96707  39.455   6.857  10.915
32775W        W96708  32.513  23.659  12.957
32776W        W96709  36.045  27.991   4.351
32777W        W96710  36.365  32.101  11.429
32778W        W96711  26.579  12.762  11.872
32779W        W96712  41.887  38.358   0.766
32780W        W96713  16.740  41.020  14.796
32781W        W96714  31.929  25.161   1.737
32782W        W96715  43.937  15.163  13.505
32783W        W96716   5.261  28.155   1.448
32784W        W96717  13.778  42.391  13.408
32785W        W96718  10.310  44.465   2.801
32786W        W96719  10.190  14.175   0.839
32787W        W96720  14.094   1.764   2.785
32788W        W96721  33.064  36.895   0.448
32789W        W96722  11.766   6.914  12.929
32790W        W96723   7.242  28.187   4.760
32791W        W96724   0.266  10.690   1.912
32792W        W96725  21.040  10.381   0.791
32793W        W96726   7.771  19.599  13.379
32794W        W96727  25.498  31.943   2.416
32795W        W96728  15.177  35.441  13.006
32796W        W96729  41.361   3.806   3.383
32797W        W96730  37.067  41.890   4.722
32798W        W96731  36.883  14.151   3.354
32799W        W96732  28.484  33.911   1.441
32800W        W96733  21.650  12.668   2.181
32801W        W96734  13.159  32.016   4.825
32802W        W96735  41.897  31.585  11.441
32803W        W96736   3.865  24.642  13.995
32804W        W96737  30.590  12.146   2.677
32805W        W96738  33.938  11.280  13.432
32806W        W96739  40.440  21.086  10.131
32807W        W96740   0.932  36.963   2.409
32808W        W96741   6.313  15.237  14.292
32809W        W96742  14.229  41.914   5.134
32810W        W96743  39.344  25.983   3.856
32811W        W96744  19.070  43.890   4.741
32812W        W96745  43.327   4.338  12.012
32813W        W96746   1.267  21.745   3.188
32814W        W96747  20.638  24.226   4.125
32815W        W96748   1.387   2.935   3.672
32816W        W96749  41.033  31.503  11.025
32817W        W96750   4.401   0.331  10.497
32818W        W96751   9.151  34.393  12.448
32819W        W96752  32.596  40.326   1.259
32820W        W96753  39.008  39.471   1.782
32821W        W96754  29.027  28.665   0.457
32822W        W96755  20.574  32.429   1.849
32823W        W96756  33.021  17.278  14.365
32824W        W96757  10.663  18.074  13.806
32825W        W96758   4.760  13.773  11.942
32826W        W96759  11.686  40.030   4.758
32827W        W96760  18.606   7.311   1.811
32828W        W96761  31.988   7.790   4.344
32829W        W96762  12.300   5.429  10.419
32830W        W96763  14.802  44.763  12.050
32831W        W96764  15.643  35.438   9.969
32832W        W96765   0.284  15.732   0.327
32833W        W96766  39.938  30.035  13.873
32834W        W96767   9.362  27.483   2.720
32835W        W96768  10.815  31.578   3.153
32836W        W96769  43.966   8.269   3.222
32837W        W96770  31.404  16.142   3.363
32838W        W96771  27.543   9.315  14.807
32839W        W96772  10.292  27.128  13.801
32840W        W96773  19.749  20.643  14.428
32841W        W96774  37.904  17.246   0.960
32842W        W96775  25.651  12.736  14.992
32843W        W96776  34.107  23.131  11.456
32844W        W96777   3.366  24.579   3.634
32845W        W96778   5.725  22.011  13.857
32846W        W96779  25.493  29.649  12.455
32847W        W96780  33.384   5.878   0.383
32848W        W96781  27.562  14.099   3.679
32849W        W96782   1.750   9.820   1.765
32850W        W96783   9.357  30.481  12.564
32851W        W96784  29.163  39.334   0.830
32852W        W96785   1.378   6.397   3.685
32853W        W96786  37.406   9.646  10.474
32854W        W96787  23.580   3.883  13.057
32855W        W96788  39.969  43.837  12.572
32856W        W96789  33.118  33.973  12.004
32857W        W96790   8.770  10.874  14.326
32858W        W96791  30.073  36.533  14.816
32859W        W96792  12.175  12.780  13.319
32860W        W96793  26.056  19.750  14.426
32861W        W96794  23.206  38.516  12.038
32862W        W96795   9.865   8.740  14.794
32863W        W96796  37.965  35.489   2.708
32864W        W96797  25.488  11.196   1.416
32865W        W96798  32.452  27.461   3.257
32866W        W96799  30.135   9.298  11.964
32867W        W96800   0.269  10.720   0.268
32868W        W96801  23.075  32.419   0.966
32869W        W96802  41.518  26.991   1.311
32870W        W96803  19.624  23.675  11.458
32871W        W96804  26.508  27.015   0.871
32872W        W96805  32.401   5.891   0.274
32873W        W96806  43.431   8.299   1.229
32874W        W96807  16.313  15.301   1.796
32875W        W96808  40.494  11.270   3.688
32876W        W96809  17.069   2.821  10.480
32877W        W96810  36.952  21.721  13.380
32878W        W96811  34.603  34.598  11.012
32879W        W96812   9.333   0.798   4.311
32880W        W96813   1.895   6.899  13.809
32881W        W96814  37.551   0.287   4.746
32882W        W96815  42.862   7.220   2.744
32883W        W96816  43.805  10.274   1.830
32884W        W96817  17.603   2.372   0.346
32885W        W96818   7.241  44.360  10.540
32886W        W96819  21.522   8.780   4.287
32887W        W96820  38.916  29.959  10.101
32888W        W96821  33.489  10.357   3.678
32889W        W96822  38.472  33.890   0.461
32890W        W96823  33.912   1.805   2.822
32891W        W96824  32.004  19.706   4.147
32892W        W96825  12.740  13.727  12.954
32893W        W96826   0.887  16.691  12.952
32894W        W96827  36.856  19.768   2.216
32895W        W96828  38.523  18.176   1.759
32896W        W96829  36.574  15.729  13.405
32897W        W96830  12.161  44.943   0.888
32898W        W96831  11.836  22.672  12.017
32899W        W96832  30.094  24.694   4.725
32900W        W96833  36.042  17.067   4.742
32901W        W96834  15.118  27.991  13.407
32902W        W96835  44.994  17.769   3.300
32903W        W96836  16.741  40.009   3.222
32904W        W96837   3.259  13.609   2.693
32905W        W96838  19.074  38.421   3.303
32906W        W96839  34.050  27.179   4.637
32907W        W96840  27.125  33.595   1.871
32908W        W96841  24.582  13.697   2.896
32909W        W96842  19.552  23.531  13.918
32910W        W96843  29.030  32.132   0.458
32911W        W96844  27.489  13.281   2.820
32912W        W96845   3.423   5.695  12.860
32913W        W96846   3.245  40.453   1.300
32914W        W96847  32.945   6.396  11.384
32915W        W96848  21.017  41.514   4.238
32916W        W96849   4.826   8.736  14.898
32917W        W96850  42.841   4.373  11.560
32918W        W96851  13.162  32.549   1.443
32919W        W96852  10.791  34.092  13.827
32920W        W96853  24.642  43.884   1.321
32921W        W96854  24.632  11.827   1.818
32922W        W96855  16.588  38.904  13.972
32923W        W96856  38.061  41.384  11.499
32924W        W96857   7.782  43.804   4.316
32925W        W96858  27.505  42.858   2.818
32926W        W96859  44.355  28.626  11.087
32927W        W96860  20.189  23.012  14.900
32928W        W96861  21.150  19.627   1.897
32929W        W96862  17.147  37.834  11.576
32930W        W96863  40.987   7.770   0.373
32931W        W96864  13.165  43.447   2.396
32932W        W96865  37.358  18.190  12.923
32933W        W96866  33.442  22.130   0.247
32934W        W96867  11.202   5.922  11.398
32935W        W96868  17.226  35.915  11.445
32936W        W96869   6.232  22.239  12.534
32937W        W96870  26.059  20.608   1.374
32938W        W96871  39.974  39.465  10.420
32939W        W96872  36.420  41.528   3.299
32940W        W96873  20.707  38.908  10.573
32941W        W96874  26.595  15.327   3.746
32942W        W96875  32.391  33.396   2.346
32943W        W96876   1.872   8.698   3.841
32944W        W96877  43.342  13.240  12.974
32945W        W96878   6.319   1.863   4.623
32946W        W96879   3.369   1.248  12.961
32947W        W96880  34.554  14.823  12.881
32948W        W96881  27.649  35.466   0.950
32949W        W96882  10.688   2.946   0.408
32950W        W96883   5.858   2.250   5.084
32951W        W96884   1.910  32.527  14.886
32952W        W96885  28.610  31.645  10.543
32953W        W96886  28.461  19.682  13.936
32954W        W96887   3.955  24.601   3.149
32955W        W96888  41.532  33.130  12.849
32956W        W96889  23.225  39.818   4.299
32957W        W96890   6.303  12.615  14.354
32958W        W96891  21.593  41.519  11.587
32959W        W96892  36.961  17.625  11.459
32960W        W96893  42.843  15.765  14.290
32961W        W96894   5.727  28.069  12.901
32962W        W96895   7.198  23.615  13.828
32963W        W96896  38.339  23.523  14.381
32964W        W96897  39.885  23.655   0.482
32965W        W96898  20.598  29.663   3.674
32966W        W96899  23.543  29.929   3.280
32967W        W96900  30.006  31.025  14.855
32968W        W96901   6.901  28.677   0.739
32969W        W96902   6.859  43.772  13.314
32970W        W96903   2.301   9.822  11.443
32971W        W96904  15.620   4.213  14.810
32972W        W96905  42.458  44.882   3.333
32973W        W96906  27.608   4.863  13.384
32974W        W96907  33.523  40.505  12.494
32975W        W96908  34.002  20.527   0.859
32976W        W96909  19.617  38.325   1.932
32977W        W96910  36.467  36.490  14.950
32978W        W96911   4.391   8.319   2.739
32979W        W96912   0.925  14.613  14.411
32980W        W96913  33.063  31.438  10.635
32981W        W96914   8.877  17.591  12.517
32982W        W96915  16.247   8.314   0.966
32983W        W96916  38.435  35.560   2.750
32984W        W96917  16.143  40.943  11.036
32985W        W96918  30.540  27.185  14.277
32986W        W96919   6.237  38.949   2.821
32987W        W96920  41.960  34.544   3.768
32988W        W96921  38.339  32.035  12.383
32989W        W96922  43.022  34.568  11.601
32990W        W96923   2.925  14.758  14.296
32991W        W96924  20.229   2.252  12.387
32992W        W96925  43.836  30.137  12.513
32993W        W96926  18.128  17.275   3.374
32994W        W96927  29.079   3.815  11.598
32995W        W96928  12.826   3.896  12.433
32996W        W96929  28.071  21.046   2.415
32997W        W96930  37.071  23.125   3.220
32998W        W96931  43.972  33.020   4.728
32999W        W96932   6.371  34.610  14.433
33000W        W96933  13.725   0.929   0.332
33001W        W96934   9.806  43.846   4.156
33002W        W96935  10.291  16.568   1.364
33003W        W96936  27.619  44.853  13.842
33004W        W96937  20.158  38.539  11.003
33005W        W96938  36.067  40.314   4.119
33006W        W96939  41.388  31.540   4.757
33007W        W96940  34.946   8.875   0.963
33008W        W96941   2.918  29.977   0.330
33009W        W96942  25.554   7.683  10.468
33010W        W96943  28.148  17.590   1.730
33011W        W96944  30.141   8.812   3.718
33012W        W96945  24.179  30.140  10.641
33013W        W96946  43.853  38.819  14.819
33014W        W96947  10.810  42.459   2.302
33015W        W96948   6.325  13.658  13.319
33016W        W96949  20.754  24.210  12.989
33017W        W96950  11.808  44.276   0.963
33018W        W96951  37.838  22.007   0.310
33019W        W96952  12.342  23.037  11.941
33020W        W96953   9.757  10.321   1.428
33021W        W96954  25.591  10.647  12.837
33022W        W96955   3.379   5.767  10.964
33023W        W96956  10.238  28.541   4.257
33024W        W96957  28.025  35.990   4.274
33025W        W96958  41.480  37.339   4.124
33026W        W96959  13.246  11.627   1.745
33027W        W96960  14.659  12.304   2.757
33028W        W96961  27.116  14.699  12.842
33029W        W96962  44.291  39.864   1.369
33030W        W96963  10.826  10.274  13.375
33031W        W96964  26.534  41.389  14.409
33032W        W96965   2.837  36.899  13.022
33033W        W96966  11.747  10.346   1.856
33034W        W96967  38.822  35.912   3.155
33035W        W96968  21.257  16.630  11.429
33036W        W96969  26.976   2.368  10.140
33037W        W96970   3.445  39.493   4.635
33038W        W96971   6.383  30.498  14.421
33039W        W96972  34.941   8.720   3.384
33040W        W96973  43.407  19.757   3.243
33041W        W96974  11.645  44.936  12.904
33042W        W96975  30.028  44.316   0.283
33043W        W96976   8.847   6.182  10.901
33044W        W96977  32.610  32.570   1.401
33045W        W96978  11.327   7.901   4.345
33046W        W96979  15.227  24.055   2.666
33047W        W96980  17.745  14.636  14.899
33048W        W96981  44.792  36.398  14.797
33049W        W96982  41.386   6.273   2.740
33050W        W96983  33.891  13.138   2.768
33051W        W96984  42.438  28.092   1.709
33052W        W96985   9.868   4.210   1.719
33053W        W96986  43.851  15.787   2.778
33054W        W96987  22.580   6.734  11.421
33055W        W96988  37.380   8.273  12.010
33056W        W96989  19.057  18.583  11.881
33057W        W96990   4.744  14.255   4.311
33058W        W96991  40.510  18.723  13.398
33059W        W96992   1.822  23.590   0.279
33060W        W96993  30.968  38.566  13.986
33061W        W96994  15.659  17.713   5.673
33062W        W96995  25.135  23.659   1.728
33063W        W96996  20.631  15.584  10.903
33064W        W96997  24.489  19.180  11.371
33065W        W96998  35.556  38.826  13.858
33066W        W96999  33.126  13.754  12.970
33067W        W97000  37.986  15.158   3.797
33068W        W97001  20.124  39.419  12.037
33069W        W97002  38.039  33.538   3.230
33070W        W97003  43.850  34.053  11.059
33071W        W97004  17.785  38.982  14.798
33072W        W97005   4.249   3.903  13.360
33073W        W97006  42.316  40.902  11.587
33074W        W97007  36.561  22.119  13.058
33075W        W97008  28.122   8.318  14.986
33076W        W97009  39.979   5.933  12.526
33077W        W97010  19.047   5.359   3.157
33078W        W97011  30.509   3.920   5.134
33079W        W97012  24.593  17.101   4.187
33080W        W97013   7.678  14.291  11.092
33081W        W97014   6.249  10.284   3.630
33082W        W97015  39.553  11.208  12.859
33083W        W97016  30.535  30.974   4.331
33084W        W97017   0.273  44.420   2.666
33085W        W97018  11.322  18.673   1.922
33086W        W97019  17.802  40.842  11.106
33087W        W97020  36.525  43.273  12.525
33088W        W97021  13.620  36.969  12.038
33089W        W97022  12.216  23.210   3.859
33090W        W97023  29.955  35.976  13.835
33091W        W97024  39.862   9.300   0.848
33092W        W97025   2.364   5.438  14.496
33093W        W97026  26.648  30.942   5.090
33094W        W97027  13.641  35.887  14.323
33095W        W97028  22.119  32.107   5.287
33096W        W97029  10.800  34.116  11.868
33097W        W97030  31.504  30.561   2.344
33098W        W97031   2.825  27.475  14.403
33099W        W97032  32.622  25.010   1.384
33100W        W97033  34.446  19.176   1.855
33101W        W97034  20.076  35.502  12.476
33102W        W97035  42.953  23.149   2.847
33103W        W97036  42.779  30.580  12.341
33104W        W97037  16.689  17.570  14.992
33105W        W97038  41.957  25.999   2.327
33106W        W97039  14.107  17.212   1.884
33107W        W97040  17.725  30.594  12.482
33108W        W97041  38.372  44.874  14.437
33109W        W97042  25.579  11.727  10.016
33110W        W97043  15.818   7.781   0.946
33111W        W97044  26.621  12.228   3.297
33112W        W97045  23.657  34.443   4.772
33113W        W97046  40.055  31.986   4.731
33114W        W97047  37.990   2.383  12.050
33115W        W97048  12.733  14.709   0.333
33116W        W97049  42.406   0.397   2.824
33117W        W97050  20.230  28.549  12.075
33118W        W97051  33.921   5.881   3.183
33119W        W97052   8.401   4.890   0.303
33120W        W97053   4.887  29.536  14.289
33121W        W97054  24.993   1.859  10.907
33122W        W97055  40.907  28.640   4.318
33123W        W97056  11.228  22.684  14.027
33124W        W97057  23.725  29.577   4.306
33125W        W97058  12.254  17.136   0.848
33126W        W97059  31.129   8.233  13.417
33127W        W97060  20.636  37.362   4.792
33128W        W97061   6.352  35.057   3.262
33129W        W97062  22.505  29.549   2.254
33130W        W97063  36.017  38.016  14.453
33131W        W97064  20.740  40.953  10.488
33132W        W97065  36.357  36.473  12.464
33133W        W97066  35.104   8.393  11.530
33134W        W97067  24.035   8.172  13.859
33135W        W97068  28.047  35.002   3.794
33136W        W97069  11.824  32.974   2.219
33137W        W97070  43.841  27.626  14.292
33138W        W97071  19.237  32.614   4.197
33139W        W97072  42.924  39.996   3.752
33140W        W97073  38.485   7.217  14.381
33141W        W97074  13.718   3.226  14.471
33142W        W97075  10.195  31.638  11.386
33143W        W97076  38.040  42.838   3.822
33144W        W97077  10.199   2.947  13.389
33145W        W97078  31.455   5.302   2.671
33146W        W97079   7.673  27.656  14.957
33147W        W97080  35.853  42.816   4.832
33148W        W97081  39.865  20.041  13.004
33149W        W97082  15.099  36.371  11.926
33150W        W97083  26.133  17.129  11.928
33151W        W97084  39.475  23.678  13.507
33152W        W97085  43.824  40.431   0.325
33153W        W97086  40.406  18.597   0.371
33154W        W97087  41.860  19.148   0.262
33155W        W97088  22.556  15.314   3.383
33156W        W97089  27.645  44.484  10.901
33157W        W97090  42.993   7.369   1.892
33158W        W97091  26.545  40.798  11.399
33159W        W97092  42.488  42.929  11.493
33160W        W97093  10.260  38.942  10.568
33161W        W97094  10.339  11.345  10.495
33162W        W97095   1.934  35.460  12.048
33163W        W97096   8.756  39.985   0.306
33164W        W97097  23.031  26.167  14.343
33165W        W97098  22.647   3.922   2.809
33166W        W97099  41.033  40.908  12.343
33167W        W97100  32.032  41.459  12.399
33168W        W97101  41.923   7.743   2.684
33169W        W97102  43.962  12.805  10.934
33170W        W97103   5.709   0.322   1.286
33171W        W97104  35.004  22.608  13.410
33172W        W97105   9.240   8.261  10.939
33173W        W97106  12.340  16.655  10.555
33174W        W97107  29.035  42.809  12.446
33175W        W97108  41.384  26.458   0.911
33176W        W97109  18.153  41.857  12.367
33177W        W97110  39.486  34.077  14.449
33178W        W97111  14.723   6.895   2.710
33179W        W97112  16.796  16.675   4.635
33180W        W97113  31.939  37.399  13.497
33181W        W97114  37.490  27.476  11.946
33182W        W97115   6.206   1.247  13.875
33183W        W97116   9.885  14.242  12.068
33184W        W97117  26.587  26.683   3.750
33185W        W97118   6.717   3.323  11.587
33186W        W97119  39.532  14.295  13.457
33187W        W97120  11.657   8.669  11.579
33188W        W97121  33.009  28.555   2.380
33189W        W97122  41.987  20.543   3.669
33190W        W97123  11.708  15.238   3.168
33191W        W97124   4.793  27.510   2.691
33192W        W97125  20.606  23.989   1.748
33193W        W97126  27.589  21.601   4.159
33194W        W97127   8.298  16.315   2.850
33195W        W97128  19.727  12.214   1.260
33196W        W97129  20.097   1.819   9.978
33197W        W97130  15.635   6.389   1.388
33198W        W97131  35.479  14.684  11.504
33199W        W97132  17.646  24.171   4.117
33200W        W97133  36.401   3.873  14.333
33201W        W97134   7.363   5.360   4.170
33202W        W97135   5.929  18.745   3.660
33203W        W97136  22.710   4.927  12.064
33204W        W97137  36.564  12.201  12.942
33205W        W97138  38.377   5.391  11.893
33206W        W97139   6.228  41.825   1.729
33207W        W97140  37.972  10.357   1.438
33208W        W97141  38.430  21.255  12.071
33209W        W97142   8.784  26.653   0.764
33210W        W97143  40.991  33.107  10.889
33211W        W97144  42.801   7.385   4.776
33212W        W97145  41.999  44.398   3.315
33213W        W97146  24.539  42.898   2.757
33214W        W97147  36.370  20.598  13.307
33215W        W97148  26.204  36.530  10.509
33216W        W97149  34.874   5.407   0.762
33217W        W97150  35.081   3.769  12.010
33218W        W97151  42.893  27.596   1.410
33219W        W97152   9.763  36.902   3.327
33220W        W97153  31.452   9.177  11.088
33221W        W97154   4.250  43.490   2.327
33222W        W97155  40.456  42.783  11.468
33223W        W97156  31.986  18.727  10.460
33224W        W97157  38.844  11.645  12.442
33225W        W97158  28.952  12.312  11.090
33226W        W97159  17.670  22.019   3.236
33227W        W97160   9.160  30.440  11.443
33228W        W97161  35.029   8.847   4.735
33229W        W97162  17.568   7.775   4.701
33230W        W97163  14.736  42.912   3.720
33231W        W97164  38.075  44.941  12.063
33232W        W97165   6.408  27.687   3.210
33233W        W97166   2.769  12.622   0.375
33234W        W97167  21.645  16.635  13.879
33235W        W97168  42.785  37.005  11.089
33236W        W97169  26.540  30.156  11.387
33237W        W97170  37.861  21.219   4.687
33238W        W97171  33.983  42.883  12.074
33239W        W97172  15.235  15.199   3.281
33240W        W97173  16.568  19.248   4.316
33241W        W97174   3.370   3.939   0.920
33242W        W97175   9.272  11.196   4.263
33243W        W97176  43.991  12.849   2.365
33244W        W97177  18.730  34.577  11.067
33245W        W97178  43.348  42.438  12.024
33246W        W97179  19.558  30.926  12.897
33247W        W97180  21.683  21.188  12.023
33248W        W97181   1.379  20.651  12.077
33249W        W97182   7.399  22.146  10.918
33250W        W97183  32.618  21.530   4.682
33251W        W97184  18.648  34.455   3.355
33252W        W97185  12.250  43.377  11.123
33253W        W97186   9.386  39.362  12.376
33254W        W97187  17.685   6.351  11.978
33255W        W97188  21.572  44.264  13.416
33256W        W97189   4.812  42.345  12.056
33257W        W97190  11.801  28.048   1.731
33258W        W97191  22.735  32.979   4.732
33259W        W97192  40.881  34.081  14.492
33260W        W97193  25.537  22.738   0.468
33261W        W97194  43.440   4.287   2.792
33262W        W97195  42.299  18.643  12.394
33263W        W97196  26.664  33.031  14.946
33264W        W97197  11.722   0.437  14.479
33265W        W97198  32.420   6.271  10.493
33266W        W97199  17.597  21.220  12.402
33267W        W97200  31.553   6.365  14.332
33268W        W97201  37.499  13.136  14.404
33269W        W97202  11.714  41.969   2.257
33270W        W97203  25.649   7.667   3.689
33271W        W97204  34.567  17.588  11.127
33272W        W97205  22.591  22.047  14.812
33273W        W97206  15.678  12.647   0.371
33274W        W97207  28.644  18.091  11.034
33275W        W97208  43.316  13.201   3.191
33276W        W97209  44.324  29.574  14.758
33277W        W97210  15.084  29.478   0.363
33278W        W97211   6.375  23.047  11.587
33279W        W97212  13.760  41.870   2.868
33280W        W97213  33.995   7.390  12.842
33281W        W97214  40.848  10.258   3.794
33282W        W97215  36.560   7.824  13.404
33283W        W97216  17.586  12.265   4.339
33284W        W97217  42.926  11.209  14.316
33285W        W97218  15.311  27.134  14.443
33286W        W97219  16.583  29.466   2.350
33287W        W97220  41.497  28.061   2.327
33288W        W97221  44.938   0.931  13.953
33289W        W97222  42.018   5.790   1.847
33290W        W97223   8.381  28.142   1.265
33291W        W97224  36.887   5.805   4.720
33292W        W97225  42.477   6.325  12.933
33293W        W97226  30.597  21.055   4.701
33294W        W97227  41.033  37.945   2.791
33295W        W97228  27.632  15.169   1.257
33296W        W97229  13.772  36.892   0.860
33297W        W97230   7.805  15.314  12.039
33298W        W97231  13.114  20.270  10.930
33299W        W97232  12.793  19.562  14.294
33300W        W97233  20.223   0.468   4.260
33301W        W97234  27.059  41.393  13.385
33302W        W97235  20.264  35.488  12.906
33303W        W97236  10.699  34.397   1.230
33304W        W97237   8.789  42.784   0.921
33305W        W97238   8.893  11.322   2.694
33306W        W97239  40.327  41.371  14.916
33307W        W97240  32.082  14.741   4.154
33308W        W97241   5.384  27.003   1.738
33309W        W97242   3.332  13.259   4.116
33310W        W97243  18.584   4.425  12.544
33311W        W97244   3.461  41.844   0.890
33312W        W97245  28.614   1.969  14.838
33313W        W97246   0.810  27.046  12.580
33314W        W97247  35.068  25.984  12.518
33315W        W97248  43.771  33.980   3.851
33316W        W97249  27.057  10.706   3.652
33317W        W97250  28.183  15.169   0.370
33318W        W97251  13.701  20.069  11.935
33319W        W97252  12.714  22.613  12.035
33320W        W97253  29.946  29.431   0.889
33321W        W97254  16.119  31.600   0.371
33322W        W97255  34.954  31.088  12.833
33323W        W97256  15.235  37.351  13.828
33324W        W97257   0.956  23.158  13.347
33325W        W97258  18.254  34.976   3.159
33326W        W97259  43.812  37.997   3.685
33327W        W97260  24.618  35.451  13.525
33328W        W97261  17.788  44.952  13.315
33329W        W97262  18.064  24.021   3.668
33330W        W97263  26.500  32.895   4.165
33331W        W97264  15.778   9.736   2.236
33332W        W97265  21.121  18.570  12.824
33333W        W97266  12.729   8.252  14.366
33334W        W97267   4.429  38.529   2.677
33335W        W97268   4.243  29.650   1.816
33336W        W97269  39.394  27.645   3.695
33337W        W97270  29.508  43.362  10.074
33338W        W97271   6.233  24.591  12.001
33339W        W97272   2.379  16.204  13.364
33340W        W97273  33.565  19.262  11.560
33341W        W97274  22.207  10.205  10.512
33342W        W97275  39.313  31.446  11.924
33343W        W97276  22.161  43.828   0.929
33344W        W97277  20.106   1.964   4.812
33345W        W97278  25.521  42.395  11.537
33346W        W97279  38.413  31.607   0.851
33347W        W97280   3.361  31.561   4.136
33348W        W97281  34.612  39.544   1.316
33349W        W97282  11.333  13.742   4.169
33350W        W97283  42.287  20.522   0.356
33351W        W97284  36.378  27.058   4.315
33352W        W97285  39.968  39.361   3.227
33353W        W97286   5.320  23.558  14.832
33354W        W97287  41.466  10.871   2.402
33355W        W97288  43.835  13.157  10.591
33356W        W97289  21.560  42.404  11.413
33357W        W97290   4.736  30.004   2.794
33358W        W97291  18.730  44.270  10.904
33359W        W97292  40.313  20.186   0.895
33360W        W97293  33.604  41.306  11.002
33361W        W97294   4.876   4.832   3.666
33362W        W97295  22.649   3.809   3.317
33363W        W97296   0.782   3.214   2.345
33364W        W97297  29.578  27.667   3.369
33365W        W97298  14.742  12.361   0.796
33366W        W97299  29.969  24.658  14.297
33367W        W97300  15.750   3.815   1.912
33368W        W97301  25.076  27.532  11.390
33369W        W97302  33.529  37.087  12.894
33370W        W97303  39.420   3.805  11.968
33371W        W97304   1.339  19.695   4.809
33372W        W97305  23.990  35.952  10.496
33373W        W97306  43.794  30.077   0.422
33374W        W97307  37.481  24.493   3.647
33375W        W97308  27.979   2.403  14.780
33376W        W97309  24.495  35.509  13.891
33377W        W97310  39.919  31.537  14.353
33378W        W97311  28.516  14.649  12.979
33379W        W97312  18.234  16.162   5.090
33380W        W97313  26.043  13.789  12.901
33381W        W97314  31.456  40.867   2.903
33382W        W97315   5.768  33.461   2.712
33383W        W97316   6.357   3.743   3.367
33384W        W97317   6.287  40.533  14.839
33385W        W97318  41.416  31.437  14.462
33386W        W97319  26.162   9.667  10.437
33387W        W97320  14.828  14.235  12.979
33388W        W97321  37.412  36.073   4.740
33389W        W97322   1.889  33.883   0.814
33390W        W97323  16.264  14.767   2.387
33391W        W97324  13.606  27.493   1.322
33392W        W97325   2.378  12.146  14.003
33393W        W97326  42.830  37.900   4.721
33394W        W97327  25.048   5.711  10.618
33395W        W97328  14.658  41.830   0.837
33396W        W97329  39.843  17.266  10.637
33397W        W97330  43.939   6.869  13.952
33398W        W97331  40.415  43.800  10.638
33399W        W97332  37.577  40.521   0.848
33400W        W97333  43.978  40.830  14.495
33401W        W97334  38.504  38.531   2.202
33402W        W97335  25.703  19.170   3.325
33403W        W97336  15.244  13.329   1.742
33404W        W97337   3.853  24.636   1.311
33405W        W97338  35.043   1.450   3.307
33406W        W97339   5.317  33.536   3.652
33407W        W97340  29.592   4.213  13.895
33408W        W97341  36.574  10.862   2.333
33409W        W97342  34.983  12.624  10.998
33410W        W97343   0.867  12.784  14.460
33411W        W97344  21.093  21.115   4.701
33412W        W97345  35.969  39.879   0.936
33413W        W97346   6.225  17.781  13.799
33414W        W97347  28.578  39.431   0.294
33415W        W97348  34.101  27.551  13.517
33416W        W97349   8.857  22.141  12.518
33417W        W97350   7.863  43.941  13.391
33418W        W97351  41.429  32.571   2.322
33419W        W97352  17.142   1.450   2.215
33420W        W97353   6.365  36.868  14.805
33421W        W97354  13.656   3.784   4.617
33422W        W97355  38.822   7.844   5.170
33423W        W97356   5.865   8.282  10.421
33424W        W97357   8.164  23.647  10.102
33425W        W97358  40.316  41.911  14.846
33426W        W97359   2.854  25.657  12.966
33427W        W97360  37.842  11.865   3.345
33428W        W97361  26.052  18.658   4.719
33429W        W97362   3.368  27.485   0.421
33430W        W97363  17.103  36.433  11.021
33431W        W97364  27.470  44.349   1.921
33432W        W97365   5.215  23.168   0.459
33433W        W97366  40.417  35.916   2.663
33434W        W97367  10.269  33.503   1.360
33435W        W97368  36.855  23.508  12.573
33436W        W97369   7.744   8.721   1.255
33437W        W97370  21.625  17.161   9.920
33438W        W97371   9.361  30.145   0.327
33439W        W97372  14.146  40.368   3.349
33440W        W97373  38.055  37.952   2.355
33441W        W97374  18.284   9.152   0.302
33442W        W97375   3.419  26.075   2.881
33443W        W97376  22.137  12.250  13.516
33444W        W97377  43.014  19.634   4.128
33445W        W97378  17.662  31.502   0.462
33446W        W97379  10.692   8.287   4.124
33447W        W97380  25.469  40.505   4.217
33448W        W97381  41.415  25.172   2.202
33449W        W97382  37.068  18.677   1.840
33450W        W97383  18.185   2.257   0.282
33451W        W97384  14.146  37.078   4.600
33452W        W97385  11.217  19.164   1.436
33453W        W97386  33.065  38.943   0.966
33454W        W97387   1.950  20.702   2.299
33455W        W97388  10.710  27.447  12.919
33456W        W97389  41.356  11.737  13.421
33457W        W97390  39.024  14.673   4.130
33458W        W97391  18.266   5.903   0.287
33459W        W97392  31.997  17.671   3.203
33460W        W97393  22.250  34.503   2.306
33461W        W97394  43.791  30.586   2.844
33462W        W97395  19.068  27.505  13.415
33463W        W97396  19.230  33.564   3.209
33464W        W97397  19.104  26.951   0.811
33465W        W97398  43.356  35.904  13.444
33466W        W97399  12.651   5.734   2.410
33467W        W97400  21.576  31.119  13.398
33468W        W97401   7.903  10.162  10.081
33469W        W97402  29.631   5.700   3.761
33470W        W97403  29.063   8.247  10.502
33471W        W97404  42.827  17.664  12.557
33472W        W97405  40.363   8.752  14.766
33473W        W97406  30.644   6.717   2.218
33474W        W97407  36.558  15.721   3.860
33475W        W97408  44.413  25.195  12.824
33476W        W97409  31.126   1.831   1.407
33477W        W97410  21.227  12.666  11.919
33478W        W97411   5.894  16.207   4.163
33479W        W97412  15.178  28.448   1.887
33480W        W97413  30.592   4.903  10.621
33481W        W97414  31.122   6.735   3.206
33482W        W97415  40.549  14.679  12.429
33483W        W97416  18.707  10.215   3.642
33484W        W97417  42.476  19.089  12.579
33485W        W97418  34.916  23.566  10.420
33486W        W97419  16.717  28.006  13.315
33487W        W97420  10.782  14.638   1.728
33488W        W97421  37.511  26.151  11.939
33489W        W97422   4.365   6.739  14.450
33490W        W97423  32.616  32.039   4.180
33491W        W97424   5.712  26.157   4.602
33492W        W97425  25.617  28.569  11.057
33493W        W97426  32.432   7.911  12.407
33494W        W97427   0.453   3.947   1.339
33495W        W97428  19.090  18.741   0.901
33496W        W97429  17.735  34.044  14.786
33497W        W97430  29.993   4.806  13.931
33498W        W97431  32.024  21.088   4.191
33499W        W97432  37.837  39.035  13.005
33500W        W97433  27.177   3.234  12.950
33501W        W97434  20.197  30.992  13.389
33502W        W97435  19.761  30.163   1.725
33503W        W97436   2.370  43.993  12.987
33504W        W97437  38.422   0.340   3.690
33505W        W97438   5.385  35.484  13.372
33506W        W97439  40.982  26.586  10.898
33507W        W97440  18.575   8.192  12.548
33508W        W97441  36.372  30.162  11.070
33509W        W97442  16.313   4.743  14.436
33510W        W97443  19.282  24.541  12.513
33511W        W97444  22.168  21.113   1.288
33512W        W97445  20.530   0.947   1.363
33513W        W97446  19.174  39.422  12.836
33514W        W97447  15.632  22.508   2.377
33515W        W97448   3.287  23.581   1.916
33516W        W97449  33.029  29.048  10.590
33517W        W97450  41.309  44.777   1.273
33518W        W97451  10.695  16.732  14.302
33519W        W97452  36.472   7.866  10.966
33520W        W97453  39.448   5.705  11.562
33521W        W97454  34.612   2.786   3.323
33522W        W97455   7.292  35.600   4.347
33523W        W97456  22.120  34.071  11.944
33524W        W97457  30.634  27.056  10.468
33525W        W97458  36.589  20.652  12.399
33526W        W97459  29.170  12.168  14.764
33527W        W97460  27.678  16.087   2.328
33528W        W97461  10.268  36.428  11.966
33529W        W97462  40.524   3.931   1.878
33530W        W97463   0.264  23.491   1.824
33531W        W97464   7.720  34.531  10.602
33532W        W97465   4.726  18.756  13.905
33533W        W97466  12.763  20.171   0.844
33534W        W97467   3.350  35.486   3.324
33535W        W97468   8.334  27.171  13.363
33536W        W97469  44.477  35.556   2.893
33537W        W97470  32.596   6.734  12.977
33538W        W97471  25.105  38.490  14.465
33539W        W97472  16.297  35.042   0.256
33540W        W97473  18.134   6.230  10.425
33541W        W97474  27.484  32.043  11.948
33542W        W97475  31.039   2.849  10.441
33543W        W97476  14.125  27.159   4.285
33544W        W97477   1.455   9.676   2.336
33545W        W97478  38.448   8.347  11.398
33546W        W97479  15.212   8.745   1.277
33547W        W97480   0.884  22.186   1.912
33548W        W97481  18.726  26.590  12.443
33549W        W97482  32.063  34.464   2.326
33550W        W97483  13.306  26.502  10.633
33551W        W97484  31.132  44.446  12.379
33552W        W97485  36.483  27.180  11.985
33553W        W97486  34.914  21.556   0.739
33554W        W97487  27.689  43.015   2.233
33555W        W97488   1.255  40.325  12.413
33556W        W97489   1.297   4.410  12.428
33557W        W97490   7.372  42.411  14.453
33558W        W97491  28.519   5.689   2.217
33559W        W97492  21.195  15.671   2.876
33560W        W97493   1.758  28.443  12.543
33561W        W97494  33.602  27.619   1.368
33562W        W97495   2.805  36.968   0.905
33563W        W97496  18.657   3.909  13.800
33564W        W97497  40.486  19.760  14.789
33565W        W97498  17.203   9.304   0.421
33566W        W97499  37.526  19.669   3.193
33567W        W97500   6.293   2.260  12.575
33568W        W97501   9.381  30.110   4.797
33569W        W97502  39.455  35.053   4.712
33570W        W97503   6.381  20.250  12.830
33571W        W97504  28.165   8.781  13.374
33572W        W97505   8.723   6.874   4.699
33573W        W97506  36.515   5.331   3.337
33574W        W97507   9.868  24.486  11.483
33575W        W97508  31.609  35.470   3.841
33576W        W97509   8.731  11.857   0.252
33577W        W97510  37.491  42.492  12.533
33578W        W97511  32.001  18.738  11.578
33579W        W97512  28.025  11.623   0.400
33580W        W97513  44.925  15.158   0.356
33581W        W97514  31.996  10.143   1.237
33582W        W97515  21.258  25.012   0.388
33583W        W97516  22.543  33.887   0.284
33584W        W97517  40.034  23.711  10.892
33585W        W97518  34.916  35.358  11.478
33586W        W97519  17.635   2.839  12.558
33587W        W97520  37.019   0.977  12.426
33588W        W97521  27.601  30.042   2.348
33589W        W97522  13.229  43.313  10.449
33590W        W97523  35.534  30.934  12.010
33591W        W97524  36.384   3.282  10.054
33592W        W97525  41.351  10.790  10.471
33593W        W97526  12.236  42.778   0.258
33594W        W97527   7.733  43.876  11.991
33595W        W97528   1.350  10.644  13.421
33596W        W97529  37.422  41.903  13.891
33597W        W97530   2.852  28.438   1.756
33598W        W97531  10.766   4.258   1.704
33599W        W97532  37.857  18.131   1.802
33600W        W97533  32.110  43.489  12.962
33601W        W97534  43.324  13.723  14.900
33602W        W97535   4.925  16.316  12.009
33603W        W97536  13.684   2.255  10.614
33604W        W97537   2.440  27.508  12.902
33605W        W97538   3.948  10.141  10.536
33606W        W97539  13.231   4.223   5.135
33607W        W97540   6.240  35.362   0.907
33608W        W97541  20.579   6.373  14.421
33609W        W97542  19.680   8.817   4.704
33610W        W97543  25.062   9.357   4.116
33611W        W97544  40.846   5.376  10.468
33612W        W97545  36.499  25.207  13.419
33613W        W97546  12.768  28.046  10.589
33614W        W97547  41.952   7.792   2.340
33615W        W97548   4.203  39.958   1.924
33616W        W97549   2.262  18.650   3.298
33617W        W97550  33.070  39.508   2.283
33618W        W97551  32.556  15.736   2.835
33619W        W97552   9.207   6.900   2.777
33620W        W97553   1.441  18.757   1.358
33621W        W97554  34.971  40.339  14.929
33622W        W97555  26.480  41.857  10.623
33623W        W97556  15.717  33.056   1.416
33624W        W97557  42.372   1.965  14.824
33625W        W97558  28.085  15.599   1.428
33626W        W97559  42.852  28.974   0.464
33627W        W97560  30.469   9.661  14.906
33628W        W97561  41.798  28.561  13.058
33629W        W97562  29.993  18.187   2.318
33630W        W97563   5.260  33.901   3.228
33631W        W97564  32.047  31.931   2.304
33632W        W97565  23.637   5.258  12.547
33633W        W97566  37.465  18.285   0.372
33634W        W97567  31.501   9.247  10.443
33635W        W97568  25.577  12.756   4.352
33636W        W97569   1.286  34.396   4.272
33637W        W97570  40.448   6.275  10.590
33638W        W97571  18.654  44.886  13.414
33639W        W97572  42.974  28.946   3.636
33640W        W97573  41.500   7.383   1.233
33641W        W97574  22.502  16.756  12.352
33642W        W97575  26.541  26.172   2.827
33643W        W97576  26.953  33.924   0.895
33644W        W97577  36.558   5.399  11.022
33645W        W97578   0.360  19.563  10.976
33646W        W97579  17.139   3.337   3.812
33647W        W97580  11.227  24.991   4.192
33648W        W97581  12.159  38.017   2.394
33649W        W97582   8.377   6.720  12.571
33650W        W97583   3.444  43.306  10.966
33651W        W97584  42.304  14.654  12.537
33652W        W97585  24.702  39.933  11.480
33653W        W97586   1.268   6.891  11.863
33654W        W97587  38.865  29.946   2.734
33655W        W97588  42.789  13.345   3.636
33656W        W97589  32.451  39.409   4.779
33657W        W97590  24.228  12.280   4.231
33658W        W97591  17.619  40.431  10.927
33659W        W97592  12.758  20.730   3.340
33660W        W97593  42.823  22.661  10.449
33661W        W97594  14.250  13.628  12.459
33662W        W97595  19.122  32.013   0.807
33663W        W97596  43.372  26.683  11.868
33664W        W97597  23.701  15.311  12.078
33665W        W97598   1.337  11.253  13.495
33666W        W97599  18.064   9.687  12.886
33667W        W97600  16.106  42.419  11.959
33668W        W97601  12.674  30.048   3.249
33669W        W97602  11.755  34.463   2.895
33670W        W97603  12.213   9.152   3.801
33671W        W97604  23.059  18.683  12.080
33672W        W97605   6.371  40.482  12.534
33673W        W97606  14.811  28.519  10.896
33674W        W97607  11.770  44.970  14.278
33675W        W97608   6.782  38.860   3.871
33676W        W97609  28.535  37.033  10.635
33677W        W97610  24.608  11.272  13.024
33678W        W97611  26.618  39.491   2.368
33679W        W97612   5.895  31.619   1.931
33680W        W97613  44.417   7.216  12.965
33681W        W97614  41.002  23.994  13.540
33682W        W97615  21.254  12.698  13.841
33683W        W97616  26.497  30.130  10.888
33684W        W97617  15.789  24.974  12.989
33685W        W97618   1.367  32.134   1.839
33686W        W97619   9.854  24.627  13.064
33687W        W97620  30.635  24.200  11.867
33688W        W97621   3.303  25.652  10.413
33689W        W97622   0.472  31.522   4.330
33690W        W97623  19.202  21.033  11.426
33691W        W97624  16.680   7.258  14.423
33692W        W97625  34.576  44.834   2.728
33693W        W97626  25.499  17.229  13.359
33694W        W97627  35.553  18.156   2.697
33695W        W97628  43.995  23.200   4.165
33696W        W97629   0.917  12.358  14.280
33697W        W97630   5.229  14.141  13.850
33698W        W97631  29.455  28.989   2.874
33699W        W97632  39.491  10.702   1.308
33700W        W97633   7.269   3.747  12.905
33701W        W97634  37.853  37.034   1.704
33702W        W97635   4.874  23.660  10.620
33703W        W97636  29.645  25.124   3.192
33704W        W97637  10.655  35.925  12.354
33705W        W97638  36.423   1.399   0.437
33706W        W97639   0.939   2.785  11.432
33707W        W97640  36.866  36.895  10.586
33708W        W97641   6.827  27.668  10.123
33709W        W97642  24.214  29.568  11.613
33710W        W97643   2.909  35.926  13.389
33711W        W97644  22.077  39.552   4.833
33712W        W97645  36.914  43.012  14.346
33713W        W97646   2.282  20.627  14.389
33714W        W97647   1.830  33.005   2.211
33715W        W97648  10.793   3.282   1.262
33716W        W97649  16.272   6.299  11.529
33717W        W97650  26.660  31.521  13.482
33718W        W97651  27.102  29.505   3.837
33719W        W97652  42.960  13.260   1.789
33720W        W97653  19.225  42.348   2.304
33721W        W97654   9.646   3.255  14.030
33722W        W97655   3.309  38.045  11.448
33723W        W97656  11.245  20.055   1.717
33724W        W97657  34.516  43.288   4.826
33725W        W97658   2.895  32.116  14.817
33726W        W97659   1.941  20.196  12.435
33727W        W97660  40.420  38.949  11.031
33728W        W97661  20.267  29.080   0.329
33729W        W97662   1.765   2.913   0.323
33730W        W97663  35.413  39.392  12.824
33731W        W97664  27.032  20.645  10.547
33732W        W97665   5.201  43.332  13.494
33733W        W97666  36.451  37.398  13.539
33734W        W97667  13.127  12.145  12.415
33735W        W97668  26.498  17.730  11.859
33736W        W97669  18.286  18.259  14.811
33737W        W97670   5.385  37.876  11.047
33738W        W97671  17.084   9.363  13.357
33739W        W97672  22.651  43.383   3.217
33740W        W97673  15.252   0.980  11.114
33741W        W97674  19.744  19.276   4.213
33742W        W97675  34.884  15.314  14.840
33743W        W97676  41.002   7.768   0.749
33744W        W97677  20.664  36.400   2.795
33745W        W97678  10.734  40.338   0.314
33746W        W97679  31.918   7.290   0.729
33747W        W97680   5.853  19.233  14.865
33748W        W97681  15.199  43.986   4.669
33749W        W97682   7.899  27.020   2.266
33750W        W97683   6.854   4.250  13.359
33751W        W97684  31.008  31.013   4.678
33752W        W97685  10.320  24.626   3.827
33753W        W97686  22.024  30.984   1.807
33754W        W97687  25.145  33.006   1.405
33755W        W97688  13.632   3.828  10.910
33756W        W97689   4.314  31.417  13.937
33757W        W97690  38.999  35.000  12.439
33758W        W97691   2.467   7.761  11.538
33759W        W97692  32.981   6.199  14.359
33760W        W97693  17.758  18.600  11.473
33761W        W97694   4.894   0.292  13.820
33762W        W97695  16.091  10.373   2.842
33763W        W97696  26.595  36.985  10.903
33764W        W97697  26.668  31.934   2.824
33765W        W97698   2.382   7.308  11.466
33766W        W97699  21.050  43.313  11.970
33767W        W97700   3.277  41.464  12.987
33768W        W97701  40.833  29.649   1.869
33769W        W97702  23.673  31.645   2.191
33770W        W97703  31.996   9.374  10.635
33771W        W97704  39.982  22.124   4.754
33772W        W97705  23.063   2.733  12.494
33773W        W97706   4.780   1.973   5.095
33774W        W97707  21.604  35.902  13.922
33775W        W97708  21.751  30.452   0.835
33776W        W97709   4.770  15.732   5.752
33777W        W97710   6.298  20.545  10.929
33778W        W97711  42.900  15.805   3.808
33779W        W97712  10.664   1.765   0.836
33780W        W97713  26.970  14.121  10.894
33781W        W97714  27.038   9.819   4.831
33782W        W97715  43.837   4.871   1.715
33783W        W97716  18.711  33.412  14.770
33784W        W97717  42.947  29.669   3.779
33785W        W97718  10.723   9.852   1.425
33786W        W97719  43.844  37.897  13.447
33787W        W97720  14.802  18.744   2.775
33788W        W97721   0.478   2.313  13.999
33789W        W97722  23.557  30.037  13.510
33790W        W97723  40.457  39.948  11.924
33791W        W97724  23.015  16.206  13.944
33792W        W97725  11.181  15.758   4.152
33793W        W97726  24.108  35.470   0.317
33794W        W97727  16.808  34.427  13.519
33795W        W97728  17.063  18.280   0.388
33796W        W97729  27.669  31.035   0.967
33797W        W97730   7.382  10.164   0.337
33798W        W97731  28.117  32.966   0.459
33799W        W97732  23.186  44.313   4.152
33800W        W97733  28.065   1.340  11.458
33801W        W97734  25.147  16.220  13.393
33802W        W97735   0.857  42.369  14.814
33803W        W97736  37.575  25.018   1.833
33804W        W97737  35.060  21.032   9.958
33805W        W97738   3.378  25.711   0.780
33806W        W97739  35.461  18.115  10.915
33807W        W97740  22.186  39.831   2.330
33808W        W97741  18.094  41.491  10.550
33809W        W97742  25.168  17.740  11.896
33810W        W97743  21.174  27.143   0.797
33811W        W97744  34.903   7.890  13.545
33812W        W97745  40.515  10.704  12.397
33813W        W97746  44.285  14.809   0.743
33814W        W97747  12.233   0.870  13.948
33815W        W97748  24.105   1.257  12.526
33816W        W97749  25.535   6.370  10.889
33817W        W97750  36.361  29.008   4.213
33818W        W97751  43.887  17.673   0.797
33819W        W97752   7.347   7.363   4.670
33820W        W97753   0.779   0.744   2.837
33821W        W97754  23.541  32.110   1.387
33822W        W97755  43.958  15.182  14.497
33823W        W97756   5.783  43.438   0.808
33824W        W97757  33.619  33.607   2.855
33825W        W97758  14.311  44.382   3.776
33826W        W97759   5.285  12.215  10.943
33827W        W97760  30.997  19.547   2.188
33828W        W97761   0.840   8.667   4.315
33829W        W97762   6.726   5.372   2.413
33830W        W97763  34.515  38.541   1.305
33831W        W97764  19.740  28.530   2.295
33832W        W97765  29.004  38.906   0.277
33833W        W97766  41.791  18.118   2.185
33834W        W97767  29.577  24.581   1.926
33835W        W97768  39.927  44.356   0.373
33836W        W97769  43.400  37.053   3.785
33837W        W97770  29.525  32.490  11.412
33838W        W97771  32.606  26.098   0.749
33839W        W97772  10.143  44.007   3.310
33840W        W97773  40.505  35.019  12.993
33841W        W97774   8.160  14.819  14.296
33842W        W97775  20.257  15.743  11.430
33843W        W97776  11.650  30.095  10.537
33844W        W97777  20.049  10.694  12.450
33845W        W97778  17.123  24.126  11.112
33846W        W97779  39.471  41.442   0.866
33847W        W97780  23.092   5.743  11.603
33848W        W97781  14.273  22.600   2.806
33849W        W97782  28.010   0.839  13.879
33850W        W97783  16.692  13.614  10.953
33851W        W97784  27.027  29.931   4.654
33852W        W97785  21.122   7.384  14.948
33853W        W97786  20.157  16.157   2.870
33854W        W97787   2.936   4.387  13.825
33855W        W97788  30.962  29.550  14.944
33856W        W97789   3.253  42.525  14.816
33857W        W97790   8.656  18.590   3.349
33858W        W97791  39.971  37.879   1.418
33859W        W97792  37.337  34.055  13.398
33860W        W97793  26.189   3.285   3.193
33861W        W97794  35.423  32.108  12.362
33862W        W97795  35.884  12.255   0.461
33863W        W97796  11.714  44.442  10.893
33864W        W97797  39.953  38.873  14.779
33865W        W97798  21.523   4.243   1.437
33866W        W97799  37.431   4.393   2.179
33867W        W97800  31.984   3.754   5.302
33868W        W97801  33.390   6.725   1.855
33869W        W97802  17.266   2.927  10.968
33870W        W97803  32.471  12.717   1.248
33871W        W97804  16.592   1.847   2.802
33872W        W97805   8.281  14.319  13.420
33873W        W97806  15.175   8.364   2.703
33874W        W97807  13.682  19.720  12.845
33875W        W97808  35.967  18.571  11.064
33876W        W97809   6.309  15.269   3.263
33877W        W97810   2.326  20.604   1.694
33878W        W97811  38.036  34.513  10.129
33879W        W97812  12.317  27.153   1.411
33880W        W97813  32.925   7.696  13.013
33881W        W97814   3.367  17.559  12.528
33882W        W97815  26.483  13.201   0.308
33883W        W97816  11.770  13.194  14.485
33884W        W97817  37.042  40.473   0.281
33885W        W97818  20.250  33.982   4.295
33886W        W97819  44.397  29.002   3.315
33887W        W97820  10.260   0.282   2.889
33888W        W97821  26.538  15.822  14.940
33889W        W97822  14.636  18.165   4.771
33890W        W97823  36.398  24.135  14.422
33891W        W97824  34.882   9.199  11.022
33892W        W97825  40.010  14.126   1.756
33893W        W97826  39.316   1.901   1.893
33894W        W97827  16.162  41.368   3.197
33895W        W97828   0.805  38.057  12.416
33896W        W97829  15.215  17.219  13.345
33897W        W97830   5.247  36.865   4.722
33898W        W97831  30.960  20.273  11.918
33899W        W97832  19.269  37.424  13.496
33900W        W97833  29.651  29.135  13.389
33901W        W97834  13.146  31.026   3.293
33902W        W97835  34.039   7.761   0.744
33903W        W97836  16.575  14.602   0.472
33904W        W97837  23.161  26.593  14.795
33905W        W97838  39.432  26.198  14.334
33906W        W97839  18.624  19.185  11.054
33907W        W97840  22.092  25.124   4.116
33908W        W97841  31.990  28.038   5.172
33909W        W97842   9.164  25.035   3.174
33910W        W97843  33.475  30.064  11.473
33911W        W97844  28.518  12.845  12.478
33912W        W97845  13.767  26.040   1.804
33913W        W97846   4.903  19.547   0.855
33914W        W97847   0.277  43.810  13.821
33915W        W97848  29.524  21.069  12.940
33916W        W97849  39.365  33.013  10.595
33917W        W97850  10.192  31.623   4.147
33918W        W97851   0.914  13.693  14.279
33919W        W97852  33.413  41.938  14.884
33920W        W97853  26.960  39.542  12.400
33921W        W97854  22.590  41.995   1.768
33922W        W97855  31.576  24.981   4.660
33923W        W97856  31.521   8.321   3.695
33924W        W97857  26.203  35.536  13.804
33925W        W97858   6.723  41.299   2.197
33926W        W97859  28.019  11.769  10.405
33927W        W97860  19.705   5.831   0.880
33928W        W97861   4.768  29.080   4.254
33929W        W97862  28.028  10.734   0.865
33930W        W97863  31.522   6.702  12.901
33931W        W97864  11.167  44.327  13.830
33932W        W97865  13.109  32.397  11.072
33933W        W97866  25.606  25.473   4.720
33934W        W97867  37.492  21.757   3.679
33935W        W97868  37.963   9.799  12.400
33936W        W97869   2.370  11.766   1.922
33937W        W97870   8.831  10.800   2.769
33938W        W97871   9.777  16.696  12.897
33939W        W97872  26.208  33.037  13.520
33940W        W97873  22.030  12.262   0.873
33941W        W97874  44.837  30.920  11.538
33942W        W97875  24.176  36.042   0.909
33943W        W97876   8.252  25.123   3.758
33944W        W97877   2.775  21.656   3.865
33945W        W97878  20.691   5.439   1.372
33946W        W97879  24.610  19.546  13.517
33947W        W97880  38.003  25.204  11.003
33948W        W97881   2.952  37.335   0.825
33949W        W97882  31.009  36.465   2.406
33950W        W97883  36.841  31.050  13.807
33951W        W97884   8.395  26.595   1.382
33952W        W97885  38.970  15.284  14.464
33953W        W97886  31.914  11.225   2.779
33954W        W97887  14.101  13.213  10.580
33955W        W97888  14.252   6.697  14.513
33956W        W97889  21.164  44.869   0.477
33957W        W97890  15.744  15.782   5.296
33958W        W97891  11.749  14.761   4.650
33959W        W97892  39.946  37.979   0.912
33960W        W97893  18.785  41.321  12.852
33961W        W97894  11.801  24.583  11.092
33962W        W97895   2.873  39.351   4.188
33963W        W97896   9.232  12.612  14.869
33964W        W97897  16.708  36.092  10.940
33965W        W97898  32.439  28.995   4.686
33966W        W97899  27.637  24.546   4.219
33967W        W97900  12.327  26.077   3.337
33968W        W97901  15.106  26.660  12.848
33969W        W97902  25.148  40.849   4.217
33970W        W97903  37.999  10.229  11.021
33971W        W97904  26.969  38.393   2.330
33972W        W97905  16.162  37.082   0.798
33973W        W97906  26.176   4.759  11.940
33974W        W97907  41.434  27.527   3.818
33975W        W97908   3.319  31.482  11.375
33976W        W97909   5.372  24.496  13.045
33977W        W97910   5.349   2.453  13.485
33978W        W97911   5.322   5.234  11.885
33979W        W97912  29.646  14.151  13.441
33980W        W97913   1.877  23.195  12.897
33981W        W97914  29.117  13.697  14.331
33982W        W97915  14.157  16.223   0.783
33983W        W97916   8.334   6.346   3.742
33984W        W97917  17.600  43.821  13.828
33985W        W97918  25.971  26.469  13.377
33986W        W97919   0.895  11.843   1.890
33987W        W97920  38.821  17.567   3.662
33988W        W97921   9.320   2.776  11.993
33989W        W97922  25.015  26.548  11.866
33990W        W97923  31.128   0.840  11.029
33991W        W97924  36.056  12.768   4.280
33992W        W97925   7.269  15.590  13.037
33993W        W97926  18.115  26.161  13.873
33994W        W97927  40.418  37.418  14.876
33995W        W97928   4.724  25.145   3.769
33996W        W97929  34.992  26.194   3.853
33997W        W97930  22.155   1.376   1.244
33998W        W97931  35.395  22.037   2.794
33999W        W97932   6.415   1.952  14.006
34000W        W97933  19.269  27.584  12.355
34001W        W97934  25.562  11.229  12.090
34002W        W97935  22.601  12.786   0.828
34003W        W97936  33.041  29.468  10.483
34004W        W97937  37.054  31.988  12.971
34005W        W97938  36.866   1.343  10.465
34006W        W97939   4.854   7.371  11.961
34007W        W97940  38.355   2.794   4.771
34008W        W97941  23.577  16.595   1.345
34009W        W97942   8.748  11.865  13.010
34010W        W97943  20.762  26.597  12.420
34011W        W97944  33.528   2.233  11.434
34012W        W97945  34.893   4.262   4.235
34013W        W97946   7.818   6.680   4.656
34014W        W97947  37.522   1.967  11.395
34015W        W97948  16.135  41.886  11.071
34016W        W97949   0.890   8.170  10.566
34017W        W97950  19.226  29.065   2.765
34018W        W97951  38.915   8.760   4.620
34019W        W97952  32.142  42.421   1.404
34020W        W97953  38.914   9.671   3.686
34021W        W97954  34.372  23.506   0.786
34022W        W97955  16.279  33.923   3.199
34023W        W97956  23.491   3.810   3.655
34024W        W97957  17.558  33.023  11.910
34025W        W97958  33.996  44.833   1.877
34026W        W97959  39.956  28.148   3.386
34027W        W97960   0.829  22.179   4.237
34028W        W97961  41.298  26.599  11.476
34029W        W97962  14.661  10.281  11.566
34030W        W97963  41.868  25.598  13.490
34031W        W97964   5.315  26.175   0.316
34032W        W97965   0.912   3.936   2.342
34033W        W97966  44.797   6.825   1.373
34034W        W97967  43.271  16.141   0.250
34035W        W97968   3.710   5.277  12.529
34036W        W97969   0.421  13.218  12.054
34037W        W97970  33.590   4.436  12.043
34038W        W97971  30.446  13.105  12.089
34039W        W97972   6.774   1.405   9.969
34040W        W97973   6.225  24.624   4.184
34041W        W97974  29.597   7.276  10.002
34042W        W97975  30.085  40.812  12.359
34043W        W97976   9.368  10.706  13.860
34044W        W97977   5.840  42.909   0.386
34045W        W97978  36.566   3.256   5.218
34046W        W97979   2.452  41.464  10.628
34047W        W97980   0.250  32.090  13.818
34048W        W97981  23.528  39.338  13.351
34049W        W97982  44.926  20.757  13.943
34050W        W97983  26.163  31.974   3.285
34051W        W97984  36.879  32.604   4.602
34052W        W97985  26.656  43.497  13.539
34053W        W97986  42.338  30.941   1.265
34054W        W97987   4.786   3.276  10.978
34055W        W97988  15.651  14.220   4.354
34056W        W97989   0.298  44.823   2.902
34057W        W97990  26.598  23.023   0.463
34058W        W97991  20.524  33.504   1.799
34059W        W97992   9.735  20.712  10.571
34060W        W97993  39.855   5.804   1.213
34061W        W97994  10.139  20.063   3.294
34062W        W97995  26.013  29.006  14.474
34063W        W97996  36.954  43.824   0.847
34064W        W97997   0.821  26.585  12.549
34065W        W97998  12.670  41.996  12.985
34066W        W97999  10.832  29.049   4.628
34067W        W98000  21.235   8.263   0.860
34068W        W98001  10.686   4.894  13.449
34069W        W98002   6.415  40.447   2.789
34070W        W98003  33.617  32.392   1.357
34071W        W98004   7.912  24.164  13.879
34072W        W98005  42.849  16.306  10.507
34073W        W98006  21.045  16.141  14.470
34074W        W98007   3.810  40.416   4.279
34075W        W98008  44.904  26.492   1.384
34076W        W98009  14.189  42.324  11.038
34077W        W98010  10.308  20.545   1.900
34078W        W98011  10.647   9.847   0.430
34079W        W98012   0.942  37.481   1.801
34080W        W98013  40.457  32.125   4.638
34081W        W98014  11.209   7.270  12.975
34082W        W98015  23.497   7.378  11.992
34083W        W98016  13.709  35.051  14.012
34084W        W98017  30.051   9.718   4.329
34085W        W98018  15.329   8.318  11.528
34086W        W98019  19.062   9.810   1.258
34087W        W98020   9.361   0.381  14.023
34088W        W98021  37.492  10.347  12.400
34089W        W98022  36.900  40.032   0.352
34090W        W98023   5.835  43.927   4.680
34091W        W98024  29.112  12.319  11.941
34092W        W98025  10.195   2.858   2.764
34093W        W98026  40.362  13.733  13.825
34094W        W98027  43.298  28.948  12.089
34095W        W98028  22.529  19.573   3.691
34096W        W98029  16.738   4.941  14.477
34097W        W98030  10.805  15.632   0.911
34098W        W98031  42.354  31.104   2.683
34099W        W98032  22.144  25.675  14.817
34100W        W98033  13.601   7.710   5.284
34101W        W98034  18.687  37.963   3.639
34102W        W98035  24.051   6.818  10.418
34103W        W98036  10.314   4.329  13.470
34104W        W98037   1.363  31.088  10.436
34105W        W98038   9.847  27.689   4.200
34106W        W98039  20.031  18.141  12.540
34107W        W98040  11.656  35.477   4.335
34108W        W98041  25.479  39.835   3.191
34109W        W98042  11.669  22.558  10.992
34110W        W98043  39.499  38.887  12.885
34111W        W98044   7.359  38.515  10.494
34112W        W98045  11.366   2.456  10.479
34113W        W98046   3.455  33.105   0.452
34114W        W98047  32.570  19.589   5.273
34115W        W98048  23.140  17.200  13.018
34116W        W98049  40.371  10.169   4.801
34117W        W98050  18.677  11.219   0.356
34118W        W98051  20.553  23.567  12.851
34119W        W98052  29.651  36.531  10.617
34120W        W98053  26.136  42.987   9.977
34121W        W98054  29.042  25.052   0.436
34122W        W98055  41.522  14.747  12.471
34123W        W98056   8.364   7.264   3.817
34124W        W98057  39.460   3.762   0.960
34125W        W98058  27.966   0.458   0.472
34126W        W98059   9.275  35.965  12.493
34127W        W98060  21.180  32.997  11.951
34128W        W98061   5.866  16.729  14.827
34129W        W98062  44.869   2.342  11.075
34130W        W98063  29.066   3.843   1.307
34131W        W98064  12.780  28.984   2.391
34132W        W98065   8.322  31.093  14.883
34133W        W98066  32.983  30.051   1.429
34134W        W98067  14.693  10.709   3.841
34135W        W98068  24.594  18.133  11.888
34136W        W98069  36.465  35.889  10.954
34137W        W98070  29.045  44.972  13.443
34138W        W98071  16.777  39.013   3.150
34139W        W98072  19.691  30.569  11.482
34140W        W98073  41.035  43.788  14.777
34141W        W98074  27.661  17.596   4.231
34142W        W98075  26.464   1.291   4.338
34143W        W98076   3.882   3.836  11.465
34144W        W98077  15.234  25.201  12.019
34145W        W98078  19.671  15.235   4.350
34146W        W98079  18.705  31.629   3.815
34147W        W98080  34.997   9.724  10.923
34148W        W98081  31.594  32.900   0.256
34149W        W98082  26.122   0.874   3.164
34150W        W98083   7.735  18.680  11.572
34151W        W98084  11.200  37.866   2.728
34152W        W98085   0.406  42.357  14.850
34153W        W98086  44.969  11.179   2.681
34154W        W98087  26.484   8.769   4.613
34155W        W98088  27.571  33.085   0.318
34156W        W98089  28.636  20.708   2.355
34157W        W98090  15.801  36.857   0.345
34158W        W98091   8.785  34.489  10.005
34159W        W98092  27.447  43.997   2.344
34160W        W98093   8.658  25.569   0.466
34161W        W98094   2.761  31.437   1.350
34162W        W98095  18.592  13.235  12.027
34163W        W98096  27.118  41.395   3.651
34164W        W98097  28.056   4.249  10.020
34165W        W98098  44.812   2.381  11.445
34166W        W98099  15.275  43.446   3.719
34167W        W98100  16.135  10.741  13.408
34168W        W98101  21.153   2.321   4.133
34169W        W98102  22.705   1.363  13.927
34170W        W98103  23.159   7.911  14.416
34171W        W98104  32.390  43.328  11.610
34172W        W98105  24.592  24.591  14.019
34173W        W98106   3.314  33.390   1.290
34174W        W98107  23.708   1.752   2.875
34175W        W98108  20.087   9.368   4.187
34176W        W98109  30.522   4.243   1.700
34177W        W98110   6.809  14.123   3.861
34178W        W98111  23.503   9.192  12.062
34179W        W98112  19.068   7.779  12.045
34180W        W98113   1.453  42.800  11.863
34181W        W98114   3.905  13.288  14.840
34182W        W98115  29.627  20.627   2.743
34183W        W98116  30.471  44.760  10.528
34184W        W98117  30.991   6.286  14.883
34185W        W98118  28.023  11.307  14.979
34186W        W98119  35.009  17.193  13.987
34187W        W98120  38.841  14.795   1.848
34188W        W98121  40.465  18.072   1.935
34189W        W98122   9.256  18.062   3.214
34190W        W98123  16.713  32.953   1.745
34191W        W98124  29.020  34.919   3.835
34192W        W98125  11.182  26.952  13.530
34193W        W98126  13.732   9.333   3.165
34194W        W98127  12.277  31.017  13.034
34195W        W98128  42.285  37.555   1.830
34196W        W98129  25.610  15.147   2.865
34197W        W98130  22.648   5.881   0.908
34198W        W98131  43.003  39.447   2.894
34199W        W98132  36.502   4.704   0.365
34200W        W98133  41.462  11.221   1.257
34201W        W98134  42.783  29.622  12.944
34202W        W98135  43.992  19.761  11.881
34203W        W98136  37.885   8.263  11.024
34204W        W98137  13.775  41.391  10.434
34205W        W98138  11.161  30.042   3.816
34206W        W98139  35.461   1.955  13.537
34207W        W98140  23.562   6.221   2.204
34208W        W98141  41.035  33.035  11.518
34209W        W98142  11.709   3.738   0.428
34210W        W98143  34.475  19.588   0.779
34211W        W98144  22.574  35.600   0.770
34212W        W98145   7.192  28.572   1.378
34213W        W98146  42.970  26.595  11.568
34214W        W98147  43.348  42.931   3.289
34215W        W98148  11.674  35.001   4.181
34216W        W98149  24.643  31.547  12.021
34217W        W98150  36.953  25.156   1.431
34218W        W98151  12.685  11.695   1.709
34219W        W98152  35.455  10.224   3.319
34220W        W98153   1.292  42.886  12.914
34221W        W98154  40.529   8.667  13.356
34222W        W98155  38.326  24.492  10.544
34223W        W98156   9.825   7.233   0.257
34224W        W98157   6.425  19.685  13.848
34225W        W98158  34.493   4.255  10.930
34226W        W98159  12.700   8.801  12.984
34227W        W98160  17.802  39.978   4.295
34228W        W98161  36.981   0.426  11.375
34229W        W98162  22.143  42.370  10.995
34230W        W98163   9.273  16.783   1.832
34231W        W98164   3.798   8.771   2.399
34232W        W98165  14.312  29.577   2.274
34233W        W98166   6.390  10.637   0.355
34234W        W98167  10.825  16.309   3.818
34235W        W98168  10.803  14.598   1.364
34236W        W98169   7.886  33.109  11.014
34237W        W98170  29.167  25.202  12.078
34238W        W98171  29.483  38.972  14.992
34239W        W98172  33.528  39.004   1.838
34240W        W98173  15.247  25.610   1.918
34241W        W98174   8.392  34.493  11.017
34242W        W98175  27.973  38.502   4.249
34243W        W98176  26.585  20.526   4.319
34244W        W98177  41.937  19.063  13.412
34245W        W98178  26.011  41.848  12.892
34246W        W98179  42.366  29.558   2.189
34247W        W98180  28.461   1.773   3.244
34248W        W98181   9.213  23.212   1.434
34249W        W98182  22.724  41.425  11.548
34250W        W98183  28.070  30.417  13.948
34251W        W98184   3.436  32.621  12.521
34252W        W98185  24.542  21.224  13.012
34253W        W98186  20.572  32.079   4.753
34254W        W98187  20.193   1.321   0.356
34255W        W98188  25.967  27.155   3.790
34256W        W98189  15.752   2.227  11.984
34257W        W98190   2.242  18.190   1.391
34258W        W98191  14.166   0.753  12.879
34259W        W98192  17.562  23.219   4.811
34260W        W98193  29.995  15.615   2.704
34261W        W98194   0.264  23.100  12.020
34262W        W98195  41.389  41.473   4.761
34263W        W98196  20.617  20.616  14.843
34264W        W98197  37.482   0.804   1.901
34265W        W98198   4.765   1.912  11.608
34266W        W98199  38.388  39.519  13.540
34267W        W98200  22.641  36.495   2.663
34268W        W98201  34.415  42.007  11.993
34269W        W98202  16.187  18.589   5.213
34270W        W98203  29.592  42.844  12.473
34271W        W98204  36.568  37.020   4.120
34272W        W98205  44.265  36.010   2.345
34273W        W98206  33.113  12.137   2.274
34274W        W98207  10.231  16.569   4.656
34275W        W98208  43.953  35.448  11.118
34276W        W98209  43.283  34.376  12.359
34277W        W98210  44.881   5.707  14.994
34278W        W98211  35.492   0.948   3.629
34279W        W98212  31.132   5.229  14.408
34280W        W98213  33.573  41.788   0.878
34281W        W98214  18.285   6.741   0.796
34282W        W98215   9.327  14.589  13.476
34283W        W98216  43.988  32.552   1.253
34284W        W98217  27.634  13.133  13.929
34285W        W98218   9.211   2.840   9.654
34286W        W98219  29.663  24.033  14.975
34287W        W98220   7.249   6.896  13.330
34288W        W98221  43.985   6.333   2.749
34289W        W98222  32.502  24.532  12.468
34290W        W98223   9.660  15.731   4.712
34291W        W98224   4.310   5.369  14.372
34292W        W98225  18.103  16.265   5.719
34293W        W98226  33.467  12.747   1.931
34294W        W98227  40.912   9.213   1.770
34295W        W98228  41.460  16.804  10.526
34296W        W98229  25.468  21.642  12.526
34297W        W98230   2.754  21.047  11.980
34298W        W98231  34.602   4.763  13.982
34299W        W98232  31.638  36.981  11.918
34300W        W98233   4.808  12.343  11.035
34301W        W98234  23.042  34.106   2.406
34302W        W98235   0.829  39.538   4.302
34303W        W98236  15.783  44.891  14.975
34304W        W98237   5.887  31.025  12.017
34305W        W98238  15.276  21.096  10.071
34306W        W98239  25.028   7.681  10.936
34307W        W98240  33.573  11.846  11.094
34308W        W98241  33.090  30.109   3.165
34309W        W98242  41.994  17.209  11.501
34310W        W98243  42.478  40.464   2.718
34311W        W98244  14.777   4.841  13.524
34312W        W98245   5.893  40.939   0.281
34313W        W98246  22.009  20.225  13.830
34314W        W98247  13.670   8.809  12.558
34315W        W98248  38.505   3.841  11.452
34316W        W98249  43.320  21.655  10.533
34317W        W98250  40.805  35.548   3.762
34318W        W98251   7.277  36.491  11.525
34319W        W98252  17.656   8.819   1.846
34320W        W98253  35.561   8.194  12.570
34321W        W98254  12.358  30.480  12.088
34322W        W98255  12.632   5.424   5.094
34323W        W98256   7.792   9.185  12.395
34324W        W98257  22.144  26.473  12.070
34325W        W98258  21.163  13.644   0.804
34326W        W98259  43.930   1.869  14.995
34327W        W98260  27.951  23.127   0.787
34328W        W98261   9.749  22.668  10.986
34329W        W98262  12.157  16.657  14.357
34330W        W98263  31.449   7.784  14.906
34331W        W98264  16.088   8.863   4.311
34332W        W98265  29.576  22.078   4.288
34333W        W98266  23.698  43.910  14.483
34334W        W98267  38.059  20.259  13.415
34335W        W98268  37.462  31.526  13.848
34336W        W98269  22.092  35.555  12.042
34337W        W98270  28.482  33.462  11.404
34338W        W98271  40.549  19.271   2.360
34339W        W98272  15.586  23.576   3.704
34340W        W98273  12.788  30.164  12.921
34341W        W98274  23.232  30.469  14.900
34342W        W98275  25.110  24.560   3.186
34343W        W98276  11.743   6.767   2.401
34344W        W98277  15.156   7.872   2.206
34345W        W98278  21.540  15.261  13.922
34346W        W98279  44.350  29.116  14.954
34347W        W98280   7.871  13.636  14.837
34348W        W98281  13.755  26.461   4.319
34349W        W98282   5.924  41.365  12.443
34350W        W98283   1.826  42.401  11.571
34351W        W98284  12.814  27.168   4.345
34352W        W98285  22.572  39.879   2.692
34353W        W98286   4.716  17.671   0.948
34354W        W98287  20.140  23.223   3.851
34355W        W98288  21.178  15.599  13.794
34356W        W98289   5.754  36.580   1.354
34357W        W98290   9.744  22.613   4.122
34358W        W98291   0.873  39.491  10.973
34359W        W98292   3.300   6.894  13.520
34360W        W98293   2.760  41.869  14.509
34361W        W98294  16.636   4.303  13.006
34362W        W98295  10.222   4.297  14.904
34363W        W98296  16.687   9.321   3.711
34364W        W98297  13.743  42.012   4.234
34365W        W98298  18.256  28.635   4.141
34366W        W98299  39.541  29.525   4.791
34367W        W98300  17.646  20.265  11.072
34368W        W98301  15.294   4.795   5.245
34369W        W98302  17.682  31.896   0.785
34370W        W98303  29.990  43.510  12.041
34371W        W98304  29.150  28.595  12.405
34372W        W98305   9.299  28.582  12.429
34373W        W98306   6.337  11.847  13.407
34374W        W98307   3.887   5.200  13.883
34375W        W98308  39.377   8.821  13.516
34376W        W98309   0.828  25.085  10.416
34377W        W98310  38.822   6.890   2.268
34378W        W98311  18.580  19.126   0.870
34379W        W98312  16.631  27.092   1.244
34380W        W98313  25.122   5.406  11.390
34381W        W98314  27.549  35.379   4.644
34382W        W98315  22.100  27.539  13.396
34383W        W98316   1.429  23.134  12.450
34384W        W98317  36.914  18.244  13.848
34385W        W98318  24.176  10.770   0.457
34386W        W98319   4.873  16.289  14.953
34387W        W98320  40.926  36.444  14.866
34388W        W98321  10.742  38.832   0.844
34389W        W98322  37.453  29.452   0.243
34390W        W98323  24.543  40.549  12.044
34391W        W98324  11.843   7.716   3.231
34392W        W98325  42.477  30.653  10.950
34393W        W98326   7.876  36.902   3.660
34394W        W98327  26.177   4.365  12.020
34395W        W98328  27.600  29.545  14.026
34396W        W98329  19.546  16.110   4.283
34397W        W98330  15.770  14.322  13.824
34398W        W98331  18.194  15.131  10.956
34399W        W98332  37.872  33.580  14.850
34400W        W98333  19.575  40.052   2.321
34401W        W98334  26.560  26.186  14.363
34402W        W98335   2.398  33.942  14.973
34403W        W98336  33.081  32.428   3.294
34404W        W98337   0.337   2.722   1.347
34405W        W98338  27.071   8.303  12.901
34406W        W98339  28.166  36.423   2.784
34407W        W98340  24.020   6.273   2.316
34408W        W98341   1.812  29.517   4.235
34409W        W98342  37.980  23.699   2.831
34410W        W98343  20.688   1.408   0.434
34411W        W98344  18.255  17.175  14.469
34412W        W98345  34.531  12.778  11.085
34413W        W98346  35.068  13.234   3.146
34414W        W98347  44.492   8.387  11.916
34415W        W98348  15.663  16.733  13.374
34416W        W98349  10.348  36.570   1.800
34417W        W98350  23.095  32.568  10.421
34418W        W98351  12.651  38.912  13.318
34419W        W98352   0.833  41.996   4.286
34420W        W98353   0.268  24.977   1.917
34421W        W98354  22.131   0.477   4.797
34422W        W98355   8.205  16.172  12.999
34423W        W98356  24.653  27.992   4.210
34424W        W98357  41.503   6.300   4.793
34425W        W98358  27.073   6.259   9.939
34426W        W98359  39.919  29.086   0.409
34427W        W98360  13.782  44.905  12.077
34428W        W98361   2.233   8.352  12.019
34429W        W98362  28.977  35.497  11.481
34430W        W98363  35.103  15.105   3.287
34431W        W98364  10.643  21.516  10.952
34432W        W98365   6.363   8.304   0.955
34433W        W98366  32.461  14.098  10.922
34434W        W98367   0.443  17.222   0.323
34435W        W98368  37.917   2.233   2.865
34436W        W98369  18.274  29.926   1.439
34437W        W98370   6.760  10.218  13.976
34438W        W98371   0.779  24.515   4.747
34439W        W98372  19.744  22.701   1.750
34440W        W98373  35.005  43.346  14.439
34441W        W98374   9.710  42.801   2.193
34442W        W98375   3.852  18.577   2.727
34443W        W98376  26.164   6.357  14.760
34444W        W98377  32.114  19.766  10.129
34445W        W98378  31.468  40.997   4.209
34446W        W98379   5.429   8.739  13.453
34447W        W98380   6.236  16.264  10.119
34448W        W98381  34.426  41.791  11.412
34449W        W98382   8.327   7.210  13.807
34450W        W98383  30.475  28.985  10.512
34451W        W98384  36.417  32.018   0.745
34452W        W98385  25.044  32.546  11.412
34453W        W98386  12.132  22.197  12.887
34454W        W98387  19.670  21.696   0.248
34455W        W98388  40.856  10.765  13.828
34456W        W98389  13.175  25.211  11.045
34457W        W98390  12.320  35.043  14.901
34458W        W98391  29.115  14.806   4.635
34459W        W98392  28.187  12.742  13.913
34460W        W98393  35.945  13.132   3.685
34461W        W98394   6.898  40.431  12.459
34462W        W98395   3.820  35.042   3.330
34463W        W98396  28.456  44.369   3.278
34464W        W98397  15.806  12.821  13.975
34465W        W98398  21.702  21.724  14.920
34466W        W98399  11.822  37.386  10.492
34467W        W98400  26.110  24.151   3.383
34468W        W98401  21.645  39.401   4.748
34469W        W98402  11.694   2.903  11.549
34470W        W98403   9.167  33.043  10.927
34471W        W98404  39.550  29.023  12.429
34472W        W98405   6.246  15.587   2.775
34473W        W98406  20.734  42.879   1.817
34474W        W98407  11.733  36.048   0.935
34475W        W98408  35.074  11.754  14.838
34476W        W98409  17.565  15.592   5.205
34477W        W98410  32.916  13.714  14.941
34478W        W98411   4.359   1.273   1.723
34479W        W98412   1.280  34.871  13.506
34480W        W98413  18.783  36.420   0.800
34481W        W98414  10.665   1.478  13.877
34482W        W98415  36.472  24.485   4.279
34483W        W98416  24.537   3.235  10.919
34484W        W98417  29.605  29.005  11.962
34485W        W98418   9.277  31.604  14.465
34486W        W98419  21.122  21.648  14.463
34487W        W98420  19.585  14.659   4.821
34488W        W98421   5.875  30.158  14.342
34489W        W98422   0.351   0.751   2.764
34490W        W98423  41.862   8.740   1.873
34491W        W98424  33.998   5.722  12.339
34492W        W98425  42.825  32.029  12.558
34493W        W98426  15.675  10.713   3.684
34494W        W98427  19.045  28.143  14.357
34495W        W98428  40.419  41.871  12.358
34496W        W98429   3.432  21.579  14.798
34497W        W98430  18.621  30.487   3.294
34498W        W98431  27.085  39.827   1.365
34499W        W98432  24.658   1.905   0.877
34500W        W98433  21.520  17.291  14.381
34501W        W98434  20.700  38.870  11.554
34502W        W98435   6.923  27.042  12.389
34503W        W98436  26.166  21.748  12.523
34504W        W98437  17.086  27.095  10.638
34505W        W98438  20.604  40.381   4.604
34506W        W98439   3.803  22.641   0.400
34507W        W98440  40.918  27.999   4.680
34508W        W98441   2.390   7.337   4.229
34509W        W98442  10.791  21.734  14.965
34510W        W98443  35.088  32.916   1.271
34511W        W98444  35.551  13.799   3.659
34512W        W98445   6.738  42.332  14.490
34513W        W98446   5.791  12.346  12.090
34514W        W98447  18.191  19.118  13.321
34515W        W98448  18.256  26.574  12.521
34516W        W98449  36.522  29.975   4.303
34517W        W98450  21.753   1.810   4.347
34518W        W98451  17.775  19.630  10.009
34519W        W98452  19.178  12.636  13.952
34520W        W98453  44.474  30.581  11.873
34521W        W98454  14.785  33.966   2.888
34522W        W98455  41.985   6.258   3.663
34523W        W98456   8.774  10.719  11.868
34524W        W98457  33.567  43.344  14.792
34525W        W98458  36.912  37.512   2.416
34526W        W98459  37.343  13.291  14.946
34527W        W98460  32.920  11.310  10.901
34528W        W98461  37.379  38.859   5.099
34529W        W98462  41.008  21.522  12.578
34530W        W98463  15.740  27.547  13.796
34531W        W98464  18.753  36.848   2.896
34532W        W98465   8.846  39.474   0.902
34533W        W98466   1.957  28.161   1.270
34534W        W98467  30.460   2.259  11.480
34535W        W98468  20.036  28.465   3.686
34536W        W98469  44.342   4.835   3.258
34537W        W98470  40.448  10.148   2.741
34538W        W98471  42.912   1.461   4.155
34539W        W98472  39.985   7.806  13.538
34540W        W98473  37.068  13.133   0.778
34541W        W98474  27.450   7.685  11.982
34542W        W98475   0.830  19.721  10.019
34543W        W98476  43.853  23.628   3.215
34544W        W98477  19.216  10.731  14.980
34545W        W98478  21.537  28.533  10.895
34546W        W98479  31.917  30.445  11.465
34547W        W98480   1.428  44.309   1.358
34548W        W98481  44.480  33.031  10.915
34549W        W98482   9.373  12.146  14.932
34550W        W98483   3.282  31.146  12.446
34551W        W98484  26.150  29.560  13.839
34552W        W98485  40.957  39.865   4.686
34553W        W98486  39.906  38.947   9.639
34554W        W98487   8.892  28.519  11.954
34555W        W98488  11.711  22.046   1.378
34556W        W98489  44.434  29.120   2.224
34557W        W98490  23.025  29.545   3.805
34558W        W98491  17.148  29.503   1.216
34559W        W98492   7.687  12.854  12.043
34560W        W98493  41.947  41.527  13.965
34561W        W98494   5.727  11.674   0.315
34562W        W98495  35.577  36.942   2.788
34563W        W98496  10.305  35.099   3.333
34564W        W98497  27.112   4.219  12.042
34565W        W98498  30.554  37.040   3.797
34566W        W98499  14.721  38.376  11.407
34567W        W98500  37.410  21.636  10.501
34568W        W98501   1.482  11.742   2.260
34569W        W98502  32.886   6.216   3.749
34570W        W98503   1.424  22.101   1.275
34571W        W98504   1.391  29.459   3.319
34572W        W98505  23.210  13.821  10.594
34573W        W98506  35.569   1.473   0.360
34574W        W98507  28.597  21.550  13.837
34575W        W98508  13.278  29.590   3.359
34576W        W98509  18.212   1.468   0.764
34577W        W98510   5.916  12.818   1.290
34578W        W98511  24.140  16.783  10.971
34579W        W98512   4.311  12.786   4.684
34580W        W98513  30.062  41.860   1.419
34581W        W98514   3.437  25.210  14.926
34582W        W98515  28.488  33.089   3.367
34583W        W98516  17.228  16.636  14.808
34584W        W98517  27.491  27.117  12.394
34585W        W98518  25.527  43.272   2.404
34586W        W98519   6.242   2.826   0.380
34587W        W98520  11.180  25.578   4.720
34588W        W98521  28.678  37.498  14.437
34589W        W98522  30.511  35.899  11.994
34590W        W98523  27.682  29.967  12.060
34591W        W98524  19.124  18.206  12.548
34592W        W98525  22.566   8.698  13.521
34593W        W98526  29.575  28.162   9.931
34594W        W98527   7.773   3.443   0.901
34595W        W98528  26.688  15.746   0.431
34596W        W98529   4.421  24.225  13.957
34597W        W98530  25.003   0.426  12.887
34598W        W98531   2.468  13.675   9.564
34599W        W98532  26.578  41.358  10.945
34600W        W98533   1.741  44.276  13.831
34601W        W98534  29.060   5.928   4.692
34602W        W98535  15.134  26.017  12.502
34603W        W98536   0.900  20.675   4.604
34604W        W98537  36.363   0.306   3.211
34605W        W98538   5.410  34.018   1.212
34606W        W98539  14.777  39.051   4.803
34607W        W98540  24.067  42.291   0.727
34608W        W98541  22.678  23.025   3.840
34609W        W98542  41.919  29.498   4.213
34610W        W98543  41.815  19.203   0.807
34611W        W98544  22.022  30.060   3.199
34612W        W98545  19.742  44.882  11.551
34613W        W98546  36.399  11.769   1.934
34614W        W98547   7.260  17.604   2.811
34615W        W98548   9.720  34.492   2.822
34616W        W98549  19.609   2.402  13.829
34617W        W98550   6.288  20.711  12.852
34618W        W98551  37.070  22.526  14.896
34619W        W98552  44.873  26.179  11.379
34620W        W98553  24.010   4.800   3.870
34621W        W98554  30.464  24.499  11.952
34622W        W98555  40.864  31.431   2.787
34623W        W98556  42.778  23.524   2.245
34624W        W98557  21.242   0.259   0.851
34625W        W98558   6.883  33.002  13.863
34626W        W98559  34.433  14.826  11.880
34627W        W98560  39.383   1.942  11.057
34628W        W98561  22.622  22.627   0.409
34629W        W98562  41.291  38.864   2.700
34630W        W98563  24.217   9.855   5.267
34631W        W98564   7.832  12.329   4.791
34632W        W98565  18.052  10.177   4.736
34633W        W98566  38.412   4.937   0.469
34634W        W98567  21.554   7.378  13.320
34635W        W98568  42.946  41.526  11.476
34636W        W98569  32.932  22.553  13.547
34637W        W98570  19.106   3.261   1.792
34638W        W98571  37.924  22.677   4.802
34639W        W98572  14.669  26.958   0.427
34640W        W98573  37.833   4.890   3.846
34641W        W98574  39.479   9.228   0.277
34642W        W98575   1.248  14.282  11.052
34643W        W98576  32.556   8.793  12.021
34644W        W98577  43.419  32.557  11.472
34645W        W98578  24.595   9.363  12.954
34646W        W98579   9.289  31.091  13.488
34647W        W98580  14.628  40.347   3.255
34648W        W98581  17.245  30.136   2.716
34649W        W98582  35.552  34.968   0.794
34650W        W98583   3.782  33.974  10.614
34651W        W98584  31.541  39.385  12.480
34652W        W98585  32.437  29.451  12.409
34653W        W98586   8.828  40.319  14.021
34654W        W98587  41.018  22.199  14.451
34655W        W98588   6.366  39.329   3.159
34656W        W98589  42.896   5.867  14.452
34657W        W98590  20.130   4.259   2.829
34658W        W98591  20.050  42.957  14.771
34659W        W98592  20.579  23.184   3.192
34660W        W98593   2.898  25.165   3.279
34661W        W98594  19.240  36.521  13.334
34662W        W98595   1.292  34.014   1.722
34663W        W98596   5.863  33.996   4.256
34664W        W98597  38.421  13.192  12.430
34665W        W98598   7.273  42.377   4.258
34666W        W98599   9.299  27.651  12.945
34667W        W98600  35.074  40.484  13.914
34668W        W98601   0.410  15.253  14.976
34669W        W98602  19.161   7.354  12.500
34670W        W98603  38.055  22.210  12.989
34671W        W98604   3.940  17.563  12.865
34672W        W98605  13.306  41.457  13.820
34673W        W98606  31.975  32.041  13.367
34674W        W98607  16.583  32.016  13.444
34675W        W98608  13.729   1.787   1.798
34676W        W98609   1.432  20.068  14.007
34677W        W98610  10.311  31.967   0.394
34678W        W98611  25.997  18.102  12.875
34679W        W98612  25.111  44.937  13.348
34680W        W98613  30.569  20.667   1.816
34681W        W98614  11.160  21.135   3.796
34682W        W98615  21.684  24.991   4.776
34683W        W98616   0.252   5.374  11.996
34684W        W98617  31.073  18.265   3.673
34685W        W98618  33.538   6.730  11.488
34686W        W98619  29.028   7.370  13.479
34687W        W98620   4.210  20.769   4.277
34688W        W98621  24.578  29.479  10.404
34689W        W98622  43.452   6.844   3.220
34690W        W98623  28.449  37.033   0.265
34691W        W98624   4.883   4.930  14.425
34692W        W98625  24.566  15.597  10.532
34693W        W98626  32.464   1.752   1.776
34694W        W98627   1.758  32.607  13.905
34695W        W98628   6.821  33.944  13.054
34696W        W98629  14.784  39.011   4.114
34697W        W98630  38.509  31.064   1.408
34698W        W98631  14.178  18.562   4.740
34699W        W98632  31.965  24.041   2.757
34700W        W98633  39.514  29.156  11.507
34701W        W98634  43.460   2.311   2.876
34702W        W98635  41.922   3.248   4.222
34703W        W98636  20.164   5.889   2.226
34704W        W98637   9.648  15.721  10.939
34705W        W98638  13.640  12.843  13.050
34706W        W98639   7.218  41.340   4.681
34707W        W98640   7.798  26.494   2.249
34708W        W98641  38.907  27.121  10.923
34709W        W98642   1.467   0.492   1.223
34710W        W98643  22.530  10.789   0.828
34711W        W98644   8.826  20.051   2.873
34712W        W98645  44.447  11.798  13.349
34713W        W98646  39.328  19.235  14.430
34714W        W98647  17.783  25.511   1.319
34715W        W98648  28.116  43.480   5.187
34716W        W98649  13.130  11.301  14.874
34717W        W98650  30.541  34.033  12.998
34718W        W98651   1.884  16.272  12.379
34719W        W98652  35.961  16.149  12.920
34720W        W98653  43.774  39.317  11.385
34721W        W98654  12.240  32.392   3.306
34722W        W98655   8.804   4.250  12.950
34723W        W98656   5.383  38.862   1.813
34724W        W98657  24.988  28.045  10.920
34725W        W98658  38.959  26.993  13.537
34726W        W98659  31.608   3.335  12.990
34727W        W98660  14.769   3.714   1.851
34728W        W98661  43.966   7.825   2.862
34729W        W98662   0.876  42.455  13.485
34730W        W98663  36.546  18.103   0.397
34731W        W98664  11.724  19.599  13.900
34732W        W98665  33.498  22.243  13.991
34733W        W98666  26.693  11.854   0.950
34734W        W98667  39.329  10.655  10.441
34735W        W98668  41.307   0.366   4.630
34736W        W98669  12.692   3.251   2.711
34737W        W98670  40.540  21.169   4.283
34738W        W98671  29.616  22.550  10.955
34739W        W98672  20.170  26.584   2.900
34740W        W98673   2.892  12.780  10.976
34741W        W98674  32.002  22.577   4.820
34742W        W98675   4.832  39.350   1.362
34743W        W98676  39.513  22.237   3.239
34744W        W98677  34.881  11.249   3.359
34745W        W98678  40.839   4.332  14.376
34746W        W98679  41.991  15.627   1.234
34747W        W98680  35.929  19.100  14.381
34748W        W98681  22.520  23.051  14.488
34749W        W98682  25.037   2.385   0.280
34750W        W98683  11.325  10.660  12.075
34751W        W98684  30.045  26.196   2.402
34752W        W98685  40.401  14.195  13.393
34753W        W98686   3.301  29.437  11.551
34754W        W98687  25.605  11.291  12.992
34755W        W98688  44.860   7.712   3.656
34756W        W98689  12.141  42.316   0.919
34757W        W98690   7.748  30.982   2.690
34758W        W98691   8.863  23.506   0.916
34759W        W98692  19.143  18.131  11.602
34760W        W98693  31.089  31.014  12.946
34761W        W98694  11.323  25.495   2.283
34762W        W98695   7.774  39.342   4.729
34763W        W98696  40.860   1.331   0.840
34764W        W98697  42.883  29.154   0.902
34765W        W98698   6.204  39.054  11.919
34766W        W98699  19.053  42.890   1.847
34767W        W98700  44.923   7.180  10.465
34768W        W98701  22.504  19.201  12.449
34769W        W98702   4.237  43.425  14.412
34770W        W98703   3.311  41.341  13.898
34771W        W98704  37.065   5.875  11.612
34772W        W98705   8.809  42.782   1.921
34773W        W98706  30.993  37.023   0.790
34774W        W98707  20.223  35.858  11.480
34775W        W98708  34.960  26.471  14.868
34776W        W98709  40.991  15.187   2.819
34777W        W98710  44.368  44.760  10.459
34778W        W98711   2.432  37.524   2.847
34779W        W98712  41.829  41.367   1.781
34780W        W98713   9.818  22.655   4.772
34781W        W98714  12.633  16.234  10.541
34782W        W98715  10.193  34.516  14.499
34783W        W98716  32.938  33.883   2.705
34784W        W98717  28.561  36.869  12.460
34785W        W98718  39.903  28.000  10.408
34786W        W98719   9.821  37.908   3.305
34787W        W98720  28.134  42.862  11.938
34788W        W98721  34.536  31.989   0.429
34789W        W98722  15.686   7.901   2.763
34790W        W98723  14.674   9.390   2.828
34791W        W98724  44.440  37.347   1.735
34792W        W98725  21.541  28.958   5.314
34793W        W98726  32.944  29.513   0.265
34794W        W98727   6.235  23.098   3.231
34795W        W98728  29.173  15.112   3.856
34796W        W98729   5.369   9.833   3.690
34797W        W98730  22.613  37.944  14.904
34798W        W98731  36.855  13.311   1.772
34799W        W98732  15.314   5.914   3.845
34800W        W98733  22.575  14.673  12.889
34801W        W98734  13.239   6.685   1.766
34802W        W98735  39.340  29.550   4.198
34803W        W98736  29.151  40.465   1.815
34804W        W98737  44.388  14.163  12.527
34805W        W98738   8.833  33.018  13.397
34806W        W98739  21.035  12.307  12.351
34807W        W98740  17.180   2.776   4.150
34808W        W98741   3.728  15.290  12.954
34809W        W98742  15.257  40.375   2.786
34810W        W98743   0.461  18.685  11.541
34811W        W98744  24.976  37.351   1.355
34812W        W98745  31.025  37.887   0.746
34813W        W98746  18.294  19.760  10.001
34814W        W98747  22.604  11.816   5.309
34815W        W98748  22.237   0.766  14.763
34816W        W98749  23.543  37.087   0.458
34817W        W98750  33.895  14.232   0.343
34818W        W98751   4.261  18.668   4.622
34819W        W98752  30.988  14.802   0.783
34820W        W98753  44.834  15.695   1.273
34821W        W98754  34.887   4.761   4.339
34822W        W98755  42.961  18.255  13.798
34823W        W98756   6.890  11.652  13.351
34824W        W98757  34.091  36.405  14.866
34825W        W98758  19.714  15.269  13.506
34826W        W98759  26.482  38.537  10.983
34827W        W98760  33.013  21.116   3.267
34828W        W98761  37.418  15.628   0.875
34829W        W98762  41.297   8.710   0.391
34830W        W98763  25.191   7.345  14.812
34831W        W98764   3.257  25.196   0.900
34832W        W98765   4.321  33.954  14.325
34833W        W98766  41.376  29.653   2.331
34834W        W98767  29.018  34.939   1.817
34835W        W98768  20.043  40.985  13.390
34836W        W98769  39.553  34.473   1.372
34837W        W98770  29.977  16.569   2.407
34838W        W98771  30.919   9.195  13.392
34839W        W98772   7.305   8.806   0.868
34840W        W98773  27.950  40.469  13.462
34841W        W98774  36.056   1.249   4.683
34842W        W98775   3.833  11.179   0.471
34843W        W98776  17.742  43.412  12.005
34844W        W98777   4.919  33.423   3.254
34845W        W98778   6.313  20.615   1.734
34846W        W98779  43.314   4.777  10.901
34847W        W98780  24.628  18.179   1.884
34848W        W98781  16.126  24.127  12.983
34849W        W98782   2.808  12.829   3.345
34850W        W98783  31.074  41.044  11.936
34851W        W98784  15.704  43.382   4.158
34852W        W98785   4.801  17.306  13.314
34853W        W98786  44.310  17.135   1.707
34854W        W98787  17.142   6.418   4.668
34855W        W98788   5.424  24.647  11.403
34856W        W98789  38.920  29.955   1.853
34857W        W98790  12.675  32.487  10.604
34858W        W98791   0.962  18.735  13.922
34859W        W98792  34.013  44.892  11.109
34860W        W98793  36.872   4.894   0.814
34861W        W98794  22.067  16.239  13.518
34862W        W98795  22.072   7.247  11.120
34863W        W98796  22.622  30.538  11.563
34864W        W98797  42.390   1.348   3.819
34865W        W98798   3.790  22.130   3.244
34866W        W98799   6.187  23.164  12.363
34867W        W98800  43.493  40.023  10.497
34868W        W98801   8.375   2.953   0.368
34869W        W98802  40.894  24.056   4.117
34870W        W98803  24.717   2.403   3.247
34871W        W98804  15.748  12.338   2.704
34872W        W98805  20.070  22.233  12.511
34873W        W98806  38.006  44.441   4.702
34874W        W98807  38.539  34.456  12.891
34875W        W98808   2.361  32.616  11.605
34876W        W98809   2.812  26.605  14.406
34877W        W98810   3.255  28.611   1.760
34878W        W98811  15.190   8.255  12.914
34879W        W98812   9.285  43.880   2.794
34880W        W98813   7.226  27.012   0.874
34881W        W98814  18.264  40.304  14.905
34882W        W98815   9.880  35.583   3.321
34883W        W98816  34.872  38.364   3.827
34884W        W98817  23.592  42.790   0.369
34885W        W98818   7.715  32.484   2.788
34886W        W98819  28.066   2.427   1.404
34887W        W98820  35.485   7.840   2.320
34888W        W98821  16.300  30.105  12.569
34889W        W98822  11.845  31.431  13.371
34890W        W98823  11.792  41.324  12.480
34891W        W98824   4.901  44.845  11.557
34892W        W98825  36.541  44.896  11.033
34893W        W98826  40.472  18.621  12.093
34894W        W98827  40.011  43.773   3.735
34895W        W98828   2.419   9.829  13.031
34896W        W98829  13.314  21.110   3.332
34897W        W98830   1.952  42.508  10.579
34898W        W98831  42.285  28.030  12.027
34899W        W98832  39.986  32.474  12.417
34900W        W98833  15.817  35.018   1.734
34901W        W98834  22.721  27.631  11.522
34902W        W98835  33.596  39.935  12.970
34903W        W98836  30.162  17.265  10.928
34904W        W98837   0.856   6.383  14.873
34905W        W98838  26.115  44.305   1.866
34906W        W98839   4.900  28.562   2.358
34907W        W98840  40.800  21.090   1.289
34908W        W98841  38.986  28.128   3.346
34909W        W98842  21.755   3.871  14.308
34910W        W98843  35.873  20.585   0.261
34911W        W98844   2.756  41.491  13.045
34912W        W98845  25.595  37.574  12.092
34913W        W98846   3.913   8.670  14.361
34914W        W98847   0.332  32.441   2.345
34915W        W98848  36.049  23.510  11.569
34916W        W98849  34.491  20.116  13.536
34917W        W98850  39.337  35.931  12.924
34918W        W98851  19.693  11.238  12.964
34919W        W98852  21.146  23.703   1.295
34920W        W98853  38.445  14.257   1.724
34921W        W98854  26.687  42.909  13.395
34922W        W98855  20.559  42.029   4.624
34923W        W98856  25.578   0.287  14.281
34924W        W98857  37.389  12.306   0.441
34925W        W98858  15.687  39.315   2.770
34926W        W98859   2.790  43.918   2.363
34927W        W98860  17.630   0.940  12.935
34928W        W98861  14.832  25.565   4.207
34929W        W98862   1.930  44.261  11.509
34930W        W98863  17.140  12.167   3.849
34931W        W98864  22.552   4.441   3.272
34932W        W98865  37.856  34.982  13.893
34933W        W98866  43.957  39.999   0.421
34934W        W98867   2.436  36.065  14.359
34935W        W98868  13.784  33.031  12.395
34936W        W98869   8.164  17.124  10.577
34937W        W98870   9.673  32.920   0.316
34938W        W98871  24.195   8.168   0.407
34939W        W98872  35.455  10.243   3.770
34940W        W98873  26.162  43.992   1.302
34941W        W98874  38.454   3.311   2.834
34942W        W98875   9.705  25.489   2.260
34943W        W98876  21.625  28.079   0.253
34944W        W98877   0.310  38.465   2.860
34945W        W98878  19.208  41.842   4.263
34946W        W98879  19.043  29.669  12.385
34947W        W98880  36.450  39.545   3.720
34948W        W98881  17.700  17.625   3.335
34949W        W98882  38.997  13.319  12.014
34950W        W98883  24.050  35.498  14.799
34951W        W98884  38.379  26.036   2.235
34952W        W98885   9.214  16.600  14.448
34953W        W98886   1.406  42.491   1.708
34954W        W98887  39.983  27.045  13.010
34955W        W98888  23.988   1.322   3.731
34956W        W98889  19.671   5.417   0.256
34957W        W98890  11.186   4.218   3.314
34958W        W98891  30.103  23.667  12.879
34959W        W98892  15.171  27.099   0.842
34960W        W98893  26.103  12.636   2.363
34961W        W98894  18.757  34.013   1.431
34962W        W98895  11.846  14.150  10.534
34963W        W98896  15.693  28.439   2.207
34964W        W98897  28.662  18.627  11.574
34965W        W98898  31.429   2.869  10.500
34966W        W98899  39.834  20.191  12.568
34967W        W98900   6.331  22.073   2.400
34968W        W98901   7.677   6.737   0.776
34969W        W98902   7.379  24.223  13.443
34970W        W98903  34.461  25.141  12.063
34971W        W98904  32.110  24.130   4.730
34972W        W98905  38.049  41.453   4.182
34973W        W98906  25.663   3.398  14.481
34974W        W98907  26.013  39.965   3.764
34975W        W98908  38.556  21.659   2.862
34976W        W98909  28.004  13.147   9.945
34977W        W98910  40.541   2.853  14.944
34978W        W98911  12.176  35.386  11.501
34979W        W98912  16.583  43.866   2.866
34980W        W98913  29.071  31.038   3.343
34981W        W98914  32.087   0.326  14.274
34982W        W98915  20.555  30.656  11.977
34983W        W98916  37.932  13.270   4.237
34984W        W98917  20.242  38.397  11.891
34985W        W98918  34.541   3.816  11.461
34986W        W98919  38.968  28.600   0.431
34987W        W98920  15.124   0.935   2.380
34988W        W98921  20.586   7.282   1.261
34989W        W98922  37.543  24.118  14.021
34990W        W98923  21.545  35.011  14.939
34991W        W98924  15.666  26.191   3.673
34992W        W98925  30.609  20.143  10.639
34993W        W98926  40.388  22.248  13.423
34994W        W98927  29.083   7.350  10.907
34995W        W98928  12.633   2.874   2.355
34996W        W98929  35.882   0.983  12.526
34997W        W98930  25.623  32.013   0.748
34998W        W98931  42.957  29.483   1.251
34999W        W98932  23.019  23.665  10.935
35000W        W98933   2.408   3.875  12.014
35001W        W98934  31.405  42.453   3.832
35002W        W98935  24.686  20.108  10.617
35003W        W98936   0.846  23.640   1.352
35004W        W98937  39.525   0.949  12.509
35005W        W98938  25.102  19.116  13.797
35006W        W98939  14.670  38.501  10.644
35007W        W98940  43.316   1.940   2.232
35008W        W98941  17.715  13.629  12.439
35009W        W98942   7.904  27.013   9.677
35010W        W98943  39.517  43.389  13.484
35011W        W98944  35.479  36.587  13.007
35012W        W98945  12.621  28.620  12.574
35013W        W98946   2.248  23.664   1.886
35014W        W98947   9.670  30.963  11.419
35015W        W98948  27.180  35.867  10.591
35016W        W98949  24.654   6.224   3.861
35017W        W98950  24.606  13.609   1.934
35018W        W98951  30.022  21.650  13.348
35019W        W98952  11.802  25.187   3.325
35020W        W98953  13.817   8.786   4.711
35021W        W98954  18.228  22.638   4.770
35022W        W98955   8.347  14.679  13.400
35023W        W98956  13.771   5.883   9.650
35024W        W98957  16.575  35.531   1.822
35025W        W98958  19.577  31.522  12.371
35026W        W98959  27.082  11.824   3.232
35027W        W98960  33.958   3.272   2.794
35028W        W98961  31.434   0.801   4.269
35029W        W98962   7.733  37.058  13.343
35030W        W98963  32.433  40.497  10.959
35031W        W98964  23.018  29.062   0.851
35032W        W98965  10.293  17.692  10.546
35033W        W98966  24.605   3.857  11.566
35034W        W98967  28.945  18.073   2.766
35035W        W98968  36.975  36.530  14.804
35036W        W98969  31.077  42.860   2.715
35037W        W98970  42.512  28.555  14.841
35038W        W98971  18.591  15.659   3.355
35039W        W98972   0.255  12.142  12.406
35040W        W98973  28.444  17.607   0.899
35041W        W98974  11.686  41.000  13.987
35042W        W98975  35.989  41.413   3.774
35043W        W98976  33.528   9.683  11.864
35044W        W98977  20.637  30.541   3.275
35045W        W98978   0.917  41.359  11.430
35046W        W98979  36.418  19.739  10.553
35047W        W98980  35.477  37.872  13.811
35048W        W98981  21.613  33.114   2.774
35049W        W98982  43.430  19.151  12.070
35050W        W98983  41.324  30.609   4.298
35051W        W98984  31.581  28.562  11.983
35052W        W98985  16.595   9.193   4.758
35053W        W98986  32.630   4.419  14.965
35054W        W98987  19.739   0.845   3.868
35055W        W98988  34.455  39.945  13.837
35056W        W98989   3.776  15.664   0.919
35057W        W98990  13.661   7.206   2.314
35058W        W98991  21.041  41.354   0.395
35059W        W98992   4.843  15.591   0.403
35060W        W98993   5.220  14.270  12.911
35061W        W98994  13.798  37.065  11.121
35062W        W98995  32.947  42.520   0.365
35063W        W98996  11.824   4.763   2.387
35064W        W98997  32.631  13.670   0.937
35065W        W98998  44.349  12.259  11.384
35066W        W98999  17.616   6.728   2.277
35067W        W99000  39.486  20.591  10.898
35068W        W99001  24.660  39.902   2.289
35069W        W99002   3.246  38.490  14.451
35070W        W99003   6.358  29.489   2.836
35071W        W99004  44.261  33.452   3.772
35072W        W99005  42.475  11.722   3.358
35073W        W99006  27.555  38.571  13.999
35074W        W99007   2.427  39.935   2.741
35075W        W99008  12.288  17.233  14.350
35076W        W99009   3.906  41.903   2.727
35077W        W99010  19.280  30.083  11.962
35078W        W99011  31.547  44.875   4.346
35079W        W99012  41.983  11.698   1.387
35080W        W99013  16.809  22.715  14.461
35081W        W99014  44.929  42.456  10.550
35082W        W99015  15.654   3.855   5.154
35083W        W99016   6.834  39.023   3.332
35084W        W99017  13.760  42.022  14.354
35085W        W99018   0.444  17.128   4.832
35086W        W99019   0.889  23.546   3.341
35087W        W99020   0.435   8.173  14.839
35088W        W99021   7.776  23.197   0.334
35089W        W99022  13.303  22.638  14.873
35090W        W99023  30.041  26.175   4.637
35091W        W99024  34.565   1.280   1.806
35092W        W99025  19.555  28.080  11.531
35093W        W99026  26.972  33.403   2.847
35094W        W99027  35.475  34.535  11.116
35095W        W99028  12.774  15.761   0.301
35096W        W99029  17.290  14.274  11.075
35097W        W99030   5.201   7.732  14.769
35098W        W99031   6.278  39.441  13.837
35099W        W99032  29.588  18.649  11.530
35100W        W99033  10.741  24.614   3.642
35101W        W99034  37.923  33.472   4.676
35102W        W99035  15.326  26.098   2.697
35103W        W99036  39.847   4.418  12.424
35104W        W99037   1.431  11.355   4.666
35105W        W99038  25.709  26.659   0.456
35106W        W99039  15.697  10.209   3.321
35107W        W99040  11.807  21.605   2.792
35108W        W99041  14.181  34.577  10.892
35109W        W99042   7.849  11.329  14.436
35110W        W99043  20.709  26.178   0.833
35111W        W99044   7.382  31.604   4.692
35112W        W99045  14.275   4.808  12.946
35113W        W99046  20.271  36.565   4.763
35114W        W99047   0.759  19.718   1.446
35115W        W99048  24.195  38.427   3.205
35116W        W99049  43.416  13.744  11.962
35117W        W99050   1.245  30.118  10.915
35118W        W99051   2.388   1.777  12.096
35119W        W99052  40.538  11.723  10.150
35120W        W99053   7.676  27.145   0.392
35121W        W99054  34.526  35.092   1.906
35122W        W99055  36.985  28.085  11.924
35123W        W99056  24.488  44.961   5.179
35124W        W99057   3.246  20.623   1.413
35125W        W99058  28.056  25.142  13.944
35126W        W99059  12.353  40.942   4.270
35127W        W99060  15.598  36.064  14.807
35128W        W99061  35.566   5.212  12.954
35129W        W99062  44.979  26.999  11.557
35130W        W99063  38.480   3.372   0.325
35131W        W99064  22.588  22.228   3.233
35132W        W99065  17.219  30.044  10.564
35133W        W99066  41.923   2.460   4.665
35134W        W99067  33.023  21.515  13.052
35135W        W99068  14.119  15.687  14.933
35136W        W99069  15.141  22.622  13.502
35137W        W99070  36.542  20.208  13.057
35138W        W99071  29.954  13.275   2.376
35139W        W99072   7.260  29.152   1.908
35140W        W99073   8.198  15.195   2.684
35141W        W99074   8.773  31.509   2.869
35142W        W99075  22.683   0.475  14.274
35143W        W99076   2.962  26.457   3.344
35144W        W99077  40.911   5.266  11.119
35145W        W99078  37.522  11.260   0.910
35146W        W99079  39.516  21.109  10.434
35147W        W99080   2.421  41.969   1.819
35148W        W99081  38.476  37.563   2.178
35149W        W99082   2.958  34.556  14.864
35150W        W99083  44.390  13.303   1.450
35151W        W99084  22.023   1.751  10.535
35152W        W99085   8.885  17.682   3.265
35153W        W99086  32.127  40.438   5.137
35154W        W99087  31.982  39.810  13.807
35155W        W99088   6.899  18.198   4.625
35156W        W99089   0.980  24.489  11.428
35157W        W99090  26.470   9.789  11.438
35158W        W99091  43.453  38.464  13.928
35159W        W99092   0.424  42.010   1.767
35160W        W99093  11.659  28.447   0.312
35161W        W99094   6.305  24.059   3.843
35162W        W99095  11.708  34.411   0.737
35163W        W99096   6.359  20.161   0.264
35164W        W99097  21.528  12.703  10.520
35165W        W99098  26.003  16.114   1.828
35166W        W99099  21.523   9.166   3.633
35167W        W99100  43.301  23.635   4.705
35168W        W99101  17.688  35.440   4.301
35169W        W99102   6.758  15.769   3.817
35170W        W99103  23.997  11.657  12.411
35171W        W99104  22.644   8.277  10.937
35172W        W99105  25.123  20.221  14.809
35173W        W99106  17.796  14.234   0.462
35174W        W99107  36.902  23.065  13.876
35175W        W99108  29.665   7.890   0.786
35176W        W99109   4.357   3.266   3.352
35177W        W99110  28.154   8.822  11.402
35178W        W99111  20.652   8.364   2.874
35179W        W99112  38.341  27.022   4.304
35180W        W99113  12.175  14.689  13.310
35181W        W99114  34.436   0.375   3.193
35182W        W99115  25.981  29.056   4.189
35183W        W99116   6.736   1.274   3.715
35184W        W99117  29.136  10.786   1.316
35185W        W99118  35.511  13.752  13.925
35186W        W99119  23.201  39.544  14.982
35187W        W99120  18.547  10.862  11.952
35188W        W99121   7.743  20.747  12.475
35189W        W99122  12.786  26.999   3.344
35190W        W99123  12.306  39.423  14.318
35191W        W99124  13.252  29.512  10.425
35192W        W99125  16.798  43.314  10.480
35193W        W99126  10.843  17.061   4.714
35194W        W99127  10.289  33.565   4.748
35195W        W99128  19.545  39.394   2.330
35196W        W99129   6.425   0.752   1.360
35197W        W99130  31.050  27.461   0.281
35198W        W99131  19.655  36.457   1.740
35199W        W99132   6.322  38.508  14.308
35200W        W99133  41.949  12.627  14.006
35201W        W99134  23.517  17.238   1.450
35202W        W99135  38.416  19.097  11.548
35203W        W99136  38.839  26.110   2.705
35204W        W99137  19.700  18.144   9.543
35205W        W99138   4.261  33.564  11.514
35206W        W99139  30.609  29.973   4.242
35207W        W99140  18.686   8.745   3.158
35208W        W99141  21.091   5.216  14.762
35209W        W99142  14.182  22.663  14.943
35210W        W99143  15.753  21.689   1.296
35211W        W99144  20.547  29.057   3.329
35212W        W99145   9.245   3.327  12.517
35213W        W99146  27.456  19.250  14.362
35214W        W99147  11.236  26.108  11.590
35215W        W99148  14.653  27.460   3.266
35216W        W99149  21.192  10.227   3.311
35217W        W99150  41.901  32.534   3.276
35218W        W99151  29.127  27.568  14.996
35219W        W99152  21.252  40.416  11.492
35220W        W99153  41.379  44.767  11.093
35221W        W99154  31.077  36.589   4.812
35222W        W99155  11.300  16.804   2.668
35223W        W99156  41.029   9.323   3.365
35224W        W99157  15.738   4.265  13.905
35225W        W99158   8.373  27.943  13.897
35226W        W99159  31.468   2.821   4.320
35227W        W99160   0.255   1.862  13.895
35228W        W99161  24.064  32.569  10.561
35229W        W99162  11.681   0.294  10.545
35230W        W99163  40.428   6.893  13.793
35231W        W99164  11.716   6.320  14.996
35232W        W99165  14.294  30.027   0.253
35233W        W99166   4.742  11.623   4.673
35234W        W99167   7.912  36.918   4.700
35235W        W99168  19.543  16.229   0.738
35236W        W99169  37.963   3.416  10.512
35237W        W99170  20.695  23.189  14.431
35238W        W99171  31.547  14.160  11.982
35239W        W99172   1.885  24.680   0.447
35240W        W99173  22.074  33.056  10.409
35241W        W99174   8.747  24.600  11.612
35242W        W99175  11.805  20.204   3.736
35243W        W99176  31.510   2.801   3.160
35244W        W99177  11.628  18.574   5.312
35245W        W99178  11.209  24.052  12.924
35246W        W99179  29.018  19.731   4.319
35247W        W99180   1.249  25.201  14.031
35248W        W99181  31.582   9.820   3.790
35249W        W99182  14.322   1.284   2.407
35250W        W99183  26.049  34.413  12.543
35251W        W99184  44.417  29.066  10.633
35252W        W99185   4.380  22.522   2.742
35253W        W99186  29.537  20.102   4.129
35254W        W99187  18.262  25.055   3.674
35255W        W99188  10.679   9.308   3.664
35256W        W99189  36.063  17.086  10.975
35257W        W99190   1.396   3.278   4.629
35258W        W99191  23.115  24.511  14.984
35259W        W99192  25.201  12.341   5.237
35260W        W99193   2.847   5.299   4.313
35261W        W99194   7.719  35.039  10.983
35262W        W99195  11.809   3.362  12.839
35263W        W99196  21.637   9.888   2.259
35264W        W99197  36.902  27.546   4.117
35265W        W99198  12.695  18.265   3.677
35266W        W99199   6.754  43.908   3.191
35267W        W99200  32.033  22.551   2.691
35268W        W99201   4.945   5.757   2.389
35269W        W99202  28.456   2.349   3.146
35270W        W99203  21.614  44.492   4.833
35271W        W99204   7.202   3.810   0.331
35272W        W99205  44.327  28.087   2.412
35273W        W99206  20.138  37.440   4.792
35274W        W99207   9.165  13.194   0.344
35275W        W99208  35.468  43.394   4.312
35276W        W99209   6.741  34.388  11.091
35277W        W99210  36.060  15.183   4.283
35278W        W99211  32.594  18.688   3.232
35279W        W99212  18.277   7.825   3.684
35280W        W99213  12.259  17.225   0.367
35281W        W99214   5.854   4.236  12.477
35282W        W99215  39.043  18.696  13.033
35283W        W99216  30.149  19.099  12.509
35284W        W99217  31.989  12.710  13.479
35285W        W99218   4.241   1.929   3.154
35286W        W99219   6.214  21.178   3.724
35287W        W99220  44.283  20.578   1.246
35288W        W99221   0.924   6.397  13.049
35289W        W99222  39.537  10.258   0.325
35290W        W99223  31.590  19.234   3.821
35291W        W99224   7.880  13.619  11.029
35292W        W99225  16.616  19.581  14.406
35293W        W99226  17.160  11.750  11.404
35294W        W99227  38.366  18.191  10.643
35295W        W99228  40.911  18.255  13.451
35296W        W99229  34.369  36.556  13.828
35297W        W99230  17.565  20.713  11.883
35298W        W99231   1.374  22.732   3.218
35299W        W99232  41.985  42.345   1.312
35300W        W99233  28.955  11.841  11.611
35301W        W99234   8.178  34.400  10.580
35302W        W99235  31.573   5.381  10.579
35303W        W99236  32.414  18.571  13.418
35304W        W99237  22.067  12.129   2.715
35305W        W99238   5.886  33.123   2.701
35306W        W99239  30.451   9.168  13.459
35307W        W99240  35.072   9.166   2.804
35308W        W99241  22.085   6.200  10.917
35309W        W99242  36.065  39.011  14.401
35310W        W99243  11.709  35.481  14.767
35311W        W99244   0.423   2.923   0.828
35312W        W99245  22.689  11.251  11.920
35313W        W99246  31.080  10.770  10.981
35314W        W99247   7.741  12.117   0.343
35315W        W99248  40.472  27.100  11.108
35316W        W99249   2.433  28.595   2.801
35317W        W99250  12.820   1.286  11.072
35318W        W99251  42.868  25.163   1.878
35319W        W99252   1.462  24.983  14.943
35320W        W99253  10.142  22.225   1.400
35321W        W99254  24.097  34.395   1.353
35322W        W99255  30.544   3.940  12.505
35323W        W99256  33.971   9.772  12.471
35324W        W99257  32.502  19.203   1.900
35325W        W99258  16.142  19.632   5.126
35326W        W99259  36.061  29.546   1.890
35327W        W99260  30.014  12.256   2.251
35328W        W99261  10.311  23.992   1.716
35329W        W99262  29.991  38.552   3.680
35330W        W99263  27.994   1.814   3.372
35331W        W99264  36.559   7.403  10.980
35332W        W99265   4.263  10.374  11.443
35333W        W99266   9.347  22.594  12.065
35334W        W99267  40.542  39.953   1.900
35335W        W99268   3.762   5.692   1.889
35336W        W99269  25.705  10.297   3.645
35337W        W99270  16.656  31.439   4.799
35338W        W99271  34.406  37.417   1.781
35339W        W99272  27.570   1.441  12.381
35340W        W99273  30.439  18.160  14.310
35341W        W99274  41.804  15.659   2.860
35342W        W99275  41.501  18.660   1.888
35343W        W99276  10.181  43.808  10.406
35344W        W99277  12.191  42.495   4.186
35345W        W99278  37.855  17.171   9.926
35346W        W99279  21.191  10.205   2.256
35347W        W99280  34.424   9.657  10.470
35348W        W99281  40.464  26.692   5.261
35349W        W99282   8.665  29.923  14.422
35350W        W99283  12.669   4.826   1.448
35351W        W99284  22.027  12.700  11.577
35352W        W99285  13.632   5.220   3.651
35353W        W99286  42.362   9.362   2.866
35354W        W99287  42.434  40.449  10.548
35355W        W99288  16.618  35.458   0.873
35356W        W99289  26.546  43.796   3.865
35357W        W99290   6.255   2.339  10.018
35358W        W99291  10.765  24.105  11.107
35359W        W99292  28.479  33.910  11.927
35360W        W99293   5.387  21.134  14.893
35361W        W99294   0.761  39.501  14.950
35362W        W99295  33.510  34.600  10.950
35363W        W99296  24.196  10.804   1.258
35364W        W99297  14.285  25.063   0.324
35365W        W99298  36.026   3.724   4.273
35366W        W99299  13.107  22.123  14.014
35367W        W99300  28.631  39.458  13.416
35368W        W99301  36.882   3.227  14.843
35369W        W99302  41.920  19.251   1.737
35370W        W99303  13.678  25.189   0.779
35371W        W99304  20.612  31.974  13.056
35372W        W99305  36.893   3.245  11.123
35373W        W99306   4.789  36.902   4.715
35374W        W99307   3.868  39.517  11.530
35375W        W99308  41.031  26.687  10.509
35376W        W99309  27.496  40.545   1.934
35377W        W99310  26.612   6.719   4.277
35378W        W99311  33.497  16.569   2.844
35379W        W99312  28.610  32.572  14.449
35380W        W99313  41.801  24.079   3.670
35381W        W99314  39.528  38.896  12.447
35382W        W99315  40.361  44.886   0.860
35383W        W99316  30.422  10.770   4.699
35384W        W99317  16.283   4.314   1.251
35385W        W99318  20.258  12.203  12.838
35386W        W99319  38.463  12.837   4.749
35387W        W99320   4.432  21.107   3.662
35388W        W99321  33.518  18.182   1.707
35389W        W99322   4.341  20.186   0.266
35390W        W99323  41.924  30.950  12.578
35391W        W99324  32.124  30.638  12.876
35392W        W99325   3.937  31.921  12.529
35393W        W99326  31.086  29.044   1.850
35394W        W99327   1.475   0.322   2.187
35395W        W99328   2.907  14.663   1.860
35396W        W99329  18.223  13.643   0.329
35397W        W99330  34.003  18.264   4.317
35398W        W99331   3.926  27.641   2.888
35399W        W99332   5.414  15.652   3.775
35400W        W99333  20.115   3.343   4.777
35401W        W99334  22.684   0.472  12.086
35402W        W99335  13.820  21.582   1.747
35403W        W99336  39.434  38.422  14.510
35404W        W99337   3.912  29.586   4.745
35405W        W99338   3.952  42.357  14.761
35406W        W99339  35.387  36.494   2.702
35407W        W99340  17.579   6.280  13.944
35408W        W99341  42.802  23.048  12.946
35409W        W99342  24.689  14.235   3.268
35410W        W99343  10.867  25.661   2.240
35411W        W99344  32.121  40.877   1.413
35412W        W99345   6.233   3.284   3.348
35413W        W99346  22.188  24.553   0.914
35414W        W99347  19.602  14.306   0.815
35415W        W99348   7.899  11.207  11.575
35416W        W99349   4.350  42.873   4.650
35417W        W99350  41.896  34.090  14.770
35418W        W99351  29.538  13.122  10.975
35419W        W99352  20.706  29.126  13.316
35420W        W99353  14.640  25.002  14.280
35421W        W99354  30.521  13.844  14.019
35422W        W99355   6.699  29.579  13.855
35423W        W99356  37.036  25.971   4.707
35424W        W99357  17.768  23.566   1.758
35425W        W99358  20.571  30.125   3.353
35426W        W99359  31.460  18.190  12.990
35427W        W99360  14.619  35.088   2.224
35428W        W99361   4.216  20.748  12.879
35429W        W99362  18.113  30.967  12.849
35430W        W99363  19.695   0.877   1.344
35431W        W99364  26.206   1.860  11.585
35432W        W99365  13.682  13.824  12.999
35433W        W99366  39.852   2.409  11.584
35434W        W99367   1.946   8.829   1.316
35435W        W99368  28.134  19.197   0.731
35436W        W99369  36.449  36.070  10.626
35437W        W99370   7.361   9.313   4.321
35438W        W99371  14.812  26.622  14.422
35439W        W99372  38.917  43.919  11.569
35440W        W99373  25.658   4.880  13.368
35441W        W99374  26.007  10.348   4.763
35442W        W99375  20.644  23.013   4.716
35443W        W99376  32.480  38.534   1.864
35444W        W99377   6.351  39.362   4.150
35445W        W99378  28.012  31.073  13.452
35446W        W99379  10.663   7.817  11.415
35447W        W99380   3.754  29.121   2.372
35448W        W99381  38.438   7.751  13.402
35449W        W99382  32.475  18.288  13.049
35450W        W99383   4.273  21.025  12.007
35451W        W99384  20.244  30.980  12.849
35452W        W99385  16.272  20.044   1.356
35453W        W99386   4.225  28.593  12.459
35454W        W99387  32.139  25.599   2.384
35455W        W99388  44.965  36.866   1.330
35456W        W99389  32.480   3.810  14.984
35457W        W99390  11.260  22.214   2.297
35458W        W99391  22.648  20.730   3.850
35459W        W99392  22.744  39.062   3.169
35460W        W99393  28.112  41.890  11.446
35461W        W99394  42.975   2.890  13.390
35462W        W99395  40.928   0.792   2.763
35463W        W99396  15.584  29.635   0.397
35464W        W99397  20.721   9.858   1.797
35465W        W99398  10.872  13.774  12.898
35466W        W99399  24.003  41.535   4.689
35467W        W99400  11.267   7.748   2.776
35468W        W99401  20.129  28.563   0.244
35469W        W99402  12.743   7.305   0.946
35470W        W99403   6.803  34.396   0.893
35471W        W99404  19.593  36.055   1.275
35472W        W99405  13.346  44.345  11.526
35473W        W99406  38.846  44.993   1.707
35474W        W99407   6.316  14.110   1.254
35475W        W99408  23.081   5.255   1.759
35476W        W99409  42.882  41.302   0.862
35477W        W99410  27.658  21.712   1.241
35478W        W99411  21.256   7.207  10.630
35479W        W99412   5.383  42.468  11.438
35480W        W99413  35.018  16.680   3.763
35481W        W99414  27.658  28.987   0.454
35482W        W99415  13.710  13.298   2.265
35483W        W99416  40.436  17.213   4.170
35484W        W99417  26.161  16.153  14.421
35485W        W99418  26.968   4.225  14.030
35486W        W99419  21.582   6.695  13.338
35487W        W99420  20.107  42.969   3.235
35488W        W99421  36.979  10.343  13.375
35489W        W99422  43.853   1.308  12.929
35490W        W99423  20.119  31.598  12.455
35491W        W99424  40.862  26.038   1.803
35492W        W99425  17.220  28.989   3.847
35493W        W99426  13.133   1.782  14.908
35494W        W99427  44.902   1.397   4.214
35495W        W99428  24.567   3.800   1.871
35496W        W99429  15.754  30.115   4.702
35497W        W99430  27.645  23.095   3.213
35498W        W99431  41.874   0.916   1.791
35499W        W99432  34.465  31.600  14.353
35500W        W99433  13.215  37.543  14.424
35501W        W99434   1.897   9.285   1.332
35502W        W99435  34.988  24.715   1.792
35503W        W99436  44.930  16.805  11.503
35504W        W99437   2.917  34.887   3.250
35505W        W99438  23.094  35.004  14.028
35506W        W99439  23.100  25.194   3.156
35507W        W99440  13.217   0.466  11.593
35508W        W99441   4.719   5.233   0.765
35509W        W99442  35.033  37.557  12.453
35510W        W99443  32.510  23.728  11.905
35511W        W99444  42.425   7.811  11.094
35512W        W99445  21.511   3.344   2.378
35513W        W99446  41.501  13.153   2.669
35514W        W99447  15.298  33.565   0.830
35515W        W99448  39.356  39.916   4.706
35516W        W99449  22.566   7.189   0.256
35517W        W99450  29.651   2.429  11.386
35518W        W99451  44.858  29.106  14.341
35519W        W99452  38.862  30.616  12.444
35520W        W99453  26.680  39.983   2.181
35521W        W99454  32.434  20.642   4.225
35522W        W99455  28.475  38.920  12.565
35523W        W99456  28.977  12.703  12.558
35524W        W99457  21.735   7.694   3.209
35525W        W99458  38.455  13.665   1.844
35526W        W99459  35.593   6.223  11.061
35527W        W99460  28.088  32.138  10.584
35528W        W99461  32.055  37.496  12.367
35529W        W99462  32.121  32.093  13.050
35530W        W99463  31.479  33.052   2.738
35531W        W99464  19.237  35.366  14.297
35532W        W99465  20.164  39.983  12.520
35533W        W99466  32.057  22.034  10.889
35534W        W99467  11.716  38.883   2.682
35535W        W99468  33.888  24.557   1.346
35536W        W99469  43.296  10.139   4.196
35537W        W99470   9.719  30.988  14.850
35538W        W99471  12.734  42.426  14.887
35539W        W99472  11.241  17.244  13.000
35540W        W99473   1.359  26.586  14.829
35541W        W99474  37.055  26.115  13.898
35542W        W99475  25.216  23.987  10.634
35543W        W99476  12.665  15.699   4.726
35544W        W99477  11.208  23.526  11.103
35545W        W99478  36.524  44.935   2.688
35546W        W99479  27.656  36.491  13.457
35547W        W99480  14.216  27.181   1.919
35548W        W99481  28.180  21.140  13.802
35549W        W99482   8.177   6.232   3.235
35550W        W99483  11.718  19.277   2.749
35551W        W99484  23.085   4.369   1.307
35552W        W99485   6.683  44.333   2.875
35553W        W99486   3.234  38.031   4.679
35554W        W99487   2.858  28.049   1.781
35555W        W99488  37.416   9.664   1.924
35556W        W99489   4.800  35.591   1.698
35557W        W99490  11.174   1.930  11.976
35558W        W99491  10.805  36.426   4.302
35559W        W99492   7.413  19.589   4.619
35560W        W99493  33.547   1.805  14.930
35561W        W99494  28.650  12.766   2.759
35562W        W99495  33.538  34.928  10.522
35563W        W99496  25.607   7.332  14.511
35564W        W99497  12.821  19.050   4.323
35565W        W99498   9.693  26.471  14.324
35566W        W99499  25.130  14.677   3.340
35567W        W99500   5.853  36.864  14.323
35568W        W99501  10.271  16.091  14.930
35569W        W99502  26.624  17.700  14.927
35570W        W99503   7.745  23.558   1.822
35571W        W99504  27.658   6.423   0.794
35572W        W99505  43.923  18.777   3.187
35573W        W99506  25.479  38.521  11.082
35574W        W99507  41.484   6.396   3.823
35575W        W99508   0.363  13.816   4.656
35576W        W99509  29.613  15.693   5.245
35577W        W99510   2.757  32.078  11.964
35578W        W99511  37.085  16.769   4.271
35579W        W99512  28.650  16.641  12.444
35580W        W99513   8.847   8.164   1.423
35581W        W99514   4.814  20.079  12.858
35582W        W99515  34.900  38.869   4.221
35583W        W99516  30.457  28.028  13.419
35584W        W99517   8.890  27.152   9.456
35585W        W99518   5.196  30.459  10.554
35586W        W99519  38.423  38.942   0.387
35587W        W99520   0.815  21.020   2.739
35588W        W99521  25.064  34.390  14.937
35589W        W99522  29.443  37.981  11.422
35590W        W99523  33.985  16.171  10.529
35591W        W99524  22.006  37.837   1.831
35592W        W99525   4.839  17.587   3.310
35593W        W99526  32.964  10.161   3.228
35594W        W99527  37.338  29.994  10.962
35595W        W99528  14.604  19.674  11.543
35596W        W99529  39.350  31.982   2.867
35597W        W99530  21.154  29.530  11.081
35598W        W99531  17.088   4.759   4.315
35599W        W99532   8.385  38.835  10.623
35600W        W99533   8.257  24.122   1.752
35601W        W99534  44.443  13.641   3.236
35602W        W99535  16.600  19.681  14.991
35603W        W99536  37.913  39.338   3.636
35604W        W99537  16.706  26.465  14.297
35605W        W99538  24.991  33.883  14.361
35606W        W99539   3.446  34.086  13.847
35607W        W99540   5.894  38.842   1.223
35608W        W99541  38.489  32.511  10.582
35609W        W99542  22.044   8.229  12.087
35610W        W99543  28.162  13.165  12.066
35611W        W99544   5.693   7.184  11.548
35612W        W99545  39.559  26.689  13.954
35613W        W99546   6.337  19.252  13.946
35614W        W99547  19.724  33.016  12.959
35615W        W99548  16.292  43.898   2.753
35616W        W99549  41.445   8.369  14.817
35617W        W99550  19.281  19.193  12.034
35618W        W99551  29.090  31.577   2.668
35619W        W99552  13.254  35.109   1.802
35620W        W99553  24.076  44.411   1.336
35621W        W99554   4.420  35.972   0.259
35622W        W99555   4.904  18.552  10.509
35623W        W99556  31.482  12.196  10.469
35624W        W99557  27.105  22.194   0.477
35625W        W99558  23.155  29.460   4.674
35626W        W99559  25.064  31.452   2.238
35627W        W99560  41.362  18.652   1.411
35628W        W99561  38.893  12.783  13.052
35629W        W99562  15.263  40.472   4.632
35630W        W99563  25.602   2.829  12.079
35631W        W99564  26.145   8.744  10.454
35632W        W99565   1.809  30.428  13.030
35633W        W99566  38.537  25.652  11.612
35634W        W99567  41.795   7.197  12.421
35635W        W99568  18.184  28.946  13.997
35636W        W99569  13.792  40.816  10.891
35637W        W99570  44.830  10.818  11.531
35638W        W99571   1.353  41.336  11.498
35639W        W99572  40.886  44.821   1.328
35640W        W99573  22.014  27.066   0.336
35641W        W99574  37.054  29.444   1.215
35642W        W99575  17.216  41.827   5.595
35643W        W99576   1.853  25.108   2.238
35644W        W99577   4.430  39.381   2.900
35645W        W99578  35.890  12.156   1.808
35646W        W99579  18.057   4.816   3.316
35647W        W99580  38.557  33.970   2.284
35648W        W99581  18.757  10.166  13.824
35649W        W99582  25.702  20.596   0.303
35650W        W99583  35.086   5.905   3.332
35651W        W99584  34.453  32.063  14.775
35652W        W99585  40.333  16.316  14.496
35653W        W99586  26.006  28.018   1.383
35654W        W99587  44.462  21.174  11.441
35655W        W99588  36.062  28.497  10.888
35656W        W99589  27.946  32.029  11.375
35657W        W99590  12.778   2.351  13.465
35658W        W99591  10.805   8.732   4.206
35659W        W99592  25.206  14.603  12.969
35660W        W99593  26.012  23.995  12.474
35661W        W99594  10.284  12.659   4.779
35662W        W99595  10.244  43.444   3.310
35663W        W99596   6.694   4.879  14.396
35664W        W99597  44.942  20.239  10.581
35665W        W99598  30.074  26.175   3.713
35666W        W99599  11.742   1.424   0.789
35667W        W99600  13.746  28.520   1.271
35668W        W99601  43.476  11.215  12.859
35669W        W99602  33.381  31.008   0.803
35670W        W99603   7.851  19.132  10.979
35671W        W99604  44.796  16.180   4.324
35672W        W99605  16.163  42.999   1.351
35673W        W99606  38.429  29.168  12.092
35674W        W99607  39.377  28.105  12.004
35675W        W99608  27.150  18.113  13.852
35676W        W99609   8.255   5.347  14.790
35677W        W99610  29.133  36.957   4.765
35678W        W99611  23.493  31.096  13.923
35679W        W99612  32.527  39.501   4.295
35680W        W99613  20.605  26.477   9.556
35681W        W99614  40.833  20.543  12.912
35682W        W99615  17.656   6.243   9.962
35683W        W99616  41.963  36.948   3.854
35684W        W99617   3.931   1.906  11.019
35685W        W99618  19.632   8.224   1.879
35686W        W99619  42.991   0.792   1.320
35687W        W99620  12.670  30.618  14.489
35688W        W99621   5.696  44.843   2.866
35689W        W99622   1.936  14.282   3.366
35690W        W99623  22.650   0.441   2.721
35691W        W99624  23.648  16.147  11.049
35692W        W99625  30.655  29.425  13.384
35693W        W99626  41.971  34.902  12.459
35694W        W99627   4.720  29.966  13.064
35695W        W99628   1.736   1.295   1.923
35696W        W99629  28.991  39.528  10.983
35697W        W99630  23.055  25.055   1.867
35698W        W99631   0.312  28.597  12.038
35699W        W99632  12.328  23.597  11.523
35700W        W99633  20.540  16.599   0.314
35701W        W99634   0.936  42.030  12.969
35702W        W99635  41.415   5.887  11.987
35703W        W99636  42.405  24.590   1.704
35704W        W99637  39.884  35.437   2.812
35705W        W99638  11.358   7.882  13.454
35706W        W99639  19.150  26.191   3.826
35707W        W99640   7.852   7.882   1.815
35708W        W99641  42.981  20.546  14.860
35709W        W99642  10.267  14.124  11.084
35710W        W99643  39.841  18.713  13.022
35711W        W99644  14.731   0.453   2.370
35712W        W99645  24.593  24.120  11.895
35713W        W99646  16.271  13.112   0.794
35714W        W99647  10.287  18.732  12.093
35715W        W99648  15.745  30.106   1.349
35716W        W99649  22.603  43.449  14.854
35717W        W99650  21.514  25.599   4.301
35718W        W99651   0.307  10.681  10.621
35719W        W99652  12.726  13.714   2.192
35720W        W99653  36.580   1.409   3.369
35721W        W99654   5.905  32.058  14.833
35722W        W99655   1.969  39.331  13.378
35723W        W99656  34.441  36.093  14.783
35724W        W99657  36.902  13.302   4.240
35725W        W99658  42.941  16.311  12.388
35726W        W99659  24.055  32.109   0.808
35727W        W99660  13.670  43.851  10.524
35728W        W99661   4.336   4.880   1.230
35729W        W99662  43.413  10.149  10.620
35730W        W99663  40.378  22.667   1.759
35731W        W99664  26.118   5.707   1.731
35732W        W99665  10.639   5.208  14.929
35733W        W99666  38.974  36.493   3.308
35734W        W99667  15.798  18.626   1.311
35735W        W99668   5.794  10.198   1.231
35736W        W99669   1.318   6.913   3.297
35737W        W99670  33.948   8.832   4.765
35738W        W99671  40.859  40.320  11.547
35739W        W99672  13.647   4.251  12.487
35740W        W99673  30.931  26.117   2.222
35741W        W99674  15.120  38.366   4.717
35742W        W99675  27.075   0.743   5.795
35743W        W99676   1.293   7.881   0.793
35744W        W99677  20.564  33.920  11.613
35745W        W99678  19.277   3.830  10.931
35746W        W99679  42.359  35.077   0.943
35747W        W99680  34.042  13.336  11.984
35748W        W99681  31.075  33.095   1.253
35749W        W99682  30.560  16.802   1.720
35750W        W99683  20.766  25.494  11.419
35751W        W99684  41.332  42.323   2.737
35752W        W99685  25.664  23.163  14.001
35753W        W99686  24.130  14.808   4.686
35754W        W99687  17.076  15.310  10.637
35755W        W99688  19.759  43.011  14.767
35756W        W99689   7.702  12.736  12.519
35757W        W99690  28.643   7.743  11.430
35758W        W99691  24.547  12.783   4.180
35759W        W99692  14.722  23.575   2.867
35760W        W99693  41.834  14.607  12.433
35761W        W99694  33.930  42.944   4.631
35762W        W99695  41.982  10.797  11.412
35763W        W99696   7.867  39.905  12.887
35764W        W99697   9.872  31.425   4.712
35765W        W99698  18.609  21.648  13.362
35766W        W99699  37.016  38.834  14.881
35767W        W99700  23.132  21.090   4.661
35768W        W99701   6.693  24.609  12.003
35769W        W99702  41.891  41.464  13.433
35770W        W99703   5.321   2.769   4.725
35771W        W99704   3.832  34.892   1.882
35772W        W99705   3.766  27.483  10.893
35773W        W99706   0.802  14.142  13.947
35774W        W99707  36.962  37.859   1.395
35775W        W99708  44.496  43.004  13.932
35776W        W99709  16.585  25.662   0.923
35777W        W99710  21.243  42.491  11.082
35778W        W99711  31.099  12.168  13.923
35779W        W99712   4.221  29.056  14.423
35780W        W99713  43.995  42.878  11.973
35781W        W99714  10.876  41.521   3.174
35782W        W99715  34.567   7.178  11.506
35783W        W99716  24.121  24.520  14.415
35784W        W99717  15.631   2.965   2.845
35785W        W99718  44.480  13.787   1.357
35786W        W99719  35.518  23.138   4.663
35787W        W99720  13.204  26.643  13.904
35788W        W99721  34.078  15.271   4.646
35789W        W99722  41.806  41.864   2.834
35790W        W99723  20.114  36.866  13.872
35791W        W99724  10.748   5.428   0.778
35792W        W99725  23.059  26.667   0.327
35793W        W99726   9.227   0.869   4.827
35794W        W99727  22.573  14.641  10.947
35795W        W99728  22.193   2.261  14.012
35796W        W99729  25.978  40.833  11.393
35797W        W99730  29.564  36.405   3.352
35798W        W99731  19.084   7.825   0.784
35799W        W99732  28.533  41.801  12.451
35800W        W99733   2.421  42.889  13.339
35801W        W99734   6.764  37.513   4.606
35802W        W99735  42.782  23.663  13.834
35803W        W99736  14.137  30.657  11.061
35804W        W99737   3.878  44.472  14.763
35805W        W99738  44.454  12.333   2.853
35806W        W99739  28.055  10.738  12.388
35807W        W99740  20.566  25.607  14.502
35808W        W99741  37.524  27.066  13.331
35809W        W99742  11.172  16.299   0.909
35810W        W99743  15.723  21.608   0.284
35811W        W99744  30.575  11.811  14.867
35812W        W99745  17.584  41.961  14.764
35813W        W99746  26.598  38.439  10.529
35814W        W99747   2.802  18.142  13.523
35815W        W99748  41.494  31.625   2.295
35816W        W99749   3.322  43.877   4.353
35817W        W99750  38.445  13.201  12.893
35818W        W99751   2.444  21.582  10.614
35819W        W99752   9.889  18.654  12.843
35820W        W99753  32.084   8.219  10.529
35821W        W99754   4.217   6.370  12.434
35822W        W99755  23.096  15.768  11.494
35823W        W99756   5.875  10.702   0.448
35824W        W99757  38.860   3.369  14.827
35825W        W99758  37.909  16.296   1.705
35826W        W99759   1.924  19.629  12.470
35827W        W99760  16.621  15.714   4.283
35828W        W99761  30.522  44.783   4.162
35829W        W99762  13.319  34.551  10.082
35830W        W99763   8.758  36.058  10.520
35831W        W99764  16.627  31.098   4.168
35832W        W99765  20.559  21.735   1.235
35833W        W99766  41.330   6.873   1.446
35834W        W99767  31.604  19.566   1.840
35835W        W99768  30.433   3.233   2.730
35836W        W99769  23.523  15.746  12.435
35837W        W99770  24.134   6.344  10.969
35838W        W99771  43.306  23.535  12.480
35839W        W99772  42.401  27.121   0.481
35840W        W99773  21.103  18.287  12.491
35841W        W99774   1.793   0.973   1.384
35842W        W99775  10.249  40.519   5.279
35843W        W99776   1.903  42.947  14.958
35844W        W99777  31.899  24.202   5.163
35845W        W99778  43.913  44.370   1.820
35846W        W99779  14.245  42.414   3.682
35847W        W99780  24.618  30.441  11.431
35848W        W99781   3.921  14.234   3.257
35849W        W99782  44.355  28.614   0.473
35850W        W99783   5.915   0.805   0.881
35851W        W99784  41.465  10.774   4.306
35852W        W99785   6.195   8.356   3.656
35853W        W99786  24.572   9.778   1.758
35854W        W99787  10.312  11.640  12.349
35855W        W99788  31.077   4.227   3.775
35856W        W99789  39.945   0.940  12.561
35857W        W99790  14.137   9.283   3.827
35858W        W99791   6.314   5.398   1.309
35859W        W99792   6.253  44.448  13.865
35860W        W99793  22.528  39.480  10.499
35861W        W99794  27.138  30.526   1.230
35862W        W99795  22.598  23.189   0.341
35863W        W99796  34.577  23.527   0.417
35864W        W99797  24.528  26.538   3.255
35865W        W99798  21.053  22.733  11.550
35866W        W99799  40.819  36.363   0.329
35867W        W99800   1.392   4.218   1.442
35868W        W99801  30.162  21.545  13.014
35869W        W99802  13.169  18.111   3.373
35870W        W99803  18.219  23.636  12.018
35871W        W99804   3.342  16.741   3.289
35872W        W99805   4.300  10.212  12.975
35873W        W99806  11.676  28.055  11.111
35874W        W99807  11.686  34.382  13.864
35875W        W99808  43.359  34.429   2.845
35876W        W99809  40.364  23.704   0.470
35877W        W99810  12.799  34.107   1.732
35878W        W99811  11.748  12.227  10.508
35879W        W99812   5.215  12.150   2.845
35880W        W99813  10.151  41.417  13.985
35881W        W99814  33.897  10.182  11.003
35882W        W99815   1.447  40.909   4.118
35883W        W99816  20.180   3.923  13.931
35884W        W99817  11.817  29.167  11.379
35885W        W99818  13.711  26.139   4.645
35886W        W99819  20.110  36.496  12.387
35887W        W99820  11.265  40.487   0.286
35888W        W99821   3.276  24.171  14.287
35889W        W99822  39.841  17.070  12.958
35890W        W99823  33.389  25.502  12.055
35891W        W99824  11.705   8.352   2.868
35892W        W99825   9.855   3.752   1.836
35893W        W99826  39.554  34.061   4.312
35894W        W99827   0.747  32.496   4.767
35895W        W99828   2.784  39.502  13.830
35896W        W99829  38.349   6.328   2.399
35897W        W99830  36.398  28.961  11.972
35898W        W99831  31.474  11.705  12.830
35899W        W99832  43.461  30.505  14.428
35900W        W99833  12.335  15.238  10.409
35901W        W99834  43.403   9.710  14.950
35902W        W99835  38.497  40.448   0.800
35903W        W99836  20.587  20.633   2.261
35904W        W99837  15.593  40.900  13.383
35905W        W99838  23.565  17.665  13.827
35906W        W99839  41.888  27.171  12.846
35907W        W99840  23.072   8.714   3.650
35908W        W99841  41.840  30.119  12.579
35909W        W99842   3.410   1.877  11.877
35910W        W99843  31.520   3.732   1.876
35911W        W99844  21.747  34.072  12.861
35912W        W99845  14.682   5.235  13.359
35913W        W99846   9.738  16.761   1.442
35914W        W99847   0.334  29.611   1.697
35915W        W99848  32.901  12.716   1.719
35916W        W99849  40.511  32.504  11.993
35917W        W99850  33.428  37.944  12.418
35918W        W99851  33.414  43.350  10.996
35919W        W99852  43.351  29.042   2.329
35920W        W99853  18.557   3.318  11.945
35921W        W99854  19.670  18.751  10.490
35922W        W99855   4.835  34.103  11.570
35923W        W99856  11.749  42.843  10.412
35924W        W99857  23.692  25.512  12.365
35925W        W99858  16.078  22.247  12.373
35926W        W99859  26.056  19.626   3.852
35927W        W99860  12.233  39.535  13.360
35928W        W99861  13.842  10.237   1.335
35929W        W99862   6.864  19.245   0.794
35930W        W99863  10.819  16.125  12.571
35931W        W99864   5.239   9.320  13.895
35932W        W99865  30.441  31.113   5.154
35933W        W99866  42.902  39.965  11.991
35934W        W99867  20.273  10.180   2.308
35935W        W99868  33.516   0.431  11.468
35936W        W99869  28.632  39.442   1.868
35937W        W99870  18.277  43.003  11.377
35938W        W99871   2.930  39.451  11.415
35939W        W99872  20.723   1.921   2.317
35940W        W99873  38.843  28.084   3.650
35941W        W99874  39.852  33.501  14.449
35942W        W99875  34.408  20.522  12.565
35943W        W99876   4.267  17.078   4.207
35944W        W99877  27.155  17.666  10.937
35945W        W99878  20.172  33.592  10.084
35946W        W99879  34.939  43.811  11.071
35947W        W99880   8.719   9.312  11.094
35948W        W99881  19.635  12.838   0.295
35949W        W99882  19.569  26.625  12.539
35950W        W99883   9.679  22.643  12.548
35951W        W99884   6.751  37.894  11.425
35952W        W99885  11.277  36.842   0.383
35953W        W99886   5.364  42.314   1.858
35954W        W99887   2.277  41.017  13.807
35955W        W99888  17.736  40.048   0.354
35956W        W99889  42.413  36.909  12.994
35957W        W99890  40.964  16.571  10.906
35958W        W99891  23.736  12.794   1.304
35959W        W99892  33.466   4.799   1.257
35960W        W99893   4.799  13.314   0.268
35961W        W99894  32.126  41.928   1.279
35962W        W99895  37.447  35.047   4.180
35963W        W99896  33.432  19.226  12.877
35964W        W99897  32.972  13.340  11.996
35965W        W99898   6.269  23.204  12.027
35966W        W99899  27.073  38.350   4.617
35967W        W99900  25.159   0.803   1.384
35968W        W99901  27.147  18.289   1.897
35969W        W99902   1.273  21.584   2.283
35970W        W99903  33.014  20.687   3.677
35971W        W99904  30.566  17.124  13.508
35972W        W99905   9.852  31.477  12.918
35973W        W99906  18.645  19.046  12.351
35974W        W99907  33.109  17.560   2.290
35975W        W99908  16.209  31.990   3.385
35976W        W99909  34.060  25.673  13.896
35977W        W99910  12.793  22.721   4.656
35978W        W99911  12.151  44.976  11.941
35979W        W99912  44.839  35.058  14.928
35980W        W99913  12.614  21.663   2.722
35981W        W99914  27.142  44.909   4.270
35982W        W99915   5.225  17.137  14.760
35983W        W99916  15.140  27.179  14.945
35984W        W99917  22.016  30.538   4.195
35985W        W99918  29.106  13.174  10.420
35986W        W99919  40.959  44.831   2.901
35987W        W99920  11.705   9.711  11.092
35988W        W99921  24.566  23.694  13.977
35989W        W99922  19.146  24.161  10.415
35990W        W99923  24.157  11.635   5.272
35991W        W99924  42.313   0.950  12.832
35992W        W99925   4.738  25.013  13.335
35993W        W99926  18.223  35.503  11.906
35994W        W99927  25.635  18.256  12.359
35995W        W99928  32.048  17.690  14.993
35996W        W99929  12.319  33.389   1.296
35997W        W99930  37.042   9.727   3.854
35998W        W99931  32.127  10.694  14.959
35999W        W99932  11.786  38.535  10.511
36000W        W99933  34.958  33.101   0.431
36001W        W99934   7.313   2.413  13.951
36002W        W99935  29.480  31.005  11.912
36003W        W99936   7.275  21.670  12.894
36004W        W99937  23.611  26.662  10.012
36005W        W99938  26.487  25.124   4.768
36006W        W99939  27.152  39.823   2.791
36007W        W99940  27.095  31.034  14.028
36008W        W99941  32.550   3.831   1.827
36009W        W99942  30.988   0.341   5.100
36010W        W99943  41.415  39.815   2.823
36011W        W99944  19.779  28.948  14.331
36012W        W99945  40.993  39.996  13.338
36013W        W99946   8.778   5.286  14.422
36014W        W99947   4.372  28.462   4.217
36015W        W99948   5.861  25.030   2.680
36016W        W99949  17.708   3.310   2.298
36017W        W99950  40.482  44.812  13.045
36018W        W99951  44.314   2.431   4.120
36019W        W99952  34.438  23.543  10.943
36020W        W99953   4.268  38.824   4.732
36021W        W99954  42.476  21.681   1.276
36022W        W99955  13.839   7.367  10.071
36023W        W99956  20.186  37.028   2.267
36024W        W99957  43.837  26.564  14.285
36025W        W99958  19.572  22.712   4.291
36026W        W99959  40.468   2.813  10.485
36027W        W99960  20.233  33.042   4.168
36028W        W99961  19.743  14.801  12.029
36029W        W99962  21.517  26.667   4.261
36030W        W99963  18.087  11.192  12.370
36031W        W99964  34.079  40.323  11.996
36032W        W99965  37.469  25.698   2.896
36033W        W99966  10.688  14.623   2.234
36034W        W99967  20.194  19.097  14.361
36035W        W99968   3.912  15.329   2.851
36036W        W99969  38.544   4.403  14.935
36037W        W99970   4.439  13.791  11.976
36038W        W99971  28.969  36.932  11.980
36039W        W99972   3.380   0.960   1.352
36040W        W99973  23.658  26.457  14.812
36041W        W99974  39.497  31.560   3.780
36042W        W99975  20.700  26.123  13.790
36043W        W99976  39.489  32.585   0.753
36044W        W99977  11.688   2.327   2.288
36045W        W99978   8.307  44.919  13.523
36046W        W99979  19.559  22.164  13.932
36047W        W99980  36.366  40.396  10.480
36048W        W99981  41.366   0.438  10.584
36049W        W99982  38.066  22.190  11.089
36050W        W99983   2.805  28.495   2.379
36051W        W99984  42.462  31.101   1.889
36052W        W99985  16.784  33.097  11.587
36053W        W99986  14.243  29.481  12.991
36054W        W99987  19.574  23.202   0.398
36055W        W99988   0.492   6.268   2.387
36056W        W99989   8.875  21.569  12.852
36057W        W99990  21.664   5.193  14.794
36058W        W99991  26.973   7.260   2.697
36059W        W99992  20.568  20.235   1.402
36060W        W99993  15.695  27.488  10.549
36061W        W99994   8.697  24.073  14.951
36062W        W99995   9.339  26.485  14.973
36063W        W99996  34.079  23.136   0.807
36064W        W99997  14.219  12.713  13.008
36065W        W99998   7.874  11.838   1.290
36066W        W99999   4.363  36.930  11.602
36067W        W    0  12.200  38.910  11.904
36068W        W    1   1.259  19.764   4.164
36069W        W    2   9.214   1.441   0.830
36070W        W    3  42.374  30.034  12.935
36071W        W    4  31.482  40.439   2.717
36072W        W    5  16.718  29.517  13.799
36073W        W    6  14.686  30.588  13.428
36074W        W    7  17.659  14.651  13.504
36075W        W    8  41.375   4.445   4.652
36076W        W    9  10.654  29.083   4.344
36077W        W   10  18.216  44.866  14.428
36078W        W   11  26.703  43.456   0.815
36079W        W   12  42.877  41.417   1.390
36080W        W   13  34.978  35.974  10.014
36081W        W   14  13.329  17.062  13.980
36082W        W   15  27.664  36.378  12.431
36083W        W   16  17.591  25.607   4.129
36084W        W   17  39.845  39.473  14.343
36085W        W   18  13.699   7.189   1.861
36086W        W   19  19.250  43.446   1.346
36087W        W   20  41.892  27.539   3.839
36088W        W   21  30.064  10.861   0.813
36089W        W   22   6.315  33.100  10.547
36090W        W   23   0.874   4.862   1.778
36091W        W   24  22.182  33.100  12.049
36092W        W   25  31.405   0.273  10.943
36093W        W   26  18.196   2.956   0.820
36094W        W   27  40.890  38.324  13.463
36095W        W   28  29.645  26.526   0.827
36096W        W   29  30.550  23.697  11.031
36097W        W   30  29.000   3.428   2.854
36098W        W   31  15.260   7.851  13.404
36099W        W   32   1.462   5.280  13.865
36100W        W   33  22.710  41.403   3.706
36101W        W   34  12.142  17.686   3.181
36102W        W   35  30.928  20.253  10.910
36103W        W   36  23.530   5.388  11.475
36104W        W   37  17.796  40.854  13.466
36105W        W   38  29.921  28.078  11.073
36106W        W   39  44.823  42.348   0.318
36107W        W   40  14.646  15.262   4.345
36108W        W   41   9.175  12.306   3.156
36109W        W   42  43.859  14.253   4.761
36110W        W   43  24.716  17.781  13.484
36111W        W   44  27.570   6.239  14.823
36112W        W   45   8.724  14.603  12.076
36113W        W   46  41.790  16.306   1.863
36114W        W   47   9.196  13.793  13.439
36115W        W   48   6.733  33.609   1.387
36116W        W   49   7.709  17.564  13.979
36117W        W   50  19.699  24.075  10.427
36118W        W   51  31.032  13.821   1.897
36119W        W   52  13.130  29.542   4.811
36120W        W   53  17.614   2.353  10.606
36121W        W   54   7.269  15.728  14.789
36122W        W   55  26.542  10.157  11.027
36123W        W   56  16.197  13.773  14.930
36124W        W   57  37.442   1.334  11.536
36125W        W   58  25.669  26.676   9.983
36126W        W   59  14.237  30.560  10.545
36127W        W   60  28.985  40.023   0.914
36128W        W   61  43.477  41.430  11.127
36129W        W   62  23.017  39.897   2.870
36130W        W   63   9.779   7.747  13.460
36131W        W   64  17.800  37.001   2.768
36132W        W   65   0.871  32.564   1.764
36133W        W   66  15.091   5.288   2.401
36134W        W   67  34.864   7.330   2.837
36135W        W   68  33.548  37.544  11.920
36136W        W   69  30.123  29.142   3.370
36137W        W   70   3.829  26.596  14.350
36138W        W   71  31.618   2.471   2.389
36139W        W   72  11.127  13.292  11.943
36140W        W   73  31.606  29.096   2.875
36141W        W   74  11.855  32.072   4.676
36142W        W   75  28.964  35.937   4.650
36143W        W   76  29.017  24.711  12.940
36144W        W   77  33.111  26.134  14.029
36145W        W   78  39.856   7.243  13.903
36146W        W   79  14.758  27.163   3.811
36147W        W   80  39.925  21.733   1.865
36148W        W   81   7.734   0.762   3.257
36149W        W   82   2.749   5.726   4.244
36150W        W   83  24.154  22.530  12.929
36151W        W   84   2.388   7.828   1.791
36152W        W   85  42.927   8.228  13.853
36153W        W   86   9.770  32.396   3.383
36154W        W   87  19.629  11.344  10.547
36155W        W   88   7.373  10.842  12.352
36156W        W   89  23.069   2.836   3.154
36157W        W   90  15.750  37.348   2.355
36158W        W   91   4.348  29.020  13.057
36159W        W   92  39.319  39.418   1.294
36160W        W   93  21.559  11.181   1.723
36161W        W   94  13.748  20.248   3.156
36162W        W   95  18.624  43.833  12.010
36163W        W   96  23.100  14.234  12.990
36164W        W   97  20.551  19.095   2.673
36165W        W   98  44.918  15.747   1.912
36166W        W   99   6.742   1.849   4.122
36167W        W  100  14.206   2.731   2.870
36168W        W  101  37.981  26.019   4.212
36169W        W  102  18.080  23.213  14.882
36170W        W  103  42.002   8.197  12.932
36171W        W  104  33.891  41.995  12.454
36172W        W  105   7.199   0.761  11.564
36173W        W  106  11.127  14.694  10.408
36174W        W  107  21.169  38.870  10.563
36175W        W  108  10.841  39.012   4.623
36176W        W  109  15.786  43.967   4.322
36177W        W  110  37.381  15.152   2.817
36178W        W  111  18.582  35.524  12.005
36179W        W  112  38.874  16.572   5.137
36180W        W  113  24.625  14.656   3.797
36181W        W  114  33.563   6.186  13.518
36182W        W  115  24.977  42.878  11.120
36183W        W  116  37.014  14.190   0.355
36184W        W  117  34.494  20.743   1.394
36185W        W  118  41.296  44.452   2.320
36186W        W  119  43.341  44.372  14.513
36187W        W  120  44.866  10.341   0.869
36188W        W  121  19.566  12.661   0.770
36189W        W  122  23.521   6.722  11.905
36190W        W  123  12.208  10.737  14.496
36191W        W  124  38.449  38.446   0.371
36192W        W  125   3.428   1.277   0.379
36193W        W  126  12.322  23.037  10.507
36194W        W  127  17.654  27.954   0.439
36195W        W  128   5.275  24.053   2.736
36196W        W  129  18.199  13.116   3.691
36197W        W  130  32.050  18.570  14.312
36198W        W  131  12.246   4.886   0.438
36199W        W  132  17.224  15.624   0.728
36200W        W  133  10.651  20.159   3.341
36201W        W  134  36.561  41.495   0.471
36202W        W  135  21.737   2.763  10.606
36203W        W  136  11.268  21.021  12.356
36204W        W  137   4.252  36.894  12.556
36205W        W  138  38.430  29.438   2.386
36206W        W  139  24.978  39.394  11.408
36207W        W  140  42.369  30.513  13.371
36208W        W  141  26.567  33.521  11.984
36209W        W  142  38.842  22.651  13.972
36210W        W  143  41.441   1.428  13.940
36211W        W  144  34.416  40.496   0.955
36212W        W  145   0.388  29.163   4.664
36213W        W  146  31.907  13.631  12.010
36214W        W  147  14.602  26.613   2.312
36215W        W  148  15.118  32.133  12.932
36216W        W  149  37.925  10.256   0.947
36217W        W  150  11.770  32.098  11.532
36218W        W  151  23.046   7.798  14.810
36219W        W  152  43.506  36.876   1.790
36220W        W  153  29.491  41.908   1.823
36221W        W  154  38.519  43.873  14.497
36222W        W  155   7.708   3.356   4.620
36223W        W  156   0.927  35.057   4.750
36224W        W  157  21.234  42.997   5.105
36225W        W  158  42.014  38.847   2.339
36226W        W  159  30.584  34.609  11.600
36227W        W  160  34.887   7.234   4.679
36228W        W  161  19.277  25.668   5.611
36229W        W  162  10.384  23.505   1.311
36230W        W  163  44.308  41.877  12.457
36231W        W  164   3.389  35.442   3.690
36232W        W  165  21.263   3.391   9.998
36233W        W  166   2.435  14.741  14.503
36234W        W  167  44.332  35.906  14.922
36235W        W  168   3.747   1.471   4.737
36236W        W  169  18.228  19.113   1.238
36237W        W  170  31.001   0.974  13.464
36238W        W  171  30.634  20.046  14.960
36239W        W  172  33.058  23.668   3.862
36240W        W  173  38.484  10.308  11.419
36241W        W  174  14.130  29.494  14.443
36242W        W  175   7.248  34.007  12.373
36243W        W  176   3.332  37.013   3.191
36244W        W  177  22.163  17.725  13.038
36245W        W  178  12.675  41.421  14.926
36246W        W  179  39.031  13.280  12.420
36247W        W  180  34.601  19.653   2.857
36248W        W  181   8.736  40.878   4.805
36249W        W  182  27.464   7.282  12.567
36250W        W  183  14.188  19.604  11.966
36251W        W  184  36.428  11.748  14.778
36252W        W  185  44.949  40.988   2.282
36253W        W  186  26.176   0.889  13.994
36254W        W  187  19.088  39.475   3.635
36255W        W  188  13.340  33.949   3.357
36256W        W  189  36.067  44.977   0.467
36257W        W  190  38.408  19.638   3.765
36258W        W  191   3.864  41.973   0.929
36259W        W  192  24.581  10.339  11.499
36260W        W  193   4.390  22.622  11.082
36261W        W  194  25.686  21.151   4.247
36262W        W  195  15.092  29.474  10.914
36263W        W  196  19.208   8.860   4.790
36264W        W  197  28.111   5.807   1.933
36265W        W  198  23.192  31.027   1.816
36266W        W  199  30.541  27.122  11.435
36267W        W  200  24.159   1.836  13.485
36268W        W  201  39.450   9.646   4.661
36269W        W  202   0.931  30.569  13.887
36270W        W  203   8.767  14.695  14.864
36271W        W  204   2.801  35.469  14.818
36272W        W  205  11.753  43.020   3.761
36273W        W  206  14.170   8.315  11.123
36274W        W  207   4.247  32.995   2.377
36275W        W  208   9.817   0.964   0.752
36276W        W  209  11.735  21.123   4.329
36277W        W  210  17.645  28.100   3.326
36278W        W  211  17.265  39.439   3.228
36279W        W  212  24.595  35.090   2.852
36280W        W  213  35.024  24.216   2.295
36281W        W  214   2.427  23.071   4.134
36282W        W  215  41.340  44.261  10.994
36283W        W  216  24.599  39.489  14.767
36284W        W  217  38.994  10.874  13.052
36285W        W  218  30.508   3.385   2.415
36286W        W  219  42.810  35.947   2.196
36287W        W  220  27.042   9.212   9.463
36288W        W  221   9.738  20.541   0.905
36289W        W  222  44.388  38.903   1.933
36290W        W  223  25.100  43.813   4.169
36291W        W  224  10.793   8.212  12.054
36292W        W  225   3.367  20.576  14.835
36293W        W  226   2.364  38.327   3.308
36294W        W  227  30.480   2.297  14.794
36295W        W  228  28.161   1.368   3.346
36296W        W  229  21.150  31.620   2.672
36297W        W  230  25.545  15.769   3.728
36298W        W  231  25.036  44.448  14.512
36299W        W  232  43.329   6.302  12.014
36300W        W  233   8.813  23.504   1.403
36301W        W  234  10.770  13.721   2.683
36302W        W  235   6.797  14.609  11.872
36303W        W  236  27.979  23.048  11.493
36304W        W  237  31.643  15.164   4.193
36305W        W  238   4.704  39.466  10.587
36306W        W  239   8.745   2.315   4.745
36307W        W  240   4.758   1.752   2.240
36308W        W  241  16.135  12.677  11.918
36309W        W  242  13.780  30.064   3.806
36310W        W  243  38.349  11.755  11.945
36311W        W  244  29.069  38.923   4.173
36312W        W  245  41.879  19.152   3.204
36313W        W  246  16.745  34.570   2.215
36314W        W  247  36.841  25.604  13.509
36315W        W  248  38.926  38.074   1.306
36316W        W  249  19.274  20.164  10.585
36317W        W  250  44.308  32.559  11.591
36318W        W  251  25.669  21.573   2.865
36319W        W  252  35.993  42.357   0.821
36320W        W  253  21.174   2.754  12.455
36321W        W  254  30.989  44.442  13.856
36322W        W  255   2.445  22.073   2.256
36323W        W  256  42.449  13.264   4.710
36324W        W  257  10.687  12.774  10.965
36325W        W  258  32.931  28.461   1.370
36326W        W  259  19.609  42.818  14.015
36327W        W  260  31.077  32.959  14.396
36328W        W  261  12.287  26.989  13.951
36329W        W  262   6.215  13.211   4.726
36330W        W  263  44.789  12.622  14.489
36331W        W  264  11.316  18.579  11.455
36332W        W  265  34.430   1.936   0.938
36333W        W  266  33.418  37.549  11.378
36334W        W  267  11.675  33.514   2.719
36335W        W  268   2.372  34.944  14.773
36336W        W  269  17.557  21.055  13.426
36337W        W  270   7.840  20.137  10.967
36338W        W  271  16.810  36.508   0.297
36339W        W  272   6.388   7.688   4.214
36340W        W  273  40.541  26.133   0.909
36341W        W  274   1.785  12.837  11.371
36342W        W  275  12.822  25.689   2.371
36343W        W  276   9.687  30.571  10.502
36344W        W  277   9.244   4.838  11.376
36345W        W  278   9.319  27.182  12.434
36346W        W  279   0.356  38.001  13.423
36347W        W  280  24.486  41.413  13.798
36348W        W  281  29.433  32.893   0.277
36349W        W  282   1.971  32.029   2.839
36350W        W  283  33.915  25.151   1.345
36351W        W  284  22.111  30.987  14.443
36352W        W  285  35.446   2.423  10.891
36353W        W  286  38.862  31.563  14.314
36354W        W  287  33.402  41.846  13.060
36355W        W  288  19.059  21.689  12.499
36356W        W  289   2.815   3.315  13.325
36357W        W  290   3.794  38.536  10.568
36358W        W  291  24.198   6.822  13.484
36359W        W  292  22.153  15.141  11.949
36360W        W  293   8.312  40.364  10.518
36361W        W  294  35.441  10.365   2.829
36362W        W  295   9.371  31.562  12.438
36363W        W  296   6.870   5.251   0.284
36364W        W  297  24.667   0.884   3.152
36365W        W  298  35.545  34.100   0.468
36366W        W  299  31.628  13.135   4.310
36367W        W  300  40.427  37.948   2.880
36368W        W  301  24.551  17.105  12.987
36369W        W  302  12.128   4.404  13.953
36370W        W  303  25.051  33.501   5.187
36371W        W  304  35.069  20.251  10.512
36372W        W  305  20.531   2.954  11.566
36373W        W  306  42.884  13.337  13.919
36374W        W  307  26.991  10.664   1.767
36375W        W  308  17.690  13.834  10.530
36376W        W  309  28.027  17.586  12.535
36377W        W  310   5.819  30.613  11.128
36378W        W  311  32.970  25.121   4.637
36379W        W  312  28.002  43.874  14.800
36380W        W  313  33.125  38.978  14.452
36381W        W  314  37.918   5.771  12.004
36382W        W  315  35.373  10.327  14.800
36383W        W  316  11.680  22.104   0.877
36384W        W  317   1.964  28.024   4.605
36385W        W  318  13.648  29.643   3.826
36386W        W  319  39.039  27.597  13.833
36387W        W  320  19.694  11.654   5.305
36388W        W  321  15.661  22.513   3.179
36389W        W  322  20.046   0.394  12.861
36390W        W  323  19.234  30.655  11.052
36391W        W  324  27.571  34.036  14.834
36392W        W  325  14.317  25.191  11.126
36393W        W  326  41.437  44.274   1.822
36394W        W  327   4.262  27.134  12.395
36395W        W  328   4.834  35.368  13.499
36396W        W  329  19.624  39.059   1.337
36397W        W  330  12.223   0.273  12.378
36398W        W  331  24.128  27.574   0.834
36399W        W  332  33.409  31.528  12.080
36400W        W  333  10.327  12.128  14.297
36401W        W  334  43.935  38.981   4.246
36402W        W  335  17.272  44.995  12.489
36403W        W  336  40.446  14.190   0.800
36404W        W  337  31.965  35.046   0.860
36405W        W  338  17.578  15.668   9.637
36406W        W  339  22.146  32.054  12.533
36407W        W  340  26.973   5.791  11.373
36408W        W  341  28.555   2.462  13.995
36409W        W  342  25.567   0.331   1.850
36410W        W  343  38.351   4.263   4.685
36411W        W  344   5.835   1.337  13.842
36412W        W  345  26.638  41.395   2.807
36413W        W  346  43.950  42.875   3.168
36414W        W  347  12.286  35.903  12.390
36415W        W  348   9.656   0.816  14.316
36416W        W  349  31.440  34.042  14.899
36417W        W  350  19.269  19.621   4.616
36418W        W  351  15.693  35.561  13.504
36419W        W  352   1.835   3.766   2.800
36420W        W  353  20.255   6.841  14.440
36421W        W  354  27.052  11.807  10.404
36422W        W  355  41.002  26.644   1.890
36423W        W  356  34.886  24.027  14.816
36424W        W  357  34.491  40.960   0.351
36425W        W  358  20.175  21.069  12.979
36426W        W  359  44.997   7.335   2.800
36427W        W  360  28.442  25.113   3.185
36428W        W  361  15.755  33.431  11.996
36429W        W  362  19.148   6.211  13.008
36430W        W  363  30.022  12.630   4.275
36431W        W  364  23.529  25.074  13.536
36432W        W  365  21.616  24.220  14.028
36433W        W  366  33.482   9.799   0.421
36434W        W  367   4.746  32.513  13.951
36435W        W  368  33.112  39.014  11.001
36436W        W  369  30.072  33.127  11.555
36437W        W  370  30.960   1.452   2.387
36438W        W  371   0.395  33.381   0.916
36439W        W  372  15.772  34.945   3.176
36440W        W  373  28.048   4.250  11.114
36441W        W  374  22.101  40.970   2.859
36442W        W  375  17.183  17.701   2.707
36443W        W  376  20.627   1.439   2.352
36444W        W  377   0.890  33.441  14.776
36445W        W  378  44.890  35.024  12.054
36446W        W  379  44.497  26.047  13.917
36447W        W  380  14.168   5.790  14.500
36448W        W  381  37.433   7.777   2.856
36449W        W  382  37.900  16.635  10.979
36450W        W  383   3.331  41.319  12.347
36451W        W  384  19.716  18.696  11.475
36452W        W  385  39.365  11.802  11.086
36453W        W  386  18.203  26.161  11.386
36454W        W  387  37.376   9.189  14.387
36455W        W  388  17.789  17.096   1.302
36456W        W  389   0.904  20.659  13.459
36457W        W  390  11.739  16.117  10.565
36458W        W  391  43.994  14.104  13.539
36459W        W  392  38.416  33.062   0.770
36460W        W  393  15.291  14.183   2.718
36461W        W  394  30.591  39.814   4.287
36462W        W  395  33.419   2.856   0.889
36463W        W  396  11.350  14.333  14.791
36464W        W  397   0.282  24.552   1.267
36465W        W  398  36.957  32.484  10.474
36466W        W  399  30.059  10.259  10.574
36467W        W  400  42.822  32.106  14.483
36468W        W  401  44.395  13.265   3.719
36469W        W  402   9.257  41.468  10.904
36470W        W  403  29.954  17.793  12.394
36471W        W  404  16.696  25.175  12.076
36472W        W  405  28.035  20.723   4.346
36473W        W  406  38.834  10.279  10.498
36474W        W  407   0.275  21.251  12.416
36475W        W  408  30.516  17.614   2.339
36476W        W  409  20.060  22.602   4.719
36477W        W  410  22.211  32.916   2.196
36478W        W  411  31.131  32.460   3.327
36479W        W  412  14.251  18.073  11.431
36480W        W  413  24.682  28.583  14.764
36481W        W  414  33.563  44.412  10.959
36482W        W  415  19.615  31.000   5.134
36483W        W  416  19.198  42.005   3.770
36484W        W  417  37.393  29.102   1.248
36485W        W  418  43.282  39.989   3.680
36486W        W  419   6.709   7.843   3.631
36487W        W  420  10.790  31.568   2.198
36488W        W  421  13.796  39.986  13.930
36489W        W  422  14.702  41.490  14.925
36490W        W  423  29.626  13.220   3.261
36491W        W  424  24.652  35.429   2.283
36492W        W  425   5.771  26.984  11.421
36493W        W  426  33.516  23.699   1.316
36494W        W  427  12.719  29.983   1.413
36495W        W  428  34.117  36.975  11.520
36496W        W  429  42.831  43.473   1.327
36497W        W  430  22.561  37.048   0.330
36498W        W  431  19.572  16.184  10.898
36499W        W  432  12.653  40.852  14.931
36500W        W  433  44.761  19.202   0.355
36501W        W  434  41.990  28.050   3.758
36502W        W  435  35.879  15.324  12.559
36503W        W  436  30.985  38.004   3.168
36504W        W  437  37.018  32.974   0.365
36505W        W  438  39.966   5.231   0.293
36506W        W  439   4.418  42.839  12.422
36507W        W  440  25.546  19.719  10.925
36508W        W  441  20.035   3.921   3.200
36509W        W  442  19.258  34.951   2.782
36510W        W  443  30.085  15.100  12.053
36511W        W  444   6.368  17.115   1.378
36512W        W  445   8.840  28.167   1.739
36513W        W  446  12.638   9.832   0.807
36514W        W  447  28.593  17.738  14.314
36515W        W  448  12.699   3.369   1.840
36516W        W  449  40.951  15.091   3.183
36517W        W  450  16.604  31.594   3.333
36518W        W  451  31.948   8.328   4.122
36519W        W  452  25.563  13.143   2.184
36520W        W  453  15.126  21.694  11.954
36521W        W  454   4.788  24.172  12.355
36522W        W  455  40.910  43.890   3.366
36523W        W  456  28.082  34.874   1.415
36524W        W  457  33.061  14.190   4.635
36525W        W  458   9.173   4.816   0.267
36526W        W  459  21.700  16.213   4.151
36527W        W  460  12.355  30.536  10.890
36528W        W  461  24.105  28.660   3.688
36529W        W  462  21.091   7.709   1.412
36530W        W  463  22.640   8.888   1.428
36531W        W  464  13.253  37.456   9.989
36532W        W  465  30.500   6.745  10.946
36533W        W  466  41.364  39.863  12.535
36534W        W  467  13.224  27.598  12.851
36535W        W  468  37.544  25.185   0.471
36536W        W  469  24.055  22.090  14.278
36537W        W  470  33.564  35.536   1.321
36538W        W  471  34.569  24.558  11.600
36539W        W  472  20.612  13.223   3.363
36540W        W  473  38.407   1.407  13.498
36541W        W  474  43.804   0.800  12.992
36542W        W  475  39.971  21.541  14.966
36543W        W  476  23.679  35.548  14.922
36544W        W  477  11.641   4.292  12.847
36545W        W  478  26.651  44.776   4.689
36546W        W  479  33.600  42.399   2.705
36547W        W  480  44.804  15.671   2.800
36548W        W  481   7.367   2.909   2.901
36549W        W  482  29.107  37.933  11.051
36550W        W  483  31.905  29.594   2.208
36551W        W  484  32.042  16.160   4.815
36552W        W  485  13.111  23.618  12.952
36553W        W  486  38.009  28.538  14.758
36554W        W  487  24.584  12.709   3.180
36555W        W  488   8.370  10.322   2.348
36556W        W  489  41.039  14.676   1.831
36557W        W  490  13.342  31.506   3.794
36558W        W  491  24.720  44.992  10.000
36559W        W  492  28.660  19.245  14.493
36560W        W  493  29.504  36.051  14.472
36561W        W  494  12.249  21.042   1.418
36562W        W  495  35.488  13.204  11.052
36563W        W  496  19.537  19.251  13.993
36564W        W  497  12.695  28.109   4.811
36565W        W  498  22.579   7.697  10.624
36566W        W  499   1.815   0.472  11.598
36567W        W  500   9.766  22.670  10.582
36568W        W  501  40.546  16.690  12.073
36569W        W  502  33.476  40.815   1.285
36570W        W  503  26.699  17.133   5.279
36571W        W  504  11.725  30.528  14.420
36572W        W  505   5.265   5.883  11.428
36573W        W  506  21.038  32.136   5.315
36574W        W  507  34.006   0.981  10.922
36575W        W  508  36.493  43.328   4.303
36576W        W  509  28.460  29.459   0.390
36577W        W  510  38.879  27.472   4.711
36578W        W  511  39.521  12.224  11.593
36579W        W  512  21.564   5.427   1.412
36580W        W  513  25.981  19.739  14.919
36581W        W  514  24.545   8.195  14.835
36582W        W  515   7.784  33.385  14.330
36583W        W  516   2.914  14.215   1.245
36584W        W  517  24.594  12.176   3.807
36585W        W  518  19.199   9.210   0.371
36586W        W  519  36.070   4.313  10.898
36587W        W  520  42.434  15.649  10.581
36588W        W  521  35.083  33.541  10.905
36589W        W  522   0.456  27.625  13.860
36590W        W  523   5.758  13.611  12.528
36591W        W  524   0.367  39.557  14.281
36592W        W  525   0.953  37.842  12.948
36593W        W  526  26.658  44.421  13.474
36594W        W  527  29.586   0.431  10.019
36595W        W  528  16.228  36.451  11.926
36596W        W  529   5.919  33.465  13.862
36597W        W  530   1.318  16.169  12.544
36598W        W  531  15.184  27.653  10.600
36599W        W  532  21.155  16.808   1.281
36600W        W  533  23.586   0.395  10.543
36601W        W  534  37.366  12.182  14.873
36602W        W  535  34.522  26.504  12.093
36603W        W  536  17.678  18.654  12.449
36604W        W  537   2.910  12.205   3.811
36605W        W  538  26.010  18.563  12.869
36606W        W  539  14.196  14.158  13.005
36607W        W  540  44.952  31.937   3.814
36608W        W  541   1.801   5.813  14.379
36609W        W  542  23.699  17.659   0.248
36610W        W  543  44.415  39.361  12.933
36611W        W  544   0.831   3.813   1.899
36612W        W  545  40.849  16.590  10.585
36613W        W  546  33.611   5.387   2.323
36614W        W  547   7.340  10.647  14.965
36615W        W  548   2.404   6.794   2.803
36616W        W  549   9.809  36.843   3.770
36617W        W  550  19.103  16.175  13.001
36618W        W  551  34.440   0.915  11.861
36619W        W  552  16.582  25.623  13.056
36620W        W  553   6.777  16.230   2.297
36621W        W  554  21.601   8.678  10.936
36622W        W  555  32.435  29.032   4.262
36623W        W  556  34.118  33.422   2.862
36624W        W  557  39.927  27.073   1.776
36625W        W  558  13.646  24.582  12.973
36626W        W  559  36.504  16.663   4.349
36627W        W  560  30.978  38.864   2.356
36628W        W  561  20.546  25.005  11.517
36629W        W  562   0.744  13.189  14.393
36630W        W  563  24.520  18.198  11.068
36631W        W  564  19.596  32.932  14.980
36632W        W  565  44.465  14.647  12.500
36633W        W  566   9.811  39.869   1.305
36634W        W  567  20.119  16.305  14.985
36635W        W  568  19.552  29.087  13.391
36636W        W  569  37.508  44.000   0.362
36637W        W  570  22.060  17.110  13.887
36638W        W  571  16.153   7.264  12.895
36639W        W  572  20.632  27.111   2.803
36640W        W  573  29.656   0.250   1.359
36641W        W  574  42.806   6.405  12.073
36642W        W  575  22.662  25.488   5.200
36643W        W  576  34.088  30.101  14.800
36644W        W  577  14.651   8.256   9.992
36645W        W  578  24.227  30.482   4.804
36646W        W  579   9.839  12.789   1.313
36647W        W  580  31.581  26.570  13.942
36648W        W  581   2.297  43.340  10.577
36649W        W  582  40.994  11.625   3.356
36650W        W  583  20.564  35.921  11.921
36651W        W  584   7.233   8.288  12.513
36652W        W  585  32.103   0.910   1.221
36653W        W  586   3.434  35.358  14.457
36654W        W  587  32.999  34.420   1.270
36655W        W  588   1.868  20.045  14.346
36656W        W  589   9.817  42.790  14.502
36657W        W  590  32.117  21.157   5.162
36658W        W  591   3.437   3.391  10.644
36659W        W  592   5.862  37.457   4.757
36660W        W  593  14.278   2.279  14.927
36661W        W  594  10.828  21.152   2.317
36662W        W  595  32.068  26.557  11.084
36663W        W  596  39.437  42.305   3.714
36664W        W  597  34.583  20.260   0.390
36665W        W  598   3.955  22.121  10.922
36666W        W  599  20.237  11.306   1.268
36667W        W  600  25.127  16.174   2.721
36668W        W  601  25.494  42.423   0.928
36669W        W  602  11.725  37.524  11.978
36670W        W  603   0.830   6.864   3.357
36671W        W  604  39.395   2.346  10.523
36672W        W  605   6.370  40.992  13.802
36673W        W  606  12.737  29.601  12.524
36674W        W  607  21.634  35.052   1.234
36675W        W  608   3.918  15.102   2.207
36676W        W  609  19.580  39.511  13.059
36677W        W  610   9.693   9.386  10.430
36678W        W  611  15.772  16.644   0.358
36679W        W  612  39.842   0.826   1.760
36680W        W  613  38.515  43.940  10.643
36681W        W  614  41.452   9.323  10.944
36682W        W  615  43.440  11.331   3.706
36683W        W  616  34.368  21.145   2.770
36684W        W  617  32.102  24.146   1.807
36685W        W  618  28.630  25.158  11.933
36686W        W  619  26.983  42.331  10.634
36687W        W  620  33.118  36.428   4.246
36688W        W  621   4.240  13.277  14.767
36689W        W  622  33.089  33.462   1.748
36690W        W  623  37.069  23.171  13.378
36691W        W  624  31.454  15.241   4.635
36692W        W  625  36.871  35.399  10.631
36693W        W  626  33.938  14.226  10.912
36694W        W  627   5.914  37.554   0.762
36695W        W  628  44.379  14.137   4.177
36696W        W  629  18.745  19.638   5.796
36697W        W  630  35.913   1.286  11.911
36698W        W  631  28.039  43.883   2.825
36699W        W  632   3.340  40.549  12.405
36700W        W  633  40.546  43.934  13.509
36701W        W  634  38.477  29.066  13.059
36702W        W  635  32.514  27.532  10.493
36703W        W  636  42.305   0.820  12.542
36704W        W  637  11.351   8.394  12.073
36705W        W  638  29.059  44.327  14.986
36706W        W  639  19.108   7.866  10.990
36707W        W  640  42.834  25.012   0.281
36708W        W  641   8.219  36.458   3.216
36709W        W  642  31.563  34.092  13.391
36710W        W  643  41.383  42.901  11.487
36711W        W  644  24.192   9.304  14.930
36712W        W  645  36.387  18.649  10.959
36713W        W  646  11.343  30.923   2.310
36714W        W  647  13.316  33.005   0.404
36715W        W  648  20.582  28.607  11.031
36716W        W  649  32.634   3.940   3.365
36717W        W  650   7.351   0.294  12.951
36718W        W  651   5.862  34.392  13.403
36719W        W  652  27.462  33.007  12.389
36720W        W  653  32.436  41.977   0.263
36721W        W  654  12.186  19.205  12.412
36722W        W  655  14.665  11.734   2.305
36723W        W  656  28.468  16.193   3.351
36724W        W  657  38.565   0.454  14.823
36725W        W  658  21.229  34.404  13.893
36726W        W  659  35.422  27.141   1.272
36727W        W  660  38.374  36.040   4.638
36728W        W  661  39.531   7.368   2.402
36729W        W  662   2.299  32.622  11.037
36730W        W  663   7.413  17.165  12.992
36731W        W  664  23.168  37.034  14.353
36732W        W  665  18.691  14.326  13.412
36733W        W  666   0.975  33.457  10.955
36734W        W  667  33.935   1.872   0.893
36735W        W  668  11.855  13.258   4.260
36736W        W  669  37.038  24.216  12.556
36737W        W  670  42.419  33.481  14.946
36738W        W  671   0.961  30.491   2.193
36739W        W  672  37.920   0.277  14.859
36740W        W  673  22.050  44.478   4.156
36741W        W  674  37.993  17.663  11.956
36742W        W  675   7.232  17.670  12.489
36743W        W  676  38.964  18.759  14.338
36744W        W  677   7.398  32.628   0.304
36745W        W  678  36.470   9.346   1.251
36746W        W  679  39.927  25.533   4.160
36747W        W  680  28.624   2.437  14.415
36748W        W  681   6.365  33.580  14.030
36749W        W  682   9.284  24.698  11.074
36750W        W  683  10.374  27.016   3.737
36751W        W  684   0.883  30.005   2.231
36752W        W  685   2.327  29.475  10.021
36753W        W  686  22.202  17.742  11.075
36754W        W  687  41.368  20.615  12.459
36755W        W  688   6.268   7.227   2.315
36756W        W  689  30.069   9.831   1.425
36757W        W  690   7.745  35.377   2.778
36758W        W  691   2.238  30.963   0.449
36759W        W  692   3.860   8.364   3.321
36760W        W  693   8.874  14.136  10.960
36761W        W  694  15.318  22.674  12.069
36762W        W  695   4.434  34.114  13.365
36763W        W  696  17.593  43.801   1.807
36764W        W  697   8.277  33.607  11.994
36765W        W  698  26.199  33.462   3.288
36766W        W  699  31.064   8.319   1.293
36767W        W  700  44.949  17.764   1.347
36768W        W  701   8.667   6.350   0.892
36769W        W  702  19.738  22.113   2.222
36770W        W  703  26.073  44.806   3.809
36771W        W  704   3.804  18.716  11.885
36772W        W  705   9.296   2.469   0.283
36773W        W  706  26.989  22.715   1.837
36774W        W  707  24.177   3.358  12.375
36775W        W  708   2.751  32.439   4.728
36776W        W  709  44.757  26.995   0.765
36777W        W  710  27.945  10.307   1.351
36778W        W  711  33.131   6.206  14.766
36779W        W  712  21.178   8.885  13.526
36780W        W  713  40.928  24.507  11.530
36781W        W  714   2.417  12.792   5.279
36782W        W  715  44.801   6.372  13.972
36783W        W  716  37.913  16.275   4.253
36784W        W  717  43.341  11.778  12.466
36785W        W  718  16.647  26.991  13.819
36786W        W  719  38.356  27.015  14.955
36787W        W  720   6.310  27.644   4.345
36788W        W  721  11.295  14.171  11.403
36789W        W  722  19.044  22.504   0.789
36790W        W  723  24.128  15.712   2.281
36791W        W  724   9.826  30.637  12.837
36792W        W  725   9.375   7.301  11.947
36793W        W  726  24.609  44.781  13.848
36794W        W  727  34.115   5.833   2.740
36795W        W  728  32.925  40.833   0.271
36796W        W  729  41.796  38.959   1.863
36797W        W  730  28.626  22.166   4.170
36798W        W  731  11.299  16.764   1.384
36799W        W  732  20.124  37.986  11.495
36800W        W  733   3.224  38.062  13.484
36801W        W  734  25.994  38.048  12.054
36802W        W  735  19.237  14.246   1.920
36803W        W  736  33.447   2.947   1.902
36804W        W  737  43.862  34.569  10.993
36805W        W  738  10.685  30.917   2.225
36806W        W  739   7.887  29.592  12.570
36807W        W  740  34.891   1.397  11.089
36808W        W  741   5.216   3.398   1.395
36809W        W  742  21.169   6.285   2.385
36810W        W  743   7.878  31.068  11.870
36811W        W  744  21.148  37.875   0.850
36812W        W  745   5.194  40.530   3.774
36813W        W  746  32.633  22.578   3.805
36814W        W  747  22.137  36.008   4.740
36815W        W  748  38.547   5.328   2.362
36816W        W  749  23.026  38.929  14.968
36817W        W  750   1.835  43.854  13.951
36818W        W  751   5.298   7.309  10.415
36819W        W  752   5.316   5.285  10.420
36820W        W  753   0.756  26.162   1.847
36821W        W  754  21.591   7.179   0.946
36822W        W  755   5.836  44.966   4.255
36823W        W  756  23.720  28.032   1.277
36824W        W  757   0.794   7.349  12.079
36825W        W  758  23.023  40.798   3.665
36826W        W  759  42.900  11.323   0.254
36827W        W  760  41.415  28.473   2.275
36828W        W  761  36.872  22.133   4.605
36829W        W  762   0.801   1.752  12.398
36830W        W  763  36.540   3.442   1.754
36831W        W  764  42.405  32.611   0.928
36832W        W  765  30.552   0.303  11.451
36833W        W  766  27.060  14.111  10.117
36834W        W  767   1.445  19.280   2.220
36835W        W  768   0.318   3.902   0.842
36836W        W  769  30.424  30.603   0.897
36837W        W  770  23.666  16.773   3.800
36838W        W  771  30.520  15.743   3.314
36839W        W  772  11.669  15.174  13.397
36840W        W  773  13.246  22.015   1.752
36841W        W  774  36.349   8.162   4.838
36842W        W  775  16.201  43.806  14.026
36843W        W  776  40.387  35.943   5.091
36844W        W  777   5.743  17.156   1.331
36845W        W  778  39.920   1.411  10.547
36846W        W  779  11.135  11.740   0.860
36847W        W  780  21.125   4.224   4.637
36848W        W  781  38.851   3.238  14.504
36849W        W  782   6.256  26.479   1.252
36850W        W  783  19.651  16.613   4.131
36851W        W  784  24.124   2.259  12.527
36852W        W  785  28.942  29.454  11.119
36853W        W  786  17.291  33.525  11.449
36854W        W  787  10.300  38.010   4.618
36855W        W  788  42.909   8.800   2.804
36856W        W  789   8.294  22.033  11.460
36857W        W  790   5.794  44.893  12.421
36858W        W  791  27.945  28.005  13.524
36859W        W  792  30.462  34.455   2.384
36860W        W  793  22.062  28.106  14.787
36861W        W  794   0.447  30.077  11.510
36862W        W  795  22.018  20.120   4.638
36863W        W  796  33.968  39.853   3.817
36864W        W  797  31.981  25.073  11.470
36865W        W  798  24.601  40.843   4.158
36866W        W  799  36.925  34.045  13.335
36867W        W  800  23.234  33.115  13.942
36868W        W  801  20.664  24.150   1.450
36869W        W  802  26.505  43.322  14.341
36870W        W  803   6.698  31.547  13.479
36871W        W  804  27.040   9.353  14.792
36872W        W  805  15.249  14.186  14.477
36873W        W  806   4.235  37.550  13.944
36874W        W  807  17.292  41.970  14.386
36875W        W  808  10.703  44.946   2.188
36876W        W  809   9.189  39.416   0.939
36877W        W  810  14.267   5.714   4.323
36878W        W  811   4.729  38.971  11.067
36879W        W  812  36.886  17.746  13.326
36880W        W  813  28.064  21.112   1.336
36881W        W  814  32.592  42.896   2.212
36882W        W  815   1.923  39.392   4.191
36883W        W  816  27.196  27.639   3.782
36884W        W  817  29.152  26.689  11.922
36885W        W  818  14.131   1.895  10.947
36886W        W  819  34.596  43.008  11.897
36887W        W  820  38.935  23.994  13.990
36888W        W  821  17.079  25.593  12.988
36889W        W  822  12.841   3.799  14.347
36890W        W  823  18.544  23.548   1.380
36891W        W  824  16.087  27.093  13.422
36892W        W  825  40.803  38.383  14.912
36893W        W  826  14.640  43.402  12.474
36894W        W  827  39.351  28.938  14.983
36895W        W  828   7.389  32.636  14.017
36896W        W  829  11.845   6.818   2.829
36897W        W  830  39.321  37.917  13.970
36898W        W  831  40.981  15.598   1.426
36899W        W  832   3.276   6.195  13.882
36900W        W  833  34.936  15.724   5.087
36901W        W  834  26.517  17.209   3.776
36902W        W  835  20.698  41.006  12.503
36903W        W  836   4.207  31.013   1.738
36904W        W  837   2.874   6.314   0.478
36905W        W  838  32.466   3.306   2.317
36906W        W  839  44.845  41.907  11.586
36907W        W  840  35.952   9.194  14.905
36908W        W  841   0.284   5.262   4.166
36909W        W  842  17.588  17.641   3.856
36910W        W  843   0.276  40.428  12.016
36911W        W  844  17.638  29.549  13.324
36912W        W  845  40.865  32.999   0.396
36913W        W  846  43.802  27.161  14.318
36914W        W  847  17.568  39.421   3.197
36915W        W  848  10.756  22.541  12.495
36916W        W  849  32.446  35.957  11.475
36917W        W  850   9.706  20.074  10.941
36918W        W  851  21.582  43.770   3.354
36919W        W  852  34.082  34.039  13.503
36920W        W  853  19.577  24.490  10.511
36921W        W  854  14.700  44.388  11.410
36922W        W  855   0.883  43.399  14.909
36923W        W  856  16.623  38.868  12.560
36924W        W  857  35.862   7.293   2.342
36925W        W  858  22.997  44.309  10.449
36926W        W  859  32.123  31.433   0.878
36927W        W  860  30.593  30.580   2.782
36928W        W  861  20.031  10.744  13.924
36929W        W  862  44.398  28.435   3.149
36930W        W  863  15.243  38.331  14.438
36931W        W  864  34.614  43.781  11.447
36932W        W  865  40.306   8.868   2.231
36933W        W  866  13.827  23.648  14.819
36934W        W  867   7.409   3.713  13.854
36935W        W  868  26.134   8.800   0.356
36936W        W  869   4.229  27.477  14.003
36937W        W  870  29.118  35.447   0.767
36938W        W  871  23.553  26.201  11.100
36939W        W  872   7.734  21.133   5.091
36940W        W  873  17.704  13.289  14.504
36941W        W  874   5.302  36.474  13.934
36942W        W  875  24.060  24.696  14.024
36943W        W  876  40.515   3.380   2.796
36944W        W  877  33.966   5.220   3.262
36945W        W  878   6.801  19.600  14.866
36946W        W  879  16.588  28.582   2.811
36947W        W  880  42.485  23.500  10.572
36948W        W  881   2.950  17.659  13.544
36949W        W  882  14.324  44.791  13.872
36950W        W  883  20.085  30.091   4.665
36951W        W  884  34.900  33.528  14.002
36952W        W  885  31.525  32.888  14.381
36953W        W  886  13.325   8.259   0.796
36954W        W  887  22.200  20.207   4.269
36955W        W  888  27.030  25.673  10.523
36956W        W  889  29.636   5.412  14.384
36957W        W  890  14.204  29.095  12.859
36958W        W  891  42.327  23.137   4.222
36959W        W  892   9.746  13.296   1.844
36960W        W  893  25.218  37.373  12.854
36961W        W  894   7.816   9.737  11.931
36962W        W  895  14.268  38.446   3.360
36963W        W  896  31.552   1.365   2.878
36964W        W  897   4.315  39.559  11.127
36965W        W  898   1.357   2.882  10.461
36966W        W  899  39.386  23.694   0.402
36967W        W  900  26.993  31.556  12.989
36968W        W  901  24.980  32.136  13.926
36969W        W  902  39.384  44.402   2.707
36970W        W  903  14.663  41.377  10.060
36971W        W  904  40.317  23.055   1.896
36972W        W  905  12.193  34.043  12.063
36973W        W  906  19.712  43.970  10.407
36974W        W  907  34.896  18.125  14.343
36975W        W  908   0.252  38.991  12.515
36976W        W  909  23.665  41.015   0.320
36977W        W  910  35.993  30.058  13.426
36978W        W  911  44.313  39.016  13.889
36979W        W  912  38.504  35.952  14.907
36980W        W  913  32.918  10.227   4.602
36981W        W  914  18.236  39.932   2.896
36982W        W  915  30.523   5.355  13.469
36983W        W  916  14.168  38.424   4.659
36984W        W  917  12.646   6.323   2.359
36985W        W  918  19.613  37.402  12.902
36986W        W  919  16.215  24.656   1.248
36987W        W  920  15.754  24.975   2.276
36988W        W  921  14.315  22.635  13.456
36989W        W  922  40.515  10.200  12.004
36990W        W  923  26.096  13.212  11.387
36991W        W  924  36.585  25.544   4.737
36992W        W  925  29.465  39.388  13.908
36993W        W  926  15.819  15.223  10.892
36994W        W  927  18.127  21.659  12.972
36995W        W  928  26.622  10.740  12.064
36996W        W  929   1.919   8.809   2.685
36997W        W  930  13.255  34.957   0.856
36998W        W  931   1.293   9.260  13.357
36999W        W  932   4.348   5.263  13.478
37000W        W  933  10.756   8.776   1.858
37001W        W  934  17.669  35.069  10.899
37002W        W  935  21.710   1.446   2.361
37003W        W  936  19.729  24.560   4.671
37004W        W  937  41.909  23.996   0.292
37005W        W  938  19.271  40.859  10.024
37006W        W  939  18.118  17.780   4.223
37007W        W  940   5.825  16.786  12.529
37008W        W  941  20.123  43.313  14.280
37009W        W  942   4.321  17.655   2.178
37010W        W  943  27.495  18.587   2.734
37011W        W  944   6.368  39.924   1.907
37012W        W  945   3.254  24.115   5.081
37013W        W  946  38.074   6.257   2.667
37014W        W  947  37.523  22.199  13.016
37015W        W  948   7.381  43.506  10.452
37016W        W  949   5.720  34.609   1.729
37017W        W  950  20.249  16.651  11.458
37018W        W  951   2.443   6.260   2.849
37019W        W  952  39.456   7.322  13.319
37020W        W  953  19.181   1.779   0.343
37021W        W  954   6.371   3.404  11.967
37022W        W  955  29.611  21.242   0.962
37023W        W  956  30.914  26.629  14.344
37024W        W  957   2.461  10.679   4.237
37025W        W  958  29.021  42.341  14.931
37026W        W  959  21.667  27.145   1.211
37027W        W  960  29.483  16.617   4.276
37028W        W  961  35.854   9.150  12.027
37029W        W  962  27.947   5.206   1.221
37030W        W  963   3.726   5.256  14.449
37031W        W  964  41.529  24.621   1.731
37032W        W  965  43.952  36.584  10.058
37033W        W  966  32.482   7.175  10.977
37034W        W  967  11.710  11.695   5.149
37035W        W  968   2.744  40.889   1.803
37036W        W  969   3.379  10.654   4.782
37037W        W  970  25.988  37.945   1.397
37038W        W  971  11.252  20.629  14.908
37039W        W  972   9.671  26.198   0.308
37040W        W  973  38.516   8.357   2.204
37041W        W  974  20.712  28.946   0.382
37042W        W  975  13.111  31.986  11.096
37043W        W  976   0.481  27.647   1.811
37044W        W  977  10.201  32.913  11.870
37045W        W  978   6.325  26.587  13.889
37046W        W  979  20.643   3.847   2.673
37047W        W  980  22.558  32.456  14.516
37048W        W  981  39.418  15.794   0.271
37049W        W  982  20.247  10.706  13.372
37050W        W  983  32.995   9.694  12.371
37051W        W  984   0.976   7.378  10.936
37052W        W  985  27.061  25.128   1.254
37053W        W  986  25.521   8.390  13.957
37054W        W  987  37.057  35.371   1.238
37055W        W  988  27.109   7.254   1.738
37056W        W  989  20.073  41.410   4.610
37057W        W  990  13.212  10.770  14.999
37058W        W  991  22.524   7.312   1.735
37059W        W  992  30.608  31.502  14.370
37060W        W  993  14.159  11.726   4.340
37061W        W  994  41.001  42.313   2.837
37062W        W  995  19.600  30.614   1.304
37063W        W  996  42.993  18.554   3.191
37064W        W  997  40.507  38.990  11.930
37065W        W  998  40.805  29.019   3.324
37066W        W  999  39.436  12.673  11.012
37067W        W 1000   8.760  32.109   0.924
37068W        W 1001  29.102  34.575  11.399
37069W        W 1002  13.134   8.405   1.863
37070W        W 1003   8.655  33.886  13.001
37071W        W 1004  15.586  17.168   0.480
37072W        W 1005  36.476   8.810  13.456
37073W        W 1006  18.164  42.460   0.363
37074W        W 1007  33.058  42.896   0.884
37075W        W 1008  40.537   0.798  10.134
37076W        W 1009   3.300   5.691   2.181
37077W        W 1010  36.050  39.368   4.268
37078W        W 1011  37.968  34.583  11.440
37079W        W 1012  36.028  21.610  12.407
37080W        W 1013  38.040   4.402  14.840
37081W        W 1014  20.179  31.001  11.972
37082W        W 1015  28.643   9.763  12.956
37083W        W 1016  31.141  41.883  10.407
37084W        W 1017   7.364  13.685  12.555
37085W        W 1018  28.474  44.821   9.990
37086W        W 1019   5.715  22.181  11.450
37087W        W 1020   4.800   2.964  11.122
37088W        W 1021  10.188  16.692  14.355
37089W        W 1022   5.307  11.316   0.342
37090W        W 1023  14.649   9.166  12.017
37091W        W 1024   6.229  28.028  10.554
37092W        W 1025  19.096  21.733   1.267
37093W        W 1026   0.917   6.208   4.624
37094W        W 1027  12.763  15.165  11.391
37095W        W 1028   9.178  21.017  10.616
37096W        W 1029  34.502  17.564   3.260
37097W        W 1030   0.306  22.673  13.942
37098W        W 1031   7.729  24.649  12.435
37099W        W 1032  40.505  23.675  12.015
37100W        W 1033  31.071  21.190  12.854
37101W        W 1034  22.727  38.428   2.280
37102W        W 1035  43.359  33.549  14.975
37103W        W 1036  39.813   4.777   1.785
37104W        W 1037  28.642  26.483   0.434
37105W        W 1038  12.214   5.333   1.772
37106W        W 1039  18.625  32.936  13.537
37107W        W 1040  12.356  17.087   1.246
37108W        W 1041  18.071  32.583  13.436
37109W        W 1042  19.214   2.236  10.637
37110W        W 1043  17.152  24.106   1.326
37111W        W 1044  26.605  27.094   4.258
37112W        W 1045   1.887  32.548   1.425
37113W        W 1046   3.778   5.326   4.195
37114W        W 1047  37.482  32.121   3.749
37115W        W 1048  17.274  38.855   0.818
37116W        W 1049  11.299   7.283   1.902
37117W        W 1050  39.388  38.886  11.417
37118W        W 1051  44.002  12.297   4.266
37119W        W 1052  17.072   7.909  14.493
37120W        W 1053  20.211  11.668  10.994
37121W        W 1054  26.582  25.470   1.280
37122W        W 1055  28.439  10.656  13.500
37123W        W 1056  15.292  35.016   4.270
37124W        W 1057  16.307  12.701  12.482
37125W        W 1058  35.063   3.460  12.058
37126W        W 1059  41.846  32.118  14.770
37127W        W 1060  37.444  21.057  13.417
37128W        W 1061  18.553   1.832   0.751
37129W        W 1062  26.538   7.880  10.473
37130W        W 1063  11.724  16.780   1.251
37131W        W 1064  44.883  22.567  10.145
37132W        W 1065  36.413  12.615   2.833
37133W        W 1066  42.880  38.421  12.885
37134W        W 1067   7.354   2.364  13.509
37135W        W 1068  40.864   9.244   2.273
37136W        W 1069  28.933  19.593   2.869
37137W        W 1070  41.518  22.224  11.002
37138W        W 1071  38.877  37.496  14.964
37139W        W 1072  28.445   3.425   1.255
37140W        W 1073  42.829  37.456  11.942
37141W        W 1074   9.213   8.744   2.395
37142W        W 1075  40.909  39.956  14.411
37143W        W 1076  17.112  21.121  13.811
37144W        W 1077   8.385  31.459  10.461
37145W        W 1078  34.930  31.641   2.858
37146W        W 1079   7.806  42.400  14.883
37147W        W 1080  38.511   3.781   0.951
37148W        W 1081  34.491  19.237   2.721
37149W        W 1082   5.926  38.464   4.156
37150W        W 1083  20.730  21.680   0.479
37151W        W 1084  18.070  25.658   1.241
37152W        W 1085   4.420  42.974   3.862
37153W        W 1086  42.513  14.732  13.524
37154W        W 1087  24.037   1.948   0.411
37155W        W 1088  26.694  22.097  13.939
37156W        W 1089  37.473  43.875  12.845
37157W        W 1090  10.781  41.841  14.427
37158W        W 1091  26.170  26.700  13.941
37159W        W 1092  37.890  11.323  11.871
37160W        W 1093  16.318  41.965   4.179
37161W        W 1094  17.217  25.092  13.421
37162W        W 1095   3.254  32.521   4.160
37163W        W 1096   6.362  17.589   2.373
37164W        W 1097  29.952  28.640  12.374
37165W        W 1098  30.569  12.715   2.244
37166W        W 1099   9.690   8.197  10.575
37167W        W 1100   9.231  34.897  12.847
37168W        W 1101  16.193  22.518   4.353
37169W        W 1102  30.920   5.698   2.879
37170W        W 1103  21.744  22.130  12.413
37171W        W 1104  23.580  10.147  11.458
37172W        W 1105   6.841   2.962  13.907
37173W        W 1106  33.549  20.546  11.548
37174W        W 1107  35.931  41.397  11.860
37175W        W 1108  25.702   8.801   1.756
37176W        W 1109  12.701  30.622   2.741
37177W        W 1110  10.280  10.743  11.999
37178W        W 1111  42.835   5.270  11.565
37179W        W 1112   2.924   7.811  11.921
37180W        W 1113  23.124   8.355  12.983
37181W        W 1114  31.997  17.686  11.874
37182W        W 1115  25.123  34.480   3.239
37183W        W 1116  44.390  13.754  14.407
37184W        W 1117   8.754  42.983   4.248
37185W        W 1118   0.833  18.070  13.364
37186W        W 1119  39.430  28.151   4.598
37187W        W 1120   6.765  29.007   4.217
37188W        W 1121  39.336  32.517   0.441
37189W        W 1122  38.912  15.732  11.422
37190W        W 1123  27.965   1.884  14.385
37191W        W 1124  21.525   7.776   3.716
37192W        W 1125  32.533  40.905  13.482
37193W        W 1126   6.799   1.787  12.490
37194W        W 1127  24.099  12.340   9.665
37195W        W 1128  15.183  15.273  14.316
37196W        W 1129  30.497  14.267  11.115
37197W        W 1130  21.244   5.828   3.180
37198W        W 1131   8.379  31.917  12.848
37199W        W 1132  26.654  34.118   3.270
37200W        W 1133  36.920  40.545  12.413
37201W        W 1134  43.012   0.790  13.334
37202W        W 1135  35.861  44.352   0.900
37203W        W 1136  41.809  43.866  14.362
37204W        W 1137   1.894  41.350  12.930
37205W        W 1138   3.918  23.034   2.818
37206W        W 1139  11.132  19.240  12.491
37207W        W 1140  26.502  21.734   1.883
37208W        W 1141  24.220  12.151   4.777
37209W        W 1142  32.494  38.013   1.802
37210W        W 1143  22.675  25.115   3.255
37211W        W 1144  19.113  23.076  13.029
37212W        W 1145   1.851  19.254   3.229
37213W        W 1146  41.875   8.790   2.785
37214W        W 1147   2.729  23.489  14.022
37215W        W 1148  27.021  23.717  12.046
37216W        W 1149  29.447  29.073   2.194
37217W        W 1150  23.635  24.709   0.433
37218W        W 1151   0.979  24.091   1.282
37219W        W 1152  28.454   4.415  11.493
37220W        W 1153  19.733  35.854   1.917
37221W        W 1154  11.823   1.271   1.351
37222W        W 1155   2.903  12.137  10.560
37223W        W 1156  44.428   6.740  14.315
37224W        W 1157  19.755   3.765   1.909
37225W        W 1158  19.103  28.558   2.323
37226W        W 1159  33.555  24.225  12.956
37227W        W 1160  17.659  30.553  10.985
37228W        W 1161  34.604  25.667   2.407
37229W        W 1162  35.358  17.618  13.370
37230W        W 1163   2.257  32.431  14.784
37231W        W 1164   0.489  29.561  13.894
37232W        W 1165  37.547  40.989  13.958
37233W        W 1166   7.729   9.261   3.226
37234W        W 1167  42.031  34.119  13.374
37235W        W 1168  37.530  26.184  12.424
37236W        W 1169  40.414  26.091  11.424
37237W        W 1170  14.710  19.042  13.473
37238W        W 1171  35.478  44.926  11.556
37239W        W 1172  30.462  15.654  14.994
37240W        W 1173  39.826   3.427   3.352
37241W        W 1174  30.655  17.630  13.001
37242W        W 1175  37.000  19.222  14.289
37243W        W 1176  42.389  28.023  14.420
37244W        W 1177  20.554  28.952   4.822
37245W        W 1178  14.305  39.997   4.179
37246W        W 1179  21.581  10.693   9.479
37247W        W 1180   4.870  20.127   0.765
37248W        W 1181  31.030  41.368  10.161
37249W        W 1182  22.526  13.698   2.726
37250W        W 1183   2.914   0.439   3.864
37251W        W 1184  41.497   4.236  13.366
37252W        W 1185  14.601  43.358   1.391
37253W        W 1186  15.197  23.572   0.372
37254W        W 1187   6.318   6.384   2.348
37255W        W 1188  35.505  38.346   4.117
37256W        W 1189  39.326  34.374  12.441
37257W        W 1190  44.460  10.865   1.259
37258W        W 1191   4.854  30.955   3.222
37259W        W 1192   2.277   1.302  12.984
37260W        W 1193   0.376  40.407  14.369
37261W        W 1194  27.666   4.902   3.665
37262W        W 1195  15.219  10.312   2.338
37263W        W 1196  42.826  35.381  11.577
37264W        W 1197  25.200   9.801  12.958
37265W        W 1198   8.772   3.711   1.728
37266W        W 1199  11.128  40.364   2.792
37267W        W 1200  20.103  12.362   4.806
37268W        W 1201  36.398   7.883   1.704
37269W        W 1202  18.119  18.170   0.421
37270W        W 1203  25.207  12.793   0.863
37271W        W 1204  40.031  33.554   1.815
37272W        W 1205  37.946  42.891   4.173
37273W        W 1206   8.184   8.328  11.546
37274W        W 1207  40.329  26.147  10.612
37275W        W 1208   7.809  44.353   4.686
37276W        W 1209  44.888  33.044  12.390
37277W        W 1210   3.384  40.431   1.881
37278W        W 1211  38.565  31.896  10.442
37279W        W 1212  12.295  20.577   0.255
37280W        W 1213  26.966   4.929   4.196
37281W        W 1214  10.344  25.546  13.326
37282W        W 1215  26.506  35.022   1.873
37283W        W 1216   7.668   6.714  13.906
37284W        W 1217  16.290  23.515   3.795
37285W        W 1218  40.965  15.610   3.827
37286W        W 1219   2.336  34.107   4.604
37287W        W 1220  40.463  27.662  12.410
37288W        W 1221  19.778  44.369  10.527
37289W        W 1222  21.513  20.667  12.518
37290W        W 1223  37.468  39.343   3.361
37291W        W 1224   4.302   8.846  10.898
37292W        W 1225   6.418  13.678   4.226
37293W        W 1226  11.756  33.054   1.904
37294W        W 1227  28.978  25.981   2.688
37295W        W 1228  18.618  24.197   2.418
37296W        W 1229   0.267   9.324   2.299
37297W        W 1230  29.032   7.787   0.886
37298W        W 1231  33.451  44.505  14.401
37299W        W 1232  24.153  29.086  11.587
37300W        W 1233  29.502  19.777  10.533
37301W        W 1234  32.473   9.155  10.938
37302W        W 1235  14.287  21.687  12.495
37303W        W 1236  35.065  12.799  14.285
37304W        W 1237  43.828  27.691   2.346
37305W        W 1238   1.731  36.437  13.502
37306W        W 1239   8.326  29.023  11.387
37307W        W 1240  10.259  31.637  11.121
37308W        W 1241  30.054  34.470  12.896
37309W        W 1242  16.638  35.415   0.313
37310W        W 1243  13.136   5.923  12.377
37311W        W 1244  15.141  10.772   0.310
37312W        W 1245  15.636  11.344  12.898
37313W        W 1246  19.743  34.003  13.414
37314W        W 1247   6.876   5.756  12.864
37315W        W 1248   4.440   3.303  12.433
37316W        W 1249  10.706   6.725  12.498
37317W        W 1250  43.957  23.526  12.449
37318W        W 1251  38.892  22.023  13.803
37319W        W 1252   5.382  34.494   2.182
37320W        W 1253  22.236  20.733   1.449
37321W        W 1254  37.570  29.490   2.396
37322W        W 1255  12.303   6.360  11.931
37323W        W 1256  16.168  11.700  11.015
37324W        W 1257  30.550  24.502  13.879
37325W        W 1258  42.881  18.657  13.837
37326W        W 1259  36.485  14.727   4.696
37327W        W 1260  24.578  39.955  14.857
37328W        W 1261   1.860  29.057   1.333
37329W        W 1262  22.249  28.015   2.336
37330W        W 1263  43.994   9.163  11.535
37331W        W 1264  41.468  15.822  11.046
37332W        W 1265  22.091  10.154  11.895
37333W        W 1266  30.978  25.622  11.931
37334W        W 1267   8.206  18.051  13.944
37335W        W 1268  16.662   1.745  11.429
37336W        W 1269  26.551   6.854  13.516
37337W        W 1270  28.533  16.219   2.714
37338W        W 1271  32.415  13.765  12.349
37339W        W 1272  22.998   8.163  14.904
37340W        W 1273  26.081  12.835  10.422
37341W        W 1274  44.433  12.308   3.375
37342W        W 1275   8.774  16.235  10.634
37343W        W 1276  21.216   1.738   1.759
37344W        W 1277  32.900  40.975  14.421
37345W        W 1278   3.251  29.134  13.819
37346W        W 1279  40.921  21.570   1.853
37347W        W 1280  15.694   8.165  12.407
37348W        W 1281  42.949  29.101  11.915
37349W        W 1282  21.611   2.890   0.274
37350W        W 1283  23.180   8.900  10.021
37351W        W 1284  14.797  11.151  13.309
37352W        W 1285   6.870  35.570   2.309
37353W        W 1286  39.855   2.822   0.455
37354W        W 1287  17.062  27.579   2.827
37355W        W 1288  33.924   8.686   1.367
37356W        W 1289  20.682  28.929  11.018
37357W        W 1290  38.868   8.724  10.041
37358W        W 1291  35.880  19.691  14.450
37359W        W 1292  20.592  32.120  12.087
37360W        W 1293  27.460  26.096   1.829
37361W        W 1294   0.927  34.945   1.816
37362W        W 1295   0.305   0.825   2.404
37363W        W 1296  38.913   9.728  10.922
37364W        W 1297  13.707  42.836  10.617
37365W        W 1298  39.360  41.508   5.292
37366W        W 1299  31.082  25.592   2.269
37367W        W 1300   7.178  42.782   2.778
37368W        W 1301  17.171   2.760   0.454
37369W        W 1302  17.575   6.698  12.927
37370W        W 1303  44.990  44.363   0.818
37371W        W 1304  41.500   3.253   1.389
37372W        W 1305  33.888  22.083  13.470
37373W        W 1306  14.207  19.595  13.889
37374W        W 1307  24.087  13.269   1.778
37375W        W 1308  17.578  43.886  13.417
37376W        W 1309   9.699   0.398   0.318
37377W        W 1310  37.407  24.700   1.855
37378W        W 1311  24.169  12.345  10.116
37379W        W 1312  43.313  27.447   1.741
37380W        W 1313   6.907  16.586   3.209
37381W        W 1314  38.934   1.746   2.230
37382W        W 1315   2.885  34.554  12.412
37383W        W 1316  28.037  43.859   3.222
37384W        W 1317   5.201  10.211  13.535
37385W        W 1318  42.437  13.845  13.427
37386W        W 1319  41.944  11.638   4.171
37387W        W 1320  22.070   9.648   3.860
37388W        W 1321  22.015  40.915  10.559
37389W        W 1322  25.053   0.364   1.418
37390W        W 1323  15.174  35.106   4.797
37391W        W 1324  35.013  42.855  12.839
37392W        W 1325   1.898  25.682   2.667
37393W        W 1326   8.891  33.967   0.967
37394W        W 1327  36.356  31.042  12.886
37395W        W 1328  31.087  23.168   0.789
37396W        W 1329  35.555   8.172   2.815
37397W        W 1330  34.549  27.607   0.449
37398W        W 1331  23.038  15.184   1.359
37399W        W 1332  24.594   8.665   5.299
37400W        W 1333  34.070  17.776   2.280
37401W        W 1334  22.083  33.916  14.453
37402W        W 1335  28.938  34.953  13.476
37403W        W 1336  20.687  34.426   2.182
37404W        W 1337  21.255  37.919  13.458
37405W        W 1338   1.858  22.726  12.379
37406W        W 1339  39.378  28.680  13.319
37407W        W 1340   9.292  39.020   0.469
37408W        W 1341  29.962  18.767   2.887
37409W        W 1342  25.482  33.609  12.877
37410W        W 1343   9.646  26.628  13.389
37411W        W 1344  25.482  20.041  13.869
37412W        W 1345  25.613  29.018   2.816
37413W        W 1346   2.842  29.146   0.248
37414W        W 1347  27.106  21.166   3.687
37415W        W 1348   0.849   8.288  10.940
37416W        W 1349  19.537  21.078   1.773
37417W        W 1350  17.798  16.088   5.709
37418W        W 1351  31.951  24.041  14.457
37419W        W 1352   2.853  31.118  12.993
37420W        W 1353   2.399  38.445   4.735
37421W        W 1354  22.560  19.169   0.888
37422W        W 1355  11.343   9.724   3.814
37423W        W 1356   2.423   3.874   0.793
37424W        W 1357  39.452   8.229   2.791
37425W        W 1358  13.230  34.928   2.884
37426W        W 1359  42.970  17.286  13.349
37427W        W 1360   7.791  19.058   2.850
37428W        W 1361  29.595  19.769   3.381
37429W        W 1362  28.525  14.099  14.929
37430W        W 1363   8.805  25.215  14.779
37431W        W 1364  40.938  24.722   0.313
37432W        W 1365   4.403   2.775  11.863
37433W        W 1366  39.444  44.303  11.891
37434W        W 1367  39.821   0.449   0.338
37435W        W 1368  36.953  14.234  10.587
37436W        W 1369  12.614  20.574  11.975
37437W        W 1370   4.213  41.294   0.302
37438W        W 1371  22.170  44.494   0.341
37439W        W 1372   4.737  20.204   3.840
37440W        W 1373  13.833  36.917   4.333
37441W        W 1374  12.303  34.885   2.782
37442W        W 1375  22.013  20.627  11.436
37443W        W 1376  26.159  10.250   4.196
37444W        W 1377  37.520  20.218  12.422
37445W        W 1378  14.121  35.027  10.572
37446W        W 1379  17.086   5.883   3.220
37447W        W 1380  36.574  43.445  11.887
37448W        W 1381   8.324   5.713   1.341
37449W        W 1382  29.124  12.624  13.014
37450W        W 1383  15.736  29.151   2.662
37451W        W 1384  14.297  32.056  10.509
37452W        W 1385  41.871  38.381  10.977
37453W        W 1386  15.779  44.484  13.519
37454W        W 1387  38.512  11.776   3.868
37455W        W 1388  16.209  17.731   0.359
37456W        W 1389   6.345  18.678   1.277
37457W        W 1390  21.118  37.550   2.804
37458W        W 1391  34.445  23.178   1.246
37459W        W 1392   1.916  15.142  13.424
37460W        W 1393  14.200  18.282   1.354
37461W        W 1394  15.614  40.006   2.193
37462W        W 1395  35.950  13.298   1.225
37463W        W 1396  15.163  31.136  11.544
37464W        W 1397  33.504  25.478   0.744
37465W        W 1398  14.626  37.048   0.362
37466W        W 1399  11.331   2.252  12.431
37467W        W 1400  13.204  40.039  10.914
37468W        W 1401  20.558   1.805   3.221
37469W        W 1402  35.365  33.971  14.022
37470W        W 1403  15.265  16.650  11.565
37471W        W 1404   5.335   4.790  13.383
37472W        W 1405  22.160  24.226   2.280
37473W        W 1406  37.394  32.962  10.570
37474W        W 1407   8.711  11.800   0.934
37475W        W 1408   3.837   6.889  13.898
37476W        W 1409   2.386  43.927   1.878
37477W        W 1410  24.021  42.944   3.191
37478W        W 1411  29.063  42.388   0.943
37479W        W 1412  17.084  33.975  11.015
37480W        W 1413  25.972  28.108   0.429
37481W        W 1414  15.717  18.774  14.853
37482W        W 1415   3.790  44.333  14.479
37483W        W 1416  15.605  18.272  14.784
37484W        W 1417  21.734  37.405  14.822
37485W        W 1418   6.921  24.664   3.255
37486W        W 1419   3.861  15.238  14.847
37487W        W 1420  16.715  25.210   3.721
37488W        W 1421   8.659  22.579   4.165
37489W        W 1422   6.850  31.114  13.369
37490W        W 1423  39.440   8.847   4.174
37491W        W 1424  43.478   4.432   2.278
37492W        W 1425   7.326  42.361   3.168
37493W        W 1426  36.844  41.849  10.627
37494W        W 1427  33.408  40.524  13.961
37495W        W 1428  32.948   9.395  11.017
37496W        W 1429  44.971   4.238  13.490
37497W        W 1430  33.977   9.788  13.032
37498W        W 1431   6.740  15.194  10.888
37499W        W 1432   7.906  22.204   3.272
37500W        W 1433  10.733  20.553  11.488
37501W        W 1434  11.332   6.413   4.742
37502W        W 1435  44.379  37.969  13.907
37503W        W 1436  20.532  30.952   3.318
37504W        W 1437  44.322  15.213   0.823
37505W        W 1438  23.719  42.377  10.066
37506W        W 1439  39.819  19.271   3.815
37507W        W 1440  21.136  28.604   4.836
37508W        W 1441  12.196  27.576   4.128
37509W        W 1442   1.449  36.969   3.833
37510W        W 1443  30.454  35.908  11.395
37511W        W 1444   2.902  15.802   3.675
37512W        W 1445  14.761   0.468   1.362
37513W        W 1446  38.895   1.469  14.821
37514W        W 1447  13.823  44.983   4.147
37515W        W 1448  39.374  37.085   1.702
37516W        W 1449   8.170  27.003   0.928
37517W        W 1450  21.659   1.959   3.157
37518W        W 1451  28.655  12.159  13.029
37519W        W 1452   5.262  30.618  12.042
37520W        W 1453  15.166  31.478   3.714
37521W        W 1454  34.042  26.133   0.296
37522W        W 1455  12.124   2.840  14.758
37523W        W 1456  19.172  15.637   4.605
37524W        W 1457   7.206  36.534   4.812
37525W        W 1458  17.610   3.891  11.038
37526W        W 1459   0.873  16.652  12.452
37527W        W 1460  42.466  41.409  13.854
37528W        W 1461  35.432  33.526  12.435
37529W        W 1462  20.257  38.405  14.758
37530W        W 1463   6.685   1.288   2.698
37531W        W 1464  27.002  33.603   0.931
37532W        W 1465  44.933   3.813  14.948
37533W        W 1466  21.168  12.670  11.591
37534W        W 1467  44.386  29.987  13.061
37535W        W 1468   8.302  29.528  14.023
37536W        W 1469   0.282   7.256   4.282
37537W        W 1470  16.277  12.755   5.142
37538W        W 1471  40.875  20.033  10.985
37539W        W 1472  33.463  10.354  10.517
37540W        W 1473   5.220  19.770   2.359
37541W        W 1474   0.261  34.901  14.398
37542W        W 1475   4.389  41.928   1.323
37543W        W 1476  35.420   1.359  10.457
37544W        W 1477  22.573  36.561  13.336
37545W        W 1478  38.532  37.913   0.412
37546W        W 1479   9.239  32.044   3.282
37547W        W 1480  29.073  21.212   2.313
37548W        W 1481  18.219  14.634   4.233
37549W        W 1482  19.642  41.476   0.833
37550W        W 1483  39.934  37.489  13.899
37551W        W 1484  12.155  33.931   1.424
37552W        W 1485   6.248  40.495   5.245
37553W        W 1486   5.218  31.568  14.976
37554W        W 1487   4.299  20.254   4.172
37555W        W 1488  12.275   6.853  14.495
37556W        W 1489  15.268  12.625  12.062
37557W        W 1490  25.138  25.650  13.802
37558W        W 1491  18.096  27.565   3.174
37559W        W 1492  44.387   7.823  13.362
37560W        W 1493   0.854   4.379  11.981
37561W        W 1494  28.462   1.482  11.435
37562W        W 1495  37.430  38.069  12.848
37563W        W 1496  39.940  25.163  12.357
37564W        W 1497  31.472  34.056   1.432
37565W        W 1498  12.804  41.338   0.872
37566W        W 1499  11.851  42.784  13.320
37567W        W 1500   9.834   5.309  10.924
37568W        W 1501  30.060  31.897   4.638
37569W        W 1502  26.049  11.782  10.005
37570W        W 1503   5.204  32.127  13.344
37571W        W 1504  11.191   0.832   2.876
37572W        W 1505  20.258  19.112  13.063
37573W        W 1506  20.131  11.687  12.824
37574W        W 1507  13.274  30.510  13.986
37575W        W 1508  17.613  44.411  13.508
37576W        W 1509   3.353  29.595   1.434
37577W        W 1510  17.689  23.035  12.376
37578W        W 1511  27.457  25.207   4.135
37579W        W 1512  10.800   0.919   4.767
37580W        W 1513  18.705  21.667   4.824
37581W        W 1514  44.418  39.459   4.123
37582W        W 1515   1.735  33.396   4.632
37583W        W 1516   1.837   2.268   4.785
37584W        W 1517  34.000  25.484   3.743
37585W        W 1518  26.601  13.601   4.277
37586W        W 1519  38.030  32.491  12.939
37587W        W 1520   6.384   7.708  14.509
37588W        W 1521   7.853  44.276   4.203
37589W        W 1522  26.020   7.248  13.330
37590W        W 1523  29.941  36.918  10.406
37591W        W 1524   9.756  21.128   3.725
37592W        W 1525  31.554  13.759  11.103
37593W        W 1526  30.973   7.319   4.299
37594W        W 1527  22.169  20.050   3.239
37595W        W 1528  29.475  17.794  13.946
37596W        W 1529   5.310   8.897   4.313
37597W        W 1530  30.085  27.615  12.500
37598W        W 1531  31.901  27.986   2.676
37599W        W 1532  28.590  14.309   4.835
37600W        W 1533  39.967   7.833  13.810
37601W        W 1534   4.738  11.309  14.435
37602W        W 1535  26.195  24.982  13.533
37603W        W 1536  41.003  18.694  14.340
37604W        W 1537  23.046  37.986   4.806
37605W        W 1538   6.797   0.485  14.766
37606W        W 1539  26.027   0.488  13.806
37607W        W 1540  12.668  29.954   4.650
37608W        W 1541  19.203  25.997  10.425
37609W        W 1542  20.107  30.020   4.341
37610W        W 1543  36.466  35.420  12.408
37611W        W 1544   9.166  38.442   2.861
37612W        W 1545  11.319  43.313  13.839
37613W        W 1546  34.095  37.903   1.702
37614W        W 1547  18.095   4.934  12.093
37615W        W 1548  16.157  10.219   2.259
37616W        W 1549  38.890  40.485   1.280
37617W        W 1550  29.668  37.831   3.316
37618W        W 1551   3.458  12.358   2.381
37619W        W 1552  29.612   1.412  14.773
37620W        W 1553   6.771  44.803  11.476
37621W        W 1554   6.875  13.775   0.924
37622W        W 1555  27.469  32.957  11.392
37623W        W 1556  14.609  14.134  11.121
37624W        W 1557  30.954  33.879  14.404
37625W        W 1558  32.530   8.728  12.840
37626W        W 1559   6.410  33.438  13.332
37627W        W 1560  18.678  37.990  11.411
37628W        W 1561  43.366  35.037   5.214
37629W        W 1562  32.123  34.919  11.481
37630W        W 1563  34.478   9.168   4.785
37631W        W 1564  14.818  14.143   4.757
37632W        W 1565  16.078  40.504  11.001
37633W        W 1566  25.993  40.317   3.812
37634W        W 1567  27.176  41.798   2.360
37635W        W 1568  39.491   5.352  10.438
37636W        W 1569  29.565  29.592   4.198
37637W        W 1570  28.966  10.292   4.346
37638W        W 1571  27.948  13.767  13.978
37639W        W 1572  15.200  25.157  11.391
37640W        W 1573  41.849  22.064   0.289
37641W        W 1574  11.765  14.263   5.138
37642W        W 1575   1.374  33.083  10.436
37643W        W 1576  25.151  15.170   4.720
37644W        W 1577  15.266  38.959  10.076
37645W        W 1578  19.110  24.061   4.299
37646W        W 1579  24.215  39.401  14.810
37647W        W 1580  36.009  19.065   1.319
37648W        W 1581   7.195  37.490   9.931
37649W        W 1582   0.250  36.480  13.315
37650W        W 1583  32.886  14.291  12.376
37651W        W 1584  27.130   8.889  10.042
37652W        W 1585   3.337   9.708   2.200
37653W        W 1586  36.969   5.387   3.830
37654W        W 1587  25.644  44.965  13.322
37655W        W 1588  33.477  26.079  13.441
37656W        W 1589  30.088  11.307   1.420
37657W        W 1590  17.192   5.919  12.348
37658W        W 1591  14.699  29.463  14.313
37659W        W 1592  40.043  36.842  13.977
37660W        W 1593  13.351  12.692   1.379
37661W        W 1594  21.129  17.080   0.882
37662W        W 1595  11.630  31.524   1.291
37663W        W 1596   1.440   9.373   3.301
37664W        W 1597   3.405   1.927   2.829
37665W        W 1598  44.358  22.182  11.110
37666W        W 1599  22.007  11.836  13.995
37667W        W 1600  10.162   5.823   3.310
37668W        W 1601  22.693  33.890  12.504
37669W        W 1602  35.974   8.293   0.373
37670W        W 1603  44.315   3.313   0.824
37671W        W 1604  33.431  41.899   3.263
37672W        W 1605  11.762  41.387   0.348
37673W        W 1606   9.182  27.980   2.411
37674W        W 1607  29.083  18.663   0.334
37675W        W 1608  39.969  10.229   1.789
37676W        W 1609   2.872  18.251   2.195
37677W        W 1610  30.138  21.757  14.865
37678W        W 1611  15.302  20.648  11.408
37679W        W 1612   2.321  32.012  11.939
37680W        W 1613   0.818  44.924   2.661
37681W        W 1614  37.005  31.091  11.958
37682W        W 1615   8.847  37.352   3.293
37683W        W 1616  44.868  18.588   4.729
37684W        W 1617  18.065  11.705  14.996
37685W        W 1618  12.268   7.326   3.711
37686W        W 1619   0.899  31.154   4.709
37687W        W 1620  25.092  42.814  13.515
37688W        W 1621  41.946  10.742   0.906
37689W        W 1622  41.348  16.210   4.345
37690W        W 1623  12.294  15.812  14.847
37691W        W 1624  43.009  34.570  13.382
37692W        W 1625   1.291  35.480   0.418
37693W        W 1626  36.016   3.330   4.780
37694W        W 1627  40.496  37.937  12.556
37695W        W 1628  42.427   4.798  10.998
37696W        W 1629  24.599  31.490   1.345
37697W        W 1630  14.135  24.013   0.317
37698W        W 1631   0.772  38.368  12.898
37699W        W 1632  34.058  11.830  11.107
37700W        W 1633  36.460  23.201   0.807
37701W        W 1634  39.483   3.399   1.222
37702W        W 1635  26.153  30.079   1.860
37703W        W 1636   4.242  23.695   4.330
37704W        W 1637  28.542  13.331  12.489
37705W        W 1638  40.386  19.694  11.501
37706W        W 1639  16.624  33.507  11.943
37707W        W 1640  11.774  44.261   3.709
37708W        W 1641  21.694  28.057  13.803
37709W        W 1642   4.899  19.653   4.642
37710W        W 1643  39.542   3.917  13.458
37711W        W 1644  36.478  21.730  11.423
37712W        W 1645   1.885   4.305  14.487
37713W        W 1646  21.570  25.557   3.761
37714W        W 1647   1.304  43.306   4.173
37715W        W 1648  43.952   8.775  10.535
37716W        W 1649  14.708  39.879   0.895
37717W        W 1650   2.798  16.189  10.479
37718W        W 1651  24.525   0.833   0.923
37719W        W 1652  35.977  13.272   0.287
37720W        W 1653  37.564  20.140   0.332
37721W        W 1654  32.979  41.533   1.410
37722W        W 1655  44.938  23.196  11.903
37723W        W 1656  24.152  31.583   4.660
37724W        W 1657  16.245   2.848   4.160
37725W        W 1658   4.234   0.464  11.461
37726W        W 1659   6.399   0.745   3.175
37727W        W 1660  21.096  33.051  13.420
37728W        W 1661  18.748   0.776  11.478
37729W        W 1662  21.753  16.664  12.557
37730W        W 1663  28.519   8.277   2.780
37731W        W 1664  28.460   5.864  14.001
37732W        W 1665  12.345  31.447  12.948
37733W        W 1666  15.118  40.972  11.994
37734W        W 1667  22.726  24.610   2.311
37735W        W 1668   7.390  35.530   3.387
37736W        W 1669   4.858  34.007   1.262
37737W        W 1670   8.249   2.818   3.244
37738W        W 1671   5.319   1.244   4.618
37739W        W 1672  16.598   7.243  11.378
37740W        W 1673  10.151  35.509   4.292
37741W        W 1674  33.522  24.041  11.123
37742W        W 1675   7.175  31.557  14.866
37743W        W 1676  40.436  24.723  11.556
37744W        W 1677  38.962   1.767  10.600
37745W        W 1678  40.338  34.972   1.895
37746W        W 1679  30.028  22.745  14.927
37747W        W 1680  21.029  41.887  12.477
37748W        W 1681  32.456  18.632   1.764
37749W        W 1682  18.664   9.742  14.468
37750W        W 1683  29.987  16.314   2.776
37751W        W 1684  31.033  26.688   0.732
37752W        W 1685  17.607  25.019   4.693
37753W        W 1686   8.824  20.054  13.917
37754W        W 1687   0.247  40.446  11.376
37755W        W 1688  29.014  19.563  14.359
37756W        W 1689   8.210  37.364  13.993
37757W        W 1690  42.016  37.469   2.324
37758W        W 1691  24.131  34.019  11.025
37759W        W 1692  11.156  10.327  13.431
37760W        W 1693  10.793   1.396   1.744
37761W        W 1694  32.508   4.810   0.912
37762W        W 1695   9.183   7.719  10.419
37763W        W 1696  30.573   2.900  10.579
37764W        W 1697  29.964  16.075  13.869
37765W        W 1698  43.861  43.912   1.234
37766W        W 1699  21.207  36.011  14.429
37767W        W 1700  42.381  20.763  13.949
37768W        W 1701  12.135   8.702  10.590
37769W        W 1702  27.145  28.537   3.243
37770W        W 1703   2.256   3.901   4.713
37771W        W 1704  12.760  14.319   3.695
37772W        W 1705   3.360   3.934   1.750
37773W        W 1706  41.813  28.474  10.942
37774W        W 1707  37.937  11.322  12.464
37775W        W 1708  18.250  38.407   0.394
37776W        W 1709  12.289  17.647  14.876
37777W        W 1710  33.022  28.110  14.835
37778W        W 1711  44.961  39.505  11.983
37779W        W 1712   5.332   2.724   5.103
37780W        W 1713   7.357   4.450   2.682
37781W        W 1714   3.338  31.031   5.242
37782W        W 1715  22.154  34.025  12.901
37783W        W 1716  16.298   0.862  10.593
37784W        W 1717  39.026  41.961   2.714
37785W        W 1718  20.579  30.042  12.405
37786W        W 1719   9.316   5.866   3.707
37787W        W 1720  42.816  30.551  12.945
37788W        W 1721  44.493  20.554   1.853
37789W        W 1722  37.467  11.317   4.609
37790W        W 1723   7.733   2.378   4.802
37791W        W 1724  28.620  21.235   3.808
37792W        W 1725  28.940   3.335  14.878
37793W        W 1726  37.452   7.254  10.505
37794W        W 1727  38.469  11.675   1.362
37795W        W 1728  16.795  36.476   1.883
37796W        W 1729   2.724   4.235  11.923
37797W        W 1730  13.789  38.360  11.409
37798W        W 1731   9.149  26.970  13.317
37799W        W 1732  13.151  37.508  11.106
37800W        W 1733  25.105  21.650   2.697
37801W        W 1734  30.933   4.249   2.369
37802W        W 1735  29.131   8.171   1.270
37803W        W 1736   5.782  25.506   1.860
37804W        W 1737  31.897  12.721   4.672
37805W        W 1738  34.382  16.089  10.623
37806W        W 1739   9.823  42.408  14.929
37807W        W 1740   3.429  32.415  14.826
37808W        W 1741  30.912  20.639  12.917
37809W        W 1742   9.324  13.285   3.252
37810W        W 1743  34.046   1.307  13.790
37811W        W 1744  43.380   3.332  10.920
37812W        W 1745  39.866  11.132  14.333
37813W        W 1746  34.395  36.525  11.875
37814W        W 1747  10.284  30.958  10.441
37815W        W 1748   2.309  12.124  14.365
37816W        W 1749  16.284   5.920  14.489
37817W        W 1750   7.221  19.047   0.437
37818W        W 1751  26.061  39.320   0.444
37819W        W 1752  43.324  27.544   3.757
37820W        W 1753   4.355  34.026  10.466
37821W        W 1754  20.656  23.702   4.179
37822W        W 1755  19.074   6.748   3.301
37823W        W 1756   3.251  27.190   4.176
37824W        W 1757  24.095  25.963   2.321
37825W        W 1758   6.756  30.109  10.920
37826W        W 1759  17.062   2.778   2.365
37827W        W 1760   8.668  10.725  12.475
37828W        W 1761   9.789  38.519   2.229
37829W        W 1762  15.127  30.114  12.973
37830W        W 1763  11.150  26.981   0.823
37831W        W 1764  31.991  43.900   2.331
37832W        W 1765  20.610  23.720   4.813
37833W        W 1766  39.051  31.903  11.529
37834W        W 1767  26.076  16.698   1.893
37835W        W 1768  20.580  32.938  14.436
37836W        W 1769  11.653  26.969   4.141
37837W        W 1770  42.396   4.727   4.219
37838W        W 1771  17.212  39.928   5.662
37839W        W 1772   8.312  15.211   4.837
37840W        W 1773  15.668  25.493  11.864
37841W        W 1774  32.604  36.456  14.310
37842W        W 1775  23.717  38.482   2.385
37843W        W 1776  25.104  25.126   3.157
37844W        W 1777   6.741  26.666  10.137
37845W        W 1778  34.964  30.638   1.443
37846W        W 1779  13.603  28.441  14.275
37847W        W 1780  42.417  44.844  10.970
37848W        W 1781  16.078   5.744  13.025
37849W        W 1782  33.562  23.559  12.464
37850W        W 1783   1.785   9.716  11.527
37851W        W 1784  29.583  14.214  12.868
37852W        W 1785  43.510  39.381  11.409
37853W        W 1786  41.847  27.990  13.311
37854W        W 1787  26.622   4.718   1.813
37855W        W 1788  16.251  23.051   3.792
37856W        W 1789   3.433  32.408  11.084
37857W        W 1790  21.197  36.433  12.858
37858W        W 1791  12.841   3.857   0.936
37859W        W 1792  42.789  13.845   0.867
37860W        W 1793  17.700  28.662  11.467
37861W        W 1794   6.428  13.264  10.454
37862W        W 1795  33.460  24.686   3.823
37863W        W 1796  15.668  12.759  11.115
37864W        W 1797  26.665  42.868   9.983
37865W        W 1798   6.294   6.210  11.945
37866W        W 1799   2.347   7.266  10.103
37867W        W 1800  29.585   3.944  11.928
37868W        W 1801  19.569   8.818  12.089
37869W        W 1802   9.785  26.588  10.567
37870W        W 1803  23.189  32.517  14.972
37871W        W 1804  17.647  38.016  14.770
37872W        W 1805  26.032  10.731  10.942
37873W        W 1806   1.734  13.281   5.104
37874W        W 1807  34.069  23.725  10.896
37875W        W 1808  39.542  38.499   4.167
37876W        W 1809   2.413  18.292   4.231
37877W        W 1810  30.028  17.231  13.024
37878W        W 1811  37.835  29.481  12.472
37879W        W 1812  39.472  10.156   3.275
37880W        W 1813  39.825  15.732  14.331
37881W        W 1814  37.464   1.874   2.687
37882W        W 1815  12.333  34.611  11.962
37883W        W 1816  21.550  30.568   1.931
37884W        W 1817  20.647  40.933   0.312
37885W        W 1818  21.180  42.426   1.879
37886W        W 1819  28.936  29.019  13.338
37887W        W 1820  27.548  27.484   3.666
37888W        W 1821  41.365  10.287  13.057
37889W        W 1822   6.774   3.295   0.849
37890W        W 1823  19.217  13.335  12.357
37891W        W 1824  43.360  18.166  13.388
37892W        W 1825  27.556  34.886   2.841
37893W        W 1826  14.295   3.941  12.858
37894W        W 1827  20.553   8.861  13.880
37895W        W 1828   2.266  41.437  13.998
37896W        W 1829  44.501  13.335  12.085
37897W        W 1830   1.330  17.219   2.317
37898W        W 1831  23.986   7.378  11.094
37899W        W 1832  20.083   5.340  12.430
37900W        W 1833  32.892  10.797   4.608
37901W        W 1834  18.672  25.124   4.295
37902W        W 1835  11.173  12.727  12.048
37903W        W 1836  44.267   0.793  11.901
37904W        W 1837  31.980  22.060   1.364
37905W        W 1838  15.634  29.500  12.828
37906W        W 1839  18.122   9.797  13.916
37907W        W 1840  14.641  16.093   2.288
37908W        W 1841  20.187  32.420   2.737
37909W        W 1842   8.831  35.959   3.332
37910W        W 1843  17.610  36.424  12.496
37911W        W 1844  29.073  26.521  12.908
37912W        W 1845   4.775  32.518   4.773
37913W        W 1846  11.630   1.380  13.317
37914W        W 1847  35.957  14.680   0.381
37915W        W 1848  39.538  12.735  10.587
37916W        W 1849   5.769  21.215  10.004
37917W        W 1850  13.236   9.324   1.253
37918W        W 1851  12.625   0.395   4.704
37919W        W 1852  18.695  31.500   1.431
37920W        W 1853  30.053  20.156   4.715
37921W        W 1854  34.979  44.915   0.966
37922W        W 1855  16.697  12.183  11.537
37923W        W 1856  31.581   8.223   2.253
37924W        W 1857   4.844  37.910   0.447
37925W        W 1858  34.585   5.703  10.516
37926W        W 1859   8.730  28.567   4.769
37927W        W 1860   0.749  23.068   4.318
37928W        W 1861  29.176  42.514   1.250
37929W        W 1862  42.030  41.413  11.055
37930W        W 1863  16.658  32.634   0.466
37931W        W 1864  22.576  33.587  13.846
37932W        W 1865  17.699   9.375   0.432
37933W        W 1866  15.229  42.357   4.807
37934W        W 1867  43.890  30.559  12.848
37935W        W 1868  44.307  31.137   4.302
37936W        W 1869  43.363  38.557   1.229
37937W        W 1870   4.862  34.951   1.891
37938W        W 1871   8.804  27.177  14.514
37939W        W 1872  19.249  13.214  11.129
37940W        W 1873   0.885  16.779  14.980
37941W        W 1874  25.003  13.331  12.524
37942W        W 1875  42.932   4.780   4.782
37943W        W 1876  13.697  39.380  14.989
37944W        W 1877  37.942  43.805  14.846
37945W        W 1878  31.537  43.966   0.810
37946W        W 1879  41.936  18.633  11.037
37947W        W 1880  42.806   5.767  13.897
37948W        W 1881   8.296  21.740   3.816
37949W        W 1882  18.645  28.615   2.372
37950W        W 1883  39.827   3.831   3.240
37951W        W 1884  28.983  10.683  14.964
37952W        W 1885  36.457  44.461   1.361
37953W        W 1886   9.208  41.491  14.015
37954W        W 1887  19.052  32.142  14.401
37955W        W 1888  25.137  37.509  11.877
37956W        W 1889  40.870  25.601   4.763
37957W        W 1890  36.401   2.853   1.913
37958W        W 1891   1.379  35.402  12.882
37959W        W 1892  17.701   5.228  13.839
37960W        W 1893   3.283  43.464  13.860
37961W        W 1894   8.236  33.533  14.912
37962W        W 1895   2.910  26.179   3.291
37963W        W 1896  36.437  21.731  10.906
37964W        W 1897  33.462  24.163   2.275
37965W        W 1898  44.991  34.539  11.894
37966W        W 1899  26.142  28.563  10.529
37967W        W 1900  36.067  22.584  11.480
37968W        W 1901  27.140  17.207   4.256
37969W        W 1902  24.017  31.489   3.196
37970W        W 1903   4.759  28.453  10.921
37971W        W 1904  26.640  26.473   0.843
37972W        W 1905  13.777  31.137  10.433
37973W        W 1906  24.643   5.290  11.553
37974W        W 1907  44.320  26.579   4.614
37975W        W 1908   6.870  17.153   3.814
37976W        W 1909   5.822  27.153   3.233
37977W        W 1910   7.347  37.517   0.452
37978W        W 1911  18.788   5.409  12.978
37979W        W 1912  37.857  42.482  12.997
37980W        W 1913  30.081  10.709  11.086
37981W        W 1914  28.973  34.415   4.226
37982W        W 1915  11.253   6.202  12.999
37983W        W 1916  21.226   9.248   1.720
37984W        W 1917  24.049  21.122  14.388
37985W        W 1918   8.267  21.730   0.253
37986W        W 1919   1.777  30.496   4.163
37987W        W 1920  35.500  29.070   0.442
37988W        W 1921  10.679  35.436   2.752
37989W        W 1922  41.017   2.743   2.795
37990W        W 1923  44.807  39.419   0.937
37991W        W 1924  16.306  37.012  14.322
37992W        W 1925   4.340  44.447  12.341
37993W        W 1926   7.387  12.715  11.608
37994W        W 1927  22.584   1.809  13.858
37995W        W 1928  32.620  28.086  14.772
37996W        W 1929  20.187  22.590   1.395
37997W        W 1930  36.069  29.506   0.412
37998W        W 1931   1.390  21.528  13.017
37999W        W 1932  39.911  41.356   3.800
38000W        W 1933  25.076  32.100  14.777
38001W        W 1934  29.495  13.133   3.808
38002W        W 1935  27.077  24.018  14.515
38003W        W 1936  35.475  29.978   0.825
38004W        W 1937  39.982  36.519   9.499
38005W        W 1938  32.914  37.445  12.492
38006W        W 1939  35.446   2.942   0.815
38007W        W 1940  31.927  41.020  10.952
38008W        W 1941   4.355  33.091   0.288
38009W        W 1942  19.704  12.229  13.417
38010W        W 1943  39.444  44.473  10.985
38011W        W 1944  32.612   1.771   3.724
38012W        W 1945  28.609  27.102  10.510
38013W        W 1946  43.908  12.644  11.945
38014W        W 1947  18.588  32.949   3.671
38015W        W 1948  25.674   4.447   3.227
38016W        W 1949  36.901  30.524  12.515
38017W        W 1950  19.241  15.772  11.877
38018W        W 1951  41.405   7.171  13.841
38019W        W 1952  22.714  19.581  14.900
38020W        W 1953   9.175  36.922  14.976
38021W        W 1954  41.946  31.964   3.780
38022W        W 1955  17.112  22.228   0.951
38023W        W 1956  12.786   5.847  11.094
38024W        W 1957  10.268  32.625   1.767
38025W        W 1958  26.528  44.825   3.745
38026W        W 1959  28.627  20.623  13.021
38027W        W 1960   6.194  32.052   5.151
38028W        W 1961  43.381  39.009   3.368
38029W        W 1962  22.505   9.195  13.379
38030W        W 1963  44.983  12.828  10.577
38031W        W 1964  28.050  40.040  13.061
38032W        W 1965  16.609  28.540  11.909
38033W        W 1966  15.744  23.594   1.428
38034W        W 1967  16.730   5.902   3.839
38035W        W 1968  15.187  41.394  14.297
38036W        W 1969  17.691  41.970   3.865
38037W        W 1970  19.239   5.419  14.896
38038W        W 1971  25.579  27.611   3.740
38039W        W 1972   2.419  10.290   2.835
38040W        W 1973   6.826  26.554   0.765
38041W        W 1974   8.680  32.614   4.765
38042W        W 1975  29.491  26.003   0.476
38043W        W 1976  33.035  21.023   0.325
38044W        W 1977   0.930  19.731   2.787
38045W        W 1978   1.973  34.434  13.357
38046W        W 1979  16.259  44.804  10.415
38047W        W 1980  41.910  34.008   2.825
38048W        W 1981  37.048  33.408  12.062
38049W        W 1982  26.115  33.524   4.182
38050W        W 1983  17.129  12.620   3.854
38051W        W 1984  33.470   4.897  13.006
38052W        W 1985  32.478  28.589   4.687
38053W        W 1986  23.073   8.831  13.369
38054W        W 1987  37.446  37.397   0.858
38055W        W 1988  21.161  39.327  12.945
38056W        W 1989  23.200  27.567  10.998
38057W        W 1990  18.701  20.141   4.211
38058W        W 1991  13.199  43.283  13.852
38059W        W 1992   3.768  20.710   0.865
38060W        W 1993  12.712  39.993  14.335
38061W        W 1994  32.403  20.060  11.552
38062W        W 1995  14.201  41.851   2.790
38063W        W 1996  37.439  37.083  13.972
38064W        W 1997  14.108   8.783   4.788
38065W        W 1998  14.217  40.490   2.305
38066W        W 1999   2.967  24.718  14.471
38067W        W 2000  31.111  23.144   3.720
38068W        W 2001  11.163  30.510  12.828
38069W        W 2002  35.948  26.571   3.173
38070W        W 2003  31.009  42.325  11.989
38071W        W 2004  42.920  30.116   2.740
38072W        W 2005   9.166  31.136   4.665
38073W        W 2006  17.795  39.382   4.692
38074W        W 2007  26.127   9.804   4.228
38075W        W 2008  28.090  22.730  11.960
38076W        W 2009  15.780  34.458   3.343
38077W        W 2010  18.732   4.312   3.375
38078W        W 2011  27.991   4.782   2.738
38079W        W 2012  32.090  26.094  13.802
38080W        W 2013  35.412  19.761  13.919
38081W        W 2014   8.733  37.868  11.073
38082W        W 2015  20.741  12.170  10.625
38083W        W 2016  13.681  21.516  11.125
38084W        W 2017  25.164  18.237   3.160
38085W        W 2018  15.124  29.174  11.505
38086W        W 2019   0.869   0.303  10.561
38087W        W 2020   7.229  12.270  14.809
38088W        W 2021  39.334  12.201   3.295
38089W        W 2022  27.999  26.526   3.276
38090W        W 2023   6.341  39.982  10.407
38091W        W 2024  23.529  43.946   2.865
38092W        W 2025  39.831  31.918   1.394
38093W        W 2026  24.217  17.290   3.325
38094W        W 2027  17.597  12.253  12.843
38095W        W 2028  17.619  20.195   4.131
38096W        W 2029  32.951  32.992   2.871
38097W        W 2030  31.006  32.906  10.577
38098W        W 2031  37.021  42.444  12.384
38099W        W 2032  27.981  28.048   4.635
38100W        W 2033  29.480  14.122   0.275
38101W        W 2034  38.051  20.215   4.244
38102W        W 2035  25.990   7.697  12.571
38103W        W 2036   7.744  20.760  13.902
38104W        W 2037  19.644   7.725  11.522
38105W        W 2038   1.335  11.264  10.625
38106W        W 2039   9.747  27.623   2.780
38107W        W 2040  24.224   9.864   4.710
38108W        W 2041  16.769  43.454  13.953
38109W        W 2042  20.031  15.793  14.359
38110W        W 2043   7.806  41.996  10.529
38111W        W 2044  43.372  22.166  12.018
38112W        W 2045  12.634  15.282  14.983
38113W        W 2046   5.850  29.566   2.888
38114W        W 2047  43.991  27.971   1.832
38115W        W 2048  16.177  41.354  10.974
38116W        W 2049   7.820  18.142   2.302
38117W        W 2050   3.320  18.081  14.488
38118W        W 2051  21.709  29.042   0.403
38119W        W 2052  28.507  10.745   2.239
38120W        W 2053  43.906  20.056   3.254
38121W        W 2054  11.734  15.276   1.350
38122W        W 2055  24.649   0.904   4.730
38123W        W 2056  28.111   8.363   2.347
38124W        W 2057  39.812  40.403   3.767
38125W        W 2058  18.187  15.243  11.496
38126W        W 2059  23.988   2.948   0.785
38127W        W 2060  43.424  38.908   4.789
38128W        W 2061  42.016  41.872  12.488
38129W        W 2062  41.292  10.287   0.864
38130W        W 2063  19.103  30.162   1.876
38131W        W 2064   5.736  16.075  12.010
38132W        W 2065  24.712  12.251  14.929
38133W        W 2066  33.514  20.615   5.100
38134W        W 2067   0.374  21.579   2.801
38135W        W 2068  25.115  17.591   0.373
38136W        W 2069   3.393  17.616   1.920
38137W        W 2070  35.407  35.854   3.193
38138W        W 2071   2.759  24.034  11.553
38139W        W 2072  11.343  15.611  11.111
38140W        W 2073  34.455  19.144   0.338
38141W        W 2074  17.732   2.317  14.287
38142W        W 2075  35.444  16.221  13.439
38143W        W 2076  37.440   2.436   1.768
38144W        W 2077  30.986  33.433  14.778
38145W        W 2078  35.506  35.554  14.378
38146W        W 2079  26.569  25.116   1.815
38147W        W 2080   6.885  28.070   4.325
38148W        W 2081  39.533  20.670   3.300
38149W        W 2082   8.674   2.285   5.179
38150W        W 2083  19.667   6.264  13.030
38151W        W 2084   7.802  28.509   4.228
38152W        W 2085  38.397  44.432  12.909
38153W        W 2086  16.317  44.370   1.439
38154W        W 2087   9.232  13.268  13.394
38155W        W 2088  35.020  18.706   1.431
38156W        W 2089  13.119  24.712  13.469
38157W        W 2090  27.146  24.032   4.243
38158W        W 2091   8.387  28.058  10.974
38159W        W 2092  19.777   9.318  11.053
38160W        W 2093  23.109  23.148  12.564
38161W        W 2094  43.973   5.294  11.592
38162W        W 2095  24.581  36.378  10.899
38163W        W 2096  30.163  39.045   2.235
38164W        W 2097   5.333  34.864  11.117
38165W        W 2098  17.736  25.604  13.480
38166W        W 2099  16.085  13.633   1.393
38167W        W 2100  14.096  29.099  14.970
38168W        W 2101   7.872  18.645  10.421
38169W        W 2102  14.190  36.556   4.305
38170W        W 2103  33.454  12.339  14.929
38171W        W 2104   6.417  43.370  11.454
38172W        W 2105  43.445   9.705  13.360
38173W        W 2106  12.813  37.035   1.323
38174W        W 2107  29.504  29.636   2.663
38175W        W 2108  35.450  20.081  13.842
38176W        W 2109  11.764   9.177   1.297
38177W        W 2110  12.661   8.341   3.853
38178W        W 2111   7.340  33.554   1.702
38179W        W 2112  41.863  14.153   0.293
38180W        W 2113  19.047  32.904  10.575
38181W        W 2114  23.719   0.316  13.403
38182W        W 2115  11.196  38.827  12.358
38183W        W 2116  25.088  42.306   1.381
38184W        W 2117   0.427   0.310   2.749
38185W        W 2118  24.524  32.062   1.343
38186W        W 2119  38.364  29.516   4.339
38187W        W 2120  34.901  39.540  10.610
38188W        W 2121  12.140   6.922   3.644
38189W        W 2122  12.188   4.763  12.015
38190W        W 2123  27.529  41.446  13.808
38191W        W 2124  40.044   3.322  11.440
38192W        W 2125   2.330  31.640  14.893
38193W        W 2126  40.804  37.345  13.485
38194W        W 2127  15.793   9.774  13.806
38195W        W 2128   9.729  28.999   0.381
38196W        W 2129   8.756   8.716   2.840
38197W        W 2130   0.455  28.002  13.435
38198W        W 2131  15.717   0.305  12.365
38199W        W 2132  16.211  30.582  12.087
38200W        W 2133  37.449  29.964   3.362
38201W        W 2134   1.738  21.174   3.762
38202W        W 2135  32.393  36.385  11.926
38203W        W 2136   4.206   5.213   0.409
38204W        W 2137  31.431  13.191   3.702
38205W        W 2138  37.855  26.039  10.634
38206W        W 2139  12.247  22.678   4.701
38207W        W 2140  10.687  33.515   4.804
38208W        W 2141  44.858  21.078  13.354
38209W        W 2142   7.379  16.112   3.315
38210W        W 2143   7.860   3.255   4.233
38211W        W 2144  22.564  37.376  10.485
38212W        W 2145  16.782  34.575  13.920
38213W        W 2146  21.236   8.691   2.844
38214W        W 2147  36.939  27.670   0.821
38215W        W 2148  39.912   5.210   1.764
38216W        W 2149  32.039  34.614  10.087
38217W        W 2150  13.791  32.490  14.340
38218W        W 2151  24.569  33.954  11.491
38219W        W 2152   2.906  32.529  13.519
38220W        W 2153   2.845  16.314  12.824
38221W        W 2154  25.017   2.375  14.905
38222W        W 2155  26.162  31.968   4.280
38223W        W 2156  23.563  33.098  14.448
38224W        W 2157  36.538  21.752   2.683
38225W        W 2158  44.954  14.608   2.669
38226W        W 2159   3.897   6.256   4.726
38227W        W 2160   8.787  11.179   1.426
38228W        W 2161  31.517  12.622   0.330
38229W        W 2162  38.997  13.185   1.720
38230W        W 2163  43.401   7.250  14.508
38231W        W 2164  32.482  13.842  14.402
38232W        W 2165  20.620  16.595   3.361
38233W        W 2166  44.272  20.635  14.771
38234W        W 2167  39.543  42.807  13.539
38235W        W 2168   6.813  19.052   4.618
38236W        W 2169  14.315  33.620   3.176
38237W        W 2170  28.476   3.458  10.901
38238W        W 2171  25.708  43.767   0.891
38239W        W 2172  38.898  43.487  13.817
38240W        W 2173  24.494   3.223   1.788
38241W        W 2174   4.794   5.212  14.330
38242W        W 2175  24.192   1.300  11.094
38243W        W 2176   0.885  35.497   2.324
38244W        W 2177  27.950   4.851   4.837
38245W        W 2178  20.043  39.488  12.995
38246W        W 2179  21.112  41.835   5.227
38247W        W 2180  15.793  17.759  11.071
38248W        W 2181  24.069   2.966  12.006
38249W        W 2182  22.127  37.444  14.304
38250W        W 2183  17.170  35.898  13.892
38251W        W 2184  22.525  26.112  13.318
38252W        W 2185   7.742  15.242   3.813
38253W        W 2186  15.155  12.152   1.915
38254W        W 2187   1.870   9.303   0.316
38255W        W 2188  34.420  32.060   3.350
38256W        W 2189  21.675  29.540   3.728
38257W        W 2190  17.188  25.033  14.939
38258W        W 2191   9.699  39.555  11.466
38259W        W 2192  12.819  27.676   3.267
38260W        W 2193  22.574  23.995  13.483
38261W        W 2194  23.502   2.777  12.473
38262W        W 2195   0.489  31.069   0.476
38263W        W 2196  41.421  14.595  13.372
38264W        W 2197   7.744  36.049  13.001
38265W        W 2198  17.286  10.264  12.858
38266W        W 2199  25.646  43.355  14.377
38267W        W 2200   9.277  15.652  10.537
38268W        W 2201  15.135  40.468  10.436
38269W        W 2202   2.277   6.778   2.378
38270W        W 2203   8.280  30.024   1.730
38271W        W 2204  20.695  43.783   0.926
38272W        W 2205  22.655   7.777  10.889
38273W        W 2206   4.275   8.738  10.423
38274W        W 2207   5.392  18.207   3.730
38275W        W 2208   8.402  26.981   4.246
38276W        W 2209  41.370  43.781  12.407
38277W        W 2210  34.887  19.118  14.425
38278W        W 2211  43.820  24.628   2.178
38279W        W 2212  41.315  30.574   4.698
38280W        W 2213  43.765  44.876  12.975
38281W        W 2214  28.582  28.532   1.891
38282W        W 2215  34.502  39.501  11.534
38283W        W 2216  39.456  41.959   3.327
38284W        W 2217   4.812  10.366  12.368
38285W        W 2218  40.832   6.774  11.879
38286W        W 2219  19.659  14.742  12.948
38287W        W 2220   6.750  42.776   2.278
38288W        W 2221  17.706   7.382   4.202
38289W        W 2222  24.607  19.535   4.736
38290W        W 2223  40.919   4.847   1.748
38291W        W 2224  23.214  33.987  13.451
38292W        W 2225  33.568   2.278   2.716
38293W        W 2226  19.256  35.438  14.788
38294W        W 2227   7.735  26.115   4.222
38295W        W 2228   9.153   2.286   4.335
38296W        W 2229  10.243  10.689  12.532
38297W        W 2230  28.605  16.743   4.141
38298W        W 2231  37.510  26.597   5.231
38299W        W 2232  10.220  11.821  11.112
38300W        W 2233  20.165  11.359  12.928
38301W        W 2234  26.639  11.762   5.132
38302W        W 2235   5.383  24.197  11.961
38303W        W 2236  28.026  19.548   3.341
38304W        W 2237  32.467  10.326  14.027
38305W        W 2238   1.257  27.141   3.690
38306W        W 2239  24.993   9.887  14.349
38307W        W 2240   1.306  30.158   3.362
38308W        W 2241  16.578  26.163   2.196
38309W        W 2242  14.699  42.487  13.527
38310W        W 2243  26.636   4.448  11.979
38311W        W 2244  21.034   1.444  11.068
38312W        W 2245  17.646  18.644   4.615
38313W        W 2246   5.807  23.118   2.840
38314W        W 2247   7.684   5.431   4.614
38315W        W 2248  15.803  12.712  10.018
38316W        W 2249  20.743  17.700   3.644
38317W        W 2250   8.224  26.149   3.741
38318W        W 2251  32.054  11.167   2.243
38319W        W 2252  39.967  31.644   2.869
38320W        W 2253  32.993  17.216   4.763
38321W        W 2254  16.136   9.700   4.249
38322W        W 2255  42.324  28.947  14.366
38323W        W 2256  38.057  19.215   3.226
38324W        W 2257  44.841  36.066  10.404
38325W        W 2258  29.627   7.880  14.887
38326W        W 2259   0.965  11.198   2.219
38327W        W 2260  26.978  21.103   5.220
38328W        W 2261  21.527  20.651  14.957
38329W        W 2262  13.310  22.690  10.994
38330W        W 2263  40.306  40.524  13.965
38331W        W 2264  11.133   8.722   4.766
38332W        W 2265  26.618  23.684   3.769
38333W        W 2266  35.544  16.167   2.723
38334W        W 2267  10.140  16.759   0.398
38335W        W 2268  32.924  29.136   1.849
38336W        W 2269   3.419   2.376   3.815
38337W        W 2270  40.825  32.571  13.972
38338W        W 2271  27.098  17.600  11.988
38339W        W 2272  19.243   1.300   1.305
38340W        W 2273  39.552  27.522  11.041
38341W        W 2274  24.178  23.607  11.028
38342W        W 2275  44.867  12.223  10.407
38343W        W 2276  11.827  34.882   1.924
38344W        W 2277  37.882  42.016  14.354
38345W        W 2278   1.862  42.815   1.880
38346W        W 2279  23.039  33.466  10.470
38347W        W 2280  41.965  44.007  10.623
38348W        W 2281   8.867  11.138  11.588
38349W        W 2282   5.426  13.626  10.909
38350W        W 2283  11.216  34.020  13.434
38351W        W 2284   7.883  41.431   4.745
38352W        W 2285  41.908  33.496   4.323
38353W        W 2286  41.522  31.411   0.448
38354W        W 2287  39.938  10.220   4.252
38355W        W 2288   4.355   2.468   3.382
38356W        W 2289  15.097  37.487  14.293
38357W        W 2290  26.624  18.665   0.873
38358W        W 2291  23.649  16.314   3.236
38359W        W 2292  36.483  30.084   4.833
38360W        W 2293  13.640  34.432  10.415
38361W        W 2294   3.797  18.154  13.498
38362W        W 2295   5.807  19.704   1.897
38363W        W 2296   3.749  36.547   4.777
38364W        W 2297   6.208  18.749  10.914
38365W        W 2298  12.629  41.956  11.877
38366W        W 2299  40.978  33.600  12.973
38367W        W 2300  10.293  38.446   4.313
38368W        W 2301  20.580  27.654   0.256
38369W        W 2302   0.923  15.803  11.891
38370W        W 2303  20.059  27.117  11.477
38371W        W 2304  13.622  26.019  10.475
38372W        W 2305  38.947   5.388  11.055
38373W        W 2306  44.502  17.278  10.051
38374W        W 2307  30.987  25.074  13.028
38375W        W 2308  24.120  25.024  14.914
38376W        W 2309  36.358  32.555  11.537
38377W        W 2310  12.678   6.385   9.474
38378W        W 2311  22.239  16.733  10.493
38379W        W 2312  29.492   9.808   4.707
38380W        W 2313   7.307  21.049  13.967
38381W        W 2314  34.492  38.398   3.803
38382W        W 2315  23.085  44.271   1.790
38383W        W 2316  31.916  15.679  11.927
38384W        W 2317  42.956  21.531  12.576
38385W        W 2318  20.708  28.022   5.749
38386W        W 2319  32.925  15.207   0.291
38387W        W 2320  38.903  41.036  10.446
38388W        W 2321  29.155   9.839  14.350
38389W        W 2322   9.206  21.557  14.299
38390W        W 2323  22.008  27.035  13.980
38391W        W 2324   6.770  12.185  10.482
38392W        W 2325   2.916  13.250   9.476
38393W        W 2326  34.428   7.212   4.314
38394W        W 2327  29.144  20.655   2.775
38395W        W 2328   5.228  43.953   2.346
38396W        W 2329  30.550  17.154   2.870
38397W        W 2330  37.535  21.653   0.318
38398W        W 2331  35.508  39.981   1.819
38399W        W 2332  15.747  42.323  11.478
38400W        W 2333   8.775  29.508   3.846
38401W        W 2334  30.965  17.295   4.206
38402W        W 2335  31.002  44.265   5.214
38403W        W 2336   0.764  42.321  13.047
38404W        W 2337  31.955  30.479   2.345
38405W        W 2338  24.559   5.721  11.553
38406W        W 2339   3.900  31.997  11.394
38407W        W 2340  33.933   8.676   0.329
38408W        W 2341  18.560  17.749   1.721
38409W        W 2342  25.555  26.553  13.999
38410W        W 2343  35.371  35.920   2.856
38411W        W 2344  23.689   9.670   9.641
38412W        W 2345  40.806  26.159   2.724
38413W        W 2346  40.956  35.894  14.408
38414W        W 2347   8.810   9.696   0.455
38415W        W 2348   9.800  42.428   0.810
38416W        W 2349  34.095  15.309  10.551
38417W        W 2350   9.195   7.840   3.795
38418W        W 2351  41.876  38.327  12.361
38419W        W 2352  26.683   9.371   1.445
38420W        W 2353  42.405  41.923   1.395
38421W        W 2354   9.337  24.638   3.252
38422W        W 2355  32.132  37.569  14.410
38423W        W 2356   6.300  12.658   0.953
38424W        W 2357  44.377  29.573   4.156
38425W        W 2358  24.070  17.716   2.686
38426W        W 2359   2.829  36.567   3.752
38427W        W 2360  17.072  32.025  11.561
38428W        W 2361  42.515   7.885   4.834
38429W        W 2362  36.579  17.187   0.867
38430W        W 2363  13.321  24.705   2.774
38431W        W 2364  43.849   2.299  13.005
38432W        W 2365  38.514  31.621   1.715
38433W        W 2366  19.167   0.796  11.129
38434W        W 2367   5.414   3.271  11.592
38435W        W 2368  18.276  25.522  12.096
38436W        W 2369  33.613  39.897  14.926
38437W        W 2370  17.703  39.399  11.581
38438W        W 2371   5.922  33.455  11.119
38439W        W 2372  43.989  40.408  10.911
38440W        W 2373  30.069   9.393   3.170
38441W        W 2374   4.363   9.681  12.406
38442W        W 2375  36.878  19.536   2.797
38443W        W 2376   1.822  36.880   4.623
38444W        W 2377  35.473  24.523  14.814
38445W        W 2378   9.211  10.352  11.599
38446W        W 2379  13.819  20.627  14.457
38447W        W 2380  35.015  31.131  10.932
38448W        W 2381  35.032  44.264   4.248
38449W        W 2382  37.977  16.672   0.421
38450W        W 2383  33.564  10.340   3.208
38451W        W 2384   6.316  29.670   0.938
38452W        W 2385  35.966   2.360   4.771
38453W        W 2386   7.881  24.631   1.909
38454W        W 2387  22.041  22.995  14.873
38455W        W 2388   8.730  33.083  14.793
38456W        W 2389  35.035   6.802  13.523
38457W        W 2390  28.992  44.813  10.944
38458W        W 2391  14.305  42.431  12.874
38459W        W 2392  14.180  34.944   2.301
38460W        W 2393  21.237  33.066  12.418
38461W        W 2394  23.596  19.088  11.954
38462W        W 2395  30.497  25.967  14.363
38463W        W 2396  29.017  28.566  11.943
38464W        W 2397  13.228  24.984  10.517
38465W        W 2398  28.017  11.207  10.633
38466W        W 2399  26.959  35.893  14.766
38467W        W 2400  26.053  15.142  13.912
38468W        W 2401   2.840  32.124   3.233
38469W        W 2402  14.794  21.576   0.766
38470W        W 2403  23.670  28.026   2.887
38471W        W 2404  26.533  23.144   2.803
38472W        W 2405   2.903  25.027   5.223
38473W        W 2406  22.085  28.064  10.888
38474W        W 2407  30.008  34.596  11.037
38475W        W 2408  44.439  23.003  13.919
38476W        W 2409  24.578  10.162   2.761
38477W        W 2410  17.076  33.463   3.205
38478W        W 2411  14.192  11.272   1.732
38479W        W 2412  12.277  24.007  10.636
38480W        W 2413   3.329  36.380   4.658
38481W        W 2414   1.342  38.350   3.768
38482W        W 2415  12.133   6.230   3.256
38483W        W 2416  18.252  14.287   3.850
38484W        W 2417  20.694  15.671   3.263
38485W        W 2418  24.712  32.618  11.021
38486W        W 2419  16.609  21.696  12.965
38487W        W 2420  38.480  19.729   2.866
38488W        W 2421  19.229  41.311  12.900
38489W        W 2422   9.870  22.521   0.791
38490W        W 2423   4.862  19.626   4.286
38491W        W 2424   4.940  30.044  12.413
38492W        W 2425  23.530  12.678  13.468
38493W        W 2426   1.358  41.811  10.994
38494W        W 2427  42.525  23.206  11.527
38495W        W 2428  40.833  44.416  12.015
38496W        W 2429  30.126  20.168  11.959
38497W        W 2430  31.108   8.774  14.782
38498W        W 2431  31.028  34.880   0.858
38499W        W 2432  37.450  43.012  13.998
38500W        W 2433  38.527  17.269   0.264
38501W        W 2434   9.835  42.492   3.387
38502W        W 2435  21.592   6.750  11.899
38503W        W 2436  39.357   7.697   4.351
38504W        W 2437  12.143  21.723  12.069
38505W        W 2438   4.222  30.934  11.915
38506W        W 2439   9.705   8.248   3.702
38507W        W 2440   0.892   3.806   3.720
38508W        W 2441  10.179  41.863   3.332
38509W        W 2442   6.191   8.711  11.432
38510W        W 2443  21.216   2.387   2.824
38511W        W 2444  23.116   3.914   1.758
38512W        W 2445   6.686  37.538   1.704
38513W        W 2446   6.844  16.143  12.937
38514W        W 2447   1.305  30.528  14.409
38515W        W 2448  14.654  15.679   3.830
38516W        W 2449   2.739  32.408   3.780
38517W        W 2450  34.919  35.446  10.504
38518W        W 2451   4.719  19.534   5.271
38519W        W 2452  31.151   6.719  14.965
38520W        W 2453  16.277  17.153   3.811
38521W        W 2454  31.600  31.084  12.427
38522W        W 2455   3.916   9.296  12.407
38523W        W 2456   8.718  42.867  12.016
38524W        W 2457  21.153  33.446   3.170
38525W        W 2458  43.485  21.517   1.844
38526W        W 2459  42.378  25.506   2.322
38527W        W 2460  44.348  20.175   4.761
38528W        W 2461  14.593  37.474  14.496
38529W        W 2462   6.322  11.238  11.555
38530W        W 2463  29.591  32.561   1.841
38531W        W 2464   1.905  44.997   0.453
38532W        W 2465  33.558   0.958   9.931
38533W        W 2466  42.941  41.796  13.058
38534W        W 2467  29.532  19.756   0.359
38535W        W 2468  44.263  13.771   4.649
38536W        W 2469  24.619  23.689   1.365
38537W        W 2470  33.931  41.367  13.966
38538W        W 2471  42.875  43.948   4.288
38539W        W 2472  13.755  11.688   1.263
38540W        W 2473   6.243  37.462  13.892
38541W        W 2474  33.446  44.900   3.170
38542W        W 2475   4.220  11.659  11.025
38543W        W 2476  31.634  32.582   3.348
38544W        W 2477   8.380   8.230   1.421
38545W        W 2478   5.772  35.085   1.289
38546W        W 2479   3.361  33.108  13.382
38547W        W 2480  21.603  10.281  11.880
38548W        W 2481   6.726  19.084  12.509
38549W        W 2482  14.747   2.227   0.292
38550W        W 2483   3.417  44.966  12.944
38551W        W 2484  17.732  18.177  11.102
38552W        W 2485  13.773  24.092  11.087
38553W        W 2486  10.334  18.143   4.713
38554W        W 2487   9.766  14.321  10.979
38555W        W 2488   4.238  12.689   5.283
38556W        W 2489  37.581  22.086   3.365
38557W        W 2490  43.832  31.935   4.320
38558W        W 2491  44.989  43.285  10.981
38559W        W 2492  41.504  41.960  11.014
38560W        W 2493  32.990  36.414  12.946
38561W        W 2494   0.750   7.308  10.451
38562W        W 2495  35.580   7.845   3.208
38563W        W 2496  28.104  23.180   0.378
38564W        W 2497  30.562   8.892   3.327
38565W        W 2498  37.962  21.169  12.555
38566W        W 2499   8.761  17.258  10.588
38567W        W 2500   2.872  39.833   1.780
38568W        W 2501  32.110  11.631  13.985
38569W        W 2502  30.101   6.266   2.345
38570W        W 2503   4.223  37.351  13.532
38571W        W 2504   4.778  11.150   2.844
38572W        W 2505  25.038   6.269   4.262
38573W        W 2506  28.669   3.366   1.853
38574W        W 2507  28.616  10.374  14.858
38575W        W 2508  44.374  33.881   0.949
38576W        W 2509  41.001  12.815   2.230
38577W        W 2510  23.194  20.704  12.854
38578W        W 2511   1.976  30.074   3.846
38579W        W 2512  24.018  16.600   3.211
38580W        W 2513  12.669  19.739  12.983
38581W        W 2514   4.929  21.649  14.405
38582W        W 2515  22.588  40.519   3.815
38583W        W 2516  44.269  14.738   4.322
38584W        W 2517   8.302  29.071   2.721
38585W        W 2518  30.643  25.677   3.385
38586W        W 2519  33.938  44.337  14.321
38587W        W 2520  13.673  13.692  12.391
38588W        W 2521   8.169   4.436   5.730
38589W        W 2522  20.240  23.216  13.796
38590W        W 2523  15.682  43.461  11.896
38591W        W 2524  19.614  27.620  12.940
38592W        W 2525   0.850   1.842  10.508
38593W        W 2526  11.671  19.764   4.733
38594W        W 2527  26.620  14.677   1.242
38595W        W 2528  41.345  21.060  12.390
38596W        W 2529   5.388  30.913  12.862
38597W        W 2530  12.300  18.110   3.829
38598W        W 2531   0.471  35.084   1.754
38599W        W 2532  29.516   3.261  14.995
38600W        W 2533  10.273   1.976   4.226
38601W        W 2534  34.955  19.678  12.096
38602W        W 2535  11.369  40.934   1.885
38603W        W 2536  37.080  41.320   4.221
38604W        W 2537  32.554  37.853  10.433
38605W        W 2538  42.946  10.182   0.877
38606W        W 2539  30.550  10.351   5.153
38607W        W 2540  29.559  27.946   1.243
38608W        W 2541  43.884  21.686  11.077
38609W        W 2542  23.033  33.117   1.876
38610W        W 2543  12.347  31.005   2.394
38611W        W 2544  25.634  23.042  11.395
38612W        W 2545   8.868   4.905   5.104
38613W        W 2546  35.973  20.130   2.686
38614W        W 2547  23.673   1.882  10.452
38615W        W 2548   2.320  44.487   4.826
38616W        W 2549   9.778  23.557  14.468
38617W        W 2550  21.693  24.534   4.220
38618W        W 2551  22.065  27.549  11.904
38619W        W 2552  26.107   3.761  13.329
38620W        W 2553   3.763   2.754  10.012
38621W        W 2554  24.999  33.605   0.281
38622W        W 2555  35.502  18.103  13.805
38623W        W 2556   2.470  13.156   3.181
38624W        W 2557  14.264  41.951   2.326
38625W        W 2558   1.347  14.176  12.901
38626W        W 2559  38.352  16.259   0.766
38627W        W 2560   9.346   4.716   4.212
38628W        W 2561   6.919  38.381   1.312
38629W        W 2562  32.534  36.505  13.893
38630W        W 2563  27.101  38.061   3.681
38631W        W 2564  38.445  27.976  12.889
38632W        W 2565  17.212   5.206  10.956
38633W        W 2566  19.153  28.508  13.343
38634W        W 2567  12.252  39.518   2.399
38635W        W 2568  32.563  38.486  13.471
38636W        W 2569  14.335  13.187  11.377
38637W        W 2570  41.871  44.780  13.936
38638W        W 2571   9.255  38.419  13.914
38639W        W 2572  35.558  12.284   0.458
38640W        W 2573  33.074  13.243  10.406
38641W        W 2574  44.266  43.998   4.640
38642W        W 2575   7.307  36.889  11.934
38643W        W 2576  21.562  43.990  13.332
38644W        W 2577   2.897  43.381   4.226
38645W        W 2578   3.315   3.406   1.882
38646W        W 2579  33.462   8.673   4.220
38647W        W 2580  15.789  19.567  14.946
38648W        W 2581  36.355  38.036  11.419
38649W        W 2582  29.552  12.225  11.414
38650W        W 2583  42.458  44.479  13.014
38651W        W 2584  24.058  10.753   4.717
38652W        W 2585  11.302  38.425  11.496
38653W        W 2586   9.311  21.636   4.260
38654W        W 2587   9.333  24.564   3.842
38655W        W 2588  29.667  30.452   4.779
38656W        W 2589  33.583  23.694   2.254
38657W        W 2590  31.403  24.021  13.949
38658W        W 2591   1.368   9.391  11.452
38659W        W 2592  22.658  38.926  11.128
38660W        W 2593  28.105  23.156   2.384
38661W        W 2594  40.496  23.207  12.952
38662W        W 2595   6.336  19.691  11.491
38663W        W 2596  14.648   8.349   0.942
38664W        W 2597  24.661  19.749  11.390
38665W        W 2598   4.426  38.960   1.717
38666W        W 2599  24.168  30.542  11.924
38667W        W 2600  21.166   1.903  14.482
38668W        W 2601  32.552   2.256  13.515
38669W        W 2602  36.491  13.117   0.447
38670W        W 2603  11.778  37.903  13.430
38671W        W 2604  12.640  31.492  13.860
38672W        W 2605  19.268   4.272   2.390
38673W        W 2606   6.734   0.948   1.856
38674W        W 2607  30.420  42.304  13.417
38675W        W 2608  25.195  18.591   1.437
38676W        W 2609  16.692  36.519  13.380
38677W        W 2610   7.387  22.040   1.802
38678W        W 2611  16.789  25.082  13.340
38679W        W 2612  25.686  43.378   0.940
38680W        W 2613   5.357  42.309  10.970
38681W        W 2614   7.335   7.263   2.890
38682W        W 2615  12.320  43.396  13.411
38683W        W 2616  30.413  28.499   1.918
38684W        W 2617  39.395  16.668   2.830
38685W        W 2618  17.202  12.148   4.789
38686W        W 2619  29.642   8.835  11.388
38687W        W 2620   0.252   9.349   1.289
38688W        W 2621  29.078  43.789   4.260
38689W        W 2622   6.748  14.338   0.350
38690W        W 2623  39.451  36.073  14.868
38691W        W 2624   4.916  25.967   2.865
38692W        W 2625  11.760  26.509  14.879
38693W        W 2626  18.635  25.659  11.903
38694W        W 2627  25.198  26.547  11.542
38695W        W 2628  12.849  14.814  11.085
38696W        W 2629   8.669  26.677   4.327
38697W        W 2630   2.337   9.386  11.385
38698W        W 2631   8.166  35.086   1.305
38699W        W 2632  33.506  38.913   2.248
38700W        W 2633  30.956  35.958   1.704
38701W        W 2634  10.371   3.336  10.585
38702W        W 2635   1.966  30.057  11.951
38703W        W 2636   0.436  24.711  12.415
38704W        W 2637  27.080   9.647   0.927
38705W        W 2638  44.357  43.816  13.042
38706W        W 2639  19.070  22.535  14.460
38707W        W 2640  30.554  32.103  14.504
38708W        W 2641   7.749   5.892  14.905
38709W        W 2642  26.539  19.679   0.266
38710W        W 2643  31.098  20.527  11.911
38711W        W 2644  36.069  16.623  11.517
38712W        W 2645   4.356  41.437  11.407
38713W        W 2646   1.868  17.561   1.771
38714W        W 2647  23.052  20.229   1.780
38715W        W 2648   2.331  27.062  11.117
38716W        W 2649   9.171  23.704   4.298
38717W        W 2650  31.496  34.517  12.438
38718W        W 2651  40.541  39.320   2.903
38719W        W 2652  11.720  22.013  12.344
38720W        W 2653  27.154  22.699   0.389
38721W        W 2654  27.044  23.208  11.468
38722W        W 2655  31.564   2.923  14.819
38723W        W 2656  33.931  16.305   4.156
38724W        W 2657  13.239  15.305  13.992
38725W        W 2658   8.270  17.698   1.855
38726W        W 2659  21.718  26.954  14.827
38727W        W 2660   1.785  44.973  10.996
38728W        W 2661  12.334   9.690   4.160
38729W        W 2662  25.604  43.881  14.302
38730W        W 2663  12.194  26.701   0.953
38731W        W 2664  42.924  16.697  14.817
38732W        W 2665   1.892  21.018  11.086
38733W        W 2666  37.977  16.650   0.840
38734W        W 2667   8.342  31.462  13.516
38735W        W 2668  38.935  32.905  10.906
38736W        W 2669  14.238   2.851  12.559
38737W        W 2670  22.588  39.041   4.204
38738W        W 2671  13.727  43.954  11.530
38739W        W 2672  12.323  21.237   1.802
38740W        W 2673  18.568  27.649   1.837
38741W        W 2674  25.073  37.951  14.855
38742W        W 2675  29.430  25.693  10.460
38743W        W 2676  10.762  12.788  14.293
38744W        W 2677  23.057  18.153   2.236
38745W        W 2678   1.247  24.518   4.685
38746W        W 2679  25.611  22.150  10.473
38747W        W 2680  16.696   7.238  12.549
38748W        W 2681   6.844  25.977  11.511
38749W        W 2682   3.389  37.375   2.857
38750W        W 2683  22.516  39.348   4.660
38751W        W 2684  34.922   3.303  13.536
38752W        W 2685  21.066  23.174   2.786
38753W        W 2686   8.669  30.629   4.334
38754W        W 2687  34.897  12.818   1.865
38755W        W 2688  38.870  14.807   3.328
38756W        W 2689  30.486   8.719   1.329
38757W        W 2690  20.674   9.818  11.601
38758W        W 2691  26.689   9.350  10.903
38759W        W 2692  17.134  30.524   4.753
38760W        W 2693  34.467  39.487  12.427
38761W        W 2694  44.355  44.834   0.909
38762W        W 2695  38.958  26.180  11.442
38763W        W 2696   5.717  42.379  11.985
38764W        W 2697  24.183   0.315   4.804
38765W        W 2698   2.325   5.369   3.714
38766W        W 2699  41.819  19.541   4.220
38767W        W 2700  37.070  26.011  14.775
38768W        W 2701  31.128  29.035   0.473
38769W        W 2702  29.166  44.450   4.800
38770W        W 2703  17.565  17.096  14.496
38771W        W 2704  11.697  24.609  13.484
38772W        W 2705   9.647   0.298  14.001
38773W        W 2706  23.223  28.578   0.465
38774W        W 2707   4.371  16.079   2.872
38775W        W 2708  40.460   4.377   2.355
38776W        W 2709  21.152  32.558   2.248
38777W        W 2710  21.745  40.336  10.603
38778W        W 2711  32.450  44.914  11.109
38779W        W 2712   8.791   4.208   1.757
38780W        W 2713  26.091   8.275   2.202
38781W        W 2714  18.564  14.612  11.403
38782W        W 2715  32.458  16.188  12.878
38783W        W 2716  32.484   6.209   3.705
38784W        W 2717  35.532  28.543  11.392
38785W        W 2718   5.791  15.748  13.976
38786W        W 2719  34.927  29.944   4.258
38787W        W 2720  43.414  18.676   4.244
38788W        W 2721  14.330  20.616   0.248
38789W        W 2722  27.691  14.144   4.337
38790W        W 2723   7.752  43.367   2.890
38791W        W 2724  16.763  31.451   3.652
38792W        W 2725  17.112   4.830  12.074
38793W        W 2726  18.232  40.464   0.405
38794W        W 2727  25.206   9.702  14.918
38795W        W 2728  22.662  35.408  11.421
38796W        W 2729  33.125  17.564   4.184
38797W        W 2730  14.120  34.373   1.776
38798W        W 2731  28.486  26.028   1.717
38799W        W 2732  28.567  13.254   0.836
38800W        W 2733  39.939  21.614  11.537
38801W        W 2734  37.042   7.911   1.293
38802W        W 2735  13.111   3.239   4.185
38803W        W 2736  37.869  21.720  14.965
38804W        W 2737  44.977  13.155  11.435
38805W        W 2738  36.546  42.867   5.213
38806W        W 2739   6.729  41.981  11.411
38807W        W 2740  31.029  38.901   1.817
38808W        W 2741  18.094  36.454  14.377
38809W        W 2742  27.628  19.263   1.778
38810W        W 2743   0.292  40.827  11.417
38811W        W 2744  27.508  10.324   2.396
38812W        W 2745   2.337  36.484   1.719
38813W        W 2746  40.930  10.848   0.745
38814W        W 2747   4.381  42.352   2.751
38815W        W 2748   8.301  40.945  12.930
38816W        W 2749  16.112   7.811  11.603
38817W        W 2750  19.245  24.116   3.860
38818W        W 2751  37.000  43.909  14.769
38819W        W 2752  20.583  31.127  14.366
38820W        W 2753  20.764   5.827   2.304
38821W        W 2754   3.898  22.048  14.920
38822W        W 2755  16.647  17.168   2.900
38823W        W 2756  36.426  44.939   0.768
38824W        W 2757  19.767  13.821   4.232
38825W        W 2758  28.108  14.237   3.208
38826W        W 2759   7.691  41.027  12.829
38827W        W 2760   9.311   6.407  14.287
38828W        W 2761  26.544  33.506   0.274
38829W        W 2762  14.723  16.295  11.972
38830W        W 2763   9.669  15.180   3.832
38831W        W 2764  12.690  16.216  14.009
38832W        W 2765  40.451  13.818   1.853
38833W        W 2766   0.838   6.755  11.969
38834W        W 2767  17.146   0.344  14.278
38835W        W 2768  29.060  10.188   4.683
38836W        W 2769   1.435  13.346  14.960
38837W        W 2770  25.487  34.541  11.929
38838W        W 2771   9.277  25.151  13.358
38839W        W 2772  20.097  21.033   3.747
38840W        W 2773  35.549  14.683   4.238
38841W        W 2774  35.568  31.527  13.348
38842W        W 2775  16.694  40.996  10.989
38843W        W 2776  23.000  39.323  12.902
38844W        W 2777  21.620  27.687   4.165
38845W        W 2778   9.764  23.574   3.154
38846W        W 2779   0.822   3.802   0.330
38847W        W 2780  15.804  21.717  13.351
38848W        W 2781  26.017  39.830  13.349
38849W        W 2782  37.044  21.245  13.863
38850W        W 2783  23.717  35.548  13.459
38851W        W 2784   5.870  35.471  13.838
38852W        W 2785  24.638  40.345  14.849
38853W        W 2786   9.344  26.498  11.118
38854W        W 2787   4.234   9.651  13.894
38855W        W 2788  25.035  43.861  11.088
38856W        W 2789   8.371  39.822   0.336
38857W        W 2790  16.277  30.622   2.263
38858W        W 2791   1.933   2.395  11.466
38859W        W 2792  15.632  38.439  12.953
38860W        W 2793  25.483   4.788  10.917
38861W        W 2794  22.727  15.646  14.832
38862W        W 2795  38.552   3.260   2.291
38863W        W 2796   1.837  38.430  14.899
38864W        W 2797  21.597  25.578  11.924
38865W        W 2798  28.955  28.135  12.464
38866W        W 2799  21.082  39.025  14.507
38867W        W 2800  42.349  37.080  12.526
38868W        W 2801  32.622  43.286  14.466
38869W        W 2802   8.782  21.625  12.083
38870W        W 2803  24.114  27.996  13.309
38871W        W 2804  36.884  18.785  10.415
38872W        W 2805  19.129  43.832   0.960
38873W        W 2806  21.725  30.936   4.350
38874W        W 2807  12.810  28.607  11.920
38875W        W 2808  23.174   0.454   0.473
38876W        W 2809  42.013   5.240   1.282
38877W        W 2810  35.029  30.104   0.384
38878W        W 2811  25.585  28.661   1.753
38879W        W 2812   4.365  22.227  11.461
38880W        W 2813  38.501  21.706  11.950
38881W        W 2814  30.125  23.497   4.678
38882W        W 2815  12.619  28.653   2.219
38883W        W 2816  12.204  21.529   0.787
38884W        W 2817  43.379   7.736  10.449
38885W        W 2818  31.444  29.939   3.654
38886W        W 2819  40.958  16.603  13.020
38887W        W 2820   1.751  38.537   3.769
38888W        W 2821  16.216   6.324   1.855
38889W        W 2822  39.926  10.782  14.907
38890W        W 2823   3.884  27.026   2.730
38891W        W 2824  40.041  19.262   3.163
38892W        W 2825  18.209  30.608   4.195
38893W        W 2826  36.571  17.081  12.037
38894W        W 2827  24.549   5.914  12.501
38895W        W 2828  44.801  37.389   1.332
38896W        W 2829  19.246  20.184   3.362
38897W        W 2830  31.070  35.586   1.775
38898W        W 2831  19.583  40.011  14.408
38899W        W 2832  27.685  19.669   2.289
38900W        W 2833   2.829  26.951  11.002
38901W        W 2834   7.786   5.192   4.291
38902W        W 2835  10.872  32.900   2.348
38903W        W 2836  10.234  36.959   3.685
38904W        W 2837  29.502   2.721  14.859
38905W        W 2838  43.848  32.067  11.059
38906W        W 2839  35.392  34.465   2.280
38907W        W 2840  10.288  35.484   0.887
38908W        W 2841  14.161  23.492   4.204
38909W        W 2842  27.054  18.051  10.634
38910W        W 2843  42.781  29.662   1.772
38911W        W 2844  41.329  22.634   3.360
38912W        W 2845  28.001  43.347   4.830
38913W        W 2846  33.513  39.347   1.402
38914W        W 2847  37.854  18.108  12.880
38915W        W 2848  18.226   2.964  12.030
38916W        W 2849   1.306  38.976   1.778
38917W        W 2850   8.211  10.384   1.873
38918W        W 2851  22.645  19.593  14.011
38919W        W 2852  17.731  22.231  12.386
38920W        W 2853  18.179  42.935   3.165
38921W        W 2854  17.783  35.376   3.780
38922W        W 2855   2.358  12.630  11.054
38923W        W 2856   4.902  41.043   4.770
38924W        W 2857  38.849  17.251   0.965
38925W        W 2858  38.351  10.729   2.886
38926W        W 2859   1.800  22.044   4.146
38927W        W 2860   9.861  10.295  12.399
38928W        W 2861  16.624   2.260  14.005
38929W        W 2862  16.137  34.041  11.498
38930W        W 2863  21.219  10.216  11.430
38931W        W 2864   3.249  19.202  10.469
38932W        W 2865   1.446  16.644  14.503
38933W        W 2866  12.683  17.135  10.478
38934W        W 2867  24.718   7.857   4.260
38935W        W 2868  35.867  15.210   1.758
38936W        W 2869   1.824  19.697  11.950
38937W        W 2870  16.106  31.014   3.713
38938W        W 2871  10.871  31.639  12.368
38939W        W 2872  30.521  18.644  13.447
38940W        W 2873  32.051  25.633  11.434
38941W        W 2874  29.100  37.462   4.783
38942W        W 2875  44.289  15.087  11.113
38943W        W 2876  28.497  37.871   2.330
38944W        W 2877  30.091  29.967   2.239
38945W        W 2878  21.240   2.300  13.486
38946W        W 2879  13.746  35.934  12.930
38947W        W 2880  37.349  16.746  14.385
38948W        W 2881  19.545  31.561   4.327
38949W        W 2882  32.593  26.050   1.918
38950W        W 2883  12.222  10.841   4.779
38951W        W 2884  39.320  43.790   3.717
38952W        W 2885  19.260  36.057  12.863
38953W        W 2886   9.201   9.748  14.863
38954W        W 2887  25.075  32.034   3.685
38955W        W 2888   1.733  40.811   1.260
38956W        W 2889  38.516  31.085  14.867
38957W        W 2890  12.335   1.910  12.342
38958W        W 2891   6.822  43.880  11.562
38959W        W 2892   3.408  13.639   3.678
38960W        W 2893   0.936  28.536  14.317
38961W        W 2894  23.674  25.142  14.759
38962W        W 2895  28.486  13.197   2.892
38963W        W 2896  18.269  16.802   9.959
38964W        W 2897   2.436   1.862  14.448
38965W        W 2898  42.414  13.613  13.906
38966W        W 2899   8.165  21.107   3.819
38967W        W 2900  44.487  33.445  13.917
38968W        W 2901   7.276   4.764  13.449
38969W        W 2902  26.639  21.256   0.765
38970W        W 2903  17.215  23.596  10.414
38971W        W 2904  42.823  16.295   1.896
38972W        W 2905  16.292   0.479   0.944
38973W        W 2906  33.960  42.899  12.522
38974W        W 2907   5.864  20.644  11.569
38975W        W 2908  37.559  35.958   0.864
38976W        W 2909   3.339   7.213   1.349
38977W        W 2910   1.365  43.008  10.536
38978W        W 2911   5.840  44.842  11.025
38979W        W 2912  35.407  22.201   0.347
38980W        W 2913  25.607  21.123   4.774
38981W        W 2914  27.509   5.931   3.638
38982W        W 2915  19.611  17.110  13.439
38983W        W 2916  27.990  34.067   0.954
38984W        W 2917   4.924  40.358   4.163
38985W        W 2918  13.669   7.761  13.424
38986W        W 2919  24.494  17.566   1.405
38987W        W 2920  44.375   1.896  12.849
38988W        W 2921  11.807  44.831   2.290
38989W        W 2922  42.316  34.482  13.334
38990W        W 2923   0.294   4.308   0.889
38991W        W 2924   2.336  14.143  13.013
38992W        W 2925  40.311  11.697  10.620
38993W        W 2926  16.671  23.091   4.139
38994W        W 2927  30.648   7.319  14.009
38995W        W 2928  32.948  29.579  11.863
38996W        W 2929  38.895  39.500  10.557
38997W        W 2930  37.873  31.963  11.123
38998W        W 2931  20.056   9.273  10.970
38999W        W 2932  31.936   6.414   2.899
39000W        W 2933   5.918  34.882   1.758
39001W        W 2934  19.661  10.750  14.500
39002W        W 2935  18.231   3.299   1.735
39003W        W 2936   7.222  22.097   3.160
39004W        W 2937  19.759  15.090   3.288
39005W        W 2938   7.359   5.889  11.413
39006W        W 2939  12.719  40.938   0.964
39007W        W 2940  43.979  26.477   3.757
39008W        W 2941  42.331  30.532   3.677
39009W        W 2942   7.689  27.596  13.794
39010W        W 2943  40.042  11.194  11.512
39011W        W 2944  10.845  21.643   0.377
39012W        W 2945  37.538  15.301   1.251
39013W        W 2946  10.663  29.582   2.374
39014W        W 2947  22.169   2.321   3.174
39015W        W 2948  17.104  43.958  10.568
39016W        W 2949   8.704  44.391   1.832
39017W        W 2950  17.649  44.375  11.396
39018W        W 2951   8.316  18.567  14.778
39019W        W 2952  44.264  13.118   4.663
39020W        W 2953   8.775  16.625  12.434
39021W        W 2954  40.424  16.642  10.432
39022W        W 2955   0.771   6.304  11.091
39023W        W 2956  41.293   4.235   0.898
39024W        W 2957  28.027  19.194  13.907
39025W        W 2958  37.522  23.052   4.611
39026W        W 2959  12.133  43.807  10.982
39027W        W 2960  27.681  29.041   3.327
39028W        W 2961  35.559  29.630   0.328
39029W        W 2962  41.900   0.373  10.527
39030W        W 2963  35.987  10.810  13.415
39031W        W 2964  42.975  23.018   2.228
39032W        W 2965  17.769  30.584   1.814
39033W        W 2966  35.503   4.276  14.505
39034W        W 2967   5.252  21.192  14.323
39035W        W 2968  12.717  17.733  11.082
39036W        W 2969  22.018  21.545  12.432
39037W        W 2970  29.518  21.039   3.841
39038W        W 2971  36.061  16.080  11.576
39039W        W 2972   3.282  40.816   0.930
39040W        W 2973   3.303  15.276   2.201
39041W        W 2974  23.706   4.240  14.893
39042W        W 2975  17.108  26.692  10.636
39043W        W 2976  41.916  19.629   2.381
39044W        W 2977   8.768  24.179   3.352
39045W        W 2978  43.447  41.314   1.722
39046W        W 2979   4.802  43.812   1.332
39047W        W 2980  40.367  23.491  14.504
39048W        W 2981   4.780  41.961   2.357
39049W        W 2982  42.363   2.470  12.522
39050W        W 2983  14.768  23.605   4.279
39051W        W 2984  21.178  31.407  11.497
39052W        W 2985   8.308  23.223   0.928
39053W        W 2986   5.333  17.722   4.820
39054W        W 2987  44.347  35.106   0.387
39055W        W 2988  38.919   8.199  10.447
39056W        W 2989   7.382   8.210  13.877
39057W        W 2990  32.593  15.165  12.029
39058W        W 2991   7.376  12.822  12.085
39059W        W 2992   5.257   7.772   3.821
39060W        W 2993  30.570  14.175   3.261
39061W        W 2994  29.985   7.903   2.899
39062W        W 2995  20.651  23.173   1.406
39063W        W 2996  21.226  19.739  10.566
39064W        W 2997  17.085  11.214  11.906
39065W        W 2998  22.120  15.681   3.188
39066W        W 2999  43.335  35.563  13.810
39067W        W 3000  42.793  11.736   4.330
39068W        W 3001  29.467  32.629  14.831
39069W        W 3002  23.158  18.747  10.950
39070W        W 3003  40.447  39.869  10.582
39071W        W 3004  25.070  25.481  14.472
39072W        W 3005   8.756  30.159  14.908
39073W        W 3006  42.483  24.705  13.519
39074W        W 3007  43.389  23.079   2.889
39075W        W 3008   7.334   7.712  11.501
39076W        W 3009  43.498  39.533   4.669
39077W        W 3010  37.838  14.758  13.494
39078W        W 3011  37.949  40.420  14.777
39079W        W 3012  10.843  16.249  12.067
39080W        W 3013  42.956  15.087   2.286
39081W        W 3014   9.298  42.362  11.994
39082W        W 3015  30.070  14.733  12.875
39083W        W 3016  24.036   5.418   2.848
39084W        W 3017  13.345  11.316   4.196
39085W        W 3018  23.130  24.064  13.499
39086W        W 3019  44.422  11.314  14.906
39087W        W 3020  17.768   4.818  11.431
39088W        W 3021  41.832  31.906  14.376
39089W        W 3022   0.920  39.965   2.370
39090W        W 3023  41.455  33.019  14.021
39091W        W 3024  44.486  43.905   2.198
39092W        W 3025  35.581  37.940   4.243
39093W        W 3026  32.924  26.643  10.983
39094W        W 3027   9.207  16.638   2.258
39095W        W 3028  30.600  25.012   2.318
39096W        W 3029   0.879  27.636   3.335
39097W        W 3030  34.025  40.402   1.439
39098W        W 3031  38.996  28.022   0.908
39099W        W 3032  39.035  14.786  13.515
39100W        W 3033  43.915  21.086   3.754
39101W        W 3034   0.419  18.277   3.648
39102W        W 3035  44.807  40.490  14.864
39103W        W 3036  42.362  38.360  14.945
39104W        W 3037  26.029   4.404  13.013
39105W        W 3038  21.701  32.435  10.408
39106W        W 3039  26.125   0.832  12.851
39107W        W 3040  44.357  20.094   0.262
39108W        W 3041   9.739  13.167  13.429
39109W        W 3042  36.942  25.002   0.784
39110W        W 3043  14.243  10.361   3.277
39111W        W 3044  44.869  40.887   3.169
39112W        W 3045  11.226  44.900  13.929
39113W        W 3046  12.198  18.281  13.428
39114W        W 3047  38.411   4.855   3.691
39115W        W 3048  20.768  27.144   0.751
39116W        W 3049  20.190   6.407  14.367
39117W        W 3050  12.849  11.138  14.367
39118W        W 3051  15.158   8.819  11.467
39119W        W 3052   0.410   3.742   4.325
39120W        W 3053  14.816   6.307  11.468
39121W        W 3054  38.384  27.038  11.892
39122W        W 3055  12.361  20.757  12.575
39123W        W 3056   2.355   4.408  14.828
39124W        W 3057   6.213  15.286   4.738
39125W        W 3058  21.202  34.397  14.792
39126W        W 3059  19.591  32.518   2.746
39127W        W 3060   7.243   8.796  12.460
39128W        W 3061  24.109  35.075  10.452
39129W        W 3062  16.089  29.572  13.822
39130W        W 3063  10.687  44.500   0.452
39131W        W 3064  41.927  40.508   3.702
39132W        W 3065  40.488  23.679   4.789
39133W        W 3066  34.593  14.219   1.750
39134W        W 3067   6.848  26.201  12.369
39135W        W 3068   2.930  18.673   2.212
39136W        W 3069  19.155   2.787   1.867
39137W        W 3070  20.609  27.127  11.979
39138W        W 3071  29.425  34.095   4.168
39139W        W 3072  22.177  24.060  11.006
39140W        W 3073  38.543   6.820   0.826
39141W        W 3074  36.844  18.234   4.157
39142W        W 3075  21.597  40.801  10.517
39143W        W 3076   0.310  23.180   2.748
39144W        W 3077  37.516  33.548   4.696
39145W        W 3078   6.772  37.956  12.973
39146W        W 3079  11.824  43.817  14.341
39147W        W 3080  20.096  21.072   2.409
39148W        W 3081  44.309  38.425  14.404
39149W        W 3082  36.974   0.280  14.362
39150W        W 3083  21.553  17.555   3.235
39151W        W 3084  19.732  26.156  11.964
39152W        W 3085  10.825  26.096   3.698
39153W        W 3086  35.912  44.834  10.563
39154W        W 3087  20.744   8.360   1.386
39155W        W 3088  23.145  39.403  13.869
39156W        W 3089   0.266   5.923  11.880
39157W        W 3090  10.716   9.787  11.440
39158W        W 3091  15.121  16.636  12.396
39159W        W 3092  10.322  43.933  11.038
39160W        W 3093  38.328  24.586   4.199
39161W        W 3094   5.305  41.862   1.742
39162W        W 3095  15.817  17.157  11.014
39163W        W 3096  35.467   4.782   2.717
39164W        W 3097  26.678  12.720  10.092
39165W        W 3098  17.155  26.175  10.968
39166W        W 3099   8.895  30.593   0.858
39167W        W 3100   8.762  36.513   2.328
39168W        W 3101  44.444  42.841   3.665
39169W        W 3102   3.924   4.391   4.167
39170W        W 3103  44.412  43.814   9.936
39171W        W 3104  27.993  26.137  12.560
39172W        W 3105  10.814  13.765   3.768
39173W        W 3106  27.067  19.222   0.264
39174W        W 3107   0.426   8.276   4.724
39175W        W 3108  12.634  43.322  10.508
39176W        W 3109   8.184  44.893   0.479
39177W        W 3110  26.662  22.208  12.062
39178W        W 3111   8.884  28.637  12.381
39179W        W 3112  18.621  35.866   4.129
39180W        W 3113  16.773  38.465   2.268
39181W        W 3114  27.528   2.730   4.157
39182W        W 3115  21.024   0.761   3.806
39183W        W 3116  20.107  13.748  13.439
39184W        W 3117  38.984   3.246  10.543
39185W        W 3118   8.204  21.212   3.298
39186W        W 3119  38.538  12.812   1.717
39187W        W 3120  28.497  14.708  14.773
39188W        W 3121   1.778  12.758   4.348
39189W        W 3122  24.508  11.138   1.439
39190W        W 3123  16.139  30.924   0.859
39191W        W 3124  29.019  25.189  10.410
39192W        W 3125  21.109  12.680  12.909
39193W        W 3126  17.787  39.443   2.232
39194W        W 3127  35.410  31.552   0.786
39195W        W 3128   9.657  37.997  11.437
39196W        W 3129  25.498   9.782  10.424
39197W        W 3130  33.535  17.067  13.984
39198W        W 3131   6.425  20.754  14.484
39199W        W 3132  28.585  42.286   2.721
39200W        W 3133   8.334  14.208   4.266
39201W        W 3134  29.172  20.080  13.825
39202W        W 3135  17.643   1.868   0.265
39203W        W 3136   3.853   0.371   0.890
39204W        W 3137  27.487  27.086   3.694
39205W        W 3138  37.513  36.511  14.885
39206W        W 3139  17.185   0.794   4.246
39207W        W 3140  17.602  37.473   2.686
39208W        W 3141  26.131  30.588  13.830
39209W        W 3142  22.997  11.738   3.796
39210W        W 3143  22.179  21.111   2.414
39211W        W 3144  22.042  12.185  11.878
39212W        W 3145   9.691  37.539   0.327
39213W        W 3146  34.489  33.911   4.175
39214W        W 3147  18.783  33.621  14.503
39215W        W 3148  43.303  41.919   2.391
39216W        W 3149  25.024  38.461  13.419
39217W        W 3150  30.459  36.514   2.373
39218W        W 3151  44.346  13.295  13.021
39219W        W 3152  35.561  22.009   2.214
39220W        W 3153  24.991   3.843   3.674
39221W        W 3154   0.413  16.598   3.805
39222W        W 3155  15.811  16.779   3.767
39223W        W 3156   8.767  14.234  12.950
39224W        W 3157  21.233  11.367  13.478
39225W        W 3158  32.110  42.019  10.547
39226W        W 3159  21.713  14.094  14.904
39227W        W 3160   0.382  11.242  13.985
39228W        W 3161  41.448   2.455  10.494
39229W        W 3162  14.136  21.758  11.060
39230W        W 3163  16.284  14.824  10.404
39231W        W 3164  29.014  36.415   4.281
39232W        W 3165  13.324  38.540  10.602
39233W        W 3166  37.390  12.835   2.793
39234W        W 3167  17.608  35.383   1.372
39235W        W 3168  42.290  30.477   1.372
39236W        W 3169  31.523  37.429   2.367
39237W        W 3170  11.200  39.834  10.609
39238W        W 3171   8.176  12.340  12.563
39239W        W 3172  41.803  36.361  12.496
39240W        W 3173   7.852  36.984  12.930
39241W        W 3174   3.794   3.418   4.305
39242W        W 3175   4.757   8.273   2.267
39243W        W 3176  21.250  29.934  13.458
39244W        W 3177  18.781  25.614   2.694
39245W        W 3178  21.590  22.027  14.902
39246W        W 3179   1.972   9.813  14.774
39247W        W 3180  10.803  44.836  13.939
39248W        W 3181   6.354  13.636   1.448
39249W        W 3182  15.252  33.984  12.853
39250W        W 3183  21.593  34.874   4.761
39251W        W 3184  15.165  18.186   3.820
39252W        W 3185   0.983  11.632  11.556
39253W        W 3186   9.249  10.818   4.310
39254W        W 3187  10.648   2.748  14.936
39255W        W 3188  37.437  34.894  11.893
39256W        W 3189  24.484  35.582   1.712
39257W        W 3190  43.316  39.930   0.735
39258W        W 3191  25.570  19.615  10.602
39259W        W 3192  15.256  17.270   9.663
39260W        W 3193  34.926   2.951   1.708
39261W        W 3194   2.258  19.593   1.852
39262W        W 3195   0.811  19.773   0.457
39263W        W 3196  16.114  27.485  14.442
39264W        W 3197  24.224  25.495  12.992
39265W        W 3198   0.955  26.095  13.453
39266W        W 3199  33.572  43.877  12.936
39267W        W 3200  33.574  34.866   0.857
39268W        W 3201  42.377  27.456  12.488
39269W        W 3202  27.639   6.268   0.467
39270W        W 3203  16.728  20.658  13.831
39271W        W 3204  34.554  18.178   2.778
39272W        W 3205  38.484  10.280  12.070
39273W        W 3206  36.996  30.621   2.664
39274W        W 3207  21.232   4.809  10.495
39275W        W 3208  32.990  24.028   4.251
39276W        W 3209  44.433  27.575  13.310
39277W        W 3210  21.645  24.600   0.313
39278W        W 3211  15.785  31.434   2.892
39279W        W 3212  30.054   1.837  10.895
39280W        W 3213   6.341  33.075  11.038
39281W        W 3214  34.075  14.321   1.865
39282W        W 3215  12.307  33.582  10.588
39283W        W 3216  39.963  21.618   4.719
39284W        W 3217   2.737  26.097  14.296
39285W        W 3218  24.010  14.620   0.959
39286W        W 3219   5.217  42.371  13.449
39287W        W 3220  39.855  40.845   0.261
39288W        W 3221  31.965  39.988  13.449
39289W        W 3222  10.149   2.845   0.730
39290W        W 3223  38.068  18.153   2.841
39291W        W 3224  31.491  19.114  13.025
39292W        W 3225  32.948  11.728  14.010
39293W        W 3226  13.838   1.938   4.662
39294W        W 3227  23.045   6.893  11.485
39295W        W 3228  24.560   6.289   2.398
39296W        W 3229  28.121  23.567   3.265
39297W        W 3230  23.170  15.291   4.338
39298W        W 3231  36.978   1.393   4.191
39299W        W 3232  26.555  31.993   0.891
39300W        W 3233  14.654   5.917  13.525
39301W        W 3234   0.326   0.309  11.588
39302W        W 3235  37.458  43.441   4.126
39303W        W 3236   8.889   8.295   0.308
39304W        W 3237   6.307  35.479  10.565
39305W        W 3238  30.104  25.571   2.762
39306W        W 3239  11.356  16.174  10.557
39307W        W 3240  37.348   5.699   1.331
39308W        W 3241   9.266   4.240  12.433
39309W        W 3242  42.402  12.163  14.295
39310W        W 3243  21.207  29.040  10.572
39311W        W 3244  24.228   4.811  13.883
39312W        W 3245  18.698  32.080  13.961
39313W        W 3246  28.533  36.042  14.297
39314W        W 3247   9.382  37.051  12.823
39315W        W 3248  21.699   9.269   0.772
39316W        W 3249  40.961  35.898   5.281
39317W        W 3250  28.055  28.061   3.744
39318W        W 3251  10.777  36.952  10.537
39319W        W 3252  41.010   7.787   2.784
39320W        W 3253  35.868  26.640   4.263
39321W        W 3254  35.879  19.721  11.510
39322W        W 3255  42.485  32.405  14.844
39323W        W 3256  17.706   3.379  13.852
39324W        W 3257  10.784  38.340   1.890
39325W        W 3258  38.837  37.459   3.174
39326W        W 3259  11.320  25.556  13.031
39327W        W 3260  26.659  11.629   2.855
39328W        W 3261  33.467  20.162  13.417
39329W        W 3262  42.488  32.605   4.710
39330W        W 3263  27.575   8.302  12.834
39331W        W 3264   1.323   1.899  14.284
39332W        W 3265  31.550  19.542  12.536
39333W        W 3266  27.043  28.566  11.382
39334W        W 3267   5.432  22.575  10.536
39335W        W 3268  40.318  26.104  13.839
39336W        W 3269  28.945  44.792  10.090
39337W        W 3270  35.104  29.651   0.346
39338W        W 3271  12.208  43.917  13.957
39339W        W 3272  42.319  29.012   1.751
39340W        W 3273  29.494  21.682   2.249
39341W        W 3274  26.155  36.922   1.431
39342W        W 3275  13.211  44.278   1.723
39343W        W 3276  34.872   7.801  14.030
39344W        W 3277  29.510   8.762   1.885
39345W        W 3278  33.898  31.443   0.775
39346W        W 3279  34.101  36.490   4.333
39347W        W 3280  27.051  28.032  13.055
39348W        W 3281  26.487  25.189   3.751
39349W        W 3282  16.186  16.615  14.388
39350W        W 3283  23.176  13.689   3.206
39351W        W 3284  42.476  36.927  14.784
39352W        W 3285  12.350  35.548   2.674
39353W        W 3286  17.628   2.424  11.584
39354W        W 3287  25.167   6.426  11.528
39355W        W 3288  32.579   4.739  12.431
39356W        W 3289   4.302  38.970  11.537
39357W        W 3290  24.064   4.416  10.579
39358W        W 3291  32.063  40.402   3.846
39359W        W 3292  28.069   8.182   1.804
39360W        W 3293   2.869  22.529  12.432
39361W        W 3294  16.103  12.292   4.304
39362W        W 3295  30.555  16.108   1.382
39363W        W 3296  10.137  14.773  13.816
39364W        W 3297  20.232  15.783   9.616
39365W        W 3298  40.863  21.119   0.314
39366W        W 3299  36.034  10.207   4.222
39367W        W 3300  38.074  28.660   4.718
39368W        W 3301  24.585  41.882  12.942
39369W        W 3302   8.677   0.876   2.861
39370W        W 3303  44.299  31.943  14.854
39371W        W 3304  22.006  12.807  13.496
39372W        W 3305  41.835  17.183  10.996
39373W        W 3306  32.502   6.823  11.573
39374W        W 3307  13.132  15.724  12.032
39375W        W 3308   3.410  34.496  13.405
39376W        W 3309  23.691  31.451   4.625
39377W        W 3310  24.677  25.524   3.320
39378W        W 3311   0.849  36.590  13.395
39379W        W 3312  39.854  39.061   1.323
39380W        W 3313  22.542  42.993  14.768
39381W        W 3314  35.929  29.618  11.597
39382W        W 3315  26.680  42.840   5.210
39383W        W 3316  25.616  13.207  14.872
39384W        W 3317  19.090  26.595   0.866
39385W        W 3318  10.672  42.318   4.242
39386W        W 3319  39.429   7.777  14.291
39387W        W 3320  33.982  36.021  14.987
39388W        W 3321  12.177  37.029   0.287
39389W        W 3322  18.560   7.713  11.898
39390W        W 3323  11.858  34.394  13.452
39391W        W 3324   4.291   3.331  11.100
39392W        W 3325  21.230  29.633  14.831
39393W        W 3326  13.308  32.997   1.351
39394W        W 3327  13.694  39.998   3.366
39395W        W 3328  40.491  14.731  13.967
39396W        W 3329  41.310  39.900   2.348
39397W        W 3330  23.110  16.138   1.214
39398W        W 3331  40.923  18.218   3.792
39399W        W 3332  35.553  42.334  14.294
39400W        W 3333  42.523   2.301  14.834
39401W        W 3334  29.549  35.523   2.880
39402W        W 3335  19.669  30.458  12.869
39403W        W 3336  16.296   4.274  14.980
39404W        W 3337  28.003  21.159   3.292
39405W        W 3338  26.691   5.353  11.504
39406W        W 3339  23.204  43.980   0.270
39407W        W 3340  32.054  19.544  10.522
39408W        W 3341  42.004  43.928   0.948
39409W        W 3342  43.474   2.382  11.058
39410W        W 3343  26.027   1.894   1.917
39411W        W 3344  35.524  43.013   1.280
39412W        W 3345  10.310  12.340   4.173
39413W        W 3346  43.514   9.210   0.302
39414W        W 3347  31.434  41.523  11.883
39415W        W 3348  10.360  13.784   4.764
39416W        W 3349  11.682  21.128   1.725
39417W        W 3350  10.765  28.990  14.001
39418W        W 3351  27.673  23.062  12.351
39419W        W 3352  17.648  24.523   4.257
39420W        W 3353  15.703  36.506  13.840
39421W        W 3354  31.634  19.726   2.346
39422W        W 3355  29.087  32.021  11.976
39423W        W 3356  23.148  40.894   1.762
39424W        W 3357  13.767  28.175   1.386
39425W        W 3358  19.178  38.421  10.978
39426W        W 3359  15.103  41.480   1.806
39427W        W 3360  34.092  40.443  12.897
39428W        W 3361   8.184  28.504  11.455
39429W        W 3362  34.989  29.170  12.376
39430W        W 3363  44.908  18.268   4.116
39431W        W 3364  20.102  18.231   2.895
39432W        W 3365  14.651  38.843   1.811
39433W        W 3366  28.050  30.119  12.001
39434W        W 3367  44.361  27.088   3.838
39435W        W 3368  27.030  11.271  14.379
39436W        W 3369  42.457  29.428   1.375
39437W        W 3370  13.146  14.261   4.308
39438W        W 3371   6.758  15.644  13.468
39439W        W 3372  34.456  30.928  12.025
39440W        W 3373  33.558  35.028   1.711
39441W        W 3374  25.106  41.036   0.798
39442W        W 3375  19.740  39.890  13.485
39443W        W 3376   6.793  13.706  12.573
39444W        W 3377  12.200   0.771   3.245
39445W        W 3378  28.173  43.765   1.838
39446W        W 3379  20.188  39.452   3.831
39447W        W 3380  36.089  27.071   4.343
39448W        W 3381  35.005  22.635  11.876
39449W        W 3382  16.764   7.283   2.387
39450W        W 3383  22.130  11.305   3.322
39451W        W 3384   7.302  36.891   1.232
39452W        W 3385  15.588  35.061  14.802
39453W        W 3386  33.492  27.103  12.557
39454W        W 3387  27.157  25.063  13.402
39455W        W 3388  11.726  37.467   0.788
39456W        W 3389  12.251   3.223  11.110
39457W        W 3390   2.967  11.713  13.438
39458W        W 3391  34.960  20.158  12.432
39459W        W 3392  36.928  20.598   2.843
39460W        W 3393  40.940  38.972   3.251
39461W        W 3394  15.675  43.810  13.877
39462W        W 3395  34.867   5.327  12.477
39463W        W 3396  34.900  33.987  11.584
39464W        W 3397   5.792  25.030   3.709
39465W        W 3398  19.638  30.636   0.293
39466W        W 3399  43.889  22.198   4.166
39467W        W 3400  42.369  11.335   3.830
39468W        W 3401  42.794   5.829  11.594
39469W        W 3402  36.038  14.254   2.820
39470W        W 3403   8.393  42.472   2.673
39471W        W 3404  32.134  21.696   1.445
39472W        W 3405   0.870  13.114  11.503
39473W        W 3406  36.426  29.632   0.881
39474W        W 3407  19.679  37.066  14.859
39475W        W 3408  43.474  19.597  12.067
39476W        W 3409  37.013  40.900   1.780
39477W        W 3410   1.402  28.501  13.369
39478W        W 3411  33.916  37.848   4.305
39479W        W 3412  34.105  40.920   0.734
39480W        W 3413  41.891  25.162  14.842
39481W        W 3414   7.686  22.207   1.314
39482W        W 3415  29.502  18.686   2.713
39483W        W 3416  27.098  23.535   3.758
39484W        W 3417  19.640  42.395  11.507
39485W        W 3418   1.804   6.758  14.316
39486W        W 3419  10.878   9.854   4.222
39487W        W 3420  20.176  20.266   0.328
39488W        W 3421   8.251  20.554  11.985
39489W        W 3422  16.196  40.503  12.035
39490W        W 3423  24.127  40.334  12.457
39491W        W 3424  31.053   5.819   2.223
39492W        W 3425  43.990  24.513   3.646
39493W        W 3426   7.778  19.553  14.916
39494W        W 3427  22.675  16.666  11.975
39495W        W 3428   7.274  30.933   1.351
39496W        W 3429   3.736  22.694   2.676
39497W        W 3430  36.994  27.029  14.820
39498W        W 3431  36.999   8.205   2.687
39499W        W 3432  33.454   4.757  14.980
39500W        W 3433  31.614   9.366   1.326
39501W        W 3434  43.309  35.929   1.823
39502W        W 3435  10.667  33.470   3.349
39503W        W 3436  32.472   8.789   4.632
39504W        W 3437   1.386   5.828  13.433
39505W        W 3438  20.118   0.809   1.699
39506W        W 3439  19.163   1.455   2.730
39507W        W 3440  30.115  15.727   4.825
39508W        W 3441  38.428  21.697   4.311
39509W        W 3442  32.131  41.027  11.946
39510W        W 3443  37.918  10.678  11.978
39511W        W 3444  12.243   6.725   0.283
39512W        W 3445  20.128  38.533  12.340
39513W        W 3446  14.751  11.777  10.529
39514W        W 3447  34.985   8.340   3.320
39515W        W 3448   4.412  33.494   4.122
39516W        W 3449  40.547  38.428   5.240
39517W        W 3450  15.780   8.691   2.401
39518W        W 3451  31.150  42.019   0.467
39519W        W 3452  26.152  10.260  10.541
39520W        W 3453  38.927  14.632   1.360
39521W        W 3454  28.991  42.973  13.493
39522W        W 3455  30.480   3.858   4.185
39523W        W 3456  28.592  42.993   0.761
39524W        W 3457   7.738  14.827   1.215
39525W        W 3458  24.550   9.257   2.263
39526W        W 3459  18.268   2.345  13.316
39527W        W 3460  14.632  44.944   0.299
39528W        W 3461  30.034  30.049   1.238
39529W        W 3462  14.331  36.873   1.299
39530W        W 3463   0.830  30.580  12.081
39531W        W 3464   4.387   6.834   2.208
39532W        W 3465  29.126  21.653   0.418
39533W        W 3466  19.052  12.281   3.641
39534W        W 3467  23.658   9.249   4.329
39535W        W 3468  29.502  14.128  11.454
39536W        W 3469  15.324  26.592   0.334
39537W        W 3470  13.771  24.158   2.900
39538W        W 3471   6.723   8.344  14.390
39539W        W 3472   9.203  26.564   2.661
39540W        W 3473  30.598   6.724  10.415
39541W        W 3474  36.507   4.728   2.836
39542W        W 3475  31.581  26.485   4.633
39543W        W 3476  14.257   8.168   2.886
39544W        W 3477  11.182  29.063  14.302
39545W        W 3478  26.036  10.195   5.113
39546W        W 3479  22.218  17.219   2.818
39547W        W 3480  25.061  20.207  11.561
39548W        W 3481   7.405  39.888  10.551
39549W        W 3482  39.908   7.688  12.870
39550W        W 3483  20.165  15.588  13.448
39551W        W 3484  11.325  44.344  12.868
39552W        W 3485  43.935  22.726   2.266
39553W        W 3486   1.745   5.931   2.406
39554W        W 3487   4.915  12.299  12.056
39555W        W 3488  41.973   8.218   0.256
39556W        W 3489  36.352  34.416   9.934
39557W        W 3490  31.125  14.297  14.793
39558W        W 3491   1.455  40.537  14.318
39559W        W 3492  44.815  41.434  11.940
39560W        W 3493  41.473  29.078   0.284
39561W        W 3494  11.141   9.323  12.440
39562W        W 3495  20.596  17.755   1.864
39563W        W 3496  35.095   3.272   0.339
39564W        W 3497   2.892  19.612   2.779
39565W        W 3498  15.669  16.173   2.221
39566W        W 3499  39.501  26.081  12.832
39567W        W 3500  17.703   1.412   3.777
39568W        W 3501   1.738   0.747  14.970
39569W        W 3502  34.904   5.784  14.390
39570W        W 3503   8.699  20.657   0.263
39571W        W 3504  13.633  32.518  12.029
39572W        W 3505  25.668  13.758   4.725
39573W        W 3506  12.252  40.522   2.843
39574W        W 3507  31.142  14.161  11.880
39575W        W 3508  13.709  26.136   0.279
39576W        W 3509  20.635  14.157  10.912
39577W        W 3510   2.378  32.008   2.845
39578W        W 3511  10.186  44.407  14.846
39579W        W 3512  18.746   1.452  12.410
39580W        W 3513   1.243  18.200   3.824
39581W        W 3514  28.014  17.289  12.923
39582W        W 3515  42.852  31.439  14.492
39583W        W 3516  15.658  19.058   1.882
39584W        W 3517  16.727  34.925  12.351
39585W        W 3518   9.184  29.158   4.274
39586W        W 3519  16.623  26.666   1.329
39587W        W 3520  20.254  15.743   1.443
39588W        W 3521  24.720   6.908  13.977
39589W        W 3522  33.600  27.688  13.328
39590W        W 3523  44.999  10.180   2.413
39591W        W 3524  20.749  26.083   2.670
39592W        W 3525   9.648  22.196  10.521
39593W        W 3526   1.383   6.184  12.054
39594W        W 3527  37.421  24.033   1.871
39595W        W 3528  39.366  44.936   3.259
39596W        W 3529  36.915  27.447  14.801
39597W        W 3530  43.343  34.061   1.406
39598W        W 3531  28.517  12.663   2.324
39599W        W 3532   8.838   4.940  12.900
39600W        W 3533   8.312  38.498  11.499
39601W        W 3534  35.885   5.807  14.390
39602W        W 3535  23.685  34.911   2.191
39603W        W 3536  39.317  11.290  12.552
39604W        W 3537  12.843  35.505   4.192
39605W        W 3538   9.852  18.676   4.145
39606W        W 3539  22.126  33.040  10.996
39607W        W 3540   4.774   3.243  14.494
39608W        W 3541  44.957  40.886  12.509
39609W        W 3542  32.506  42.863   3.850
39610W        W 3543   5.364  23.035  12.074
39611W        W 3544  41.427   4.380  11.011
39612W        W 3545  41.307  22.100  11.519
39613W        W 3546  40.044  23.159  10.502
39614W        W 3547  26.989  15.691   0.930
39615W        W 3548   3.780  14.642  13.504
39616W        W 3549  42.473   2.756   1.731
39617W        W 3550  27.097  25.505  14.483
39618W        W 3551   0.791  37.056  14.374
39619W        W 3552  16.702  18.211  13.404
39620W        W 3553  22.653  18.134   2.389
39621W        W 3554   5.816  35.517   0.751
39622W        W 3555  16.134  38.890   1.362
39623W        W 3556  16.778  39.923  13.827
39624W        W 3557  13.287  14.099   3.760
39625W        W 3558  10.186  30.137  13.824
39626W        W 3559  34.087  43.910  14.437
39627W        W 3560  34.880  17.156  10.102
39628W        W 3561  35.569   1.731   1.720
39629W        W 3562   1.754  38.483   4.829
39630W        W 3563  40.861   3.782  11.400
39631W        W 3564   2.731  19.074  13.827
39632W        W 3565  24.146   2.398   1.889
39633W        W 3566  37.038  36.869  14.840
39634W        W 3567  38.026  10.208  14.876
39635W        W 3568   8.164  39.832  10.403
39636W        W 3569  43.487  21.700   3.314
39637W        W 3570   7.383  44.932   3.318
39638W        W 3571   6.323  12.274  14.949
39639W        W 3572  18.684  23.509  13.810
39640W        W 3573  34.911   7.893   1.433
39641W        W 3574   9.743  26.555   1.752
39642W        W 3575   9.800  31.556  13.517
39643W        W 3576  22.510  34.590   3.231
39644W        W 3577   1.894  43.913   3.161
39645W        W 3578  35.593  39.921  11.420
39646W        W 3579   3.897  14.191  11.107
39647W        W 3580   0.400  17.292  13.028
39648W        W 3581  19.669  30.580  13.815
39649W        W 3582  28.648  40.880   1.758
39650W        W 3583  40.349  29.934  10.959
39651W        W 3584  28.536  28.948   2.387
39652W        W 3585  31.432  39.492   2.269
39653W        W 3586  27.042   7.307  14.459
39654W        W 3587  41.411  36.509  13.792
39655W        W 3588   2.901  44.382   4.696
39656W        W 3589  42.782  24.550   2.327
39657W        W 3590  10.763  41.455   0.864
39658W        W 3591  40.345   1.251   0.357
39659W        W 3592  41.362  18.230   1.742
39660W        W 3593  31.569  44.937   2.213
39661W        W 3594  30.076  12.822   0.310
39662W        W 3595  29.453  31.936   9.938
39663W        W 3596   9.214  24.202  11.542
39664W        W 3597   7.192  43.019  14.883
39665W        W 3598  30.940  35.858   4.238
39666W        W 3599  11.250  38.456   2.753
39667W        W 3600  34.039  41.816   0.933
39668W        W 3601  32.004  42.853   4.610
39669W        W 3602  17.232  33.396   2.227
39670W        W 3603  25.540   5.766  14.902
39671W        W 3604  32.067   2.459   3.177
39672W        W 3605  11.245   0.773  11.512
39673W        W 3606  29.049   3.909  13.920
39674W        W 3607  10.138   5.281  11.943
39675W        W 3608  41.533  40.851  13.936
39676W        W 3609  27.091   9.168   1.858
39677W        W 3610  33.542  26.074   0.790
39678W        W 3611  26.018  43.423  10.892
39679W        W 3612  36.892  11.164   0.332
39680W        W 3613  15.790  17.256  12.035
39681W        W 3614  40.508  26.066   3.857
39682W        W 3615   6.349  39.879  12.967
39683W        W 3616   3.429  12.333  14.516
39684W        W 3617  13.111  18.739   2.825
39685W        W 3618   7.417  12.303  13.855
39686W        W 3619  10.848  42.401  10.997
39687W        W 3620  25.107  35.071  14.497
39688W        W 3621  41.931  28.996   3.385
39689W        W 3622  42.845  13.622  11.119
39690W        W 3623  26.032   5.376  11.596
39691W        W 3624  34.546  23.073  10.942
39692W        W 3625  40.866  22.017   4.220
39693W        W 3626  32.421  36.409   4.728
39694W        W 3627  15.782   2.384  12.524
39695W        W 3628  22.225  21.737   0.834
39696W        W 3629  28.632   7.824  13.991
39697W        W 3630   0.415   5.724  13.946
39698W        W 3631  20.168  16.112  12.406
39699W        W 3632  24.551  21.741  11.406
39700W        W 3633  31.459  14.619  14.837
39701W        W 3634   5.817  15.769  14.920
39702W        W 3635  33.491  35.064   0.377
39703W        W 3636  18.788  27.087   0.416
39704W        W 3637   4.836  41.342   1.304
39705W        W 3638  26.167  35.090  10.541
39706W        W 3639  21.057  38.822  13.903
39707W        W 3640   0.986  33.092  14.484
39708W        W 3641  40.345  19.065   1.451
39709W        W 3642  25.214  27.092  12.845
39710W        W 3643  14.722  20.029   0.822
39711W        W 3644   5.851  22.526   4.686
39712W        W 3645   8.683  19.705  13.940
39713W        W 3646  38.878  15.112   3.224
39714W        W 3647   3.431   7.800  12.476
39715W        W 3648  27.094  22.042  10.483
39716W        W 3649  20.644  17.123   5.226
39717W        W 3650  11.713  43.800   2.722
39718W        W 3651  23.692   0.848  13.348
39719W        W 3652  41.344  25.980  14.313
39720W        W 3653  37.524  36.562   4.158
39721W        W 3654  27.607  36.446  10.596
39722W        W 3655  23.727  20.719   1.405
39723W        W 3656  34.497  40.972  13.802
39724W        W 3657  33.956  16.653   4.158
39725W        W 3658  19.613   6.386  14.846
39726W        W 3659  44.972   8.205   0.245
39727W        W 3660  24.074  20.208  14.367
39728W        W 3661  14.829  28.068  12.507
39729W        W 3662  12.154  27.011  14.994
39730W        W 3663  30.617  32.939  14.947
39731W        W 3664  11.270   4.214  11.516
39732W        W 3665  36.963   6.373   4.167
39733W        W 3666   7.759  16.100  14.805
39734W        W 3667  18.558  30.652   2.210
39735W        W 3668  19.766  32.006  13.449
39736W        W 3669   5.293  27.194   5.256
39737W        W 3670   2.774  13.330  11.001
39738W        W 3671  41.811  20.183  11.405
39739W        W 3672  33.974  12.276   4.301
39740W        W 3673   4.401  20.556  13.471
39741W        W 3674  32.539  33.970   0.739
39742W        W 3675  17.583  24.564  11.127
39743W        W 3676  26.074  33.130  12.048
39744W        W 3677   2.931  35.045  13.493
39745W        W 3678  12.286  24.157  13.060
39746W        W 3679  30.010   4.216   4.277
39747W        W 3680  40.854  19.777  13.961
39748W        W 3681   7.181  31.076   2.222
39749W        W 3682  40.452  24.535   4.683
39750W        W 3683  38.330  41.818   3.221
39751W        W 3684  22.055  34.923   4.639
39752W        W 3685  10.197   6.720   3.182
39753W        W 3686  36.078  36.993   2.893
39754W        W 3687  32.484  30.099  13.923
39755W        W 3688  20.569  13.256  14.917
39756W        W 3689  31.122  38.401  14.344
39757W        W 3690   5.214  25.529   5.261
39758W        W 3691  24.533   4.902  11.117
39759W        W 3692  41.412   4.796  10.509
39760W        W 3693  36.373  13.277   0.962
39761W        W 3694  42.992  29.972   4.309
39762W        W 3695   0.808   5.338   1.893
39763W        W 3696   4.288  17.218   0.321
39764W        W 3697   2.227  11.827   3.218
39765W        W 3698  13.604   6.750  14.849
39766W        W 3699  32.550  26.545  14.409
39767W        W 3700   8.826   9.679   2.242
39768W        W 3701   9.212  43.435   0.842
39769W        W 3702  20.747  13.316   2.691
39770W        W 3703  36.573  14.691  12.886
39771W        W 3704   2.945  35.463  12.500
39772W        W 3705  37.904   3.719  13.351
39773W        W 3706  20.533   1.747  10.485
39774W        W 3707  23.731  34.467   2.354
39775W        W 3708  41.386  16.594  12.889
39776W        W 3709  30.064  29.147  13.967
39777W        W 3710  37.972   1.404   3.854
39778W        W 3711  43.509  18.696  12.867
39779W        W 3712  35.397  11.332  11.580
39780W        W 3713  39.379  33.003   4.161
39781W        W 3714  17.621  35.071  14.882
39782W        W 3715  20.173   7.778  10.913
39783W        W 3716  27.450  40.384   1.259
39784W        W 3717  28.509  21.740  12.053
39785W        W 3718  21.157  34.959  11.559
39786W        W 3719  44.409  36.906   0.276
39787W        W 3720  28.951   6.686  13.901
39788W        W 3721  11.804  14.311  14.364
39789W        W 3722  44.488   9.838  11.424
39790W        W 3723  16.266  40.536   2.387
39791W        W 3724  39.331  24.685  11.968
39792W        W 3725   5.827   9.321   2.199
39793W        W 3726  19.682  33.456  13.916
39794W        W 3727  39.903   8.219  13.036
39795W        W 3728  44.907  27.093   3.704
39796W        W 3729   4.783  16.781  13.490
39797W        W 3730  29.611  23.496   3.211
39798W        W 3731   8.807  25.676   3.346
39799W        W 3732  35.012  32.587   4.277
39800W        W 3733  15.180  17.656  10.109
39801W        W 3734  26.010  31.580   4.259
39802W        W 3735   2.352  33.429   4.806
39803W        W 3736  16.232  43.403  14.986
39804W        W 3737  13.732  29.479  14.771
39805W        W 3738  37.441  24.200   3.849
39806W        W 3739  37.398  23.153  13.792
39807W        W 3740   0.965   3.451  11.373
39808W        W 3741  43.487  36.010  11.458
39809W        W 3742  13.773  32.085   0.289
39810W        W 3743  21.547  44.415   9.987
39811W        W 3744  36.966  20.031  12.829
39812W        W 3745  16.715   7.721   2.728
39813W        W 3746  21.609  21.120  13.046
39814W        W 3747   5.874  30.146   4.719
39815W        W 3748  12.826  10.174   3.754
39816W        W 3749   3.732  35.922   1.385
39817W        W 3750  35.592  44.762  10.905
39818W        W 3751   9.669  37.914  10.633
39819W        W 3752  19.723  35.012   2.325
39820W        W 3753   2.232   4.415   3.781
39821W        W 3754   9.216  19.744   0.277
39822W        W 3755  42.996  13.166  13.026
39823W        W 3756  41.877  32.068   2.818
39824W        W 3757   8.172  26.668   0.454
39825W        W 3758   4.920  25.529   9.644
39826W        W 3759  21.159  20.697  13.861
39827W        W 3760   0.980  38.570  14.897
39828W        W 3761  36.996  43.353   2.262
39829W        W 3762  26.609  19.638   5.204
39830W        W 3763   5.853  41.017  13.989
39831W        W 3764   9.757  15.643   3.736
39832W        W 3765  34.434  33.999   3.357
39833W        W 3766  25.215   3.736  13.942
39834W        W 3767   9.209   2.928  11.447
39835W        W 3768  36.852  38.886   1.323
39836W        W 3769  11.248  19.050   2.825
39837W        W 3770  20.707  26.501   5.128
39838W        W 3771  11.793   9.717  12.032
39839W        W 3772   3.371  32.953   2.396
39840W        W 3773  36.539   9.209  10.514
39841W        W 3774  19.685  38.371   3.323
39842W        W 3775  28.116   4.356   1.896
39843W        W 3776  41.856  32.103  12.556
39844W        W 3777  38.368  26.200  11.878
39845W        W 3778  25.623   8.220   0.954
39846W        W 3779   5.740  31.646  14.935
39847W        W 3780  28.177   2.451   3.721
39848W        W 3781  18.655   7.269   0.930
39849W        W 3782  21.258   4.226   2.206
39850W        W 3783   4.410  33.437   0.793
39851W        W 3784   9.379  40.416  13.513
39852W        W 3785  29.598  34.406   3.235
39853W        W 3786   4.810  41.871  13.428
39854W        W 3787  34.600  13.304  12.064
39855W        W 3788  21.084  28.628   2.753
39856W        W 3789  29.538  40.444   4.232
39857W        W 3790  25.132  40.531  13.948
39858W        W 3791   8.402  39.550   0.478
39859W        W 3792  18.560  38.057  13.363
39860W        W 3793   2.765  20.110  11.488
39861W        W 3794   6.839   5.791  12.071
39862W        W 3795  38.472  41.969   4.793
39863W        W 3796   4.737  18.760   4.767
39864W        W 3797  39.462  42.486  12.077
39865W        W 3798  25.107  31.412  13.925
39866W        W 3799   3.890   0.875  14.795
39867W        W 3800  43.451   9.210   2.727
39868W        W 3801  10.279  18.557   2.211
39869W        W 3802  15.167  24.148  14.987
39870W        W 3803   9.874  27.604  13.932
39871W        W 3804   6.387   2.731   4.244
39872W        W 3805  14.254  21.017   4.119
39873W        W 3806  17.663  44.309   3.806
39874W        W 3807  34.021  37.979  12.453
39875W        W 3808  14.201  39.399   4.162
39876W        W 3809  32.002  37.451   3.341
39877W        W 3810  10.171   2.287   4.141
39878W        W 3811  21.056  27.125   2.229
39879W        W 3812  28.545  27.145   4.654
39880W        W 3813  10.858  34.603   2.222
39881W        W 3814  23.581   6.700   1.338
39882W        W 3815  31.578   4.360   1.825
39883W        W 3816   9.257  22.236   4.773
39884W        W 3817  30.046  21.208   2.197
39885W        W 3818   1.293  11.693  12.537
39886W        W 3819  27.951  39.380   0.452
39887W        W 3820  20.651  32.469   0.458
39888W        W 3821   7.818   8.273  12.538
39889W        W 3822  33.467  27.558  12.009
39890W        W 3823  40.488  18.707   2.720
39891W        W 3824   5.398  26.199  13.010
39892W        W 3825  25.021  44.898  10.494
39893W        W 3826  33.502  39.034  14.835
39894W        W 3827  30.557  36.981   2.226
39895W        W 3828  35.088  43.907   3.244
39896W        W 3829   9.742   4.761  11.976
39897W        W 3830  25.584  14.674  14.361
39898W        W 3831  22.055  43.899   3.347
39899W        W 3832   5.765  19.224  10.503
39900W        W 3833  34.995   5.841   2.742
39901W        W 3834  34.465  28.465   3.800
39902W        W 3835  22.106  44.930   1.288
39903W        W 3836  23.126  33.008   0.905
39904W        W 3837  36.514  19.603  10.929
39905W        W 3838  16.088  31.971  11.881
39906W        W 3839  17.614  26.134   2.216
39907W        W 3840  42.957  29.609  10.438
39908W        W 3841   3.750   4.842  10.474
39909W        W 3842  44.886  14.681  10.997
39910W        W 3843  16.771  35.855  10.404
39911W        W 3844  29.994  40.035  11.596
39912W        W 3845  38.972  18.733   2.692
39913W        W 3846  14.628  17.288  13.022
39914W        W 3847  16.762  14.285  12.389
39915W        W 3848  19.259  25.526   2.417
39916W        W 3849  26.118   2.421  14.288
39917W        W 3850  21.709  44.402  10.910
39918W        W 3851   9.380  10.170   2.398
39919W        W 3852  44.338  11.141  13.833
39920W        W 3853  28.469  14.798  10.478
39921W        W 3854  42.413  35.533   0.792
39922W        W 3855  25.567  17.062   3.370
39923W        W 3856   6.288  27.496  12.576
39924W        W 3857  27.537  20.061  13.392
39925W        W 3858  29.037   2.798  13.878
39926W        W 3859  25.569  15.277  11.997
39927W        W 3860  28.985  13.780   2.860
39928W        W 3861  43.444   2.359   3.243
39929W        W 3862  40.345  22.068  11.077
39930W        W 3863  36.939  44.350  14.852
39931W        W 3864  19.767  31.989  10.533
39932W        W 3865  39.517  16.684   0.810
39933W        W 3866   4.331  36.952   3.375
39934W        W 3867  44.471   3.785   2.800
39935W        W 3868  28.179  23.671  13.439
39936W        W 3869  13.603  21.551  11.477
39937W        W 3870   4.861  39.957   1.269
39938W        W 3871  11.298  23.054   4.197
39939W        W 3872  30.946   0.811   4.666
39940W        W 3873   5.257  37.579  13.024
39941W        W 3874   9.812  38.381   0.323
39942W        W 3875  20.035   1.830   2.405
39943W        W 3876  20.766   3.840  12.046
39944W        W 3877  26.036  37.545  10.992
39945W        W 3878   1.248  33.030  14.276
39946W        W 3879  28.961  16.706  11.431
39947W        W 3880   0.910   9.384   2.356
39948W        W 3881  19.084  17.722  14.926
39949W        W 3882  28.507  41.351  13.421
39950W        W 3883  39.864  35.965   1.847
39951W        W 3884  29.574  44.001  10.468
39952W        W 3885   0.485  23.058  10.612
39953W        W 3886  11.215   8.338  13.917
39954W        W 3887   1.862  27.097  11.439
39955W        W 3888   2.868  14.167  14.301
39956W        W 3889  10.255  19.138   3.250
39957W        W 3890  23.226  26.150   4.205
39958W        W 3891  36.483  43.838  11.062
39959W        W 3892  29.919   6.816   0.801
39960W        W 3893  39.833  29.019  11.908
39961W        W 3894  27.692   2.869   4.835
39962W        W 3895  24.085  38.931  14.797
39963W        W 3896  36.423   8.713   2.875
39964W        W 3897   1.793  12.625  14.781
39965W        W 3898  38.431  19.746  13.849
39966W        W 3899   3.303  43.839  12.339
39967W        W 3900  23.233  38.050  13.376
39968W        W 3901  12.323   9.738  12.360
39969W        W 3902  19.651  29.979  10.458
39970W        W 3903  33.040  21.023   4.805
39971W        W 3904  29.668   0.409   2.246
39972W        W 3905  26.955  20.668   2.265
39973W        W 3906  30.042   9.365   0.860
39974W        W 3907   2.226  13.685   4.747
39975W        W 3908  19.083   5.382   4.196
39976W        W 3909   4.373  26.626   0.896
39977W        W 3910   1.861  37.856   4.808
39978W        W 3911  41.929  35.413  12.476
39979W        W 3912  12.146  19.738  13.537
39980W        W 3913  22.245  14.143   3.842
39981W        W 3914  30.962  22.607  14.490
39982W        W 3915  39.810  33.429   3.715
39983W        W 3916  14.256  17.556  14.812
39984W        W 3917  36.974   2.794  10.953
39985W        W 3918  21.249   9.885  14.493
39986W        W 3919   4.896   2.726   0.874
39987W        W 3920   5.328  35.528   4.171
39988W        W 3921  39.027   7.772  14.018
39989W        W 3922   2.420   7.733   3.838
39990W        W 3923  40.472   9.766   4.809
39991W        W 3924  32.125  13.192   4.353
39992W        W 3925  32.996  27.583   1.447
39993W        W 3926  22.671   3.411   1.886
39994W        W 3927  12.234  44.938   1.916
39995W        W 3928   6.690  13.320  14.411
39996W        W 3929  25.613  43.927   3.305
39997W        W 3930  40.995  14.252  11.073
39998W        W 3931  28.163  18.206  14.430
39999W        W 3932  21.097  38.056   4.342
40000W        W 3933  26.140  14.820  12.088
40001W        W 3934  25.684   3.363  11.410
40002W        W 3935   2.744  42.400   4.643
40003W        W 3936  32.079   6.303  11.487
40004W        W 3937   2.880   0.442  11.416
40005W        W 3938  43.418   3.320   0.392
40006W        W 3939   6.790  40.006  12.533
40007W        W 3940  23.674  34.574  13.510
40008W        W 3941  19.558  43.392   0.324
40009W        W 3942  25.597   0.358   3.366
40010W        W 3943  25.549  28.150   1.278
40011W        W 3944  33.527  31.093  11.581
40012W        W 3945   6.252  29.517  11.099
40013W        W 3946  25.557  18.268   1.927
40014W        W 3947  39.819  14.339  12.084
40015W        W 3948  42.782   3.239   0.448
40016W        W 3949  29.515  32.519   2.856
40017W        W 3950  22.044   2.955  13.527
40018W        W 3951   5.881  22.717   3.740
40019W        W 3952  16.160  25.108  12.373
40020W        W 3953  40.378  33.415  11.876
40021W        W 3954  31.992   2.333   0.876
40022W        W 3955  28.448  39.401  11.904
40023W        W 3956  39.381   4.303  14.832
40024W        W 3957  31.499  31.057   1.443
40025W        W 3958  33.526  15.771   2.708
40026W        W 3959  11.318  42.341  14.509
40027W        W 3960   6.275   3.328   1.876
40028W        W 3961  26.606  38.346  11.562
40029W        W 3962  12.318   1.294  14.842
40030W        W 3963  13.796  13.825  13.930
40031W        W 3964   3.358  36.865  11.404
40032W        W 3965  22.677  29.510  13.312
40033W        W 3966  10.219  12.318   2.206
40034W        W 3967  42.831  20.173  10.971
40035W        W 3968  16.161  24.218  10.575
40036W        W 3969  24.507  37.471  14.027
40037W        W 3970   6.298  13.285   2.399
40038W        W 3971  39.418   9.172  11.975
40039W        W 3972  23.242  44.412   1.421
40040W        W 3973  31.154   4.906  13.413
40041W        W 3974  41.443  40.968  11.857
40042W        W 3975  34.390   9.344  10.635
40043W        W 3976  19.740  20.197   3.791
40044W        W 3977   3.301  22.232  14.926
40045W        W 3978   3.280  40.408   3.356
40046W        W 3979  43.774  22.218  13.329
40047W        W 3980   2.403  16.137   2.869
40048W        W 3981   2.724   2.416   0.819
40049W        W 3982  29.150  10.202  10.564
40050W        W 3983  23.726   5.729   3.334
40051W        W 3984  30.033  36.584  13.468
40052W        W 3985  26.459  12.655   2.348
40053W        W 3986  42.937  38.007  12.910
40054W        W 3987  42.467  34.593   9.948
40055W        W 3988  38.032  24.037  14.866
40056W        W 3989  33.065   8.389   0.461
40057W        W 3990   7.805  36.502   2.275
40058W        W 3991  24.657  38.070  10.599
40059W        W 3992  24.606  21.756   3.736
40060W        W 3993  43.927  36.009   1.848
40061W        W 3994  16.260  28.452   2.855
40062W        W 3995  24.182  14.319   1.832
40063W        W 3996  18.162  22.236   3.154
40064W        W 3997  34.048  41.440  13.408
40065W        W 3998   8.727  29.610  11.508
40066W        W 3999  27.540  41.905  11.538
40067W        W 4000  17.693  19.640   3.204
40068W        W 4001  40.425  30.558   3.640
40069W        W 4002  24.628  34.900  12.876
40070W        W 4003  32.409  21.543  13.499
40071W        W 4004  24.024  12.744  14.891
40072W        W 4005   9.831  39.374   3.652
40073W        W 4006  12.139  27.517   2.318
40074W        W 4007  30.995  10.374   2.690
40075W        W 4008  36.011  42.443  12.912
40076W        W 4009  32.516   8.163  13.488
40077W        W 4010  34.887  19.720   3.187
40078W        W 4011  42.511   9.801  11.017
40079W        W 4012  30.441   4.708  13.315
40080W        W 4013  18.147  19.621  13.955
40081W        W 4014  25.632  36.455   1.901
40082W        W 4015  29.106  25.164   4.810
40083W        W 4016  42.808  23.057   4.809
40084W        W 4017   3.265  40.038  14.816
40085W        W 4018   4.275   0.309   0.362
40086W        W 4019  13.633  37.486   3.701
40087W        W 4020  41.464  28.672  12.988
40088W        W 4021  32.461  13.282   0.847
40089W        W 4022  36.852  11.808  14.438
40090W        W 4023  23.560  29.053  12.925
40091W        W 4024  40.797  34.532   1.893
40092W        W 4025  22.561  33.536   1.390
40093W        W 4026  29.442   3.254  10.458
40094W        W 4027  11.269  19.638  13.502
40095W        W 4028  33.899  34.065   3.819
40096W        W 4029   8.719  11.664   1.822
40097W        W 4030  27.183  23.626  10.465
40098W        W 4031  22.238  40.839   0.764
40099W        W 4032   4.783  17.134  12.021
40100W        W 4033  15.303   5.240  10.054
40101W        W 4034  14.655  39.860  10.644
40102W        W 4035  12.677  37.888  11.932
40103W        W 4036   9.293  22.995  13.411
40104W        W 4037  29.031  23.226   3.755
40105W        W 4038   8.374  31.031   2.836
40106W        W 4039  43.274  28.077  13.022
40107W        W 4040  19.127  22.147   4.209
40108W        W 4041  38.536  19.628  13.488
40109W        W 4042   3.362  43.999  10.932
40110W        W 4043  19.159  15.210  10.512
40111W        W 4044  31.459  27.551   0.378
40112W        W 4045   4.306  34.386  14.292
40113W        W 4046  19.185  31.596  13.487
40114W        W 4047  13.609  36.522  12.865
40115W        W 4048  39.325  28.458  12.492
40116W        W 4049  40.548  18.214  13.379
40117W        W 4050  21.655   1.453  14.309
40118W        W 4051  34.593   9.214   1.805
40119W        W 4052  19.245  42.937  12.883
40120W        W 4053  23.603  38.401  12.401
40121W        W 4054   1.260  39.352  14.468
40122W        W 4055  25.494  41.413   0.432
40123W        W 4056  14.309  21.085   3.816
40124W        W 4057  33.064  19.241  11.868
40125W        W 4058  18.590  39.997   3.289
40126W        W 4059  12.124   9.179  12.526
40127W        W 4060  24.980  10.840  11.984
40128W        W 4061  41.385   4.236   3.239
40129W        W 4062  25.559  12.721  11.557
40130W        W 4063   0.374  16.591  12.932
40131W        W 4064   2.281   1.266  14.771
40132W        W 4065  44.922  12.347   3.191
40133W        W 4066   6.761   3.414  14.398
40134W        W 4067  36.863  41.023   0.303
40135W        W 4068  31.963  35.382  11.951
40136W        W 4069  21.669   6.368  13.394
40137W        W 4070   0.458   7.334   1.429
40138W        W 4071  33.127  28.967  11.518
40139W        W 4072  36.091  28.553  11.864
40140W        W 4073  25.014   5.430   3.683
40141W        W 4074  16.590  22.053  12.873
40142W        W 4075  25.508   3.426  14.005
40143W        W 4076   3.950   9.155   0.297
40144W        W 4077  40.899  25.687   3.325
40145W        W 4078   3.815   5.864   9.972
40146W        W 4079  30.629  28.452   1.433
40147W        W 4080   3.216  34.114  11.577
40148W        W 4081  43.413  39.837  11.542
40149W        W 4082   1.737  25.566  13.972
40150W        W 4083   3.847  22.627  11.540
40151W        W 4084  13.811  38.360   0.412
40152W        W 4085  13.633  31.612   3.354
40153W        W 4086  17.225   6.777   2.400
40154W        W 4087  42.975  40.460   0.813
40155W        W 4088  14.209  38.428  12.468
40156W        W 4089  27.940  40.824   0.396
40157W        W 4090  41.928  17.729  10.640
40158W        W 4091   4.314  14.766   5.279
40159W        W 4092  30.450  21.726  12.823
40160W        W 4093  37.414  40.378   1.346
40161W        W 4094  38.836  27.953   5.106
40162W        W 4095   3.422  37.080   4.601
40163W        W 4096  26.082  22.606  12.919
40164W        W 4097  18.561   4.232   0.885
40165W        W 4098  16.773   4.816   4.763
40166W        W 4099  17.635  41.522   3.231
40167W        W 4100   5.809  11.162   1.436
40168W        W 4101  43.782  10.756  11.410
40169W        W 4102  23.579  44.397   4.608
40170W        W 4103   7.665  36.914   1.315
40171W        W 4104   4.382  24.015   3.160
40172W        W 4105  38.882  36.399   3.629
40173W        W 4106  40.375  14.655   3.852
40174W        W 4107  39.361  28.095   1.283
40175W        W 4108  42.841  33.946   1.418
40176W        W 4109  21.120   6.365  12.491
40177W        W 4110  18.173  11.275   2.792
40178W        W 4111  44.936  40.051  13.449
40179W        W 4112  44.782  27.026   2.359
40180W        W 4113  42.914   2.472   5.182
40181W        W 4114   0.880  33.470   2.276
40182W        W 4115   1.957  20.753   0.440
40183W        W 4116  41.969   5.897  13.355
40184W        W 4117   3.271  23.674  10.943
40185W        W 4118   0.845  41.995   3.678
40186W        W 4119  19.257  27.673   1.800
40187W        W 4120   2.229  31.112   2.382
40188W        W 4121   6.729   5.738  11.077
40189W        W 4122  31.123  17.613  12.065
40190W        W 4123   1.395  12.751   2.277
40191W        W 4124  15.797  40.418   4.724
40192W        W 4125  17.556  35.051  13.446
40193W        W 4126  13.711  13.225   3.754
40194W        W 4127  24.101   1.899   4.697
40195W        W 4128  35.046  32.464   4.626
40196W        W 4129  22.006  33.973  13.812
40197W        W 4130  11.843  41.392   2.267
40198W        W 4131  29.425  17.087   5.228
40199W        W 4132  14.799  14.284   1.913
40200W        W 4133  19.161  28.518  14.308
40201W        W 4134  20.693   0.969   3.348
40202W        W 4135  10.641  43.487   2.744
40203W        W 4136  37.911  10.762   4.809
40204W        W 4137   8.748  22.239   3.698
40205W        W 4138  36.071  11.323   0.793
40206W        W 4139  17.619  25.584  13.941
40207W        W 4140   7.851  44.791  12.373
40208W        W 4141  18.682   8.787  10.149
40209W        W 4142  17.121  38.395  12.513
40210W        W 4143  29.474  20.537   1.240
40211W        W 4144  24.975  25.478   2.253
40212W        W 4145   6.718  43.978   0.295
40213W        W 4146  41.920  27.126   3.637
40214W        W 4147  36.572  36.937  11.418
40215W        W 4148  10.648  31.052   0.920
40216W        W 4149  25.111  33.493  14.877
40217W        W 4150  30.597  22.571  10.639
40218W        W 4151  16.741  13.711  14.980
40219W        W 4152   6.288  40.445  10.897
40220W        W 4153  26.170  34.455   4.637
40221W        W 4154   4.943  11.146   1.324
40222W        W 4155  43.993  24.666   3.340
40223W        W 4156  39.010  12.306   2.696
40224W        W 4157   8.728  44.928   2.824
40225W        W 4158  34.051  42.827   1.783
40226W        W 4159  38.357  18.670  11.977
40227W        W 4160  13.150  29.542   4.234
40228W        W 4161  32.554  43.414   2.833
40229W        W 4162  15.624  41.837   0.816
40230W        W 4163  23.056   1.461   1.794
40231W        W 4164   5.906   4.864  13.928
40232W        W 4165   3.753  15.108  11.559
40233W        W 4166  31.431  44.425   0.962
40234W        W 4167  15.729  10.662   4.720
40235W        W 4168  35.425  32.957  13.922
40236W        W 4169  22.046  28.440   9.965
40237W        W 4170  31.899  35.037  10.493
40238W        W 4171  27.052  21.121   4.260
40239W        W 4172  19.244  28.089   9.562
40240W        W 4173   2.878  18.631   0.441
40241W        W 4174  17.279  29.045   2.780
40242W        W 4175  12.141  17.689   3.867
40243W        W 4176  19.121  24.722  13.327
40244W        W 4177  30.148  41.789   3.846
40245W        W 4178  34.555  40.967   4.709
40246W        W 4179   6.322  44.446  12.843
40247W        W 4180   6.213  31.976   0.445
40248W        W 4181  44.426  12.285  12.063
40249W        W 4182  35.573  31.011  13.914
40250W        W 4183  23.068  27.140  10.405
40251W        W 4184   1.856   8.293   1.295
40252W        W 4185  32.422  10.674   3.817
40253W        W 4186   8.174  25.496  12.869
40254W        W 4187  29.991  32.408   1.909
40255W        W 4188  41.970  14.235   3.827
40256W        W 4189  13.221  14.813  11.065
40257W        W 4190  23.545  34.582  10.497
40258W        W 4191   1.278  16.214  11.375
40259W        W 4192  24.990  19.066   1.778
40260W        W 4193  36.353   8.215   1.419
40261W        W 4194  24.136  23.018   3.712
40262W        W 4195   1.346  36.545   1.372
40263W        W 4196  11.866  43.008  14.275
40264W        W 4197  31.014  30.018  14.814
40265W        W 4198   5.793  44.788   2.227
40266W        W 4199   6.267  18.150   4.187
40267W        W 4200   0.911  40.435   3.271
40268W        W 4201  27.580   1.288   1.873
40269W        W 4202  17.785  36.547  14.815
40270W        W 4203  25.570  27.684  11.061
40271W        W 4204  12.337  36.933   1.420
40272W        W 4205  23.680  32.132  13.414
40273W        W 4206  25.621  37.077  13.962
40274W        W 4207   3.411  35.042   4.801
40275W        W 4208  31.907  22.202   3.854
40276W        W 4209  38.853  22.061  12.549
40277W        W 4210  40.826  12.218   4.655
40278W        W 4211  14.624  10.712  13.505
40279W        W 4212  21.045  26.477  11.107
40280W        W 4213   2.413  28.993  10.988
40281W        W 4214  21.118  44.453  10.479
40282W        W 4215  24.145  26.568   0.252
40283W        W 4216  30.162  32.483  12.341
40284W        W 4217   7.348   9.699  14.317
40285W        W 4218  29.053   6.239  13.413
40286W        W 4219  31.543  41.840  11.490
40287W        W 4220  14.785   9.252   2.315
40288W        W 4221  38.346  12.357   3.367
40289W        W 4222  30.615  23.702   2.418
40290W        W 4223  22.128  39.809  14.433
40291W        W 4224  37.498  17.604  13.487
40292W        W 4225  29.610  14.184   4.767
40293W        W 4226   6.313   9.771   4.674
40294W        W 4227  37.540  16.728   4.254
40295W        W 4228   0.956  43.299   0.303
40296W        W 4229  30.101  36.562  10.963
40297W        W 4230  20.664  11.241  11.564
40298W        W 4231  26.493   8.656   5.269
40299W        W 4232  11.861  34.502  10.136
40300W        W 4233  42.415  26.164   1.911
40301W        W 4234  36.487  22.692  10.637
40302W        W 4235  36.347  34.567  14.480
40303W        W 4236  35.501  22.027   1.922
40304W        W 4237  42.820  11.258  14.021
40305W        W 4238  12.301  28.531   0.442
40306W        W 4239  21.222  28.165  14.956
40307W        W 4240   4.422  41.992  11.859
40308W        W 4241  11.852  26.643   4.706
40309W        W 4242   9.205  37.517  14.001
40310W        W 4243  40.381  12.135  11.015
40311W        W 4244  41.383  29.463  12.450
40312W        W 4245  22.576  36.086  10.947
40313W        W 4246   2.227   9.692   0.728
40314W        W 4247  41.359  40.544  14.289
40315W        W 4248   4.419  37.013  14.027
40316W        W 4249  16.178  14.783  13.976
40317W        W 4250  23.045  31.150   1.375
40318W        W 4251   8.251  29.517  10.955
40319W        W 4252  38.846  29.035  12.482
40320W        W 4253  16.680  29.999  14.417
40321W        W 4254  26.130  28.480  10.916
40322W        W 4255   5.427  24.192   4.339
40323W        W 4256  42.507   8.285  13.805
40324W        W 4257  39.444  32.940   3.351
40325W        W 4258  40.948  41.511   4.670
40326W        W 4259  18.246  39.849  11.860
40327W        W 4260  25.494  13.722  14.427
40328W        W 4261  44.346  18.158   4.620
40329W        W 4262  40.351   6.294   0.770
40330W        W 4263   0.961  39.811  14.976
40331W        W 4264  36.061  28.525  11.475
40332W        W 4265   9.783   4.698  12.537
40333W        W 4266  22.249  18.294  14.347
40334W        W 4267  11.293  30.440  11.898
40335W        W 4268  37.969  25.094  13.797
40336W        W 4269  23.133  23.632   4.618
40337W        W 4270  19.710  28.464  11.064
40338W        W 4271  29.101  28.988   1.220
40339W        W 4272  14.167  31.610  13.937
40340W        W 4273  19.078   2.387   1.727
40341W        W 4274   1.972  32.629   4.645
40342W        W 4275  25.208  12.808   1.432
40343W        W 4276   3.216  30.043   1.364
40344W        W 4277  37.413  22.121   1.271
40345W        W 4278   8.197  12.633   3.752
40346W        W 4279  14.242  33.395   3.660
40347W        W 4280  40.978   3.831  14.432
40348W        W 4281  15.591  26.193  14.396
40349W        W 4282  36.069   9.221  11.511
40350W        W 4283  13.768  11.249  14.428
40351W        W 4284  38.988  27.463  13.403
40352W        W 4285  32.558   6.285  12.536
40353W        W 4286  37.547  42.374   3.784
40354W        W 4287  17.300  26.525  13.990
40355W        W 4288  36.374  26.603   2.737
40356W        W 4289  17.223  27.641   1.833
40357W        W 4290  21.235  22.505   0.303
40358W        W 4291  14.171   2.757   4.220
40359W        W 4292  35.008   9.757   1.275
40360W        W 4293   5.880  16.664   0.312
40361W        W 4294  31.435  26.019  12.578
40362W        W 4295  13.227  42.804   1.786
40363W        W 4296   3.446  15.645   0.423
40364W        W 4297  17.654   6.726   2.871
40365W        W 4298   3.746   7.207   3.385
40366W        W 4299  34.600  25.526   1.700
40367W        W 4300  12.814  39.064   2.846
40368W        W 4301  17.689  23.578  12.892
40369W        W 4302  10.161  32.991  13.385
40370W        W 4303  20.746  22.014   4.350
40371W        W 4304  13.175   5.265   1.420
40372W        W 4305   0.277  32.598  13.941
40373W        W 4306  36.362  26.663  13.923
40374W        W 4307  44.290  17.775   4.816
40375W        W 4308  21.153   8.741   1.375
40376W        W 4309   5.423  27.663  14.920
40377W        W 4310  10.275  28.534   3.306
40378W        W 4311  27.152  34.026  13.932
40379W        W 4312  41.444   6.222   0.793
40380W        W 4313  33.921  26.097  12.824
40381W        W 4314   9.806   4.813  11.533
40382W        W 4315  33.461   7.279   2.325
40383W        W 4316  25.515   6.356  12.954
40384W        W 4317  19.244  21.654   4.733
40385W        W 4318  39.399  16.226  11.864
40386W        W 4319  43.018  35.007  13.308
40387W        W 4320  29.075  26.492   3.248
40388W        W 4321  26.567  21.144  12.937
40389W        W 4322  42.852  24.510  12.933
40390W        W 4323   8.190   5.843  13.882
40391W        W 4324  27.122   1.291   3.281
40392W        W 4325   9.186  16.126   2.743
40393W        W 4326  41.027  44.358   1.406
40394W        W 4327   5.261  35.424  12.876
40395W        W 4328  26.996  31.442   0.283
40396W        W 4329   3.435  43.369   3.234
40397W        W 4330  12.724  43.916  14.382
40398W        W 4331  12.790  15.214   4.602
40399W        W 4332  37.582  23.132   2.305
40400W        W 4333  13.721  27.611  14.494
40401W        W 4334  44.303  21.103   5.284
40402W        W 4335  32.420  32.919  11.881
40403W        W 4336   5.205  37.551  11.038
40404W        W 4337  12.627   1.915  11.474
40405W        W 4338  10.849  33.387   2.816
40406W        W 4339   5.696  21.174   2.412
40407W        W 4340  17.592  36.525   4.253
40408W        W 4341   0.773  14.244   0.882
40409W        W 4342  21.103  39.385   0.405
40410W        W 4343  15.235   3.870  10.077
40411W        W 4344  23.053  42.374  12.955
40412W        W 4345   9.662  18.127  12.850
40413W        W 4346  19.090  40.391   0.783
40414W        W 4347   8.698  43.490  10.504
40415W        W 4348  17.731  23.508   2.239
40416W        W 4349  42.027  41.787   4.678
40417W        W 4350  36.976  15.204   3.203
40418W        W 4351   0.910  31.567  12.945
40419W        W 4352   4.206  12.658  12.514
40420W        W 4353  30.626  17.706  13.967
40421W        W 4354   2.455  18.233  11.987
40422W        W 4355   5.821  40.348  13.438
40423W        W 4356  44.492  10.231  11.587
40424W        W 4357  42.882   3.912   3.766
40425W        W 4358   5.881  13.828  14.992
40426W        W 4359  31.954  10.285  10.095
40427W        W 4360   0.947   6.692  12.517
40428W        W 4361  15.580  27.564  13.481
40429W        W 4362  28.013  22.713  12.884
40430W        W 4363  25.034  31.574   1.273
40431W        W 4364  40.435  21.103   3.791
40432W        W 4365  19.187   0.291  11.989
40433W        W 4366  14.107  25.586  12.839
40434W        W 4367  29.156   1.973  14.403
40435W        W 4368  27.174   8.833   1.359
40436W        W 4369  17.684   2.821   3.845
40437W        W 4370  21.624   2.908   0.801
40438W        W 4371   8.223  22.131   0.801
40439W        W 4372  18.656  39.493   2.309
40440W        W 4373  35.078  36.361   2.680
40441W        W 4374  34.477  34.867   0.909
40442W        W 4375   3.414   0.260   4.154
40443W        W 4376  33.386  33.990  10.550
40444W        W 4377  22.564   3.233  12.427
40445W        W 4378  33.542   3.250   5.217
40446W        W 4379  18.612   1.462  12.907
40447W        W 4380  12.836  11.686   3.295
40448W        W 4381   2.279  22.048   2.813
40449W        W 4382  34.446   8.274   3.653
40450W        W 4383  16.807   8.363  13.836
40451W        W 4384   7.201  35.068  14.457
40452W        W 4385   1.483  10.723  14.981
40453W        W 4386  28.065  25.588   3.766
40454W        W 4387  10.645   8.792  13.836
40455W        W 4388  27.581  36.471  14.469
40456W        W 4389   8.334  23.698   2.671
40457W        W 4390  34.594  44.411   1.699
40458W        W 4391   8.692  11.234  13.449
40459W        W 4392  24.046  11.261   3.380
40460W        W 4393  43.441  42.491  13.880
40461W        W 4394  17.794   7.800  13.928
40462W        W 4395  13.787  20.042   1.225
40463W        W 4396   7.764  28.969  12.942
40464W        W 4397  12.291  43.462   1.864
40465W        W 4398   6.811  16.780   0.328
40466W        W 4399  37.402  44.368  11.003
40467W        W 4400  18.701  15.118   5.287
40468W        W 4401  18.547  18.138   3.643
40469W        W 4402  24.611   0.338   1.404
40470W        W 4403  14.130   3.312  11.386
40471W        W 4404  10.709  29.462  10.545
40472W        W 4405  10.341   2.818  11.108
40473W        W 4406  16.131   0.249  12.450
40474W        W 4407  41.861   4.934  13.937
40475W        W 4408  16.790   8.856  11.482
40476W        W 4409  27.630   9.363   0.760
40477W        W 4410   9.842   6.838  10.538
40478W        W 4411  34.005  38.827  12.911
40479W        W 4412  44.338  41.980  13.034
40480W        W 4413   0.257   1.442  12.050
40481W        W 4414  13.746  12.819   4.269
40482W        W 4415  18.765  21.659   2.737
40483W        W 4416  29.634   7.765  12.349
40484W        W 4417   4.752  16.778   4.195
40485W        W 4418  26.616  13.172  10.472
40486W        W 4419  41.371  22.502  14.763
40487W        W 4420   2.928   4.229   0.752
40488W        W 4421  20.765  40.371  14.445
40489W        W 4422  35.907  43.509   0.263
40490W        W 4423  40.368  44.783  13.977
40491W        W 4424   8.688   1.881   2.393
40492W        W 4425  12.610  39.057   1.845
40493W        W 4426  38.870  13.274  10.926
40494W        W 4427  18.067  40.887  11.603
40495W        W 4428   5.374  41.812  12.836
40496W        W 4429   1.919  39.875  13.058
40497W        W 4430  15.693  23.172   1.798
40498W        W 4431  37.893  33.470   9.941
40499W        W 4432   6.322   8.680   4.716
40500W        W 4433  21.218  18.696   0.864
40501W        W 4434  29.009   5.853   3.297
40502W        W 4435  35.882  13.310   4.232
40503W        W 4436  42.867  19.545  14.923
40504W        W 4437  24.217  24.200  14.898
40505W        W 4438  43.951  10.841   0.854
40506W        W 4439  21.052  25.998   2.265
40507W        W 4440  38.452  18.586   3.315
40508W        W 4441   5.810  35.971   1.437
40509W        W 4442  30.611  22.162  11.469
40510W        W 4443   7.898   0.488  14.466
40511W        W 4444  14.605  11.205  12.879
40512W        W 4445  17.177  18.739   0.379
40513W        W 4446  36.875  41.474  14.363
40514W        W 4447  18.221  19.219   1.718
40515W        W 4448  33.437  35.588   9.968
40516W        W 4449  18.272  24.074   1.749
40517W        W 4450  35.106  44.268  13.339
40518W        W 4451  11.216  22.680   3.311
40519W        W 4452  28.059  17.586   3.287
40520W        W 4453  22.121  14.794  14.863
40521W        W 4454  38.840  22.056  14.442
40522W        W 4455  16.271  13.143  14.293
40523W        W 4456  42.983  24.018   1.838
40524W        W 4457  41.839  39.382   2.705
40525W        W 4458  21.163  35.003   1.405
40526W        W 4459  30.098  26.168   1.387
40527W        W 4460   8.752  22.523   0.255
40528W        W 4461  39.530   6.408   3.320
40529W        W 4462  15.160  14.225  10.985
40530W        W 4463  24.122  33.418   4.757
40531W        W 4464  43.916   7.874   0.872
40532W        W 4465   1.256   6.216  14.806
40533W        W 4466  11.789   4.314   2.367
40534W        W 4467  34.976   6.786  14.504
40535W        W 4468  10.176  14.214  11.998
40536W        W 4469   3.421   6.874  12.394
40537W        W 4470  34.070  23.712   1.769
40538W        W 4471  13.146  35.899   2.867
40539W        W 4472  24.658  34.447  13.893
40540W        W 4473   4.858  22.153  10.057
40541W        W 4474  42.524  20.069  10.497
40542W        W 4475   0.254  18.570   1.927
40543W        W 4476  34.562  35.966   0.330
40544W        W 4477  43.846  16.122   0.327
40545W        W 4478  13.260   1.406  14.372
40546W        W 4479  15.644  24.672   0.835
40547W        W 4480  13.740  37.379   3.355
40548W        W 4481  25.575  32.606   0.905
40549W        W 4482  22.075  40.483  13.524
40550W        W 4483   5.348  18.227  12.012
40551W        W 4484  23.592  38.942   2.770
40552W        W 4485  32.077   0.944  14.932
40553W        W 4486  32.531   5.753  12.870
40554W        W 4487  30.130  26.540  14.289
40555W        W 4488  27.551  11.640  12.052
40556W        W 4489   1.325  14.257   0.350
40557W        W 4490  28.170  35.906   2.391
40558W        W 4491  31.585  32.932  13.449
40559W        W 4492  34.076  27.030   1.895
40560W        W 4493  13.199  16.205   1.727
40561W        W 4494  29.527  23.609   5.179
40562W        W 4495  34.084  37.984  10.902
40563W        W 4496  41.360  33.890  10.970
40564W        W 4497  33.545  14.143   4.303
40565W        W 4498  36.526  17.560   1.255
40566W        W 4499  42.378  11.168  12.438
40567W        W 4500  39.044  32.947  12.480
40568W        W 4501  44.879  34.935   4.641
40569W        W 4502  18.223  37.000  11.942
40570W        W 4503   4.328  40.921  10.558
40571W        W 4504   3.226   2.283   3.336
40572W        W 4505  23.505   3.461  13.804
40573W        W 4506   8.288  28.930  12.021
40574W        W 4507  21.054  44.880  14.009
40575W        W 4508  38.951  27.135   3.165
40576W        W 4509  42.878  41.843  11.503
40577W        W 4510   2.255  30.556   4.760
40578W        W 4511  40.459  31.584  10.896
40579W        W 4512  38.971  42.517  14.016
40580W        W 4513  20.226  11.271   2.325
40581W        W 4514  14.143  42.493  14.312
40582W        W 4515   9.382  37.441  10.608
40583W        W 4516  23.984  16.622  13.052
40584W        W 4517  28.545  29.658   1.764
40585W        W 4518  21.607  36.381  13.350
40586W        W 4519  27.655  12.772   4.269
40587W        W 4520  37.882  10.165   2.254
40588W        W 4521  36.897  29.993  13.348
40589W        W 4522  22.590   7.240  13.422
40590W        W 4523  43.458  35.398   0.843
40591W        W 4524  10.723  12.267   0.731
40592W        W 4525   7.862  38.894   4.137
40593W        W 4526   8.231   1.788  12.873
40594W        W 4527  11.286   1.351  14.912
40595W        W 4528  29.148  13.339  14.315
40596W        W 4529  41.350  17.567  13.044
40597W        W 4530  13.305   2.772   0.332
40598W        W 4531  25.706   4.833  12.899
40599W        W 4532  37.067  43.477  12.456
40600W        W 4533  16.293  21.133   3.348
40601W        W 4534   8.301  36.376  11.890
40602W        W 4535  43.428  10.780  11.539
40603W        W 4536  21.594  25.519   4.629
40604W        W 4537  42.913  24.095  13.056
40605W        W 4538  38.897  25.181  14.776
40606W        W 4539  11.327  28.464  14.321
40607W        W 4540  14.317   5.385  11.919
40608W        W 4541  31.136  27.110   2.357
40609W        W 4542  40.907  42.885   4.827
40610W        W 4543  34.919  32.130  13.855
40611W        W 4544  13.679  28.573   0.740
40612W        W 4545  21.697   9.884  12.366
40613W        W 4546  27.637  29.110   1.815
40614W        W 4547  24.131   5.783  10.407
40615W        W 4548  23.718  35.071   3.335
40616W        W 4549  11.648   8.766   4.137
40617W        W 4550   5.337  14.171   2.746
40618W        W 4551  29.117  41.360  10.972
40619W        W 4552  10.747  43.315  14.481
40620W        W 4553  11.316  31.585   0.256
40621W        W 4554  38.536  16.140   2.754
40622W        W 4555  40.052  39.943   4.791
40623W        W 4556  36.961  43.493  14.944
40624W        W 4557  37.463  44.315   4.296
40625W        W 4558  37.970  19.561  13.455
40626W        W 4559  37.488  24.674  13.015
40627W        W 4560  19.598  30.414   2.195
40628W        W 4561  14.177   7.181  14.950
40629W        W 4562  42.836  19.053  13.862
40630W        W 4563  32.087  34.608   3.330
40631W        W 4564  38.438  31.493  12.486
40632W        W 4565  42.888  35.999   4.667
40633W        W 4566  13.677  13.344  11.416
40634W        W 4567  32.438  27.036   0.300
40635W        W 4568  34.925  24.700  11.612
40636W        W 4569  36.940  36.990  14.437
40637W        W 4570  35.456  24.222   4.802
40638W        W 4571  16.572  26.130   4.706
40639W        W 4572   7.350  22.193   4.644
40640W        W 4573  20.106  27.007  13.309
40641W        W 4574  14.320   6.279  10.940
40642W        W 4575  41.788  20.716  13.547
40643W        W 4576  17.785  26.473   1.300
40644W        W 4577   7.726  16.666  11.528
40645W        W 4578  15.163  26.515  11.431
40646W        W 4579  17.105   1.437   0.430
40647W        W 4580   0.490   8.208   3.327
40648W        W 4581  14.643   9.359   1.271
40649W        W 4582   9.864  11.738   4.713
40650W        W 4583  16.130  43.975  12.551
40651W        W 4584   1.733   9.159  12.837
40652W        W 4585  22.246   7.223   1.751
40653W        W 4586  41.478  15.758   2.395
40654W        W 4587  33.471  35.511  14.389
40655W        W 4588   7.182  44.806  14.339
40656W        W 4589   9.266  11.178   2.384
40657W        W 4590  10.841  13.212   3.351
40658W        W 4591  27.171  37.382   0.732
40659W        W 4592  29.128  36.845  12.913
40660W        W 4593  15.753  13.797  13.382
40661W        W 4594  17.161  13.714  12.847
40662W        W 4595   3.865  18.696   0.891
40663W        W 4596  31.456  23.555  13.988
40664W        W 4597  36.891  32.896   3.169
40665W        W 4598  28.048  41.959  10.435
40666W        W 4599  41.979  34.006  14.384
40667W        W 4600  28.951   1.332  14.935
40668W        W 4601  13.178   0.475  12.992
40669W        W 4602   9.733  35.051   3.816
40670W        W 4603  38.908  39.935  13.912
40671W        W 4604  18.098   9.679   4.262
40672W        W 4605  35.899  21.631   1.431
40673W        W 4606  34.422   0.329   1.410
40674W        W 4607  11.769   7.795  11.079
40675W        W 4608  36.903  38.976   4.260
40676W        W 4609  37.004   6.412   0.285
40677W        W 4610  28.067   3.733   0.737
40678W        W 4611  22.619  21.206  14.456
40679W        W 4612   7.217  33.953   2.323
40680W        W 4613  28.005  30.608  12.054
40681W        W 4614   3.791  16.084   4.236
40682W        W 4615   8.701  26.554   3.805
40683W        W 4616  41.882  38.040  12.919
40684W        W 4617  21.757   0.374  13.957
40685W        W 4618   3.331  31.991   4.666
40686W        W 4619  27.973  44.995   9.469
40687W        W 4620  17.240  23.042  13.527
40688W        W 4621  38.878  20.591  10.526
40689W        W 4622  19.249   4.828   3.772
40690W        W 4623  44.917  27.611   1.373
40691W        W 4624  12.780  19.756   1.362
40692W        W 4625  43.455  41.042   2.807
40693W        W 4626  16.194  21.231  10.459
40694W        W 4627   6.863  15.592  10.587
40695W        W 4628   5.713  39.826  13.339
40696W        W 4629  40.944   8.854   3.234
40697W        W 4630  16.570  11.713  12.018
40698W        W 4631  27.521   2.265   5.159
40699W        W 4632  40.974  23.509  13.525
40700W        W 4633  27.988  37.471  11.903
40701W        W 4634  41.886  16.139  13.391
40702W        W 4635   0.750  20.099   4.709
40703W        W 4636   4.846  18.218   3.189
40704W        W 4637  28.031   9.780  11.106
40705W        W 4638   7.759  14.636  11.914
40706W        W 4639  26.563   9.787  12.504
40707W        W 4640   3.375  23.519  12.468
40708W        W 4641  39.011  38.966   1.246
40709W        W 4642   7.817  42.320   4.168
40710W        W 4643  29.002  21.730   2.218
40711W        W 4644   0.824  20.727  12.903
40712W        W 4645  10.722  28.608   1.836
40713W        W 4646  29.148  21.189  10.559
40714W        W 4647  44.834  37.048   0.291
40715W        W 4648  29.046  38.950  10.971
40716W        W 4649  24.525  44.451   4.120
40717W        W 4650  36.534  30.515   2.677
40718W        W 4651  31.971  10.249   3.633
40719W        W 4652  19.051  44.339  14.030
40720W        W 4653  14.328  26.063  11.898
40721W        W 4654  27.460  23.992   3.180
40722W        W 4655  28.635  27.069   0.909
40723W        W 4656   4.795  27.620  14.465
40724W        W 4657  20.064  27.993  14.483
40725W        W 4658  30.562   5.928  14.287
40726W        W 4659   7.777   9.783  14.505
40727W        W 4660  38.342  10.180   1.254
40728W        W 4661   3.890  14.828  12.021
40729W        W 4662  12.672  11.644  11.960
40730W        W 4663  15.294  28.520   0.755
40731W        W 4664  36.947  16.769  14.343
40732W        W 4665  19.188  17.710   1.839
40733W        W 4666  35.588   0.749  12.833
40734W        W 4667  24.990  26.635   1.267
40735W        W 4668  35.519  16.756  10.445
40736W        W 4669  20.227  34.941   3.272
40737W        W 4670   6.887  42.982   3.752
40738W        W 4671  30.114  24.501  11.499
40739W        W 4672   8.333  14.785   4.119
40740W        W 4673  19.609  20.608  10.031
40741W        W 4674  23.597  13.190  14.428
40742W        W 4675  33.439  41.346  13.379
40743W        W 4676  39.559  25.655   0.817
40744W        W 4677  21.627  28.098  12.844
40745W        W 4678  13.802  15.646  10.068
40746W        W 4679  18.158   7.390   3.696
40747W        W 4680  26.064  41.804   1.451
40748W        W 4681   2.962  33.549   0.430
40749W        W 4682  17.280  37.393   0.902
40750W        W 4683  17.593   2.959  14.452
40751W        W 4684   8.182  29.155   4.120
40752W        W 4685  15.198  13.711   4.327
40753W        W 4686   1.822  33.618   2.334
40754W        W 4687  15.663  24.097   1.363
40755W        W 4688   8.848  19.269  14.771
40756W        W 4689  33.564   1.824   5.254
40757W        W 4690  36.545  41.343  11.525
40758W        W 4691  13.213   8.318   2.704
40759W        W 4692  13.738  43.812  12.499
40760W        W 4693  41.929  29.509   4.808
40761W        W 4694  33.939  40.358  10.622
40762W        W 4695  15.725  28.967   0.377
40763W        W 4696  25.476  22.596   2.325
40764W        W 4697  16.758  27.957   4.710
40765W        W 4698  17.782   8.792  10.981
40766W        W 4699  34.419  27.608  13.791
40767W        W 4700  39.343  18.236   1.360
40768W        W 4701   4.837  42.814  12.009
40769W        W 4702  27.094  14.779   3.860
40770W        W 4703  22.588  38.033  10.467
40771W        W 4704  16.568  29.131   4.151
40772W        W 4705  16.652  38.539  12.055
40773W        W 4706  40.473  32.500  12.949
40774W        W 4707  38.074  44.472  12.030
40775W        W 4708   0.463  39.360  14.928
40776W        W 4709  38.354  26.490  10.444
40777W        W 4710  30.129  32.527   3.327
40778W        W 4711   7.194   9.650   2.856
40779W        W 4712   0.249  24.172   1.264
40780W        W 4713  36.577  29.530  11.967
40781W        W 4714  20.723  16.612  10.050
40782W        W 4715  28.661  21.103   4.646
40783W        W 4716  13.142   5.316  11.926
40784W        W 4717  12.266  16.221  13.990
40785W        W 4718  32.040   8.249   1.288
40786W        W 4719  43.012  41.896   4.153
40787W        W 4720  31.482  17.731  12.538
40788W        W 4721  17.105  19.206  13.847
40789W        W 4722  29.631  27.463  11.546
40790W        W 4723   0.333   6.886  11.424
40791W        W 4724  30.530  42.978  14.384
40792W        W 4725  12.682  22.133  14.420
40793W        W 4726  32.989  14.193   2.313
40794W        W 4727  29.538  23.706   3.732
40795W        W 4728  34.461  20.730  11.953
40796W        W 4729  35.408  24.158  12.515
40797W        W 4730   2.400   9.798   3.182
40798W        W 4731   4.403  40.309   2.334
40799W        W 4732  14.731  44.483   2.213
40800W        W 4733  39.036   1.946   4.735
40801W        W 4734  40.838  24.649  12.860
40802W        W 4735  30.633  14.212  13.918
40803W        W 4736  18.717  40.538  12.540
40804W        W 4737  27.190  20.188  14.759
40805W        W 4738  24.035  44.949  10.000
40806W        W 4739  13.292  32.444   4.216
40807W        W 4740  23.521  40.443  13.385
40808W        W 4741  39.499  17.139   2.287
40809W        W 4742  12.771   4.223   5.165
40810W        W 4743  13.742  10.202   0.364
40811W        W 4744  14.694  26.463   1.886
40812W        W 4745  34.498  38.535   2.740
40813W        W 4746   8.211  26.583  11.028
40814W        W 4747  24.212  37.892   4.317
40815W        W 4748  18.235  33.011  11.880
40816W        W 4749  44.968  10.798  13.032
40817W        W 4750  36.577   4.433  13.017
40818W        W 4751   5.208  28.541  12.527
40819W        W 4752  43.996   0.468   4.307
40820W        W 4753  10.213  30.611  14.855
40821W        W 4754  24.985  10.202   2.392
40822W        W 4755   7.220   4.207   3.372
40823W        W 4756  39.932  41.961  11.927
40824W        W 4757  34.493   4.438  13.508
40825W        W 4758  15.120  11.833   1.863
40826W        W 4759  25.525   0.935   2.735
40827W        W 4760  36.959  41.334  12.084
40828W        W 4761  15.653  10.178   0.882
40829W        W 4762   5.841  21.540  11.945
40830W        W 4763   8.673  18.269  12.475
40831W        W 4764  42.888  11.215   4.337
40832W        W 4765  29.093  36.392   2.188
40833W        W 4766  40.355   7.776  13.349
40834W        W 4767  41.978   6.218   2.195
40835W        W 4768  29.946  25.516   1.399
40836W        W 4769  38.352  28.489  13.852
40837W        W 4770   9.671   5.727   4.687
40838W        W 4771  35.106  20.131  11.527
40839W        W 4772  34.449  42.487  13.452
40840W        W 4773  31.959  44.837   1.888
40841W        W 4774   9.183  11.691   4.310
40842W        W 4775  35.077  12.274   0.390
40843W        W 4776   2.445  44.847  13.523
40844W        W 4777   2.240  20.549   1.213
40845W        W 4778  27.494  10.813  14.774
40846W        W 4779   0.357  16.799   2.321
40847W        W 4780  27.445  11.142   1.231
40848W        W 4781   8.324  34.057  12.982
40849W        W 4782  28.455  13.791  11.933
40850W        W 4783  28.035   9.881  12.453
40851W        W 4784  25.976  17.593  12.340
40852W        W 4785  39.345  13.131   4.174
40853W        W 4786  18.166   4.913   4.194
40854W        W 4787  44.449  24.078  12.942
40855W        W 4788  44.361  28.964   9.943
40856W        W 4789  41.456  10.663  13.932
40857W        W 4790  33.584  40.487   1.219
40858W        W 4791   3.261  28.582  13.452
40859W        W 4792  42.909  33.933   2.692
40860W        W 4793  36.039  13.260  11.540
40861W        W 4794  26.611  36.051  14.506
40862W        W 4795  32.413  15.303  10.497
40863W        W 4796   5.282   8.203   4.780
40864W        W 4797  38.993   1.480  13.417
40865W        W 4798   8.871   3.416   1.742
40866W        W 4799  20.229  11.671  14.837
40867W        W 4800   5.225  29.524   3.655
40868W        W 4801   2.441   3.216   5.259
40869W        W 4802   2.363  32.626   1.421
40870W        W 4803   4.700  21.637   3.374
40871W        W 4804   6.901  24.593   2.681
40872W        W 4805  14.735  17.636  14.869
40873W        W 4806  43.330  40.810  11.088
40874W        W 4807  12.630  34.418  13.412
40875W        W 4808   4.819  24.192   0.945
40876W        W 4809   1.810  23.187  12.373
40877W        W 4810   2.240  21.110   4.780
40878W        W 4811  40.369  12.344  14.942
40879W        W 4812  41.038   8.766   3.698
40880W        W 4813  33.123  32.137  11.377
40881W        W 4814  10.691   1.393   0.816
40882W        W 4815  12.310  27.628   3.668
40883W        W 4816   9.779   4.399   2.302
40884W        W 4817  23.653  40.993   4.233
40885W        W 4818  44.800  23.515   4.783
40886W        W 4819  27.586  27.596   2.873
40887W        W 4820  43.501  14.642  10.608
40888W        W 4821  21.127  13.109   3.247
40889W        W 4822  36.873  35.854  12.438
40890W        W 4823   7.212  33.591  12.406
40891W        W 4824   7.294  13.147   1.769
40892W        W 4825  26.952  30.542  12.881
40893W        W 4826  40.411   3.238   3.371
40894W        W 4827  14.595  16.137   0.840
40895W        W 4828   1.753  15.128   5.278
40896W        W 4829   2.962  37.355  12.497
40897W        W 4830  18.669  22.083   1.242
40898W        W 4831  23.143  10.825   3.791
40899W        W 4832  13.817  16.235  13.994
40900W        W 4833  13.807  21.091   2.850
40901W        W 4834   5.284  21.032   0.897
40902W        W 4835  13.812  28.071   1.707
40903W        W 4836  20.586   5.782  10.414
40904W        W 4837  20.029  40.968   1.386
40905W        W 4838  35.908  15.230  13.545
40906W        W 4839  12.809  37.830   0.393
40907W        W 4840  41.042  39.360  14.303
40908W        W 4841   3.244  25.545   4.272
40909W        W 4842  18.125  40.320   3.808
40910W        W 4843   8.876  10.668  10.560
40911W        W 4844  27.075  29.954  10.404
40912W        W 4845  35.438  30.159   1.304
40913W        W 4846   8.185   4.830   9.947
40914W        W 4847   8.180   0.817  12.416
40915W        W 4848   8.820  14.697   3.260
40916W        W 4849   1.413  23.119  10.911
40917W        W 4850  10.722   6.797  10.561
40918W        W 4851   0.780  23.103  14.888
40919W        W 4852   0.472  12.229   4.188
40920W        W 4853  26.544  38.515  12.855
40921W        W 4854  30.913   5.402   3.249
40922W        W 4855  32.416  32.480   4.340
40923W        W 4856  15.724  14.258   9.967
40924W        W 4857  20.087  29.554   2.259
40925W        W 4858  32.598  24.636  12.053
40926W        W 4859  16.310   7.670  12.038
40927W        W 4860  22.560  17.203  13.891
40928W        W 4861  40.947  26.458  14.516
40929W        W 4862  36.537  33.053   1.340
40930W        W 4863  18.180  20.715   3.298
40931W        W 4864  33.080  23.053  13.813
40932W        W 4865  23.042  39.550  10.609
40933W        W 4866  27.611  24.673   3.716
40934W        W 4867   3.909   1.937  10.096
40935W        W 4868  13.213  10.868  11.863
40936W        W 4869  17.644  31.500  14.482
40937W        W 4870  19.191  16.124  14.983
40938W        W 4871  38.933   8.279   2.342
40939W        W 4872  27.984  34.881  13.481
40940W        W 4873   4.935  22.152  14.425
40941W        W 4874  28.130  23.240   4.803
40942W        W 4875   7.896  27.181  12.945
40943W        W 4876  20.268  22.672  14.790
40944W        W 4877  26.676  14.172  12.045
40945W        W 4878  29.000  42.436  11.472
40946W        W 4879   1.852  11.807   2.223
40947W        W 4880  23.157  10.643   3.363
40948W        W 4881  17.077  16.785   4.318
40949W        W 4882  30.078  16.743   4.807
40950W        W 4883  30.573  36.060   2.406
40951W        W 4884  38.441  36.548   4.792
40952W        W 4885  28.978  32.474   2.837
40953W        W 4886  26.612  42.474   4.680
40954W        W 4887  25.656  25.120  11.127
40955W        W 4888  44.396  24.632  10.555
40956W        W 4889  19.230  12.304  11.464
40957W        W 4890  26.662  38.468   2.698
40958W        W 4891   4.942  25.016   2.887
40959W        W 4892  32.010  32.072  14.405
40960W        W 4893  36.471  14.608  10.454
40961W        W 4894  27.141  28.027  14.480
40962W        W 4895   3.715  11.143  12.465
40963W        W 4896   6.812  25.653  13.936
40964W        W 4897  40.378  11.694  11.052
40965W        W 4898  27.554   1.773   9.955
40966W        W 4899  29.593  18.263  14.504
40967W        W 4900  12.824  36.436   1.364
40968W        W 4901   7.737  11.803   4.311
40969W        W 4902   9.274  42.845  14.024
40970W        W 4903  42.903  22.245   4.607
40971W        W 4904  41.974  22.711  14.792
40972W        W 4905  17.256  25.147  10.537
40973W        W 4906  35.393  37.430  12.988
40974W        W 4907   3.864  14.238  12.446
40975W        W 4908  44.455   5.840  10.416
40976W        W 4909  12.216  22.106   4.774
40977W        W 4910  37.469  44.377   1.222
40978W        W 4911  35.873  16.740  13.829
40979W        W 4912  23.585  18.152  13.461
40980W        W 4913  38.025  27.118  14.019
40981W        W 4914  29.997  30.978  13.906
40982W        W 4915   1.937  39.865   2.722
40983W        W 4916  40.025  18.157  13.860
40984W        W 4917  25.995  18.744  11.384
40985W        W 4918  29.559  40.478   2.314
40986W        W 4919  24.496  35.517   2.689
40987W        W 4920  23.593   1.378  11.044
40988W        W 4921   7.884  38.431  13.040
40989W        W 4922  39.881  28.157   2.271
40990W        W 4923  39.985  23.537  10.645
40991W        W 4924  36.871  31.958   2.753
40992W        W 4925  12.681  12.264   0.480
40993W        W 4926  31.946  21.643  10.574
40994W        W 4927  15.796   0.373   1.427
40995W        W 4928  23.080  37.011  11.988
40996W        W 4929  30.968   1.472  11.579
40997W        W 4930  37.548  28.070  12.031
40998W        W 4931  39.334  18.073  11.961
40999W        W 4932  33.556  41.970  12.533
41000W        W 4933  13.764  32.910   1.892
41001W        W 4934  37.534  14.660   0.367
41002W        W 4935  11.130  21.172   3.222
41003W        W 4936  40.462   1.910  14.362
41004W        W 4937  20.746   9.210  11.997
41005W        W 4938  24.147  16.800   4.142
41006W        W 4939  37.001   8.883   3.185
41007W        W 4940   2.930  10.633  12.837
41008W        W 4941  28.111  35.945   0.846
41009W        W 4942  22.027  11.656   5.093
41010W        W 4943   9.768   2.856  10.891
41011W        W 4944  10.810  13.644  14.514
41012W        W 4945  36.591  35.565   1.805
41013W        W 4946  13.632  35.084   2.728
41014W        W 4947  38.980   8.262   2.810
41015W        W 4948  23.630  26.156  12.470
41016W        W 4949   7.174  19.583  13.953
41017W        W 4950  28.624   7.377  11.400
41018W        W 4951  23.508  43.472  12.412
41019W        W 4952  33.910  44.390   0.423
41020W        W 4953  30.140  31.128   1.917
41021W        W 4954   3.793  11.808   0.932
41022W        W 4955  20.038  34.889   2.217
41023W        W 4956  23.108   5.261  13.914
41024W        W 4957   2.284  15.315   2.802
41025W        W 4958  34.392  37.000   3.855
41026W        W 4959   7.696  22.539  12.823
41027W        W 4960  30.003  41.385   0.483
41028W        W 4961  16.215  13.679   3.258
41029W        W 4962  10.260   8.225  11.112
41030W        W 4963  38.428  14.807  12.529
41031W        W 4964  13.120  34.496   1.305
41032W        W 4965  42.350  16.785   1.917
41033W        W 4966  44.936  24.120   4.220
41034W        W 4967  36.421  17.257  10.944
41035W        W 4968  26.557   2.441  13.791
41036W        W 4969   0.954  24.135  14.386
41037W        W 4970  38.475  19.695   0.462
41038W        W 4971  16.762  27.114  11.895
41039W        W 4972  28.477  29.490  12.982
41040W        W 4973  12.679  33.906   0.744
41041W        W 4974  35.063  24.192   0.909
41042W        W 4975   4.799  44.812   4.222
41043W        W 4976   9.819  14.106  10.463
41044W        W 4977  16.075  16.737  12.095
41045W        W 4978  12.732  41.506   1.327
41046W        W 4979  28.161  40.934   1.310
41047W        W 4980  23.562  16.725  13.051
41048W        W 4981  11.833  42.366  11.862
41049W        W 4982  31.403  31.480   2.835
41050W        W 4983  40.993   7.178   2.191
41051W        W 4984   8.296  37.970   3.778
41052W        W 4985  19.075  23.165   3.835
41053W        W 4986  22.528  36.009   4.833
41054W        W 4987   3.449   6.239   2.360
41055W        W 4988  29.620  23.072   3.813
41056W        W 4989  12.628   3.940   4.332
41057W        W 4990   1.780  30.515  11.514
41058W        W 4991  33.506  40.044  12.548
41059W        W 4992  43.950  43.906  12.845
41060W        W 4993  23.031  22.587   1.776
41061W        W 4994   3.301  21.699  10.932
41062W        W 4995  19.588  14.134  12.568
41063W        W 4996   8.269  15.273  10.906
41064W        W 4997  20.543  38.363   1.339
41065W        W 4998  33.109  38.545   1.341
41066W        W 4999  21.609  42.824  12.036
41067W        W 5000  13.292  21.207  11.910
41068W        W 5001  30.127  18.743  12.840
41069W        W 5002   5.856   1.351   0.855
41070W        W 5003   6.682  41.535   3.814
41071W        W 5004  40.835   8.843  13.865
41072W        W 5005   5.694  36.009   4.826
41073W        W 5006   2.397  23.567   0.771
41074W        W 5007   5.221  17.222  11.921
41075W        W 5008  21.230  38.370   0.342
41076W        W 5009   9.337  35.072  12.387
41077W        W 5010  25.621  11.164   2.355
41078W        W 5011   5.785  22.232   4.686
41079W        W 5012   8.751  18.649   4.648
41080W        W 5013  14.102  33.586  11.610
41081W        W 5014  11.807  14.757   1.868
41082W        W 5015   5.735  18.225  13.506
41083W        W 5016   9.385  12.747  12.850
41084W        W 5017  38.407  17.281  11.869
41085W        W 5018  41.451  43.309   4.673
41086W        W 5019  20.172  24.704  11.952
41087W        W 5020  16.085  12.696  10.589
41088W        W 5021   5.762  10.648  12.047
41089W        W 5022  26.593  43.272  11.408
41090W        W 5023  37.077  25.714  14.919
41091W        W 5024  14.117  28.561   2.283
41092W        W 5025  22.552  43.466   1.702
41093W        W 5026  35.878  39.344   4.736
41094W        W 5027  38.364  24.109   0.294
41095W        W 5028   1.440   5.858  12.371
41096W        W 5029  43.789   0.483  13.405
41097W        W 5030   7.739  42.778   5.144
41098W        W 5031   1.316  33.431   2.272
41099W        W 5032  24.497  29.948  11.120
41100W        W 5033  36.947  39.876  12.970
41101W        W 5034  19.761  37.940   2.666
41102W        W 5035  24.032   6.251   3.260
41103W        W 5036  38.049  20.127   0.330
41104W        W 5037  44.973  37.854   2.851
41105W        W 5038  38.471  11.634  10.433
41106W        W 5039  33.100  37.367  13.545
41107W        W 5040  36.901  19.726  11.497
41108W        W 5041  10.660  12.781   1.860
41109W        W 5042  22.038  37.520   4.284
41110W        W 5043  33.463  28.089  12.463
41111W        W 5044   5.889  12.664  13.458
41112W        W 5045  38.883  11.204   2.795
41113W        W 5046  14.795  14.253  14.333
41114W        W 5047   7.822  10.363  14.981
41115W        W 5048   3.842  41.898   1.922
41116W        W 5049  27.972  31.580   0.812
41117W        W 5050  30.515  38.973   4.167
41118W        W 5051  37.998  17.762  14.854
41119W        W 5052  24.114  41.829   5.221
41120W        W 5053   7.321  36.470   3.723
41121W        W 5054  23.662   0.453   4.262
41122W        W 5055   0.837  18.141  12.832
41123W        W 5056  11.638  17.174  11.554
41124W        W 5057   1.430  37.570  10.411
41125W        W 5058  29.640   0.951   0.734
41126W        W 5059  11.738  16.280  11.999
41127W        W 5060  20.708   8.189   4.277
41128W        W 5061  27.548  34.877   2.311
41129W        W 5062  15.275  40.343  14.292
41130W        W 5063  27.008   7.766   2.413
41131W        W 5064  13.105  36.352   2.413
41132W        W 5065   6.803  37.980  14.328
41133W        W 5066  43.390  19.181   1.804
41134W        W 5067  29.026  28.005  11.974
41135W        W 5068   9.389  42.840  11.494
41136W        W 5069  32.552   3.423  11.048
41137W        W 5070   7.680  12.819   4.647
41138W        W 5071   6.757  30.491  11.113
41139W        W 5072   6.784  26.524  14.398
41140W        W 5073  37.013  12.134  12.059
41141W        W 5074  21.158  33.942   0.480
41142W        W 5075  29.147  36.521   3.692
41143W        W 5076  25.000  22.655  11.892
41144W        W 5077  35.485  25.031  10.932
41145W        W 5078   9.670  33.508   3.686
41146W        W 5079  23.714  36.910   3.850
41147W        W 5080  21.234  24.709  14.816
41148W        W 5081   4.294  11.230  14.302
41149W        W 5082  11.139   9.831   1.410
41150W        W 5083  11.273  32.486  10.541
41151W        W 5084   3.818  40.417  12.823
41152W        W 5085   6.764  38.035   3.854
41153W        W 5086   4.866  25.673   5.320
41154W        W 5087  39.547  12.351  12.946
41155W        W 5088   6.828  29.491   2.240
41156W        W 5089  23.184  22.236  11.913
41157W        W 5090  44.319  21.234  10.538
41158W        W 5091  10.761  42.004  10.523
41159W        W 5092  10.204  10.270   5.186
41160W        W 5093  16.619  37.395  12.858
41161W        W 5094  15.740  39.337   2.364
41162W        W 5095  18.774  12.179  13.374
41163W        W 5096  36.481   3.349  14.023
41164W        W 5097  32.982  12.842   0.789
41165W        W 5098  42.003  24.212   4.293
41166W        W 5099  37.962   8.337  12.370
41167W        W 5100   8.236  41.805   3.655
41168W        W 5101   9.369  25.140   1.851
41169W        W 5102  24.500  21.611  13.851
41170W        W 5103  22.152  27.194   1.930
41171W        W 5104  11.281  10.665  13.903
41172W        W 5105  18.116  13.796  11.516
41173W        W 5106  40.332   4.442   2.809
41174W        W 5107  14.633  44.979   1.859
41175W        W 5108   9.723  42.420   4.327
41176W        W 5109  29.480   2.300  12.402
41177W        W 5110  42.495  35.031   1.715
41178W        W 5111  24.486  18.271   0.423
41179W        W 5112   5.703  40.884  14.441
41180W        W 5113  36.990  29.638  11.122
41181W        W 5114  12.696  30.986   1.283
41182W        W 5115  36.512  19.588  13.955
41183W        W 5116  17.158  27.484  10.983
41184W        W 5117  10.270  12.848  10.069
41185W        W 5118  37.082  15.715   1.752
41186W        W 5119  38.974  25.164  11.986
41187W        W 5120  29.107  10.190   1.842
41188W        W 5121  20.709   4.927   2.786
41189W        W 5122  28.108  18.260  10.550
41190W        W 5123  16.623  33.025   0.768
41191W        W 5124  28.977   0.839  13.968
41192W        W 5125   6.794  28.957  11.532
41193W        W 5126   3.817  25.214   4.772
41194W        W 5127  31.475  23.577   4.639
41195W        W 5128   8.330  12.757   2.224
41196W        W 5129   9.191  41.451  13.369
41197W        W 5130  41.480  35.416   3.662
41198W        W 5131  28.607   7.284  10.449
41199W        W 5132   0.482  14.647  10.523
41200W        W 5133  37.568   8.260   4.162
41201W        W 5134   1.433   6.190   3.282
41202W        W 5135  15.777  42.297  13.467
41203W        W 5136  28.984  20.599   1.747
41204W        W 5137   2.438  21.751   1.763
41205W        W 5138  43.827  22.699   4.774
41206W        W 5139   3.834  43.290  11.875
41207W        W 5140  22.206  17.232   4.776
41208W        W 5141   3.435   0.464   0.452
41209W        W 5142  32.522  26.462   3.152
41210W        W 5143   8.782   0.929  14.855
41211W        W 5144  36.017  24.585  10.902
41212W        W 5145   4.437  23.668   2.816
41213W        W 5146  39.050   5.434   2.280
41214W        W 5147  26.975  36.915  10.942
41215W        W 5148   8.209  14.115   4.831
41216W        W 5149  25.980   7.386   1.346
41217W        W 5150  24.055  29.448  12.870
41218W        W 5151  14.619  20.175   3.292
41219W        W 5152  24.019   9.717   2.714
41220W        W 5153  15.171  34.975  13.988
41221W        W 5154  22.143   4.843   2.240
41222W        W 5155  18.224  38.369  14.880
41223W        W 5156  10.380  38.333   3.340
41224W        W 5157  20.101   9.678  13.894
41225W        W 5158   8.336  16.762  10.926
41226W        W 5159  19.175  24.528  10.626
41227W        W 5160   8.827   0.322  13.041
41228W        W 5161  42.396   5.265  12.959
41229W        W 5162  17.676  25.675  10.581
41230W        W 5163  26.578  35.551   4.149
41231W        W 5164  13.783  11.190   2.202
41232W        W 5165  32.444  12.276   0.825
41233W        W 5166  30.962  27.947  11.113
41234W        W 5167  35.016  16.216  12.371
41235W        W 5168  20.076  38.405  11.521
41236W        W 5169   9.377   1.456  11.584
41237W        W 5170   1.479  41.867  12.903
41238W        W 5171  17.649   7.770   1.448
41239W        W 5172   6.867  32.543  10.913
41240W        W 5173   2.289  39.333  14.884
41241W        W 5174  12.720  29.034   0.458
41242W        W 5175  15.816   5.225   2.713
41243W        W 5176  34.539  16.192   4.220
41244W        W 5177   5.717  24.222  14.432
41245W        W 5178  13.795  11.305  14.005
41246W        W 5179   8.342   7.870   4.738
41247W        W 5180   5.822  26.015   2.235
41248W        W 5181  43.847  40.806  11.116
41249W        W 5182  29.483  33.948  11.937
41250W        W 5183  34.913  29.473   3.806
41251W        W 5184  25.588  38.921  14.358
41252W        W 5185  32.956  13.826   0.867
41253W        W 5186   1.853   5.436   3.298
41254W        W 5187   8.336  27.058  12.870
41255W        W 5188  29.442  33.476   0.434
41256W        W 5189   1.862  34.924   2.865
41257W        W 5190   9.718  44.824   1.321
41258W        W 5191  34.595  14.591   3.743
41259W        W 5192  25.989  28.023  12.857
41260W        W 5193  25.669   0.869   3.674
41261W        W 5194  19.082   1.843  14.371
41262W        W 5195  14.152  31.042  14.448
41263W        W 5196  22.079  32.075  12.077
41264W        W 5197  25.645  35.988   5.252
41265W        W 5198  35.041  29.597  10.907
41266W        W 5199  17.070  35.098  14.005
41267W        W 5200  31.031  32.119   0.840
41268W        W 5201   6.865  34.442  12.839
41269W        W 5202  24.660  28.026  14.427
41270W        W 5203  40.487  24.101   4.261
41271W        W 5204   6.731  42.452   3.777
41272W        W 5205  15.169  29.614  14.495
41273W        W 5206  36.932  40.334  11.452
41274W        W 5207  26.157  10.229   5.604
41275W        W 5208   0.462   3.318  10.936
41276W        W 5209  42.480   2.753  12.045
41277W        W 5210  31.972  39.321  13.028
41278W        W 5211  22.097  30.017  12.379
41279W        W 5212  38.004  10.761  12.844
41280W        W 5213  42.892  44.494   1.341
41281W        W 5214  15.297   2.423   0.962
41282W        W 5215  14.640  13.729  10.538
41283W        W 5216  22.201  25.965  14.992
41284W        W 5217  19.772  16.215   2.390
41285W        W 5218  25.509   7.711   4.293
41286W        W 5219  18.729   2.947  12.066
41287W        W 5220  26.179  11.273   9.546
41288W        W 5221   3.297  41.405   3.783
41289W        W 5222  15.090   7.303  14.017
41290W        W 5223  28.929   8.393  14.940
41291W        W 5224   7.278  16.657   3.679
41292W        W 5225  31.905  20.144   0.769
41293W        W 5226  38.546  13.227   3.802
41294W        W 5227  37.403  40.038   1.722
41295W        W 5228  24.641  34.562  14.515
41296W        W 5229  36.363  40.897  13.384
41297W        W 5230  34.548  41.940  14.900
41298W        W 5231   2.891  12.212  14.912
41299W        W 5232   0.298  24.162   0.274
41300W        W 5233  29.933  13.723  14.509
41301W        W 5234  39.466   4.279   3.750
41302W        W 5235  43.988   4.384  14.298
41303W        W 5236   4.297   8.896   4.241
41304W        W 5237  36.859  20.705  12.364
41305W        W 5238   7.885  29.594   1.407
41306W        W 5239  17.758  30.489   4.295
41307W        W 5240  19.098  19.722  10.482
41308W        W 5241   8.830  39.990  14.810
41309W        W 5242  29.072  32.994   4.321
41310W        W 5243  35.584  32.563  10.916
41311W        W 5244  32.394  35.057  12.576
41312W        W 5245   2.846   3.393   1.382
41313W        W 5246   3.784  23.621  11.531
41314W        W 5247  20.598  43.341   4.122
41315W        W 5248  19.720   5.715  11.011
41316W        W 5249  21.517  24.011   0.462
41317W        W 5250   7.741  40.029   4.210
41318W        W 5251  20.686  17.785   0.848
41319W        W 5252  15.124  20.059  12.553
41320W        W 5253  29.958  38.894  11.543
41321W        W 5254  24.214  28.471   4.817
41322W        W 5255  38.497  18.258  11.524
41323W        W 5256  28.042  18.165   2.786
41324W        W 5257  11.327  44.812  12.446
41325W        W 5258  21.521  14.653   3.857
41326W        W 5259  31.611  18.090   3.290
41327W        W 5260   9.304  28.518   1.216
41328W        W 5261  16.634  31.952  10.125
41329W        W 5262  23.726  17.191  14.333
41330W        W 5263  14.139  19.084  14.813
41331W        W 5264  19.609  29.007   1.401
41332W        W 5265   0.825  33.560   1.270
41333W        W 5266  30.582  10.231   0.857
41334W        W 5267  18.063  38.011   2.262
41335W        W 5268  37.580  16.184  12.577
41336W        W 5269  26.973  25.508   2.867
41337W        W 5270  19.591  12.733  14.847
41338W        W 5271  42.387  42.412   3.213
41339W        W 5272  10.375  31.032   3.228
41340W        W 5273   1.853  13.201   3.271
41341W        W 5274  23.109   7.390   2.771
41342W        W 5275   5.794  12.815  14.763
41343W        W 5276  13.120  32.997  11.864
41344W        W 5277  39.343   4.378   0.962
41345W        W 5278   1.262  36.089  10.449
41346W        W 5279  42.024  30.540   0.765
41347W        W 5280  11.237  27.942  10.898
41348W        W 5281  13.681   3.261   0.917
41349W        W 5282  38.057   9.751   2.770
41350W        W 5283   2.917   5.384  14.827
41351W        W 5284  10.721  19.598   4.288
41352W        W 5285  30.100  44.420  10.962
41353W        W 5286  38.350  31.480  10.443
41354W        W 5287  23.686  15.266   4.250
41355W        W 5288  41.916  37.513  13.965
41356W        W 5289  17.737  27.456   3.234
41357W        W 5290  18.674  18.723   0.932
41358W        W 5291  14.663  39.899   3.722
41359W        W 5292  32.903  15.610  14.476
41360W        W 5293   2.256  13.246  10.138
41361W        W 5294  26.539   5.795  13.034
41362W        W 5295  20.597  28.618  11.413
41363W        W 5296   5.851  12.325  11.096
41364W        W 5297  22.103  15.203  14.487
41365W        W 5298  32.521   9.385   2.881
41366W        W 5299  41.869  29.061  13.834
41367W        W 5300  38.039  19.538  12.919
41368W        W 5301  36.487  14.167   1.788
41369W        W 5302  37.526   6.372  11.372
41370W        W 5303   1.841  24.616  12.376
41371W        W 5304  15.807   5.860   2.297
41372W        W 5305  25.128  44.829  11.464
41373W        W 5306  21.753  15.676   0.262
41374W        W 5307  35.548  20.741  13.318
41375W        W 5308  38.493   2.850   3.846
41376W        W 5309  23.221  34.051  11.058
41377W        W 5310  13.641  35.888   4.126
41378W        W 5311   9.689  23.660  13.363
41379W        W 5312   0.885  22.160   0.875
41380W        W 5313  31.957  36.070   4.202
41381W        W 5314  23.602  34.438   1.776
41382W        W 5315   9.778  18.274   3.641
41383W        W 5316  37.996  34.453   4.301
41384W        W 5317   8.263  42.855   2.355
41385W        W 5318   4.906  33.027   3.263
41386W        W 5319  27.139  22.216  12.910
41387W        W 5320  36.037  20.164   0.276
41388W        W 5321  21.653  41.007  11.515
41389W        W 5322   5.353  39.374  11.432
41390W        W 5323  19.156   0.284   0.755
41391W        W 5324   0.278  36.548   2.879
41392W        W 5325  26.666  22.630   3.665
41393W        W 5326  12.189   4.844  13.486
41394W        W 5327  42.296  42.391   4.612
41395W        W 5328  35.432  10.759  11.409
41396W        W 5329  17.150  24.175  12.415
41397W        W 5330  33.975  12.169   1.792
41398W        W 5331  41.991   8.242  10.449
41399W        W 5332  36.055   2.376   0.407
41400W        W 5333   8.743   3.271  14.436
41401W        W 5334  42.454  37.887   1.258
41402W        W 5335  20.115  25.620  13.413
41403W        W 5336  34.057  11.851   4.227
41404W        W 5337  22.996  31.153   2.775
41405W        W 5338  16.807  26.570  11.067
41406W        W 5339  24.595  20.527  14.432
41407W        W 5340  19.193  30.565  13.973
41408W        W 5341  44.348  33.986  14.867
41409W        W 5342   7.673  25.529  13.056
41410W        W 5343  44.945   1.836  11.569
41411W        W 5344  37.872  29.085  13.388
41412W        W 5345  27.509   2.451   1.368
41413W        W 5346  34.946  35.105   2.850
41414W        W 5347   8.799  41.972   3.654
41415W        W 5348  19.534  17.658   0.254
41416W        W 5349  16.790  41.395   2.349
41417W        W 5350  19.742  27.537  13.461
41418W        W 5351  30.597  43.004   0.886
41419W        W 5352  11.815  43.784   4.196
41420W        W 5353  21.249  25.479   0.444
41421W        W 5354  18.079   6.784   3.220
41422W        W 5355  35.525   9.836   0.406
41423W        W 5356  24.031   5.349   2.187
41424W        W 5357  44.946  36.475   0.385
41425W        W 5358  25.650  22.173   2.816
41426W        W 5359  15.692   2.332  10.429
41427W        W 5360  20.531  30.454   1.812
41428W        W 5361  13.237  25.601   3.630
41429W        W 5362  21.067   6.815  14.883
41430W        W 5363  35.565  21.137   3.171
41431W        W 5364  34.008  38.395   4.795
41432W        W 5365  27.691   0.761   4.284
41433W        W 5366  40.910   0.327   4.802
41434W        W 5367   5.751   8.388  12.059
41435W        W 5368   8.192  31.450  12.989
41436W        W 5369   3.286  38.017   1.751
41437W        W 5370  40.995  35.081   3.834
41438W        W 5371  25.072  11.210   3.697
41439W        W 5372  33.028   4.284  14.909
41440W        W 5373  36.973   7.332  14.452
41441W        W 5374  16.124  27.522  10.892
41442W        W 5375   4.240  38.395   2.292
41443W        W 5376   4.319  24.711   9.479
41444W        W 5377  19.272  30.934  12.928
41445W        W 5378   6.354  22.633   9.989
41446W        W 5379   0.848   8.324   1.885
41447W        W 5380   1.775  30.117  14.310
41448W        W 5381   5.827  43.298  13.307
41449W        W 5382   1.456   4.803   3.672
41450W        W 5383  37.372  17.630   1.419
41451W        W 5384  44.395  26.041   3.234
41452W        W 5385  33.501  21.645  14.977
41453W        W 5386  11.297  36.568   3.308
41454W        W 5387  35.539   3.933   0.777
41455W        W 5388  14.118   1.921   0.916
41456W        W 5389  36.555  22.662   0.779
41457W        W 5390  43.496   2.800   2.216
41458W        W 5391   3.824  32.589  11.595
41459W        W 5392   5.394  17.767  12.487
41460W        W 5393  39.425  18.649   0.898
41461W        W 5394  25.187  12.130   0.791
41462W        W 5395  24.499  33.447   1.369
41463W        W 5396  44.270   0.265   3.860
41464W        W 5397  20.113  38.824  13.330
41465W        W 5398  20.246   2.258  11.988
41466W        W 5399  33.415  34.095   2.249
41467W        W 5400   3.854   9.677   3.794
41468W        W 5401  12.131   0.797  12.870
41469W        W 5402  24.013  27.521  10.551
41470W        W 5403   1.741  38.434   1.723
41471W        W 5404  16.119  24.976  12.044
41472W        W 5405  28.675  19.597  11.945
41473W        W 5406  20.254  24.014   1.779
41474W        W 5407   9.363  16.213  10.500
41475W        W 5408  28.022   2.887  14.484
41476W        W 5409  35.396  15.308   1.739
41477W        W 5410  29.004  32.449  12.923
41478W        W 5411   1.421  26.057  13.393
41479W        W 5412   3.356   5.371  13.835
41480W        W 5413  15.598   8.777  12.943
41481W        W 5414  14.215  29.589  14.980
41482W        W 5415  20.670  36.493  14.368
41483W        W 5416  30.630   2.276  13.883
41484W        W 5417  11.315  19.564   3.803
41485W        W 5418  36.417  31.977   2.783
41486W        W 5419  24.166   9.223   3.676
41487W        W 5420   9.801  17.788  10.486
41488W        W 5421  38.924  25.485  11.562
41489W        W 5422   3.912  40.436  14.465
41490W        W 5423  36.559  14.333  10.138
41491W        W 5424  35.512  44.455  10.506
41492W        W 5425   2.919   7.246   3.204
41493W        W 5426  41.352   4.861   3.683
41494W        W 5427  43.016   6.364  12.864
41495W        W 5428  29.577   5.234  12.086
41496W        W 5429  42.838  36.504   4.697
41497W        W 5430  42.351  11.786   4.164
41498W        W 5431  16.282  37.553   2.711
41499W        W 5432  39.022  17.571  13.823
41500W        W 5433   3.782  26.131  14.839
41501W        W 5434  20.681   8.661   2.315
41502W        W 5435  16.215  21.055  13.981
41503W        W 5436   7.878  32.938  12.355
41504W        W 5437  37.830  41.396   2.285
41505W        W 5438  29.654  24.606   2.319
41506W        W 5439  36.865  16.248   3.271
41507W        W 5440  34.372  11.163   0.324
41508W        W 5441  43.996  42.431  13.064
41509W        W 5442  17.717  28.046   4.836
41510W        W 5443  25.215  21.582   1.738
41511W        W 5444  18.565  16.096  10.949
41512W        W 5445  19.682  14.322  11.871
41513W        W 5446  25.587  25.655  14.910
41514W        W 5447  20.216  39.920  14.375
41515W        W 5448  15.676  42.965  13.375
41516W        W 5449   8.658  44.965   1.805
41517W        W 5450  33.077   2.727   3.870
41518W        W 5451   9.800  33.477  13.014
41519W        W 5452   7.321  20.629  12.876
41520W        W 5453  34.027  27.162   4.305
41521W        W 5454  31.565  42.027   4.121
41522W        W 5455  20.110  39.952   9.534
41523W        W 5456  14.589  20.729   0.259
41524W        W 5457  28.978  43.449   4.719
41525W        W 5458  44.999   0.298   3.809
41526W        W 5459   1.373  19.736   0.276
41527W        W 5460   2.307   7.196  14.345
41528W        W 5461  34.446  41.883  13.451
41529W        W 5462  26.109   9.248  11.523
41530W        W 5463  30.105  10.707  11.493
41531W        W 5464   3.722  26.124  14.288
41532W        W 5465  23.034  38.538   1.715
41533W        W 5466  18.612  29.664   3.287
41534W        W 5467   7.256  15.221   1.214
41535W        W 5468   4.395  31.648   0.726
41536W        W 5469   7.843  19.740   0.773
41537W        W 5470  22.209  27.011  14.999
41538W        W 5471   2.285  15.330  10.600
41539W        W 5472  16.787   8.830   0.363
41540W        W 5473  19.767  33.064   3.374
41541W        W 5474   0.426   0.954   3.823
41542W        W 5475  30.908   8.742   2.863
41543W        W 5476  14.742  19.242   0.250
41544W        W 5477  25.138  19.234  10.974
41545W        W 5478  16.127  34.443   0.417
41546W        W 5479  32.521   1.804  10.578
41547W        W 5480  29.513  16.734  10.544
41548W        W 5481  39.419  22.735  14.358
41549W        W 5482  44.809   2.382   2.824
41550W        W 5483  36.062  27.635  13.372
41551W        W 5484  12.209  31.433  14.951
41552W        W 5485   1.357  30.135   0.261
41553W        W 5486  11.752  21.080   0.964
41554W        W 5487  41.306  40.346   0.325
41555W        W 5488  44.886  14.770  14.968
41556W        W 5489  43.428  17.767   3.380
41557W        W 5490  41.829  44.929  11.937
41558W        W 5491  17.605  13.766  12.828
41559W        W 5492   2.437  21.742   2.418
41560W        W 5493   7.410  14.178  14.794
41561W        W 5494  10.274  40.449  14.446
41562W        W 5495   6.341  26.115   4.148
41563W        W 5496  12.164  36.089   4.726
41564W        W 5497   3.850  20.261  11.419
41565W        W 5498  35.057  12.772   5.268
41566W        W 5499  28.166  35.509  12.404
41567W        W 5500  26.033   9.769  11.501
41568W        W 5501  40.945  42.914  14.474
41569W        W 5502   6.414  43.957  13.309
41570W        W 5503  36.963  17.571  12.920
41571W        W 5504  25.150   6.412  12.011
41572W        W 5505   3.943  12.342   1.278
41573W        W 5506  21.566  30.979  12.525
41574W        W 5507  14.324  12.836  11.521
41575W        W 5508   9.181   6.771  14.417
41576W        W 5509   1.449   5.319  14.772
41577W        W 5510  28.676  44.871  12.547
41578W        W 5511  38.535   5.902  11.976
41579W        W 5512  37.868  30.081  14.031
41580W        W 5513  43.987  30.053  13.974
41581W        W 5514   8.757  17.756  11.439
41582W        W 5515  35.423  30.012  13.890
41583W        W 5516   5.896  18.721   2.206
41584W        W 5517  43.773   2.377  13.414
41585W        W 5518  23.082  27.539   3.735
41586W        W 5519  34.103  28.635   2.262
41587W        W 5520  33.405  22.526  13.025
41588W        W 5521  18.787  21.177   5.305
41589W        W 5522  44.278  19.245  11.451
41590W        W 5523  23.578  23.145  11.426
41591W        W 5524  27.055  28.158   2.369
41592W        W 5525  32.547  25.585   0.942
41593W        W 5526  22.142  22.040  14.771
41594W        W 5527  12.148  44.437   3.793
41595W        W 5528  41.994  16.604  13.403
41596W        W 5529   3.761  40.359   3.358
41597W        W 5530  15.643  41.482   1.930
41598W        W 5531   6.908   2.953  12.351
41599W        W 5532   5.281   3.935   2.332
41600W        W 5533  37.442  28.669  13.944
41601W        W 5534   1.476   3.426   2.361
41602W        W 5535  33.091  22.566   2.807
41603W        W 5536  24.086  12.264   1.697
41604W        W 5537   5.245  32.974  11.904
41605W        W 5538  10.844  43.384   2.234
41606W        W 5539  24.520  22.082  11.595
41607W        W 5540  18.760  37.898   2.773
41608W        W 5541  17.749  41.455  13.312
41609W        W 5542   1.837   2.382   2.862
41610W        W 5543  31.428  39.854  11.943
41611W        W 5544  25.039  19.228   3.850
41612W        W 5545  16.112   2.929  12.851
41613W        W 5546  31.514  42.924   4.119
41614W        W 5547  44.776  21.528  11.492
41615W        W 5548  43.888  14.773  11.581
41616W        W 5549   8.699  31.445   4.282
41617W        W 5550  24.125  31.078   3.370
41618W        W 5551   6.296   7.196  10.943
41619W        W 5552  16.737  21.205   3.221
41620W        W 5553  22.090  27.452   4.796
41621W        W 5554   7.353  37.465  14.825
41622W        W 5555  41.803  42.937   1.859
41623W        W 5556  15.721  18.164   0.859
41624W        W 5557   6.872  33.016  12.043
41625W        W 5558  10.640  16.637  11.053
41626W        W 5559   0.847  22.065  11.018
41627W        W 5560  39.370  34.919  12.981
41628W        W 5561   3.307  22.094  13.830
41629W        W 5562   5.843  16.705   0.859
41630W        W 5563  25.121  23.115  11.064
41631W        W 5564  20.168  30.480  12.360
41632W        W 5565  29.071  13.804   4.654
41633W        W 5566  30.991  26.168   1.889
41634W        W 5567  25.590  19.179   0.840
41635W        W 5568  41.801   1.838   2.677
41636W        W 5569  39.970  16.651  13.343
41637W        W 5570  37.873  36.431  13.491
41638W        W 5571  30.933  21.699  10.549
41639W        W 5572  18.784   6.821  12.426
41640W        W 5573  10.217  39.957   4.201
41641W        W 5574  34.434  20.067  12.033
41642W        W 5575  34.926  18.747   3.319
41643W        W 5576   6.897  14.299  12.914
41644W        W 5577  21.743   3.853   1.793
41645W        W 5578   6.814   5.329   9.530
41646W        W 5579  24.517  44.352  12.545
41647W        W 5580   3.935   5.284   0.344
41648W        W 5581  16.665   5.692   9.921
41649W        W 5582  44.971  24.177   1.391
41650W        W 5583  33.922  39.006  13.390
41651W        W 5584   5.252  28.046   2.227
41652W        W 5585  38.387  28.483   3.277
41653W        W 5586  15.272  30.135   1.387
41654W        W 5587  44.825  23.009   1.284
41655W        W 5588  39.332  10.744   1.709
41656W        W 5589  39.057  35.427   2.411
41657W        W 5590  43.893  39.845   3.740
41658W        W 5591  34.454  31.499   2.826
41659W        W 5592  11.829  22.700   0.729
41660W        W 5593  19.549   3.952   1.273
41661W        W 5594  36.511  42.972   0.876
41662W        W 5595  41.990  34.952  14.813
41663W        W 5596  44.792  32.073  12.571
41664W        W 5597  43.945  30.635  13.422
41665W        W 5598  12.297  12.695   2.363
41666W        W 5599   0.294   3.938  10.581
41667W        W 5600  10.671  42.862  14.450
41668W        W 5601  19.283  14.242  10.468
41669W        W 5602  30.086  21.059  14.956
41670W        W 5603  36.566  40.940  11.972
41671W        W 5604  44.298  35.103  13.527
41672W        W 5605   3.905  37.506  14.889
41673W        W 5606  20.214  34.489  13.486
41674W        W 5607   2.962  30.605  13.884
41675W        W 5608  28.117  39.867   2.279
41676W        W 5609   0.965  27.606  13.422
41677W        W 5610   8.871  28.013   4.161
41678W        W 5611  42.896  10.715  14.982
41679W        W 5612  30.532  20.171   3.673
41680W        W 5613  34.949   4.893  14.833
41681W        W 5614   3.242  35.073  14.327
41682W        W 5615  18.259  36.435   0.951
41683W        W 5616   7.324  15.635  14.278
41684W        W 5617   1.264   8.721  12.016
41685W        W 5618  39.535  28.461   0.776
41686W        W 5619  17.247  30.534   4.336
41687W        W 5620  18.105  25.082  11.376
41688W        W 5621  16.637  33.469   3.681
41689W        W 5622  40.890  40.974  14.886
41690W        W 5623   3.265  16.222   2.297
41691W        W 5624   6.221  39.405  12.838
41692W        W 5625  33.590  23.147  11.470
41693W        W 5626  35.886  34.017   1.356
41694W        W 5627  42.887   3.325  12.369
41695W        W 5628  14.191  44.947   2.863
41696W        W 5629   5.757  21.201   5.208
41697W        W 5630   0.753  12.753   0.870
41698W        W 5631  27.519   1.886  14.450
41699W        W 5632  30.628  16.796  10.411
41700W        W 5633  23.154   7.902  13.995
41701W        W 5634  41.329  32.952   2.307
41702W        W 5635  26.001  34.883  11.375
41703W        W 5636  40.508  31.133  11.537
41704W        W 5637   3.424  41.452  12.068
41705W        W 5638  42.784  10.657  14.383
41706W        W 5639   5.311  17.797  12.072
41707W        W 5640   8.684  20.577   3.154
41708W        W 5641   7.791  29.082   0.929
41709W        W 5642   1.367  35.061  13.986
41710W        W 5643  16.732  34.011   1.712
41711W        W 5644  43.986  15.219   2.270
41712W        W 5645  34.485   8.288  12.920
41713W        W 5646  44.353  30.924  14.435
41714W        W 5647  36.911  33.473   0.779
41715W        W 5648  12.624  16.645  10.642
41716W        W 5649  17.708  36.554  12.003
41717W        W 5650  24.160   8.343   0.799
41718W        W 5651  44.005  28.681  12.000
41719W        W 5652  36.863  19.670  11.956
41720W        W 5653   6.749  37.512   3.851
41721W        W 5654  40.051  10.245  11.540
41722W        W 5655  38.862  27.112  13.901
41723W        W 5656  34.396  24.010   3.294
41724W        W 5657  41.799   8.205   2.796
41725W        W 5658  42.470  23.526  12.079
41726W        W 5659   4.898  16.252   5.636
41727W        W 5660  20.750  19.761  10.959
41728W        W 5661  25.199  24.632   4.811
41729W        W 5662  14.734  26.979   1.277
41730W        W 5663  29.592  37.008   0.247
41731W        W 5664   3.454   8.173  13.336
41732W        W 5665  22.206  37.893  12.010
41733W        W 5666   0.481  26.150   4.122
41734W        W 5667  17.767  13.282   2.722
41735W        W 5668  28.989  14.596   2.835
41736W        W 5669  35.974  10.658  14.481
41737W        W 5670  23.093  20.155  11.995
41738W        W 5671  25.706  16.253  14.976
41739W        W 5672  10.734  31.633   3.669
41740W        W 5673  13.267  30.601  14.304
41741W        W 5674  36.093  32.138   0.815
41742W        W 5675  20.174  38.977  14.389
41743W        W 5676  32.516  14.675  12.433
41744W        W 5677  37.865   1.473  14.852
41745W        W 5678  39.864  16.684   3.848
41746W        W 5679  37.982  20.118  14.491
41747W        W 5680  15.628  19.557  13.877
41748W        W 5681  27.040   3.757  10.491
41749W        W 5682   2.883  34.458  13.849
41750W        W 5683  25.705  25.590   2.345
41751W        W 5684   5.758   7.838   0.808
41752W        W 5685  26.677   2.329  11.122
41753W        W 5686  27.496  27.458   4.244
41754W        W 5687   0.892  37.474  12.403
41755W        W 5688   3.243  22.066   3.710
41756W        W 5689  26.572  24.986   4.286
41757W        W 5690  35.958  43.441  10.554
41758W        W 5691  33.481  43.824  14.769
41759W        W 5692   4.275  34.506   4.158
41760W        W 5693  40.819  16.571   0.835
41761W        W 5694  34.964  43.429  14.956
41762W        W 5695  22.607  37.464  11.931
41763W        W 5696  12.630   7.197   9.928
41764W        W 5697   4.797   7.856  11.011
41765W        W 5698  44.501  10.873   1.720
41766W        W 5699  26.047  35.877   3.819
41767W        W 5700  40.367  28.553  12.579
41768W        W 5701   0.419   1.391   4.663
41769W        W 5702  15.625  20.625   0.783
41770W        W 5703  19.262  26.987  11.989
41771W        W 5704  15.236   6.703  13.926
41772W        W 5705   2.355   0.955  13.949
41773W        W 5706  43.345  35.087  13.909
41774W        W 5707  16.768  20.265   5.777
41775W        W 5708  10.690   9.356  12.922
41776W        W 5709  10.716   0.347  14.788
41777W        W 5710   2.354   0.953   1.834
41778W        W 5711  19.682  12.127  10.913
41779W        W 5712   2.440  26.659   9.965
41780W        W 5713   3.839  31.142  10.517
41781W        W 5714   3.233  43.340  14.315
41782W        W 5715  41.982   4.872   0.307
41783W        W 5716  27.664  15.261   3.630
41784W        W 5717  34.071  17.063  13.343
41785W        W 5718  36.998  16.705  13.900
41786W        W 5719  10.296  23.492  10.048
41787W        W 5720   7.670  21.046   0.426
41788W        W 5721  44.880  43.487  12.882
41789W        W 5722   8.654  26.092   1.325
41790W        W 5723  32.444  32.496  13.022
41791W        W 5724   9.880  38.062   1.924
41792W        W 5725   9.882  42.863   0.845
41793W        W 5726  17.733  26.543  10.993
41794W        W 5727   1.412  29.138  14.816
41795W        W 5728  24.134  33.563   1.804
41796W        W 5729  27.031  20.126   0.905
41797W        W 5730  13.719   4.760   4.308
41798W        W 5731  31.601  27.615  12.916
41799W        W 5732  11.316  35.894   0.465
41800W        W 5733  25.019  25.174  10.508
41801W        W 5734  21.559  25.629   3.147
41802W        W 5735   7.720  23.193  12.020
41803W        W 5736   9.730  20.551   2.392
41804W        W 5737  27.689   9.380  13.459
41805W        W 5738  12.753  14.307   3.356
41806W        W 5739   2.783   3.829  11.092
41807W        W 5740  39.361  43.490  12.036
41808W        W 5741  27.486  31.917   4.786
41809W        W 5742  23.007   8.333  11.552
41810W        W 5743  25.148   5.196  13.448
41811W        W 5744  39.430  30.471   4.680
41812W        W 5745  35.601  19.536   3.670
41813W        W 5746  22.234  43.378   0.764
41814W        W 5747  26.169  35.903   4.624
41815W        W 5748  31.557  39.002   0.316
41816W        W 5749  23.521  17.765  10.485
41817W        W 5750  44.777  34.005  12.487
41818W        W 5751  21.165   5.701   2.298
41819W        W 5752  11.669  44.756  11.375
41820W        W 5753   1.483  33.498   2.876
41821W        W 5754  31.563  34.952  11.456
41822W        W 5755  42.465  27.966   0.476
41823W        W 5756  15.171  32.967  12.418
41824W        W 5757  14.828  27.033  13.861
41825W        W 5758   6.824  34.558  12.354
41826W        W 5759  39.837   3.378  11.118
41827W        W 5760   9.698   5.795  11.994
41828W        W 5761  16.773  25.158   1.734
41829W        W 5762  39.049   3.838   3.653
41830W        W 5763  11.650  19.114   3.181
41831W        W 5764  33.961  37.342  13.483
41832W        W 5765  27.038   4.927  13.983
41833W        W 5766  17.151   6.845   4.797
41834W        W 5767  27.639   6.229  14.289
41835W        W 5768  23.514  21.251   4.822
41836W        W 5769   2.865  19.620  13.902
41837W        W 5770  23.674  25.657   4.754
41838W        W 5771  18.264  10.638  13.928
41839W        W 5772   0.452   0.880   1.898
41840W        W 5773  37.427  27.968   3.151
41841W        W 5774   3.735   0.472  14.285
41842W        W 5775  19.186  41.832   1.418
41843W        W 5776  10.289  24.134  14.494
41844W        W 5777  31.482  30.972  14.390
41845W        W 5778  36.870   9.243  11.589
41846W        W 5779   7.746  25.027  12.352
41847W        W 5780  39.984  21.080   3.779
41848W        W 5781   5.328   3.720   0.883
41849W        W 5782  12.854  43.311  12.037
41850W        W 5783  23.152   1.340   0.897
41851W        W 5784  39.985   5.696   1.907
41852W        W 5785  14.744  40.819   0.845
41853W        W 5786   7.250  15.215  13.941
41854W        W 5787  19.556   5.897  14.863
41855W        W 5788  18.094  19.630  12.395
41856W        W 5789  35.940  24.569  13.873
41857W        W 5790  36.924  19.197   2.751
41858W        W 5791  33.478  22.021  11.124
41859W        W 5792  32.623  12.706   4.672
41860W        W 5793  32.439   9.877   2.358
41861W        W 5794   7.314  34.024   1.338
41862W        W 5795  34.958   7.688  14.302
41863W        W 5796  43.405   4.749  12.579
41864W        W 5797  36.480  27.146  12.984
41865W        W 5798  11.207  41.019  13.472
41866W        W 5799   2.860   4.763   1.300
41867W        W 5800  22.037  10.297  12.976
41868W        W 5801  27.678  10.638  13.001
41869W        W 5802   4.362   3.876  11.561
41870W        W 5803   1.252  16.600   4.117
41871W        W 5804   0.293  39.884  10.522
41872W        W 5805  43.371  12.809  11.990
41873W        W 5806  41.901  10.150   4.672
41874W        W 5807  15.139  35.525   2.708
41875W        W 5808  29.125  41.896  11.035
41876W        W 5809   2.834  19.093  11.567
41877W        W 5810  42.333  32.417   4.284
41878W        W 5811   8.324   8.246  13.809
41879W        W 5812  18.646  16.109   5.220
41880W        W 5813  36.970  16.084  14.490
41881W        W 5814  12.233   3.914   2.858
41882W        W 5815  25.470  18.665  12.920
41883W        W 5816  14.650  23.637   3.762
41884W        W 5817  23.598  36.589  12.001
41885W        W 5818  23.692  23.685  11.041
41886W        W 5819  27.016  27.020   4.696
41887W        W 5820  43.303  28.993  11.570
41888W        W 5821  39.021  29.589   1.724
41889W        W 5822  43.325  43.910   4.731
41890W        W 5823  44.786  23.076   2.886
41891W        W 5824  25.024   4.415  10.971
41892W        W 5825  11.825  20.203  13.417
41893W        W 5826  26.977  31.041   1.807
41894W        W 5827   2.854  32.579  14.469
41895W        W 5828  42.468  17.767   2.730
41896W        W 5829  15.199  43.910   1.385
41897W        W 5830  14.135  18.702   5.310
41898W        W 5831  12.844  30.968  14.509
41899W        W 5832  13.662  31.466   0.900
41900W        W 5833  16.159  30.548  14.289
41901W        W 5834   0.791  43.440  10.916
41902W        W 5835   7.354   9.293  11.567
41903W        W 5836   9.729  36.591   0.731
41904W        W 5837  16.119  34.492   4.243
41905W        W 5838   4.334  38.996   3.274
41906W        W 5839  39.954  29.154   1.821
41907W        W 5840  23.597  30.508   1.920
41908W        W 5841  18.226  33.399  11.521
41909W        W 5842   1.341  40.873  10.521
41910W        W 5843   3.752  17.711   2.882
41911W        W 5844  24.091  15.153   0.896
41912W        W 5845  44.918  26.002   2.808
41913W        W 5846  24.060  12.208   0.311
41914W        W 5847  15.214   8.816   0.305
41915W        W 5848   6.798  38.390  13.392
41916W        W 5849  26.550   9.886   4.622
41917W        W 5850  34.048  20.537  11.117
41918W        W 5851   2.728  13.728   0.915
41919W        W 5852  23.227  35.358   1.786
41920W        W 5853  41.399  10.697   0.469
41921W        W 5854  40.480  21.699   0.329
41922W        W 5855  15.171   8.290   5.107
41923W        W 5856  35.102  36.031   2.770
41924W        W 5857  37.918  28.679   4.284
41925W        W 5858  16.661  33.525   2.205
41926W        W 5859  22.160  29.485   4.253
41927W        W 5860  33.894   9.785  13.988
41928W        W 5861  21.584  44.002  14.301
41929W        W 5862  44.437  25.026  12.429
41930W        W 5863  22.710  24.539  13.944
41931W        W 5864  18.283   1.923  12.088
41932W        W 5865   2.826  15.134  14.385
41933W        W 5866  34.059  30.033   0.320
41934W        W 5867  16.166  22.663   0.278
41935W        W 5868   2.890   0.812   2.769
41936W        W 5869  23.020   9.806   3.201
41937W        W 5870  27.039  32.128  12.348
41938W        W 5871  33.442  31.581  13.847
41939W        W 5872  19.558  12.275  13.935
41940W        W 5873   5.266  10.285   1.427
41941W        W 5874  33.615   7.247  10.159
41942W        W 5875   3.898  41.497   2.800
41943W        W 5876   3.911   8.699   0.377
41944W        W 5877  11.762  40.496   3.259
41945W        W 5878  16.684  18.176   2.360
41946W        W 5879   8.821  42.005  13.525
41947W        W 5880   2.253  40.983  13.435
41948W        W 5881  24.493   2.784  11.605
41949W        W 5882  28.657   6.369   2.771
41950W        W 5883  28.679  36.549  10.976
41951W        W 5884  27.616  35.535  13.969
41952W        W 5885  39.881  39.994  12.517
41953W        W 5886  36.843   9.857   4.136
41954W        W 5887  11.137   2.342   1.275
41955W        W 5888  40.363  26.038   1.218
41956W        W 5889   1.876   0.945  11.464
41957W        W 5890  28.081   9.264  11.959
41958W        W 5891  19.596  21.742  13.055
41959W        W 5892  39.422   7.770   2.255
41960W        W 5893  37.066  37.865   1.704
41961W        W 5894  10.782  19.053   1.934
41962W        W 5895   3.901  43.764   0.471
41963W        W 5896  19.745  24.992   0.317
41964W        W 5897  15.671  23.693  12.375
41965W        W 5898  18.545   7.785  10.500
41966W        W 5899  43.900  28.180   3.320
41967W        W 5900  33.895  14.273  13.520
41968W        W 5901  10.794  40.374   2.307
41969W        W 5902  21.618  11.227  13.401
41970W        W 5903   4.742  42.412   0.277
41971W        W 5904  12.696  21.623  12.912
41972W        W 5905  18.255   0.843  11.443
41973W        W 5906  32.078  26.065   0.351
41974W        W 5907   0.976   8.275  11.513
41975W        W 5908  17.158  21.678  14.842
41976W        W 5909  32.136   9.239  14.982
41977W        W 5910  40.020   2.773  12.091
41978W        W 5911  21.617   0.973   1.381
41979W        W 5912  29.507   8.886  10.159
41980W        W 5913  23.100  35.592   3.348
41981W        W 5914  11.763  32.404  10.633
41982W        W 5915   4.918  20.131  10.941
41983W        W 5916  34.120  33.019   2.817
41984W        W 5917  14.604  41.991  10.435
41985W        W 5918  26.568  20.038   1.719
41986W        W 5919  36.556  13.670  10.634
41987W        W 5920   2.256  17.069   4.187
41988W        W 5921  18.653  35.428  11.063
41989W        W 5922  22.663  39.558  12.958
41990W        W 5923  30.593  14.201   2.712
41991W        W 5924  18.769  30.140   0.769
41992W        W 5925  25.531  14.672   3.666
41993W        W 5926   0.968  41.484  14.787
41994W        W 5927  42.421  40.482   1.416
41995W        W 5928  31.408  11.178   0.392
41996W        W 5929  19.720  12.327   0.450
41997W        W 5930  21.687  34.547  12.081
41998W        W 5931  33.969  16.787  14.809
41999W        W 5932  14.312  12.828  14.861
42000W        W 5933  12.193  17.800  13.847
42001W        W 5934   0.265  14.711  13.946
42002W        W 5935  24.646  20.555   4.812
42003W        W 5936   2.368  37.024  14.302
42004W        W 5937   0.430   4.372   0.337
42005W        W 5938  24.596   8.709   1.767
42006W        W 5939  42.854  38.048   0.259
42007W        W 5940  40.326  20.154   4.173
42008W        W 5941  11.815  36.881   3.722
42009W        W 5942  26.026  24.986   1.399
42010W        W 5943  22.585   2.731   0.332
42011W        W 5944  35.911   8.203   0.862
42012W        W 5945   6.920  23.040   1.883
42013W        W 5946  22.199   7.796   3.298
42014W        W 5947  32.983  30.544   1.264
42015W        W 5948  33.979  25.568   1.719
42016W        W 5949  31.553  30.622   3.157
42017W        W 5950  29.018  14.221  11.492
42018W        W 5951  17.133  38.855  10.921
42019W        W 5952  30.125   5.716   1.211
42020W        W 5953  22.999  31.418  11.909
42021W        W 5954  23.202  26.178   4.782
42022W        W 5955   4.392   3.387   9.556
42023W        W 5956  26.089  15.598   4.138
42024W        W 5957  42.825  32.917  12.367
42025W        W 5958  15.163  39.032  10.614
42026W        W 5959  33.525  33.543  11.106
42027W        W 5960  16.659  37.029   3.382
42028W        W 5961  13.754  32.956   2.721
42029W        W 5962  26.017   7.182  12.369
42030W        W 5963  22.513  33.518  11.909
42031W        W 5964  27.468   0.303  12.092
42032W        W 5965  32.011  43.425   0.780
42033W        W 5966  36.928  18.657  11.091
42034W        W 5967   8.237  44.497  11.992
42035W        W 5968  41.950  34.078   0.359
42036W        W 5969  24.113  41.521   3.728
42037W        W 5970  42.790  37.347   4.172
42038W        W 5971   6.215  30.031  13.343
42039W        W 5972   7.261  36.374  10.637
42040W        W 5973  23.689  12.624   2.871
42041W        W 5974  30.912  39.829   3.324
42042W        W 5975  11.848   1.762   4.649
42043W        W 5976  37.890  39.874  12.957
42044W        W 5977  11.335  32.557   3.795
42045W        W 5978  41.379  12.240   3.378
42046W        W 5979  41.828  24.176   5.106
42047W        W 5980  33.126  19.157  12.417
42048W        W 5981   4.253  26.461  11.457
42049W        W 5982   3.755  18.233   3.304
42050W        W 5983  23.204   9.200   1.707
42051W        W 5984   9.221  17.578   3.734
42052W        W 5985  36.548  33.999  11.544
42053W        W 5986  21.685  18.123  13.966
42054W        W 5987  38.891  41.344  13.014
42055W        W 5988  10.304  13.743   3.676
42056W        W 5989  11.682  33.121  14.942
42057W        W 5990   6.716  26.060  13.336
42058W        W 5991  37.390  28.025   5.218
42059W        W 5992  32.101  30.012   0.963
42060W        W 5993  10.826  11.272   4.285
42061W        W 5994   4.212  38.886   2.233
42062W        W 5995   9.328   0.333  10.973
42063W        W 5996  32.063   2.814   0.958
42064W        W 5997  12.704   0.947  10.953
42065W        W 5998  33.530  10.309  14.996
42066W        W 5999  35.993  14.724   2.843
42067W        W 6000  14.622  37.848   2.408
42068W        W 6001  35.882  27.455  10.998
42069W        W 6002  21.572  28.963   1.816
42070W        W 6003  27.649  21.195  11.517
42071W        W 6004  17.136  31.503  12.895
42072W        W 6005   7.877  16.176  13.399
42073W        W 6006  38.956  31.519  14.990
42074W        W 6007  18.128   9.205  12.020
42075W        W 6008  32.132  18.132   0.394
42076W        W 6009  43.021   7.250  10.983
42077W        W 6010   0.312  19.571   1.284
42078W        W 6011  10.286  34.494   4.606
42079W        W 6012   9.829  13.192   3.633
42080W        W 6013  42.853  37.986  11.442
42081W        W 6014  11.633  37.017  13.937
42082W        W 6015  24.106  18.771  13.820
42083W        W 6016  28.488   5.305   4.831
42084W        W 6017  41.497  22.026   0.325
42085W        W 6018   7.789  25.108  13.537
42086W        W 6019  42.334  28.110  13.846
42087W        W 6020   7.385  35.881   2.701
42088W        W 6021   9.792   9.841  10.506
42089W        W 6022  40.902  23.567  10.642
42090W        W 6023   9.319  19.589   2.787
42091W        W 6024  40.470  30.978   4.833
42092W        W 6025  37.951  29.161   2.303
42093W        W 6026  40.318  10.172  12.497
42094W        W 6027  11.855  31.114   2.360
42095W        W 6028  44.302  20.667  11.997
42096W        W 6029  39.057  11.153  11.612
42097W        W 6030   3.263  44.478  10.906
42098W        W 6031  13.351  19.535  10.431
42099W        W 6032   1.855   8.814   4.205
42100W        W 6033  24.034  42.931   1.240
42101W        W 6034  40.850  37.565   0.950
42102W        W 6035   7.745   0.743  12.555
42103W        W 6036   2.967  17.574  11.613
42104W        W 6037  37.016   7.881   3.303
42105W        W 6038  12.695  15.276  10.945
42106W        W 6039   5.323   8.768  10.542
42107W        W 6040  18.084  40.444   4.335
42108W        W 6041  12.719  38.043  12.518
42109W        W 6042  18.200  31.974  14.822
42110W        W 6043  16.208  38.335  10.893
42111W        W 6044  44.308  37.913   4.228
42112W        W 6045  31.038  38.497  11.419
42113W        W 6046  21.648  28.974   2.812
42114W        W 6047  34.484  33.998   2.187
42115W        W 6048  27.644  38.048   1.261
42116W        W 6049  43.384   4.711   0.940
42117W        W 6050  37.960  15.681  11.568
42118W        W 6051  37.418  34.981  11.400
42119W        W 6052  32.533  21.685  11.409
42120W        W 6053  15.664  36.587  10.472
42121W        W 6054  43.310   3.374  10.447
42122W        W 6055  32.589  34.548  10.916
42123W        W 6056  17.202  30.593  14.985
42124W        W 6057  37.984  21.668   4.814
42125W        W 6058  26.664  25.128  13.962
42126W        W 6059  10.738   5.288   4.829
42127W        W 6060  44.291  25.049  11.447
42128W        W 6061  36.032   9.323  12.934
42129W        W 6062   1.345   6.739   1.234
42130W        W 6063  14.162  33.557   1.262
42131W        W 6064   7.300  27.069   2.331
42132W        W 6065  25.496  23.636   1.799
42133W        W 6066  24.169  40.441   2.349
42134W        W 6067  37.921  30.939   0.315
42135W        W 6068  36.355  36.587   4.138
42136W        W 6069   0.352   8.216  11.513
42137W        W 6070   6.686  40.872   0.467
42138W        W 6071   6.265  19.691  10.431
42139W        W 6072   2.255   3.339   0.289
42140W        W 6073  19.666   8.244  11.917
42141W        W 6074  33.046  21.590  12.514
42142W        W 6075   6.329   2.819  12.471
42143W        W 6076   6.861   2.744  13.400
42144W        W 6077  19.611  38.507  11.029
42145W        W 6078  19.764  39.924   4.343
42146W        W 6079  27.942  26.137   3.374
42147W        W 6080  28.504   8.667  12.395
42148W        W 6081  10.295  13.125  13.459
42149W        W 6082  44.985  11.293  11.875
42150W        W 6083  20.226  39.033   4.309
42151W        W 6084  37.839  21.728  13.965
42152W        W 6085  14.232  43.961   2.683
42153W        W 6086  20.054  37.545  12.364
42154W        W 6087  29.020  26.099   2.302
42155W        W 6088   8.366   8.202  13.501
42156W        W 6089  26.674  31.937   2.192
42157W        W 6090  38.974  23.643  11.078
42158W        W 6091   6.844  21.513  10.949
42159W        W 6092  10.188  21.545   2.900
42160W        W 6093  28.530  39.907  12.453
42161W        W 6094  29.461  14.276   2.834
42162W        W 6095  23.185  38.417   0.317
42163W        W 6096  34.374  16.602   3.192
42164W        W 6097   3.715   5.704   2.778
42165W        W 6098  40.906  16.570   3.349
42166W        W 6099  33.390   0.962   1.843
42167W        W 6100  28.439  18.102  10.433
42168W        W 6101  29.473  40.451  12.921
42169W        W 6102  26.122  40.408   0.920
42170W        W 6103   9.250   1.865  14.326
42171W        W 6104   0.484   9.277   1.758
42172W        W 6105  44.839  12.340  10.973
42173W        W 6106  42.383   1.747   1.349
42174W        W 6107   3.380   5.229  12.900
42175W        W 6108  40.375  12.319   4.297
42176W        W 6109  14.701  38.025   0.320
42177W        W 6110   9.302  13.682  10.470
42178W        W 6111  11.656  12.776  13.809
42179W        W 6112   1.955  32.077   4.178
42180W        W 6113  34.457   3.254   3.771
42181W        W 6114  14.616   7.196   3.199
42182W        W 6115  14.791  38.358   1.282
42183W        W 6116  33.602  30.104   3.774
42184W        W 6117  40.347  15.143  10.497
42185W        W 6118  30.966   1.961  11.371
42186W        W 6119   4.729  37.343  10.515
42187W        W 6120  40.966  41.355  14.310
42188W        W 6121  20.105  35.926  12.072
42189W        W 6122  44.379   8.674   3.815
42190W        W 6123  38.840   7.386   2.770
42191W        W 6124   6.894  11.147  14.934
42192W        W 6125   0.386  23.080   4.783
42193W        W 6126  22.639  36.582   5.180
42194W        W 6127   3.266  42.031   1.766
42195W        W 6128  12.801  17.795   3.238
42196W        W 6129  15.652  15.798  11.492
42197W        W 6130  15.808  34.452  12.044
42198W        W 6131  26.063  42.872   5.689
42199W        W 6132  32.008  27.511   2.833
42200W        W 6133  35.497  17.668   2.224
42201W        W 6134   0.924   9.229  10.456
42202W        W 6135  37.406  40.521  13.472
42203W        W 6136  23.115  17.062   4.816
42204W        W 6137   5.327  31.109  11.056
42205W        W 6138  26.643  36.854  14.418
42206W        W 6139   3.887  21.122   3.317
42207W        W 6140  24.530  33.064  14.023
42208W        W 6141  32.926  34.600  12.453
42209W        W 6142   5.866  26.148   4.225
42210W        W 6143  26.574   0.948   1.854
42211W        W 6144  13.691  30.972  12.842
42212W        W 6145  44.813  22.713   4.249
42213W        W 6146  23.734  11.325  12.431
42214W        W 6147  28.521  31.565  12.933
42215W        W 6148  44.411   6.862  11.598
42216W        W 6149   2.341   3.262  14.486
42217W        W 6150  36.895  29.564  11.427
42218W        W 6151  34.869   6.410  10.428
42219W        W 6152  32.524  43.957  10.919
42220W        W 6153  14.131  31.001   1.836
42221W        W 6154   0.304  27.947  11.575
42222W        W 6155  38.363   5.908   1.932
42223W        W 6156   8.798  40.818   4.162
42224W        W 6157  36.978  31.530   4.321
42225W        W 6158  31.513  10.780  13.445
42226W        W 6159   1.866  18.285   4.635
42227W        W 6160  31.921   1.913  10.561
42228W        W 6161   6.801  26.019   9.936
42229W        W 6162   1.837  16.598   2.224
42230W        W 6163  39.938  32.391   2.760
42231W        W 6164   5.730  23.122  10.987
42232W        W 6165  42.909  27.149  13.981
42233W        W 6166  36.858  36.917   2.674
42234W        W 6167  39.961  36.558  14.828
42235W        W 6168  37.002  27.524  13.056
42236W        W 6169  20.251  40.006   1.383
42237W        W 6170  32.527  17.714  13.033
42238W        W 6171  42.928   9.661   3.182
42239W        W 6172  17.169  21.225   0.917
42240W        W 6173  12.213  34.390   2.744
42241W        W 6174   4.783  20.060  13.343
42242W        W 6175  33.128  23.061  10.956
42243W        W 6176  36.389  22.681  14.373
42244W        W 6177  19.213   0.330  14.377
42245W        W 6178  15.228  31.449  11.868
42246W        W 6179  16.598  19.720  11.382
42247W        W 6180   5.314  24.089   9.576
42248W        W 6181   9.352  42.283  14.492
42249W        W 6182  41.319  17.651  13.972
42250W        W 6183  36.050  14.627  13.957
42251W        W 6184  16.100  25.593   3.387
42252W        W 6185  43.337  25.018  12.455
42253W        W 6186  25.676  34.111   3.848
42254W        W 6187   2.368   7.820  10.518
42255W        W 6188  31.629  43.444   1.728
42256W        W 6189  31.433  33.600  12.968
42257W        W 6190  41.014   1.410  11.985
42258W        W 6191  40.814  25.538  11.082
42259W        W 6192  28.489  26.562   0.805
42260W        W 6193  15.109  33.547  12.526
42261W        W 6194   9.315  33.512  11.976
42262W        W 6195  31.506   8.282   2.821
42263W        W 6196  44.452  37.522  11.473
42264W        W 6197   9.373  40.460  10.505
42265W        W 6198  31.991  35.524  13.831
42266W        W 6199  10.265  32.613  14.280
42267W        W 6200  22.633  29.062   4.780
42268W        W 6201  37.944  30.027  11.577
42269W        W 6202  23.519  38.395  13.516
42270W        W 6203  29.501  35.597  12.382
42271W        W 6204   6.898  24.183  14.960
42272W        W 6205  24.599  23.657  12.997
42273W        W 6206  33.539  32.992   0.939
42274W        W 6207  14.664  19.207  14.009
42275W        W 6208  35.016  17.176   4.651
42276W        W 6209  29.971   5.410   0.284
42277W        W 6210   6.200  40.830   0.454
42278W        W 6211  15.288  30.548   2.305
42279W        W 6212   3.438  32.495   1.255
42280W        W 6213  42.824  21.245  14.900
42281W        W 6214  20.166  39.358   5.109
42282W        W 6215  35.550  34.069  12.474
42283W        W 6216  25.477  15.152  12.383
42284W        W 6217  36.483  33.088   1.896
42285W        W 6218  17.228  34.989   3.838
42286W        W 6219  44.394  37.391  12.050
42287W        W 6220  34.420  33.952  11.411
42288W        W 6221  18.052  30.442  11.000
42289W        W 6222  23.026  31.550   1.324
42290W        W 6223  35.075  30.620  11.944
42291W        W 6224  10.688  15.178  11.129
42292W        W 6225  11.719  17.174  10.123
42293W        W 6226  28.465  15.787   1.280
42294W        W 6227  19.081  16.223  11.377
42295W        W 6228   0.895  43.395  10.634
42296W        W 6229  34.501   7.883  14.858
42297W        W 6230  41.845  33.600  12.410
42298W        W 6231  11.637  29.450  13.947
42299W        W 6232  39.501   8.397  11.449
42300W        W 6233  18.229  19.142  14.835
42301W        W 6234  28.106  31.972   4.130
42302W        W 6235  34.441   4.364  13.813
42303W        W 6236  25.984   1.395   4.622
42304W        W 6237  42.928   3.398   4.319
42305W        W 6238  36.413  24.530   0.422
42306W        W 6239  20.221  29.661  14.998
42307W        W 6240  14.296  11.731   2.789
42308W        W 6241  39.061  20.140   3.283
42309W        W 6242  29.477  26.501   4.837
42310W        W 6243  11.279  18.656  11.070
42311W        W 6244  22.520   4.859   4.170
42312W        W 6245  43.003   8.813  11.417
42313W        W 6246  43.356  32.041  12.923
42314W        W 6247   9.773   4.449   0.354
42315W        W 6248  38.409  18.675   0.744
42316W        W 6249  14.818  32.017  14.952
42317W        W 6250  31.573   0.350  10.533
42318W        W 6251  11.138  17.555   4.783
42319W        W 6252  16.104  37.842  12.491
42320W        W 6253   0.424  24.064   4.734
42321W        W 6254   6.917   9.165  12.095
42322W        W 6255  15.652  11.299  10.510
42323W        W 6256   8.230  18.117  14.984
42324W        W 6257  26.965  41.800  13.491
42325W        W 6258   1.865  27.134  12.348
42326W        W 6259  13.196  16.681  12.019
42327W        W 6260  40.376  41.531   0.854
42328W        W 6261   4.381   1.791   2.197
42329W        W 6262  27.650  16.661  11.062
42330W        W 6263  34.894  15.212  12.517
42331W        W 6264  17.232  34.486   3.217
42332W        W 6265  23.225  41.981  10.604
42333W        W 6266  36.074  29.540  13.952
42334W        W 6267   3.427  18.138  13.034
42335W        W 6268  33.131  27.689  14.411
42336W        W 6269   4.282  38.976  12.478
42337W        W 6270  11.720   2.855  10.411
42338W        W 6271   3.786  34.532  12.883
42339W        W 6272  44.322   6.428  14.024
42340W        W 6273  37.045  31.541   0.329
42341W        W 6274  35.865  44.878   1.911
42342W        W 6275   4.911  27.655  14.805
42343W        W 6276  41.956  39.360  12.389
42344W        W 6277  29.448  16.233   2.680
42345W        W 6278  17.118   7.372  14.828
42346W        W 6279  40.452  26.696  13.410
42347W        W 6280  24.606  22.740  14.470
42348W        W 6281  11.153  37.374   1.253
42349W        W 6282  43.462  38.021   1.751
42350W        W 6283   1.259   7.871  14.395
42351W        W 6284  29.652  35.474   1.359
42352W        W 6285   5.792  42.392   0.445
42353W        W 6286  32.063  26.691   2.727
42354W        W 6287   1.426   5.742  11.522
42355W        W 6288  30.907  40.372  13.481
42356W        W 6289  35.588   4.871   3.699
42357W        W 6290  43.351  37.578  13.842
42358W        W 6291  39.050  44.790  13.314
42359W        W 6292   1.465  15.817  13.474
42360W        W 6293  43.425  36.957  13.990
42361W        W 6294  23.504  34.988   1.738
42362W        W 6295  35.989   9.182   3.318
42363W        W 6296  37.553  43.017   3.215
42364W        W 6297   7.241  16.782  11.582
42365W        W 6298  25.008  32.600   2.849
42366W        W 6299  29.521  41.850  13.340
42367W        W 6300  36.476  28.995  13.505
42368W        W 6301  17.683  17.580  10.493
42369W        W 6302  21.704  21.018   3.320
42370W        W 6303  23.541   4.381  11.492
42371W        W 6304   4.210  40.933  13.454
42372W        W 6305  41.296  15.172  11.539
42373W        W 6306  21.246  37.024   0.935
42374W        W 6307  12.800   2.415  11.519
42375W        W 6308  43.957  20.733  10.425
42376W        W 6309  35.594  31.612  14.856
42377W        W 6310  11.828  21.528   4.210
42378W        W 6311   5.877  26.538   2.780
42379W        W 6312   0.419  36.538   9.976
42380W        W 6313  26.994   9.370  14.514
42381W        W 6314  39.550   6.906   1.864
42382W        W 6315  34.869  28.965  14.289
42383W        W 6316  21.205  22.169  13.051
42384W        W 6317  37.032  17.674  13.921
42385W        W 6318  32.963  43.452   1.236
42386W        W 6319  17.665   7.384  14.286
42387W        W 6320  28.529  22.605  11.057
42388W        W 6321  25.972   3.429   3.815
42389W        W 6322  24.201  17.155   0.802
42390W        W 6323  43.370   3.784  13.332
42391W        W 6324   5.405  23.029  10.918
42392W        W 6325  40.344   0.766   2.350
42393W        W 6326  42.405  30.629  11.427
42394W        W 6327  27.197  37.439  13.378
42395W        W 6328  24.534  17.220   1.792
42396W        W 6329  36.475  36.511  12.969
42397W        W 6330   5.334   1.443  11.462
42398W        W 6331  22.213   2.442  12.018
42399W        W 6332  27.572  30.559  14.360
42400W        W 6333  44.860   9.362  14.459
42401W        W 6334  14.217  37.477  11.110
42402W        W 6335  37.081  21.566   3.369
42403W        W 6336   1.810  18.105   2.835
42404W        W 6337  30.434  30.508   3.765
42405W        W 6338  35.390   7.351   4.642
42406W        W 6339  13.705   7.187  14.968
42407W        W 6340  37.914  36.928   4.325
42408W        W 6341  10.244   9.649  14.961
42409W        W 6342  28.652  14.332  11.456
42410W        W 6343  28.012  11.234  12.369
42411W        W 6344  25.599  21.260  13.523
42412W        W 6345  38.879  44.811  13.872
42413W        W 6346  38.541   9.245  11.476
42414W        W 6347  18.724   4.327   1.851
42415W        W 6348   3.404  36.018  14.017
42416W        W 6349  21.731  39.326   0.778
42417W        W 6350  38.069  11.183   2.282
42418W        W 6351  24.674  34.568  11.104
42419W        W 6352   8.257  25.106  11.395
42420W        W 6353   3.787  16.234   1.819
42421W        W 6354  14.735  22.500  13.339
42422W        W 6355  26.688  17.195   2.404
42423W        W 6356  28.524   3.233   2.273
42424W        W 6357  25.123   4.745   2.792
42425W        W 6358   4.359  37.406  12.568
42426W        W 6359  40.539  31.151  13.476
42427W        W 6360   4.217  39.527   3.156
42428W        W 6361  32.468  34.991   1.777
42429W        W 6362  17.663   8.666   1.406
42430W        W 6363  39.974  25.083  14.353
42431W        W 6364   9.761  34.118  10.564
42432W        W 6365  33.564  15.119  10.507
42433W        W 6366  19.250   8.886  12.508
42434W        W 6367  15.662  35.995   1.333
42435W        W 6368  11.762  11.134   1.695
42436W        W 6369  42.293  10.301   2.410
42437W        W 6370  16.709  20.182  14.872
42438W        W 6371  37.513   6.255   0.453
42439W        W 6372  24.632  29.491  13.040
42440W        W 6373  26.494  19.715  14.925
42441W        W 6374  39.464   9.822   1.395
42442W        W 6375   0.907  22.530  11.959
42443W        W 6376  40.492  12.795  12.379
42444W        W 6377  33.522  25.054  14.286
42445W        W 6378  43.997  21.604  14.795
42446W        W 6379  14.652   2.360  14.344
42447W        W 6380   4.206  18.082  14.400
42448W        W 6381  28.148  21.631   2.754
42449W        W 6382  26.171   4.422   0.799
42450W        W 6383  43.493   7.803  12.949
42451W        W 6384   7.344  14.268   3.250
42452W        W 6385  34.063  26.086  14.968
42453W        W 6386  16.315  39.041   3.709
42454W        W 6387  38.486  11.224   1.731
42455W        W 6388   2.925  20.710   1.297
42456W        W 6389  43.312   6.282  12.879
42457W        W 6390  42.513  20.687  10.632
42458W        W 6391  23.235   3.954   0.907
42459W        W 6392  23.658  10.877   3.257
42460W        W 6393  10.740  30.041  14.458
42461W        W 6394  15.698  40.361  10.919
42462W        W 6395  37.522  21.119   4.720
42463W        W 6396  20.531  12.751  14.437
42464W        W 6397   2.411  26.684  12.068
42465W        W 6398   8.656   8.251  12.955
42466W        W 6399  21.619  11.755   2.230
42467W        W 6400   5.406  28.582   2.871
42468W        W 6401  38.942  15.745  13.482
42469W        W 6402  37.462  11.767   3.790
42470W        W 6403  32.122   2.908   0.476
42471W        W 6404   0.456  39.330   9.668
42472W        W 6405  16.229  42.391  12.977
42473W        W 6406  19.598  18.633   4.800
42474W        W 6407  17.289  24.170   4.793
42475W        W 6408  17.798   4.906   4.824
42476W        W 6409  42.870   1.267   2.725
42477W        W 6410   2.346  11.627  14.776
42478W        W 6411  34.864  14.096   2.357
42479W        W 6412  26.077   0.971   4.737
42480W        W 6413   6.239  22.114   0.929
42481W        W 6414   2.411  25.477   1.339
42482W        W 6415  29.462  42.898  10.637
42483W        W 6416  22.126  18.774   1.265
42484W        W 6417  44.459  16.609  13.542
42485W        W 6418  44.450   1.867  11.077
42486W        W 6419  44.947   6.195   1.873
42487W        W 6420   2.743  16.808   0.869
42488W        W 6421  15.768  40.992   9.986
42489W        W 6422   5.698  21.186  13.923
42490W        W 6423  27.163   2.746  14.929
42491W        W 6424   4.257  23.111  13.923
42492W        W 6425  41.396  37.003   0.759
42493W        W 6426  16.102  16.118  11.972
42494W        W 6427  22.203  30.530  10.592
42495W        W 6428   2.320   9.339  12.831
42496W        W 6429  15.116   9.746   3.340
42497W        W 6430   2.371  24.124  11.988
42498W        W 6431  10.231   1.360  12.499
42499W        W 6432  22.707   1.933   2.776
42500W        W 6433  29.622  28.118  11.871
42501W        W 6434   2.903  22.038   0.349
42502W        W 6435  10.327   1.244  11.084
42503W        W 6436  13.707  28.567   4.157
42504W        W 6437  25.672  15.308   3.683
42505W        W 6438  12.281  17.674  11.539
42506W        W 6439  17.193   4.274   0.426
42507W        W 6440  15.643   0.269  13.939
42508W        W 6441  32.917  10.711   0.290
42509W        W 6442  18.114  17.186  12.908
42510W        W 6443  40.371  42.863   1.816
42511W        W 6444   5.332   1.832   1.875
42512W        W 6445  34.881  22.069  13.923
42513W        W 6446  23.534   6.295   0.259
42514W        W 6447  12.751  25.169   1.804
42515W        W 6448  33.562  32.461  12.568
42516W        W 6449  29.127  11.145  12.547
42517W        W 6450  42.829  18.565  14.405
42518W        W 6451  17.186  18.133  12.988
42519W        W 6452   2.881  37.990  11.913
42520W        W 6453  10.659  37.362   4.242
42521W        W 6454  38.988  10.710  14.779
42522W        W 6455  26.157  15.634  10.516
42523W        W 6456  16.132  12.827   3.664
42524W        W 6457  44.001  20.203   3.762
42525W        W 6458  31.598  42.800   2.670
42526W        W 6459  21.096  33.060  14.943
42527W        W 6460  22.660  21.681   0.317
42528W        W 6461  41.989  26.622  14.328
42529W        W 6462  41.416  21.171   1.738
42530W        W 6463  40.379  42.282  11.502
42531W        W 6464  29.093  26.988  11.925
42532W        W 6465  31.612  31.576   0.461
42533W        W 6466  30.637  38.504  11.061
42534W        W 6467  18.080   3.741  12.465
42535W        W 6468  44.377  39.316  10.630
42536W        W 6469  44.470  15.285   4.322
42537W        W 6470  36.955  24.622   3.320
42538W        W 6471  33.967  41.965  13.404
42539W        W 6472  44.955  16.691   2.779
42540W        W 6473  30.570  28.537  11.516
42541W        W 6474  37.849  28.017  11.015
42542W        W 6475  25.091  34.884   3.683
42543W        W 6476  15.672  14.603   1.837
42544W        W 6477  25.515  20.755  11.590
42545W        W 6478  42.447  20.612   2.701
42546W        W 6479  26.154   4.422   2.304
42547W        W 6480  37.388   0.968   0.966
42548W        W 6481  20.036  24.023   0.834
42549W        W 6482  38.488  32.436  12.409
42550W        W 6483  18.198  13.691   4.335
42551W        W 6484  35.446  32.532  13.881
42552W        W 6485  28.079  44.337  12.939
42553W        W 6486  15.199  32.411  13.022
42554W        W 6487  41.031  29.667  14.331
42555W        W 6488   0.482  39.880  11.874
42556W        W 6489  31.064   7.186   5.153
42557W        W 6490  28.037   6.359   4.279
42558W        W 6491  21.037  18.289   3.766
42559W        W 6492  36.588  12.325  11.372
42560W        W 6493  18.633   2.871   3.727
42561W        W 6494  20.185  12.234  10.458
42562W        W 6495  44.451  32.538  13.824
42563W        W 6496  29.590  13.732   4.630
42564W        W 6497  34.384   4.334  11.980
42565W        W 6498  30.984  16.103  14.787
42566W        W 6499   8.734  17.142   4.669
42567W        W 6500  24.120   3.264  13.009
42568W        W 6501  31.526  42.795   1.728
42569W        W 6502  20.679  12.805  12.480
42570W        W 6503  39.486  22.102   1.447
42571W        W 6504   0.477  23.678  14.434
42572W        W 6505  17.610  38.060   1.451
42573W        W 6506   0.319  21.702   0.259
42574W        W 6507  44.448  41.315  12.837
42575W        W 6508   5.708   4.705  14.280
42576W        W 6509  34.034  15.781  12.340
42577W        W 6510  13.224  35.990   1.752
42578W        W 6511   5.394  16.610   1.251
42579W        W 6512  39.482  40.349   2.687
42580W        W 6513  35.075   8.395  14.391
42581W        W 6514   8.790  28.021   2.862
42582W        W 6515  35.994   7.670   2.669
42583W        W 6516  32.001  16.186  13.521
42584W        W 6517  24.103  40.523   0.283
42585W        W 6518  12.838   9.683  12.908
42586W        W 6519   7.722  12.178   1.336
42587W        W 6520  14.279  29.461   4.140
42588W        W 6521  16.302  19.584   9.542
42589W        W 6522   2.859  21.542   1.702
42590W        W 6523  10.705   0.842  10.909
42591W        W 6524  12.210  21.028   0.281
42592W        W 6525  12.710  29.032  14.472
42593W        W 6526  27.998  29.631  13.017
42594W        W 6527   9.390  15.680  11.470
42595W        W 6528  30.420  35.525  10.600
42596W        W 6529  12.154  42.837  12.964
42597W        W 6530  20.540  19.049  11.979
42598W        W 6531  19.677  32.423   4.230
42599W        W 6532   6.825  14.588   3.304
42600W        W 6533  42.875  31.087   2.408
42601W        W 6534   3.411   5.413   0.386
42602W        W 6535  39.835   2.379  13.910
42603W        W 6536  19.586  30.907  10.442
42604W        W 6537  31.567  13.237   3.307
42605W        W 6538  40.017  27.033   2.220
42606W        W 6539  10.773  14.286  13.045
42607W        W 6540  20.766   2.878  12.537
42608W        W 6541   6.751   6.276   4.251
42609W        W 6542  20.116  33.077   0.451
42610W        W 6543  34.565   1.437  11.416
42611W        W 6544  38.550   0.970  13.834
42612W        W 6545   3.751  43.868  14.791
42613W        W 6546  14.150  35.874   4.752
42614W        W 6547   5.735  36.988  12.928
42615W        W 6548  31.538  19.084  10.992
42616W        W 6549  20.563   9.192   0.809
42617W        W 6550  19.170  34.027   4.270
42618W        W 6551  13.313  29.096  11.544
42619W        W 6552  33.382  23.194  12.931
42620W        W 6553   0.463  34.104   4.328
42621W        W 6554  41.444  42.501   0.905
42622W        W 6555   0.836  37.469   5.297
42623W        W 6556  18.669  23.626   4.790
42624W        W 6557  25.169   5.783   3.383
42625W        W 6558  15.650   7.201   0.757
42626W        W 6559   5.703  29.590  12.919
42627W        W 6560   1.298  17.697  13.487
42628W        W 6561   7.412  39.872  14.930
42629W        W 6562  24.981  18.159  12.909
42630W        W 6563  25.662  40.828  11.072
42631W        W 6564  27.665  11.331  14.390
42632W        W 6565   6.787  15.730  10.906
42633W        W 6566  27.044  42.318  13.373
42634W        W 6567  20.719  41.031  14.436
42635W        W 6568  15.653  21.644   1.780
42636W        W 6569  29.105  10.701   0.868
42637W        W 6570  35.496  42.890   2.396
42638W        W 6571  40.426  41.498   4.759
42639W        W 6572  15.714  17.131   2.244
42640W        W 6573   4.707  27.672   3.252
42641W        W 6574  39.062  14.325  10.146
42642W        W 6575  42.856   8.750   0.271
42643W        W 6576  28.093  44.758   9.999
42644W        W 6577  37.442  32.125  13.307
42645W        W 6578  30.659  22.178   3.686
42646W        W 6579   2.819  12.149  12.036
42647W        W 6580  32.469  12.154  11.474
42648W        W 6581   3.379  11.845  12.843
42649W        W 6582  38.056  41.025   3.178
42650W        W 6583  13.665  11.783  11.992
42651W        W 6584  26.585   1.432  10.460
42652W        W 6585  24.497   0.391   2.294
42653W        W 6586  25.713  12.228   2.679
42654W        W 6587   4.291  43.902  13.518
42655W        W 6588  44.980  31.488   2.672
42656W        W 6589  18.735   7.704   9.946
42657W        W 6590  19.557  31.551  13.429
42658W        W 6591   1.447   7.761   1.318
42659W        W 6592   7.730   5.800  12.060
42660W        W 6593  28.150  29.566  12.086
42661W        W 6594  10.183  37.414   4.174
42662W        W 6595  31.967  11.184   3.202
42663W        W 6596   7.871  17.647   2.865
42664W        W 6597  42.416  24.601  13.830
42665W        W 6598  18.172  39.839   3.322
42666W        W 6599  34.394  26.961   0.466
42667W        W 6600  36.850  39.940  13.914
42668W        W 6601  37.831   8.668  12.919
42669W        W 6602  25.087   9.832   0.745
42670W        W 6603  12.687  34.375   1.830
42671W        W 6604  20.585  11.176  12.870
42672W        W 6605  30.004  37.855   3.770
42673W        W 6606  42.308  34.598   1.913
42674W        W 6607   1.908  29.610  10.455
42675W        W 6608  19.535  36.889  10.486
42676W        W 6609  12.779  11.276   1.361
42677W        W 6610  13.704  13.116  14.437
42678W        W 6611   5.359  24.129  10.078
42679W        W 6612  30.654  26.578   0.475
42680W        W 6613   2.464   7.359   2.705
42681W        W 6614   4.863  19.210  10.110
42682W        W 6615  35.365  37.925  12.057
42683W        W 6616   9.332  37.515   3.636
42684W        W 6617  22.715  16.607   3.206
42685W        W 6618  26.560  43.294  14.823
42686W        W 6619  11.340  16.578   0.905
42687W        W 6620  41.850  16.167  14.402
42688W        W 6621  44.967  15.768  14.343
42689W        W 6622  39.554  32.584   2.215
42690W        W 6623  28.160  26.063  11.403
42691W        W 6624  44.459   8.390  12.998
42692W        W 6625  28.187  36.096   4.706
42693W        W 6626   7.351  35.514  12.062
42694W        W 6627  16.592  34.417  12.484
42695W        W 6628  22.630   6.290  14.494
42696W        W 6629  25.476  27.991   2.847
42697W        W 6630  16.208  22.718   2.894
42698W        W 6631   4.204  29.111  12.505
42699W        W 6632  38.346  28.603  12.894
42700W        W 6633   4.351  28.010  13.800
42701W        W 6634  17.710   6.287   4.602
42702W        W 6635  37.906  24.088   4.309
42703W        W 6636   4.842  33.927  14.454
42704W        W 6637  29.497   2.247  14.406
42705W        W 6638  41.474  32.930  12.050
42706W        W 6639  32.891   4.366  12.857
42707W        W 6640  28.447  25.679  11.981
42708W        W 6641  38.056  21.617   4.167
42709W        W 6642  11.718  18.086   2.280
42710W        W 6643  32.962  33.493   0.935
42711W        W 6644  44.384   4.399  12.860
42712W        W 6645  34.417  39.950  11.937
42713W        W 6646  21.673   6.846   3.187
42714W        W 6647  30.516  40.977   2.268
42715W        W 6648  25.126  17.654   3.311
42716W        W 6649  30.591  34.072   4.301
42717W        W 6650  40.040  35.852   0.741
42718W        W 6651  25.037  30.550   2.328
42719W        W 6652  30.559  33.561  10.503
42720W        W 6653   1.313   4.752  10.627
42721W        W 6654  37.049  13.283  10.610
42722W        W 6655  31.629  33.547  14.800
42723W        W 6656   9.757   5.362   3.355
42724W        W 6657  31.537   0.344  14.869
42725W        W 6658  31.073  20.666  11.560
42726W        W 6659  22.093  22.028   4.749
42727W        W 6660  32.460  33.906   4.803
42728W        W 6661  28.936  21.233  11.862
42729W        W 6662  28.939  32.126   2.324
42730W        W 6663  12.673  26.605  11.400
42731W        W 6664  17.702  26.026   0.750
42732W        W 6665  25.140  33.924   2.868
42733W        W 6666   4.354  14.782  13.335
42734W        W 6667  28.012  42.319  13.801
42735W        W 6668  37.369  22.628   0.772
42736W        W 6669  23.094   4.906  11.421
42737W        W 6670  42.848  44.482   0.823
42738W        W 6671  28.036  20.221   3.253
42739W        W 6672   0.280  19.141   2.214
42740W        W 6673  13.772   5.422   4.282
42741W        W 6674   7.383  42.431   2.272
42742W        W 6675   6.700  34.958   4.193
42743W        W 6676  27.167  28.521  14.919
42744W        W 6677  34.947   3.911   1.292
42745W        W 6678  16.236  16.088   0.821
42746W        W 6679   3.884  29.657   1.798
42747W        W 6680  33.519  12.232  12.054
42748W        W 6681  43.769  14.301  10.913
42749W        W 6682   9.659  17.090  11.863
42750W        W 6683   2.225  16.784  11.034
42751W        W 6684  20.747  31.100  11.434
42752W        W 6685  27.197  25.178  14.795
42753W        W 6686   4.214  18.626   1.700
42754W        W 6687  13.292  34.435  13.929
42755W        W 6688  19.573  41.530   9.998
42756W        W 6689  15.739  33.515   3.667
42757W        W 6690  17.178  40.399   4.789
42758W        W 6691  42.939   0.801   2.845
42759W        W 6692  32.071  19.667  11.448
42760W        W 6693  27.948  19.591   4.713
42761W        W 6694  10.300   4.906   5.192
42762W        W 6695  10.774   4.774   3.863
42763W        W 6696  11.858  26.015   3.720
42764W        W 6697   5.206  31.559   3.834
42765W        W 6698  36.480  26.659   0.445
42766W        W 6699  24.566  18.055  10.532
42767W        W 6700  14.174  32.059  13.800
42768W        W 6701  38.560  33.578  13.034
42769W        W 6702   3.850   3.925  13.345
42770W        W 6703  21.654  20.172  12.991
42771W        W 6704  34.435  31.064  10.463
42772W        W 6705   3.855  11.840  12.343
42773W        W 6706   1.318  18.111   2.219
42774W        W 6707  17.665  12.738   0.300
42775W        W 6708   9.721  28.638   2.374
42776W        W 6709  22.720  37.064   2.831
42777W        W 6710   7.699  19.194  14.873
42778W        W 6711   8.799  34.024  12.055
42779W        W 6712  35.496  11.353   0.908
42780W        W 6713  18.564  22.182  14.874
42781W        W 6714  44.388  32.978  10.596
42782W        W 6715  19.065  26.463   3.176
42783W        W 6716  14.332   8.894  13.845
42784W        W 6717  13.621   5.304   1.325
42785W        W 6718  29.631  13.253   0.790
42786W        W 6719  16.691  28.004   4.262
42787W        W 6720   1.898  34.606   1.379
42788W        W 6721   5.203  43.372   1.439
42789W        W 6722   1.279  34.006  11.963
42790W        W 6723   7.871  26.476  14.761
42791W        W 6724  26.144  28.141   3.715
42792W        W 6725   6.232  31.586  11.053
42793W        W 6726  39.314   2.440  11.442
42794W        W 6727  18.738  16.635   3.812
42795W        W 6728  20.155  24.985   3.232
42796W        W 6729   4.743  38.908   0.419
42797W        W 6730   6.397  31.939   4.680
42798W        W 6731  33.599  12.664   0.945
42799W        W 6732  18.107  41.452   2.845
42800W        W 6733   8.366  11.757   2.210
42801W        W 6734  42.328   1.859   3.214
42802W        W 6735  42.941  21.229   0.804
42803W        W 6736  21.136  12.717   4.790
42804W        W 6737  37.033  31.599  11.953
42805W        W 6738   4.283  25.031   1.412
42806W        W 6739  25.601   6.833  10.615
42807W        W 6740   4.899  11.298   1.760
42808W        W 6741  26.700  11.236  10.156
42809W        W 6742   3.305  24.075  13.313
42810W        W 6743  16.157  36.063  13.006
42811W        W 6744  41.425   5.328   0.798
42812W        W 6745  39.505  34.954   2.692
42813W        W 6746  19.537  28.681   5.632
42814W        W 6747  27.500  11.311   4.341
42815W        W 6748  26.651  29.949  13.840
42816W        W 6749  10.197  29.143  14.795
42817W        W 6750  36.924  23.082   0.788
42818W        W 6751  36.079   1.917  12.500
42819W        W 6752   7.684   0.299   3.272
42820W        W 6753  21.077   3.340  14.953
42821W        W 6754   2.828  33.447   0.802
42822W        W 6755  14.223  31.124   0.440
42823W        W 6756   7.738   1.855  12.057
42824W        W 6757  15.175  42.949   3.704
42825W        W 6758  17.140  35.485  13.939
42826W        W 6759   5.753  23.493  12.948
42827W        W 6760   2.278  17.580   2.697
42828W        W 6761  11.786   4.828   3.708
42829W        W 6762  23.617  28.991  13.835
42830W        W 6763  35.459  12.294  11.371
42831W        W 6764  37.951  29.423  13.005
42832W        W 6765  40.502   1.274  12.526
42833W        W 6766  28.592  39.543   4.830
42834W        W 6767  30.909   7.374  11.515
42835W        W 6768  38.503  39.845  11.083
42836W        W 6769  22.111  14.195  11.088
42837W        W 6770  11.768  22.067   0.243
42838W        W 6771  26.575  21.721  14.775
42839W        W 6772   2.270  28.522   1.713
42840W        W 6773  37.572  13.169  11.419
42841W        W 6774  30.933  18.610  12.446
42842W        W 6775  32.391  16.124  14.864
42843W        W 6776  13.340  37.010   3.295
42844W        W 6777   4.435  28.166   0.767
42845W        W 6778  35.089  26.970  12.834
42846W        W 6779  33.942  35.990   2.760
42847W        W 6780   8.868   3.810  13.342
42848W        W 6781  15.763   7.666   4.707
42849W        W 6782  14.113  18.554  11.540
42850W        W 6783  35.942  42.334  11.398
42851W        W 6784   4.856  33.418  14.946
42852W        W 6785  43.441  13.332   4.792
42853W        W 6786  12.702  13.166   1.748
42854W        W 6787  43.420  35.563  13.540
42855W        W 6788  40.883  39.459   9.582
42856W        W 6789  28.611  30.587  14.504
42857W        W 6790  18.161  26.479   1.712
42858W        W 6791  44.307  23.068   2.399
42859W        W 6792  15.121  35.073   3.692
42860W        W 6793   7.399  40.903   3.865
42861W        W 6794   7.280  14.129  10.643
42862W        W 6795  36.490  35.485   3.162
42863W        W 6796  23.995   3.402   1.297
42864W        W 6797  40.895  34.431   0.815
42865W        W 6798  38.827  23.663  12.554
42866W        W 6799  35.004   7.205   3.146
42867W        W 6800  41.404  13.717   3.231
42868W        W 6801   9.280   1.356   1.365
42869W        W 6802  31.559  10.843  10.948
42870W        W 6803   0.912   9.373  13.371
42871W        W 6804  28.968  11.684   0.805
42872W        W 6805  43.353  30.498  10.456
42873W        W 6806   5.261  11.714  14.017
42874W        W 6807  30.158   7.817  10.455
42875W        W 6808  40.828  22.695  14.926
42876W        W 6809  44.881  40.875   0.274
42877W        W 6810  22.152   9.849   4.338
42878W        W 6811   8.261  11.795  13.815
42879W        W 6812   3.396   7.256  10.495
42880W        W 6813   0.857   7.736   2.766
42881W        W 6814  13.834   8.394  14.314
42882W        W 6815   6.257  40.525   1.889
42883W        W 6816  27.680  23.723  10.540
42884W        W 6817  20.636  28.648   2.786
42885W        W 6818   2.468  19.758  14.904
42886W        W 6819  37.519  18.102  14.795
42887W        W 6820   7.754  15.238  13.975
42888W        W 6821  14.233  29.117   2.353
42889W        W 6822  23.731  10.768  10.962
42890W        W 6823  27.672  42.830   4.348
42891W        W 6824   1.909  13.201  13.352
42892W        W 6825  31.958  38.389   0.306
42893W        W 6826  28.163  18.187   1.224
42894W        W 6827  25.010  21.604  14.277
42895W        W 6828  11.848  31.910  12.971
42896W        W 6829   7.304  17.118   4.301
42897W        W 6830  14.761  30.653  14.391
42898W        W 6831  16.652  44.822   0.451
42899W        W 6832  43.784  44.900   0.253
42900W        W 6833  24.604  41.315   0.934
42901W        W 6834  36.362  36.888  10.480
42902W        W 6835   7.841  29.602   3.325
42903W        W 6836   1.950  41.405  14.908
42904W        W 6837  21.149  38.895  11.867
42905W        W 6838  11.289  22.720  14.312
42906W        W 6839  10.375  22.223  13.846
42907W        W 6840   6.828  16.647  13.892
42908W        W 6841  36.893  41.840   0.379
42909W        W 6842  22.118  13.259   5.782
42910W        W 6843  34.377  20.062   0.743
42911W        W 6844  44.953  13.707   4.623
42912W        W 6845  31.610  15.693   2.716
42913W        W 6846  12.803   4.389  11.080
42914W        W 6847  22.141  25.494  12.349
42915W        W 6848  22.550   6.735  12.502
42916W        W 6849  30.487  33.974  10.432
42917W        W 6850  16.305  12.801   0.748
42918W        W 6851  34.374   5.428  12.970
42919W        W 6852  15.694  43.475  14.477
42920W        W 6853  20.201   4.941  14.005
42921W        W 6854  44.484  19.745   2.781
42922W        W 6855  42.943   8.728  13.520
42923W        W 6856  41.030  44.866  14.386
42924W        W 6857  15.814  42.825   5.238
42925W        W 6858  14.198  41.501  10.481
42926W        W 6859  20.103  15.300   0.743
42927W        W 6860   4.392  19.563  12.389
42928W        W 6861  42.442  36.981   0.426
42929W        W 6862   4.412  29.102   4.800
42930W        W 6863  20.580  26.059   0.393
42931W        W 6864   0.390  37.414   4.322
42932W        W 6865  28.540  16.647  11.575
42933W        W 6866  23.207  42.450   2.837
42934W        W 6867  33.921  18.115   1.336
42935W        W 6868  22.558  42.984   3.225
42936W        W 6869  27.120  25.030   0.383
42937W        W 6870  13.835   0.266  10.475
42938W        W 6871   7.224   1.404   3.212
42939W        W 6872  27.947   5.229   2.301
42940W        W 6873  12.709  25.662  13.408
42941W        W 6874  37.982  15.618   4.146
42942W        W 6875  28.022  33.492  14.513
42943W        W 6876  41.366  20.559   1.712
42944W        W 6877  26.012  20.760  11.015
42945W        W 6878   8.751  26.984   2.209
42946W        W 6879  27.198  44.372   2.227
42947W        W 6880  15.758   0.464   3.636
42948W        W 6881  44.788   1.866  14.874
42949W        W 6882  23.027  16.119   2.406
42950W        W 6883  36.051  37.965   4.311
42951W        W 6884  32.975  41.871  10.942
42952W        W 6885  32.892   8.320  11.435
42953W        W 6886  34.520  28.119   4.811
42954W        W 6887  18.652  39.910  12.545
42955W        W 6888  33.093  16.659  13.994
42956W        W 6889  27.015  20.043  13.535
42957W        W 6890   4.916  10.658  12.481
42958W        W 6891  40.505  39.046  11.462
42959W        W 6892  33.605   1.472   2.201
42960W        W 6893  14.794  39.537  11.411
42961W        W 6894  43.501   4.291  13.322
42962W        W 6895  33.390  18.758   1.419
42963W        W 6896  35.390  10.680   2.253
42964W        W 6897   8.793  25.991   2.727
42965W        W 6898   7.805  32.436  13.991
42966W        W 6899  22.556  42.438  10.637
42967W        W 6900  30.146  26.634   2.300
42968W        W 6901  17.212  39.824   4.114
42969W        W 6902  27.022   4.226  10.593
42970W        W 6903  30.068  28.613   4.297
42971W        W 6904  35.560   9.260   3.843
42972W        W 6905  24.214  14.606   3.147
42973W        W 6906  18.260  32.015   2.399
42974W        W 6907  39.499  12.722   0.468
42975W        W 6908  21.641  18.791  14.898
42976W        W 6909  28.545   0.391  13.515
42977W        W 6910  14.163  13.190   1.265
42978W        W 6911  32.976  40.876  10.947
42979W        W 6912   3.816  26.955  12.424
42980W        W 6913  38.988  21.181  14.290
42981W        W 6914  31.462   1.336  11.970
42982W        W 6915  34.988   8.679   3.774
42983W        W 6916   1.429   3.850   3.342
42984W        W 6917  40.484  40.046  13.021
42985W        W 6918  31.504   6.346   2.769
42986W        W 6919  31.063  25.692  10.466
42987W        W 6920  15.646  14.786  11.607
42988W        W 6921  11.714  43.007   5.250
42989W        W 6922  14.182  25.527  11.564
42990W        W 6923  27.581  31.530   3.790
42991W        W 6924   7.678   7.705  14.014
42992W        W 6925   2.929   8.181   3.368
42993W        W 6926  22.049  24.556  13.850
42994W        W 6927   8.659  27.519   4.323
42995W        W 6928  35.106  40.973  13.870
42996W        W 6929  31.632   7.205  11.969
42997W        W 6930  12.162  18.275   3.154
42998W        W 6931  31.023  34.954   0.367
42999W        W 6932  31.067  26.574   3.646
43000W        W 6933   6.218  28.929  14.857
43001W        W 6934  30.125  32.977  12.412
43002W        W 6935   2.720  41.971   3.797
43003W        W 6936  43.495   3.943   2.227
43004W        W 6937   3.802  20.525  14.857
43005W        W 6938  31.077   2.463   4.622
43006W        W 6939   4.767  27.947  10.496
43007W        W 6940  18.628  12.642  10.494
43008W        W 6941  37.905  44.896   0.256
43009W        W 6942  36.875  24.622   2.751
43010W        W 6943   7.213  22.097   3.856
43011W        W 6944  40.931  27.620  12.956
43012W        W 6945  38.548  34.441  13.960
43013W        W 6946  31.098   0.840  13.046
43014W        W 6947   4.876   3.863  13.832
43015W        W 6948  37.364  41.495   3.232
43016W        W 6949  32.080  36.577  10.532
43017W        W 6950  42.867  22.559  13.498
43018W        W 6951   7.235  31.145   2.883
43019W        W 6952  30.542  14.830   0.843
43020W        W 6953  10.246  20.135  13.982
43021W        W 6954  41.367  42.846   3.799
43022W        W 6955  24.004  26.193   2.705
43023W        W 6956  37.335   6.769  10.505
43024W        W 6957  39.477  15.251  12.449
43025W        W 6958  31.092  25.093  11.536
43026W        W 6959  19.166  25.012   3.233
43027W        W 6960   6.847  32.090  11.124
43028W        W 6961  20.622  21.249  10.157
43029W        W 6962  39.458  30.423  14.947
43030W        W 6963   6.271  29.031   4.114
43031W        W 6964  10.824   4.933  12.344
43032W        W 6965  38.953  19.257   3.314
43033W        W 6966   7.226  17.651   4.682
43034W        W 6967  21.633  38.417   3.691
43035W        W 6968  10.345  37.891   2.817
43036W        W 6969  41.531  14.689  13.038
43037W        W 6970  33.505  17.140  14.930
43038W        W 6971  39.039  30.092   1.321
43039W        W 6972   7.707  26.026  10.973
43040W        W 6973   0.951   5.380   4.188
43041W        W 6974  13.638  26.473   1.817
43042W        W 6975  13.329   5.706  14.921
43043W        W 6976   3.785  12.762   2.894
43044W        W 6977  16.078  14.297   4.713
43045W        W 6978  10.787  36.469  14.812
43046W        W 6979  21.746  22.008   1.713
43047W        W 6980  38.954  34.575   2.819
43048W        W 6981  41.946   7.378   4.324
43049W        W 6982  33.056  42.802   3.320
43050W        W 6983   4.244   5.243  10.964
43051W        W 6984  32.052  11.288   3.851
43052W        W 6985   8.333  33.623   0.751
43053W        W 6986  30.017   7.752   1.811
43054W        W 6987  37.434  40.843   2.399
43055W        W 6988  37.481   1.896   4.622
43056W        W 6989  21.253  27.943  13.846
43057W        W 6990   9.314  27.678  13.454
43058W        W 6991  43.824  39.430   4.134
43059W        W 6992   9.841  33.040  14.904
43060W        W 6993  18.725  29.670  12.886
43061W        W 6994  43.773  31.071  13.524
43062W        W 6995  35.903  42.988  10.633
43063W        W 6996  16.654   0.285   1.382
43064W        W 6997  29.520  14.830  10.920
43065W        W 6998  36.552  10.383   2.335
43066W        W 6999  33.994  23.083   3.656
43067W        W 7000  23.530  37.463   0.841
43068W        W 7001  43.321  38.421   3.745
43069W        W 7002  44.376   2.392   1.810
43070W        W 7003  19.117   1.875  11.863
43071W        W 7004  35.030  28.027   1.297
43072W        W 7005  24.603  18.561  10.509
43073W        W 7006   3.713  11.645  14.429
43074W        W 7007  15.751  36.983  12.843
43075W        W 7008  39.962  24.208  13.332
43076W        W 7009  33.942  42.809   2.276
43077W        W 7010   0.315  28.620   3.312
43078W        W 7011   4.345   0.940  12.900
43079W        W 7012   6.864  25.175   0.819
43080W        W 7013  30.154  35.555   2.364
43081W        W 7014  34.469   5.272  13.445
43082W        W 7015  19.119  28.018  10.006
43083W        W 7016  30.065   0.377   2.846
43084W        W 7017  21.208  27.469   1.284
43085W        W 7018  18.741  29.524   0.259
43086W        W 7019  30.621   5.433  13.832
43087W        W 7020  27.006  43.815   3.822
43088W        W 7021  23.081  13.337  13.878
43089W        W 7022  31.593  23.182   3.732
43090W        W 7023  18.161  37.579   3.225
43091W        W 7024   5.693   9.238  12.340
43092W        W 7025   2.428  31.415   1.880
43093W        W 7026   8.380   6.426  11.374
43094W        W 7027   8.782  10.238   0.754
43095W        W 7028  14.274  10.277  14.960
43096W        W 7029  25.519  29.126  14.976
43097W        W 7030  38.515  19.123  12.438
43098W        W 7031  29.455  18.781  14.510
43099W        W 7032  35.540  43.905   2.379
43100W        W 7033  35.547  40.365  10.619
43101W        W 7034   5.805   6.421   3.267
43102W        W 7035  39.966  10.775  11.899
43103W        W 7036  34.457  14.636  14.864
43104W        W 7037  40.517  37.955  14.829
43105W        W 7038  25.481  21.035  14.890
43106W        W 7039   4.260  33.385   3.351
43107W        W 7040   1.740  44.400   2.869
43108W        W 7041  24.012  20.614   4.194
43109W        W 7042  23.696  32.457   1.777
43110W        W 7043  12.697   2.724  12.406
43111W        W 7044   2.240  34.491  10.918
43112W        W 7045  43.509  18.784  13.866
43113W        W 7046  35.387  18.687   4.770
43114W        W 7047  23.052  32.944  14.785
43115W        W 7048  14.654  28.678   2.184
43116W        W 7049  37.367  17.108   3.364
43117W        W 7050  34.504  32.904  11.006
43118W        W 7051  19.091  25.119   4.272
43119W        W 7052  24.721   8.317  11.919
43120W        W 7053  38.535  16.783  10.441
43121W        W 7054  15.325  24.673  11.475
43122W        W 7055  31.135  30.630   1.425
43123W        W 7056  18.171  30.436   0.732
43124W        W 7057  25.186  24.541  14.948
43125W        W 7058  42.824  23.697  11.413
43126W        W 7059   6.808   6.267  11.954
43127W        W 7060  11.795  41.347   5.306
43128W        W 7061  37.948  24.984  14.505
43129W        W 7062  11.264  37.534   3.662
43130W        W 7063  34.082  18.104  14.908
43131W        W 7064  27.528   0.336  12.853
43132W        W 7065  18.551  12.660  14.385
43133W        W 7066  32.097  30.011  11.429
43134W        W 7067   8.181  28.582  10.632
43135W        W 7068  12.705  28.178   4.231
43136W        W 7069   1.926  27.619  10.448
43137W        W 7070  13.253  41.463  12.355
43138W        W 7071  25.163   8.863   3.274
43139W        W 7072  33.460  18.125  13.381
43140W        W 7073  38.503  20.612  12.374
43141W        W 7074  14.101  30.008  12.999
43142W        W 7075  14.316  34.928   3.220
43143W        W 7076  35.536   0.314   0.819
43144W        W 7077   6.232  37.507  14.504
43145W        W 7078   3.399  44.434  12.898
43146W        W 7079  11.665   1.457   0.371
43147W        W 7080  12.297   5.797   2.278
43148W        W 7081  28.620  12.634   4.255
43149W        W 7082  18.218  34.894   1.929
43150W        W 7083  40.964  19.200   1.350
43151W        W 7084  15.823  18.230  13.795
43152W        W 7085  35.923  20.749  13.025
43153W        W 7086  44.769  11.340   0.732
43154W        W 7087  15.101   4.754  11.410
43155W        W 7088  31.634  13.636   0.829
43156W        W 7089  33.120  17.694   2.823
43157W        W 7090  16.101  24.652   4.752
43158W        W 7091  14.272  16.688   1.314
43159W        W 7092  37.468  32.614  14.990
43160W        W 7093  44.274  36.559  11.459
43161W        W 7094   5.797   8.210   0.937
43162W        W 7095   6.399  26.082   1.933
43163W        W 7096   5.724  27.649  11.960
43164W        W 7097  26.140  19.107   2.316
43165W        W 7098  42.954  36.970  11.437
43166W        W 7099   8.354  42.887   3.740
43167W        W 7100  38.443  26.483  12.404
43168W        W 7101  28.933   4.339   4.251
43169W        W 7102  42.430  25.056  12.834
43170W        W 7103   5.371  15.599  13.874
43171W        W 7104  36.845  25.075   3.848
43172W        W 7105  25.624  13.832   0.940
43173W        W 7106   2.914   3.373  12.502
43174W        W 7107  24.111  30.549   2.700
43175W        W 7108  28.655   1.327   2.201
43176W        W 7109  12.165  42.879  14.320
43177W        W 7110  43.954   8.813   1.224
43178W        W 7111   6.917   2.360  14.762
43179W        W 7112  23.233  12.821  14.467
43180W        W 7113   7.285  10.748  11.576
43181W        W 7114  30.934   3.929  12.464
43182W        W 7115   4.398   5.704  10.065
43183W        W 7116  26.994  20.198   2.207
43184W        W 7117  12.722  28.498  12.904
43185W        W 7118   0.907  33.567   5.207
43186W        W 7119  22.637  30.519   1.422
43187W        W 7120  18.246  28.090  12.460
43188W        W 7121  19.237  38.524  14.811
43189W        W 7122  30.657  38.940   1.708
43190W        W 7123  37.876  40.816  11.415
43191W        W 7124  17.678  30.479   4.643
43192W        W 7125  38.333  39.544   0.250
43193W        W 7126  15.321  27.510   0.915
43194W        W 7127  10.813  23.729  14.808
43195W        W 7128  22.683  23.731  14.875
43196W        W 7129  44.472  17.275  13.906
43197W        W 7130  22.570   4.412   2.786
43198W        W 7131  13.128  31.089  11.411
43199W        W 7132  20.220  25.206  10.962
43200W        W 7133  43.290   4.809   4.694
43201W        W 7134  36.461  27.466   2.325
43202W        W 7135  11.779  21.081  11.006
43203W        W 7136  42.927   2.290  13.526
43204W        W 7137  13.216  25.047  12.519
43205W        W 7138  11.779   2.446  10.576
43206W        W 7139  41.471  22.163  12.023
43207W        W 7140  18.229  18.573  14.478
43208W        W 7141  40.826   0.948  11.091
43209W        W 7142   4.337  24.185   0.310
43210W        W 7143   1.938  14.833   1.734
43211W        W 7144   8.266  17.087   2.185
43212W        W 7145  21.098  34.478   2.403
43213W        W 7146   9.846  10.368  10.434
43214W        W 7147  36.867   3.280   2.866
43215W        W 7148  25.520   7.367  12.943
43216W        W 7149  16.260  41.309  12.929
43217W        W 7150  43.817  43.483   3.353
43218W        W 7151  10.287  28.463  11.074
43219W        W 7152  35.601  32.482   1.794
43220W        W 7153  14.745   1.367  13.984
43221W        W 7154  40.886  18.263  11.609
43222W        W 7155  11.263  36.947   1.290
43223W        W 7156  10.216   5.873  12.908
43224W        W 7157  42.961  10.846  12.409
43225W        W 7158  34.910  13.640  11.439
43226W        W 7159   4.382  43.844   0.261
43227W        W 7160  32.447  12.175  11.919
43228W        W 7161   7.811  39.357  13.996
43229W        W 7162   4.841   5.928   0.343
43230W        W 7163   0.385   1.947   1.874
43231W        W 7164  28.011  31.962   4.793
43232W        W 7165   7.417  19.729  14.895
43233W        W 7166  17.691  43.833  14.416
43234W        W 7167  27.591  38.064   1.715
43235W        W 7168  32.498   0.851  14.493
43236W        W 7169  30.657  42.468   2.258
43237W        W 7170  35.002  26.671   2.759
43238W        W 7171   5.249  13.777   1.409
43239W        W 7172  25.626  20.618   4.170
43240W        W 7173  23.227  24.563   0.473
43241W        W 7174  32.556  27.164  14.890
43242W        W 7175  29.507   6.796   3.665
43243W        W 7176   7.760   2.941  13.327
43244W        W 7177  19.130  29.065  12.959
43245W        W 7178  10.216  19.574  12.427
43246W        W 7179  43.919   1.450  14.775
43247W        W 7180  24.004  37.371  10.994
43248W        W 7181  36.931  11.209   3.632
43249W        W 7182  26.003  16.299   4.189
43250W        W 7183   4.930  38.494   3.278
43251W        W 7184  15.693  31.424  10.450
43252W        W 7185   2.387  44.500   0.328
43253W        W 7186  39.344   1.286  12.347
43254W        W 7187  42.435  42.498  12.551
43255W        W 7188  21.719   5.283  12.430
43256W        W 7189   1.922  34.497  13.927
43257W        W 7190  26.657   6.868  10.969
43258W        W 7191  13.696   4.924   2.886
43259W        W 7192  28.461  27.082   1.733
43260W        W 7193  43.279   8.749  14.905
43261W        W 7194   9.801   2.772  13.997
43262W        W 7195  21.032  43.274  14.425
43263W        W 7196  22.699  37.074  11.600
43264W        W 7197  37.519  11.804   0.926
43265W        W 7198  17.071  32.026  13.497
43266W        W 7199  22.131  23.693   3.352
43267W        W 7200   4.310  34.972  13.804
43268W        W 7201   3.459  18.175   4.631
43269W        W 7202  42.920  14.704   3.801
43270W        W 7203  10.151  44.441  14.502
43271W        W 7204  20.120   7.202  12.985
43272W        W 7205   9.293  39.032   1.805
43273W        W 7206  10.870  18.065   3.149
43274W        W 7207  18.547   2.951   3.250
43275W        W 7208   6.419  10.215   2.796
43276W        W 7209   2.798  10.147   0.785
43277W        W 7210  33.123  33.561   3.382
43278W        W 7211  14.806  44.367   1.371
43279W        W 7212  15.094  37.493  11.110
43280W        W 7213   0.348  23.707   0.465
43281W        W 7214  37.922  25.547  11.592
43282W        W 7215  11.748  40.433  10.992
43283W        W 7216  12.226   6.301   0.847
43284W        W 7217   1.969   9.807  12.389
43285W        W 7218   2.454  23.587  13.488
43286W        W 7219  25.642  21.032   0.378
43287W        W 7220   6.734  17.101  13.471
43288W        W 7221   9.689  36.014   4.766
43289W        W 7222  16.183  28.462  12.444
43290W        W 7223  33.451  21.125   2.899
43291W        W 7224  11.304  22.680  11.567
43292W        W 7225  30.464  32.938  14.304
43293W        W 7226  18.297   0.284   1.889
43294W        W 7227  37.057  30.955  14.818
43295W        W 7228  24.181   3.758   1.765
43296W        W 7229  25.013  44.006  13.980
43297W        W 7230  29.102  19.231   2.182
43298W        W 7231  28.146  15.728  11.990
43299W        W 7232  42.980  34.519  10.033
43300W        W 7233  35.959  27.559   0.876
43301W        W 7234  36.372  44.332  14.935
43302W        W 7235  33.907   5.388   0.965
43303W        W 7236  44.363  44.445  13.935
43304W        W 7237  41.858  41.496   0.279
43305W        W 7238   7.896  27.104   4.781
43306W        W 7239  28.161  11.340  14.348
43307W        W 7240  24.105  13.815  11.966
43308W        W 7241  11.675   3.914   3.352
43309W        W 7242  12.755  21.569  14.500
43310W        W 7243  43.904  12.210   4.823
43311W        W 7244  13.758  36.539  10.889
43312W        W 7245  40.958  32.612  11.580
43313W        W 7246  37.458   9.795   2.342
43314W        W 7247  14.294  44.002  11.521
43315W        W 7248   0.456   3.318   3.189
43316W        W 7249  13.663   3.363   4.621
43317W        W 7250  14.144  23.615   3.866
43318W        W 7251  12.128   0.439  10.601
43319W        W 7252   6.795  10.770  11.568
43320W        W 7253  33.477  39.834   4.723
43321W        W 7254  32.120  26.486  10.029
43322W        W 7255  35.867  19.702   1.272
43323W        W 7256  16.190  40.323  11.564
43324W        W 7257  20.123  35.561   0.482
43325W        W 7258  23.578   3.409  11.944
43326W        W 7259  28.083  30.962   0.384
43327W        W 7260   0.787  38.915   2.326
43328W        W 7261  13.187   1.337  11.380
43329W        W 7262  26.655   6.335   3.669
43330W        W 7263   7.694  26.984  12.461
43331W        W 7264  21.571  24.541   3.259
43332W        W 7265  18.087  17.089   3.806
43333W        W 7266  28.110  23.718   5.256
43334W        W 7267  27.681  26.627   4.725
43335W        W 7268  11.130  40.311  11.062
43336W        W 7269   6.905  27.668   2.280
43337W        W 7270  34.096  18.293   3.330
43338W        W 7271  34.956  34.397   1.863
43339W        W 7272   5.735  44.460   4.114
43340W        W 7273  13.240  11.348  10.944
43341W        W 7274  20.756   7.334  14.839
43342W        W 7275  30.033  34.998  14.933
43343W        W 7276  30.065  37.991   0.419
43344W        W 7277   3.301  34.400   0.918
43345W        W 7278  24.228  19.142   0.313
43346W        W 7279  40.054   9.823  11.525
43347W        W 7280  18.107   1.933  10.928
43348W        W 7281  18.749  38.479   0.245
43349W        W 7282  20.115   9.727   3.643
43350W        W 7283  41.310  13.832  11.542
43351W        W 7284  28.050  18.627   2.315
43352W        W 7285  39.542   6.768   1.394
43353W        W 7286   8.854  30.601   4.782
43354W        W 7287  20.082  34.561  14.486
43355W        W 7288   9.330  29.646   1.376
43356W        W 7289   2.418   2.248  11.964
43357W        W 7290  37.896  10.140   0.483
43358W        W 7291  24.197  28.448   1.403
43359W        W 7292  35.378   8.231  10.555
43360W        W 7293  31.424  20.564   0.423
43361W        W 7294   9.874  22.509  14.454
43362W        W 7295   6.202  33.424  14.451
43363W        W 7296  24.715   4.886  13.974
43364W        W 7297  34.557  42.442  14.813
43365W        W 7298  23.608  40.885   1.294
43366W        W 7299  35.593  26.656   3.708
43367W        W 7300  17.699  22.252   0.287
43368W        W 7301  16.671  39.005   0.406
43369W        W 7302  17.128  32.412  10.631
43370W        W 7303  29.510   6.216  10.519
43371W        W 7304  38.064  19.705  10.560
43372W        W 7305  42.464   2.285   1.801
43373W        W 7306  40.455  23.195   0.776
43374W        W 7307   1.848  24.177   1.354
43375W        W 7308  37.967  26.112  12.394
43376W        W 7309   4.293  22.553  13.840
43377W        W 7310   5.908  20.192   4.764
43378W        W 7311   7.281  10.846   4.793
43379W        W 7312  19.285  26.197  14.777
43380W        W 7313  12.193  21.022   4.666
43381W        W 7314  20.683  42.848   4.151
43382W        W 7315  29.964  14.649   3.714
43383W        W 7316  12.293  34.960  11.075
43384W        W 7317   1.854   4.728  13.821
43385W        W 7318  13.320  23.139  13.812
43386W        W 7319  13.210  10.848   1.222
43387W        W 7320  32.005  43.992   3.262
43388W        W 7321   9.851  20.560   4.651
43389W        W 7322  21.678  28.534   0.904
43390W        W 7323   0.864  37.953   1.437
43391W        W 7324   6.718  28.511   0.262
43392W        W 7325   1.844  44.408  12.982
43393W        W 7326  11.368  44.317   3.710
43394W        W 7327  32.414  42.986  13.860
43395W        W 7328  44.387  37.862  12.007
43396W        W 7329  40.506  23.581   2.880
43397W        W 7330  24.197  13.180  11.584
43398W        W 7331  22.101  23.079   0.931
43399W        W 7332   1.741  44.832  12.843
43400W        W 7333  34.903  16.209   1.397
43401W        W 7334   7.771   3.947   2.370
43402W        W 7335  27.141  22.180  11.006
43403W        W 7336  26.174  13.623  13.902
43404W        W 7337  28.614  33.581  10.931
43405W        W 7338  32.004   9.827  13.495
43406W        W 7339  44.485  20.730   4.194
43407W        W 7340  10.755   3.337  10.911
43408W        W 7341  32.407  27.020   3.644
43409W        W 7342  15.091   2.391   3.685
43410W        W 7343  19.132   1.399  13.514
43411W        W 7344  40.542  37.993   0.963
43412W        W 7345   7.720  26.184  12.432
43413W        W 7346  41.391   7.413  12.436
43414W        W 7347  25.134  20.046  13.802
43415W        W 7348  35.030   6.760  13.814
43416W        W 7349  44.844  27.507  12.479
43417W        W 7350   4.892   0.769   3.242
43418W        W 7351  13.248  43.818  14.281
43419W        W 7352  14.799  16.618   2.710
43420W        W 7353  12.337  33.878   3.214
43421W        W 7354   1.845  26.517  10.482
43422W        W 7355  39.932  26.652  13.336
43423W        W 7356  38.906  26.065  14.467
43424W        W 7357  11.702   4.835  12.339
43425W        W 7358   0.320  26.014   1.329
43426W        W 7359  32.007  43.945   1.696
43427W        W 7360  25.147  43.442   1.724
43428W        W 7361  28.595  30.038   3.242
43429W        W 7362  13.621  28.083   2.700
43430W        W 7363  35.377  31.517   4.604
43431W        W 7364  19.097  16.248   0.292
43432W        W 7365  28.656  31.054  13.946
43433W        W 7366  37.373   5.253   4.690
43434W        W 7367  43.803  25.205  14.441
43435W        W 7368  43.944  36.527   4.184
43436W        W 7369  34.463   8.836   0.305
43437W        W 7370   2.921   1.948   4.331
43438W        W 7371  41.986  36.586   5.736
43439W        W 7372   6.411   0.378   0.411
43440W        W 7373   8.180  12.142   3.750
43441W        W 7374  20.718  18.210  12.519
43442W        W 7375   1.385  14.749   1.896
43443W        W 7376  20.099  41.904  11.578
43444W        W 7377  12.116  32.994   4.189
43445W        W 7378   7.734  13.644   2.804
43446W        W 7379  24.214  22.104   3.289
43447W        W 7380  34.612  42.409  12.354
43448W        W 7381  44.845  18.707   2.663
43449W        W 7382  25.143  31.902   0.245
43450W        W 7383  39.523  39.064   0.248
43451W        W 7384  39.851  22.159   4.154
43452W        W 7385  26.990  42.847  14.414
43453W        W 7386  10.770   4.447   3.759
43454W        W 7387  16.284  40.013  11.917
43455W        W 7388  23.529  37.836   0.952
43456W        W 7389  35.871  36.593   1.428
43457W        W 7390   1.475   3.915  10.473
43458W        W 7391  43.344  16.600  12.380
43459W        W 7392  10.825  23.207   0.358
43460W        W 7393  13.811  42.917   0.953
43461W        W 7394  20.693  26.485  13.447
43462W        W 7395  37.346   3.358  14.971
43463W        W 7396   4.717  21.107   0.858
43464W        W 7397  13.682  33.046  12.973
43465W        W 7398  35.005  37.430  13.465
43466W        W 7399   7.900   8.769  12.490
43467W        W 7400  35.548  11.342   0.367
43468W        W 7401   0.961  13.308  14.772
43469W        W 7402  28.132  25.201  14.380
43470W        W 7403  41.455   7.824  12.386
43471W        W 7404  20.740  17.620  12.058
43472W        W 7405  39.973  10.662   1.327
43473W        W 7406  30.524  39.967   4.720
43474W        W 7407  24.527  21.094   2.825
43475W        W 7408  26.959   8.710   1.704
43476W        W 7409  24.138  36.952  14.999
43477W        W 7410  27.086   5.394   1.223
43478W        W 7411  38.501  21.148   3.697
43479W        W 7412   0.802  32.481  11.452
43480W        W 7413  32.413  29.431   4.675
43481W        W 7414   5.904  21.044  10.446
43482W        W 7415  44.923  38.543  11.095
43483W        W 7416  29.153  31.043   3.692
43484W        W 7417  36.864  15.104   3.787
43485W        W 7418  40.836  31.408  11.387
43486W        W 7419  43.431  37.371   2.681
43487W        W 7420  40.869   2.271  11.458
43488W        W 7421  38.363  40.022   0.911
43489W        W 7422  11.749  23.011  11.111
43490W        W 7423  36.417  29.539  12.361
43491W        W 7424  30.599   7.703  13.492
43492W        W 7425  33.913  19.131  10.964
43493W        W 7426  16.683  15.640  13.829
43494W        W 7427  30.443  28.634   0.789
43495W        W 7428  26.101  15.750   2.877
43496W        W 7429  23.132   6.731  13.488
43497W        W 7430  19.606  34.579   2.309
43498W        W 7431  31.449  41.842  10.411
43499W        W 7432  30.555  21.558   0.967
43500W        W 7433  25.216   6.243  12.908
43501W        W 7434   8.691  20.257  11.462
43502W        W 7435  21.741  43.917   3.712
43503W        W 7436  17.802  12.856  11.451
43504W        W 7437  23.049   5.711  12.569
43505W        W 7438  39.012   5.719  14.506
43506W        W 7439  25.550  11.363  14.844
43507W        W 7440  30.493  29.659   1.284
43508W        W 7441   7.817  41.387   5.174
43509W        W 7442  33.025  30.911   2.823
43510W        W 7443  35.464  18.084   0.327
43511W        W 7444  13.149  30.078  11.388
43512W        W 7445  24.652  11.663  11.577
43513W        W 7446  34.449  28.501  12.576
43514W        W 7447   6.384   7.305   4.646
43515W        W 7448  12.610  27.031   1.839
43516W        W 7449  43.889  40.003   4.833
43517W        W 7450  22.671  12.724   3.721
43518W        W 7451  27.486  14.755   4.317
43519W        W 7452  12.342   3.368  13.057
43520W        W 7453  20.199  42.354   2.851
43521W        W 7454  36.878  14.661   3.633
43522W        W 7455  15.667   2.311   3.789
43523W        W 7456  17.143  15.655   5.309
43524W        W 7457  26.600  30.415   1.375
43525W        W 7458  24.102  13.108  13.901
43526W        W 7459  44.383  38.465   3.687
43527W        W 7460  16.748   9.217  10.515
43528W        W 7461  35.421  39.047  14.845
43529W        W 7462   9.648  10.665   1.313
43530W        W 7463  27.477  34.865   3.736
43531W        W 7464  29.576  43.769   1.802
43532W        W 7465  33.523  30.620  10.041
43533W        W 7466  40.497   3.737  10.974
43534W        W 7467   2.842  34.931   1.756
43535W        W 7468  39.350  34.509  10.496
43536W        W 7469  19.107  19.689  11.904
43537W        W 7470   4.893  44.266  13.989
43538W        W 7471   3.747  40.333  10.500
43539W        W 7472   5.402  15.636  12.428
43540W        W 7473  15.603  31.487  12.493
43541W        W 7474  34.954  27.097   1.405
43542W        W 7475  30.471  42.455  12.347
43543W        W 7476  14.677  26.466   0.268
43544W        W 7477  31.582  26.971   2.799
43545W        W 7478  28.151  35.455   0.365
43546W        W 7479   7.873  31.610  11.078
43547W        W 7480  14.174   7.198   3.835
43548W        W 7481   5.712  25.692   5.271
43549W        W 7482  10.768   3.784   4.629
43550W        W 7483  43.438  22.207   2.891
43551W        W 7484  38.473  25.614   1.357
43552W        W 7485  16.608  24.501   0.888
43553W        W 7486  22.141  41.505  11.373
43554W        W 7487   8.194  23.173   2.750
43555W        W 7488   5.706  36.947   2.332
43556W        W 7489  13.666  27.644  10.411
43557W        W 7490   8.258  35.933  11.958
43558W        W 7491  38.379  12.777  12.021
43559W        W 7492  31.902  27.068  10.535
43560W        W 7493  38.445   4.325  10.540
43561W        W 7494  20.141   9.287  11.466
43562W        W 7495   5.407  17.792  14.962
43563W        W 7496  37.517  29.600   4.780
43564W        W 7497  20.248  38.017  12.407
43565W        W 7498  14.724  11.808  11.025
43566W        W 7499  33.087  36.919   4.822
43567W        W 7500   5.334   3.400  14.504
43568W        W 7501  38.457   8.739  12.919
43569W        W 7502  39.402  32.059  13.321
43570W        W 7503   1.805  13.683   4.750
43571W        W 7504   7.173   2.888  13.877
43572W        W 7505  27.673   9.339  11.473
43573W        W 7506   4.407  42.437   0.836
43574W        W 7507   5.713  18.670  12.064
43575W        W 7508  12.286   8.702   1.812
43576W        W 7509  34.613  15.244   2.818
43577W        W 7510  12.151   0.256  11.431
43578W        W 7511   5.898  34.509   2.237
43579W        W 7512  33.448   5.862  10.145
43580W        W 7513  37.458  35.380  12.037
43581W        W 7514  40.365  36.983   2.310
43582W        W 7515   0.483  40.957  13.883
43583W        W 7516  11.167  19.754  10.481
43584W        W 7517  17.082  10.263  10.069
43585W        W 7518   8.298  32.063   0.452
43586W        W 7519  38.451  31.507  11.013
43587W        W 7520  18.767  23.225  13.960
43588W        W 7521  31.045  40.471  14.844
43589W        W 7522   9.751  35.453   4.316
43590W        W 7523  21.707  39.861  10.930
43591W        W 7524   5.700   3.933  13.337
43592W        W 7525  35.941  31.106   4.125
43593W        W 7526  10.847  34.440  12.539
43594W        W 7527  14.314  16.130   1.270
43595W        W 7528  38.877  13.793   1.397
43596W        W 7529   7.797   1.361  14.308
43597W        W 7530   1.859   4.218  10.535
43598W        W 7531  16.194  42.409   3.695
43599W        W 7532   2.420   4.887   4.209
43600W        W 7533  28.625  42.013   2.320
43601W        W 7534  20.248  21.520   3.202
43602W        W 7535  22.552  41.369   4.679
43603W        W 7536  43.338  26.089  11.376
43604W        W 7537   1.820  42.376  12.372
43605W        W 7538   8.263  25.589   3.276
43606W        W 7539  41.916  29.925  13.897
43607W        W 7540   9.178  24.676  14.430
43608W        W 7541  20.640  13.126  13.803
43609W        W 7542  22.032  35.595  10.448
43610W        W 7543  33.443  19.685   0.327
43611W        W 7544  31.076  41.445   3.780
43612W        W 7545  31.629   4.359   4.160
43613W        W 7546  12.830  37.538  12.476
43614W        W 7547  19.761  42.522   1.778
43615W        W 7548  17.171  17.614  11.909
43616W        W 7549  44.786  38.853   0.729
43617W        W 7550   6.408  33.561  14.910
43618W        W 7551  26.584  43.393   4.265
43619W        W 7552  18.553  21.746  14.945
43620W        W 7553  10.342  19.084  11.568
43621W        W 7554  23.089  27.971  11.891
43622W        W 7555  28.051  43.913  12.941
43623W        W 7556   4.236  31.554  13.507
43624W        W 7557  10.362  16.704   3.812
43625W        W 7558  13.726   7.405   4.674
43626W        W 7559  16.790   7.907   1.287
43627W        W 7560  14.601  12.734   9.923
43628W        W 7561  15.778  36.573  10.106
43629W        W 7562   3.450  35.483  14.984
43630W        W 7563   9.387  17.233  14.949
43631W        W 7564  19.564  20.059   9.984
43632W        W 7565  36.078  32.004   2.678
43633W        W 7566  27.514  14.721   0.876
43634W        W 7567  43.815   9.337  14.506
43635W        W 7568  32.485  31.151   2.305
43636W        W 7569   4.424  22.599  13.050
43637W        W 7570  20.531   9.388  13.957
43638W        W 7571  30.126  35.505  12.499
43639W        W 7572   5.775  31.000   1.392
43640W        W 7573   9.389   8.687   0.345
43641W        W 7574  31.079   3.377   4.838
43642W        W 7575  16.151  13.611   4.714
43643W        W 7576  22.051   4.309   2.373
43644W        W 7577  12.793  29.457   2.294
43645W        W 7578  39.532   3.431  14.773
43646W        W 7579  41.348  16.724   1.230
43647W        W 7580  40.531  10.298   1.788
43648W        W 7581  42.851  31.934   1.439
43649W        W 7582  34.440  32.034  12.084
43650W        W 7583  33.073  22.666  12.537
43651W        W 7584  25.514  40.538   3.352
43652W        W 7585  16.202  35.360   2.273
43653W        W 7586  16.160  35.486  11.547
43654W        W 7587  35.410  34.484   3.841
43655W        W 7588   7.225   5.350   4.727
43656W        W 7589  33.536  25.659  13.944
43657W        W 7590   3.219  37.876  14.867
43658W        W 7591   9.392  11.170   0.739
43659W        W 7592  13.327  31.531   1.907
43660W        W 7593  44.976  40.923  13.873
43661W        W 7594  30.025  42.328   2.706
43662W        W 7595  40.929  26.660   4.146
43663W        W 7596  25.537  28.170  13.937
43664W        W 7597  24.015  31.912  14.415
43665W        W 7598  35.091  42.349   4.268
43666W        W 7599  41.295  11.714  12.994
43667W        W 7600  35.912  30.440  12.910
43668W        W 7601   3.298   0.332   1.371
43669W        W 7602   3.411  33.985   2.306
43670W        W 7603  17.259  24.722  13.431
43671W        W 7604  37.504  36.387   1.870
43672W        W 7605  24.481  11.735   1.334
43673W        W 7606  38.896   8.313   3.151
43674W        W 7607  34.901   6.910   4.268
43675W        W 7608  20.523  39.826   2.313
43676W        W 7609  44.318  20.216  13.383
43677W        W 7610  28.523  30.082  11.397
43678W        W 7611  32.938  12.319  12.874
43679W        W 7612  11.361  21.737   4.347
43680W        W 7613  24.225  43.954   0.296
43681W        W 7614  43.272   7.319  14.854
43682W        W 7615  26.509  27.181   5.290
43683W        W 7616  31.418  39.433  10.491
43684W        W 7617  13.831   0.948   4.742
43685W        W 7618   7.322  36.558   0.841
43686W        W 7619   1.480  36.486   4.312
43687W        W 7620  11.643  10.351   1.378
43688W        W 7621  42.804  42.353   4.293
43689W        W 7622  32.977  32.117   2.829
43690W        W 7623  18.619  16.146  10.155
43691W        W 7624  17.061  15.326   0.923
43692W        W 7625  13.807  11.319   1.704
43693W        W 7626  41.821  42.880  14.425
43694W        W 7627   9.276  22.589   1.823
43695W        W 7628  20.040  24.569  10.423
43696W        W 7629  36.557  28.568  12.048
43697W        W 7630   1.295   7.842  10.489
43698W        W 7631   9.347  28.936   2.828
43699W        W 7632  19.754   2.814  10.489
43700W        W 7633  34.109  39.559  11.574
43701W        W 7634   6.336  37.546  11.968
43702W        W 7635  10.310  44.346   2.290
43703W        W 7636  33.477  19.085  14.831
43704W        W 7637  42.016  24.561   3.227
43705W        W 7638  23.577  11.749  12.921
43706W        W 7639  24.983   2.752   4.287
43707W        W 7640   6.386  14.762  13.887
43708W        W 7641  25.612   5.838   1.708
43709W        W 7642  15.660  29.968   2.183
43710W        W 7643  23.514   3.911  11.392
43711W        W 7644  27.569   2.359  14.026
43712W        W 7645  28.034   2.905  14.929
43713W        W 7646  21.079  20.682   1.308
43714W        W 7647   8.349  19.536   3.237
43715W        W 7648  41.347  28.473   4.804
43716W        W 7649   0.778  36.582   2.809
43717W        W 7650  33.120  14.823  14.020
43718W        W 7651   1.735  28.186  10.591
43719W        W 7652   2.297  43.481  11.601
43720W        W 7653  35.028   1.457  13.989
43721W        W 7654  31.411  26.480   4.212
43722W        W 7655   0.310  27.044   3.739
43723W        W 7656  23.663   7.721  11.993
43724W        W 7657  18.604  15.723  14.464
43725W        W 7658  34.864  32.555   1.726
43726W        W 7659  13.698  37.026   3.302
43727W        W 7660   9.821   2.759   4.246
43728W        W 7661  17.665  20.596   3.176
43729W        W 7662   9.822  38.490  10.531
43730W        W 7663  16.667  27.164   9.557
43731W        W 7664  39.445  11.129   1.903
43732W        W 7665   7.223  44.781   4.286
43733W        W 7666  20.100   0.473   2.796
43734W        W 7667  27.117   6.773   4.748
43735W        W 7668  23.076  42.422   4.160
43736W        W 7669  35.871   5.699   2.362
43737W        W 7670  18.218  39.050  11.981
43738W        W 7671  32.920  21.114  13.479
43739W        W 7672  28.986  40.423  13.849
43740W        W 7673   7.354  34.008  14.896
43741W        W 7674  15.253   6.817   1.391
43742W        W 7675  11.641  36.042   1.933
43743W        W 7676  23.617  34.942  12.439
43744W        W 7677   7.705  23.732  10.465
43745W        W 7678  14.784   2.340  11.520
43746W        W 7679  25.668  43.279   4.186
43747W        W 7680  22.725   0.916  10.473
43748W        W 7681  22.043  23.156   3.155
43749W        W 7682  29.576  40.952   3.772
43750W        W 7683  33.434  11.860   1.298
43751W        W 7684  27.597  34.063  12.417
43752W        W 7685  10.656  39.995  14.470
43753W        W 7686   2.876  22.160  13.932
43754W        W 7687   2.451  25.596  13.502
43755W        W 7688  17.776  20.750   0.953
43756W        W 7689  24.653  26.692   1.804
43757W        W 7690  24.621  44.501  12.867
43758W        W 7691  38.984  36.079   3.776
43759W        W 7692  43.964  26.617  14.017
43760W        W 7693  35.463  30.574  11.950
43761W        W 7694   6.370  30.939   3.350
43762W        W 7695   9.311  37.087  10.635
43763W        W 7696  41.999  15.816   1.828
43764W        W 7697   3.946  10.247  13.352
43765W        W 7698  31.497  19.100  13.888
43766W        W 7699  43.333  10.312  11.941
43767W        W 7700  44.443   9.737  13.798
43768W        W 7701   7.200   1.246   1.787
43769W        W 7702  42.499  34.916  11.587
43770W        W 7703  24.077  20.152   3.831
43771W        W 7704  34.977  20.590   4.195
43772W        W 7705  23.092  41.936  11.612
43773W        W 7706   4.769   7.826   3.740
43774W        W 7707  29.619  27.472   3.855
43775W        W 7708  13.599  31.049  10.927
43776W        W 7709  13.803   7.860   3.643
43777W        W 7710  12.675  25.700   1.823
43778W        W 7711  40.370  17.249  14.479
43779W        W 7712  30.568   6.311   5.265
43780W        W 7713  16.788  42.905   0.765
43781W        W 7714  28.463  24.691   4.735
43782W        W 7715  13.654   4.277   0.736
43783W        W 7716  23.552  43.376   4.701
43784W        W 7717  18.680   4.758   3.738
43785W        W 7718  37.046  28.476   2.367
43786W        W 7719  22.716  24.215   0.833
43787W        W 7720  34.473  11.157   3.216
43788W        W 7721  20.673   2.285   1.333
43789W        W 7722   4.739  36.073  14.813
43790W        W 7723   1.804  15.281  11.567
43791W        W 7724  24.660  25.621  14.940
43792W        W 7725  15.124  31.469   0.266
43793W        W 7726  21.531  15.263  12.438
43794W        W 7727  34.409  43.512   1.695
43795W        W 7728  13.773  41.479  12.457
43796W        W 7729  22.113  39.840  10.506
43797W        W 7730  24.685   0.374  13.803
43798W        W 7731  21.070  24.567   1.380
43799W        W 7732  11.800   7.891  14.998
43800W        W 7733  44.985  44.986  14.994
43801W        W 7734  10.835  20.683   3.370
43802W        W 7735  29.591   5.378   2.305
43803W        W 7736  41.441  30.045  11.381
43804W        W 7737  30.541  42.917  10.612
43805W        W 7738   5.752  30.656   1.872
43806W        W 7739   3.251  14.599  14.826
43807W        W 7740  44.367  27.459   2.394
43808W        W 7741  27.096  41.476   0.882
43809W        W 7742  27.981  43.478  14.861
43810W        W 7743   9.364   2.302   2.247
43811W        W 7744  17.687   4.270   2.895
43812W        W 7745  21.640   2.470   0.948
43813W        W 7746   8.719  39.055  13.804
43814W        W 7747  36.505   4.343  13.818
43815W        W 7748  42.867  26.541  13.908
43816W        W 7749   0.880  24.205   3.223
43817W        W 7750  11.226  36.920   1.764
43818W        W 7751  29.043   1.480  12.550
43819W        W 7752  31.551   5.837   4.631
43820W        W 7753  35.580  44.452   2.865
43821W        W 7754  29.541   1.897   1.802
43822W        W 7755  10.300  37.340  13.382
43823W        W 7756  30.082  40.950  11.078
43824W        W 7757  42.009   9.235  10.535
43825W        W 7758  37.870  41.476  10.610
43826W        W 7759   3.710  34.410  11.057
43827W        W 7760  32.891  28.603  14.793
43828W        W 7761  12.649   1.335  11.397
43829W        W 7762  38.071  38.566   1.220
43830W        W 7763  33.039   8.784  13.997
43831W        W 7764  26.642   5.872  11.128
43832W        W 7765  38.913  39.463   3.374
43833W        W 7766  41.975   3.379  14.440
43834W        W 7767  13.768  44.769  12.940
43835W        W 7768  15.249  28.640  12.067
43836W        W 7769  19.557  25.077   1.797
43837W        W 7770  15.618  43.003   3.741
43838W        W 7771  24.218  42.793  11.895
43839W        W 7772  10.314  30.545   1.876
43840W        W 7773  37.407  28.937   3.180
43841W        W 7774   0.304   4.727  11.475
43842W        W 7775  40.491  12.782   1.210
43843W        W 7776   5.815  27.948  12.576
43844W        W 7777   1.841  30.471   0.444
43845W        W 7778  39.937  37.056  13.485
43846W        W 7779  10.191  19.576   2.359
43847W        W 7780  21.109  33.095  14.429
43848W        W 7781  20.606   9.193   4.279
43849W        W 7782  29.625  18.662  10.918
43850W        W 7783  43.509  28.093  12.043
43851W        W 7784  10.701  13.207   4.691
43852W        W 7785  14.724  12.676   1.444
43853W        W 7786  23.120  28.134   4.734
43854W        W 7787  26.561  13.796   1.220
43855W        W 7788  28.541  18.568  13.992
43856W        W 7789   4.448  15.802   0.370
43857W        W 7790  19.753   9.394   3.761
43858W        W 7791   4.879  22.578   2.335
43859W        W 7792  29.137  38.885   1.777
43860W        W 7793  30.036  26.663  11.963
43861W        W 7794  31.077  36.399   1.718
43862W        W 7795  23.056  21.050  12.430
43863W        W 7796  42.990  43.825  10.515
43864W        W 7797  26.170   3.888  10.547
43865W        W 7798  31.575  28.174  11.968
43866W        W 7799  33.970  18.129   1.852
43867W        W 7800   3.260  26.053   0.738
43868W        W 7801  43.939  44.760   0.816
43869W        W 7802  18.053  26.639   1.392
43870W        W 7803  42.477  10.858  11.938
43871W        W 7804  21.699  40.407   4.148
43872W        W 7805   7.682  22.236  12.552
43873W        W 7806  10.140  28.615   1.397
43874W        W 7807   8.811  35.418  14.362
43875W        W 7808   1.434  43.418  12.006
43876W        W 7809  22.506   5.835   3.686
43877W        W 7810  42.935  41.524   3.675
43878W        W 7811  39.534  20.704  12.545
43879W        W 7812  10.704   7.832  13.794
43880W        W 7813  10.736   4.219  13.437
43881W        W 7814  35.469  20.090  12.836
43882W        W 7815  35.359  10.202   2.408
43883W        W 7816  28.035  21.207  10.971
43884W        W 7817  10.367  14.613  10.935
43885W        W 7818  30.051  13.209  10.434
43886W        W 7819  44.976  44.288   1.426
43887W        W 7820  28.028  23.536   0.362
43888W        W 7821  13.316  41.905   1.766
43889W        W 7822  27.045  33.122   4.137
43890W        W 7823  26.526  41.505   4.252
43891W        W 7824  41.991  15.229   0.445
43892W        W 7825  14.208  37.005   3.358
43893W        W 7826  40.304   7.848   1.350
43894W        W 7827  41.538  41.402   0.258
43895W        W 7828  37.032  14.163  14.387
43896W        W 7829  16.677  24.981   1.250
43897W        W 7830  27.014  23.205  10.593
43898W        W 7831  34.516  32.495   2.215
43899W        W 7832   1.841   4.767  13.454
43900W        W 7833  30.527   1.960  13.485
43901W        W 7834  16.702  36.944  12.555
43902W        W 7835  14.721   3.310  12.869
43903W        W 7836  23.090  25.051  14.780
43904W        W 7837  25.965  37.379   0.959
43905W        W 7838  11.715   7.838   1.346
43906W        W 7839  17.124   7.806   0.463
43907W        W 7840  15.232  18.216  10.052
43908W        W 7841  43.831   9.822  13.862
43909W        W 7842  29.943  35.363   1.790
43910W        W 7843  42.336  32.427  11.959
43911W        W 7844   4.852  35.030  13.827
43912W        W 7845  37.431   8.293  14.907
43913W        W 7846   4.220  31.441  12.407
43914W        W 7847  36.091  44.855  11.433
43915W        W 7848  29.632  34.467  14.925
43916W        W 7849  42.512   8.876  14.512
43917W        W 7850  22.534  33.897  11.387
43918W        W 7851  41.419   2.368   3.758
43919W        W 7852  24.994  25.666  13.025
43920W        W 7853  43.802  14.145  10.618
43921W        W 7854   8.788  11.748   3.778
43922W        W 7855  42.450  38.483  10.922
43923W        W 7856  19.109  27.058  12.878
43924W        W 7857  15.160  44.982   2.409
43925W        W 7858  24.032   0.770  12.982
43926W        W 7859   7.722  35.428   3.318
43927W        W 7860  25.588  21.591   4.678
43928W        W 7861  32.403  39.053  10.085
43929W        W 7862   9.269  19.710   2.282
43930W        W 7863  33.113  12.845   4.793
43931W        W 7864  16.314  35.960   2.763
43932W        W 7865  19.256  25.983   1.802
43933W        W 7866  25.680  21.515   0.866
43934W        W 7867  43.900  20.030  12.402
43935W        W 7868  21.240  10.722   5.230
43936W        W 7869  29.981  23.726   3.733
43937W        W 7870  43.833   3.882  14.030
43938W        W 7871  20.706   6.719   0.396
43939W        W 7872  26.049  34.109  14.857
43940W        W 7873  14.144  32.021   2.692
43941W        W 7874  41.379  20.103  13.044
43942W        W 7875  17.071  34.069   3.719
43943W        W 7876  20.209  17.238  10.488
43944W        W 7877  41.472  14.321  12.925
43945W        W 7878  33.080  37.904   1.262
43946W        W 7879   5.821   5.227  10.552
43947W        W 7880  27.115  37.032   4.611
43948W        W 7881  27.978  19.594  14.362
43949W        W 7882  25.046  23.609   0.435
43950W        W 7883  31.152  37.414   3.207
43951W        W 7884   5.327  31.524   1.225
43952W        W 7885  24.674  15.217   1.810
43953W        W 7886  19.163  25.489  13.865
43954W        W 7887  15.736  30.943  14.840
43955W        W 7888  27.185  36.533  13.972
43956W        W 7889  27.120  10.735  14.309
43957W        W 7890  34.421   8.394  10.999
43958W        W 7891  20.705  41.411  13.349
43959W        W 7892  27.984  30.558   1.913
43960W        W 7893  36.052   7.765   0.731
43961W        W 7894  11.300  29.943   3.275
43962W        W 7895  24.100  35.895  13.801
43963W        W 7896   9.237  29.940  11.069
43964W        W 7897   0.360   2.320  11.932
43965W        W 7898  20.665  38.475   3.853
43966W        W 7899  42.959  24.108   3.686
43967W        W 7900   5.723   8.703   2.880
43968W        W 7901   5.886  23.614  14.477
43969W        W 7902   7.835   7.218  12.549
43970W        W 7903  27.573  22.602   1.733
43971W        W 7904   7.284   4.437   1.811
43972W        W 7905  20.054  15.804   0.271
43973W        W 7906  18.675  31.640   0.796
43974W        W 7907   5.816  24.669  11.865
43975W        W 7908  30.571  14.773  11.535
43976W        W 7909  28.060  11.261   4.760
43977W        W 7910  43.785  41.483   4.739
43978W        W 7911  34.475  14.156  12.367
43979W        W 7912  36.085  31.132  11.502
43980W        W 7913  24.208  44.875  14.023
43981W        W 7914   6.329  13.623  12.387
43982W        W 7915  26.186   1.292  11.032
43983W        W 7916  26.092   4.903  11.008
43984W        W 7917  33.123  19.209  14.884
43985W        W 7918  11.630  16.209   3.795
43986W        W 7919   3.732  25.664   2.324
43987W        W 7920  28.667  42.834  11.547
43988W        W 7921  24.222  20.050  12.836
43989W        W 7922  27.942   7.173   3.797
43990W        W 7923   8.290   7.881  11.081
43991W        W 7924   8.824  34.882   2.754
43992W        W 7925  16.210   1.974   1.323
43993W        W 7926  27.574  10.866  13.327
43994W        W 7927  14.621  22.047   2.357
43995W        W 7928  25.528  27.002  12.352
43996W        W 7929   8.785   8.322  13.985
43997W        W 7930  38.946  14.692  10.904
43998W        W 7931  36.971  36.077  13.380
43999W        W 7932  25.163   2.764  10.991
44000W        W 7933  15.289   6.190   1.744
44001W        W 7934   5.889   6.312   0.748
44002W        W 7935  19.742   1.279  14.396
44003W        W 7936  36.016  22.068   2.308
44004W        W 7937  42.327  43.406   0.765
44005W        W 7938  12.619  21.123  11.518
44006W        W 7939  13.755  38.475  11.067
44007W        W 7940   5.929   4.943  14.958
44008W        W 7941  18.090   6.268  11.378
44009W        W 7942  37.385  32.559   0.315
44010W        W 7943   8.201   7.170   4.741
44011W        W 7944  15.323  31.562  14.324
44012W        W 7945   8.685  17.787  11.998
44013W        W 7946  17.633   3.369  12.915
44014W        W 7947  37.024   0.825   4.672
44015W        W 7948  32.608  10.861  11.914
44016W        W 7949  13.194  22.027   0.878
44017W        W 7950  38.528  40.969   4.666
44018W        W 7951  18.582  20.564  12.357
44019W        W 7952  25.041   1.847   0.838
44020W        W 7953  11.304   9.323   2.384
44021W        W 7954  11.320   7.896   4.625
44022W        W 7955  24.516  18.663   3.861
44023W        W 7956  43.497   1.276   4.718
44024W        W 7957  27.651  38.338  12.474
44025W        W 7958   7.674  39.437   3.852
44026W        W 7959  18.092  38.001   4.143
44027W        W 7960   6.199   8.819  11.953
44028W        W 7961  17.117  17.740   4.233
44029W        W 7962  25.032   9.339  10.499
44030W        W 7963  24.991  42.401  13.427
44031W        W 7964  24.655  14.222   2.325
44032W        W 7965  15.198  19.060   1.869
44033W        W 7966  18.243  44.473  11.888
44034W        W 7967  30.463  13.823  13.360
44035W        W 7968   2.244  41.517   3.313
44036W        W 7969   7.827  25.997   4.698
44037W        W 7970  26.028  37.865   3.751
44038W        W 7971  31.528  42.345   2.699
44039W        W 7972   4.917  35.950   0.313
44040W        W 7973  17.187   3.360   1.425
44041W        W 7974   6.724   2.418   9.455
44042W        W 7975  38.405  31.575  13.995
44043W        W 7976  16.214  29.071  13.862
44044W        W 7977  19.731  44.993   1.706
44045W        W 7978  34.401   7.286  13.997
44046W        W 7979   0.955   4.855  14.855
44047W        W 7980  16.108  27.548   3.687
44048W        W 7981  25.539  26.507  14.467
44049W        W 7982  24.122  27.514  12.422
44050W        W 7983  15.232  20.562   2.873
44051W        W 7984  25.625  39.897   2.253
44052W        W 7985  39.337  40.515  11.055
44053W        W 7986  39.530  20.578  14.853
44054W        W 7987  38.526  39.968  11.424
44055W        W 7988  16.730  41.825  13.002
44056W        W 7989   3.443  11.138   2.859
44057W        W 7990   3.846  28.647   3.756
44058W        W 7991  44.399  33.546  12.917
44059W        W 7992  15.110  16.119   2.773
44060W        W 7993  39.037  16.716  10.620
44061W        W 7994  11.839  23.106  12.899
44062W        W 7995  29.581   9.278   0.246
44063W        W 7996  29.090  42.383   4.224
44064W        W 7997  29.473   2.458   4.636
44065W        W 7998  33.028   7.852  12.382
44066W        W 7999  42.003  23.002   4.728
44067W        W 8000  35.451   6.889   1.879
44068W        W 8001   0.257   7.746   3.296
44069W        W 8002  17.304   0.486  10.056
44070W        W 8003  36.407  40.965   0.766
44071W        W 8004  13.755  23.236  11.124
44072W        W 8005  22.575  14.290  14.893
44073W        W 8006   2.233  19.589  10.547
44074W        W 8007  43.799  40.388   0.728
44075W        W 8008  32.979  13.284   1.845
44076W        W 8009  27.514  27.111  11.951
44077W        W 8010  29.007  27.639  12.388
44078W        W 8011  12.836  24.586  12.466
44079W        W 8012  31.536  38.435  14.410
44080W        W 8013  24.112  40.309   4.349
44081W        W 8014  35.566  28.655  11.856
44082W        W 8015   7.358   3.259   1.842
44083W        W 8016  15.657  38.413  12.546
44084W        W 8017  18.659   6.223   9.993
44085W        W 8018  39.504  37.934   1.370
44086W        W 8019  16.255  34.941  12.339
44087W        W 8020   0.429  19.697  12.418
44088W        W 8021   7.386   3.308  13.490
44089W        W 8022  44.412  40.040   3.676
44090W        W 8023  29.990  13.235  13.978
44091W        W 8024  38.466  44.360  11.049
44092W        W 8025  41.508  21.239   3.171
44093W        W 8026   8.194   2.346  11.904
44094W        W 8027  23.631   8.370  10.601
44095W        W 8028  37.058   3.234   5.213
44096W        W 8029   5.414   5.737   4.221
44097W        W 8030  16.705   1.934  14.452
44098W        W 8031  37.521  29.661  14.432
44099W        W 8032  24.486  11.687   2.663
44100W        W 8033  16.305  25.206   4.664
44101W        W 8034  35.079  40.812  14.934
44102W        W 8035   1.766  31.975  14.825
44103W        W 8036  27.624  41.358   1.850
44104W        W 8037  37.964  19.765  11.459
44105W        W 8038  30.624   3.332   9.937
44106W        W 8039  17.591  36.404   1.898
44107W        W 8040  41.853  27.606   0.859
44108W        W 8041  10.691  44.414  13.968
44109W        W 8042   7.874  14.749  13.507
44110W        W 8043  26.125  11.645   3.642
44111W        W 8044   3.920  38.992  13.851
44112W        W 8045  26.963  11.693   9.485
44113W        W 8046  40.906  24.187  14.315
44114W        W 8047  35.030  24.714   1.364
44115W        W 8048   3.748   1.279   3.679
44116W        W 8049  23.077  34.047   4.244
44117W        W 8050  29.539  18.688   2.412
44118W        W 8051  17.800  33.985   1.416
44119W        W 8052  39.917   6.364  12.443
44120W        W 8053  32.944  40.833   3.666
44121W        W 8054  16.783  32.936   3.258
44122W        W 8055  13.742  13.770   2.397
44123W        W 8056  40.046   8.827   2.391
44124W        W 8057  24.519  16.121   1.763
44125W        W 8058  34.410   5.783   3.280
44126W        W 8059  27.960  17.224  14.961
44127W        W 8060  36.040  14.779  12.406
44128W        W 8061  41.402   9.364   0.248
44129W        W 8062   5.418  24.057  12.827
44130W        W 8063  20.139  32.913  14.324
44131W        W 8064   7.194  30.541   3.708
44132W        W 8065  38.846  16.634  10.068
44133W        W 8066  25.174  27.481   3.647
44134W        W 8067  23.034  43.493  10.571
44135W        W 8068  26.094   4.865  14.433
44136W        W 8069  22.084  25.004  10.602
44137W        W 8070  37.840  37.952   1.807
44138W        W 8071   1.337  40.966  11.597
44139W        W 8072  43.798  33.484  10.462
44140W        W 8073   7.270  19.264   0.754
44141W        W 8074  42.977  37.489  10.424
44142W        W 8075  11.150  23.736  11.927
44143W        W 8076  31.511  14.798  11.439
44144W        W 8077   3.949   4.767  13.916
44145W        W 8078  21.262  21.586   3.866
44146W        W 8079  43.505  30.430   4.213
44147W        W 8080  31.537  37.064   3.833
44148W        W 8081  41.987  31.599  11.978
44149W        W 8082  33.105  34.444   0.842
44150W        W 8083  20.268  30.548   0.377
44151W        W 8084  35.475  20.696  11.521
44152W        W 8085  33.622  10.760  12.486
44153W        W 8086  41.928  24.545   0.893
44154W        W 8087  44.284  22.747   1.808
44155W        W 8088  31.517   8.669  14.285
44156W        W 8089  19.269  30.094  12.900
44157W        W 8090   5.921  25.569   2.243
44158W        W 8091   0.903  12.749  11.588
44159W        W 8092  16.747   9.658   3.302
44160W        W 8093  24.638  38.532  13.896
44161W        W 8094  13.726  30.618  13.522
44162W        W 8095  12.163  37.010  12.858
44163W        W 8096  10.257  24.032   1.334
44164W        W 8097   3.271  20.135  14.496
44165W        W 8098  41.316   0.884   2.868
44166W        W 8099  28.965  40.314  11.423
44167W        W 8100  10.324   8.193   2.783
44168W        W 8101  36.385   3.249   0.398
44169W        W 8102  40.374  21.056   3.343
44170W        W 8103  31.130  40.896   0.777
44171W        W 8104  21.530   0.254  12.024
44172W        W 8105  17.293  42.324  13.849
44173W        W 8106  35.414   5.902  11.523
44174W        W 8107  12.689   3.841  10.615
44175W        W 8108  41.830  16.592   4.173
44176W        W 8109  32.508   4.263  10.599
44177W        W 8110   9.666  35.471   0.901
44178W        W 8111  37.347   1.875  13.357
44179W        W 8112  23.527   6.690  10.618
44180W        W 8113  43.772  26.578   3.174
44181W        W 8114  24.211  32.045  10.923
44182W        W 8115  21.681   7.292  13.985
44183W        W 8116  18.224  44.504  10.520
44184W        W 8117  39.893  21.232   2.408
44185W        W 8118  13.250  10.232   0.813
44186W        W 8119  27.566  33.571  12.509
44187W        W 8120   5.843   9.692   2.343
44188W        W 8121  44.452  23.660   0.855
44189W        W 8122  17.774   9.759  12.065
44190W        W 8123  16.278  36.073  13.483
44191W        W 8124  39.446  36.497   0.768
44192W        W 8125   7.205  28.613  12.410
44193W        W 8126  14.753   4.410   3.759
44194W        W 8127  43.819  36.474  11.964
44195W        W 8128  38.399  44.984  11.470
44196W        W 8129   1.478  36.046   4.129
44197W        W 8130  43.974  12.129  14.510
44198W        W 8131  11.635   9.819   3.682
44199W        W 8132  21.234   7.214   0.786
44200W        W 8133  14.707  14.318  10.414
44201W        W 8134  16.143  36.888  11.871
44202W        W 8135  43.971   9.755   3.832
44203W        W 8136  12.190  26.634   2.259
44204W        W 8137  35.579  13.339   4.746
44205W        W 8138   5.197  24.568   0.924
44206W        W 8139   6.685  18.682  11.519
44207W        W 8140  34.503  18.623  12.436
44208W        W 8141  38.470   5.718   3.762
44209W        W 8142   3.953   2.930   4.216
44210W        W 8143  13.148  14.322  11.021
44211W        W 8144   4.262   8.372  11.429
44212W        W 8145  42.412  41.043   2.181
44213W        W 8146  27.642   8.707   1.880
44214W        W 8147   9.800  32.629   1.358
44215W        W 8148  40.540  21.734  11.064
44216W        W 8149  35.949  11.718  13.874
44217W        W 8150  40.363  43.811  12.873
44218W        W 8151  31.500  44.451   3.750
44219W        W 8152  14.288  36.000   2.830
44220W        W 8153   7.839   2.816  11.886
44221W        W 8154  30.123  37.535  14.792
44222W        W 8155  39.536  19.596  11.507
44223W        W 8156  12.329  31.944  11.029
44224W        W 8157  35.416  39.842   4.606
44225W        W 8158  40.418  37.499  10.527
44226W        W 8159  23.174   0.963   2.817
44227W        W 8160  33.029  23.106  10.597
44228W        W 8161  27.619  13.732   4.721
44229W        W 8162  32.996  11.731  12.548
44230W        W 8163  19.729  37.374   3.172
44231W        W 8164  21.595  15.616   1.749
44232W        W 8165  20.261   1.780   1.431
44233W        W 8166   3.887  36.535  14.395
44234W        W 8167   6.892  12.790   1.301
44235W        W 8168   7.825  27.542   4.667
44236W        W 8169   2.355   9.310  14.437
44237W        W 8170  13.310  40.919   3.205
44238W        W 8171  32.562  18.696   2.784
44239W        W 8172   0.842  22.535  11.437
44240W        W 8173   1.902  19.565  13.959
44241W        W 8174  30.601  35.968  14.847
44242W        W 8175  21.212  34.039  11.053
44243W        W 8176  11.343  25.587  11.381
44244W        W 8177  23.986   3.340   4.274
44245W        W 8178  22.562  24.724   4.296
44246W        W 8179  15.694   8.777  13.872
44247W        W 8180  41.463  26.467  10.629
44248W        W 8181  11.134   6.824   2.673
44249W        W 8182  32.480   9.239  11.937
44250W        W 8183  43.284  15.709  13.862
44251W        W 8184   3.217  15.753  11.056
44252W        W 8185  17.286  28.564   3.269
44253W        W 8186  17.220  39.456   5.737
44254W        W 8187  34.392  16.711   4.238
44255W        W 8188  22.160  27.016  12.413
44256W        W 8189  41.326  38.828  12.370
44257W        W 8190  41.972  13.755   3.748
44258W        W 8191   4.795  23.047   5.135
44259W        W 8192  28.932  43.324  13.861
44260W        W 8193  15.622  15.230   2.369
44261W        W 8194  29.092   2.341   4.788
44262W        W 8195  24.061  38.047   3.841
44263W        W 8196   5.262  10.317  11.515
44264W        W 8197  25.629  24.105  14.354
44265W        W 8198   0.970  34.080   3.684
44266W        W 8199   0.988  32.543   3.720
44267W        W 8200  34.492   4.440   1.744
44268W        W 8201  34.515  19.188  12.562
44269W        W 8202  17.614  25.504  10.976
44270W        W 8203  30.099   2.360  11.102
44271W        W 8204  44.466   4.251   3.738
44272W        W 8205  22.676   4.792  12.993
44273W        W 8206   2.374  34.018   0.425
44274W        W 8207   6.416  42.937  14.827
44275W        W 8208   5.323   0.419   0.266
44276W        W 8209  29.594  17.068   4.309
44277W        W 8210  37.932   5.793   2.849
44278W        W 8211  31.113   5.256   0.898
44279W        W 8212  43.010  37.530   1.789
44280W        W 8213   2.803  24.491  13.895
44281W        W 8214   9.812   8.671  11.900
44282W        W 8215  26.982   3.712   1.717
44283W        W 8216  38.914  40.920   1.272
44284W        W 8217   1.387  28.987  13.473
44285W        W 8218  20.268  41.309  13.930
44286W        W 8219   3.265  34.998   3.818
44287W        W 8220  28.020  38.874  11.553
44288W        W 8221  10.245  43.849   0.381
44289W        W 8222  27.495   0.747   1.819
44290W        W 8223  34.052   7.848   3.631
44291W        W 8224  27.641  32.067  11.502
44292W        W 8225  37.928  12.687  13.043
44293W        W 8226   9.652  18.761  11.524
44294W        W 8227  42.936  17.277   0.340
44295W        W 8228  29.010  11.834   3.687
44296W        W 8229  19.630  31.935   3.808
44297W        W 8230  30.062  32.112  11.998
44298W        W 8231   1.900   6.326  11.008
44299W        W 8232  40.386  33.448  13.877
44300W        W 8233  34.891  40.002   3.360
44301W        W 8234  26.195  26.459  14.836
44302W        W 8235  39.416  34.036   4.801
44303W        W 8236  15.316  40.436   5.120
44304W        W 8237  30.030  38.035   2.281
44305W        W 8238  18.155   9.885  10.890
44306W        W 8239  38.845  22.036   1.248
44307W        W 8240  13.165  28.079  14.313
44308W        W 8241  29.577  25.173   3.738
44309W        W 8242   1.456   5.363   1.376
44310W        W 8243  36.908  37.071   2.342
44311W        W 8244  18.114   5.314   2.287
44312W        W 8245   5.760  14.134  12.982
44313W        W 8246  10.272   1.286   0.864
44314W        W 8247  26.040  35.020  14.770
44315W        W 8248  37.906  44.799   0.965
44316W        W 8249   9.863  33.515   4.278
44317W        W 8250   3.240  13.696  12.401
44318W        W 8251  34.427  25.679  10.428
44319W        W 8252  38.076  29.081   3.348
44320W        W 8253   2.753   4.216   3.320
44321W        W 8254  25.162  12.153   3.376
44322W        W 8255  15.159  30.921  14.391
44323W        W 8256   9.666  43.391   4.252
44324W        W 8257  23.152  17.728  10.466
44325W        W 8258  42.485   2.789  14.481
44326W        W 8259  42.883   6.878   4.139
44327W        W 8260  16.782  35.074   4.605
44328W        W 8261  42.776  15.085   1.711
44329W        W 8262  25.602  15.760  14.856
44330W        W 8263  38.888  32.066   1.774
44331W        W 8264  36.844  29.987  14.873
44332W        W 8265   9.374   9.730   1.212
44333W        W 8266  16.129  22.175   1.710
44334W        W 8267  22.587  29.065   2.833
44335W        W 8268   9.350  40.019   1.752
44336W        W 8269  15.715  44.863  12.350
44337W        W 8270  29.505  11.334   3.167
44338W        W 8271  15.691  39.461   1.729
44339W        W 8272  24.618  10.230  14.872
44340W        W 8273  39.815  21.106   1.912
44341W        W 8274   9.240  15.306   3.167
44342W        W 8275  10.275  42.297   3.794
44343W        W 8276  26.538  20.544  12.516
44344W        W 8277  42.819  37.005  14.301
44345W        W 8278  38.056  32.000  13.342
44346W        W 8279  35.890  44.460   1.352
44347W        W 8280  34.536  42.327  12.052
44348W        W 8281   3.431  10.766   0.757
44349W        W 8282  30.654  30.626   4.751
44350W        W 8283  37.573  13.607  13.486
44351W        W 8284  36.510  18.245  11.522
44352W        W 8285   2.806  25.105   2.834
44353W        W 8286  13.704  26.486  10.977
44354W        W 8287  19.756  20.204   0.446
44355W        W 8288  29.172   8.398   2.375
44356W        W 8289  43.349  18.694  11.948
44357W        W 8290  15.119   3.802   4.770
44358W        W 8291   5.770  22.715  13.314
44359W        W 8292  18.140   7.238  10.537
44360W        W 8293  23.014  24.628  10.890
44361W        W 8294  33.944  32.989   4.298
44362W        W 8295   8.769   2.790  13.946
44363W        W 8296  13.649  37.904  14.341
44364W        W 8297   9.195  19.754  14.971
44365W        W 8298  34.497  12.857   1.837
44366W        W 8299  40.383  12.779   2.243
44367W        W 8300  34.941   2.378  11.453
44368W        W 8301  38.485  30.441  12.845
44369W        W 8302  34.542   9.364  11.927
44370W        W 8303  27.653  26.648   0.370
44371W        W 8304  14.210  15.652   1.394
44372W        W 8305  44.403  32.487  10.887
44373W        W 8306  38.935  22.538  14.966
44374W        W 8307   4.755  15.773  12.351
44375W        W 8308  13.215  10.171   3.665
44376W        W 8309  25.653  41.367   4.274
44377W        W 8310  37.456  35.872   2.262
44378W        W 8311  24.539  17.209   2.784
44379W        W 8312  34.113  40.387   4.701
44380W        W 8313   9.179   2.332  14.760
44381W        W 8314  44.293   8.775  10.415
44382W        W 8315  20.608  19.173   0.779
44383W        W 8316  12.686  22.509  13.011
44384W        W 8317  39.359  36.078   3.771
44385W        W 8318  19.682  31.470   3.719
44386W        W 8319  27.481  12.853  14.454
44387W        W 8320  27.475  43.409  13.367
44388W        W 8321  33.072  23.130  14.913
44389W        W 8322  15.586   2.881   1.775
44390W        W 8323   6.333  35.024   0.829
44391W        W 8324  15.329   2.293   4.245
44392W        W 8325  27.571  24.494   0.282
44393W        W 8326   4.216  25.563   3.152
44394W        W 8327  35.484  39.410  11.926
44395W        W 8328  37.085   7.252  13.891
44396W        W 8329   5.779   2.287  14.770
44397W        W 8330  17.729   7.672   1.792
44398W        W 8331  21.704  12.737  11.081
44399W        W 8332  24.638  15.695   3.678
44400W        W 8333   4.895  37.509  11.583
44401W        W 8334   2.842  25.708   1.765
44402W        W 8335  44.375   2.228   3.270
44403W        W 8336   6.417  25.596  11.881
44404W        W 8337  25.063  18.284   2.842
44405W        W 8338   1.862   1.810   2.352
44406W        W 8339  20.746  33.451   2.183
44407W        W 8340  31.563  30.003   0.740
44408W        W 8341  12.762  13.620  11.104
44409W        W 8342  15.303  26.598  14.916
44410W        W 8343  20.181  34.496  10.614
44411W        W 8344  35.037   4.269   1.212
44412W        W 8345  26.678  40.967   0.461
44413W        W 8346  30.428  38.920   3.328
44414W        W 8347  30.984  42.009   2.832
44415W        W 8348   1.289  16.130  10.468
44416W        W 8349  10.822   4.384   0.453
44417W        W 8350  17.588  22.016  13.910
44418W        W 8351   2.795   3.900  11.990
44419W        W 8352  19.116  20.658  14.492
44420W        W 8353  19.269  36.884   3.734
44421W        W 8354   2.814  23.700  11.090
44422W        W 8355  27.995   8.708  10.965
44423W        W 8356  42.866  29.163   2.278
44424W        W 8357  26.627  39.900  14.894
44425W        W 8358  14.671  26.573  10.963
44426W        W 8359  24.604  22.116  12.006
44427W        W 8360  26.043  25.971  13.539
44428W        W 8361  34.541  28.950   1.888
44429W        W 8362   6.209   8.879   5.147
44430W        W 8363  22.082   8.758   0.895
44431W        W 8364  33.489  23.990  14.941
44432W        W 8365  44.885   1.450   1.389
44433W        W 8366  35.549   7.726   2.689
44434W        W 8367  12.751  14.309   1.272
44435W        W 8368  32.545  41.842  14.431
44436W        W 8369  17.152   1.830   3.713
44437W        W 8370  24.220  43.997   3.190
44438W        W 8371   0.336  36.351   0.254
44439W        W 8372  15.302  20.523   1.414
44440W        W 8373  25.650   4.325   0.743
44441W        W 8374  21.572  23.539  10.911
44442W        W 8375  17.161   8.395   0.834
44443W        W 8376  22.026  40.457  14.966
44444W        W 8377  28.027   1.254  10.573
44445W        W 8378  41.826  28.159   0.252
44446W        W 8379  15.668   7.306   3.841
44447W        W 8380  31.465  35.440   1.789
44448W        W 8381  10.825   1.259   2.784
44449W        W 8382  38.954  38.516  11.548
44450W        W 8383  10.721  11.358   0.814
44451W        W 8384  40.858  24.516   1.422
44452W        W 8385  40.893  20.190  13.517
44453W        W 8386  37.043  38.458   0.424
44454W        W 8387  31.424   5.214  12.870
44455W        W 8388  40.031  39.852   0.910
44456W        W 8389  12.845   0.974   0.755
44457W        W 8390  38.497  34.542   3.816
44458W        W 8391  29.524  34.082   2.891
44459W        W 8392  44.267  33.934   5.276
44460W        W 8393  13.265  14.157   0.854
44461W        W 8394  43.852  41.038  10.606
44462W        W 8395   2.904  15.133  12.339
44463W        W 8396  23.491   8.228   1.776
44464W        W 8397  28.094  42.792   2.384
44465W        W 8398  15.770  11.854  10.890
44466W        W 8399  26.613   3.929  14.304
44467W        W 8400  11.630  34.536  14.874
44468W        W 8401   4.275  27.185   3.840
44469W        W 8402  38.960  19.088   1.374
44470W        W 8403  23.226  23.052  14.027
44471W        W 8404  29.425  41.404   4.260
44472W        W 8405  40.425  15.604  13.447
44473W        W 8406  29.153   6.816  11.893
44474W        W 8407   8.714  13.754  10.493
44475W        W 8408  42.856  19.278   4.224
44476W        W 8409  19.711  15.282   2.787
44477W        W 8410  31.472  29.429  11.036
44478W        W 8411  23.222  29.922  13.888
44479W        W 8412  13.268  17.760  11.978
44480W        W 8413  27.971   4.889  10.075
44481W        W 8414  33.592   8.813   4.809
44482W        W 8415  32.066  37.337   5.156
44483W        W 8416  17.771  40.904  12.830
44484W        W 8417  10.144  18.100   2.727
44485W        W 8418  13.647  33.122  14.313
44486W        W 8419  20.269   5.738   4.128
44487W        W 8420  20.176   0.854  12.053
44488W        W 8421  27.095   2.807   2.402
44489W        W 8422  39.838  18.737  12.401
44490W        W 8423  13.766  39.404   0.900
44491W        W 8424  14.834  25.086  12.418
44492W        W 8425  34.387   6.223   0.375
44493W        W 8426  30.015  10.190   0.330
44494W        W 8427  41.042  38.014  11.022
44495W        W 8428  12.227  22.046   3.304
44496W        W 8429   1.901  41.302   2.849
44497W        W 8430  27.985  31.469  12.348
44498W        W 8431   7.246  43.888  11.477
44499W        W 8432   4.894   1.270  14.982
44500W        W 8433  21.746  41.023   3.382
44501W        W 8434  36.511  16.623  13.800
44502W        W 8435  15.659  23.623  10.522
44503W        W 8436  43.326  23.588   4.122
44504W        W 8437   8.247   5.314  12.404
44505W        W 8438   9.805  19.684   4.291
44506W        W 8439  28.644  11.184   3.815
44507W        W 8440  15.169   9.363  14.355
44508W        W 8441  30.034   5.267   0.825
44509W        W 8442  39.039  14.764  11.435
44510W        W 8443  24.167  38.364  13.928
44511W        W 8444  42.806   8.677  11.897
44512W        W 8445   5.797  14.687  13.444
44513W        W 8446  32.070  11.631  13.412
44514W        W 8447   6.684   7.252  12.461
44515W        W 8448  30.065  32.600   1.422
44516W        W 8449  32.061  20.035  14.825
44517W        W 8450  42.390  42.815  12.457
44518W        W 8451  11.248  42.949  10.433
44519W        W 8452  10.826  44.919   3.300
44520W        W 8453  18.571   7.174  13.909
44521W        W 8454  23.049  42.913   3.380
44522W        W 8455  29.032  16.250  10.888
44523W        W 8456  11.697  27.686  11.553
44524W        W 8457  33.070  43.823  11.574
44525W        W 8458  43.309  16.764   4.772
44526W        W 8459  39.473  34.417   1.826
44527W        W 8460  27.050  31.429  13.977
44528W        W 8461  16.275  24.011  11.890
44529W        W 8462  34.445   2.426  13.844
44530W        W 8463   4.803  28.097  13.910
44531W        W 8464  16.669  29.137  14.953
44532W        W 8465  22.599  16.253  10.432
44533W        W 8466  12.617  10.719  14.306
44534W        W 8467   2.350  44.501   1.928
44535W        W 8468  40.850   7.191   4.200
44536W        W 8469  38.467  22.680  13.903
44537W        W 8470  39.518  23.106  12.952
44538W        W 8471   2.417  28.670   3.703
44539W        W 8472   3.325  37.548  12.468
44540W        W 8473   2.805  43.974  13.367
44541W        W 8474  42.390  17.091  14.921
44542W        W 8475  25.126  11.754  13.486
44543W        W 8476  12.149  33.875  11.454
44544W        W 8477   5.205  27.688   1.293
44545W        W 8478  42.447  13.676   4.338
44546W        W 8479  28.560  37.983   0.448
44547W        W 8480  32.940  16.756   2.204
44548W        W 8481  22.995  22.739   2.739
44549W        W 8482  40.407  33.075   3.738
44550W        W 8483  35.493  31.469  12.561
44551W        W 8484  23.500  27.584  10.560
44552W        W 8485  12.687  27.500   1.905
44553W        W 8486  44.849  44.293  10.502
44554W        W 8487   9.652  34.036   4.234
44555W        W 8488  13.249   0.322  14.782
44556W        W 8489  11.699  41.419  13.387
44557W        W 8490  24.703  33.568   4.780
44558W        W 8491  36.056  25.547  13.408
44559W        W 8492  26.605   9.783   4.249
44560W        W 8493  18.193  43.352   2.859
44561W        W 8494  29.926  28.459   3.678
44562W        W 8495   2.313  17.702  10.911
44563W        W 8496  25.155  37.465   2.293
44564W        W 8497  18.657  31.971   2.773
44565W        W 8498  26.522  33.083   3.342
44566W        W 8499  16.294  32.556   4.637
44567W        W 8500  14.234  35.054  14.996
44568W        W 8501  31.080   3.456  14.456
44569W        W 8502  15.090  28.660   0.276
44570W        W 8503   3.914  35.417  12.379
44571W        W 8504  43.915   3.226   5.185
44572W        W 8505  40.834   4.416  13.053
44573W        W 8506  10.166  18.571   0.374
44574W        W 8507  40.007  31.961   0.359
44575W        W 8508  25.162   2.367  11.926
44576W        W 8509  17.085   8.850  14.509
44577W        W 8510   4.833  36.517   2.903
44578W        W 8511  21.199   8.160   1.311
44579W        W 8512   5.890  20.119  12.857
44580W        W 8513  18.573  36.449  10.966
44581W        W 8514  10.741  16.138  13.437
44582W        W 8515  38.444  32.006  13.308
44583W        W 8516  36.513  27.149  13.820
44584W        W 8517   7.682  15.699  13.540
44585W        W 8518   5.357  29.424   4.139
44586W        W 8519  15.699   7.691   5.207
44587W        W 8520  30.569   1.395   0.760
44588W        W 8521   6.872  30.127   2.813
44589W        W 8522   9.293  39.848  10.161
44590W        W 8523  43.773   1.397   1.836
44591W        W 8524   2.246  32.020   3.155
44592W        W 8525  24.084  20.740   1.445
44593W        W 8526  11.321   8.204   0.802
44594W        W 8527  20.592   1.329   3.149
44595W        W 8528  28.490  18.130  12.000
44596W        W 8529  43.878  37.436   3.809
44597W        W 8530  36.013   5.295  11.526
44598W        W 8531  43.365  32.564   0.346
44599W        W 8532  44.794  16.140  10.608
44600W        W 8533  29.987   0.378   2.213
44601W        W 8534  39.851  11.815  13.010
44602W        W 8535   8.727  12.331   0.936
44603W        W 8536  43.998  40.368  11.382
44604W        W 8537  39.935   0.334  14.456
44605W        W 8538   3.265  26.505  13.372
44606W        W 8539  31.425  31.403  12.034
44607W        W 8540   5.721  41.872  12.446
44608W        W 8541  40.313   9.354  14.834
44609W        W 8542  22.701   2.856   3.853
44610W        W 8543  30.437  23.118   1.815
44611W        W 8544  13.623  10.243  13.541
44612W        W 8545  31.937   2.936   4.707
44613W        W 8546   7.665  32.566   3.806
44614W        W 8547  12.784   8.278  12.910
44615W        W 8548  15.240  34.990   2.255
44616W        W 8549  33.121  31.564   3.742
44617W        W 8550  18.729  39.903  10.942
44618W        W 8551  31.501  39.358   0.257
44619W        W 8552   9.780   3.886   0.730
44620W        W 8553  21.712  41.896   3.816
44621W        W 8554  18.060  43.286  12.852
44622W        W 8555  10.244  27.493   1.300
44623W        W 8556  26.586  29.441  14.403
44624W        W 8557  41.008  23.157  14.449
44625W        W 8558  37.041  40.394   1.411
44626W        W 8559   9.884  37.505  13.470
44627W        W 8560  17.652  15.251  12.980
44628W        W 8561   7.723   4.284   2.412
44629W        W 8562  29.117  25.979  13.813
44630W        W 8563   6.241  29.109  11.875
44631W        W 8564  19.142  22.224   3.229
44632W        W 8565  37.460  16.652  14.998
44633W        W 8566   6.697  19.542  12.890
44634W        W 8567   4.446  22.096   3.337
44635W        W 8568  13.831  26.043  14.477
44636W        W 8569  20.609  42.839  13.461
44637W        W 8570  38.524  34.441   1.820
44638W        W 8571  24.001  25.006  12.968
44639W        W 8572   9.646   2.793  11.430
44640W        W 8573   4.883  39.487  11.586
44641W        W 8574  30.911  24.634   4.190
44642W        W 8575   5.691  10.242   0.262
44643W        W 8576   9.330  18.702   1.236
44644W        W 8577  36.526  12.787  13.509
44645W        W 8578  11.703  37.898  10.584
44646W        W 8579  24.027  32.047   3.794
44647W        W 8580  32.936   3.732   3.641
44648W        W 8581  20.088  31.010   4.246
44649W        W 8582  18.758  42.418  11.085
44650W        W 8583  34.554  38.890   4.834
44651W        W 8584  22.159   9.369  11.517
44652W        W 8585  17.136  40.940  13.335
44653W        W 8586   8.385  23.504  13.000
44654W        W 8587  35.519   1.474   2.246
44655W        W 8588  32.104  44.410   4.126
44656W        W 8589  27.521  40.353  10.935
44657W        W 8590  27.020  29.444  13.422
44658W        W 8591  30.543   4.269   3.369
44659W        W 8592  34.500  15.642  10.099
44660W        W 8593   8.749  10.349   1.233
44661W        W 8594  10.276   1.919  13.420
44662W        W 8595  22.719   4.367  10.965
44663W        W 8596  12.163  38.992   2.317
44664W        W 8597  41.379  43.471  12.432
44665W        W 8598  18.597  25.585   0.423
44666W        W 8599  33.471   5.819  10.923
44667W        W 8600   8.694  33.574   0.947
44668W        W 8601   8.275  35.438  12.825
44669W        W 8602   0.449   6.921  14.943
44670W        W 8603  30.621  13.710   2.783
44671W        W 8604  40.458  39.875  11.113
44672W        W 8605   4.266  21.187   2.738
44673W        W 8606  32.986  10.760   3.749
44674W        W 8607  30.603  31.427  11.603
44675W        W 8608  38.470   9.312  10.524
44676W        W 8609  16.762  20.046   2.742
44677W        W 8610   5.230  10.315   0.396
44678W        W 8611  43.822  15.698   4.798
44679W        W 8612  23.608  38.911  12.005
44680W        W 8613  37.911   1.775  12.007
44681W        W 8614  23.135  44.393   0.340
44682W        W 8615  22.009  44.763   2.854
44683W        W 8616  20.072   2.722   0.793
44684W        W 8617   3.922   4.384   1.329
44685W        W 8618  38.022  44.884  13.020
44686W        W 8619  33.614  36.403  13.981
44687W        W 8620  32.593  15.725  12.007
44688W        W 8621  14.619  36.926  10.914
44689W        W 8622  14.781  26.012   0.826
44690W        W 8623  27.635  29.997   0.895
44691W        W 8624  41.974  23.027  13.501
44692W        W 8625   4.787  37.951   4.230
44693W        W 8626  13.172  36.498   1.758
44694W        W 8627  16.136  20.150  10.918
44695W        W 8628  11.355  32.894  12.920
44696W        W 8629  24.549  26.479  14.000
44697W        W 8630  42.849   4.246   2.415
44698W        W 8631  43.426  34.544   1.841
44699W        W 8632  20.756  41.981  14.801
44700W        W 8633   5.297  11.675  12.904
44701W        W 8634  19.268  36.957  13.950
44702W        W 8635  43.820  37.950  13.970
44703W        W 8636   8.232  43.369   3.341
44704W        W 8637  30.657  29.454   3.301
44705W        W 8638   8.273  42.810   1.370
44706W        W 8639  10.239  35.580  11.863
44707W        W 8640  29.934  13.613  10.553
44708W        W 8641  17.273  10.223  11.514
44709W        W 8642  32.625   3.415   0.811
44710W        W 8643  26.497  21.715  13.835
44711W        W 8644  14.703  33.124   2.835
44712W        W 8645   3.832  25.188   0.287
44713W        W 8646  30.496   4.924   2.312
44714W        W 8647  38.983   3.217   1.708
44715W        W 8648   4.349  15.293  13.831
44716W        W 8649  18.638  37.529  10.013
44717W        W 8650  21.262  15.186   0.258
44718W        W 8651  15.632  11.156  14.999
44719W        W 8652  22.055   2.430   2.235
44720W        W 8653  17.171  13.651   1.438
44721W        W 8654  12.174  29.475   3.338
44722W        W 8655  18.714  16.180  12.944
44723W        W 8656  31.420   4.721  10.083
44724W        W 8657   4.883  22.661   0.451
44725W        W 8658  37.012  29.560   3.340
44726W        W 8659  11.152  36.001  12.088
44727W        W 8660   3.391  42.344   2.868
44728W        W 8661  39.887  24.032   0.769
44729W        W 8662   0.854  15.767   1.319
44730W        W 8663  26.502  24.706  12.880
44731W        W 8664  21.512  14.171   2.331
44732W        W 8665   3.859  16.802   5.136
44733W        W 8666  29.170  10.820  12.522
44734W        W 8667  38.040   6.715   1.365
44735W        W 8668  12.260  22.701  10.541
44736W        W 8669  31.585  23.207  11.415
44737W        W 8670  25.149  23.011   1.219
44738W        W 8671  42.784  20.654  14.284
44739W        W 8672   1.830  33.129  13.829
44740W        W 8673   1.431  16.101  14.417
44741W        W 8674  33.971  10.632   2.283
44742W        W 8675  28.173  16.581  14.003
44743W        W 8676  22.544  19.194   1.414
44744W        W 8677  19.061  22.144  13.987
44745W        W 8678  37.914  19.247  12.831
44746W        W 8679  23.539  27.181   2.286
44747W        W 8680  13.622  34.490  10.952
44748W        W 8681   7.698   5.334  13.370
44749W        W 8682  25.191  19.084   4.330
44750W        W 8683  22.161  10.794  12.340
44751W        W 8684  10.308  39.374  11.895
44752W        W 8685   2.866   2.370  14.395
44753W        W 8686  19.726  42.451   4.321
44754W        W 8687   0.353  12.626  11.408
44755W        W 8688  18.202  35.868   1.820
44756W        W 8689  42.507   0.748   2.393
44757W        W 8690  43.422   4.800  12.983
44758W        W 8691  37.384  23.591   0.782
44759W        W 8692  16.100  19.189  13.981
44760W        W 8693  37.019  44.976  12.067
44761W        W 8694  27.023   1.395  10.899
44762W        W 8695  29.029  21.171   2.767
44763W        W 8696   6.887   6.786   4.729
44764W        W 8697  34.870  15.324   1.210
44765W        W 8698  16.638  26.581  12.839
44766W        W 8699  15.214   0.450  11.864
44767W        W 8700  16.770  22.634  14.025
44768W        W 8701  26.653  10.766   1.362
44769W        W 8702  12.124  22.106  11.862
44770W        W 8703  37.842   1.871  10.408
44771W        W 8704  15.312  23.576   0.901
44772W        W 8705   9.831  29.555  14.427
44773W        W 8706   8.783  41.938  11.067
44774W        W 8707  13.681  17.734  13.381
44775W        W 8708  22.063  35.013   1.359
44776W        W 8709  39.551  33.928  14.931
44777W        W 8710  18.077  14.794  10.618
44778W        W 8711   3.403  13.161  11.612
44779W        W 8712  38.380  15.191  13.410
44780W        W 8713  21.544  29.647   5.188
44781W        W 8714  15.084  15.269   4.814
44782W        W 8715  26.015  28.973   1.221
44783W        W 8716  24.092   4.888  12.862
44784W        W 8717   0.939  22.540   2.713
44785W        W 8718   8.213  44.473  12.903
44786W        W 8719  19.720   7.839   5.310
44787W        W 8720  35.366   4.707   0.740
44788W        W 8721  43.843   6.355   3.853
44789W        W 8722  23.559  19.554  13.413
44790W        W 8723  24.545   0.975  13.037
44791W        W 8724  27.154  22.635  14.395
44792W        W 8725  25.709   5.274   4.826
44793W        W 8726   1.889   0.336  13.047
44794W        W 8727  29.108  10.236  12.460
44795W        W 8728   1.456  13.632  10.569
44796W        W 8729  42.877  28.499  11.514
44797W        W 8730  25.162  37.925   2.811
44798W        W 8731  10.226   1.467  11.581
44799W        W 8732  34.368  19.075   4.258
44800W        W 8733  15.699  16.217  14.497
44801W        W 8734   0.794  23.184   1.843
44802W        W 8735   0.761  43.501  13.472
44803W        W 8736  12.802  19.223   3.358
44804W        W 8737  12.359  12.782  11.089
44805W        W 8738  32.473  34.501   4.327
44806W        W 8739   8.217  44.936  12.032
44807W        W 8740  34.052  10.810   4.689
44808W        W 8741  35.045  13.247  11.038
44809W        W 8742  11.144  41.304   3.683
44810W        W 8743  29.509   5.738   2.717
44811W        W 8744   7.285  16.782  12.024
44812W        W 8745  40.827   4.899   3.715
44813W        W 8746  26.618  24.211   3.738
44814W        W 8747  15.259  15.179   1.776
44815W        W 8748  27.525  32.565   3.711
44816W        W 8749  20.140  25.127   1.924
44817W        W 8750  26.955   0.345  11.600
44818W        W 8751  13.655  35.496  12.084
44819W        W 8752  43.764  39.985   2.354
44820W        W 8753  21.730   1.389   0.309
44821W        W 8754  40.433  23.033  14.349
44822W        W 8755  22.028  35.961   3.187
44823W        W 8756   5.760  38.909   3.675
44824W        W 8757  36.577  15.752  10.975
44825W        W 8758  27.120  23.037   2.357
44826W        W 8759  35.018  19.081   3.257
44827W        W 8760  31.573  21.254  11.041
44828W        W 8761  17.723  33.624  14.018
44829W        W 8762   6.835  28.161  11.463
44830W        W 8763   0.800  31.405  14.865
44831W        W 8764  16.779  10.330   4.176
44832W        W 8765  15.140  11.153  14.773
44833W        W 8766  19.641   2.273  11.558
44834W        W 8767  33.543  18.576   0.374
44835W        W 8768  24.066  21.098  12.349
44836W        W 8769  44.910  17.752   1.794
44837W        W 8770  40.481  32.573   2.776
44838W        W 8771   3.230  24.660   4.806
44839W        W 8772  35.380  36.868   4.206
44840W        W 8773   6.406  30.546  11.066
44841W        W 8774   5.308  12.154  12.573
44842W        W 8775   9.223  44.319   2.361
44843W        W 8776  38.935  22.564   2.290
44844W        W 8777  31.120  37.576   2.227
44845W        W 8778  42.310  22.047   4.250
44846W        W 8779  21.119  40.936  11.929
44847W        W 8780  32.525   8.356   0.879
44848W        W 8781   0.318  35.983  10.625
44849W        W 8782   5.274  33.591   1.771
44850W        W 8783  31.402  42.846   4.790
44851W        W 8784  39.933   5.933   0.811
44852W        W 8785  44.952   4.324   3.285
44853W        W 8786  36.409  35.948   1.439
44854W        W 8787  32.030   3.929   1.807
44855W        W 8788  12.795  17.711   3.707
44856W        W 8789  42.874  29.967  13.992
44857W        W 8790  33.011  38.458   3.265
44858W        W 8791  12.744  27.685   2.718
44859W        W 8792  18.170  40.395   5.129
44860W        W 8793   5.770  12.757   1.795
44861W        W 8794  11.364  19.170  14.819
44862W        W 8795  19.225   1.439   0.930
44863W        W 8796  30.014  18.647  13.990
44864W        W 8797  31.104  34.901   1.250
44865W        W 8798  40.818  21.596   1.435
44866W        W 8799  36.897  42.483  12.082
44867W        W 8800   7.673  29.052  10.956
44868W        W 8801  24.525  19.602   5.190
44869W        W 8802  15.284   1.954  10.497
44870W        W 8803  22.545  34.415  14.385
44871W        W 8804  41.952   3.924   4.759
44872W        W 8805   9.391  41.857  14.466
44873W        W 8806  42.856  38.915   4.165
44874W        W 8807   3.723  19.149  13.531
44875W        W 8808  26.539  35.438   1.335
44876W        W 8809   8.322  15.744   4.296
44877W        W 8810  18.263  35.591   2.689
44878W        W 8811   3.321  24.203   1.210
44879W        W 8812  39.057  34.083   4.290
44880W        W 8813  33.509  37.869   1.876
44881W        W 8814  26.029  25.620   0.346
44882W        W 8815  33.891  39.323   1.810
44883W        W 8816  30.072  13.207   2.724
44884W        W 8817  32.002  15.172   2.278
44885W        W 8818  18.253  41.035   0.759
44886W        W 8819  25.526   6.203   3.364
44887W        W 8820  27.959  11.728  11.925
44888W        W 8821  41.981  11.228   1.929
44889W        W 8822   7.253  14.096  13.430
44890W        W 8823  27.178  19.061  11.420
44891W        W 8824  37.984   9.815   3.855
44892W        W 8825  27.179  20.128  11.959
44893W        W 8826   3.384   4.240   2.886
44894W        W 8827  39.546  26.574  13.518
44895W        W 8828   9.786  33.570  13.346
44896W        W 8829  37.503   2.334  14.275
44897W        W 8830  10.877  41.011   1.881
44898W        W 8831  13.618  21.237   3.866
44899W        W 8832   3.429   8.303   3.724
44900W        W 8833  15.744  28.515   2.739
44901W        W 8834  37.839  39.537  11.530
44902W        W 8835  44.436   4.246   1.442
44903W        W 8836  35.962  10.282  14.515
44904W        W 8837  12.332  22.618   0.839
44905W        W 8838  28.590  21.032   1.898
44906W        W 8839  17.766  27.688  14.327
44907W        W 8840  35.873  37.500  12.417
44908W        W 8841  27.196  36.474   0.852
44909W        W 8842  20.229   3.946  13.343
44910W        W 8843  32.557  32.501  11.945
44911W        W 8844  36.064  23.664  14.837
44912W        W 8845  26.560   2.436   4.157
44913W        W 8846  40.935  39.918  12.549
44914W        W 8847  39.481  44.001   2.864
44915W        W 8848   5.742  19.695  12.954
44916W        W 8849  11.834  22.226  14.942
44917W        W 8850   3.355   6.321   0.759
44918W        W 8851  34.075  23.699  14.321
44919W        W 8852  33.467  23.723   1.726
44920W        W 8853  11.171  18.631   2.245
44921W        W 8854  13.713  36.470   0.278
44922W        W 8855   3.737  18.239  10.642
44923W        W 8856  40.982  15.198   4.182
44924W        W 8857  37.457  20.737   3.250
44925W        W 8858  10.866  39.909  11.594
44926W        W 8859  11.767   1.763  11.106
44927W        W 8860  18.106   1.905  14.918
44928W        W 8861  16.809  21.565  13.920
44929W        W 8862  12.198  44.259   4.264
44930W        W 8863  29.507  17.217   3.156
44931W        W 8864   5.739  28.932   4.673
44932W        W 8865  13.136  21.554  11.531
44933W        W 8866  29.580  10.681  10.442
44934W        W 8867  40.913  39.490   1.781
44935W        W 8868   2.339  30.659   2.361
44936W        W 8869  22.109  34.071   3.340
44937W        W 8870  12.224  38.824   4.789
44938W        W 8871  39.865  42.302   4.294
44939W        W 8872   5.228  27.082  12.862
44940W        W 8873  16.705  14.768   3.858
44941W        W 8874  32.053   4.422   3.844
44942W        W 8875  39.415   6.853  11.929
44943W        W 8876  16.648  18.203   5.734
44944W        W 8877  23.734  14.267   0.340
44945W        W 8878  25.565   1.867   1.873
44946W        W 8879  41.354  19.101   4.831
44947W        W 8880  23.571   5.373   4.191
44948W        W 8881  27.158  38.855   4.707
44949W        W 8882  10.337  29.471  12.507
44950W        W 8883   0.310  22.534  12.467
44951W        W 8884  17.737  33.494  12.436
44952W        W 8885   1.245  40.476   2.236
44953W        W 8886  44.332  38.889  14.777
44954W        W 8887  21.634   2.783   2.337
44955W        W 8888  42.777   9.658  12.088
44956W        W 8889  43.282   7.791  13.802
44957W        W 8890  43.317  22.501   2.187
44958W        W 8891  21.071  17.676  14.970
44959W        W 8892  29.162  20.245  12.075
44960W        W 8893  38.028  40.049  11.496
44961W        W 8894  43.461  21.711   1.273
44962W        W 8895  12.201  20.091   3.843
44963W        W 8896   3.394  28.639  12.958
44964W        W 8897  27.161   9.743   5.637
44965W        W 8898  30.415  20.082   4.745
44966W        W 8899  15.789  10.289   4.142
44967W        W 8900  24.536  28.677  13.479
44968W        W 8901   6.338  26.114  11.070
44969W        W 8902   1.461   6.189  11.490
44970W        W 8903  26.002  17.239   2.234
44971W        W 8904  33.394  28.618  12.913
44972W        W 8905   0.919  13.281  10.499
44973W        W 8906  28.484  24.098   1.781
44974W        W 8907  36.956  10.859  12.039
44975W        W 8908  27.164   2.866   3.272
44976W        W 8909  18.140  29.460   1.334
44977W        W 8910  16.654   0.797   3.715
44978W        W 8911  15.653  10.744  10.488
44979W        W 8912  35.087   7.773   0.798
44980W        W 8913  13.637   9.248  14.426
44981W        W 8914  40.425  17.238  10.530
44982W        W 8915   1.901  21.678  10.938
44983W        W 8916   3.243  35.406   0.966
44984W        W 8917  24.664  24.599  11.946
44985W        W 8918   3.368  20.753   0.386
44986W        W 8919  12.262  21.537   3.655
44987W        W 8920   7.813  40.522   3.819
44988W        W 8921  32.419  29.585   2.323
44989W        W 8922  35.524   8.746   1.350
44990W        W 8923  37.557  35.494   4.220
44991W        W 8924  24.551   3.434   3.188
44992W        W 8925   2.399  15.233  13.425
44993W        W 8926  41.798  25.087   2.360
44994W        W 8927  15.138  31.544   2.300
44995W        W 8928  42.472  35.389   3.719
44996W        W 8929   7.306  11.343  12.401
44997W        W 8930  17.300  11.851   3.865
44998W        W 8931  23.726  37.338  10.478
44999W        W 8932  33.062  43.322   2.362
45000W        W 8933  21.527  18.293  11.860
45001W        W 8934   6.407   6.216  12.427
45002W        W 8935   4.736  20.564   4.229
45003W        W 8936  40.405   4.742  11.390
45004W        W 8937  41.412   5.696   1.826
45005W        W 8938  22.067  42.946  11.531
45006W        W 8939   5.255   8.189   2.760
45007W        W 8940  28.178  36.877  10.008
45008W        W 8941   3.400  27.194   0.821
45009W        W 8942  11.625  10.866   1.349
45010W        W 8943  34.937  13.131  10.521
45011W        W 8944  36.848   8.195  11.910
45012W        W 8945  30.147  38.038   4.605
45013W        W 8946   4.303  43.830   2.678
45014W        W 8947  44.328  34.094  14.402
45015W        W 8948  35.014  22.122  12.834
45016W        W 8949   1.871  26.628  13.986
45017W        W 8950   9.689   5.226   4.679
45018W        W 8951  33.111  25.188  13.478
45019W        W 8952   7.716  11.624  14.943
45020W        W 8953   5.392  21.119  12.532
45021W        W 8954  22.710   1.331  12.904
45022W        W 8955   4.226  27.158  11.445
45023W        W 8956  39.895  27.101   4.702
45024W        W 8957   5.348  30.973  14.889
45025W        W 8958  16.603  12.121   2.232
45026W        W 8959  44.395  36.047  14.440
45027W        W 8960  39.932  44.269  12.914
45028W        W 8961  21.194  43.310  10.452
45029W        W 8962  21.115  15.093  10.918
45030W        W 8963  20.186  35.077  11.917
45031W        W 8964  36.535  35.583  10.415
45032W        W 8965   4.800   3.886   3.318
45033W        W 8966   7.397   2.928  10.977
45034W        W 8967   3.347   6.412  13.521
45035W        W 8968  37.581  12.248   0.774
45036W        W 8969   0.818   7.240  12.538
45037W        W 8970  17.299  24.610  12.488
45038W        W 8971   3.719  42.524   2.395
45039W        W 8972  25.203  39.876  11.858
45040W        W 8973  29.444  35.538  13.864
45041W        W 8974  12.266  27.986   0.309
45042W        W 8975  15.321  10.804   1.238
45043W        W 8976  40.451   3.311  12.434
45044W        W 8977  29.509  13.744   4.348
45045W        W 8978   3.945  14.623  14.826
45046W        W 8979   6.355   0.862  10.024
45047W        W 8980  28.995  29.568   0.904
45048W        W 8981   4.257   7.907   4.289
45049W        W 8982  22.153  25.168  13.886
45050W        W 8983  16.794  14.742   4.302
45051W        W 8984   3.316  33.547  14.028
45052W        W 8985   2.293  30.041  11.591
45053W        W 8986  16.157  16.769   0.913
45054W        W 8987  34.605   6.768   1.411
45055W        W 8988  33.424  40.921   3.758
45056W        W 8989  18.287  40.887  12.927
45057W        W 8990  36.356  12.636  10.555
45058W        W 8991  29.560  27.127   4.139
45059W        W 8992  22.115   4.896  12.562
45060W        W 8993  15.116  26.103  14.853
45061W        W 8994  44.391  16.811   0.269
45062W        W 8995  35.594  23.165  14.882
45063W        W 8996   1.396  18.117  12.915
45064W        W 8997  27.943  33.509  13.795
45065W        W 8998  26.064  24.034  10.482
45066W        W 8999  38.910  23.155   9.922
45067W        W 9000  31.420   3.418   1.217
45068W        W 9001  17.080   1.971   0.424
45069W        W 9002  24.218   5.769   0.966
45070W        W 9003  14.725  13.303  13.921
45071W        W 9004  23.989  21.224  10.462
45072W        W 9005  21.644  33.560   0.399
45073W        W 9006  27.609  41.905  10.490
45074W        W 9007  28.951  25.476   4.119
45075W        W 9008  22.186  26.992  11.563
45076W        W 9009  39.917  22.052   0.760
45077W        W 9010  19.660  14.671  10.601
45078W        W 9011  34.435  44.356  11.607
45079W        W 9012  16.179   8.673  13.476
45080W        W 9013  35.038  10.255  12.038
45081W        W 9014   1.328   3.794   4.812
45082W        W 9015  39.329  22.520   1.260
45083W        W 9016  29.481  22.148  12.847
45084W        W 9017  23.661  39.026   0.882
45085W        W 9018  44.949  41.983   2.241
45086W        W 9019  33.448   9.342  11.100
45087W        W 9020   7.212  15.648   4.633
45088W        W 9021  27.482  33.547   4.724
45089W        W 9022  38.365  27.497  12.956
45090W        W 9023   4.416  15.225   1.894
45091W        W 9024  20.134  28.153  12.881
45092W        W 9025  37.468  32.916   3.771
45093W        W 9026  36.998   7.344  12.871
45094W        W 9027  26.690  37.525   1.325
45095W        W 9028  23.161  40.497  13.467
45096W        W 9029  11.854  20.722   2.825
45097W        W 9030   1.385  23.540  12.383
45098W        W 9031  31.147  36.013  12.373
45099W        W 9032  37.410   3.306   1.859
45100W        W 9033  10.292  44.332   9.956
45101W        W 9034  17.169   5.219   1.274
45102W        W 9035   5.222  40.429   4.647
45103W        W 9036  35.525  15.248  14.304
45104W        W 9037  40.334   5.245  12.349
45105W        W 9038  22.744  27.193   0.765
45106W        W 9039  17.307   1.470  14.504
45107W        W 9040  26.183  35.047   4.779
45108W        W 9041  39.848  37.340   3.229
45109W        W 9042  38.903  37.907   2.188
45110W        W 9043  39.886  17.260  12.018
45111W        W 9044  26.594  29.019  14.441
45112W        W 9045  19.636  44.883  10.495
45113W        W 9046  31.104  19.082  14.834
45114W        W 9047   2.368  19.185   1.300
45115W        W 9048   4.914  16.773   1.231
45116W        W 9049  33.995  29.433   1.436
45117W        W 9050  13.254  10.320  10.592
45118W        W 9051  22.157  38.963  14.381
45119W        W 9052  33.567   1.400  12.932
45120W        W 9053  24.661  39.455  13.887
45121W        W 9054  39.027  30.638   1.369
45122W        W 9055  28.645   7.665   0.935
45123W        W 9056  37.977  18.712  13.942
45124W        W 9057   9.830   2.465  13.342
45125W        W 9058  25.703   5.925   2.725
45126W        W 9059  20.712   8.352  13.328
45127W        W 9060  35.505   4.285  11.502
45128W        W 9061  35.066   4.326   4.603
45129W        W 9062  31.565   9.890   4.274
45130W        W 9063   1.330  21.193  12.879
45131W        W 9064  30.646   5.900  11.033
45132W        W 9065  12.631  19.127  14.457
45133W        W 9066   4.445   0.897   2.663
45134W        W 9067  19.573  44.469  12.996
45135W        W 9068  24.006   6.354  14.338
45136W        W 9069  28.026   8.322   3.347
45137W        W 9070   3.833  13.110   0.882
45138W        W 9071  29.943   0.351  12.483
45139W        W 9072  25.167  36.445  13.998
45140W        W 9073   7.717  41.434   0.415
45141W        W 9074  28.135  39.846  13.538
45142W        W 9075  32.493  21.096  14.822
45143W        W 9076  30.048   9.225  13.914
45144W        W 9077  44.293  44.304   9.937
45145W        W 9078  25.475   4.779   0.296
45146W        W 9079  36.037   2.798  10.462
45147W        W 9080  18.228   8.323   4.139
45148W        W 9081  19.725   7.786  12.481
45149W        W 9082   3.836   4.701  12.056
45150W        W 9083  30.579  26.034  14.977
45151W        W 9084  37.552  24.982  12.350
45152W        W 9085  43.791  41.524  13.500
45153W        W 9086  34.038  39.905   1.352
45154W        W 9087  24.659  19.586   1.771
45155W        W 9088  38.067  11.749   3.709
45156W        W 9089   5.906  28.065   0.866
45157W        W 9090  31.149  18.678   2.238
45158W        W 9091   7.333  38.399   0.295
45159W        W 9092  36.458  24.981   4.225
45160W        W 9093   9.701  44.759   2.276
45161W        W 9094  41.415   0.277  14.492
45162W        W 9095  36.578  30.983   1.840
45163W        W 9096  43.403  32.004   4.256
45164W        W 9097  22.538  36.354   0.316
45165W        W 9098  41.958  27.124  13.903
45166W        W 9099  35.412  36.387  14.373
45167W        W 9100  15.241  44.411  12.834
45168W        W 9101  43.348  31.496   2.872
45169W        W 9102  21.102  26.609  14.832
45170W        W 9103  10.797  44.441   0.907
45171W        W 9104  21.714   5.336   3.219
45172W        W 9105  37.472  34.506   4.769
45173W        W 9106   8.217  22.123   1.849
45174W        W 9107  35.537  41.901  12.488
45175W        W 9108  33.115  38.568   0.874
45176W        W 9109  12.347  40.382  13.439
45177W        W 9110   6.730   1.802   3.653
45178W        W 9111  40.489  25.005  12.578
45179W        W 9112  11.293  40.470  13.957
45180W        W 9113   2.251  26.649  12.475
45181W        W 9114  28.980   2.762   3.173
45182W        W 9115  16.666   7.278   4.286
45183W        W 9116  12.842  19.225   0.948
45184W        W 9117   8.347  23.571   3.807
45185W        W 9118   4.757  17.100  13.937
45186W        W 9119  14.816  21.543   2.386
45187W        W 9120  14.635  38.940   2.703
45188W        W 9121  34.981  10.383  12.445
45189W        W 9122  10.317  10.768  11.559
45190W        W 9123  23.597  19.171   2.719
45191W        W 9124  41.479   6.904  12.004
45192W        W 9125  20.682  13.211  14.297
45193W        W 9126  42.825  10.699  10.505
45194W        W 9127  39.473   8.686   4.713
45195W        W 9128  17.606  40.859   9.956
45196W        W 9129   0.461  34.868   0.480
45197W        W 9130   1.271  28.490  10.946
45198W        W 9131  42.834  26.133  12.873
45199W        W 9132   0.297  13.314  10.492
45200W        W 9133  38.831  34.112   3.248
45201W        W 9134   0.450   0.366   1.884
45202W        W 9135  38.488  44.815   1.335
45203W        W 9136  21.650  17.220   0.374
45204W        W 9137  20.665  40.924   0.950
45205W        W 9138  34.590  21.542   2.785
45206W        W 9139  44.939   7.317   4.630
45207W        W 9140  10.711  32.611  13.964
45208W        W 9141   0.846   0.975   4.184
45209W        W 9142  13.616  11.696  13.952
45210W        W 9143  35.499  28.548  10.426
45211W        W 9144  10.308  10.798   2.220
45212W        W 9145   2.255  29.589  13.392
45213W        W 9146  24.663  13.314  13.993
45214W        W 9147   7.789  22.528   0.800
45215W        W 9148  16.238  21.131  13.323
45216W        W 9149  42.828  16.721  10.486
45217W        W 9150  14.101  20.193   0.323
45218W        W 9151  40.502   8.279   0.363
45219W        W 9152  32.563  16.095  13.376
45220W        W 9153  30.979  14.113  12.412
45221W        W 9154  39.369   9.231   3.842
45222W        W 9155  38.936   5.690  12.993
45223W        W 9156  39.986  13.616   3.709
45224W        W 9157  43.507  36.511   3.695
45225W        W 9158   7.879   7.757   1.362
45226W        W 9159   9.365  23.611   2.717
45227W        W 9160  18.234   5.700  12.549
45228W        W 9161   5.779  15.768   0.795
45229W        W 9162  28.634  31.035  12.084
45230W        W 9163   6.333  28.108   4.739
45231W        W 9164   5.268   0.398   1.281
45232W        W 9165  26.654  29.162   1.755
45233W        W 9166   8.394  27.008  10.638
45234W        W 9167  34.605  18.099  12.521
45235W        W 9168  24.122  17.783   0.746
45236W        W 9169  33.551  40.533   2.742
45237W        W 9170   9.221  30.654  13.482
45238W        W 9171  30.463  43.980  14.409
45239W        W 9172  11.815   7.345   1.821
45240W        W 9173  42.344   9.800  13.922
45241W        W 9174  21.043  29.441   4.231
45242W        W 9175  41.861  36.884   0.804
45243W        W 9176  42.943  44.342  12.404
45244W        W 9177  20.207  34.108  11.874
45245W        W 9178  41.965  25.618   1.246
45246W        W 9179   4.887  30.656  13.018
45247W        W 9180  36.061  40.486   4.753
45248W        W 9181   3.422  13.325  14.953
45249W        W 9182  11.780  36.535   3.362
45250W        W 9183  25.068  40.497   4.625
45251W        W 9184  27.585  37.406   4.150
45252W        W 9185  37.386  15.307   4.638
45253W        W 9186  25.126  28.569  11.582
45254W        W 9187  12.262  22.030  13.453
45255W        W 9188  40.399  14.609  10.637
45256W        W 9189   6.820  30.540   3.324
45257W        W 9190   8.304  35.078  10.919
45258W        W 9191  35.381  16.275   1.802
45259W        W 9192   0.385  28.165   2.802
45260W        W 9193  15.671  30.044  13.443
45261W        W 9194  30.592  37.027  10.622
45262W        W 9195   6.896  15.748   4.289
45263W        W 9196  32.082  20.544   3.679
45264W        W 9197  19.740  38.014  12.339
45265W        W 9198  19.621  33.910   3.717
45266W        W 9199  19.586  37.844   3.254
45267W        W 9200  35.436  20.585  14.877
45268W        W 9201  19.640   5.809  12.073
45269W        W 9202  29.934  28.442   1.388
45270W        W 9203   2.352   8.290  13.523
45271W        W 9204  26.638  13.690  10.541
45272W        W 9205   4.861  17.148   1.759
45273W        W 9206  16.574  19.200  11.521
45274W        W 9207   5.763  37.016   2.849
45275W        W 9208  34.973  12.192  13.320
45276W        W 9209  42.941   8.733   9.923
45277W        W 9210  33.587   8.258   0.943
45278W        W 9211  10.150  36.030  12.521
45279W        W 9212  43.329  42.351  13.014
45280W        W 9213   0.351  41.926  11.551
45281W        W 9214  12.621  37.998   0.790
45282W        W 9215   9.280  16.245  11.593
45283W        W 9216  28.966  26.999  12.495
45284W        W 9217  30.649  34.119  11.383
45285W        W 9218  18.107  10.851   2.293
45286W        W 9219  32.984  44.436   0.927
45287W        W 9220   7.189  34.419   1.721
45288W        W 9221  31.544  36.393  12.845
45289W        W 9222  31.005   5.842   4.626
45290W        W 9223  28.451  16.574   3.762
45291W        W 9224  20.058  35.554  14.466
45292W        W 9225   3.372  23.542   3.311
45293W        W 9226  17.195  14.771   3.857
45294W        W 9227  44.408  26.024  10.466
45295W        W 9228  24.540  30.134   0.318
45296W        W 9229  25.523  29.045   1.919
45297W        W 9230  22.194  10.340  12.384
45298W        W 9231  24.608  29.539   2.308
45299W        W 9232   7.379  15.315  13.497
45300W        W 9233  10.763  20.139   1.758
45301W        W 9234  19.633  42.395   2.339
45302W        W 9235  28.645   6.290   3.750
45303W        W 9236  44.007  32.633   0.892
45304W        W 9237  12.783  20.143  11.074
45305W        W 9238   7.900  35.921  13.939
45306W        W 9239  29.105  28.007   1.855
45307W        W 9240  33.016  32.405   1.826
45308W        W 9241  26.694  40.885  14.305
45309W        W 9242  36.374  37.503  10.466
45310W        W 9243  38.376   0.323  12.402
45311W        W 9244  44.301  16.731  14.851
45312W        W 9245   0.787   2.377   0.284
45313W        W 9246  33.606  25.029   2.348
45314W        W 9247  14.801  33.573   4.620
45315W        W 9248  44.269  10.258   3.321
45316W        W 9249  36.482  24.498   3.302
45317W        W 9250  44.289  11.666  11.910
45318W        W 9251  33.625  12.855  11.893
45319W        W 9252  44.304  11.339   1.748
45320W        W 9253   7.286  32.420   1.801
45321W        W 9254  18.171  16.659  10.494
45322W        W 9255  36.563   5.291   4.668
45323W        W 9256  18.640  25.603  13.334
45324W        W 9257  33.931   8.657  13.489
45325W        W 9258  30.618   9.375  14.781
45326W        W 9259  11.168  39.421  10.555
45327W        W 9260  27.487  43.366  13.876
45328W        W 9261   2.357  19.192   4.648
45329W        W 9262   0.305  15.123  13.834
45330W        W 9263  27.548  39.413   0.244
45331W        W 9264  12.352   0.474   4.250
45332W        W 9265  26.183  40.984  10.942
45333W        W 9266  25.038   9.723   3.817
45334W        W 9267  30.150  39.037   0.343
45335W        W 9268   5.710   6.714   4.837
45336W        W 9269  42.917  21.232   1.308
45337W        W 9270  14.613  43.501   0.245
45338W        W 9271  37.543  23.153   2.716
45339W        W 9272  34.933   6.831  14.987
45340W        W 9273  10.208  39.477   3.314
45341W        W 9274  12.330  24.680   1.406
45342W        W 9275  34.061  14.595   1.927
45343W        W 9276  30.507  40.500   4.152
45344W        W 9277  36.513   2.288   3.270
45345W        W 9278  43.825  42.408   1.253
45346W        W 9279  16.258  39.421   0.884
45347W        W 9280  23.192  25.534  14.951
45348W        W 9281  22.029   3.347   0.429
45349W        W 9282  15.141  40.505  10.974
45350W        W 9283  15.195  18.092   0.968
45351W        W 9284  20.647  22.702  10.891
45352W        W 9285  10.284  30.567  12.455
45353W        W 9286  14.257  30.549   0.443
45354W        W 9287  44.993  23.023   0.885
45355W        W 9288  23.104  29.480  11.071
45356W        W 9289  18.126  32.131  11.857
45357W        W 9290  21.693  44.388  10.547
45358W        W 9291  14.661  39.954   1.278
45359W        W 9292  43.378  23.650  10.990
45360W        W 9293   0.794  17.180  11.955
45361W        W 9294   6.724  21.571  12.560
45362W        W 9295  27.179  18.217  14.317
45363W        W 9296  28.981   3.422   0.785
45364W        W 9297  24.197  25.159  11.005
45365W        W 9298  10.363  21.229  12.554
45366W        W 9299  33.025  31.524  13.480
45367W        W 9300  29.986  12.716   3.739
45368W        W 9301   1.747  16.789   0.264
45369W        W 9302   0.322  33.100  12.530
45370W        W 9303  10.857  19.100   0.793
45371W        W 9304  14.148  25.591  13.886
45372W        W 9305  34.967  20.197  14.885
45373W        W 9306  25.530  21.747  13.480
45374W        W 9307  35.582  29.522  10.629
45375W        W 9308  41.401  44.439   2.814
45376W        W 9309   1.441  18.766  12.028
45377W        W 9310   2.428   0.908   2.693
45378W        W 9311   6.920  40.329  13.328
45379W        W 9312   5.407  38.003   0.298
45380W        W 9313  44.869  11.205  10.513
45381W        W 9314  37.534  23.123   3.256
45382W        W 9315  30.129  12.288  10.532
45383W        W 9316   2.297  16.596   4.308
45384W        W 9317  25.995  13.255  12.371
45385W        W 9318  17.159   4.273  13.858
45386W        W 9319   7.184  34.036   4.289
45387W        W 9320   5.831  18.620   0.939
45388W        W 9321  13.753   5.243   1.846
45389W        W 9322  35.530  12.247  11.069
45390W        W 9323  40.420  26.548   2.740
45391W        W 9324  42.419  17.570  10.428
45392W        W 9325  27.033  16.780   1.432
45393W        W 9326  31.529  32.546  13.008
45394W        W 9327   4.292  27.058   1.366
45395W        W 9328  39.053  13.733  13.865
45396W        W 9329  11.656   4.438  14.410
45397W        W 9330  23.633  38.551   4.790
45398W        W 9331  11.854   8.374  13.458
45399W        W 9332  44.463  36.849  11.895
45400W        W 9333   0.352  13.751   0.781
45401W        W 9334  43.400  19.595   0.899
45402W        W 9335   2.455  27.105  13.517
45403W        W 9336  32.118   5.924  11.544
45404W        W 9337  30.943  34.604  12.077
45405W        W 9338  34.074  28.112   4.727
45406W        W 9339   0.910  13.689  12.543
45407W        W 9340  23.504   7.309  13.333
45408W        W 9341   2.361  35.914  11.863
45409W        W 9342  20.585  28.595   1.443
45410W        W 9343   1.275   8.797  10.464
45411W        W 9344  31.978   6.407  13.468
45412W        W 9345  10.754  31.485   4.206
45413W        W 9346  23.532  14.168   0.752
45414W        W 9347  39.859  31.528   4.810
45415W        W 9348  18.286  20.266   4.331
45416W        W 9349  22.139   6.856   2.750
45417W        W 9350  43.472  43.992  12.029
45418W        W 9351  39.851  17.191  13.937
45419W        W 9352  34.522  16.696   4.657
45420W        W 9353  30.510  20.253   1.931
45421W        W 9354  44.472  14.590  13.460
45422W        W 9355  44.454  14.154  12.091
45423W        W 9356   0.925  27.985  10.932
45424W        W 9357  22.561  12.660   2.303
45425W        W 9358  33.021  30.442   3.816
45426W        W 9359   3.757  39.026  13.029
45427W        W 9360  28.181  37.830  14.805
45428W        W 9361  12.854   2.366   2.713
45429W        W 9362  24.631  10.273  14.383
45430W        W 9363  23.503  17.061  13.854
45431W        W 9364  11.328   2.351  13.502
45432W        W 9365  14.219  42.024   4.134
45433W        W 9366  14.218   5.262  10.629
45434W        W 9367  31.491  38.911  13.428
45435W        W 9368   3.350  16.116  11.542
45436W        W 9369   8.669  30.925  12.462
45437W        W 9370  24.486  44.333   9.523
45438W        W 9371  37.958  23.153   2.706
45439W        W 9372  16.293  10.820  13.932
45440W        W 9373  29.550  34.890   1.846
45441W        W 9374  35.481  13.346  12.443
45442W        W 9375  29.519  32.606   2.407
45443W        W 9376  19.551  20.590   0.466
45444W        W 9377   1.238  11.357   2.246
45445W        W 9378  27.666  24.998  14.986
45446W        W 9379  17.770  26.964  12.870
45447W        W 9380  21.597  40.357  12.093
45448W        W 9381   5.283  19.730   0.351
45449W        W 9382  27.559  36.033  11.094
45450W        W 9383   0.355  32.598  10.613
45451W        W 9384  15.725  41.852  12.051
45452W        W 9385  21.243   9.161  14.297
45453W        W 9386  28.468   7.216  13.813
45454W        W 9387  39.833  30.927   1.269
45455W        W 9388  20.185   7.666   2.673
45456W        W 9389  30.548  28.672  14.458
45457W        W 9390  17.744  32.913   0.425
45458W        W 9391  27.582   9.688  14.954
45459W        W 9392   8.160  31.973   4.692
45460W        W 9393  23.638   4.332  11.977
45461W        W 9394  21.634  21.652   1.288
45462W        W 9395   6.862  10.214  11.509
45463W        W 9396   9.815   1.863   3.353
45464W        W 9397  11.209  30.483   1.378
45465W        W 9398  10.675  34.959   2.321
45466W        W 9399  26.636   4.265  10.990
45467W        W 9400  41.536  37.972   1.844
45468W        W 9401   5.712  34.111   0.763
45469W        W 9402  38.943  36.587   1.837
45470W        W 9403  24.996  23.218   2.799
45471W        W 9404  31.910  21.644  12.955
45472W        W 9405  38.492   9.178  12.924
45473W        W 9406  13.627   3.938  14.929
45474W        W 9407  18.077  43.818   4.602
45475W        W 9408  39.813   3.893  14.471
45476W        W 9409  11.739  29.928  11.119
45477W        W 9410  39.010  44.006   0.477
45478W        W 9411  30.462  10.637  12.829
45479W        W 9412  20.150   6.762  14.019
45480W        W 9413  10.201  26.962  10.942
45481W        W 9414  44.384   7.789   1.895
45482W        W 9415  10.697  33.893  14.929
45483W        W 9416  30.607  23.595  14.515
45484W        W 9417  27.025  29.030  14.790
45485W        W 9418  29.008  21.181   1.265
45486W        W 9419  24.502   6.719  13.517
45487W        W 9420  16.147   5.247   2.716
45488W        W 9421  38.400  41.964   3.849
45489W        W 9422   5.260   7.845   1.353
45490W        W 9423  15.279  25.519   1.239
45491W        W 9424  27.961   2.930  12.088
45492W        W 9425  43.786  15.088  12.902
45493W        W 9426   1.403  26.073  11.533
45494W        W 9427  21.262   9.692  11.085
45495W        W 9428  35.006   9.307  12.491
45496W        W 9429  22.642   9.819   0.450
45497W        W 9430  15.763   0.435   0.956
45498W        W 9431   8.401  38.955   1.219
45499W        W 9432   1.304  35.543   4.194
45500W        W 9433  22.624  43.376   0.462
45501W        W 9434  16.175  24.571  12.861
45502W        W 9435   4.377   6.212   2.419
45503W        W 9436  17.754  38.020  11.489
45504W        W 9437  16.804  20.562  13.389
45505W        W 9438   4.828  41.427   5.184
45506W        W 9439   8.879   2.823  14.456
45507W        W 9440   3.343  19.710   3.806
45508W        W 9441  17.228  42.828  10.600
45509W        W 9442   9.783   9.152  12.352
45510W        W 9443  15.188   7.866  14.392
45511W        W 9444  18.187  10.320   4.176
45512W        W 9445  30.538  30.532   1.732
45513W        W 9446  30.909  40.461   3.743
45514W        W 9447  36.886  16.576   1.269
45515W        W 9448   5.318   7.230   3.827
45516W        W 9449  15.609  27.686  11.465
45517W        W 9450  24.489  38.551   4.250
45518W        W 9451  32.101   1.887   2.718
45519W        W 9452   4.346  44.789  13.495
45520W        W 9453  26.627  13.230  14.988
45521W        W 9454  12.724  29.574  13.352
45522W        W 9455  44.939  19.766  10.541
45523W        W 9456  21.119  25.588   1.746
45524W        W 9457   0.434  21.659  13.519
45525W        W 9458  44.826  12.329  12.348
45526W        W 9459  34.495  42.990  13.481
45527W        W 9460  36.590  34.577   4.770
45528W        W 9461  24.513   0.966   0.458
45529W        W 9462  11.195  37.523  12.436
45530W        W 9463   1.371   7.811   1.883
45531W        W 9464   0.376  31.629  11.999
45532W        W 9465   5.900  33.043   3.694
45533W        W 9466   6.728  33.490  13.876
45534W        W 9467   9.887  13.150  10.500
45535W        W 9468  20.063  13.247   2.381
45536W        W 9469   4.919   4.853  10.076
45537W        W 9470   2.816  15.210   4.691
45538W        W 9471   7.679  10.225  11.517
45539W        W 9472  39.938  34.546   1.906
45540W        W 9473  29.000  27.507  12.064
45541W        W 9474   6.271   5.777  11.512
45542W        W 9475  38.884  38.376  13.006
45543W        W 9476  31.643  34.113   3.211
45544W        W 9477  20.218   9.293   0.457
45545W        W 9478   2.939  33.407  12.023
45546W        W 9479   5.230  17.689  13.918
45547W        W 9480  40.969  18.671  12.535
45548W        W 9481  40.978   7.210  12.366
45549W        W 9482  29.661   0.900  12.032
45550W        W 9483  31.602  36.363   4.181
45551W        W 9484  10.214   0.971   0.832
45552W        W 9485  33.522   3.806  12.555
45553W        W 9486  39.444  40.369   4.647
45554W        W 9487  38.436  44.914  10.437
45555W        W 9488  30.503  14.781  12.500
45556W        W 9489  22.662  36.402  10.568
45557W        W 9490   4.910  39.405   4.299
45558W        W 9491   9.862   8.724  12.370
45559W        W 9492  24.545  14.203  12.525
45560W        W 9493  25.105  40.915   1.274
45561W        W 9494   5.775  41.404  11.012
45562W        W 9495  16.761   1.285   4.747
45563W        W 9496  39.518  30.102   3.329
45564W        W 9497  23.189  44.972   2.270
45565W        W 9498   5.824  14.778  11.105
45566W        W 9499  37.981   1.300  11.998
45567W        W 9500  35.872   7.874  14.797
45568W        W 9501  24.973  13.147   1.826
45569W        W 9502   6.768  31.621   1.243
45570W        W 9503  12.748   4.869  13.372
45571W        W 9504  40.047  42.874  11.592
45572W        W 9505  30.036  22.600  14.347
45573W        W 9506   8.251  41.850   1.231
45574W        W 9507   5.199   8.325  12.894
45575W        W 9508  40.448  42.805   0.814
45576W        W 9509  21.128  39.925   4.144
45577W        W 9510  27.661  41.341   2.188
45578W        W 9511  30.445  43.403   4.236
45579W        W 9512   5.276   7.172   4.274
45580W        W 9513  28.985  19.652  13.001
45581W        W 9514   2.367   9.194   4.680
45582W        W 9515  25.964  22.087  12.834
45583W        W 9516   2.749  11.655  13.860
45584W        W 9517  21.721  21.033   3.841
45585W        W 9518  16.752  16.672   2.200
45586W        W 9519   3.792  30.116  13.481
45587W        W 9520  24.000  14.615  14.509
45588W        W 9521  27.560  26.589   3.296
45589W        W 9522   6.708  40.381  11.592
45590W        W 9523   6.858  21.223   3.732
45591W        W 9524   8.334  29.175   0.247
45592W        W 9525  37.378  44.505   5.279
45593W        W 9526  21.183  19.054   4.247
45594W        W 9527  26.692  36.371   2.876
45595W        W 9528  28.048   2.900  11.570
45596W        W 9529   4.777  23.167   3.792
45597W        W 9530  22.639   8.294  12.827
45598W        W 9531  17.796  29.969  11.927
45599W        W 9532  27.611   9.832  12.999
45600W        W 9533  31.633   5.204  13.501
45601W        W 9534  24.205  26.192   4.804
45602W        W 9535  27.048   3.753   0.757
45603W        W 9536  13.168  34.890   3.370
45604W        W 9537  31.995  37.576   4.231
45605W        W 9538   6.327  19.668  11.965
45606W        W 9539  44.419  41.980   4.810
45607W        W 9540  40.971  39.838  11.533
45608W        W 9541  27.124  15.151  11.585
45609W        W 9542  27.668   9.327   1.731
45610W        W 9543  37.910   1.823   9.931
45611W        W 9544  10.692  33.542   1.880
45612W        W 9545  15.298  42.444   3.380
45613W        W 9546  10.173  16.586  11.981
45614W        W 9547  18.147   5.857   4.183
45615W        W 9548  21.065   3.749  10.623
45616W        W 9549  40.905  17.626   1.901
45617W        W 9550   8.308  10.163  14.447
45618W        W 9551  17.789  16.569   1.250
45619W        W 9552  24.166   1.402  11.914
45620W        W 9553  24.145  27.017  13.872
45621W        W 9554  41.311   3.292   4.230
45622W        W 9555  42.892  13.786   3.256
45623W        W 9556  42.311  33.054  10.563
45624W        W 9557   9.291  34.551  11.575
45625W        W 9558  36.039  40.473  12.012
45626W        W 9559  27.996  15.305   4.626
45627W        W 9560  13.700  24.530   3.154
45628W        W 9561  21.716  18.763   1.878
45629W        W 9562  16.583  29.598  12.413
45630W        W 9563   0.339  40.819   2.729
45631W        W 9564   6.828   3.353   1.318
45632W        W 9565  38.342  24.053   2.233
45633W        W 9566  32.078  22.006  11.915
45634W        W 9567  24.557  20.037   2.256
45635W        W 9568  41.293  41.849  11.983
45636W        W 9569   4.935   2.901   2.272
45637W        W 9570  29.641  20.071  12.040
45638W        W 9571   3.229  30.986   4.670
45639W        W 9572  44.357  42.846   4.288
45640W        W 9573   2.375  11.724   5.196
45641W        W 9574  40.426  14.815  11.579
45642W        W 9575  38.031   8.770   1.246
45643W        W 9576   6.827  36.564  12.405
45644W        W 9577  16.085  23.585   3.147
45645W        W 9578  13.232   0.429   1.409
45646W        W 9579  43.354  23.064  10.921
45647W        W 9580   0.490  18.127   3.229
45648W        W 9581  21.171  36.475   0.423
45649W        W 9582   0.872  17.631   2.808
45650W        W 9583  27.164  11.171   1.289
45651W        W 9584  39.359   0.815   2.713
45652W        W 9585  33.413  31.904  10.948
45653W        W 9586   4.876  44.974  14.345
45654W        W 9587  40.520  41.806   2.814
45655W        W 9588  35.599  20.677  12.886
45656W        W 9589  34.941  20.729   0.472
45657W        W 9590  25.678   2.268  13.972
45658W        W 9591   1.438  34.907   2.322
45659W        W 9592  19.255  27.509   0.303
45660W        W 9593  35.906  39.492  14.862
45661W        W 9594  31.998  11.154   1.311
45662W        W 9595  24.003  24.724   3.788
45663W        W 9596  12.823  29.531   2.795
45664W        W 9597  23.086  28.656  14.025
45665W        W 9598  26.045  43.513   2.304
45666W        W 9599   5.911  10.649  11.588
45667W        W 9600  16.573  43.481  14.442
45668W        W 9601  35.364   3.897   3.715
45669W        W 9602  28.951  22.152  11.975
45670W        W 9603  18.087  41.042   2.887
45671W        W 9604  32.991  27.652  11.085
45672W        W 9605  36.062  16.285   3.285
45673W        W 9606  12.276  24.618   3.746
45674W        W 9607  15.154  36.980   5.219
45675W        W 9608  13.192  39.947  14.987
45676W        W 9609  40.938  24.079   0.899
45677W        W 9610  43.890  37.384  14.867
45678W        W 9611  43.506   0.816  14.874
45679W        W 9612  39.017  41.028  14.992
45680W        W 9613  35.377  19.628   3.355
45681W        W 9614  15.786  24.720  14.287
45682W        W 9615  43.858  41.994  14.955
45683W        W 9616  31.475   5.357  12.407
45684W        W 9617  38.827  19.604   2.402
45685W        W 9618  44.787  41.432   3.164
45686W        W 9619  28.525  44.271   1.212
45687W        W 9620  17.148  28.626   1.373
45688W        W 9621   5.355  39.523  12.344
45689W        W 9622  15.696  23.558  13.018
45690W        W 9623  23.670  12.665   1.890
45691W        W 9624  30.512  21.137  11.998
45692W        W 9625   7.772   2.878   2.269
45693W        W 9626   9.377  28.466  10.478
45694W        W 9627  26.022  39.350   3.797
45695W        W 9628  29.990  24.216   0.415
45696W        W 9629  22.666  40.897  13.310
45697W        W 9630  33.009  30.089   4.643
45698W        W 9631  17.729  17.700  14.346
45699W        W 9632  16.679  23.035   2.234
45700W        W 9633  44.304   7.203   1.930
45701W        W 9634   9.322  28.975   0.466
45702W        W 9635   0.359  22.018  14.011
45703W        W 9636  37.057   1.320  12.410
45704W        W 9637   2.753  30.529   0.353
45705W        W 9638   9.663  29.538   2.313
45706W        W 9639  21.732  16.253  11.023
45707W        W 9640  31.549  30.454  14.009
45708W        W 9641  13.279  31.084   4.236
45709W        W 9642   8.266  30.088   3.353
45710W        W 9643  32.046   7.820   3.815
45711W        W 9644  15.706  28.051  12.938
45712W        W 9645  24.172   9.681   2.366
45713W        W 9646   0.328   1.384   1.305
45714W        W 9647  24.980   9.646  10.463
45715W        W 9648  16.221  29.509   1.266
45716W        W 9649  38.028   4.728   4.306
45717W        W 9650   9.812  34.559  10.972
45718W        W 9651  12.837  35.074   4.266
45719W        W 9652  28.475  23.719   1.895
45720W        W 9653   9.163   2.936  12.830
45721W        W 9654  27.503  26.954   3.277
45722W        W 9655  26.186   2.238  11.024
45723W        W 9656  36.044  44.902   4.291
45724W        W 9657   5.755  37.361  13.423
45725W        W 9658  35.980  19.564  13.409
45726W        W 9659  10.182  11.158   0.325
45727W        W 9660  29.522  14.304   5.143
45728W        W 9661  18.225   9.763  14.506
45729W        W 9662   3.758  12.147   5.588
45730W        W 9663  22.515  19.724   0.886
45731W        W 9664  37.353   4.430   4.240
45732W        W 9665  37.064  12.248   0.298
45733W        W 9666  31.567  25.018   4.221
45734W        W 9667   7.875  41.868   2.358
45735W        W 9668  31.060   7.336   1.801
45736W        W 9669  18.143  10.200   2.218
45737W        W 9670  10.269  17.188  14.928
45738W        W 9671   4.250  18.747  10.533
45739W        W 9672  43.998  33.047   0.744
45740W        W 9673  40.018  21.690  14.415
45741W        W 9674   0.316  14.611   3.740
45742W        W 9675  29.459   0.406   0.863
45743W        W 9676  37.366  27.558  14.346
45744W        W 9677  32.543  39.024   1.853
45745W        W 9678  26.678  26.071  10.420
45746W        W 9679  41.836  32.943  12.033
45747W        W 9680  44.917   3.344   0.750
45748W        W 9681  38.022  26.975  14.842
45749W        W 9682   9.880   9.654  12.023
45750W        W 9683   3.798   7.715  11.988
45751W        W 9684  31.551   2.918  11.447
45752W        W 9685   6.300  44.818  12.454
45753W        W 9686   7.335  34.525  11.089
45754W        W 9687  40.997   0.874  13.323
45755W        W 9688  18.119  21.570   3.268
45756W        W 9689  19.105   5.290  12.383
45757W        W 9690  17.728  13.255  11.435
45758W        W 9691  32.007  36.962   3.814
45759W        W 9692  24.126  18.581   1.222
45760W        W 9693   6.906  36.487   0.298
45761W        W 9694   8.370  20.197  12.353
45762W        W 9695  18.787  24.222  14.867
45763W        W 9696   7.391   5.359  10.979
45764W        W 9697  32.496  29.967   3.653
45765W        W 9698  29.142  21.571  11.471
45766W        W 9699  43.412  34.963   4.124
45767W        W 9700  25.671  15.118   0.411
45768W        W 9701  40.025  27.535  10.932
45769W        W 9702  40.371  29.152   3.350
45770W        W 9703  14.613  44.399  10.891
45771W        W 9704   7.693  13.245  12.564
45772W        W 9705   2.871  30.510   2.354
45773W        W 9706  27.076   5.733   2.711
45774W        W 9707  35.018  16.584   0.371
45775W        W 9708  31.977  42.922  11.093
45776W        W 9709  22.655  44.909  11.377
45777W        W 9710  24.155  15.099  11.012
45778W        W 9711   1.396  40.427  13.419
45779W        W 9712   5.265   5.278   2.283
45780W        W 9713  37.364   7.401  11.450
45781W        W 9714  27.680  22.237  11.947
45782W        W 9715  15.601  32.043  11.532
45783W        W 9716   3.438  13.699   0.780
45784W        W 9717  28.152  39.329   3.822
45785W        W 9718  14.750   5.300  14.784
45786W        W 9719  21.127  44.871   0.841
45787W        W 9720  29.100  11.135  12.877
45788W        W 9721  37.888  38.417   4.213
45789W        W 9722  16.765   3.717   3.632
45790W        W 9723  15.295  41.001  14.774
45791W        W 9724  13.617   5.823   2.713
45792W        W 9725  40.461  32.464  12.405
45793W        W 9726  38.053   5.705  12.996
45794W        W 9727  16.302  23.192  10.458
45795W        W 9728  39.333  36.349   1.869
45796W        W 9729  26.592   2.375  12.084
45797W        W 9730  23.729  41.368  13.435
45798W        W 9731  19.701  13.202   3.847
45799W        W 9732   0.440  23.143  11.533
45800W        W 9733  26.499  26.029  11.412
45801W        W 9734  10.864  42.028   3.721
45802W        W 9735   2.753  11.314  12.051
45803W        W 9736  15.183  35.533  14.866
45804W        W 9737  44.892   8.364   3.266
45805W        W 9738  25.968  21.734  13.414
45806W        W 9739   8.785  35.459   0.440
45807W        W 9740   4.879  33.453   1.900
45808W        W 9741  11.329   8.272   0.315
45809W        W 9742  13.207   6.215   2.264
45810W        W 9743  22.527  12.324   2.214
45811W        W 9744   2.902   8.172  11.031
45812W        W 9745  39.504  44.876   3.774
45813W        W 9746  29.470   7.321  14.277
45814W        W 9747  15.727   0.334   2.406
45815W        W 9748  42.857  41.390   3.333
45816W        W 9749  30.571  37.478   4.132
45817W        W 9750  20.698  43.319  11.099
45818W        W 9751  37.995  26.116  13.427
45819W        W 9752  33.528   8.188   3.258
45820W        W 9753  21.603   9.173   1.926
45821W        W 9754  35.054  29.486   2.667
45822W        W 9755   9.761   4.857   4.198
45823W        W 9756  17.582   3.244   4.301
45824W        W 9757   1.474  12.740  11.900
45825W        W 9758  16.787  27.628   0.941
45826W        W 9759  11.641   4.429   4.724
45827W        W 9760   1.329  42.942  12.429
45828W        W 9761  37.569  33.445  12.853
45829W        W 9762   9.208  16.093   0.403
45830W        W 9763  35.102   3.422   0.885
45831W        W 9764  23.553  42.781  10.619
45832W        W 9765  29.141  43.466   5.734
45833W        W 9766  43.314  28.030   9.945
45834W        W 9767  15.749  32.417   0.419
45835W        W 9768  37.899  21.026   2.865
45836W        W 9769  33.055   4.876   4.311
45837W        W 9770  39.818   7.304   1.894
45838W        W 9771   3.805  18.697   3.380
45839W        W 9772  38.867  21.743  14.446
45840W        W 9773  10.859  40.813   3.785
45841W        W 9774  32.921   2.755  11.882
45842W        W 9775  12.718   0.452  13.354
45843W        W 9776  40.435  40.804   1.925
45844W        W 9777  18.577  13.743  13.473
45845W        W 9778  11.706  39.453   2.754
45846W        W 9779   1.964  38.510   3.295
45847W        W 9780  31.576  35.514  12.059
45848W        W 9781  22.561  38.951   0.358
45849W        W 9782  10.179  31.438   2.268
45850W        W 9783  28.027  11.257   9.933
45851W        W 9784  34.443  12.126  12.086
45852W        W 9785  27.496  19.554  11.891
45853W        W 9786  29.046   6.799   3.700
45854W        W 9787  42.785  27.484   3.321
45855W        W 9788   7.835  22.039  12.947
45856W        W 9789  28.049  21.525  12.926
45857W        W 9790  14.679  43.331  12.096
45858W        W 9791  29.661  41.334   3.800
45859W        W 9792  20.650  42.490  10.589
45860W        W 9793  27.040  12.808  12.344
45861W        W 9794  17.640   1.875   1.933
45862W        W 9795   6.811  41.992  10.935
45863W        W 9796  38.455  17.605  10.913
45864W        W 9797  22.149   8.383  12.408
45865W        W 9798  39.042   7.888   0.899
45866W        W 9799  18.240   3.458   0.338
45867W        W 9800  14.608  17.064   3.188
45868W        W 9801  43.911   5.391   1.388
45869W        W 9802  34.057  13.152   2.219
45870W        W 9803  31.644  43.304  11.993
45871W        W 9804   0.480  30.458  11.923
45872W        W 9805  32.624  21.132   1.241
45873W        W 9806  23.171  43.342  13.907
45874W        W 9807  14.817  27.514  14.435
45875W        W 9808  19.660  19.567   3.763
45876W        W 9809  32.490   3.943  12.436
45877W        W 9810  40.953  14.188   1.319
45878W        W 9811  29.149  10.813  10.527
45879W        W 9812  41.834  36.512   1.696
45880W        W 9813   1.763  39.342  11.586
45881W        W 9814  30.565   1.286  13.483
45882W        W 9815  39.894   4.291   4.797
45883W        W 9816  21.100  12.122  13.483
45884W        W 9817  26.133   2.956   4.837
45885W        W 9818  36.927   8.270  14.770
45886W        W 9819   4.408  25.061   9.591
45887W        W 9820  34.497  36.493  14.878
45888W        W 9821  22.598  12.141  14.487
45889W        W 9822  33.076   4.935  12.557
45890W        W 9823  24.640  30.968   3.835
45891W        W 9824  29.520  31.045   2.738
45892W        W 9825  14.680   4.858  13.957
45893W        W 9826  33.906  33.397  13.516
45894W        W 9827   9.275   4.261   4.225
45895W        W 9828   6.882  16.149   1.746
45896W        W 9829  37.336   3.400   3.634
45897W        W 9830  31.404  21.598   1.247
45898W        W 9831  24.569  39.398   2.686
45899W        W 9832  24.536  22.714  10.997
45900W        W 9833   0.843  24.165   2.383
45901W        W 9834  44.323  35.479  13.837
45902W        W 9835  21.026   1.379   4.173
45903W        W 9836  43.442  44.961   1.926
45904W        W 9837  42.790  37.002  14.937
45905W        W 9838   6.842  11.274  12.039
45906W        W 9839   6.737  26.177   2.315
45907W        W 9840  14.320  24.643   0.813
45908W        W 9841  10.844  21.218   3.318
45909W        W 9842  24.528  15.643   4.709
45910W        W 9843  33.445  23.107   2.196
45911W        W 9844  31.477  37.388   0.964
45912W        W 9845  22.029  20.260  12.530
45913W        W 9846  43.954  17.754   3.793
45914W        W 9847  11.312   6.274   1.797
45915W        W 9848   3.405  28.017  13.395
45916W        W 9849  33.464   3.922  13.389
45917W        W 9850   7.814  12.194  14.320
45918W        W 9851  28.661  19.133   4.606
45919W        W 9852  40.896   5.235   1.211
45920W        W 9853   9.203  11.208  14.891
45921W        W 9854  30.126  42.835   2.240
45922W        W 9855  14.236  15.209  11.110
45923W        W 9856  23.692  10.326   3.721
45924W        W 9857  32.007  17.795   2.236
45925W        W 9858  33.408  22.527   0.896
45926W        W 9859  33.474  27.128   4.831
45927W        W 9860  11.864  15.810  10.085
45928W        W 9861  15.790  43.959  10.626
45929W        W 9862   6.878  11.272   1.799
45930W        W 9863  31.488  24.516  13.339
45931W        W 9864   3.397  15.616  11.391
45932W        W 9865  20.270  36.409   2.220
45933W        W 9866  42.785  18.112  14.966
45934W        W 9867  28.047  28.536  11.406
45935W        W 9868  21.638  35.423   0.770
45936W        W 9869  22.194   3.363  12.956
45937W        W 9870  26.508  36.065  10.041
45938W        W 9871  34.498  10.761  13.045
45939W        W 9872  32.591  26.049   2.282
45940W        W 9873  14.678   0.955  11.039
45941W        W 9874  26.535   1.908   1.742
45942W        W 9875  42.976  31.605   4.633
45943W        W 9876  23.544   9.378  12.934
45944W        W 9877  13.325  39.062   0.866
45945W        W 9878   4.894   0.391   1.931
45946W        W 9879  36.920  35.363   2.371
45947W        W 9880  16.253  11.358  13.872
45948W        W 9881  10.270  36.095   1.877
45949W        W 9882  40.946  13.172   2.790
45950W        W 9883  28.618   0.890  10.971
45951W        W 9884  10.785   4.844   1.325
45952W        W 9885  25.503  24.018  11.000
45953W        W 9886  24.143  33.058  12.528
45954W        W 9887  42.458  39.964  12.856
45955W        W 9888  30.123  18.790  11.870
45956W        W 9889  13.202  23.094   1.892
45957W        W 9890  14.755   9.762   3.207
45958W        W 9891  36.414  15.606  14.416
45959W        W 9892  11.159  37.002  14.998
45960W        W 9893   7.784  32.066  14.979
45961W        W 9894  42.913   4.409   1.779
45962W        W 9895  10.865  14.265  11.584
45963W        W 9896  36.014   6.815   0.741
45964W        W 9897  44.409   0.894  14.024
45965W        W 9898  26.091   1.761   1.248
45966W        W 9899  32.087   4.810  10.000
45967W        W 9900   4.741   6.725  12.061
45968W        W 9901  39.406  26.694   5.249
45969W        W 9902  43.898  39.884   1.398
45970W        W 9903  27.985  34.381   2.708
45971W        W 9904  22.515   8.393  12.454
45972W        W 9905  27.496   8.794   1.231
45973W        W 9906  27.159  29.597   1.891
45974W        W 9907  29.925   5.429  12.963
45975W        W 9908  13.710  43.912   1.333
45976W        W 9909  22.085  22.705  14.781
45977W        W 9910   0.379   3.274   4.306
45978W        W 9911  10.204  26.963  12.977
45979W        W 9912   2.470  38.960  10.051
45980W        W 9913  24.494  37.397   1.351
45981W        W 9914  41.532  15.648  11.881
45982W        W 9915  42.010  18.147  14.496
45983W        W 9916  13.738  40.473  13.891
45984W        W 9917  21.710  40.384   1.817
45985W        W 9918   1.392  29.031   4.692
45986W        W 9919  16.598  28.630  10.576
45987W        W 9920  32.992  15.199  14.489
45988W        W 9921  39.340  28.536   2.820
45989W        W 9922  11.178   4.347  13.803
45990W        W 9923  21.061   2.817   1.286
45991W        W 9924  20.533  28.119  11.399
45992W        W 9925   0.896  43.369   4.702
45993W        W 9926   1.468  38.025  14.416
45994W        W 9927   9.314   1.247  13.862
45995W        W 9928  23.180  18.564   2.728
45996W        W 9929  15.140  15.266  13.995
45997W        W 9930   0.434  29.623  13.321
45998W        W 9931  17.689  10.235  11.995
45999W        W 9932  41.367  20.071   2.835
46000W        W 9933  20.662  31.421  14.381
46001W        W 9934   5.911  20.735   1.778
46002W        W 9935  37.526  34.567  11.891
46003W        W 9936  36.573   2.723  14.963
46004W        W 9937  17.207  42.977  12.503
46005W        W 9938  27.160  26.998   4.211
46006W        W 9939  31.641   0.946   1.305
46007W        W 9940   6.862   1.247   0.931
46008W        W 9941  33.894   9.261   3.328
46009W        W 9942   0.416  14.618  10.972
46010W        W 9943   7.865  25.097  11.886
46011W        W 9944   8.685   2.920   4.724
46012W        W 9945  31.002   4.874  12.573
46013W        W 9946  41.529  28.090   3.758
46014W        W 9947   3.289  21.683  12.025
46015W        W 9948   6.714  44.289  11.458
46016W        W 9949  41.853  18.640  13.867
46017W        W 9950  17.704  14.739   2.714
46018W        W 9951  10.348  23.003   2.891
46019W        W 9952  44.458  23.097  14.433
46020W        W 9953  35.377  35.393   0.895
46021W        W 9954  15.270  37.477  13.027
46022W        W 9955  35.503   8.260   2.330
46023W        W 9956  39.855  14.225  14.374
46024W        W 9957  42.882  26.583   1.446
46025W        W 9958   9.173   2.311   2.838
46026W        W 9959  38.000  19.252  10.902
46027W        W 9960  37.529  30.013  14.801
46028W        W 9961  29.654  43.984  12.061
46029W        W 9962   3.866  43.459   0.933
46030W        W 9963  36.439  11.343  10.495
46031W        W 9964  19.724  40.509   4.724
46032W        W 9965  25.501   7.270   1.326
46033W        W 9966  37.837  18.112  13.448
46034W        W 9967  33.986  25.134   4.692
46035W        W 9968  24.550   9.220   0.266
46036W        W 9969  20.718  16.697   1.407
46037W        W 9970   3.875   8.762   2.727
46038W        W 9971  32.585   6.832   3.266
46039W        W 9972   4.382  42.820  10.419
46040W        W 9973  14.222  31.050   0.789
46041W        W 9974   7.891   5.789  10.621
46042W        W 9975  16.607   4.448  12.344
46043W        W 9976  10.227  38.878   3.156
46044W        W 9977  18.749   7.743   5.187
46045W        W 9978  25.673  17.796  10.923
46046W        W 9979  28.573  15.231  13.530
46047W        W 9980  39.040  19.734  10.948
46048W        W 9981   6.213   9.193   2.893
46049W        W 9982  22.699  20.603   2.318
46050W        W 9983  12.764  29.593   4.715
46051W        W 9984  30.911  22.720  12.053
46052W        W 9985  38.960   4.708   3.234
46053W        W 9986  29.976  11.308  12.437
46054W        W 9987  16.790  19.263  11.914
46055W        W 9988  35.536  22.052  10.568
46056W        W 9989  43.856  27.952  12.426
46057W        W 9990   6.711   4.906  11.917
46058W        W 9991  24.585  23.680  12.432
46059W        W 9992  15.128  18.634   5.123
46060W        W 9993  37.453  39.316  11.611
46061W        W 9994  16.750  34.024  12.513
46062W        W 9995  26.054  28.975  11.062
46063W        W 9996   5.864  40.989   4.340
46064W        W 9997  20.649  43.401   1.427
46065W        W 9998   4.896  31.641  10.026
46066W        W 9999  25.049  18.200   1.251
46067W        W10000  30.446  10.807  13.852
46068W        W10001  14.686  36.880   1.380
46069W        W10002  33.424   1.893  10.610
46070W        W10003  13.695  22.056   2.791
46071W        W10004  37.950  30.431  11.577
46072W        W10005  41.513  33.625  14.460
46073W        W10006  23.669  25.612   3.688
46074W        W10007  29.630  42.368  10.948
46075W        W10008  40.004  42.447   3.734
46076W        W10009  17.124  21.106   5.093
46077W        W10010  34.589  35.085  10.642
46078W        W10011  25.012   3.337  14.030
46079W        W10012  15.734   3.297  11.997
46080W        W10013  35.097  44.503  14.855
46081W        W10014  31.565  25.606   1.873
46082W        W10015  32.400  34.516   1.292
46083W        W10016  31.127   6.794  12.418
46084W        W10017  44.899  22.529  11.604
46085W        W10018  13.769  26.075  11.603
46086W        W10019  40.903  38.956  10.931
46087W        W10020  14.634  29.154  14.823
46088W        W10021  36.392  28.971   2.750
46089W        W10022  27.536   3.307  14.956
46090W        W10023  40.366  30.651  14.342
46091W        W10024   1.464  24.724  12.063
46092W        W10025  26.022  20.711  11.473
46093W        W10026  15.678   4.329  10.558
46094W        W10027  12.737  21.657   2.394
46095W        W10028  12.293  16.115  12.930
46096W        W10029  30.567   8.799  10.446
46097W        W10030  37.928   7.221  12.998
46098W        W10031  12.789   0.914   4.163
46099W        W10032  23.703  27.008   2.803
46100W        W10033  44.422  42.412  12.928
46101W        W10034  44.991  10.311   3.171
46102W        W10035  11.824  17.642   4.116
46103W        W10036  30.444  29.564   1.782
46104W        W10037  36.045  25.691   3.202
46105W        W10038  40.970  10.828   3.791
46106W        W10039  18.688  41.932  14.293
46107W        W10040  27.511  10.701  12.484
46108W        W10041  26.604  32.465   4.315
46109W        W10042  28.627  35.944  11.104
46110W        W10043  42.939   9.313  13.008
46111W        W10044  26.505  11.632   0.424
46112W        W10045   2.912  13.757   2.355
46113W        W10046   5.905  12.682   0.754
46114W        W10047  11.786  24.675  11.575
46115W        W10048  17.190  22.081  11.547
46116W        W10049  44.452  23.227   1.418
46117W        W10050   2.825  21.216   9.971
46118W        W10051   2.945  28.029   0.324
46119W        W10052  28.058   7.278   2.837
46120W        W10053  28.975  44.811   1.416
46121W        W10054  20.205  41.030  10.637
46122W        W10055   1.848  27.479   0.776
46123W        W10056  44.888  36.379   1.916
46124W        W10057  23.517  33.487  12.948
46125W        W10058  17.252   1.262   3.689
46126W        W10059  11.132  23.504   0.287
46127W        W10060   6.311   8.403  11.126
46128W        W10061   8.734  23.082   3.226
46129W        W10062  11.820  33.074   4.202
46130W        W10063  23.100   4.824   0.320
46131W        W10064  37.977  38.483  12.402
46132W        W10065   8.853  25.685  10.923
46133W        W10066  38.396  10.720  13.448
46134W        W10067  21.223  26.951  11.004
46135W        W10068  32.140  32.608   4.194
46136W        W10069  43.306  14.781  14.328
46137W        W10070  41.986   0.424   2.814
46138W        W10071  36.414  11.299  13.850
46139W        W10072   0.335  17.718   1.930
46140W        W10073   9.370   8.221  13.814
46141W        W10074  21.642  40.349   2.700
46142W        W10075  15.677   9.782  12.970
46143W        W10076  15.304  42.349   1.808
46144W        W10077  25.545  24.040  12.404
46145W        W10078  19.237  17.070   2.887
46146W        W10079   5.913   5.380  13.524
46147W        W10080  21.034   5.277   2.829
46148W        W10081   2.378  39.457  14.403
46149W        W10082  10.826  32.003   4.261
46150W        W10083  23.708  42.780   1.774
46151W        W10084  18.178  26.515   2.702
46152W        W10085  10.807  31.408  13.865
46153W        W10086   6.707  17.236   2.846
46154W        W10087   2.295  11.673  13.366
46155W        W10088  19.656  33.618  11.953
46156W        W10089  37.502  12.180   1.824
46157W        W10090  41.896  38.920   3.819
46158W        W10091  13.740   1.327  14.301
46159W        W10092  15.203  28.542   4.257
46160W        W10093   0.881  31.023  11.048
46161W        W10094  15.083  42.012  14.389
46162W        W10095  20.580   1.824  13.440
46163W        W10096  17.675  35.098   2.773
46164W        W10097  12.173   1.335  13.007
46165W        W10098  26.677   7.201  14.802
46166W        W10099   3.926   6.260   2.316
46167W        W10100  34.875  19.151   1.324
46168W        W10101  42.413  40.482  11.594
46169W        W10102  40.450   7.298   2.696
46170W        W10103  18.103  35.556  13.441
46171W        W10104  24.122  26.984  13.464
46172W        W10105  10.379  24.155  12.067
46173W        W10106  10.815  20.271   4.158
46174W        W10107   4.352   3.455   3.711
46175W        W10108  42.857   0.982   5.105
46176W        W10109  30.948   0.358   2.849
46177W        W10110  16.737  32.594   4.788
46178W        W10111   0.788   3.855  12.389
46179W        W10112  15.156  26.522  10.973
46180W        W10113  21.548   7.340  12.857
46181W        W10114   3.268  14.188  14.024
46182W        W10115  21.687  35.888  12.570
46183W        W10116  40.958  23.227   3.697
46184W        W10117  43.862  14.123  11.377
46185W        W10118  36.844   8.327  11.500
46186W        W10119   6.780   1.426  14.019
46187W        W10120   4.791  40.821  11.056
46188W        W10121  31.590  39.960  10.618
46189W        W10122  15.188  30.413   0.467
46190W        W10123  33.946   0.789  11.561
46191W        W10124  32.514   1.798   2.233
46192W        W10125  15.112  16.716   9.467
46193W        W10126   4.736  19.112  12.351
46194W        W10127  41.809   1.901   1.432
46195W        W10128  27.519  33.052   1.350
46196W        W10129  26.632  10.670  13.859
46197W        W10130  34.075  12.706   1.327
46198W        W10131  15.291   9.239   0.760
46199W        W10132  35.911  29.082   1.883
46200W        W10133  27.504   0.256  13.910
46201W        W10134  20.055   6.402  13.503
46202W        W10135  40.503  32.053  12.863
46203W        W10136  13.284  37.463  12.066
46204W        W10137   8.760  16.138  14.858
46205W        W10138   4.890  17.667   4.712
46206W        W10139   0.456  27.542  10.932
46207W        W10140  25.083  44.495   1.822
46208W        W10141  28.628  42.932  11.071
46209W        W10142   6.332  11.818  11.592
46210W        W10143   6.216  28.974   0.290
46211W        W10144  16.611   2.885   2.277
46212W        W10145   0.287   4.933   0.246
46213W        W10146  39.064  11.262  13.983
46214W        W10147  27.536  40.959   1.253
46215W        W10148   1.428  26.117  12.404
46216W        W10149  37.377  40.414   4.301
46217W        W10150  19.700  23.728   2.402
46218W        W10151  25.126   3.819  14.295
46219W        W10152   5.786  42.344   4.311
46220W        W10153  32.028  28.666   1.266
46221W        W10154  31.947  28.547  14.340
46222W        W10155   6.783  10.846  13.818
46223W        W10156  16.613   9.376  12.892
46224W        W10157   8.699  43.820  11.540
46225W        W10158   6.365  25.672   1.744
46226W        W10159  15.287  18.638   4.704
46227W        W10160  43.351   6.780   1.258
46228W        W10161   9.191  22.713   3.860
46229W        W10162  27.464  39.905  12.007
46230W        W10163  25.049   7.333  10.568
46231W        W10164  35.953  36.095   0.253
46232W        W10165   7.316   3.869   2.197
46233W        W10166  13.310  20.208  14.474
46234W        W10167  34.005  34.508   2.797
46235W        W10168  34.452  30.545  10.475
46236W        W10169  35.083  21.742  10.947
46237W        W10170  13.611   9.775   2.266
46238W        W10171  29.079   9.338   3.242
46239W        W10172  26.103  40.813  13.369
46240W        W10173  23.085  42.400   3.717
46241W        W10174  12.311  38.354   2.416
46242W        W10175  13.124  17.658  14.954
46243W        W10176   1.860  43.951   4.779
46244W        W10177  30.478  43.964   3.380
46245W        W10178   3.710  13.769  13.338
46246W        W10179  27.528  12.644   3.639
46247W        W10180  16.576  20.231   3.702
46248W        W10181  13.161  39.037   0.462
46249W        W10182   8.274  16.094   1.697
46250W        W10183  34.476  22.729   0.253
46251W        W10184  43.871   5.932   4.289
46252W        W10185  38.935  17.193   0.413
46253W        W10186  32.429  40.481  10.588
46254W        W10187  29.462  29.063  12.970
46255W        W10188  41.320  36.480   1.754
46256W        W10189  39.360  23.728  11.889
46257W        W10190  24.199  44.469   4.653
46258W        W10191   9.817  41.382   2.847
46259W        W10192   1.834  21.244  14.417
46260W        W10193   1.308  13.135  12.092
46261W        W10194  25.507  14.247  13.403
46262W        W10195  37.850  34.900   1.785
46263W        W10196  44.975  37.521  11.915
46264W        W10197  16.109   2.366  14.440
46265W        W10198  18.200  42.400   3.372
46266W        W10199  15.309   3.817   2.249
46267W        W10200  33.023  24.997   2.268
46268W        W10201  42.405  35.500   3.300
46269W        W10202  44.385  16.305   0.350
46270W        W10203  24.176  26.459   5.313
46271W        W10204  40.453  31.089  12.094
46272W        W10205  19.641  16.311   1.284
46273W        W10206  11.764  26.491   5.284
46274W        W10207  24.078  37.974  10.444
46275W        W10208  37.992  35.943   4.605
46276W        W10209  18.550  32.565   0.478
46277W        W10210  37.068  42.814  11.005
46278W        W10211  26.166  37.548  14.374
46279W        W10212  11.261  24.039   4.779
46280W        W10213  16.288  37.455   0.733
46281W        W10214   3.295  18.642  13.836
46282W        W10215  27.607   2.777  13.327
46283W        W10216   2.352   6.899  10.888
46284W        W10217  23.605  30.048  11.424
46285W        W10218  12.129  30.466   2.404
46286W        W10219   3.305  23.232   4.698
46287W        W10220  19.587  17.681  14.788
46288W        W10221  12.310  28.516  11.505
46289W        W10222   9.770  31.947   3.285
46290W        W10223  28.597  10.818   1.346
46291W        W10224  28.169   0.772   3.643
46292W        W10225   9.857  25.165  14.391
46293W        W10226  30.578  24.175  11.378
46294W        W10227  16.312  12.700  14.430
46295W        W10228   7.249  34.873   2.329
46296W        W10229  26.009  19.708   1.709
46297W        W10230  14.123  13.274  12.579
46298W        W10231   8.256  16.152   1.301
46299W        W10232  23.518  40.448   3.186
46300W        W10233  15.319  36.002   4.788
46301W        W10234  20.754  24.176   3.196
46302W        W10235  16.643  37.410  13.385
46303W        W10236   4.787   4.271   1.764
46304W        W10237   0.869  16.612   0.293
46305W        W10238  42.331  29.499  11.525
46306W        W10239  16.219  22.219   3.267
46307W        W10240  29.448  41.424  10.444
46308W        W10241  15.237  39.431   0.292
46309W        W10242  11.161  44.959   4.656
46310W        W10243  41.793  43.013   2.697
46311W        W10244   1.472  38.892  12.938
46312W        W10245  17.152  34.437   4.727
46313W        W10246  40.503  21.622   4.739
46314W        W10247  17.294  24.525   0.773
46315W        W10248  11.819  31.118   1.335
46316W        W10249  39.389  34.868   1.788
46317W        W10250  24.120   4.288  13.036
46318W        W10251  16.575  20.140  12.869
46319W        W10252  21.203  14.812   4.172
46320W        W10253  25.525  12.674   0.872
46321W        W10254  27.529  44.920   2.723
46322W        W10255   6.417  17.282  13.397
46323W        W10256  31.447   7.241   2.349
46324W        W10257  12.235  12.849   3.776
46325W        W10258  44.876  23.642  12.015
46326W        W10259  31.441  22.691  14.879
46327W        W10260   2.314  37.460   1.248
46328W        W10261   3.392  14.321   3.739
46329W        W10262  24.077  21.205  11.057
46330W        W10263   3.781  13.131   1.357
46331W        W10264  43.772   0.861   2.719
46332W        W10265  36.035  39.376  12.914
46333W        W10266  44.285  44.494   0.845
46334W        W10267  36.091  18.140  10.633
46335W        W10268  32.442  16.596   2.732
46336W        W10269   3.446  28.036   2.664
46337W        W10270  20.076   3.333   0.261
46338W        W10271  44.007  12.847   4.178
46339W        W10272   8.352  35.456   4.781
46340W        W10273  30.526  16.143  14.391
46341W        W10274  38.538  21.570  12.543
46342W        W10275  21.192  39.955  11.954
46343W        W10276  17.200  42.894  10.051
46344W        W10277  27.530  34.378  13.929
46345W        W10278   5.739  34.047  12.354
46346W        W10279  30.017   2.731   3.641
46347W        W10280  27.102  17.779   1.744
46348W        W10281  31.905  13.736   3.198
46349W        W10282  26.961  41.942  10.464
46350W        W10283   1.412  40.832   2.748
46351W        W10284  18.185  26.208  14.925
46352W        W10285  22.507   9.737  13.397
46353W        W10286  44.484  36.950  11.493
46354W        W10287  28.946   1.765   4.715
46355W        W10288  13.288   3.351  10.580
46356W        W10289  33.416  32.124  13.311
46357W        W10290  33.425   0.750  11.602
46358W        W10291   0.453  42.468   3.775
46359W        W10292   1.821  13.670   9.601
46360W        W10293   6.346  40.390   2.209
46361W        W10294  41.868   7.885   0.276
46362W        W10295  25.572   7.298   3.325
46363W        W10296  26.989  10.648   1.350
46364W        W10297   7.251  39.532   0.846
46365W        W10298   4.355  11.321  10.601
46366W        W10299  42.954   6.813  14.785
46367W        W10300  17.136  26.470   3.825
46368W        W10301  42.937   9.277  13.977
46369W        W10302  17.244  25.656   3.699
46370W        W10303   4.850   5.872  10.927
46371W        W10304  42.842  42.295   2.829
46372W        W10305  29.621  33.131   4.244
46373W        W10306  22.746   8.352  14.402
46374W        W10307  27.129  22.580   3.735
46375W        W10308  32.017   4.829  10.611
46376W        W10309  26.577  15.278  14.998
46377W        W10310  27.185  40.810  13.414
46378W        W10311  40.359  40.316   1.265
46379W        W10312  44.426   4.785   2.682
46380W        W10313  22.152  29.586  13.534
46381W        W10314  26.973  18.728   3.195
46382W        W10315   8.708  17.095  11.959
46383W        W10316  18.788   5.267   4.807
46384W        W10317  25.635   4.374  10.983
46385W        W10318  20.044  12.770  11.888
46386W        W10319  11.627  40.972  10.467
46387W        W10320  42.890  20.717  12.384
46388W        W10321  32.891  22.653   1.267
46389W        W10322   1.972   3.289  11.104
46390W        W10323  25.504  34.566   0.297
46391W        W10324   9.733  39.029   0.781
46392W        W10325  29.440  22.067  13.946
46393W        W10326  36.480  25.005   0.464
46394W        W10327  15.593  12.646  12.009
46395W        W10328  23.159   8.736   0.337
46396W        W10329  31.095   4.887   1.279
46397W        W10330  25.519  18.605   2.409
46398W        W10331  10.648  30.432   3.344
46399W        W10332  44.372  17.305   0.409
46400W        W10333  27.603  40.942  10.900
46401W        W10334   3.387  34.529  12.556
46402W        W10335  44.011   5.401   0.325
46403W        W10336  10.241  31.640  10.030
46404W        W10337  13.334  19.251   4.689
46405W        W10338  22.155  23.164  13.486
46406W        W10339   7.284  22.198  10.099
46407W        W10340  39.936  20.226   0.777
46408W        W10341   1.447  15.188   5.241
46409W        W10342  12.674  33.989  11.060
46410W        W10343  39.473  20.250  12.518
46411W        W10344   5.856  35.430   0.370
46412W        W10345  11.284  16.656  12.854
46413W        W10346  14.164  40.903  14.339
46414W        W10347  34.891  21.246   2.240
46415W        W10348  13.704   7.355   1.256
46416W        W10349   1.948  43.336  11.017
46417W        W10350  37.564   0.312  14.455
46418W        W10351  38.052   9.729  11.063
46419W        W10352  12.661  40.483  10.509
46420W        W10353  44.327  12.755   3.362
46421W        W10354  24.062  33.978  14.470
46422W        W10355  33.938  44.864  13.903
46423W        W10356  26.119  32.533  12.958
46424W        W10357  20.602  28.010   0.461
46425W        W10358  26.175   8.388  12.049
46426W        W10359  34.373  20.708  13.854
46427W        W10360  23.658   1.924   1.355
46428W        W10361   4.858  22.720  12.947
46429W        W10362  43.002  23.713   1.879
46430W        W10363   5.213  29.604  10.509
46431W        W10364  43.937  27.618   2.717
46432W        W10365  25.580  33.955   4.673
46433W        W10366  26.107  12.121  13.960
46434W        W10367  26.614  25.684   4.646
46435W        W10368  24.511  36.458  12.989
46436W        W10369  18.690  40.419  13.825
46437W        W10370   1.833  22.678  11.901
46438W        W10371   1.894  20.241   4.814
46439W        W10372  12.294   6.385  13.504
46440W        W10373  11.288  21.259  10.928
46441W        W10374  16.739  12.686   4.748
46442W        W10375  13.721  29.080  11.001
46443W        W10376   5.250  31.006   0.876
46444W        W10377  30.545  12.632  11.123
46445W        W10378  30.977   9.160   3.759
46446W        W10379  41.880  29.610  13.485
46447W        W10380  39.515  37.480   3.673
46448W        W10381  44.360   1.379  10.602
46449W        W10382  42.354  27.039   2.898
46450W        W10383   7.207  41.368   4.323
46451W        W10384  31.126  42.398  10.937
46452W        W10385   5.286  26.605  13.869
46453W        W10386   1.292  32.896   0.730
46454W        W10387  19.137  15.162  14.387
46455W        W10388   6.714  43.976   0.872
46456W        W10389  21.647  26.472   1.913
46457W        W10390  27.049   2.361   0.454
46458W        W10391  30.532  34.907  11.931
46459W        W10392  40.023  20.752  14.455
46460W        W10393  30.645  34.463  13.400
46461W        W10394  36.451   7.682   4.751
46462W        W10395   2.472  28.025   2.747
46463W        W10396  32.534   3.807  12.993
46464W        W10397   0.257   6.183   0.313
46465W        W10398  14.821  18.256  13.968
46466W        W10399  27.146   4.928  11.405
46467W        W10400  21.566   7.683   1.709
46468W        W10401  31.508  28.482   0.465
46469W        W10402  25.098  33.002   0.469
46470W        W10403  12.160  35.954   2.246
46471W        W10404   9.277  35.459   2.366
46472W        W10405  23.224  27.161  12.573
46473W        W10406  37.066  10.700  13.490
46474W        W10407  13.768  16.773  13.524
46475W        W10408  20.074  13.227   0.900
46476W        W10409  43.905  22.152  12.003
46477W        W10410  15.129   8.396   4.824
46478W        W10411   3.933  28.598   2.763
46479W        W10412   5.712   1.258   2.315
46480W        W10413  23.065  26.694   5.284
46481W        W10414  13.203  34.429   0.730
46482W        W10415   2.247   0.869   1.345
46483W        W10416  32.454  24.683  13.336
46484W        W10417  28.434  12.804  11.988
46485W        W10418   1.927  21.557  14.014
46486W        W10419  23.235  32.044  13.389
46487W        W10420   9.289  32.574   3.636
46488W        W10421  12.752  27.612  14.515
46489W        W10422   7.682   5.804   4.280
46490W        W10423  24.110  38.873  14.019
46491W        W10424  19.750  18.670  10.139
46492W        W10425  40.955  17.557   0.823
46493W        W10426  11.643  15.679   1.909
46494W        W10427  24.093  28.454   3.195
46495W        W10428  39.027  43.864   4.228
46496W        W10429  37.840  14.312   3.696
46497W        W10430  19.119  41.333   1.271
46498W        W10431   8.246  34.958  12.347
46499W        W10432   2.258  25.092  11.889
46500W        W10433   2.379  39.029  13.986
46501W        W10434  35.442  22.128   0.939
46502W        W10435  27.048  25.045  14.288
46503W        W10436  44.343  35.484   3.673
46504W        W10437  24.224  10.717  11.101
46505W        W10438  10.855  26.692   3.862
46506W        W10439   0.297   4.446  13.061
46507W        W10440  38.850  16.620  14.898
46508W        W10441  13.212  12.139   1.254
46509W        W10442  35.092  29.121  13.804
46510W        W10443  24.998  18.730  13.038
46511W        W10444   3.316   1.784  12.897
46512W        W10445  40.930  17.237  10.591
46513W        W10446  12.626  14.691  12.052
46514W        W10447  33.897  15.683   1.277
46515W        W10448  24.678  32.978  11.945
46516W        W10449   0.413  10.286   3.193
46517W        W10450  32.076   4.783  13.427
46518W        W10451  33.439  21.213   1.375
46519W        W10452  39.040  35.485  13.511
46520W        W10453  42.284  28.477  13.308
46521W        W10454  25.026   1.262   3.666
46522W        W10455   4.434  43.369  11.409
46523W        W10456   7.831   6.257   3.262
46524W        W10457  13.111  16.076   0.282
46525W        W10458  30.134  11.693   3.312
46526W        W10459   2.379  41.295   2.243
46527W        W10460  42.914  23.216  13.401
46528W        W10461  33.920   5.248  14.996
46529W        W10462  35.942  11.362  12.550
46530W        W10463   0.772  16.664   3.364
46531W        W10464  42.903   7.408  13.449
46532W        W10465  30.997  43.969   2.690
46533W        W10466  19.633  10.848  13.893
46534W        W10467  32.492  41.506  10.621
46535W        W10468  32.519  44.888   2.802
46536W        W10469  28.994  19.239   3.149
46537W        W10470   7.904   8.314  12.002
46538W        W10471   2.331  16.577   1.433
46539W        W10472  35.448   5.702  12.945
46540W        W10473  24.042  32.558   2.370
46541W        W10474  40.423   1.336   2.319
46542W        W10475  23.991  19.736  12.958
46543W        W10476   4.751   0.459  13.053
46544W        W10477  26.462  37.465   4.722
46545W        W10478  10.176   9.735  12.350
46546W        W10479   0.264  29.116   1.279
46547W        W10480  39.390  38.500   2.192
46548W        W10481   3.845  33.054   4.838
46549W        W10482  20.564  39.036   4.835
46550W        W10483  33.454  17.219  11.873
46551W        W10484  27.152  26.625   1.903
46552W        W10485  28.098   7.869   2.774
46553W        W10486   3.416  41.866  11.041
46554W        W10487  33.393  42.409  12.351
46555W        W10488  12.688   6.908  13.328
46556W        W10489   7.337  14.618   0.336
46557W        W10490  14.728  10.185  10.561
46558W        W10491   3.948  33.098   1.897
46559W        W10492  36.018  11.307  14.887
46560W        W10493  11.646  29.143  14.284
46561W        W10494  15.608  10.209  11.059
46562W        W10495  10.306  42.463   4.608
46563W        W10496  13.610   3.879   4.163
46564W        W10497   6.852  28.172  14.422
46565W        W10498  33.052   1.237   3.245
46566W        W10499   1.257   3.215  14.341
46567W        W10500   7.207  26.096  14.807
46568W        W10501  18.074  38.346   3.245
46569W        W10502  42.007  40.456  11.058
46570W        W10503  34.404  18.590   1.704
46571W        W10504   3.900  21.732  13.382
46572W        W10505  11.350  33.885  14.339
46573W        W10506  27.658   5.257   1.703
46574W        W10507  12.270  39.956  11.492
46575W        W10508  18.555  14.116   4.298
46576W        W10509  18.545  10.310   3.174
46577W        W10510  17.147   0.389   4.649
46578W        W10511  18.776  42.882  12.979
46579W        W10512   1.780  24.642   2.862
46580W        W10513  32.511  15.262  12.826
46581W        W10514  11.184  13.797  12.838
46582W        W10515  17.210   1.732  10.943
46583W        W10516  13.345  41.940   3.310
46584W        W10517  22.196  43.402   0.303
46585W        W10518   7.797  18.737   1.373
46586W        W10519  18.219  27.608   2.359
46587W        W10520  13.267  33.947  14.783
46588W        W10521  23.506  39.893  14.960
46589W        W10522  17.200  25.057   3.862
46590W        W10523  25.707  23.003   0.943
46591W        W10524  39.066  29.482   3.724
46592W        W10525  18.765   2.377   1.891
46593W        W10526   7.271  31.992  13.330
46594W        W10527  12.311  21.207  13.507
46595W        W10528  24.627  42.883   0.417
46596W        W10529   4.392  26.664  14.865
46597W        W10530  31.910  33.562  11.964
46598W        W10531  30.069  20.157  11.419
46599W        W10532  40.889  31.037   2.342
46600W        W10533  12.177  33.591  13.359
46601W        W10534  32.542  44.401  11.605
46602W        W10535  29.077  13.731   1.323
46603W        W10536  24.510  32.978   0.784
46604W        W10537  22.192  15.253   0.478
46605W        W10538  15.117   6.817   2.877
46606W        W10539   5.206  17.152   2.226
46607W        W10540  42.891  35.586   1.385
46608W        W10541  41.035  19.276   3.221
46609W        W10542  41.917   9.234  11.999
46610W        W10543   0.977  19.196   0.871
46611W        W10544  36.096  39.009   0.793
46612W        W10545  27.593  29.639  12.980
46613W        W10546   3.325  19.082  14.005
46614W        W10547  14.235  33.586  13.854
46615W        W10548   2.233  18.139  13.500
46616W        W10549  26.589  26.563   2.693
46617W        W10550  43.853  17.065   3.703
46618W        W10551   7.690  21.022  10.012
46619W        W10552  24.208  25.152   1.289
46620W        W10553   1.817  39.914  10.973
46621W        W10554   3.369  26.563   2.224
46622W        W10555  26.490  20.054   3.346
46623W        W10556  12.847   6.733  12.562
46624W        W10557  25.041   1.827  12.973
46625W        W10558  36.074  22.581  12.017
46626W        W10559  17.135   3.342   3.166
46627W        W10560  42.494  23.081   2.406
46628W        W10561  24.987  36.406   1.901
46629W        W10562   4.921  26.690   0.401
46630W        W10563  31.018  16.274  13.326
46631W        W10564  20.225  16.128  11.895
46632W        W10565  14.138  33.582  14.874
46633W        W10566   0.938  26.610  14.274
46634W        W10567  25.609   2.436   4.339
46635W        W10568  18.091  16.093   3.380
46636W        W10569   9.338   8.349   1.724
46637W        W10570  43.290  20.675  11.395
46638W        W10571  14.261  37.560   4.763
46639W        W10572   2.830  21.255   0.245
46640W        W10573   3.457   7.825   5.119
46641W        W10574  23.169   2.365  14.278
46642W        W10575   9.265  34.429   0.480
46643W        W10576   0.775  24.979   0.926
46644W        W10577  32.501   0.464  13.424
46645W        W10578  39.954  39.427  13.507
46646W        W10579  24.538   9.355  12.078
46647W        W10580  17.142  36.573  12.028
46648W        W10581  13.801  37.849  12.006
46649W        W10582  34.061  37.849  11.924
46650W        W10583  11.370  31.568   3.696
46651W        W10584  24.211  11.169  11.029
46652W        W10585  43.281   2.325  12.936
46653W        W10586  10.849  16.699  10.512
46654W        W10587  30.163  27.990  11.441
46655W        W10588  32.537   8.688  13.969
46656W        W10589   3.893  10.850  14.875
46657W        W10590  44.356  30.079  14.876
46658W        W10591  23.080  27.513   2.696
46659W        W10592  33.513  28.467  14.899
46660W        W10593  29.619  20.629  10.566
46661W        W10594   0.406   6.228  11.399
46662W        W10595  44.337  13.723   2.671
46663W        W10596   2.369  29.658   1.256
46664W        W10597  42.487   3.724   3.694
46665W        W10598   3.731  18.602   4.261
46666W        W10599  23.239  12.812   3.801
46667W        W10600  10.725  17.069   4.269
46668W        W10601   6.780  30.113   0.323
46669W        W10602  15.246   3.832  14.915
46670W        W10603  35.402   0.764   4.232
46671W        W10604  18.772  16.598   2.768
46672W        W10605  25.976  43.491   1.885
46673W        W10606  42.448   5.301  13.490
46674W        W10607   2.731  13.155   5.180
46675W        W10608  10.179  23.505  11.868
46676W        W10609  30.530  12.763  12.563
46677W        W10610  41.010  39.555   1.254
46678W        W10611  31.048  37.376   9.987
46679W        W10612   9.742   7.353  10.506
46680W        W10613  24.572  35.506   0.868
46681W        W10614  13.781  43.486  12.852
46682W        W10615  21.740  42.846   0.324
46683W        W10616  12.708  10.245   3.257
46684W        W10617   5.801  23.114   1.324
46685W        W10618  10.780  25.018   3.346
46686W        W10619  17.663   9.319  11.045
46687W        W10620  14.296   7.671   4.759
46688W        W10621  35.892   1.891   2.282
46689W        W10622  12.215  10.152  13.391
46690W        W10623   7.333  15.580   1.765
46691W        W10624   9.875  43.341   2.257
46692W        W10625   5.928   7.387   2.392
46693W        W10626   9.687  41.869   4.828
46694W        W10627   0.465   4.724  14.505
46695W        W10628  24.120   3.948  14.993
46696W        W10629  17.114  40.954   1.415
46697W        W10630  24.979  18.190   2.282
46698W        W10631   3.371  35.966   0.730
46699W        W10632  25.117  27.505  14.462
46700W        W10633  23.698  23.564  13.961
46701W        W10634  43.465   8.687  11.509
46702W        W10635  37.054  23.990   0.444
46703W        W10636  24.489  11.679  12.437
46704W        W10637  21.543   4.760  10.641
46705W        W10638  10.212   9.220   4.835
46706W        W10639  41.851  40.383   4.768
46707W        W10640  24.570  14.258   1.441
46708W        W10641  32.037  25.603  12.859
46709W        W10642  35.022  20.661  12.072
46710W        W10643  10.293  37.373   3.664
46711W        W10644  31.434  38.357   2.377
46712W        W10645   8.682  23.541  13.531
46713W        W10646  16.739  14.814   2.379
46714W        W10647  26.666  43.931  10.450
46715W        W10648   7.222  25.044   3.741
46716W        W10649   8.868  40.030   1.335
46717W        W10650  27.940  29.124   1.892
46718W        W10651  17.673  42.852  10.422
46719W        W10652  37.846  35.508   1.778
46720W        W10653   6.783  28.541  11.467
46721W        W10654  11.132   8.747   2.404
46722W        W10655   0.461  40.381  10.564
46723W        W10656  13.636  43.991  13.358
46724W        W10657  23.196  35.436   2.869
46725W        W10658  14.235  35.517  14.997
46726W        W10659   9.826  15.692   2.872
46727W        W10660  21.683  16.656   3.646
46728W        W10661   9.810  23.106  10.410
46729W        W10662  30.921  11.185   0.947
46730W        W10663  12.245  13.689  12.931
46731W        W10664  34.959  28.163   5.266
46732W        W10665  32.971   1.978  11.427
46733W        W10666  17.625  43.869  14.802
46734W        W10667  12.312  22.663  14.378
46735W        W10668  43.507  36.590   4.250
46736W        W10669  25.064   1.298   2.705
46737W        W10670  33.383   7.205  14.439
46738W        W10671  39.813  22.010  12.052
46739W        W10672   3.819  18.231  12.568
46740W        W10673   7.272  12.342   4.672
46741W        W10674  29.447  16.673  13.317
46742W        W10675  12.339  40.342   4.723
46743W        W10676   6.185  23.720  10.473
46744W        W10677  16.792   2.907   1.751
46745W        W10678  40.463  35.881   4.158
46746W        W10679  38.497   2.249  10.613
46747W        W10680  18.789  39.533   2.782
46748W        W10681  30.553  30.157  14.824
46749W        W10682  43.922  10.648   2.716
46750W        W10683  36.379  43.467  10.518
46751W        W10684  39.048  27.092   0.292
46752W        W10685  14.656  33.484  14.323
46753W        W10686   6.863  12.300   0.278
46754W        W10687   1.419   2.454   4.133
46755W        W10688   3.325  41.949   0.280
46756W        W10689   5.330  42.812  11.544
46757W        W10690  34.473   5.730  11.485
46758W        W10691  36.979   4.383  13.026
46759W        W10692   1.920  14.103   2.866
46760W        W10693  34.022   3.888  11.575
46761W        W10694  15.723   8.797  13.361
46762W        W10695  19.687  25.513  14.389
46763W        W10696  40.483  22.134   3.779
46764W        W10697  10.755  10.730   1.753
46765W        W10698  22.183  28.937   2.286
46766W        W10699  27.690  31.927   4.165
46767W        W10700  39.833  34.927  13.890
46768W        W10701  11.739   3.754   0.835
46769W        W10702  22.590  36.516   3.151
46770W        W10703  18.609  32.491  10.899
46771W        W10704  44.835  36.909   1.858
46772W        W10705   9.707   9.857  11.594
46773W        W10706  27.657  35.027   1.386
46774W        W10707  20.162  14.813   3.737
46775W        W10708  43.808  35.370   3.724
46776W        W10709  18.739  27.066  12.840
46777W        W10710  32.473  36.906   3.717
46778W        W10711   9.191   9.280  14.003
46779W        W10712  36.481  35.895  10.086
46780W        W10713  26.650  31.633  12.039
46781W        W10714   1.463  40.043   3.299
46782W        W10715  42.973  22.647   4.121
46783W        W10716  42.900  28.620   3.331
46784W        W10717  36.557  21.534   1.824
46785W        W10718   3.364  39.026  13.514
46786W        W10719   2.877  35.479   3.770
46787W        W10720  27.574  21.201  14.897
46788W        W10721  10.828  11.659   4.686
46789W        W10722  44.960  35.501   5.120
46790W        W10723  17.163  32.567  14.369
46791W        W10724  43.833  38.543  13.811
46792W        W10725   2.398  24.152   4.746
46793W        W10726  23.024  37.556   2.230
46794W        W10727  34.610  36.440   0.450
46795W        W10728  40.986  15.739   4.154
46796W        W10729  21.132   3.713  14.319
46797W        W10730   8.673   1.957   0.935
46798W        W10731  33.443   7.222  12.849
46799W        W10732  10.812  20.207   0.470
46800W        W10733  44.282   1.885  14.760
46801W        W10734   8.727  14.216  10.472
46802W        W10735  35.910  41.801  11.934
46803W        W10736  27.068  40.043   1.735
46804W        W10737  41.298  20.645   1.440
46805W        W10738   1.949   3.292  12.491
46806W        W10739   7.696  38.380   3.325
46807W        W10740  16.593  18.719   2.256
46808W        W10741  31.575  31.953  12.040
46809W        W10742  33.590  41.790   4.233
46810W        W10743   8.220  29.156  13.052
46811W        W10744  24.512  15.288  12.385
46812W        W10745  10.192   9.656   3.298
46813W        W10746  37.005   3.725   1.328
46814W        W10747   9.341  12.747   3.649
46815W        W10748  28.050  17.623   0.365
46816W        W10749  24.686  33.057   4.742
46817W        W10750   4.326  36.503   0.861
46818W        W10751  32.143  20.141   0.317
46819W        W10752  38.521  31.645   4.251
46820W        W10753  42.888  15.735   1.747
46821W        W10754  39.471  16.744  12.975
46822W        W10755  19.656  18.681   3.855
46823W        W10756  11.209  12.749  14.981
46824W        W10757  13.150  14.269  14.899
46825W        W10758  10.292  29.032  12.035
46826W        W10759   5.251  17.307   3.185
46827W        W10760  26.960   6.305   1.309
46828W        W10761  20.133   3.715   3.740
46829W        W10762   4.896   1.736   4.745
46830W        W10763  33.505  41.030   1.803
46831W        W10764   0.821  37.450   3.707
46832W        W10765  34.971  28.155  11.028
46833W        W10766  24.205  42.006   1.738
46834W        W10767  19.142  42.294   0.858
46835W        W10768   7.385  16.623  10.575
46836W        W10769   4.221  15.314   3.827
46837W        W10770  41.934  32.978   1.231
46838W        W10771  27.998  19.127   4.140
46839W        W10772   8.833  34.866  13.431
46840W        W10773  34.011  18.660   2.816
46841W        W10774  38.341  29.471  13.030
46842W        W10775  24.606   0.899   2.205
46843W        W10776  14.724  34.056  14.894
46844W        W10777  29.491  39.889  12.432
46845W        W10778  33.022  33.530  12.372
46846W        W10779   5.890  18.286  13.845
46847W        W10780  15.262  26.562   0.728
46848W        W10781   0.334  21.665   3.744
46849W        W10782  16.181  25.521   2.860
46850W        W10783   3.285   0.929  11.934
46851W        W10784   2.348   6.744  13.901
46852W        W10785  44.319  24.644  11.909
46853W        W10786  38.462   8.396  14.893
46854W        W10787   2.805  31.066   3.178
46855W        W10788  33.885  23.201   2.717
46856W        W10789  35.912  32.562  12.374
46857W        W10790  14.625  20.088  12.471
46858W        W10791  17.306  19.627   4.260
46859W        W10792  32.061  13.165  14.471
46860W        W10793  19.181  29.640   3.700
46861W        W10794  43.279   8.712  12.027
46862W        W10795  22.502   4.850   1.398
46863W        W10796   0.475  31.526   0.902
46864W        W10797  35.875  14.787   0.778
46865W        W10798  43.432  42.380  14.767
46866W        W10799  20.253   1.383   3.186
46867W        W10800  25.985  12.805  13.517
46868W        W10801  21.038  25.676  11.464
46869W        W10802  11.638  32.895  10.901
46870W        W10803  15.324   0.895   1.220
46871W        W10804  13.232  16.119  10.954
46872W        W10805  17.698  26.477  13.040
46873W        W10806  24.508  31.124   4.653
46874W        W10807  31.047  44.326   0.770
46875W        W10808  22.212  31.065   2.705
46876W        W10809   1.474  29.040  14.026
46877W        W10810  44.928  22.110   4.643
46878W        W10811   8.360   4.324   3.862
46879W        W10812  32.981   0.791   1.338
46880W        W10813  31.463  19.134  14.958
46881W        W10814  32.635  18.743   3.859
46882W        W10815  29.145  27.483   4.337
46883W        W10816   8.321   1.816  11.129
46884W        W10817  25.690  12.189   0.959
46885W        W10818   1.829  26.593  11.922
46886W        W10819  44.861   4.284  10.418
46887W        W10820  12.361  32.034  10.601
46888W        W10821  32.543  41.383  12.918
46889W        W10822  15.768  24.500   5.237
46890W        W10823  27.160  44.367   2.688
46891W        W10824  35.382   5.782  14.871
46892W        W10825  42.479  23.143   0.336
46893W        W10826  13.157  27.940  11.916
46894W        W10827  26.657  37.911   0.411
46895W        W10828  39.541  15.125  10.539
46896W        W10829  26.552  22.517  12.552
46897W        W10830  14.663  23.107   4.752
46898W        W10831  33.083  43.785  12.866
46899W        W10832  25.663  29.450  12.841
46900W        W10833  33.982  17.105  10.004
46901W        W10834  37.446  11.681  13.433
46902W        W10835  31.082  30.534  12.881
46903W        W10836  19.105  25.978   4.825
46904W        W10837  31.115  27.545   3.788
46905W        W10838  24.042  40.424   3.152
46906W        W10839  30.147  44.407   2.368
46907W        W10840  38.429  20.756  13.796
46908W        W10841  14.807  40.939  12.941
46909W        W10842  13.683  27.535  12.923
46910W        W10843   8.699  27.956  11.068
46911W        W10844   7.348   2.393  12.084
46912W        W10845  44.442  12.685   1.372
46913W        W10846  16.226  16.097   3.643
46914W        W10847   4.735   3.378   0.766
46915W        W10848  24.979  32.115   1.434
46916W        W10849  37.466  16.586   3.173
46917W        W10850  44.934  41.535   3.789
46918W        W10851  23.003  10.783  14.403
46919W        W10852   7.272  16.168   4.177
46920W        W10853  37.339  18.556  14.280
46921W        W10854  14.120  32.502   0.828
46922W        W10855  13.716  43.289   4.267
46923W        W10856  30.084  27.628  13.948
46924W        W10857  31.604  14.625   2.845
46925W        W10858  32.959  40.828   2.211
46926W        W10859   1.448  28.057  13.035
46927W        W10860  15.637  44.960  11.881
46928W        W10861  39.347   3.856   3.846
46929W        W10862   3.758  35.529   4.328
46930W        W10863  15.201   8.308  13.327
46931W        W10864  42.875  39.315   3.357
46932W        W10865   9.289  34.931  12.033
46933W        W10866   3.403  19.549   1.350
46934W        W10867  41.914  44.305  12.053
46935W        W10868  12.282  13.163   0.770
46936W        W10869  11.200  27.173  12.464
46937W        W10870   3.359  13.626   1.344
46938W        W10871  14.153  22.562  12.071
46939W        W10872   0.936  33.001  14.800
46940W        W10873  16.682  26.110   1.845
46941W        W10874  30.146   1.946   1.229
46942W        W10875  38.327  43.420  13.400
46943W        W10876  38.391  32.970  12.552
46944W        W10877  13.255   0.470   4.135
46945W        W10878  19.667  31.117  14.832
46946W        W10879  35.919   8.769   2.385
46947W        W10880  44.868   5.342   4.336
46948W        W10881  13.227  32.492   3.837
46949W        W10882  10.181  44.380  13.891
46950W        W10883  13.842  19.203  11.576
46951W        W10884  11.223   6.222  14.288
46952W        W10885  16.303   0.492  11.583
46953W        W10886  26.582  28.631  13.919
46954W        W10887  28.129   4.305   1.293
46955W        W10888  16.280  32.100   1.289
46956W        W10889   1.836  24.114  14.994
46957W        W10890  44.482  13.176  14.880
46958W        W10891  26.048   7.877  14.331
46959W        W10892   8.324  10.243   3.643
46960W        W10893  14.791  27.038  12.998
46961W        W10894  38.939  19.714   4.727
46962W        W10895  38.881  26.146  10.536
46963W        W10896   7.745  13.640   4.788
46964W        W10897  12.673  38.958   3.164
46965W        W10898  40.317  23.043   4.624
46966W        W10899  32.986  20.160   2.301
46967W        W10900  21.237  31.905   3.855
46968W        W10901  38.529  34.401  12.467
46969W        W10902   6.899  31.531  13.947
46970W        W10903  13.698  19.614  11.055
46971W        W10904  31.907   0.968  10.515
46972W        W10905   0.970  10.172   0.880
46973W        W10906  34.073  18.673   1.258
46974W        W10907  16.803  17.658   0.335
46975W        W10908  24.133  39.416   3.338
46976W        W10909  19.191  13.319   1.826
46977W        W10910   0.313  32.889  10.601
46978W        W10911  43.288  43.018  10.602
46979W        W10912  28.018  30.579   0.363
46980W        W10913  13.149  25.965  14.313
46981W        W10914  14.154   3.461  11.996
46982W        W10915  42.842   8.738  14.026
46983W        W10916  17.271  37.578  11.965
46984W        W10917  12.241  16.287   1.332
46985W        W10918  10.190  25.622  12.436
46986W        W10919  17.625  10.706  13.487
46987W        W10920   1.932  22.677   1.828
46988W        W10921  23.580   3.311  12.348
46989W        W10922  27.094  30.154  14.464
46990W        W10923  36.847  38.053   2.698
46991W        W10924  33.474   1.370   3.731
46992W        W10925  41.951   8.399  13.418
46993W        W10926  30.432  36.591   0.434
46994W        W10927  22.626  14.301  12.003
46995W        W10928  39.361   1.765  12.959
46996W        W10929   8.197   3.333   0.372
46997W        W10930  14.259   7.296  13.900
46998W        W10931   7.341  34.894   0.480
46999W        W10932  22.702  42.797  10.095
47000W        W10933  23.192  24.018   4.692
47001W        W10934  40.954  11.738   1.829
47002W        W10935  38.928  30.108  12.849
47003W        W10936  10.853  35.097   0.788
47004W        W10937  26.498  35.019  12.452
47005W        W10938  36.494  22.746  13.478
47006W        W10939  19.074   8.387   4.730
47007W        W10940  28.443  42.792   2.822
47008W        W10941  10.317  27.148  12.465
47009W        W10942  21.576   9.803   4.712
47010W        W10943  44.267  24.640  14.760
47011W        W10944   2.840  34.054  14.475
47012W        W10945  27.671  10.864  11.542
47013W        W10946  33.927  33.611   3.288
47014W        W10947  14.144   1.339  14.410
47015W        W10948  16.306   4.732   1.264
47016W        W10949  31.447  18.150  11.005
47017W        W10950  13.306  32.425   3.318
47018W        W10951  42.511   9.813   1.831
47019W        W10952  28.612  19.650   3.674
47020W        W10953  29.000  19.277  13.421
47021W        W10954  35.889   4.810  14.855
47022W        W10955  40.367  30.011   3.169
47023W        W10956  31.900  23.060  13.379
47024W        W10957  21.718   8.830  13.407
47025W        W10958  18.107   0.863  10.555
47026W        W10959   0.450   6.886  12.891
47027W        W10960  41.414  19.108  13.415
47028W        W10961  40.426  20.740   1.238
47029W        W10962  29.041  41.920   1.273
47030W        W10963  17.790  20.721   4.330
47031W        W10964   7.798   7.711  11.875
47032W        W10965  39.358  37.485  13.342
47033W        W10966  34.596   0.350  13.953
47034W        W10967  41.362  32.555   4.261
47035W        W10968  27.490  34.103  14.373
47036W        W10969  13.837  32.510  13.330
47037W        W10970  26.985   8.376  10.443
47038W        W10971   6.254  28.463  13.372
47039W        W10972  19.757  30.077  12.951
47040W        W10973   4.409   5.234   4.739
47041W        W10974   7.241  25.470   4.739
47042W        W10975   5.819  28.550  11.400
47043W        W10976  27.151  42.334   4.737
47044W        W10977  10.345  27.510   4.776
47045W        W10978  30.149  29.647  12.458
47046W        W10979   9.769  21.622   3.714
47047W        W10980  31.409  22.221   1.755
47048W        W10981  38.045  41.814  13.352
47049W        W10982  37.344  25.587   3.165
47050W        W10983  38.478  44.809  13.315
47051W        W10984  37.516  39.903   3.750
47052W        W10985   5.846  36.949  14.781
47053W        W10986  35.377  21.132  10.595
47054W        W10987  35.582  10.371   1.864
47055W        W10988  29.483  11.708   5.205
47056W        W10989  37.883   3.253   4.616
47057W        W10990  19.109  11.791   3.660
47058W        W10991  12.348  44.003   2.208
47059W        W10992   7.395  16.811   1.373
47060W        W10993   5.245  13.221   5.595
47061W        W10994   8.693  24.157   4.783
47062W        W10995  40.800  32.107   3.704
47063W        W10996  10.712  42.981  12.965
47064W        W10997  44.926   2.959   1.867
47065W        W10998   3.926  36.067  11.876
47066W        W10999   6.389  25.016   1.398
47067W        W11000   2.797  22.071   4.166
47068W        W11001  18.735   8.833  14.789
47069W        W11002  15.743  25.528   0.402
47070W        W11003   0.885  33.899   1.865
47071W        W11004  43.961   3.910   3.689
47072W        W11005  15.664  30.152   0.803
47073W        W11006   2.816  21.131  13.820
47074W        W11007  35.556   6.348   0.939
47075W        W11008  14.296  37.395   4.272
47076W        W11009  41.001  14.783  11.049
47077W        W11010  41.828  23.693  14.315
47078W        W11011  39.509  30.054   4.167
47079W        W11012  44.865  11.291  12.426
47080W        W11013  14.808   7.408  13.980
47081W        W11014  27.547  10.206   4.640
47082W        W11015  31.581  26.592   0.304
47083W        W11016  11.707  28.975   2.303
47084W        W11017  24.607   8.897   3.369
47085W        W11018   6.727  39.387   0.266
47086W        W11019  43.769  11.810   4.251
47087W        W11020  14.248   0.798   5.202
47088W        W11021  26.573  17.606   2.778
47089W        W11022  38.997  20.045  14.360
47090W        W11023  16.250   5.325   1.880
47091W        W11024  23.183  30.545   1.297
47092W        W11025  24.206   9.159  12.398
47093W        W11026   8.780  44.313  13.860
47094W        W11027  44.456   6.882   2.286
47095W        W11028  43.511  38.846  11.912
47096W        W11029  29.166  11.764   0.426
47097W        W11030  43.324   0.301   0.468
47098W        W11031  17.600  37.847  10.986
47099W        W11032  20.206  41.318   2.308
47100W        W11033  18.242  38.822   1.850
47101W        W11034  31.935  15.689   3.753
47102W        W11035  37.850  43.433   3.832
47103W        W11036   5.905   1.840   9.473
47104W        W11037   7.727  35.959   5.294
47105W        W11038  23.143  35.601  10.498
47106W        W11039  31.513  19.274   0.927
47107W        W11040  21.249  37.995   4.811
47108W        W11041  13.636  39.344   3.352
47109W        W11042  21.234   3.800  13.039
47110W        W11043  27.514  16.185   1.734
47111W        W11044   1.797  41.888   1.385
47112W        W11045  35.015  43.388   1.798
47113W        W11046   2.303   6.923   1.796
47114W        W11047   4.820  18.753  12.921
47115W        W11048  20.609  36.401  11.437
47116W        W11049   3.263  10.743  12.437
47117W        W11050  17.297  31.448  14.999
47118W        W11051  32.009  36.463  12.042
47119W        W11052  25.713  24.175  11.910
47120W        W11053  44.287   8.263  14.360
47121W        W11054   0.293   8.846   3.839
47122W        W11055  34.394   3.445  14.498
47123W        W11056   3.713   4.910  12.461
47124W        W11057  14.116   1.381  13.925
47125W        W11058  39.037  33.395  14.855
47126W        W11059  37.849  41.439  13.926
47127W        W11060   4.893  33.902  13.819
47128W        W11061  13.742  19.650  10.472
47129W        W11062   4.351  31.111  14.890
47130W        W11063  31.065  19.158  14.504
47131W        W11064  40.355  18.115  11.985
47132W        W11065  27.163  17.739   3.203
47133W        W11066   6.906  12.854   4.709
47134W        W11067  41.913  42.010   1.795
47135W        W11068   1.360  32.047  11.128
47136W        W11069   1.367  43.391  11.053
47137W        W11070  34.046  43.928   0.849
47138W        W11071  27.096  31.930  11.889
47139W        W11072  40.976  33.437  14.305
47140W        W11073  23.057  34.572  10.446
47141W        W11074  10.680  13.104  13.463
47142W        W11075  34.604   3.713   0.284
47143W        W11076  26.020   5.385   4.823
47144W        W11077   6.819   9.269  13.021
47145W        W11078  39.812  44.271  10.896
47146W        W11079  40.014  15.732   3.846
47147W        W11080   5.830  30.038  10.951
47148W        W11081  22.610  18.177   5.101
47149W        W11082   9.300   5.271  14.295
47150W        W11083  19.683  19.179  10.583
47151W        W11084  35.502  20.113  14.988
47152W        W11085  36.934  44.855   2.780
47153W        W11086  44.907  10.834   1.890
47154W        W11087  18.764  15.789   1.757
47155W        W11088  19.270  37.468   5.131
47156W        W11089   8.352  27.479  12.932
47157W        W11090  11.640   1.793  11.431
47158W        W11091   0.370  31.405  13.811
47159W        W11092  24.639   6.197   2.740
47160W        W11093   7.216   0.307  12.352
47161W        W11094  12.673  35.091  12.388
47162W        W11095   0.325  29.070  11.067
47163W        W11096  26.527  29.101  10.959
47164W        W11097  44.481  16.170  11.073
47165W        W11098  16.158  25.548   1.410
47166W        W11099  15.283  20.725  12.088
47167W        W11100  27.060  30.011  14.882
47168W        W11101  30.441   4.260  11.050
47169W        W11102  21.621   1.905  11.999
47170W        W11103   0.363   0.887  12.056
47171W        W11104  42.390  22.150   3.345
47172W        W11105  34.600   5.748  14.323
47173W        W11106  20.185  24.982   3.781
47174W        W11107  13.657  30.604  10.475
47175W        W11108   0.821  39.007   1.244
47176W        W11109  25.524  16.208   3.343
47177W        W11110   6.341  25.681  13.401
47178W        W11111  26.489  28.034  11.380
47179W        W11112  35.944  43.852   1.365
47180W        W11113  17.777  40.007  12.876
47181W        W11114  29.575  34.561  12.985
47182W        W11115  10.798  23.677  13.795
47183W        W11116  13.670  19.634   3.823
47184W        W11117  10.847  23.237   4.807
47185W        W11118  29.163  29.967   0.761
47186W        W11119   8.250   0.983  10.899
47187W        W11120  14.655   7.808   2.408
47188W        W11121  41.473  20.157  12.495
47189W        W11122  37.897  36.412   2.277
47190W        W11123  22.624  38.859  13.383
47191W        W11124  15.239  16.767   4.661
47192W        W11125  25.624  40.388   1.257
47193W        W11126  16.670  30.480   0.469
47194W        W11127  18.670  35.934   3.151
47195W        W11128  13.837   8.300  13.423
47196W        W11129  38.978  19.648   4.336
47197W        W11130  17.160  28.509   5.249
47198W        W11131  39.477  19.663  10.955
47199W        W11132  36.014  10.847   0.781
47200W        W11133  34.076  21.212  13.053
47201W        W11134  25.482  16.208  13.499
47202W        W11135   1.948   9.647   4.334
47203W        W11136  21.573  28.141   1.396
47204W        W11137  12.246  34.566  13.844
47205W        W11138  17.793  44.277   4.781
47206W        W11139  13.657   0.849   2.716
47207W        W11140  11.829  39.846  13.537
47208W        W11141  27.499   2.295   4.308
47209W        W11142  32.959  38.423  12.398
47210W        W11143  23.081  20.236  14.371
47211W        W11144  28.654  35.528   1.744
47212W        W11145  41.989  32.465  12.009
47213W        W11146  16.752  32.099   3.697
47214W        W11147  41.455   6.330   2.242
47215W        W11148  39.047   9.858  14.920
47216W        W11149  23.734  30.562  13.410
47217W        W11150   1.269  35.492   3.148
47218W        W11151  29.136  11.808   4.179
47219W        W11152  22.181  38.074   3.708
47220W        W11153   2.280  20.594  14.840
47221W        W11154  23.647  17.713  13.450
47222W        W11155  36.002  28.484  14.879
47223W        W11156  19.194  38.859  12.984
47224W        W11157   8.871   0.978   2.194
47225W        W11158  15.714  15.744  13.990
47226W        W11159   5.318  12.296   3.337
47227W        W11160   0.252   3.787  12.005
47228W        W11161   6.262   7.846  14.892
47229W        W11162  36.433  31.491  14.848
47230W        W11163  43.405   6.272   2.794
47231W        W11164  39.048   3.219   1.388
47232W        W11165  18.665  44.355  11.508
47233W        W11166  30.921  20.612  12.375
47234W        W11167  42.843   9.232  12.037
47235W        W11168  20.705  13.344  13.368
47236W        W11169  40.427  14.273   4.637
47237W        W11170  15.589   3.460   0.762
47238W        W11171  39.034  23.643   2.319
47239W        W11172   7.207  13.719   3.239
47240W        W11173   9.879  39.528  12.068
47241W        W11174  44.270  22.683  12.394
47242W        W11175  33.507   9.282   4.614
47243W        W11176  32.109   3.807  14.012
47244W        W11177  29.578  17.618  13.061
47245W        W11178  39.547  44.368   0.369
47246W        W11179  37.995  25.018  12.891
47247W        W11180  40.406   3.423  11.039
47248W        W11181  29.499   8.727   5.290
47249W        W11182  31.464  39.314  14.910
47250W        W11183  34.964  28.611  11.036
47251W        W11184  17.074  22.592  13.835
47252W        W11185   1.350  31.080  12.832
47253W        W11186  42.477  19.260  11.090
47254W        W11187  22.631  21.031   2.303
47255W        W11188   8.161  41.978   0.417
47256W        W11189  29.067  43.885  11.450
47257W        W11190  17.650  10.260  12.837
47258W        W11191  16.794   6.208   1.762
47259W        W11192  36.422  26.694   1.817
47260W        W11193  18.629   5.745  13.040
47261W        W11194  44.820  18.714   4.259
47262W        W11195   0.803  33.944  14.303
47263W        W11196  30.914  29.076   0.933
47264W        W11197  43.442  29.504   3.302
47265W        W11198  30.468  28.633  12.883
47266W        W11199   1.290  43.927  10.895
47267W        W11200  21.170   9.779   4.793
47268W        W11201  16.658  38.437   4.196
47269W        W11202  22.592  38.344  12.094
47270W        W11203  14.191  30.083  14.004
47271W        W11204  21.749  25.117   3.784
47272W        W11205  19.285  16.305   0.754
47273W        W11206  33.547  27.493   3.324
47274W        W11207  37.074  31.022   0.906
47275W        W11208  25.030  25.992   2.674
47276W        W11209   3.404  40.943  14.927
47277W        W11210  13.182   3.824  13.344
47278W        W11211   1.314  23.676  11.606
47279W        W11212  30.108  28.077  14.007
47280W        W11213  20.714  30.102   0.868
47281W        W11214  19.195   8.660   2.738
47282W        W11215   6.241  34.048   4.834
47283W        W11216  34.898  13.177  12.529
47284W        W11217  39.923  26.669  11.438
47285W        W11218  26.656   3.914  11.098
47286W        W11219  25.620  19.741  12.881
47287W        W11220  44.764  41.788   0.840
47288W        W11221   3.834  25.667   0.911
47289W        W11222  41.983   2.915   1.270
47290W        W11223  37.988   0.798   1.910
47291W        W11224  29.989  12.131  14.979
47292W        W11225  15.238  29.654   0.820
47293W        W11226  17.656  42.839   1.907
47294W        W11227   1.822  31.041   3.173
47295W        W11228  38.022  29.061   0.339
47296W        W11229  33.910  10.297  11.428
47297W        W11230  20.743  30.458   0.429
47298W        W11231   5.696  24.571   4.230
47299W        W11232   5.194   2.293   1.359
47300W        W11233  38.331  33.457  14.345
47301W        W11234  21.567   5.345   0.808
47302W        W11235  42.010  19.564   5.190
47303W        W11236  42.396  13.129  11.939
47304W        W11237  32.991   6.726   4.656
47305W        W11238  31.643  41.981   3.640
47306W        W11239  14.791   2.288   3.836
47307W        W11240   6.210  39.046   4.709
47308W        W11241  12.286  43.487  11.997
47309W        W11242   0.764  15.233   2.684
47310W        W11243  31.913   6.356  10.897
47311W        W11244  17.683  28.651  14.291
47312W        W11245  40.815  32.573   0.421
47313W        W11246  15.197  25.169  13.360
47314W        W11247  35.419  16.086   0.267
47315W        W11248  32.899  19.700  12.960
47316W        W11249  22.249  35.031  13.929
47317W        W11250  25.661   6.233  11.480
47318W        W11251  13.811  41.470   2.196
47319W        W11252  35.970  18.613  14.885
47320W        W11253  36.068  44.323  10.096
47321W        W11254  23.193  19.182  14.423
47322W        W11255   9.341  42.370   2.218
47323W        W11256  36.398  42.793   0.252
47324W        W11257  35.975   2.821  13.035
47325W        W11258  26.546  25.522   3.246
47326W        W11259  11.674   9.342   1.745
47327W        W11260  25.177  41.003  12.032
47328W        W11261  22.700  22.623   3.317
47329W        W11262   8.199   4.429   1.800
47330W        W11263  29.155   9.217  10.584
47331W        W11264  26.044  44.883  12.549
47332W        W11265  33.464   3.260  12.020
47333W        W11266   0.433  26.681   0.419
47334W        W11267   9.799  43.916  11.070
47335W        W11268   5.709  21.203   3.334
47336W        W11269  41.528   5.796  13.518
47337W        W11270  13.166  26.654   2.898
47338W        W11271  10.173   3.830   4.204
47339W        W11272  40.408  16.080  12.468
47340W        W11273  13.337  14.664  13.835
47341W        W11274  32.484  10.271  11.040
47342W        W11275   7.290   4.269   2.202
47343W        W11276  12.806  38.459   0.838
47344W        W11277  35.902  35.084  11.989
47345W        W11278  11.656   0.263  12.533
47346W        W11279  16.170  18.772  10.955
47347W        W11280   6.198  16.228   3.156
47348W        W11281  10.248  15.690   4.135
47349W        W11282   0.299  10.657  13.923
47350W        W11283  33.575   1.837   2.368
47351W        W11284  31.956  39.986   2.705
47352W        W11285  11.630  23.654   2.708
47353W        W11286   4.889  22.111  12.097
47354W        W11287  37.847   0.478  14.467
47355W        W11288  22.658  19.673   0.260
47356W        W11289  44.481  42.792   1.793
47357W        W11290   3.802  15.791  13.542
47358W        W11291  19.776  37.336  12.506
47359W        W11292  12.726  30.554   0.392
47360W        W11293  12.783  31.029   1.820
47361W        W11294  21.031   4.940   0.390
47362W        W11295  17.144  19.071   0.362
47363W        W11296  15.317   3.757   0.960
47364W        W11297  33.599   1.482  12.091
47365W        W11298  44.419  13.246   0.938
47366W        W11299  23.172  36.574   1.359
47367W        W11300  10.636  23.089   1.354
47368W        W11301  40.978  25.500  13.407
47369W        W11302   9.664  29.575  13.464
47370W        W11303   6.692  36.556   1.754
47371W        W11304   9.742  40.942  12.493
47372W        W11305  30.451  18.573   2.347
47373W        W11306  18.261  24.131  12.467
47374W        W11307  15.642  24.031   4.830
47375W        W11308  33.415  28.057  12.909
47376W        W11309  16.169   1.404   1.929
47377W        W11310   1.349  11.340  14.326
47378W        W11311  35.043  41.304  14.302
47379W        W11312  14.337   4.379  12.923
47380W        W11313  29.004  43.404  12.497
47381W        W11314  26.143  38.331   4.148
47382W        W11315  30.496  26.537  12.016
47383W        W11316  11.708  39.996  14.017
47384W        W11317  40.343  16.759  14.810
47385W        W11318  33.480  25.654   3.299
47386W        W11319   0.805   1.761   2.765
47387W        W11320  40.010   6.379   1.439
47388W        W11321   2.831  31.640  12.417
47389W        W11322  16.249  24.697  12.065
47390W        W11323   9.352  38.941  11.586
47391W        W11324  42.436  35.957  13.360
47392W        W11325  37.347  18.197   1.434
47393W        W11326  31.949   6.822   1.335
47394W        W11327  34.082  22.208   3.221
47395W        W11328  31.561  37.449  12.383
47396W        W11329  29.018  15.212  14.994
47397W        W11330  42.029   3.905  14.951
47398W        W11331   9.667  28.590   4.314
47399W        W11332  32.454  39.406  13.833
47400W        W11333  29.653  43.857   3.283
47401W        W11334  28.962  26.651   0.863
47402W        W11335   6.252  14.767  12.860
47403W        W11336   1.248  28.955   3.353
47404W        W11337  12.181  43.878   3.766
47405W        W11338  23.138   8.780  11.544
47406W        W11339   9.645  43.954  12.352
47407W        W11340  11.341  18.092  11.010
47408W        W11341  18.723  33.886  11.979
47409W        W11342   4.223   6.798  11.905
47410W        W11343  22.553   3.392   3.161
47411W        W11344  13.786  27.539   3.816
47412W        W11345   7.212   2.394  11.444
47413W        W11346  37.364  41.445  12.418
47414W        W11347  29.156  43.276  13.513
47415W        W11348  36.375  26.463   4.736
47416W        W11349  28.937  38.482   3.686
47417W        W11350  27.620   1.743  14.915
47418W        W11351  27.119   0.794  10.604
47419W        W11352  25.662  22.044   1.279
47420W        W11353  10.192  38.914  13.808
47421W        W11354   3.948   0.750   1.705
47422W        W11355  11.776  35.546  11.466
47423W        W11356  15.804   8.388   0.863
47424W        W11357  12.777  38.895   0.260
47425W        W11358   3.452  35.493   4.754
47426W        W11359  11.747  25.491  14.869
47427W        W11360  24.517  41.853  13.865
47428W        W11361  44.496  31.996  14.317
47429W        W11362  29.513  19.083   3.794
47430W        W11363  25.091   3.721   1.213
47431W        W11364  27.483  10.273   2.806
47432W        W11365  24.065  41.841   1.333
47433W        W11366  20.665   4.880  14.792
47434W        W11367  17.557  21.635   4.213
47435W        W11368  11.182  39.481   2.721
47436W        W11369  38.486   3.251  11.472
47437W        W11370  23.722  34.917  12.841
47438W        W11371  39.452  24.045  11.509
47439W        W11372  42.332  16.299   0.731
47440W        W11373  15.631   8.689   4.602
47441W        W11374  41.532  32.024  12.046
47442W        W11375   8.348  33.464   2.736
47443W        W11376  14.803  29.521   2.255
47444W        W11377  43.764  13.804   2.823
47445W        W11378  43.432  11.662  13.311
47446W        W11379  16.739  37.426   9.929
47447W        W11380  34.117   9.840  10.408
47448W        W11381   6.332  28.532   4.830
47449W        W11382   2.357  35.451  13.324
47450W        W11383  27.183   5.353  12.548
47451W        W11384  20.730  14.779  11.384
47452W        W11385  26.100  12.273   2.894
47453W        W11386  37.970  30.428   2.801
47454W        W11387  32.929  35.537   1.807
47455W        W11388   5.883  26.990   1.282
47456W        W11389   6.706   6.915   3.657
47457W        W11390  30.596  30.924  12.485
47458W        W11391  37.525  39.412  10.477
47459W        W11392  42.026  42.508   3.246
47460W        W11393  16.142  12.182   1.920
47461W        W11394  16.133  14.163  12.038
47462W        W11395  14.230   9.228   1.362
47463W        W11396   6.387  23.537   0.815
47464W        W11397  31.033  34.994  13.858
47465W        W11398   0.372   8.683  12.909
47466W        W11399  24.132  32.931   1.245
47467W        W11400  24.584  16.168   4.671
47468W        W11401  25.487  21.133  14.371
47469W        W11402  15.273  21.235   3.296
47470W        W11403   6.840  40.430  11.888
47471W        W11404  25.063  37.392   9.954
47472W        W11405  17.632  28.629   1.781
47473W        W11406   2.956   1.263  12.867
47474W        W11407  25.052  20.193   1.886
47475W        W11408  21.156  19.103   0.318
47476W        W11409  30.608  31.531   1.880
47477W        W11410   4.413  15.757  12.879
47478W        W11411   2.778   8.383   1.828
47479W        W11412  26.984  44.861   3.775
47480W        W11413  30.065   8.703  12.893
47481W        W11414  30.477  24.200  12.478
47482W        W11415   3.338  43.899  11.379
47483W        W11416  42.787  13.138   0.296
47484W        W11417  34.490  18.135  14.985
47485W        W11418  41.919  30.129   0.771
47486W        W11419  24.984  11.149  12.906
47487W        W11420  30.441   2.965   2.840
47488W        W11421  40.037   1.943  10.904
47489W        W11422   4.349  20.177   3.151
47490W        W11423  30.099  18.174  13.460
47491W        W11424  26.084  14.204   2.202
47492W        W11425  33.428  39.899  10.083
47493W        W11426   9.665  17.746  12.043
47494W        W11427  43.403  13.337  14.395
47495W        W11428  41.970   6.879   0.814
47496W        W11429  22.566  41.303  10.050
47497W        W11430  36.417  28.134  10.030
47498W        W11431   8.286  24.617  11.029
47499W        W11432  30.909  43.009  12.061
47500W        W11433  43.960  23.506   2.321
47501W        W11434  39.395  39.436  10.586
47502W        W11435  17.778  32.949   1.292
47503W        W11436   3.335   4.913   4.232
47504W        W11437  35.888  42.812  11.492
47505W        W11438  24.003  18.644  14.443
47506W        W11439  17.153  15.117  12.091
47507W        W11440   7.202  34.368  10.633
47508W        W11441   0.481  11.233   4.227
47509W        W11442   2.939  39.976  14.405
47510W        W11443   6.876  17.218   4.287
47511W        W11444  21.537  12.651   0.865
47512W        W11445   0.971  13.306   0.352
47513W        W11446  15.088  36.954  10.639
47514W        W11447  23.539  37.077  13.404
47515W        W11448  29.158   1.399   1.864
47516W        W11449  19.621  11.147   4.210
47517W        W11450  34.938   3.743   3.763
47518W        W11451  37.073  40.379  13.915
47519W        W11452  21.109   5.304   4.663
47520W        W11453  40.325  25.490   0.828
47521W        W11454  17.674  40.866   2.685
47522W        W11455  11.820   9.771   4.300
47523W        W11456  34.879   2.343   3.792
47524W        W11457  33.082  25.652  12.096
47525W        W11458  21.712  10.168   2.341
47526W        W11459   2.840  12.345   1.448
47527W        W11460  12.171  19.589  13.801
47528W        W11461  34.576  33.523   3.257
47529W        W11462  17.254   3.757  10.597
47530W        W11463  32.435  27.054   0.959
47531W        W11464  20.173   6.373   1.441
47532W        W11465   7.880   1.787  13.947
47533W        W11466   7.397  35.518   0.847
47534W        W11467  42.415  12.341   3.656
47535W        W11468   2.934  37.839  12.862
47536W        W11469  38.076  29.922  10.598
47537W        W11470  34.580  10.152  12.921
47538W        W11471  31.586  37.959  12.500
47539W        W11472  15.153   0.835  13.507
47540W        W11473  10.680  44.491  14.859
47541W        W11474  11.303  27.089   0.328
47542W        W11475  21.227   9.182   4.795
47543W        W11476  36.902  26.006   1.436
47544W        W11477  25.080  32.892   2.253
47545W        W11478  20.069  34.995  11.551
47546W        W11479  34.571  17.116   1.242
47547W        W11480   9.713  34.421   3.224
47548W        W11481  12.732  11.251   1.730
47549W        W11482  20.558   5.281   4.745
47550W        W11483  25.028  22.099  11.521
47551W        W11484  17.585  26.547  11.877
47552W        W11485  39.367  14.605   4.325
47553W        W11486  14.779  11.813   3.303
47554W        W11487  36.497  44.459   4.136
47555W        W11488   8.865   5.198  11.889
47556W        W11489  28.041  41.827   1.805
47557W        W11490   7.712  17.114   4.650
47558W        W11491  22.515  43.345   2.690
47559W        W11492   4.334  14.260   0.265
47560W        W11493   2.240  19.261  11.920
47561W        W11494  33.080  29.599  11.109
47562W        W11495  15.200  31.462  14.915
47563W        W11496  29.457   8.762   0.909
47564W        W11497   0.343  44.900  13.062
47565W        W11498   0.858  19.105  12.502
47566W        W11499  41.311  10.212  11.068
47567W        W11500  28.676   0.918   4.144
47568W        W11501  22.009  22.705   4.616
47569W        W11502  36.029  40.406  12.411
47570W        W11503  23.158   3.870   2.332
47571W        W11504   2.956  28.449   3.329
47572W        W11505  15.135  18.130  11.496
47573W        W11506  40.823  18.072   4.636
47574W        W11507   6.902  21.146   0.870
47575W        W11508  33.488  40.979  13.949
47576W        W11509  19.261  32.102   2.857
47577W        W11510  26.653  41.925  11.010
47578W        W11511   4.371  27.660  10.506
47579W        W11512  32.581  27.691  11.517
47580W        W11513   3.763  44.895   4.208
47581W        W11514  37.045  39.818   0.965
47582W        W11515  35.546  43.785  14.355
47583W        W11516  10.349  27.502  14.353
47584W        W11517  27.114  33.590   2.323
47585W        W11518  21.525  19.100  12.357
47586W        W11519   9.689  24.007   3.232
47587W        W11520  21.119  37.947   3.212
47588W        W11521  18.266  11.837   1.315
47589W        W11522  26.990  32.625   1.878
47590W        W11523  27.590   1.258  12.853
47591W        W11524   3.421  35.583   4.242
47592W        W11525  31.440  22.249   3.738
47593W        W11526  38.473  14.160  13.398
47594W        W11527   1.280  20.614  12.910
47595W        W11528  35.573  43.398  13.993
47596W        W11529  19.260  10.163   2.229
47597W        W11530  25.161  19.640  10.970
47598W        W11531  37.051  11.354  12.951
47599W        W11532  10.773  13.324   4.295
47600W        W11533  39.952  23.710  12.567
47601W        W11534  22.162  19.197   4.192
47602W        W11535  18.775   6.823  14.934
47603W        W11536   4.941  18.156  10.920
47604W        W11537  27.043   0.753  11.520
47605W        W11538  28.558   3.287   2.808
47606W        W11539  26.684  27.986   2.786
47607W        W11540   6.769   0.794  13.467
47608W        W11541  13.635   6.878  12.388
47609W        W11542  24.985  22.742  13.812
47610W        W11543  21.054   6.348  12.937
47611W        W11544  30.946  28.055   1.348
47612W        W11545  27.598  18.774   4.134
47613W        W11546  35.072  27.531  13.040
47614W        W11547  36.996  39.516   0.872
47615W        W11548   0.782   7.798   5.122
47616W        W11549  33.381  42.463   1.809
47617W        W11550  35.591   3.333  11.121
47618W        W11551  26.654  31.470   2.859
47619W        W11552  39.063  43.420  11.102
47620W        W11553  31.455  16.673  10.925
47621W        W11554   4.718   6.848  12.839
47622W        W11555  35.371  31.991  12.870
47623W        W11556  39.863   4.231  11.041
47624W        W11557  32.425  26.070  12.366
47625W        W11558  17.656  32.635  11.899
47626W        W11559  14.614  41.362  13.367
47627W        W11560  42.486  23.592   4.247
47628W        W11561   7.317   7.735  14.317
47629W        W11562   9.656  25.985   4.716
47630W        W11563  31.061   3.725  11.924
47631W        W11564  12.126  43.497  11.590
47632W        W11565  36.050   0.475  11.480
47633W        W11566  19.272   5.283   2.259
47634W        W11567  30.511  23.603   1.231
47635W        W11568  40.976  41.796  12.926
47636W        W11569  15.241  23.719   4.797
47637W        W11570   8.749  27.674   3.845
47638W        W11571  42.846  25.067  10.522
47639W        W11572  36.363   0.769  13.373
47640W        W11573  16.094   6.418  13.477
47641W        W11574  30.562   7.749  10.563
47642W        W11575  32.098  12.156  14.510
47643W        W11576   6.264  23.573   2.795
47644W        W11577  33.898  22.560   3.808
47645W        W11578  23.068  41.803  13.964
47646W        W11579  29.537  24.155   4.158
47647W        W11580  16.167  29.569  14.500
47648W        W11581  42.462  12.788  13.520
47649W        W11582  10.245  11.763   4.307
47650W        W11583   4.908  10.797   1.867
47651W        W11584  34.590  16.575   2.215
47652W        W11585  35.904  30.485  12.082
47653W        W11586  36.353  36.371   0.473
47654W        W11587  27.472  32.424   0.471
47655W        W11588  28.630  42.459  14.769
47656W        W11589  28.160  40.987  14.341
47657W        W11590  35.041   7.793   0.440
47658W        W11591  38.360  30.466   3.182
47659W        W11592  44.291  23.181  11.548
47660W        W11593  22.149  13.798   3.250
47661W        W11594  28.676  24.595   2.777
47662W        W11595   3.226   1.322  14.430
47663W        W11596  25.137   0.785  12.041
47664W        W11597  41.837   8.202  10.994
47665W        W11598  11.623  24.636  11.894
47666W        W11599  25.505  14.316   1.837
47667W        W11600  41.968  18.580   0.921
47668W        W11601  37.421  14.154  11.462
47669W        W11602  26.162  26.605   2.694
47670W        W11603  34.015  24.629   4.229
47671W        W11604  17.296  41.418   5.138
47672W        W11605  34.062  15.802   3.870
47673W        W11606  15.645  12.129  13.804
47674W        W11607  42.475  27.531   0.859
47675W        W11608   8.741  15.305   2.745
47676W        W11609  28.669  21.693   0.805
47677W        W11610  41.800  34.384  13.015
47678W        W11611  37.336   5.876   0.903
47679W        W11612  39.831   4.862   4.636
47680W        W11613   4.800   8.751   0.344
47681W        W11614  25.549  14.770   1.300
47682W        W11615  17.654  41.375   4.123
47683W        W11616  18.078  40.334  11.123
47684W        W11617   3.900  40.500  14.796
47685W        W11618   8.733  22.123   4.710
47686W        W11619  42.389   8.405   1.905
47687W        W11620   3.945  25.701  10.927
47688W        W11621  18.113  44.379   1.427
47689W        W11622  42.939  16.686  12.559
47690W        W11623  18.235  41.309   4.715
47691W        W11624  32.472  15.115  11.411
47692W        W11625  44.949  22.148  14.816
47693W        W11626  32.446  28.000   4.204
47694W        W11627   1.425  21.695  12.072
47695W        W11628   7.373  23.734  13.317
47696W        W11629  40.495  28.596  10.507
47697W        W11630  39.025  10.741   4.623
47698W        W11631  15.218   7.728   0.832
47699W        W11632  39.057  22.626  12.043
47700W        W11633  11.347  24.994   3.653
47701W        W11634  17.224  16.301   1.289
47702W        W11635  34.586  25.610   0.904
47703W        W11636   3.233  20.665  12.460
47704W        W11637   7.276  40.962   0.918
47705W        W11638   5.369  39.489  12.970
47706W        W11639  34.989  28.564  12.863
47707W        W11640  25.642  19.705  13.475
47708W        W11641  21.127  41.026   2.779
47709W        W11642  23.664  11.307   3.856
47710W        W11643  16.165  31.430   1.772
47711W        W11644  20.687  25.564   1.252
47712W        W11645  37.037  24.690   3.712
47713W        W11646   2.242   7.831  14.767
47714W        W11647  20.651   8.672   1.426
47715W        W11648  33.466  36.869  10.559
47716W        W11649   4.259  20.556   2.380
47717W        W11650  29.954  32.085   1.829
47718W        W11651  30.441  40.862  14.353
47719W        W11652  43.448   8.880   2.725
47720W        W11653  13.125  16.716   4.120
47721W        W11654   7.314  25.631   0.824
47722W        W11655  19.221  20.152   3.798
47723W        W11656  43.320   9.850  11.932
47724W        W11657  18.105  32.000  14.002
47725W        W11658   1.953  35.958  12.855
47726W        W11659  40.807  25.043  10.436
47727W        W11660  21.600  23.013  14.320
47728W        W11661  11.650  18.083  13.816
47729W        W11662  32.419  43.405  13.973
47730W        W11663  27.621  32.133   3.731
47731W        W11664  19.169  33.529   2.288
47732W        W11665  14.824   6.261   2.790
47733W        W11666   5.311  23.589   2.191
47734W        W11667  32.017  30.073  12.376
47735W        W11668   1.275  26.612  12.516
47736W        W11669  23.532   9.247   4.712
47737W        W11670  12.676  17.225   3.369
47738W        W11671  21.644  22.614  12.903
47739W        W11672  12.151  37.846  13.895
47740W        W11673  18.679  42.425  12.530
47741W        W11674  36.852  25.115  12.925
47742W        W11675  28.113  42.452   4.787
47743W        W11676  27.681  27.151  13.517
47744W        W11677  13.151  23.518   3.678
47745W        W11678  41.379  38.335  14.402
47746W        W11679   6.276  30.054   4.706
47747W        W11680  40.367  11.798   1.782
47748W        W11681  38.035   3.762   3.208
47749W        W11682  34.458  33.464  10.914
47750W        W11683  42.364  10.337   0.823
47751W        W11684  17.173  42.857   4.721
47752W        W11685  12.163  11.278   2.889
47753W        W11686   2.371  19.096  10.443
47754W        W11687   3.821   5.900  10.987
47755W        W11688  16.117  29.117   1.234
47756W        W11689   0.283  43.832   4.711
47757W        W11690   4.748  29.545  14.824
47758W        W11691  14.128   8.227  10.494
47759W        W11692  13.333   0.291  10.072
47760W        W11693  35.560  37.338   3.210
47761W        W11694  24.519  25.081  10.995
47762W        W11695   6.743  24.103   0.955
47763W        W11696  23.587   2.455  14.463
47764W        W11697  43.869  17.689   3.219
47765W        W11698  29.488  25.094  14.274
47766W        W11699  12.783  43.389   4.807
47767W        W11700   9.670  27.131   1.750
47768W        W11701  30.447  41.391  11.126
47769W        W11702  21.649  30.456   2.335
47770W        W11703  10.850  23.188   3.688
47771W        W11704  16.149  32.890  11.511
47772W        W11705  10.876  23.599  14.458
47773W        W11706  17.123   6.681  14.911
47774W        W11707  43.918  37.846  11.612
47775W        W11708  40.856  15.749  14.811
47776W        W11709  23.179  44.467  11.405
47777W        W11710   2.811  41.003  13.828
47778W        W11711  40.877  14.159  11.548
47779W        W11712  15.652  19.128   2.817
47780W        W11713   0.459  24.080   3.829
47781W        W11714  21.020  25.593   0.793
47782W        W11715   6.817  32.004   0.429
47783W        W11716  30.100  35.368  12.825
47784W        W11717  11.245  14.124   3.846
47785W        W11718  38.332  32.391   1.308
47786W        W11719   0.427  11.670  14.801
47787W        W11720  24.984   3.270   3.660
47788W        W11721  12.793  20.569  14.480
47789W        W11722  34.595   9.855   2.755
47790W        W11723   6.731  44.426  10.429
47791W        W11724  24.684  37.493   3.841
47792W        W11725  26.532   2.336   5.321
47793W        W11726  29.536  16.283  10.936
47794W        W11727  18.732   8.841  14.428
47795W        W11728   0.331   6.776   3.261
47796W        W11729   7.263   6.696  10.500
47797W        W11730  28.976  43.375  14.958
47798W        W11731  29.610  37.890   1.370
47799W        W11732  36.917  37.377  12.946
47800W        W11733  28.172  18.177   4.804
47801W        W11734  15.797  13.117  10.571
47802W        W11735  33.563  28.536   0.831
47803W        W11736  28.125  26.981   2.404
47804W        W11737  33.535  23.230  14.025
47805W        W11738  21.532  39.453   1.428
47806W        W11739   5.905  40.010  12.483
47807W        W11740   8.402   5.207  10.527
47808W        W11741  16.101  21.231   1.907
47809W        W11742  40.445  44.810  11.438
47810W        W11743  26.099  36.549   0.429
47811W        W11744  36.477  16.266   4.710
47812W        W11745  34.995  40.484   0.307
47813W        W11746  42.430  13.254   1.266
47814W        W11747   2.951   3.771   1.212
47815W        W11748  28.008   8.209   3.701
47816W        W11749   9.783   2.327   1.877
47817W        W11750   8.289   5.374   1.403
47818W        W11751  25.016  31.987  11.868
47819W        W11752  25.120  33.445  10.966
47820W        W11753   8.781  35.560  10.458
47821W        W11754  40.988  37.478   0.354
47822W        W11755   0.384  23.149   3.667
47823W        W11756  35.532  37.845  10.540
47824W        W11757  12.293  12.145  11.978
47825W        W11758  38.489  20.100  10.461
47826W        W11759  32.087   5.811   1.449
47827W        W11760  38.399  22.740   2.414
47828W        W11761  23.026  29.497   2.358
47829W        W11762  14.751  19.231  11.387
47830W        W11763  38.365  16.629   0.297
47831W        W11764  43.501  44.852   1.210
47832W        W11765   3.239   7.385  10.990
47833W        W11766  40.526  42.409  10.968
47834W        W11767  40.993  35.569  12.901
47835W        W11768  37.407  31.934  12.014
47836W        W11769  16.808  15.659   2.827
47837W        W11770  19.780  25.698   4.806
47838W        W11771  30.045   1.949   2.363
47839W        W11772  34.396  10.241  12.445
47840W        W11773  14.605  35.982  14.315
47841W        W11774  21.225   5.440  13.063
47842W        W11775  14.215  20.534  14.356
47843W        W11776  12.249   9.316  11.898
47844W        W11777   6.689  14.258   2.400
47845W        W11778   0.834   9.791   4.815
47846W        W11779  20.159  25.644   3.373
47847W        W11780  25.614  14.758   2.764
47848W        W11781  16.622  22.048  14.464
47849W        W11782  16.230  22.633  11.453
47850W        W11783   6.842  13.617   9.565
47851W        W11784  21.693  15.097   0.796
47852W        W11785  40.955  44.346  13.832
47853W        W11786  42.980  44.790   2.291
47854W        W11787  18.581   3.300   1.798
47855W        W11788   9.202  14.278   2.226
47856W        W11789   2.829  40.541  13.374
47857W        W11790  33.881  39.534   2.204
47858W        W11791  19.182   6.301   2.332
47859W        W11792  38.989  26.546  12.420
47860W        W11793  16.739  14.775   2.872
47861W        W11794  27.468   1.463   4.760
47862W        W11795  28.013  20.157  10.942
47863W        W11796  39.446  40.508   3.847
47864W        W11797  23.100  20.767   3.317
47865W        W11798   7.752  40.831  14.431
47866W        W11799  18.587   6.244  14.882
47867W        W11800   4.754  26.127   0.735
47868W        W11801  36.061  36.401  12.960
47869W        W11802  13.685  22.995   3.213
47870W        W11803   5.749  15.765   4.744
47871W        W11804  29.647  37.532  14.428
47872W        W11805  25.204   1.295  12.464
47873W        W11806  20.541   2.729  14.760
47874W        W11807  36.422   8.239  14.441
47875W        W11808  43.345  38.996  11.509
47876W        W11809  42.827  14.712  13.957
47877W        W11810   8.315  21.062   0.886
47878W        W11811  30.444  35.967  13.351
47879W        W11812  13.296   9.816  13.437
47880W        W11813  36.511  16.085   4.307
47881W        W11814   4.270  12.820   4.240
47882W        W11815  33.466  33.406  14.460
47883W        W11816  19.754  39.368   1.797
47884W        W11817  27.672  29.135   2.359
47885W        W11818  23.004  30.534   1.740
47886W        W11819  13.831  12.293   3.639
47887W        W11820   3.931   4.422   0.925
47888W        W11821  31.130  14.304  13.999
47889W        W11822  25.965  21.719  13.016
47890W        W11823  27.144  42.387   1.448
47891W        W11824  32.969  34.924  14.399
47892W        W11825   3.911  13.145  12.458
47893W        W11826  26.665  11.139   3.714
47894W        W11827  23.496  23.689   1.451
47895W        W11828   4.771  33.611  12.049
47896W        W11829  26.967  17.138   0.474
47897W        W11830  10.153   7.893   0.739
47898W        W11831  17.247  38.409   5.274
47899W        W11832  16.299  31.588   2.398
47900W        W11833  38.328  26.599   0.947
47901W        W11834  39.060  20.553  13.448
47902W        W11835  36.962  41.315  14.949
47903W        W11836  19.663   1.277  11.113
47904W        W11837   4.270  34.965  13.507
47905W        W11838   1.481  28.939   2.308
47906W        W11839  30.908  27.535  12.503
47907W        W11840  23.496  35.509  11.374
47908W        W11841  32.907  32.998  10.926
47909W        W11842  39.869   9.887   1.867
47910W        W11843  22.685  12.793   2.680
47911W        W11844  31.614  33.579  11.373
47912W        W11845  23.720  26.467  12.879
47913W        W11846  31.958   7.174  14.874
47914W        W11847   2.379  27.524  10.638
47915W        W11848   7.413  14.685   2.662
47916W        W11849   4.832  30.981   2.379
47917W        W11850  27.535  34.535   0.831
47918W        W11851  31.038  38.507   3.722
47919W        W11852  21.578   6.283  14.312
47920W        W11853  28.434  19.592   3.349
47921W        W11854  26.992   2.252  13.031
47922W        W11855  13.840  17.682  11.059
47923W        W11856  41.003  36.350  11.419
47924W        W11857  36.862  29.576   4.213
47925W        W11858  31.521  42.779  14.804
47926W        W11859  25.189  29.501  12.919
47927W        W11860   1.336  44.317  11.116
47928W        W11861  24.047  23.597  13.490
47929W        W11862  31.047  32.069   2.867
47930W        W11863  33.900  42.414   1.853
47931W        W11864  21.592   9.229  11.112
47932W        W11865  35.545  15.628   3.375
47933W        W11866  29.965  24.194  13.021
47934W        W11867  42.838  22.657   1.709
47935W        W11868  18.248  34.575  14.927
47936W        W11869  12.804  27.008  11.411
47937W        W11870   3.884   5.373   2.782
47938W        W11871  22.212  43.514   4.314
47939W        W11872   2.444  29.995  11.041
47940W        W11873  13.231  12.314  14.293
47941W        W11874   7.325  39.033  14.510
47942W        W11875  34.099   7.257   4.734
47943W        W11876  10.802  25.164  14.985
47944W        W11877  27.539  12.122   0.788
47945W        W11878  42.960  40.843  14.022
47946W        W11879  18.155  10.325  12.385
47947W        W11880   1.844  26.540  12.937
47948W        W11881  39.923   4.733   0.360
47949W        W11882  35.080  14.102   3.776
47950W        W11883  27.178  29.567  12.985
47951W        W11884  44.373  36.364  14.901
47952W        W11885  31.631  19.242   1.342
47953W        W11886  39.352  20.607   0.319
47954W        W11887  36.568  30.981   4.698
47955W        W11888  22.626  20.269  14.953
47956W        W11889  23.230   3.807  12.905
47957W        W11890  27.132  40.403   3.323
47958W        W11891  15.708  26.099   2.888
47959W        W11892  21.620  43.471  13.386
47960W        W11893  32.434  40.842   1.353
47961W        W11894  25.079  25.495  10.920
47962W        W11895  41.874  42.388  13.921
47963W        W11896  18.099  34.900  14.350
47964W        W11897   9.784   9.746  13.034
47965W        W11898  12.777  28.131   1.754
47966W        W11899   4.418  23.018  14.846
47967W        W11900  30.136  30.075  11.001
47968W        W11901  13.244  33.131   2.864
47969W        W11902   4.822  38.049   0.864
47970W        W11903  19.738  15.625   0.462
47971W        W11904  42.429  18.553  13.506
47972W        W11905  27.049   1.448   5.119
47973W        W11906  26.601  35.002  14.396
47974W        W11907  22.019  12.173   4.614
47975W        W11908  15.279  16.652   2.726
47976W        W11909  44.965  17.248  12.012
47977W        W11910  29.070  12.846  11.885
47978W        W11911   9.220  28.131  14.766
47979W        W11912  39.393  12.685   3.657
47980W        W11913  40.009  11.353  12.377
47981W        W11914  31.003   3.247   1.908
47982W        W11915   8.236  36.082   1.848
47983W        W11916  18.720  34.567  12.036
47984W        W11917  37.855  43.925   4.821
47985W        W11918  11.373  32.530  11.581
47986W        W11919  24.658  41.988   0.408
47987W        W11920   9.864  24.528   1.736
47988W        W11921   7.330   8.239  11.115
47989W        W11922  32.479   8.392   2.679
47990W        W11923   3.273   1.280  13.864
47991W        W11924  25.664  35.421   4.831
47992W        W11925  44.487   5.242  11.583
47993W        W11926  10.658  15.660  12.433
47994W        W11927  32.446  22.649   4.808
47995W        W11928  24.160   3.306   3.201
47996W        W11929  33.571  39.337   2.858
47997W        W11930  13.293   7.247   5.286
47998W        W11931   1.368  11.697   2.763
47999W        W11932   1.912  20.076   0.874
48000W        W11933  23.500   0.384  14.987
48001W        W11934   6.801  37.367  10.921
48002W        W11935   1.950   1.262  10.560
48003W        W11936  16.175  17.219   0.472
48004W        W11937   8.312  29.594   1.871
48005W        W11938   0.766  11.864   3.342
48006W        W11939  30.524  17.130  10.988
48007W        W11940  12.170  13.766  11.074
48008W        W11941  33.007   3.824   2.830
48009W        W11942  10.224  41.847  12.921
48010W        W11943  42.522  31.023   3.867
48011W        W11944  24.496   0.868   4.252
48012W        W11945  31.424  13.792  12.896
48013W        W11946  13.240  39.434   0.859
48014W        W11947  41.403  39.987   3.167
48015W        W11948  23.583   4.211  10.426
48016W        W11949  15.165  20.582  10.420
48017W        W11950  18.548   4.793   3.160
48018W        W11951  13.213  12.835  11.967
48019W        W11952   6.298  32.958   1.746
48020W        W11953  31.127  10.224  12.535
48021W        W11954   5.270  26.513  10.624
48022W        W11955  44.829  40.972   4.785
48023W        W11956  41.902   0.265  13.908
48024W        W11957  21.633  19.247  13.483
48025W        W11958  21.671  12.132  11.009
48026W        W11959  36.913  31.465   3.296
48027W        W11960   1.782  43.799   1.754
48028W        W11961  33.029   0.743   4.300
48029W        W11962  17.699  25.558   3.281
48030W        W11963   9.235  15.147   0.901
48031W        W11964  23.674  32.997   3.251
48032W        W11965  10.678  15.266   1.399
48033W        W11966   5.252  35.918   0.275
48034W        W11967  33.571  15.578  14.342
48035W        W11968  36.017   2.419  12.024
48036W        W11969  28.551   9.759   1.324
48037W        W11970  35.535   1.415   3.793
48038W        W11971  29.662  33.545  13.979
48039W        W11972  35.868  17.141  12.908
48040W        W11973  29.598  32.082  12.005
48041W        W11974  22.218  11.284   5.274
48042W        W11975  24.188   1.793  14.446
48043W        W11976  29.967  28.030   1.877
48044W        W11977   4.434  44.883   2.258
48045W        W11978  14.293  27.595  12.829
48046W        W11979   1.326   8.239  12.944
48047W        W11980  11.683  20.530  13.858
48048W        W11981  12.712  28.545  14.903
48049W        W11982  40.928  40.941   4.258
48050W        W11983  28.181  25.211  11.004
48051W        W11984  18.173  14.694  13.307
48052W        W11985  17.305   2.804   1.744
48053W        W11986  13.126  30.130  14.805
48054W        W11987  11.797   0.961   4.260
48055W        W11988  31.421   5.885  12.064
48056W        W11989  39.519  22.211  11.528
48057W        W11990  25.152  43.785  12.905
48058W        W11991   7.788   6.380  13.841
48059W        W11992  17.739   8.738   3.824
48060W        W11993  34.895  35.071   2.408
48061W        W11994  31.087  24.675   0.789
48062W        W11995  15.096  40.325   1.214
48063W        W11996  21.560  44.926   2.230
48064W        W11997  23.182  39.358  11.430
48065W        W11998  38.032  24.668   1.847
48066W        W11999  44.481  18.150  10.416
48067W        W12000  31.110   9.197   3.300
48068W        W12001   3.300  12.782  13.915
48069W        W12002  30.939   3.801   2.710
48070W        W12003   3.932  32.096   2.885
48071W        W12004  27.477  36.403   3.789
48072W        W12005  42.890   1.818  12.386
48073W        W12006  18.150   9.694   4.753
48074W        W12007  21.620  40.521  11.555
48075W        W12008   3.216  22.188  12.075
48076W        W12009  18.618  25.017  11.862
48077W        W12010  29.121  43.340   4.205
48078W        W12011  37.407  18.100  11.080
48079W        W12012   1.787  31.577   4.803
48080W        W12013  38.439  15.693  11.573
48081W        W12014  27.180  21.100   3.253
48082W        W12015  26.014  41.809   4.808
48083W        W12016  43.886  34.883  12.386
48084W        W12017   5.841   8.195  13.816
48085W        W12018  35.873  34.077   2.877
48086W        W12019   6.921  10.202   0.916
48087W        W12020  13.180   9.656   2.890
48088W        W12021  33.982  41.956  14.498
48089W        W12022  22.706  31.116   2.819
48090W        W12023  30.506  12.341  13.547
48091W        W12024  31.134  24.632   2.306
48092W        W12025  37.960  26.578   2.182
48093W        W12026  25.607   3.768  13.920
48094W        W12027  15.751  17.085  10.462
48095W        W12028  16.655   7.820   3.305
48096W        W12029  17.610  37.893   0.350
48097W        W12030  29.947  15.799  13.817
48098W        W12031  14.705  12.236  14.339
48099W        W12032   6.865   9.333   3.868
48100W        W12033  44.414   5.247   3.244
48101W        W12034  32.991   3.423  11.006
48102W        W12035  42.441  12.627  13.917
48103W        W12036  31.147   4.791  11.994
48104W        W12037  21.721  19.160   0.800
48105W        W12038   9.182   6.691  13.428
48106W        W12039   3.743  31.091  11.522
48107W        W12040  44.838  23.670   2.814
48108W        W12041   2.927  31.472   0.844
48109W        W12042   1.422  38.905  10.982
48110W        W12043   8.742  42.392   4.679
48111W        W12044  30.569  15.728  10.931
48112W        W12045  32.457  27.631   1.433
48113W        W12046   3.237  18.274  14.010
48114W        W12047  22.641  40.035  12.942
48115W        W12048  18.577  28.656   3.691
48116W        W12049  19.106   6.682   4.683
48117W        W12050  12.245   8.406  12.365
48118W        W12051  19.267  11.809  12.560
48119W        W12052  33.998  37.467  14.393
48120W        W12053   0.946  16.089  10.571
48121W        W12054  30.111  39.528  14.315
48122W        W12055   2.263  16.277   9.644
48123W        W12056   1.350  22.016   0.792
48124W        W12057  39.004   8.736  12.362
48125W        W12058  40.524  12.314   3.785
48126W        W12059   8.380  29.923  14.509
48127W        W12060  10.202  43.011  11.536
48128W        W12061   7.767  20.070   1.924
48129W        W12062   9.881  40.054  11.946
48130W        W12063  20.712  33.408   1.410
48131W        W12064  18.057  24.575   2.337
48132W        W12065   2.442  11.310   0.273
48133W        W12066  16.698   0.272  10.439
48134W        W12067  16.193   0.925   4.322
48135W        W12068  44.976   7.323  14.476
48136W        W12069   0.957  27.186  11.483
48137W        W12070  20.081  29.980  13.447
48138W        W12071  17.761  30.908  10.637
48139W        W12072  11.276   9.199   2.720
48140W        W12073  40.868  17.236  13.010
48141W        W12074   4.240  22.716  12.382
48142W        W12075  23.565  29.986  14.293
48143W        W12076  21.134   5.343  14.394
48144W        W12077   8.360  17.693   0.418
48145W        W12078  22.526  15.741   4.186
48146W        W12079  32.940   8.662   0.828
48147W        W12080  30.488  27.596  14.385
48148W        W12081   1.477   5.895  13.889
48149W        W12082  14.660  27.559   2.358
48150W        W12083  27.980   0.325  13.799
48151W        W12084  37.938  29.928  13.054
48152W        W12085  36.411   6.367  13.905
48153W        W12086  12.757   9.876   1.736
48154W        W12087  32.018  38.337   2.253
48155W        W12088  17.791  36.449   3.210
48156W        W12089  30.436  33.423  14.510
48157W        W12090   4.295   9.692  11.459
48158W        W12091  37.438  40.820  11.994
48159W        W12092  39.986   1.282   3.657
48160W        W12093  16.279   9.207   1.364
48161W        W12094   6.890   4.800   0.339
48162W        W12095  12.753   3.760  13.444
48163W        W12096  11.223  24.185  11.995
48164W        W12097  36.568  15.167   0.823
48165W        W12098  16.282  29.612  12.506
48166W        W12099  32.539  37.998  11.496
48167W        W12100  33.118  29.104  14.384
48168W        W12101   7.736  40.407   4.678
48169W        W12102  41.952   5.746   2.769
48170W        W12103  14.625  43.893  14.435
48171W        W12104   9.823  36.026  10.523
48172W        W12105  37.520  35.909  10.424
48173W        W12106  41.536   8.713   3.702
48174W        W12107  39.812  39.344  14.863
48175W        W12108   1.352  19.705  14.284
48176W        W12109  20.242  10.640   1.847
48177W        W12110   1.240  32.973   3.796
48178W        W12111  33.489  11.201  12.965
48179W        W12112   0.396  27.692  13.405
48180W        W12113  44.355   8.312   4.791
48181W        W12114  11.798  37.504   2.861
48182W        W12115  43.982  37.413  12.538
48183W        W12116  13.303  26.603   4.756
48184W        W12117  34.969  16.207   0.296
48185W        W12118  38.367  29.084   0.466
48186W        W12119  42.802  10.766   4.175
48187W        W12120  42.884  39.318   2.249
48188W        W12121  14.266  44.897  11.857
48189W        W12122  42.357  27.619   3.833
48190W        W12123  17.089   5.775  12.947
48191W        W12124  10.687  18.704  14.995
48192W        W12125  39.851  17.691   1.451
48193W        W12126  22.545  36.998  14.924
48194W        W12127  17.137  39.976   0.400
48195W        W12128  27.480  16.770   0.454
48196W        W12129   1.255  23.160  10.424
48197W        W12130  21.536  31.511   1.433
48198W        W12131  23.149  32.482  13.982
48199W        W12132  31.021  15.715  14.772
48200W        W12133  16.722  28.126   1.840
48201W        W12134   6.188  35.404   3.688
48202W        W12135   0.379   5.239  11.470
48203W        W12136  35.480  32.980   1.916
48204W        W12137   7.675  25.689  13.362
48205W        W12138  34.868  36.377  12.841
48206W        W12139  33.102  38.948   0.400
48207W        W12140  36.076  34.496  13.895
48208W        W12141   8.671  26.000   0.844
48209W        W12142   8.299   7.713   3.236
48210W        W12143  43.400  33.393  10.954
48211W        W12144   3.389   2.859  14.342
48212W        W12145  25.657  13.701   1.789
48213W        W12146  17.180  21.063   3.337
48214W        W12147  40.010  23.071  11.987
48215W        W12148  28.956  17.657   0.291
48216W        W12149  15.804  20.533  11.449
48217W        W12150  40.891   8.182   2.370
48218W        W12151  14.148  44.281   2.345
48219W        W12152  40.322   2.928  11.066
48220W        W12153  12.143  18.546  12.046
48221W        W12154  11.358  34.055   4.300
48222W        W12155  25.192  30.106   1.306
48223W        W12156  16.181   9.688   4.610
48224W        W12157  21.551  30.150  13.326
48225W        W12158  42.525  17.127   3.666
48226W        W12159  25.572   5.764  13.816
48227W        W12160  12.212  43.883  14.861
48228W        W12161  30.059  23.986   3.367
48229W        W12162  27.474   7.234   1.218
48230W        W12163  37.513  25.036   4.224
48231W        W12164  33.970  25.548  11.857
48232W        W12165   5.847  15.762  10.499
48233W        W12166  10.217  25.164   2.775
48234W        W12167  33.557  24.993  12.944
48235W        W12168  39.458   6.339  11.006
48236W        W12169  39.051   7.324  13.525
48237W        W12170   2.913  19.263   1.358
48238W        W12171  20.144  20.178  13.827
48239W        W12172   9.360  17.728   4.818
48240W        W12173   0.869  27.091  14.924
48241W        W12174  16.683  28.075   0.467
48242W        W12175  19.610   8.674   4.222
48243W        W12176  12.617  18.267  14.890
48244W        W12177  15.229  24.222  10.611
48245W        W12178  10.303   9.395  13.524
48246W        W12179  42.897  13.727  11.412
48247W        W12180  22.110  18.203  12.948
48248W        W12181  19.641  23.551  12.998
48249W        W12182  10.214   6.261   5.290
48250W        W12183  43.358  32.572   3.757
48251W        W12184   3.456  19.676  13.328
48252W        W12185  18.075  43.472   3.666
48253W        W12186  23.660  35.870   1.431
48254W        W12187   0.940  32.009  10.050
48255W        W12188  28.566   8.169  14.937
48256W        W12189  37.842  42.480   2.337
48257W        W12190  37.931   5.829  12.511
48258W        W12191  25.152  10.239   0.356
48259W        W12192   1.788  16.215  10.038
48260W        W12193  16.736  23.698   4.599
48261W        W12194  23.726  37.057   4.173
48262W        W12195  28.068   9.867   1.366
48263W        W12196  20.699  25.660   4.291
48264W        W12197  21.545   7.274  11.556
48265W        W12198  31.565   4.846   0.907
48266W        W12199  13.318  26.146   1.927
48267W        W12200  14.096  33.489   0.845
48268W        W12201  12.783  38.502  13.931
48269W        W12202  33.462   9.247  11.991
48270W        W12203  33.083  21.611   2.735
48271W        W12204  36.575   5.888   1.323
48272W        W12205   0.886  28.162   4.629
48273W        W12206  26.493   7.317   0.322
48274W        W12207  17.715   9.794  14.481
48275W        W12208  42.933   7.805   2.346
48276W        W12209  25.113  38.401   1.336
48277W        W12210  25.482  26.515   2.213
48278W        W12211   8.780  30.546  10.977
48279W        W12212  23.632  22.604   4.781
48280W        W12213  32.972  14.770  12.838
48281W        W12214  34.870   0.385   1.700
48282W        W12215  25.157   9.200  10.965
48283W        W12216  35.023  17.589   3.695
48284W        W12217  28.120  18.614  12.033
48285W        W12218  14.141  44.308  14.908
48286W        W12219  40.367  13.292   3.789
48287W        W12220  42.314  33.054   3.339
48288W        W12221  19.095   3.857   3.848
48289W        W12222  27.476  39.827  13.333
48290W        W12223  13.725  27.595   0.967
48291W        W12224  12.223  18.614   1.304
48292W        W12225  21.024  21.092   1.713
48293W        W12226  15.329  12.226  10.544
48294W        W12227  31.439  26.979   4.815
48295W        W12228   7.763   1.421  10.991
48296W        W12229  40.346  41.920  10.545
48297W        W12230  13.674   0.478   3.736
48298W        W12231  26.478  21.623  13.367
48299W        W12232  40.920   1.807  12.908
48300W        W12233  20.760  10.774   0.289
48301W        W12234  41.296  24.160  13.427
48302W        W12235  14.130  17.115  12.833
48303W        W12236  27.684   5.740   2.334
48304W        W12237   8.780   5.366   0.330
48305W        W12238  20.599  40.979  10.891
48306W        W12239  12.763  23.124   3.724
48307W        W12240  34.464  22.209   4.758
48308W        W12241   0.940   1.377  14.807
48309W        W12242  24.510  28.929   1.752
48310W        W12243   5.257  18.116   1.315
48311W        W12244   9.694   0.812   0.283
48312W        W12245  36.493  26.016   0.838
48313W        W12246  22.053  38.376   0.329
48314W        W12247  33.423  22.608   1.913
48315W        W12248  17.755  20.720  10.585
48316W        W12249   8.841   0.479   1.274
48317W        W12250  15.715  11.806   4.221
48318W        W12251  18.191  27.044  14.973
48319W        W12252   0.441  17.130  14.345
48320W        W12253  35.580  44.495   1.260
48321W        W12254   0.334  32.132  11.953
48322W        W12255  13.843  20.667  12.386
48323W        W12256  20.162  17.688   3.150
48324W        W12257   2.905  17.188   3.683
48325W        W12258  26.484  18.565   3.268
48326W        W12259  39.881  41.837   4.623
48327W        W12260  18.231   1.254   3.310
48328W        W12261  43.838  33.043  13.006
48329W        W12262  26.193  14.606  10.943
48330W        W12263   7.361   5.411  13.468
48331W        W12264   5.265  14.632   1.303
48332W        W12265  35.564  13.294  14.827
48333W        W12266   8.873  12.784  10.957
48334W        W12267  38.457   6.890  13.422
48335W        W12268   0.395  24.524   2.682
48336W        W12269   1.284  18.178   4.159
48337W        W12270  17.684  42.432  14.469
48338W        W12271  28.131  36.480   0.919
48339W        W12272  16.693  36.982  10.974
48340W        W12273   5.787  31.923   3.158
48341W        W12274  25.106  41.944   0.452
48342W        W12275  25.185  13.604   1.885
48343W        W12276   3.916  44.955  13.050
48344W        W12277  22.714   0.768   0.826
48345W        W12278  31.513  22.679  10.959
48346W        W12279  38.380  36.575   0.850
48347W        W12280   8.682  37.936  11.930
48348W        W12281  11.316  42.902  14.956
48349W        W12282  43.428  15.309  13.398
48350W        W12283  39.404  33.560  12.447
48351W        W12284  40.001   9.797   2.778
48352W        W12285  12.834  44.366   0.329
48353W        W12286   2.734   9.302  13.849
48354W        W12287   7.852  28.555  12.921
48355W        W12288  17.173  23.553   1.394
48356W        W12289   6.354  22.597   4.162
48357W        W12290  28.675  42.343  10.908
48358W        W12291  12.344  32.541   0.802
48359W        W12292   1.392   2.248   3.174
48360W        W12293  26.008  21.148  13.941
48361W        W12294  13.789  29.162   1.361
48362W        W12295   9.360  32.969   3.289
48363W        W12296  21.122   6.324   3.721
48364W        W12297  42.844  27.595   4.806
48365W        W12298  37.913   6.367   4.330
48366W        W12299  18.786  32.090   0.947
48367W        W12300  42.511   5.853   2.215
48368W        W12301   7.223  29.591  12.066
48369W        W12302  27.184   2.721   3.818
48370W        W12303  18.641  26.090   0.438
48371W        W12304  39.010   5.815  12.539
48372W        W12305  17.304  21.139   9.942
48373W        W12306  36.842  37.844  11.944
48374W        W12307   4.389  35.586   2.684
48375W        W12308  25.165   2.907  12.348
48376W        W12309   5.388  23.140  13.345
48377W        W12310  28.114  43.377  14.427
48378W        W12311   7.394  16.301   0.258
48379W        W12312  30.021   8.181  11.465
48380W        W12313  39.062  39.331   0.325
48381W        W12314  10.759  33.556  12.447
48382W        W12315  24.603  38.331   1.356
48383W        W12316  27.138   4.919  14.514
48384W        W12317  12.773   9.801  14.927
48385W        W12318  11.243  23.130  12.491
48386W        W12319  18.075   1.338   2.706
48387W        W12320  31.416  43.367   3.236
48388W        W12321   3.284  31.911  11.932
48389W        W12322  23.218   9.834  11.492
48390W        W12323  40.351  29.013  10.462
48391W        W12324  32.536  44.940  13.967
48392W        W12325  17.173  28.573  11.536
48393W        W12326   2.780  34.503   1.883
48394W        W12327  16.652  38.949   2.712
48395W        W12328  44.436   3.232  11.385
48396W        W12329  36.897  17.181  11.498
48397W        W12330  15.598  34.990   2.878
48398W        W12331  36.562  23.517   3.691
48399W        W12332   8.855   3.866  10.414
48400W        W12333  26.517  32.980   1.913
48401W        W12334  29.920  36.951   0.797
48402W        W12335   4.882   4.769   5.125
48403W        W12336  21.159  39.527   2.369
48404W        W12337   9.179  42.932  11.103
48405W        W12338  39.935  11.255  13.509
48406W        W12339  17.645   6.859   0.754
48407W        W12340  30.018  25.551   2.293
48408W        W12341  13.194   5.812   2.353
48409W        W12342  26.641  19.622   2.730
48410W        W12343  19.283  13.145  13.040
48411W        W12344  33.436  11.273  14.903
48412W        W12345  36.896  27.072  13.951
48413W        W12346  38.994  21.628   0.291
48414W        W12347  17.127   3.441   2.756
48415W        W12348  33.045  22.242  10.590
48416W        W12349   7.691   8.207   4.639
48417W        W12350  33.492  33.118   3.358
48418W        W12351  16.678  17.075   1.897
48419W        W12352  43.379   0.893  10.517
48420W        W12353  24.517  16.088   3.763
48421W        W12354  39.839  13.828   1.712
48422W        W12355  44.981  38.488   0.948
48423W        W12356  17.565  10.654   1.695
48424W        W12357  22.064  38.043   0.830
48425W        W12358  11.682   6.818  13.991
48426W        W12359  33.877  22.034   1.217
48427W        W12360  27.645  11.708   4.225
48428W        W12361  12.642  26.689   3.268
48429W        W12362  14.128  19.542   2.801
48430W        W12363  36.516  33.444   0.928
48431W        W12364   1.267  42.298   0.426
48432W        W12365   1.810  13.785   2.232
48433W        W12366  21.084  42.874   2.375
48434W        W12367  28.470  29.622   2.824
48435W        W12368  39.816   8.310   0.942
48436W        W12369  36.962  30.563   0.775
48437W        W12370  29.973  14.262  11.988
48438W        W12371  32.623  35.581  14.458
48439W        W12372  32.621  30.955  10.478
48440W        W12373   6.697  27.590  11.545
48441W        W12374  26.148  40.860  12.892
48442W        W12375  38.376  19.156   1.214
48443W        W12376  10.218   6.758   1.360
48444W        W12377   2.418  20.151  10.565
48445W        W12378  31.625  12.612  13.849
48446W        W12379  30.996  41.425   0.768
48447W        W12380  40.010  35.026   3.237
48448W        W12381   5.714  38.056  10.486
48449W        W12382  31.628  28.633  12.877
48450W        W12383   7.870  35.526   4.767
48451W        W12384  38.868  24.550  13.437
48452W        W12385  34.980  18.124  10.102
48453W        W12386  29.996  19.635  12.896
48454W        W12387  13.249  26.192   1.425
48455W        W12388   8.806   1.749  13.380
48456W        W12389  16.210  35.108   2.223
48457W        W12390  36.843   3.938   3.711
48458W        W12391   1.942   0.854  10.535
48459W        W12392  18.081  37.940   3.699
48460W        W12393   7.222  29.146   2.821
48461W        W12394  20.688  18.156  10.627
48462W        W12395  43.993  44.466  14.789
48463W        W12396  17.153  36.928   9.549
48464W        W12397  42.374  42.397  13.373
48465W        W12398   6.851  10.758  11.112
48466W        W12399  38.828   5.779  10.949
48467W        W12400  14.662  34.878  13.063
48468W        W12401  44.379  16.774   1.896
48469W        W12402  18.699  15.120  10.418
48470W        W12403  20.557  36.011   4.264
48471W        W12404  10.204  31.917   4.259
48472W        W12405  23.576  30.933   3.798
48473W        W12406  35.092  19.088   1.903
48474W        W12407  29.539  35.496   1.782
48475W        W12408   3.950   2.944   3.730
48476W        W12409  34.437  33.473  13.048
48477W        W12410  35.966   3.931  10.469
48478W        W12411   6.752   8.674  11.558
48479W        W12412  22.684  12.743  14.888
48480W        W12413  16.753  34.121  13.492
48481W        W12414   5.248  25.174  14.848
48482W        W12415  37.463   1.290   0.319
48483W        W12416  22.008  30.959  13.367
48484W        W12417  12.740   0.943   0.311
48485W        W12418   3.799  12.253  11.101
48486W        W12419  28.029  33.068   3.204
48487W        W12420   7.704  24.105  11.591
48488W        W12421   3.810  34.948   4.796
48489W        W12422  39.510  36.843   4.683
48490W        W12423  15.124   4.238   5.258
48491W        W12424  14.719  15.640   0.914
48492W        W12425   3.793  23.012  12.989
48493W        W12426  22.182  30.072   4.200
48494W        W12427   6.712  12.307  12.982
48495W        W12428  37.834  19.698   0.831
48496W        W12429   2.911  33.122   4.822
48497W        W12430  25.625  16.776   3.799
48498W        W12431  36.981  27.560  13.879
48499W        W12432  31.427  13.722   4.236
48500W        W12433  17.154   3.905  11.070
48501W        W12434  44.975  26.558   4.228
48502W        W12435  31.896  40.008  12.906
48503W        W12436  10.789  10.220   0.290
48504W        W12437  27.528  31.640  13.323
48505W        W12438  17.065  31.417  11.958
48506W        W12439  21.603  22.061   4.794
48507W        W12440  30.979  37.926  11.010
48508W        W12441   1.891  10.656   1.258
48509W        W12442  26.653  30.557   2.840
48510W        W12443  17.099  16.194   4.130
48511W        W12444  27.980   7.764   4.822
48512W        W12445  30.039  22.121  14.020
48513W        W12446  37.884   0.458   2.861
48514W        W12447  33.929  17.604  13.542
48515W        W12448  30.478   7.315  10.534
48516W        W12449  24.187  11.238   3.773
48517W        W12450  31.538  28.560  12.372
48518W        W12451   6.415  35.927  12.504
48519W        W12452  28.071  37.033  12.057
48520W        W12453  42.843  12.725  12.349
48521W        W12454  28.084   1.780   2.245
48522W        W12455  13.258  32.492  11.999
48523W        W12456  11.136  36.068   2.407
48524W        W12457  11.730  10.812  12.960
48525W        W12458  27.010  15.093   3.236
48526W        W12459   6.843  28.601  10.996
48527W        W12460  22.673  34.531  11.584
48528W        W12461   9.277  37.865  11.976
48529W        W12462  16.075  30.486   2.805
48530W        W12463   5.304  39.862   3.334
48531W        W12464  18.278  24.696  11.111
48532W        W12465  32.118  17.122  10.615
48533W        W12466  35.423  14.620  14.956
48534W        W12467  10.314  33.440  14.498
48535W        W12468  23.625  26.584   1.229
48536W        W12469  39.815   8.361  11.866
48537W        W12470  21.045  32.632  11.540
48538W        W12471  25.195  37.083  12.340
48539W        W12472  34.962   0.416   2.688
48540W        W12473  15.619  37.860  13.979
48541W        W12474  37.882  25.093   2.229
48542W        W12475  25.495   8.883  12.416
48543W        W12476   7.766  35.425   1.770
48544W        W12477   6.686  12.153   3.739
48545W        W12478  18.072  31.897  10.113
48546W        W12479  18.244   0.964  14.868
48547W        W12480  18.594  41.323   1.921
48548W        W12481  13.769   6.358  12.015
48549W        W12482   7.208  39.456  13.375
48550W        W12483  11.627  33.463   4.767
48551W        W12484  16.206  25.598  13.857
48552W        W12485  26.625  19.243  10.601
48553W        W12486  27.016  18.744   1.846
48554W        W12487  22.722   2.757   2.844
48555W        W12488  25.697  26.134  10.569
48556W        W12489  19.048  38.553  11.992
48557W        W12490  21.063   7.751  13.005
48558W        W12491   3.743   6.311  14.410
48559W        W12492  29.481   4.783  10.155
48560W        W12493  32.634  42.792   5.097
48561W        W12494   7.188  39.865   3.260
48562W        W12495  43.968  28.144  10.539
48563W        W12496  23.051  16.261  14.976
48564W        W12497  37.513  23.079  11.563
48565W        W12498   3.363  26.120  12.341
48566W        W12499  31.606  32.924   0.961
48567W        W12500   9.770  15.750   1.275
48568W        W12501  30.421  34.040   3.278
48569W        W12502  28.639  34.454   3.776
48570W        W12503  19.097   9.790   2.834
48571W        W12504  25.974  40.509   4.269
48572W        W12505  29.921  14.176  10.889
48573W        W12506  30.123  43.835   1.417
48574W        W12507  19.699  25.008  13.928
48575W        W12508   5.376   6.212  13.867
48576W        W12509  20.606  33.083   1.350
48577W        W12510   3.859  21.638  11.404
48578W        W12511  32.560  40.418  12.567
48579W        W12512  37.082   0.872   1.266
48580W        W12513  37.061  43.270  13.993
48581W        W12514   6.784  15.237  11.492
48582W        W12515  33.422   8.261   4.304
48583W        W12516  39.500  24.556   3.741
48584W        W12517  27.175  24.634  10.416
48585W        W12518   4.238  27.047   0.764
48586W        W12519  31.098  12.616  10.898
48587W        W12520  33.060  34.388  10.582
48588W        W12521  43.469  32.015  10.475
48589W        W12522  24.230  38.983   4.122
48590W        W12523  27.986  30.494  11.383
48591W        W12524  22.502  18.136   0.323
48592W        W12525  16.224   1.815  11.054
48593W        W12526   7.814  12.783  13.053
48594W        W12527   4.878   9.854   1.894
48595W        W12528  26.196  18.181  10.553
48596W        W12529  29.989  18.622   3.779
48597W        W12530  28.955   8.887   5.149
48598W        W12531  20.070  15.702  12.880
48599W        W12532  30.984   2.432  12.971
48600W        W12533   8.711  10.773   1.715
48601W        W12534  33.479  28.057  13.478
48602W        W12535  29.654  13.133  10.593
48603W        W12536   1.261  19.163  10.908
48604W        W12537  20.643  12.649   4.732
48605W        W12538  27.086   3.449  11.403
48606W        W12539  26.205  39.327   4.220
48607W        W12540   9.783  43.927   2.220
48608W        W12541  43.291  26.088  14.918
48609W        W12542   6.776  30.516   4.237
48610W        W12543  35.007  37.991   1.934
48611W        W12544  15.702  22.736  13.910
48612W        W12545   2.307  26.145  14.366
48613W        W12546   2.395  17.192  11.022
48614W        W12547  26.556   4.243  14.319
48615W        W12548  13.733  44.269  10.406
48616W        W12549  27.190   5.918   1.813
48617W        W12550   3.258  28.664   2.267
48618W        W12551  40.882  23.182   1.238
48619W        W12552  38.439  41.831  13.545
48620W        W12553   7.205  29.476  12.435
48621W        W12554  24.668  42.494  10.445
48622W        W12555   8.263  23.151  14.872
48623W        W12556  43.952  33.080   0.439
48624W        W12557  28.011  24.580  11.901
48625W        W12558  40.960   0.791  11.982
48626W        W12559  17.579  11.326  14.965
48627W        W12560  38.479  15.818  12.071
48628W        W12561  10.346  19.147   0.246
48629W        W12562  33.509  17.563   0.790
48630W        W12563   4.236  23.609  11.891
48631W        W12564  26.469  38.829  14.003
48632W        W12565  35.889  22.238   4.749
48633W        W12566   8.655  31.576  11.512
48634W        W12567   9.175  34.917   4.264
48635W        W12568   0.451  35.913  10.043
48636W        W12569   4.418  19.725   0.849
48637W        W12570   0.884  35.556  13.859
48638W        W12571  29.591   5.761   0.308
48639W        W12572   4.301  42.521   1.832
48640W        W12573   0.954   6.308  13.991
48641W        W12574  33.885  21.111   0.856
48642W        W12575  23.120  12.808  10.457
48643W        W12576  34.385  10.665  14.307
48644W        W12577  43.007  43.947  12.044
48645W        W12578   8.784  42.428   1.896
48646W        W12579  28.548  31.458   1.818
48647W        W12580  40.950  15.085   2.221
48648W        W12581  17.103  16.217  12.828
48649W        W12582  14.287  33.585  13.357
48650W        W12583  33.086  38.819   2.184
48651W        W12584  33.435   3.729  14.894
48652W        W12585  16.247   0.467  11.062
48653W        W12586   9.333  37.851  11.086
48654W        W12587  29.520  24.195   3.214
48655W        W12588  13.676  31.031   2.292
48656W        W12589  14.335  21.100   2.762
48657W        W12590  37.338  26.696  12.526
48658W        W12591  33.015  30.156   2.822
48659W        W12592  15.718  19.134   0.468
48660W        W12593   0.937  42.917  11.074
48661W        W12594  27.512  32.416  14.385
48662W        W12595  37.445  30.112   1.345
48663W        W12596   8.887  10.696   4.664
48664W        W12597  21.719   5.696  13.326
48665W        W12598  43.489   5.872  11.446
48666W        W12599  41.021   9.860  12.515
48667W        W12600  37.083  19.552   0.960
48668W        W12601  29.085  36.918  11.039
48669W        W12602  24.504  11.279   3.774
48670W        W12603  34.504  42.517   3.245
48671W        W12604  33.513  42.990   1.913
48672W        W12605  14.152  31.996   3.770
48673W        W12606  16.266  21.230   2.358
48674W        W12607   1.875   8.251   4.312
48675W        W12608  32.891   2.289   4.600
48676W        W12609  37.979  23.169  12.885
48677W        W12610   8.758  28.572   3.188
48678W        W12611  31.944  23.530   2.849
48679W        W12612  28.444  39.525   0.863
48680W        W12613   8.304   3.821   3.145
48681W        W12614  15.747  19.282  12.001
48682W        W12615  39.840  26.178  14.502
48683W        W12616  40.968   4.362  12.553
48684W        W12617  20.112   6.220  10.495
48685W        W12618  24.142  16.201   0.461
48686W        W12619   6.359  26.655  14.841
48687W        W12620  13.803  21.048  11.126
48688W        W12621  19.101  18.554   2.809
48689W        W12622  12.148  36.022  11.543
48690W        W12623  39.549  26.632   1.342
48691W        W12624   6.771  12.843  11.420
48692W        W12625   8.388  36.463  13.428
48693W        W12626  32.045  16.737   2.264
48694W        W12627  34.928  17.696  13.410
48695W        W12628  36.418  11.255   0.932
48696W        W12629  14.295  42.956   3.312
48697W        W12630   7.348  42.850  12.409
48698W        W12631  21.019  26.691   4.274
48699W        W12632  11.710  21.554  12.407
48700W        W12633  17.218   8.675   5.292
48701W        W12634  34.008  10.758  12.900
48702W        W12635  14.281  21.135   2.372
48703W        W12636  37.381  41.877   2.313
48704W        W12637  37.391  21.704  10.908
48705W        W12638  26.021  12.665   3.228
48706W        W12639  26.980   3.432   0.955
48707W        W12640  25.153  12.320  11.879
48708W        W12641  34.448  11.142  14.870
48709W        W12642  19.046  30.526  12.496
48710W        W12643  19.702  21.238  12.019
48711W        W12644   8.181   6.806   4.138
48712W        W12645  22.078   9.680   2.340
48713W        W12646  11.621  21.657  13.827
48714W        W12647   5.708  13.307   1.254
48715W        W12648  17.800  20.613   2.797
48716W        W12649   7.326  18.602   0.355
48717W        W12650  12.775  26.011   2.706
48718W        W12651   5.435  35.505  11.942
48719W        W12652  15.264   4.221   1.388
48720W        W12653   8.281  37.053   3.168
48721W        W12654  44.287  18.151   2.274
48722W        W12655  37.427  27.945  13.470
48723W        W12656  11.848  29.930  13.396
48724W        W12657  22.505  30.155  10.573
48725W        W12658   0.799  29.433  14.892
48726W        W12659  29.928  25.038   1.388
48727W        W12660  15.678  34.567  13.846
48728W        W12661  11.360  22.175   3.819
48729W        W12662  26.623   3.751   4.342
48730W        W12663  19.249  33.897   0.476
48731W        W12664   4.729  43.018  10.065
48732W        W12665  12.855  23.636   0.841
48733W        W12666   3.355  29.106  12.855
48734W        W12667  17.141   7.790   5.086
48735W        W12668  26.536  14.830   3.845
48736W        W12669  25.544  23.497   4.232
48737W        W12670   6.879  24.152   2.276
48738W        W12671  40.436  13.648  11.511
48739W        W12672   2.924   5.812  11.495
48740W        W12673  18.205  44.850  13.418
48741W        W12674  11.200  28.038   0.443
48742W        W12675  36.048  27.061   1.935
48743W        W12676  32.101  44.795  14.392
48744W        W12677  10.307  17.068   2.717
48745W        W12678  25.581  27.014  13.529
48746W        W12679  39.450  32.478  11.913
48747W        W12680  18.247  37.528  10.526
48748W        W12681   7.401  32.447   1.419
48749W        W12682  38.998  14.256   0.830
48750W        W12683  20.124  38.825  10.500
48751W        W12684  21.149  17.199  12.902
48752W        W12685   4.416  27.609  13.343
48753W        W12686  19.559  43.360   1.926
48754W        W12687  10.636  25.105  12.395
48755W        W12688  11.767  16.173   2.248
48756W        W12689   0.473   9.201   2.894
48757W        W12690  16.672  15.787  11.584
48758W        W12691  21.042  25.699  13.061
48759W        W12692  37.019  22.229   0.337
48760W        W12693  34.002  22.174  12.027
48761W        W12694  11.789  28.519  13.526
48762W        W12695  32.614  28.589  11.441
48763W        W12696  22.041   7.224  12.523
48764W        W12697  18.645  19.109   4.227
48765W        W12698  33.445   7.244   1.223
48766W        W12699  12.164  41.840   2.831
48767W        W12700  14.711  25.043   1.357
48768W        W12701  21.554  28.944   9.939
48769W        W12702  43.379  23.707   5.084
48770W        W12703  16.611  19.081  10.929
48771W        W12704  31.636  25.190   1.405
48772W        W12705  14.268   9.348  11.035
48773W        W12706  39.819   8.678  10.607
48774W        W12707  26.586   9.726   1.325
48775W        W12708  14.611  19.255  11.896
48776W        W12709  24.610  28.571   1.775
48777W        W12710  37.952  12.133  12.444
48778W        W12711  42.886   4.881  12.451
48779W        W12712   1.476  39.502   2.825
48780W        W12713  34.509  18.747   4.314
48781W        W12714   7.870  18.609  10.897
48782W        W12715  25.107  27.160  11.111
48783W        W12716  44.967   6.866  11.081
48784W        W12717  39.809  39.357   1.859
48785W        W12718  32.438  37.578   1.371
48786W        W12719  39.020  35.447   0.896
48787W        W12720  24.216  24.978  14.358
48788W        W12721  37.881  13.206  12.992
48789W        W12722  15.676   3.901  10.478
48790W        W12723  13.839  33.068   4.315
48791W        W12724  11.715  40.324   1.330
48792W        W12725   7.363   7.338  12.462
48793W        W12726  39.434   7.174  14.032
48794W        W12727  42.957  38.895  11.454
48795W        W12728  21.073  28.035  11.122
48796W        W12729  35.493  32.086   1.297
48797W        W12730  31.013  39.014   9.929
48798W        W12731  12.297   5.409   0.964
48799W        W12732   5.428  23.050   0.752
48800W        W12733  34.022  20.182  12.459
48801W        W12734  35.057  41.393   1.817
48802W        W12735  36.853  27.002  11.497
48803W        W12736  40.885  26.125  11.906
48804W        W12737  39.999  20.201   3.840
48805W        W12738  42.826   4.800   0.472
48806W        W12739  24.184  35.429   2.714
48807W        W12740  13.234  23.703  13.383
48808W        W12741  31.468  21.176   2.356
48809W        W12742  41.892   0.321  12.920
48810W        W12743  18.612  30.647  10.631
48811W        W12744   8.721   9.384  13.338
48812W        W12745   7.195   0.947   1.868
48813W        W12746  32.972  27.152   1.805
48814W        W12747  34.501  13.818   0.783
48815W        W12748  11.153   9.836  13.867
48816W        W12749  38.471  35.527   1.732
48817W        W12750  11.865   8.225  11.409
48818W        W12751  38.830  20.594   2.267
48819W        W12752  32.574   1.278  14.898
48820W        W12753  17.692   9.350   2.264
48821W        W12754  44.004  44.484  13.318
48822W        W12755  15.779   7.905   2.232
48823W        W12756   6.777  32.064   0.753
48824W        W12757  10.692  25.578  11.053
48825W        W12758   2.929  42.293  11.552
48826W        W12759   0.485  21.077  13.531
48827W        W12760  24.084  27.042  12.511
48828W        W12761  40.486  26.686  14.487
48829W        W12762  17.144   9.788  10.466
48830W        W12763  21.593  37.476   1.260
48831W        W12764  31.100  36.907   2.673
48832W        W12765   1.901  11.347   4.665
48833W        W12766   3.277  23.056   4.148
48834W        W12767  35.575  12.745  14.892
48835W        W12768  40.502  13.258  13.318
48836W        W12769  35.586  43.314   0.258
48837W        W12770  20.244  21.671  12.344
48838W        W12771  33.960  22.580  11.911
48839W        W12772   7.845  12.624   0.369
48840W        W12773  30.579  21.671   3.686
48841W        W12774   9.266  19.768   5.268
48842W        W12775  38.521   0.791  11.978
48843W        W12776  13.295  22.622   3.773
48844W        W12777   2.344  41.923  12.864
48845W        W12778  17.208  26.665   1.265
48846W        W12779  27.586   6.702  10.630
48847W        W12780  37.034   0.813   3.638
48848W        W12781  41.432  42.936  12.880
48849W        W12782   5.200  40.924   3.272
48850W        W12783  24.191  27.071  14.805
48851W        W12784  44.903  19.261  13.392
48852W        W12785  29.936   2.898  13.832
48853W        W12786  16.228   4.711  10.912
48854W        W12787  23.705  44.496  12.514
48855W        W12788  24.030   8.747   2.678
48856W        W12789   9.882  37.440  14.446
48857W        W12790  44.821  35.097   0.382
48858W        W12791  25.660   1.898   3.266
48859W        W12792  15.120  17.101  10.636
48860W        W12793  13.223  35.906  11.009
48861W        W12794  21.603  12.157   2.323
48862W        W12795  33.574   8.886   3.243
48863W        W12796   1.293   5.864   4.753
48864W        W12797  40.854  27.456  14.904
48865W        W12798  40.317  35.923   2.347
48866W        W12799  27.519  33.481  13.030
48867W        W12800  34.021  29.151  14.822
48868W        W12801   2.369  28.087   2.384
48869W        W12802  25.160  44.897   2.715
48870W        W12803   5.324  30.494   4.752
48871W        W12804  12.750  39.513  11.870
48872W        W12805  41.434  41.826  11.472
48873W        W12806   6.301  16.277   2.880
48874W        W12807  23.515  35.382   3.296
48875W        W12808   1.292  32.551   1.721
48876W        W12809   1.415   5.207  13.503
48877W        W12810   8.304  31.605   0.335
48878W        W12811   4.354   6.334  14.774
48879W        W12812  24.194   7.865   0.737
48880W        W12813   2.254  23.060  11.008
48881W        W12814  33.616  15.810  12.977
48882W        W12815  11.129  29.148   0.458
48883W        W12816   9.294   6.408   4.640
48884W        W12817  11.858  16.133   0.744
48885W        W12818  24.054  25.064   4.633
48886W        W12819  25.514   7.376   2.208
48887W        W12820   5.403  24.655   3.711
48888W        W12821  18.705  35.558  14.415
48889W        W12822  19.135  30.568  10.436
48890W        W12823  18.711  42.999   4.167
48891W        W12824  40.520  28.135  13.878
48892W        W12825  19.074  27.972   5.229
48893W        W12826  44.776  13.294   4.691
48894W        W12827   3.432  24.571  11.898
48895W        W12828  42.924  19.039   4.697
48896W        W12829   6.228  34.491   1.288
48897W        W12830  33.558  17.273   4.117
48898W        W12831   6.353  35.457  13.801
48899W        W12832   6.209  25.635   0.934
48900W        W12833  24.066   3.336  14.917
48901W        W12834  27.980  15.172   3.634
48902W        W12835  40.548  22.656   2.891
48903W        W12836  12.617  30.650  11.861
48904W        W12837  11.353  31.131  13.503
48905W        W12838  24.208  38.496  11.409
48906W        W12839  41.473  35.371   0.917
48907W        W12840  26.625   7.743  11.492
48908W        W12841  34.048  18.620  11.501
48909W        W12842  21.020  20.619  12.356
48910W        W12843  25.552  39.006  10.947
48911W        W12844   2.233  34.576   2.848
48912W        W12845  26.581  22.229   3.833
48913W        W12846  15.627   3.839  10.931
48914W        W12847   5.699  26.558   0.839
48915W        W12848  13.275   8.758   5.159
48916W        W12849  24.178  27.470   4.322
48917W        W12850  14.250  27.052  12.551
48918W        W12851   1.963   7.759  12.945
48919W        W12852  13.607  30.563  12.081
48920W        W12853   4.914  39.991  11.448
48921W        W12854   7.886   5.764   2.742
48922W        W12855  28.009  29.569   0.423
48923W        W12856  18.201   2.846   1.283
48924W        W12857  40.043  29.993  10.888
48925W        W12858  43.277  35.047  12.853
48926W        W12859   0.968  37.510  10.473
48927W        W12860  26.502  26.962  12.550
48928W        W12861  43.281   8.831   0.838
48929W        W12862   6.884  26.654  13.793
48930W        W12863   1.361  33.490   0.314
48931W        W12864  15.134  15.114   2.381
48932W        W12865  21.055  41.963  10.414
48933W        W12866  16.647  44.796   3.695
48934W        W12867  19.641  35.975  12.378
48935W        W12868  12.659  11.857  13.060
48936W        W12869   2.263   4.393   3.257
48937W        W12870  24.510  43.288   0.850
48938W        W12871  19.556  11.275  13.984
48939W        W12872  38.913   5.282   3.268
48940W        W12873  32.918  25.513  10.893
48941W        W12874  25.981  42.939  13.994
48942W        W12875  29.432  19.618   0.742
48943W        W12876   3.800  31.974   1.737
48944W        W12877   5.842  34.093   0.293
48945W        W12878  13.247  44.816   3.204
48946W        W12879  14.729  22.030   3.172
48947W        W12880  15.648   6.691   0.838
48948W        W12881  13.321   8.221   4.225
48949W        W12882   6.835   6.229   0.922
48950W        W12883  35.514  27.180  10.929
48951W        W12884  38.569  23.702  13.483
48952W        W12885  23.698  34.894   0.895
48953W        W12886  27.595   5.210  14.887
48954W        W12887   6.737   4.925  13.462
48955W        W12888  24.612  38.028   0.270
48956W        W12889  27.682  25.003   3.688
48957W        W12890  10.820  19.167   4.157
48958W        W12891  36.377  28.067  13.511
48959W        W12892  25.023  11.733  14.399
48960W        W12893  37.869  18.230  10.444
48961W        W12894  35.043  29.148   3.155
48962W        W12895   1.805  22.154   0.284
48963W        W12896  40.437  43.321  11.990
48964W        W12897   4.388  39.840  14.416
48965W        W12898  31.962   8.248   0.856
48966W        W12899  29.102  19.198   0.346
48967W        W12900  19.098  25.603   0.748
48968W        W12901   9.679   5.227  14.813
48969W        W12902  22.747  39.920  10.927
48970W        W12903  13.108  25.707   2.706
48971W        W12904  18.292  15.324   1.371
48972W        W12905  27.075  26.636  10.582
48973W        W12906  23.561  20.526  12.850
48974W        W12907  31.419  26.684   2.249
48975W        W12908  23.551  32.960   0.468
48976W        W12909  19.566  18.102   0.317
48977W        W12910  39.481  28.675   4.692
48978W        W12911   9.170  41.791   1.895
48979W        W12912   4.327  20.080  10.431
48980W        W12913  12.339  11.719   1.845
48981W        W12914  37.441   7.748   2.329
48982W        W12915  15.781  18.122  13.442
48983W        W12916  16.194  15.206  14.372
48984W        W12917   2.267  29.147  11.560
48985W        W12918   6.839  20.580   4.645
48986W        W12919   5.378  25.072  13.974
48987W        W12920  19.734   5.778   4.291
48988W        W12921   1.906  31.022  13.372
48989W        W12922  40.491  18.580   1.240
48990W        W12923  40.467  34.906  13.944
48991W        W12924  30.426   8.889   0.378
48992W        W12925  17.159  41.440  11.520
48993W        W12926  24.000  25.107  12.419
48994W        W12927  37.999   8.694   0.380
48995W        W12928  27.474  21.539  10.613
48996W        W12929  14.173  32.560  14.464
48997W        W12930  41.296   2.462  14.888
48998W        W12931  16.651  18.757  11.435
48999W        W12932  15.245   4.700   2.297
49000W        W12933  21.636   7.679   2.880
49001W        W12934  31.125  33.992  13.358
49002W        W12935  29.967  23.734  11.464
49003W        W12936  19.570   5.327  10.451
49004W        W12937  26.630  28.646   0.743
49005W        W12938  33.478  29.106   2.261
49006W        W12939   9.320  25.006   2.853
49007W        W12940   6.763  36.583  10.611
49008W        W12941  37.541   9.245  13.849
49009W        W12942  36.955  39.371  12.504
49010W        W12943  37.376  44.343   3.327
49011W        W12944   4.775   0.874   5.286
49012W        W12945   5.905  31.922  10.931
49013W        W12946  19.272  16.302   3.147
49014W        W12947  34.558  33.587  12.369
49015W        W12948  37.461  14.594  14.952
49016W        W12949  41.986  27.943  11.873
49017W        W12950  35.980  19.276   3.312
49018W        W12951  26.154  23.027   0.870
49019W        W12952  21.682   0.268  11.040
49020W        W12953  43.459  28.457   3.149
49021W        W12954   9.826   1.765  12.494
49022W        W12955  10.873   0.320   1.422
49023W        W12956  13.625  15.682   0.447
49024W        W12957  36.999  34.518   1.895
49025W        W12958   1.283   9.816   0.899
49026W        W12959   9.723  29.581   2.834
49027W        W12960  22.239  26.646   3.792
49028W        W12961  25.534   3.295   1.715
49029W        W12962  21.131  39.520   4.694
49030W        W12963  27.682  18.263  14.376
49031W        W12964   4.719  15.317  13.035
49032W        W12965  42.322  21.577  12.063
49033W        W12966  33.548  16.739  13.380
49034W        W12967  26.088  42.286   1.916
49035W        W12968   7.723   2.759  11.007
49036W        W12969   7.683   4.361  13.529
49037W        W12970  41.858   6.405   4.698
49038W        W12971  33.586  32.140   1.435
49039W        W12972  10.756   3.750   1.437
49040W        W12973   0.914  26.495   9.950
49041W        W12974   8.264  31.118  13.011
49042W        W12975   4.336   5.748   3.701
49043W        W12976  18.701  12.854   0.766
49044W        W12977  37.898  38.485   3.684
49045W        W12978  11.708  33.514   2.238
49046W        W12979   2.826  39.823  11.460
49047W        W12980  12.178  33.117  11.554
49048W        W12981  11.218   6.831  12.078
49049W        W12982  44.403  12.136   1.350
49050W        W12983  32.961  10.741  14.828
49051W        W12984  42.464  12.728  10.493
49052W        W12985  33.126   5.430   1.387
49053W        W12986   4.799   6.851   3.280
49054W        W12987  29.465  34.983   3.836
49055W        W12988  35.570  17.303   0.879
49056W        W12989  10.299  32.980   2.316
49057W        W12990  38.944  20.603   0.726
49058W        W12991   6.789   5.390  11.951
49059W        W12992  22.080  16.269   0.944
49060W        W12993  11.293  42.016   0.483
49061W        W12994   9.283  16.226  13.899
49062W        W12995  20.630  24.643   0.893
49063W        W12996  30.988   4.849   0.900
49064W        W12997  13.623  13.176   1.834
49065W        W12998  16.152   4.778   3.835
49066W        W12999   1.833  26.552   2.667
49067W        W13000   3.383  31.140   2.387
49068W        W13001  18.678   6.248   4.833
49069W        W13002  26.007  30.122   2.262
49070W        W13003   4.285  21.129   1.695
49071W        W13004   6.392  25.108   0.425
49072W        W13005   1.927   1.316   3.292
49073W        W13006  13.298  23.118  12.974
49074W        W13007  11.267  20.148  10.972
49075W        W13008  39.428  22.591   0.833
49076W        W13009  14.716  13.681  13.545
49077W        W13010  41.344   1.362   4.171
49078W        W13011   2.722  27.984  13.362
49079W        W13012  43.784   6.762   4.353
49080W        W13013   2.419  30.424  12.404
49081W        W13014  27.559  14.679  12.399
49082W        W13015  37.898  33.571   4.263
49083W        W13016  21.670  30.929  10.515
49084W        W13017  37.037  13.798   2.212
49085W        W13018   1.810  12.256  13.949
49086W        W13019  38.546  13.842   4.333
49087W        W13020  30.991  16.128  11.597
49088W        W13021  33.519   0.458  13.393
49089W        W13022  25.038  22.098   1.869
49090W        W13023   4.800  40.876  12.937
49091W        W13024  33.624  30.098   2.309
49092W        W13025   8.870  37.880  13.993
49093W        W13026  21.229  42.906  13.422
49094W        W13027  15.243  33.935  11.561
49095W        W13028   7.804  35.593   0.298
49096W        W13029  36.389  11.629  12.088
49097W        W13030   4.297   6.693  12.513
49098W        W13031  24.644  21.214   3.185
49099W        W13032  16.706  42.965  14.925
49100W        W13033  35.905   3.793   2.270
49101W        W13034  29.070   1.926  10.939
49102W        W13035  37.844  24.124  14.495
49103W        W13036  44.009  35.589   0.940
49104W        W13037  21.748   3.355  10.518
49105W        W13038   1.332  36.031  12.917
49106W        W13039  29.576  11.302  10.896
49107W        W13040  16.307  23.708   2.412
49108W        W13041  37.417  34.412  13.877
49109W        W13042  18.159   2.302  11.951
49110W        W13043  36.431  25.207  11.127
49111W        W13044  11.360  29.092   4.241
49112W        W13045  44.377  18.661  13.433
49113W        W13046   1.748  10.846   4.354
49114W        W13047  39.454  25.207   3.359
49115W        W13048  33.436  26.011  11.106
49116W        W13049  25.112  37.045   4.647
49117W        W13050  40.518  43.899   1.415
49118W        W13051   0.866  37.000   5.267
49119W        W13052  42.980  13.655   1.772
49120W        W13053  32.417  30.437  13.948
49121W        W13054   4.724  34.998  10.587
49122W        W13055  14.259  41.842  11.061
49123W        W13056  24.169  23.066  12.412
49124W        W13057  13.344  18.103   0.386
49125W        W13058  31.463  32.606  10.947
49126W        W13059  24.031  31.405   0.879
49127W        W13060  14.814  27.041   1.893
49128W        W13061   1.432  28.612   0.466
49129W        W13062  18.742   6.372   2.720
49130W        W13063  27.458  39.335  11.913
49131W        W13064  18.214  34.568  13.420
49132W        W13065  42.874  39.048   1.891
49133W        W13066  19.179   9.356  11.027
49134W        W13067  27.579  37.427   0.781
49135W        W13068  19.767  13.288   2.262
49136W        W13069  27.477  35.428   2.715
49137W        W13070  41.338   9.353   2.752
49138W        W13071   4.287   2.322  12.353
49139W        W13072  18.209  12.753   0.889
49140W        W13073  14.171  14.266   1.726
49141W        W13074  10.651   6.355  10.933
49142W        W13075   0.926  19.547   4.172
49143W        W13076  34.395  42.945  11.406
49144W        W13077  24.648  10.662   1.712
49145W        W13078  24.645  21.577   2.373
49146W        W13079  21.186  21.664   0.782
49147W        W13080  36.913  20.574  11.063
49148W        W13081  32.564  19.131  12.346
49149W        W13082  28.003  26.693  14.794
49150W        W13083   0.830  33.406   2.876
49151W        W13084  12.844  24.041   0.881
49152W        W13085  35.414  27.026   2.341
49153W        W13086   1.354   7.346   4.724
49154W        W13087  39.508   6.200   1.240
49155W        W13088  42.439  35.083  14.420
49156W        W13089  41.314   6.272  14.799
49157W        W13090  34.931  16.153   2.257
49158W        W13091  41.486  38.450  10.976
49159W        W13092  31.541  31.101  11.020
49160W        W13093  11.636  11.232   2.399
49161W        W13094   8.829  28.104   3.833
49162W        W13095  26.517  12.708   4.119
49163W        W13096  10.645  39.383  14.276
49164W        W13097  19.607   9.758   4.632
49165W        W13098  27.475  30.589  11.856
49166W        W13099  23.166  28.644   2.871
49167W        W13100  20.123  44.005  14.347
49168W        W13101  16.158  14.637  13.402
49169W        W13102   7.400   7.833   0.829
49170W        W13103  13.170  14.786  13.504
49171W        W13104  25.587  11.788   0.928
49172W        W13105  43.476  41.796   3.644
49173W        W13106  32.560  44.858   1.891
49174W        W13107  10.279  11.372  12.399
49175W        W13108  39.323   1.978   2.773
49176W        W13109  35.904   1.332  14.768
49177W        W13110  42.785  23.524  13.440
49178W        W13111  24.593  14.644   1.398
49179W        W13112  40.806  26.193   0.893
49180W        W13113  32.938  41.528   0.292
49181W        W13114  22.039  30.580   1.907
49182W        W13115   0.898  17.290   1.700
49183W        W13116  38.060   9.245   1.431
49184W        W13117  41.868  37.397   1.740
49185W        W13118  23.191   7.400   3.826
49186W        W13119  38.520   1.779   3.811
49187W        W13120  29.075   0.957   3.777
49188W        W13121   6.230  27.622  12.932
49189W        W13122  32.924  21.564  12.049
49190W        W13123  12.763   7.326   0.295
49191W        W13124  36.855  16.646   4.803
49192W        W13125  13.133  19.251  13.048
49193W        W13126  40.011  16.204   2.834
49194W        W13127  33.461  16.105  11.036
49195W        W13128  14.789  22.648   4.811
49196W        W13129  14.209  40.511   2.773
49197W        W13130   7.744  15.201   0.747
49198W        W13131   4.220  30.416   3.722
49199W        W13132  17.570  41.380  11.494
49200W        W13133  12.260   3.771   1.394
49201W        W13134  26.538  13.827   3.685
49202W        W13135  24.229  18.773  13.459
49203W        W13136  19.771  36.075  10.996
49204W        W13137  42.516  40.351   3.821
49205W        W13138  43.485  27.136  13.485
49206W        W13139  27.135  28.979   1.834
49207W        W13140  42.883  17.111  11.021
49208W        W13141  43.391   4.335   0.342
49209W        W13142  30.086  29.519   2.274
49210W        W13143  32.017   8.305  13.468
49211W        W13144  42.477  22.554   1.302
49212W        W13145  35.007  43.836   4.665
49213W        W13146  17.610  25.601   3.654
49214W        W13147   2.334  29.078   0.855
49215W        W13148  12.668  36.515   4.773
49216W        W13149   0.814  41.879  10.903
49217W        W13150  34.449  12.133   1.218
49218W        W13151  40.456  34.089  14.906
49219W        W13152  16.196  43.776  10.981
49220W        W13153  20.182   0.985   3.274
49221W        W13154  10.239   4.914   4.604
49222W        W13155  36.979   6.706   3.379
49223W        W13156  35.449   5.389   4.769
49224W        W13157  41.336  22.252   1.421
49225W        W13158  23.205  14.657  14.344
49226W        W13159  21.622  26.065  10.618
49227W        W13160   6.820  14.749   4.167
49228W        W13161  10.739   9.711   2.787
49229W        W13162   6.783   8.881   4.196
49230W        W13163   0.904   3.285  13.308
49231W        W13164   5.341  24.062   4.772
49232W        W13165  13.780  37.873   1.773
49233W        W13166  13.776  10.749  12.446
49234W        W13167  21.183  20.539  13.060
49235W        W13168  31.948  24.015  14.997
49236W        W13169  34.911   4.784  12.064
49237W        W13170  15.610  10.235   5.174
49238W        W13171   9.759   5.883  12.365
49239W        W13172  36.549  20.563   2.338
49240W        W13173  35.887  28.177  11.937
49241W        W13174  40.508   5.865   1.860
49242W        W13175   3.364  10.290   1.844
49243W        W13176  14.197  25.548   3.171
49244W        W13177   0.828   7.691   0.444
49245W        W13178  31.072  11.178  11.422
49246W        W13179  42.406   5.241   0.830
49247W        W13180  29.128  25.588   0.418
49248W        W13181  39.036  24.637  12.367
49249W        W13182  42.961  26.184   3.809
49250W        W13183  33.018   4.212   1.371
49251W        W13184  23.172  21.615  12.003
49252W        W13185  28.084  30.513   9.984
49253W        W13186  21.711  21.534   4.829
49254W        W13187  44.839  28.591   0.820
49255W        W13188  17.643   8.714  14.426
49256W        W13189   3.862  32.488   0.896
49257W        W13190   3.351  10.163  12.541
49258W        W13191  24.504  33.538  12.507
49259W        W13192   5.918  32.913  13.412
49260W        W13193   2.408  25.607   3.365
49261W        W13194  31.498  12.746  14.865
49262W        W13195  12.663  12.721   3.225
49263W        W13196  42.356  41.336  12.052
49264W        W13197  27.998   9.375   0.255
49265W        W13198   2.349  30.584   1.751
49266W        W13199  30.587   2.273  11.119
49267W        W13200   5.866  43.450   1.785
49268W        W13201  14.314   9.808  11.863
49269W        W13202  30.533  22.722  13.923
49270W        W13203  39.333  26.983   1.416
49271W        W13204  15.220  15.085   3.823
49272W        W13205  23.551  40.889  10.592
49273W        W13206  30.149   3.323   4.217
49274W        W13207  44.271  37.015   2.778
49275W        W13208  23.996  28.528   4.289
49276W        W13209   3.716  36.061  13.851
49277W        W13210  31.013  10.767   1.333
49278W        W13211   8.859  38.459  14.809
49279W        W13212  11.710  19.193  11.049
49280W        W13213   2.322   0.886  14.930
49281W        W13214   9.180  43.002  14.914
49282W        W13215   0.857  30.423  10.558
49283W        W13216  42.510  13.180  13.023
49284W        W13217  29.149  43.294   2.769
49285W        W13218  34.865  41.881   3.755
49286W        W13219  44.421   9.736   0.899
49287W        W13220  28.982  16.762  12.823
49288W        W13221  38.380  41.453   2.375
49289W        W13222  10.672  33.056  12.898
49290W        W13223  42.875  37.905  14.361
49291W        W13224   4.351  27.511   4.802
49292W        W13225  11.296  11.159   0.823
49293W        W13226  10.158  25.964   4.650
49294W        W13227  18.246  14.176  14.976
49295W        W13228   1.353  31.053  14.316
49296W        W13229  24.993   0.885   3.807
49297W        W13230  43.902   6.840   0.267
49298W        W13231   2.835  30.628  10.594
49299W        W13232  15.674  36.560  13.362
49300W        W13233   3.247  12.185   5.148
49301W        W13234  35.910  16.730   3.789
49302W        W13235  13.296  22.530  10.100
49303W        W13236  23.633  14.589  13.868
49304W        W13237   3.944  44.493   0.796
49305W        W13238  15.777  23.128   0.873
49306W        W13239  29.061  40.953  13.044
49307W        W13240   6.316  42.000   1.286
49308W        W13241  37.381   1.926   3.270
49309W        W13242   0.922   9.299  12.016
49310W        W13243   7.260   4.845  11.908
49311W        W13244   8.750   0.815   0.412
49312W        W13245  20.723  15.266  13.454
49313W        W13246   7.779  17.247  11.970
49314W        W13247  43.425  22.677  14.510
49315W        W13248  21.523  34.011   1.832
49316W        W13249   1.763  19.210  10.550
49317W        W13250  10.290  45.000  11.598
49318W        W13251  17.611  33.130  11.113
49319W        W13252  39.840  20.525  10.439
49320W        W13253  13.107  39.399  12.470
49321W        W13254  23.611  43.431  10.015
49322W        W13255  41.523  34.883   0.253
49323W        W13256  31.112  21.121  10.609
49324W        W13257  24.216  23.590   0.915
49325W        W13258  41.935  21.619  13.057
49326W        W13259  23.174   4.271  11.579
49327W        W13260  24.218  42.835  10.978
49328W        W13261   9.342  26.598   1.889
49329W        W13262   1.247  39.545   4.603
49330W        W13263   7.381   6.307   9.942
49331W        W13264  23.192  12.172  11.915
49332W        W13265  41.920  14.160  14.363
49333W        W13266  29.075  31.918  14.905
49334W        W13267  25.674  16.695   1.784
49335W        W13268   9.252  21.122   2.301
49336W        W13269  28.107  32.422  11.523
49337W        W13270  20.138  25.573   1.400
49338W        W13271   7.236  24.144  14.807
49339W        W13272  15.124   4.768   0.355
49340W        W13273  31.972  27.049   3.226
49341W        W13274   0.297  39.316  13.014
49342W        W13275  13.307  34.428  11.421
49343W        W13276  18.707  31.563   1.823
49344W        W13277  21.072  14.831   4.816
49345W        W13278  20.590   7.768  14.984
49346W        W13279  33.949  36.893   4.616
49347W        W13280  29.951  17.294  14.030
49348W        W13281  34.876  38.055   4.820
49349W        W13282  28.076  31.069  10.965
49350W        W13283  10.651  32.524   2.685
49351W        W13284   4.358  21.662  10.890
49352W        W13285  28.541  15.785  14.367
49353W        W13286  38.025  11.243  11.447
49354W        W13287  20.679   2.847   3.759
49355W        W13288   1.412  17.621   1.829
49356W        W13289  31.553   8.749   3.766
49357W        W13290  23.585  27.590   0.451
49358W        W13291  33.393   5.422  11.893
49359W        W13292  12.254  25.519   4.259
49360W        W13293  39.456   4.895   4.143
49361W        W13294  12.351  28.983   1.359
49362W        W13295  33.601  28.007  11.909
49363W        W13296  42.516  42.494   4.132
49364W        W13297  34.038  31.628   1.290
49365W        W13298  12.686   2.315   4.744
49366W        W13299  19.769  19.148  14.446
49367W        W13300  23.057  13.718  12.510
49368W        W13301  30.532  27.656  13.992
49369W        W13302   4.237  14.297   5.089
49370W        W13303  37.965  17.105  13.521
49371W        W13304  10.671  18.111   1.365
49372W        W13305  39.331  23.145  14.357
49373W        W13306  25.593  22.134   3.323
49374W        W13307  10.304   0.472   2.226
49375W        W13308   2.872  18.258  12.999
49376W        W13309   5.787  26.156   3.316
49377W        W13310  14.247  26.167   4.769
49378W        W13311   1.743  36.431   3.671
49379W        W13312  24.697  27.690   0.327
49380W        W13313  14.221   4.355  12.576
49381W        W13314   3.250  16.632   3.765
49382W        W13315  36.067  23.211   2.335
49383W        W13316  44.967  43.474  14.853
49384W        W13317  38.409  24.046  13.991
49385W        W13318   7.845   1.241  13.353
49386W        W13319  30.589  12.237   3.650
49387W        W13320  33.496  16.733   0.394
49388W        W13321   4.338  38.023  12.525
49389W        W13322   0.303  12.624   0.291
49390W        W13323  22.643  15.157   0.298
49391W        W13324  12.749   5.774  10.641
49392W        W13325  20.531  17.701  11.116
49393W        W13326  43.774  35.944  12.440
49394W        W13327  10.848   5.829  14.887
49395W        W13328  20.067  17.675   4.621
49396W        W13329  42.986  30.505  10.091
49397W        W13330  14.095  41.890  12.506
49398W        W13331  44.801  20.056   4.341
49399W        W13332  34.089  11.161   4.149
49400W        W13333  35.079  12.316  14.441
49401W        W13334  33.531  13.291   2.280
49402W        W13335  34.382  34.573   4.259
49403W        W13336  24.674  20.171   4.607
49404W        W13337  44.279  16.245   2.315
49405W        W13338  16.165  11.821   4.639
49406W        W13339  12.625  16.767  14.510
49407W        W13340   7.214  26.968   1.759
49408W        W13341  13.821  25.120   1.871
49409W        W13342  23.668  12.230  14.501
49410W        W13343   1.464  30.150  14.496
49411W        W13344   4.736  15.236   0.964
49412W        W13345   0.811  29.518  13.366
49413W        W13346  18.134   2.294   0.916
49414W        W13347  26.614  29.135   9.997
49415W        W13348  33.467  43.514  10.439
49416W        W13349   3.766  16.189  14.837
49417W        W13350  36.525  15.167  11.411
49418W        W13351  19.598  34.881  14.890
49419W        W13352  25.712   3.728  13.020
49420W        W13353  42.399  25.537  12.864
49421W        W13354   5.904  38.825  12.482
49422W        W13355  29.054  26.060  11.530
49423W        W13356  29.482  42.428  12.912
49424W        W13357  28.648  36.043  12.530
49425W        W13358  14.186  24.145   0.925
49426W        W13359   2.326  36.988   4.611
49427W        W13360   1.799  23.004   2.294
49428W        W13361  18.677  35.000   0.744
49429W        W13362   8.318  43.412   1.451
49430W        W13363  12.615   6.363  14.500
49431W        W13364  27.614  29.548   1.917
49432W        W13365  32.397  14.338   1.268
49433W        W13366  19.625  25.038  14.337
49434W        W13367  13.131  39.468  13.805
49435W        W13368  35.546  20.095   2.178
49436W        W13369  27.472  17.220  11.056
49437W        W13370  31.981   7.231  12.527
49438W        W13371  44.885  36.085   3.861
49439W        W13372   8.280   4.913  14.788
49440W        W13373  43.999  43.312   0.905
49441W        W13374  26.469  12.315  10.455
49442W        W13375  22.037   4.830  12.906
49443W        W13376  30.101  23.183  14.406
49444W        W13377  26.528   4.240  12.340
49445W        W13378  23.705   2.798  11.543
49446W        W13379  26.677   6.385   2.316
49447W        W13380  14.141  22.072   1.261
49448W        W13381  38.455  17.275   0.823
49449W        W13382  10.667   8.898  10.946
49450W        W13383   6.336   7.368  11.441
49451W        W13384  28.498  20.553  11.872
49452W        W13385  26.136  37.567  10.627
49453W        W13386  24.525  29.949  12.070
49454W        W13387  29.552  33.431  10.961
49455W        W13388  17.634  10.285  14.824
49456W        W13389  12.743   8.275   4.234
49457W        W13390  35.034  30.599  14.887
49458W        W13391  20.081  42.848  11.413
49459W        W13392  26.139  22.579   3.838
49460W        W13393  11.219  24.193   3.699
49461W        W13394  11.673  16.718   4.147
49462W        W13395  12.616  12.707   4.687
49463W        W13396  44.880   6.426  13.457
49464W        W13397  25.529  22.623  14.004
49465W        W13398   3.839  26.598  11.467
49466W        W13399   0.903   1.967  12.966
49467W        W13400  18.114  22.120   3.798
49468W        W13401  15.180  36.014   2.807
49469W        W13402  12.631   3.373   2.230
49470W        W13403  24.673  40.470  10.616
49471W        W13404  27.008  20.212   2.798
49472W        W13405  16.288  26.135   3.718
49473W        W13406  36.904   2.414  11.968
49474W        W13407  21.685  31.971   3.670
49475W        W13408  12.788   4.890   2.325
49476W        W13409  34.070  22.517  11.511
49477W        W13410  44.447   5.904  11.463
49478W        W13411  10.311   5.374  11.417
49479W        W13412  41.824  17.265   0.731
49480W        W13413  40.814  26.069   2.399
49481W        W13414  31.452  27.518   2.394
49482W        W13415  16.754  24.684   1.843
49483W        W13416  35.483  11.809   1.933
49484W        W13417  20.729   3.903   4.240
49485W        W13418  43.950  28.562   2.183
49486W        W13419  38.380   2.232  12.520
49487W        W13420  29.141  19.161  11.502
49488W        W13421  24.112  10.794  11.571
49489W        W13422  21.155  43.784  10.009
49490W        W13423  41.842  12.116   3.698
49491W        W13424   3.844  28.124  14.896
49492W        W13425   7.848  26.200  11.916
49493W        W13426  25.545  34.451   4.787
49494W        W13427  27.985  21.644  14.402
49495W        W13428   1.877  24.082  10.485
49496W        W13429  39.868  11.757   3.712
49497W        W13430  35.939  34.863   0.416
49498W        W13431  38.368   3.758   3.239
49499W        W13432  26.568  14.661  11.588
49500W        W13433  21.149   1.409  11.972
49501W        W13434   2.373  24.041  13.054
49502W        W13435  29.140   3.827   4.617
49503W        W13436  25.119   1.977   1.925
49504W        W13437  20.107  38.384  13.840
49505W        W13438   6.706   8.680  12.829
49506W        W13439   9.801  33.075  11.538
49507W        W13440  11.863  35.092  13.054
49508W        W13441  23.571  24.610   1.388
49509W        W13442  39.060  21.686   1.388
49510W        W13443  22.640  37.336  10.005
49511W        W13444  16.673  14.194   4.822
49512W        W13445  32.995   6.200   2.403
49513W        W13446  34.073   2.346   4.707
49514W        W13447  20.572   4.253   2.901
49515W        W13448  25.677  23.222   4.271
49516W        W13449  39.364   9.836  11.513
49517W        W13450  10.653  41.395   2.343
49518W        W13451  44.886  35.482   9.968
49519W        W13452  11.629  34.596   1.891
49520W        W13453  32.471  44.758   4.731
49521W        W13454   0.298  25.688   1.281
49522W        W13455  21.709  21.115   1.310
49523W        W13456  30.976  29.615  14.425
49524W        W13457   1.307  44.329  12.346
49525W        W13458  21.039   4.302  14.935
49526W        W13459  38.062  33.989  13.992
49527W        W13460  36.901  22.572  11.896
49528W        W13461  20.083  17.207  12.017
49529W        W13462  30.528   0.942   1.921
49530W        W13463   0.480  44.332   1.707
49531W        W13464  13.805  13.320  12.436
49532W        W13465  37.854  44.779   4.727
49533W        W13466  11.286  16.217   1.723
49534W        W13467   1.936  28.083  12.967
49535W        W13468  24.509   5.391   2.246
49536W        W13469  40.929  10.203   4.197
49537W        W13470   9.156   6.327   0.858
49538W        W13471  31.982   9.154   0.867
49539W        W13472  18.243  33.430   1.305
49540W        W13473  17.561  35.883  14.816
49541W        W13474  27.678  18.625   3.667
49542W        W13475  14.282  10.651  11.067
49543W        W13476  18.603  40.304  13.015
49544W        W13477  30.080  43.365  14.933
49545W        W13478   6.736  39.492  12.394
49546W        W13479  21.020  42.294   3.803
49547W        W13480  44.976  18.097  12.895
49548W        W13481   8.727  19.651   0.307
49549W        W13482  43.000  36.484   0.745
49550W        W13483   1.429  21.131   2.869
49551W        W13484  25.527  38.899   9.920
49552W        W13485   9.878  19.057   0.922
49553W        W13486  18.563  28.021   2.323
49554W        W13487   2.758  35.978  14.278
49555W        W13488  37.560  27.087  10.621
49556W        W13489  42.491  13.661  10.540
49557W        W13490  19.231  30.604  14.279
49558W        W13491  11.732  42.406  11.106
49559W        W13492  32.485  24.652   3.255
49560W        W13493  23.624  19.597  14.844
49561W        W13494  32.977  13.248  12.531
49562W        W13495  17.588  22.683  11.098
49563W        W13496  37.059  41.904  12.985
49564W        W13497  42.339  38.867   9.931
49565W        W13498  44.385  38.031   1.361
49566W        W13499  36.959  28.505   3.809
49567W        W13500  24.533   9.180   4.609
49568W        W13501  29.027   4.267   0.950
49569W        W13502  39.065  37.470  12.549
49570W        W13503  38.010  40.845  14.017
49571W        W13504  11.849  16.586   3.160
49572W        W13505  43.483  17.196  11.507
49573W        W13506  43.456  18.105   1.831
49574W        W13507  37.455  34.114  13.840
49575W        W13508   7.898  29.105   1.281
49576W        W13509  41.309   8.695  14.922
49577W        W13510  24.496  22.625   4.174
49578W        W13511   8.180  29.069  12.558
49579W        W13512  22.193  35.907  13.464
49580W        W13513  34.956   9.760   2.271
49581W        W13514  26.129   1.277   3.765
49582W        W13515  21.661  10.325   3.772
49583W        W13516  44.853   5.821   3.826
49584W        W13517   5.867   5.295   3.339
49585W        W13518  22.039  25.160   2.232
49586W        W13519  10.820  19.544  13.495
49587W        W13520  27.123   8.263   0.955
49588W        W13521  39.814  12.153  13.967
49589W        W13522  42.363   4.411  12.366
49590W        W13523  13.131  39.465  13.408
49591W        W13524  19.098  36.364  12.968
49592W        W13525  28.135  40.425  13.976
49593W        W13526   3.245  44.810   0.292
49594W        W13527   1.778   3.791  12.000
49595W        W13528   3.344  41.820   3.705
49596W        W13529  13.736  29.088  13.794
49597W        W13530   7.889  34.083  14.302
49598W        W13531  27.178  28.031  11.036
49599W        W13532  33.971  37.342   4.128
49600W        W13533  31.009  22.073   0.421
49601W        W13534  12.238   0.485   2.310
49602W        W13535  32.032  31.998   3.855
49603W        W13536  30.022  40.353   0.388
49604W        W13537  38.862  39.451  14.975
49605W        W13538  10.814  27.121  13.968
49606W        W13539  40.497  38.001   0.274
49607W        W13540  29.601  23.525  14.814
49608W        W13541  42.483  10.833   3.843
49609W        W13542  30.135  28.462  12.823
49610W        W13543  20.706  30.564   2.381
49611W        W13544  22.119  34.988  13.409
49612W        W13545  33.615  42.016   2.347
49613W        W13546   5.203  39.426   3.279
49614W        W13547  27.971  26.019  13.061
49615W        W13548   5.928  34.569  11.382
49616W        W13549  34.077   2.760  12.907
49617W        W13550  10.257   0.270   1.223
49618W        W13551  35.960  43.486  13.307
49619W        W13552  44.343  19.761  10.516
49620W        W13553  28.677  44.314   3.785
49621W        W13554  42.487  31.423  13.891
49622W        W13555  13.321  25.517  13.424
49623W        W13556  22.524  15.623   0.395
49624W        W13557  25.644  12.209  12.093
49625W        W13558  36.495   7.178   3.190
49626W        W13559   5.709  27.691  12.427
49627W        W13560  13.721  23.722   2.349
49628W        W13561  39.398  18.775  11.076
49629W        W13562  14.213  29.128  14.379
49630W        W13563   5.341  27.161  10.003
49631W        W13564  15.805  29.507  12.442
49632W        W13565  29.553   8.847   0.439
49633W        W13566  22.139  41.505   3.289
49634W        W13567  39.391   4.844   4.814
49635W        W13568  33.101  32.415  11.559
49636W        W13569  31.120  13.752   4.725
49637W        W13570  37.866  18.074  10.095
49638W        W13571  13.791  43.278  10.957
49639W        W13572  12.354  25.985   2.335
49640W        W13573  41.846  21.221   1.919
49641W        W13574  35.498   2.824  12.489
49642W        W13575  15.223   2.890   2.350
49643W        W13576   2.332   7.321   0.853
49644W        W13577  42.366  29.474   0.387
49645W        W13578  37.347  36.874  13.380
49646W        W13579  41.980  26.162   4.198
49647W        W13580  20.074   2.331   0.282
49648W        W13581  15.785   9.784  10.488
49649W        W13582  29.120  41.982   4.222
49650W        W13583   2.400   1.282  11.503
49651W        W13584  12.714  24.121   2.754
49652W        W13585  39.883   8.211  14.381
49653W        W13586  22.720  29.630   3.154
49654W        W13587  43.775   4.239  14.905
49655W        W13588   6.422  30.564   1.247
49656W        W13589  41.893   4.252   1.271
49657W        W13590  35.930   0.349  12.969
49658W        W13591   0.747  27.457  12.580
49659W        W13592  19.260  33.907   2.304
49660W        W13593   3.907  27.495  10.477
49661W        W13594   4.878  23.582   3.861
49662W        W13595   6.775  12.722   2.368
49663W        W13596  25.058  29.597   4.248
49664W        W13597  32.004  24.042   3.794
49665W        W13598  26.671  37.562   3.674
49666W        W13599  36.538  27.494  14.304
49667W        W13600  25.148   3.831   4.625
49668W        W13601  18.724  36.521  12.516
49669W        W13602  22.653  23.135   4.794
49670W        W13603  26.026  24.612   0.438
49671W        W13604  35.011  22.203  11.873
49672W        W13605   4.329   7.339   1.324
49673W        W13606  22.243  21.151  12.961
49674W        W13607  38.498  31.971   0.324
49675W        W13608  43.935  26.125   4.810
49676W        W13609   1.813  12.187   0.312
49677W        W13610  16.693  22.731   1.872
49678W        W13611  29.086  33.064   1.915
49679W        W13612  35.557  34.586  12.083
49680W        W13613  24.997  28.610  11.118
49681W        W13614  15.672  10.276  10.502
49682W        W13615  32.058  22.636   0.480
49683W        W13616  31.606  40.914   3.735
49684W        W13617  28.538  34.097  12.483
49685W        W13618   8.734  13.654   3.750
49686W        W13619  37.581  43.325  14.873
49687W        W13620   5.892  14.753   3.753
49688W        W13621  28.116  35.975  11.931
49689W        W13622  13.117  13.604  13.529
49690W        W13623  34.435  31.451   4.739
49691W        W13624  22.169  18.266  13.507
49692W        W13625   9.395  35.914  12.000
49693W        W13626  16.673  22.726  10.429
49694W        W13627   0.431   5.923  13.487
49695W        W13628  40.854  35.909  11.521
49696W        W13629  19.164  43.409   1.920
49697W        W13630   4.387  42.829  14.397
49698W        W13631  42.298  34.450  10.582
49699W        W13632  44.379  35.462   2.373
49700W        W13633   2.331  12.757   4.658
49701W        W13634  35.437  10.701  10.502
49702W        W13635  24.561   9.852  13.442
49703W        W13636  36.446  29.938   1.410
49704W        W13637   3.857   2.778   1.291
49705W        W13638  29.025  13.618  11.373
49706W        W13639  25.524  43.275  14.948
49707W        W13640  40.910   9.764  11.908
49708W        W13641  24.186  10.209  14.428
49709W        W13642  18.702  27.193  14.313
49710W        W13643  26.656   1.416   0.433
49711W        W13644  27.960   0.450  11.561
49712W        W13645  21.209  16.743   0.742
49713W        W13646  38.453  27.079  12.875
49714W        W13647  44.303   9.367   4.216
49715W        W13648   2.257  38.928   1.345
49716W        W13649  34.950  28.477  11.495
49717W        W13650  39.393   3.444   2.837
49718W        W13651  22.532  15.601  10.639
49719W        W13652  32.597  32.531  14.298
49720W        W13653  21.554  33.546  10.634
49721W        W13654  31.152  39.878  14.445
49722W        W13655  36.938  22.504   2.902
49723W        W13656   6.867  13.620  10.026
49724W        W13657  29.982  28.012  12.372
49725W        W13658  17.070  41.896  10.152
49726W        W13659  28.025  25.586  12.891
49727W        W13660  31.923  42.993   2.380
49728W        W13661   2.925  28.538   1.366
49729W        W13662  22.200  14.816  13.025
49730W        W13663  35.076  41.982  11.123
49731W        W13664   8.771  22.092   1.374
49732W        W13665  27.642  11.866   1.356
49733W        W13666  32.495   9.694  14.436
49734W        W13667  22.152  16.652  13.369
49735W        W13668  10.660  21.609  13.323
49736W        W13669  21.589   8.277   3.322
49737W        W13670  22.066  22.223  11.973
49738W        W13671  27.677  41.450   0.841
49739W        W13672  37.374  25.005   3.255
49740W        W13673  43.372   5.762  14.404
49741W        W13674  45.000  10.699   3.816
49742W        W13675  37.456   9.314   4.717
49743W        W13676  34.864  39.876   1.224
49744W        W13677  21.022  11.342  12.090
49745W        W13678  12.138  10.313  14.891
49746W        W13679  11.838   9.844   2.375
49747W        W13680  35.948   1.973   1.257
49748W        W13681  33.019  40.460  10.616
49749W        W13682  36.859  10.757  12.965
49750W        W13683   1.852  36.019   3.183
49751W        W13684  21.222  32.058   1.755
49752W        W13685  14.631  16.287  10.997
49753W        W13686  23.665  40.442  14.992
49754W        W13687  44.353  26.065  11.859
49755W        W13688  25.004   4.249   2.209
49756W        W13689  43.773   0.420  12.406
49757W        W13690  34.951  37.410  14.998
49758W        W13691  20.638  12.344   0.479
49759W        W13692  16.635  30.562   1.891
49760W        W13693  42.949  15.168   0.829
49761W        W13694  33.505  23.016   5.317
49762W        W13695  13.758  15.223   2.374
49763W        W13696  35.444  16.716   1.925
49764W        W13697   4.888  15.246  11.868
49765W        W13698  11.659   0.813  12.472
49766W        W13699   4.418  43.391   4.716
49767W        W13700   0.867  13.217   2.877
49768W        W13701  19.563  20.121  11.117
49769W        W13702  35.573  43.274   3.252
49770W        W13703  26.169  42.325   4.320
49771W        W13704  20.611  17.176   0.779
49772W        W13705  42.317   7.723  11.914
49773W        W13706  28.511  19.704   2.898
49774W        W13707   5.371  26.126   1.907
49775W        W13708  24.091   0.487   3.273
49776W        W13709  11.173  19.265   1.719
49777W        W13710  26.196  16.721   1.445
49778W        W13711  16.197  35.101  11.043
49779W        W13712  25.220  13.801  12.570
49780W        W13713  42.918  44.387   4.200
49781W        W13714   5.761  37.547  14.811
49782W        W13715  40.506  12.228   2.735
49783W        W13716  10.638  37.449  14.434
49784W        W13717   1.835  21.193   2.355
49785W        W13718  15.732  22.630  10.932
49786W        W13719   8.404  29.969   4.138
49787W        W13720  26.042  34.089   0.949
49788W        W13721  34.599  24.645   4.797
49789W        W13722  19.272  24.574  11.085
49790W        W13723  22.646   1.284  10.900
49791W        W13724   5.877  43.298  14.877
49792W        W13725   0.802  29.617  11.097
49793W        W13726   5.262   1.437   4.350
49794W        W13727  41.849  15.120   1.768
49795W        W13728  40.822  16.637  14.771
49796W        W13729   3.864  12.297   4.668
49797W        W13730   6.199  22.662   1.327
49798W        W13731  43.915  27.045   3.273
49799W        W13732  30.412  28.941   4.218
49800W        W13733  12.153   6.861   4.344
49801W        W13734  30.588  13.159  13.857
49802W        W13735   3.808  35.038  14.386
49803W        W13736  10.182   5.732   1.839
49804W        W13737  22.556  38.337   4.327
49805W        W13738   8.392   0.408  14.315
49806W        W13739  25.212  41.379   4.637
49807W        W13740  17.649  25.027  14.865
49808W        W13741  26.652   9.818   3.344
49809W        W13742  15.286  35.990  14.993
49810W        W13743   6.891  13.120  11.437
49811W        W13744  18.649  42.473  12.977
49812W        W13745  30.093  16.636  12.362
49813W        W13746  19.551  25.488   2.747
49814W        W13747  43.851   2.948  13.000
49815W        W13748  10.333   7.786  11.960
49816W        W13749   5.823  32.928   1.892
49817W        W13750  14.674  14.685  10.464
49818W        W13751  10.153   0.403   0.294
49819W        W13752  31.946  23.501   4.736
49820W        W13753  11.763  14.823  14.865
49821W        W13754  43.896  26.694  11.008
49822W        W13755  10.236  35.900   3.862
49823W        W13756   9.308  35.007   1.253
49824W        W13757  23.196  43.271   1.920
49825W        W13758   9.840  10.655  11.569
49826W        W13759  31.030  27.492   4.115
49827W        W13760   9.713  37.421  11.113
49828W        W13761  22.050  14.680  11.900
49829W        W13762  44.810  42.806   2.780
49830W        W13763  23.199  36.516  11.510
49831W        W13764  31.045  39.021  11.588
49832W        W13765  16.714   9.643   4.293
49833W        W13766  33.013  33.895  11.593
49834W        W13767  24.572  12.728   4.606
49835W        W13768  12.731  16.598   0.768
49836W        W13769  22.710  19.556  11.946
49837W        W13770   9.278  16.618  11.016
49838W        W13771   2.365  33.000   4.353
49839W        W13772  30.462  30.924   4.653
49840W        W13773  19.603  16.791   2.677
49841W        W13774  35.974  21.702   2.697
49842W        W13775  31.404   7.908  10.565
49843W        W13776  15.707   1.429  11.585
49844W        W13777  14.690  43.858  13.487
49845W        W13778  35.426  33.952   3.173
49846W        W13779  26.596  41.390   4.699
49847W        W13780  40.418  43.327  13.401
49848W        W13781  26.602  42.940  14.391
49849W        W13782  17.131  26.208  13.504
49850W        W13783   7.203  34.876  14.972
49851W        W13784  18.786  34.508  12.825
49852W        W13785  22.503  33.099  10.092
49853W        W13786  34.590  33.619   2.872
49854W        W13787   7.292  11.740   1.730
49855W        W13788  25.703  42.349   2.734
49856W        W13789   5.313  42.452   4.352
49857W        W13790  17.800  28.141  11.399
49858W        W13791  14.674  34.094   1.291
49859W        W13792  31.645  42.514  10.538
49860W        W13793  35.946  17.722   3.184
49861W        W13794   5.699  36.881   1.859
49862W        W13795  37.001  41.444   4.690
49863W        W13796  34.425  17.570  14.888
49864W        W13797  23.993   9.667   0.870
49865W        W13798  22.076  33.955  14.874
49866W        W13799  14.833  43.334  11.534
49867W        W13800  35.461  22.185   4.132
49868W        W13801  37.522   2.931   1.401
49869W        W13802  12.328  27.636  14.014
49870W        W13803  25.090  17.156  13.900
49871W        W13804  40.418  15.769   4.141
49872W        W13805  28.152  42.928  10.477
49873W        W13806   4.785  31.057  10.890
49874W        W13807   7.748  32.096   1.848
49875W        W13808   1.317   3.842  12.915
49876W        W13809   9.215   2.416  13.411
49877W        W13810  31.072   7.271   2.394
49878W        W13811  25.575  19.621   0.859
49879W        W13812  40.450   1.365  14.468
49880W        W13813   8.654  10.293  13.528
49881W        W13814   9.317  22.214   1.316
49882W        W13815  21.145  36.402  13.791
49883W        W13816  22.109  23.588  13.486
49884W        W13817  23.992  30.937   0.353
49885W        W13818  28.641  21.246   4.199
49886W        W13819  12.283  44.919   0.362
49887W        W13820  18.695  19.557   1.861
49888W        W13821  12.341   1.777  14.867
49889W        W13822  28.559  40.926  10.498
49890W        W13823  40.017  18.593  14.314
49891W        W13824   5.195  20.099   1.877
49892W        W13825  37.972   9.343   0.407
49893W        W13826  34.537  16.704  11.935
49894W        W13827   5.838   1.330   1.366
49895W        W13828  34.997  13.614   4.162
49896W        W13829  19.044  25.196  10.609
49897W        W13830  12.788  30.640   1.811
49898W        W13831  44.323  14.171   1.254
49899W        W13832  42.998  33.129   1.316
49900W        W13833   4.307   5.772  13.528
49901W        W13834   1.255  23.241   0.728
49902W        W13835  30.011  28.627   0.812
49903W        W13836  15.727  23.222  13.003
49904W        W13837   4.399  10.315   1.314
49905W        W13838  35.951  33.069  11.533
49906W        W13839   8.220  33.075   2.678
49907W        W13840  36.514  44.463   2.723
49908W        W13841  23.564  31.612  13.954
49909W        W13842  16.635  15.129  12.860
49910W        W13843  24.587   6.396  14.332
49911W        W13844  39.397   1.280   4.134
49912W        W13845   7.708   6.415   1.441
49913W        W13846  30.137   2.295   1.726
49914W        W13847   6.400   3.262   0.372
49915W        W13848  31.948   4.386  11.470
49916W        W13849  29.960  24.013  12.062
49917W        W13850  40.925  16.803  11.400
49918W        W13851  15.170   4.286  13.866
49919W        W13852  33.502  19.742   1.213
49920W        W13853   0.386  20.150   0.919
49921W        W13854   7.294  41.942   5.291
49922W        W13855  19.048  25.074   3.722
49923W        W13856   0.919  28.505  11.863
49924W        W13857   2.929   7.350  12.827
49925W        W13858  16.619   2.347  13.312
49926W        W13859  44.944  20.760  12.443
49927W        W13860  32.392  20.076  14.294
49928W        W13861   1.744   5.697  13.468
49929W        W13862  26.980  20.707   0.912
49930W        W13863  26.587   2.245  10.458
49931W        W13864  15.603  27.003  11.554
49932W        W13865  11.173  44.321   0.763
49933W        W13866   3.837  39.835  14.780
49934W        W13867   4.220  19.088  13.484
49935W        W13868  20.145   7.263  12.488
49936W        W13869   3.349  15.619   4.644
49937W        W13870  17.632  34.533  10.923
49938W        W13871  33.604  27.999   2.225
49939W        W13872  41.932  40.044  12.417
49940W        W13873   0.280  28.468   4.770
49941W        W13874  20.052  31.076  11.398
49942W        W13875  42.517   0.934  13.827
49943W        W13876  14.281  11.213  14.370
49944W        W13877  30.039  35.042   0.456
49945W        W13878   5.786   0.907   1.889
49946W        W13879  27.990  43.401   1.718
49947W        W13880  40.351  29.436  13.047
49948W        W13881  33.537  34.119  13.918
49949W        W13882  28.676  11.210  12.985
49950W        W13883  33.078  44.457  12.058
49951W        W13884  14.179   1.814  14.987
49952W        W13885  21.215  11.274   1.905
49953W        W13886  37.054  23.186   2.199
49954W        W13887   6.347  42.806  13.948
49955W        W13888  32.012   9.693  12.400
49956W        W13889  14.588   9.813  11.481
49957W        W13890  32.928  34.408  11.421
49958W        W13891  25.622   8.170   1.886
49959W        W13892  32.070  35.913   1.293
49960W        W13893   3.278  32.407  12.939
49961W        W13894  40.951  19.218   4.628
49962W        W13895  39.860   0.914  13.036
49963W        W13896  43.342   1.275   2.267
49964W        W13897   9.713  20.755  10.972
49965W        W13898  13.196   7.270  11.023
49966W        W13899  42.876   5.226  13.863
49967W        W13900  25.527   2.765   1.345
49968W        W13901  25.687  27.567   2.839
49969W        W13902  29.007   9.174  13.959
49970W        W13903  37.908  22.091   1.906
49971W        W13904   8.857  19.740  12.455
49972W        W13905   4.825  25.071   9.469
49973W        W13906  40.408  26.041  14.840
49974W        W13907  26.195  27.016   2.312
49975W        W13908  23.158  38.417  13.426
49976W        W13909  16.181  35.470  10.450
49977W        W13910  18.720  30.930  11.123
49978W        W13911  16.265  20.553  12.078
49979W        W13912  24.132  42.515   9.598
49980W        W13913   3.821  27.584   4.320
49981W        W13914  16.670  20.557  10.909
49982W        W13915  30.576  31.049   3.764
49983W        W13916  20.096  42.469   3.704
49984W        W13917  26.951   6.772  13.873
49985W        W13918  34.516   2.456   3.681
49986W        W13919   2.356  38.990  12.836
49987W        W13920  21.741  20.028   0.364
49988W        W13921  25.551   4.870  14.346
49989W        W13922  28.069  39.007  10.506
49990W        W13923  14.688  19.632   3.799
49991W        W13924  30.578  43.983  10.919
49992W        W13925  11.801  10.643  13.918
49993W        W13926  11.250  38.337  13.004
49994W        W13927   1.790  38.893   4.730
49995W        W13928  13.216  19.243   2.349
49996W        W13929  33.128  44.375  10.522
49997W        W13930  36.920   7.845   1.743
49998W        W13931  36.500  20.656  14.946
49999W        W13932  19.228  13.733   3.235
50000W        W13933  38.933  20.709   1.429
50001W        W13934  19.113  13.629   2.673
50002W        W13935  25.645  43.419  12.544
50003W        W13936  10.820  29.626  10.895
50004W        W13937   1.423  29.507   2.209
50005W        W13938  43.487  29.952  11.536
50006W        W13939  30.658  40.458   0.254
50007W        W13940   3.784  38.943   1.747
50008W        W13941  19.252  14.199  12.085
50009W        W13942  44.441  26.486  11.083
50010W        W13943   0.772  19.655  12.825
50011W        W13944  14.807  35.896   1.351
50012W        W13945  27.683   3.401  13.850
50013W        W13946   3.863   8.218  10.589
50014W        W13947  11.775  42.995  10.089
50015W        W13948  41.803  43.788   2.249
50016W        W13949  44.974   4.757  14.968
50017W        W13950   1.784  14.173  12.485
50018W        W13951  30.974  30.578  11.473
50019W        W13952  15.112  39.933  10.566
50020W        W13953  28.929  19.637   0.420
50021W        W13954  22.162  40.878   3.780
50022W        W13955   1.839  11.348  11.099
50023W        W13956  24.635  41.850  11.993
50024W        W13957  32.981  10.822  10.628
50025W        W13958   1.773   4.894  11.951
50026W        W13959  16.079  36.896  11.015
50027W        W13960  43.782  40.046  14.792
50028W        W13961  28.677  10.303  14.406
50029W        W13962  33.061  44.769  11.974
50030W        W13963  11.223  42.779  11.898
50031W        W13964  36.406  25.963   3.353
50032W        W13965   4.341  12.689  11.118
50033W        W13966  18.693   2.305  12.578
50034W        W13967   1.911   1.777  10.891
50035W        W13968  42.379  36.417  14.284
50036W        W13969  39.012  13.680  10.999
50037W        W13970  35.899  42.337   3.314
50038W        W13971  10.228  20.554   3.162
50039W        W13972  23.634  36.022  12.364
50040W        W13973   4.233  30.963  10.421
50041W        W13974  42.472   2.813   2.870
50042W        W13975  19.257  44.483   3.860
50043W        W13976  14.819  30.423  10.591
50044W        W13977  43.332  35.069   3.785
50045W        W13978  23.548  31.506  10.500
50046W        W13979  12.786  10.295  13.796
50047W        W13980  29.499  34.513   2.707
50048W        W13981  35.090   5.820  10.573
50049W        W13982  14.248  34.100   3.838
50050W        W13983  16.607  14.236  14.783
50051W        W13984   7.726  40.985   4.178
50052W        W13985   4.716  38.334   1.267
50053W        W13986  40.526  34.393  11.902
50054W        W13987  11.353  38.845  14.010
50055W        W13988  34.472   7.197  12.883
50056W        W13989  29.604  31.410   2.864
50057W        W13990  32.498  29.952  11.596
50058W        W13991  32.962   0.747  12.854
50059W        W13992  12.331  24.093  14.901
50060W        W13993  27.616  12.202  14.345
50061W        W13994  13.219  26.515   3.268
50062W        W13995   5.878  26.018   3.773
50063W        W13996  16.145  26.570  11.941
50064W        W13997   8.698  25.102   3.157
50065W        W13998  24.519   1.362  13.869
50066W        W13999  36.515  13.836  14.355
50067W        W14000  32.980  28.126  13.414
50068W        W14001  42.897  15.151   4.795
50069W        W14002   6.841  13.811   3.792
50070W        W14003  38.948  27.537  10.629
50071W        W14004  38.015  12.321   0.414
50072W        W14005  30.421  22.525   4.751
50073W        W14006  22.546  35.976  14.473
50074W        W14007  38.338   0.932  10.989
50075W        W14008  38.571  10.857   4.261
50076W        W14009  20.642   2.804   1.439
50077W        W14010  17.611  39.521  13.884
50078W        W14011  29.952  23.720  10.574
50079W        W14012  40.334  21.697  14.855
50080W        W14013  13.713  33.964   3.821
50081W        W14014  44.946   8.691   3.321
50082W        W14015  30.458  14.155  14.933
50083W        W14016  28.057  19.261   2.875
50084W        W14017  38.528  36.388   3.189
50085W        W14018  44.348  40.500   3.313
50086W        W14019   2.935   3.286   3.293
50087W        W14020   2.257  36.037  11.427
50088W        W14021  39.339   9.300   1.220
50089W        W14022  37.478  19.184   1.293
50090W        W14023  31.024  18.128   4.349
50091W        W14024  33.935  19.269  13.849
50092W        W14025  15.263  34.511  11.928
50093W        W14026  34.111  22.239  12.977
50094W        W14027  22.720   5.836  10.603
50095W        W14028  16.813  13.692   2.317
50096W        W14029  13.177  30.072   0.323
50097W        W14030  13.227  20.764   2.704
50098W        W14031   1.312  38.989   3.322
50099W        W14032   5.280  11.220  12.949
50100W        W14033  28.643  43.900  11.878
50101W        W14034   7.172  35.911  13.989
50102W        W14035  38.539  43.953   1.295
50103W        W14036  42.996   7.679  13.923
50104W        W14037  29.604  17.743  10.451
50105W        W14038  36.421  44.817  13.053
50106W        W14039   6.730  14.165  10.030
50107W        W14040  40.315  31.052  12.848
50108W        W14041  22.131  33.444  14.820
50109W        W14042  23.648  44.315   2.343
50110W        W14043  19.234  25.990   0.385
50111W        W14044  19.171  34.994  14.474
50112W        W14045  29.020   1.282  12.004
50113W        W14046  17.629  41.380   2.722
50114W        W14047  12.326  39.411   2.728
50115W        W14048  43.284  27.046  14.513
50116W        W14049  15.775  34.588  13.019
50117W        W14050  39.403  25.565  11.902
50118W        W14051  15.280  20.736  12.433
50119W        W14052   0.409   0.359   4.661
50120W        W14053  14.291  39.540  10.626
50121W        W14054  11.716  18.085   0.366
50122W        W14055  14.626  25.069   0.273
50123W        W14056  15.777  28.661  10.975
50124W        W14057  40.883   1.353   4.253
50125W        W14058  17.133  12.786   3.217
50126W        W14059  29.945  13.270  14.497
50127W        W14060  17.288  30.568   3.224
50128W        W14061  31.122   0.870   2.842
50129W        W14062  27.661  18.728  11.479
50130W        W14063  21.104  18.630  11.577
50131W        W14064  23.731  13.188   3.797
50132W        W14065   9.693   7.749  12.410
50133W        W14066  20.699   8.662   0.257
50134W        W14067  25.988  41.349   1.789
50135W        W14068  26.479   1.757  13.950
50136W        W14069  10.635   3.394  12.912
50137W        W14070  42.434  10.747  14.883
50138W        W14071   6.727  11.248   2.253
50139W        W14072   2.292  26.173   2.729
50140W        W14073  34.476  31.141  14.844
50141W        W14074  23.735  19.240  12.353
50142W        W14075  18.663  21.238   4.232
50143W        W14076   7.798  43.296  14.859
50144W        W14077   6.188   5.437  13.502
50145W        W14078   6.794  26.645   0.430
50146W        W14079  28.483  14.229  14.356
50147W        W14080  36.915  39.318  10.920
50148W        W14081   5.337   1.812  10.429
50149W        W14082  39.988  20.582   4.145
50150W        W14083   1.258   5.767  12.058
50151W        W14084  36.439  31.944   2.247
50152W        W14085  39.047  18.559  11.491
50153W        W14086   4.799  23.677  13.793
50154W        W14087   1.759  35.945  11.896
50155W        W14088  43.272  12.788  10.569
50156W        W14089  31.059   9.704  10.900
50157W        W14090  13.347  35.422   2.365
50158W        W14091  28.482  16.109   1.229
50159W        W14092  19.552   6.359   2.672
50160W        W14093  23.037  18.286   3.148
50161W        W14094  17.131  10.226   0.889
50162W        W14095  18.723  12.772  11.084
50163W        W14096   3.908  13.684   0.810
50164W        W14097  32.560  21.633  12.439
50165W        W14098  32.620  43.883   0.294
50166W        W14099  20.107  24.504  11.020
50167W        W14100   7.682  11.807  11.913
50168W        W14101   4.844   1.734   2.679
50169W        W14102  19.725  15.633   0.747
50170W        W14103  29.645  35.385  14.864
50171W        W14104  29.551  25.586  12.932
50172W        W14105  18.075  27.614  11.451
50173W        W14106  19.658   9.781  11.877
50174W        W14107  36.024  28.071   2.830
50175W        W14108  22.565  27.000   4.597
50176W        W14109   0.796  32.993  13.968
50177W        W14110  11.197  36.534  11.898
50178W        W14111  11.623   6.316  11.593
50179W        W14112  29.470  14.207  13.843
50180W        W14113  38.881  42.803  14.869
50181W        W14114  35.387  14.669   1.728
50182W        W14115  23.061  23.147  11.893
50183W        W14116   5.874   2.394  11.102
50184W        W14117  42.387  24.113   4.668
50185W        W14118  31.896   5.200  12.936
50186W        W14119   1.830  22.526  13.794
50187W        W14120  15.201  21.209  13.977
50188W        W14121  31.906  22.172  10.453
50189W        W14122   0.458  19.661   2.884
50190W        W14123  41.300  27.023   0.842
50191W        W14124   4.283  28.996   1.343
50192W        W14125  19.665  32.897  12.492
50193W        W14126  39.429  29.621  11.893
50194W        W14127  18.263  24.999  13.489
50195W        W14128  41.915  14.220  10.569
50196W        W14129  32.897   7.864  10.583
50197W        W14130   9.820  19.646   1.797
50198W        W14131   5.750  34.450   0.367
50199W        W14132  21.030  27.007  12.387
50200W        W14133   2.324  32.051   2.376
50201W        W14134  20.554  10.273  11.936
50202W        W14135  14.718   4.815   3.672
50203W        W14136  34.014  43.366  14.474
50204W        W14137  18.061  31.960   4.147
50205W        W14138  43.289  13.318  10.963
50206W        W14139  15.283  12.118  13.982
50207W        W14140   0.905   2.451  12.471
50208W        W14141  42.448  44.980   0.366
50209W        W14142  11.736  23.584   2.392
50210W        W14143  44.493  32.955   0.272
50211W        W14144  38.845  20.138  13.320
50212W        W14145  10.654  44.416   4.798
50213W        W14146  27.176  21.738  14.833
50214W        W14147   7.823  29.142  14.832
50215W        W14148  12.662  44.918  11.432
50216W        W14149   3.887  33.430   0.438
50217W        W14150  35.395  12.195   2.386
50218W        W14151  23.548  28.083   3.375
50219W        W14152  12.137  40.962   2.267
50220W        W14153  35.571  29.160   3.344
50221W        W14154   0.883  39.314  13.799
50222W        W14155  12.656  37.882  11.425
50223W        W14156  36.955   6.394  10.603
50224W        W14157   0.782  32.075   2.781
50225W        W14158  44.269  24.632  12.923
50226W        W14159  34.012  23.593   0.433
50227W        W14160   6.364  16.656  13.528
50228W        W14161  14.179  10.288  12.471
50229W        W14162   5.712  28.473   4.703
50230W        W14163  28.168  20.269   2.247
50231W        W14164  34.898  26.459   9.960
50232W        W14165  31.510  14.324  12.874
50233W        W14166  15.661  41.963  13.445
50234W        W14167  40.545  10.277  14.889
50235W        W14168   8.882   6.793   2.239
50236W        W14169  38.541  24.718   1.416
50237W        W14170   3.459  29.555   4.646
50238W        W14171  35.983  33.546   1.399
50239W        W14172  40.334  20.199   2.848
50240W        W14173  21.203   9.393   4.142
50241W        W14174  18.210  27.100  13.891
50242W        W14175  42.341  39.028  10.591
50243W        W14176   1.749  34.908  12.497
50244W        W14177  39.862   0.783   4.724
50245W        W14178  44.316  31.521   2.221
50246W        W14179  25.081  41.317   3.828
50247W        W14180  16.808  38.013  11.419
50248W        W14181  16.202   8.867   3.745
50249W        W14182  27.981  33.072   3.762
50250W        W14183  33.392   6.696   0.967
50251W        W14184   9.683   0.948   4.236
50252W        W14185  22.646  42.976  11.968
50253W        W14186  40.372  44.502  13.885
50254W        W14187  33.587  30.022  10.411
50255W        W14188  16.191  18.291  11.897
50256W        W14189  24.184  13.767   1.420
50257W        W14190  20.212  20.746   4.710
50258W        W14191  37.966  37.901  14.897
50259W        W14192  44.433  12.194   0.453
50260W        W14193  11.785  12.302  12.492
50261W        W14194   7.370  25.963  10.488
50262W        W14195  29.621   8.387  10.578
50263W        W14196  43.940  15.120   0.873
50264W        W14197  10.290  23.239  12.562
50265W        W14198  27.144  35.981  11.395
50266W        W14199  22.577   3.456   2.257
50267W        W14200  33.624  16.721   4.602
50268W        W14201  23.992  19.740   1.245
50269W        W14202  19.701  43.288  10.523
50270W        W14203  27.592  31.546   4.128
50271W        W14204  14.749   9.818  10.969
50272W        W14205  13.196  44.953   4.243
50273W        W14206  29.541  43.499   4.812
50274W        W14207  37.397  38.047  10.617
50275W        W14208  34.458  37.549   2.342
50276W        W14209  11.248  10.752  10.951
50277W        W14210  43.397  40.490  11.504
50278W        W14211  24.684  41.869   0.926
50279W        W14212  34.486  13.334  11.453
50280W        W14213  32.405  15.722  14.937
50281W        W14214   8.895  26.703  13.874
50282W        W14215  27.191  31.993   4.766
50283W        W14216  30.084  22.514  11.573
50284W        W14217  25.497   6.886   0.281
50285W        W14218  43.317   3.295   1.781
50286W        W14219   1.841  32.116   0.807
50287W        W14220   6.387  12.754   0.275
50288W        W14221  34.877  28.114  11.886
50289W        W14222  32.421  15.607  12.543
50290W        W14223  24.717  25.202  13.808
50291W        W14224  17.688   9.839   3.862
50292W        W14225  22.235  26.672   2.181
50293W        W14226  38.838  10.145  10.153
50294W        W14227  30.928  36.479   0.265
50295W        W14228  35.996  22.606  13.977
50296W        W14229  23.239  13.291   2.416
50297W        W14230  25.198  42.281   4.802
50298W        W14231   4.794  21.198  11.434
50299W        W14232  32.137  15.586  12.543
50300W        W14233   9.720  14.684  11.906
50301W        W14234  36.859  24.065   3.869
50302W        W14235  44.330  11.191  12.986
50303W        W14236   7.763   6.297   0.301
50304W        W14237   7.296  36.964  12.413
50305W        W14238   1.304   2.362   4.746
50306W        W14239   7.184  39.448  11.035
50307W        W14240  16.255  40.498   4.681
50308W        W14241  42.293  10.755   0.851
50309W        W14242  42.841  30.123  11.048
50310W        W14243  42.345  28.042   2.392
50311W        W14244  12.214  41.857   2.281
50312W        W14245   7.808   0.773   1.788
50313W        W14246  31.639   1.895   2.230
50314W        W14247  13.229  36.904  10.420
50315W        W14248  12.836  29.014  10.506
50316W        W14249  22.531  20.160   1.915
50317W        W14250  24.712  35.461  10.558
50318W        W14251  34.541  16.593  14.880
50319W        W14252   8.731  20.267   0.862
50320W        W14253  40.037  14.157   5.174
50321W        W14254  31.591  38.929  11.892
50322W        W14255  34.909  43.891   3.721
50323W        W14256   7.845  31.543   0.750
50324W        W14257  26.159  13.246   4.126
50325W        W14258  17.690  30.568   0.825
50326W        W14259   0.470  30.427  13.039
50327W        W14260  13.137   3.458   1.730
50328W        W14261  20.267  37.365  11.911
50329W        W14262  42.373  14.753  14.775
50330W        W14263  18.146   1.451   4.746
50331W        W14264  22.044  24.690  14.452
50332W        W14265  13.619   4.812  10.506
50333W        W14266  34.020  43.453   4.121
50334W        W14267  42.402  24.598  12.946
50335W        W14268   7.775  12.245  11.887
50336W        W14269  32.532  29.160  14.509
50337W        W14270  32.114   0.822   0.777
50338W        W14271   9.303  40.426  12.027
50339W        W14272  39.933  36.487   1.748
50340W        W14273  13.338   5.927   9.984
50341W        W14274  26.680  33.891   0.246
50342W        W14275  40.955   7.211  13.461
50343W        W14276  14.756  33.416   1.393
50344W        W14277  34.401  32.027   4.612
50345W        W14278   0.901  44.839   3.360
50346W        W14279  33.448   7.782  12.024
50347W        W14280  14.634  16.787   0.933
50348W        W14281  44.331  14.280  14.421
50349W        W14282  13.325   4.900   0.372
50350W        W14283  23.534  11.792  14.337
50351W        W14284  17.665  28.048   5.097
50352W        W14285  38.390  11.694  12.975
50353W        W14286  40.844  37.573   3.246
50354W        W14287  26.183  17.796  14.913
50355W        W14288  31.451  29.132   3.304
50356W        W14289  17.188   4.792   2.303
50357W        W14290  41.422  34.431   2.771
50358W        W14291  37.568  38.874  11.385
50359W        W14292  31.965  16.186   4.294
50360W        W14293   4.213  23.639  14.426
50361W        W14294  12.293   4.330   4.252
50362W        W14295  44.459  39.875   2.311
50363W        W14296  25.170   0.828   0.481
50364W        W14297  15.196   5.904   4.808
50365W        W14298  33.933   9.369  12.351
50366W        W14299  25.109  10.198  14.292
50367W        W14300  24.641  22.667  11.377
50368W        W14301  42.782  27.181   2.703
50369W        W14302  39.895  31.441   0.431
50370W        W14303   1.842  33.547  10.987
50371W        W14304   2.831  22.682   1.411
50372W        W14305  24.148  31.039  11.890
50373W        W14306   2.747   3.725  10.412
50374W        W14307  18.698   3.750   1.826
50375W        W14308   4.929  24.987   0.769
50376W        W14309  11.641  39.890  10.955
50377W        W14310  40.834  27.993   1.712
50378W        W14311  34.575  34.094  13.311
50379W        W14312  39.832  26.992   0.917
50380W        W14313  33.126  41.856   1.355
50381W        W14314  31.497  11.711  13.410
50382W        W14315  25.590  17.728   4.649
50383W        W14316  19.175  15.640  12.869
50384W        W14317  22.107  35.562   3.296
50385W        W14318  26.583  28.510   4.811
50386W        W14319  15.769  43.397  10.617
50387W        W14320  11.301  39.064  11.940
50388W        W14321  20.577  25.148  14.515
50389W        W14322  26.460  39.019  12.019
50390W        W14323  35.083   5.764   1.419
50391W        W14324  21.674  23.489  12.359
50392W        W14325  39.412  12.783  11.894
50393W        W14326   2.405  30.470   3.651
50394W        W14327  25.113  13.157  14.881
50395W        W14328  37.937  21.560   3.230
50396W        W14329  10.249  40.983   3.731
50397W        W14330   1.285  31.424  13.423
50398W        W14331  28.073  25.006  12.476
50399W        W14332  22.503  25.208   4.286
50400W        W14333  35.396  43.015   0.853
50401W        W14334  27.488   2.250  13.391
50402W        W14335  33.562  13.272  11.522
50403W        W14336   8.697  27.098  11.951
50404W        W14337   4.398  27.523  12.474
50405W        W14338  16.716   5.687   0.290
50406W        W14339  30.462  34.566   0.260
50407W        W14340  42.300  33.481  14.442
50408W        W14341  18.631  23.078  10.499
50409W        W14342   4.424   0.940   4.205
50410W        W14343  16.689  30.923  10.963
50411W        W14344  42.871  18.646  10.979
50412W        W14345  44.823  42.793   5.226
50413W        W14346  15.192  21.244  12.507
50414W        W14347   2.295   6.273   1.405
50415W        W14348  23.219  16.638  10.571
50416W        W14349  34.887   5.887  12.535
50417W        W14350  30.974   6.754  10.565
50418W        W14351  22.646  27.945  14.872
50419W        W14352   2.954  35.984  11.946
50420W        W14353  16.669  10.325   1.433
50421W        W14354  39.985  38.018  11.080
50422W        W14355  19.694  23.647  13.362
50423W        W14356  26.023  39.555   0.908
50424W        W14357   0.825  24.676  14.441
50425W        W14358  24.508  32.470   1.722
50426W        W14359   8.692   6.409  10.642
50427W        W14360  35.094  20.075  13.820
50428W        W14361  44.489  14.184   5.263
50429W        W14362  38.956  39.832   3.304
50430W        W14363  34.967  10.783  14.943
50431W        W14364   4.724   4.850  12.417
50432W        W14365  42.946   7.286  14.353
50433W        W14366  22.247  42.415   0.863
50434W        W14367  32.922   6.826  14.333
50435W        W14368   9.651  10.767   1.922
50436W        W14369  43.283  18.247   0.940
50437W        W14370  27.156  42.014  12.564
50438W        W14371  36.957  21.629  11.079
50439W        W14372  35.501  40.939  13.333
50440W        W14373  11.694  37.055   2.387
50441W        W14374   3.461   6.399   2.709
50442W        W14375  41.852  15.114  12.825
50443W        W14376  14.614   8.356  13.792
50444W        W14377  35.873   4.933   3.673
50445W        W14378  10.682  11.627   3.244
50446W        W14379  36.962  34.449   2.309
50447W        W14380   0.910  23.225   2.726
50448W        W14381  16.100  32.415  12.432
50449W        W14382  11.867  16.570  13.833
50450W        W14383  37.037  12.184   3.376
50451W        W14384  24.585  41.933   4.195
50452W        W14385  40.503  40.400   0.892
50453W        W14386  14.624  17.123   4.686
50454W        W14387   6.872  28.085  13.007
50455W        W14388   0.919  17.624  10.894
50456W        W14389  34.923  28.467   0.863
50457W        W14390  30.552  18.206   4.703
50458W        W14391  28.532  22.699  14.508
50459W        W14392  31.633  10.649   4.661
50460W        W14393  43.410   3.449   4.259
50461W        W14394  27.600  42.501   4.237
50462W        W14395  27.638  26.475  14.836
50463W        W14396  26.622   1.790  12.375
50464W        W14397   2.830   0.856  10.567
50465W        W14398   5.848   6.850  10.121
50466W        W14399  18.254  21.695  10.895
50467W        W14400   3.934   8.788  10.932
50468W        W14401   3.419  31.943  12.497
50469W        W14402  44.995  14.280   0.883
50470W        W14403  26.972  35.892   3.246
50471W        W14404  40.968  10.775  14.499
50472W        W14405  25.622  44.870   0.918
50473W        W14406  35.909   8.834  14.400
50474W        W14407   4.852  11.289   0.818
50475W        W14408  36.850  37.964  11.584
50476W        W14409  13.125  10.161  13.003
50477W        W14410  15.299  30.922   4.142
50478W        W14411  32.476  37.349  12.852
50479W        W14412  35.478  33.041  10.997
50480W        W14413   3.321  14.119   1.695
50481W        W14414  33.420  29.969  13.042
50482W        W14415   9.308  30.930   0.841
50483W        W14416  30.457  41.928  12.071
50484W        W14417  23.149  34.897   3.377
50485W        W14418  14.317  21.025  10.438
50486W        W14419  43.861  18.197  12.893
50487W        W14420  35.896  40.919   0.458
50488W        W14421  40.447   9.191   2.846
50489W        W14422   1.958  16.073  14.954
50490W        W14423  14.594  32.610  14.306
50491W        W14424   5.783   1.262  10.902
50492W        W14425  22.641  24.180   4.296
50493W        W14426  39.907  18.192  11.503
50494W        W14427  11.242  43.776  10.888
50495W        W14428  28.497  24.507   4.222
50496W        W14429  27.185  14.627   4.625
50497W        W14430   2.355  13.821  12.449
50498W        W14431  10.223   2.385  14.845
50499W        W14432  20.228  43.510  10.527
50500W        W14433   9.680  23.027  12.852
50501W        W14434  10.144  39.042  11.090
50502W        W14435  32.565  16.211   0.442
50503W        W14436  42.367  40.361   0.414
50504W        W14437  15.239   8.795  14.368
50505W        W14438  30.633  23.498  12.017
50506W        W14439  26.063  21.688   2.237
50507W        W14440  43.004  27.574   0.929
50508W        W14441  13.643  41.957  12.494
50509W        W14442  25.166  32.129   3.182
50510W        W14443  43.288  39.365  14.516
50511W        W14444  28.135  17.276   3.165
50512W        W14445  12.232  21.595   0.362
50513W        W14446   5.889  40.837   3.169
50514W        W14447  29.638  15.594   4.114
50515W        W14448  38.062   3.306  13.457
50516W        W14449  21.749  42.382   1.707
50517W        W14450  22.016  31.479   0.291
50518W        W14451  14.824  21.185  12.914
50519W        W14452  15.621  21.694  14.816
50520W        W14453   2.438  10.337   3.195
50521W        W14454  28.940  13.118   3.746
50522W        W14455  24.073  22.159   3.824
50523W        W14456  19.550  18.083   1.875
50524W        W14457  21.190   5.933   3.855
50525W        W14458  20.086  18.062   0.289
50526W        W14459   8.681  24.144  13.369
50527W        W14460   0.467  21.132   1.251
50528W        W14461  29.482  28.127   0.302
50529W        W14462  38.530  38.879   4.609
50530W        W14463  41.344  11.775   0.391
50531W        W14464   1.939  18.097   0.915
50532W        W14465  11.683  29.662   0.912
50533W        W14466  18.686   9.195   4.789
50534W        W14467  26.457  32.505   4.732
50535W        W14468   4.912  22.614   5.318
50536W        W14469  28.559  27.475   2.815
50537W        W14470   3.733  13.154  10.436
50538W        W14471  22.518   3.269  13.327
50539W        W14472  34.919  35.081   4.186
50540W        W14473   6.794  16.090   3.169
50541W        W14474  40.305  39.446  13.889
50542W        W14475  20.594  38.891   0.773
50543W        W14476   7.702  17.144   3.228
50544W        W14477  37.926  22.710   3.376
50545W        W14478  12.769   5.869   4.310
50546W        W14479  30.469  13.805  13.013
50547W        W14480  13.759  13.674   3.835
50548W        W14481   3.414  38.893   3.321
50549W        W14482   8.681  40.444   4.611
50550W        W14483  38.551  39.864   4.736
50551W        W14484  29.008  30.947   1.326
50552W        W14485  14.147  43.822  12.014
50553W        W14486  11.342   6.428   3.805
50554W        W14487  32.888   7.773  13.514
50555W        W14488  31.137  22.716  12.416
50556W        W14489  23.051  17.150  11.106
50557W        W14490  12.748   6.852   3.214
50558W        W14491  20.079  42.339   1.278
50559W        W14492   5.196  43.811   3.706
50560W        W14493  38.403  11.285   3.208
50561W        W14494  19.636  32.014  12.362
50562W        W14495  22.518  33.989   1.306
50563W        W14496  44.496  22.082   4.771
50564W        W14497  33.431   1.361  14.821
50565W        W14498   9.378  42.440   1.876
50566W        W14499   6.323  36.371   4.170
50567W        W14500  23.202   2.804  14.510
50568W        W14501   3.411  42.500   2.306
50569W        W14502  18.219  30.465   4.738
50570W        W14503  20.155  35.454  11.126
50571W        W14504  14.335  16.208  12.356
50572W        W14505  12.207   5.200   3.148
50573W        W14506   0.760  12.290   2.869
50574W        W14507  41.476  36.078   0.460
50575W        W14508  11.790  16.764  10.070
50576W        W14509  11.792  38.372  12.026
50577W        W14510  24.193   5.794  11.898
50578W        W14511  44.776  19.764  13.934
50579W        W14512   1.887  24.068   2.691
50580W        W14513   3.237  38.023   1.389
50581W        W14514  24.138  21.228  13.990
50582W        W14515   5.923   9.352  14.429
50583W        W14516  31.975  22.187   2.702
50584W        W14517  13.175  44.438   2.673
50585W        W14518  26.457  22.714  13.352
50586W        W14519  33.878  23.673   4.325
50587W        W14520  39.057  13.688   2.211
50588W        W14521  40.922   1.810   1.214
50589W        W14522  35.958  18.555  11.560
50590W        W14523  39.857  32.887  12.445
50591W        W14524  18.154  21.112   3.749
50592W        W14525  14.722   8.873  11.481
50593W        W14526  29.505  27.635  13.543
50594W        W14527  21.251   1.354  12.946
50595W        W14528  41.810  14.186  11.480
50596W        W14529  10.752   1.840  10.441
50597W        W14530  31.455  27.612  11.598
50598W        W14531  24.687  32.585   3.811
50599W        W14532  10.708  42.877  10.455
50600W        W14533  36.849  17.114  12.070
50601W        W14534  20.601  21.043   0.481
50602W        W14535  25.011  34.596   2.864
50603W        W14536  42.468  32.432  14.433
50604W        W14537  12.349   2.264   2.239
50605W        W14538  35.924  39.465   1.213
50606W        W14539  22.235  17.160   3.734
50607W        W14540  21.250   8.890   9.970
50608W        W14541  21.260  33.575  12.864
50609W        W14542   4.751   1.943  14.989
50610W        W14543   0.448   2.416   1.725
50611W        W14544  36.852   5.923   0.279
50612W        W14545  31.912  15.722  10.449
50613W        W14546  25.106  14.228  14.783
50614W        W14547  39.408  38.563  11.489
50615W        W14548  21.035   5.396  11.059
50616W        W14549  11.743  18.632   2.199
50617W        W14550   3.748  30.107   2.667
50618W        W14551  26.471  22.132   3.311
50619W        W14552  29.173  39.339  11.506
50620W        W14553  12.166  26.129   3.812
50621W        W14554  42.973  23.222   0.460
50622W        W14555   1.812  43.381   1.359
50623W        W14556  34.104  13.822  10.914
50624W        W14557  28.542  26.175   2.896
50625W        W14558  43.765  12.253  12.888
50626W        W14559  14.691  36.417  14.794
50627W        W14560  19.234   8.776  10.645
50628W        W14561   1.444  21.215  11.127
50629W        W14562   0.908  39.954   4.229
50630W        W14563  12.769   3.905   3.294
50631W        W14564  25.172  32.957   0.954
50632W        W14565   0.412  44.439  12.015
50633W        W14566  13.161  14.339   1.912
50634W        W14567   7.897  38.840   4.757
50635W        W14568   8.348  12.188   0.482
50636W        W14569  35.868  30.989   0.352
50637W        W14570  23.014  16.278  11.424
50638W        W14571  10.383  18.665  13.541
50639W        W14572   1.960   1.935   0.786
50640W        W14573  29.482  21.164  11.012
50641W        W14574  33.045  33.034   3.773
50642W        W14575  26.184  27.066  12.021
50643W        W14576  43.488  41.382   3.693
50644W        W14577  41.526   6.759   0.409
50645W        W14578  16.082   2.231  10.542
50646W        W14579  16.585  23.183  10.980
50647W        W14580   3.400  24.063  11.498
50648W        W14581  24.573   5.360   1.893
50649W        W14582   6.254  24.036  11.444
50650W        W14583  13.321  43.394  14.974
50651W        W14584  34.613  44.778   1.881
50652W        W14585  44.313   3.264  12.020
50653W        W14586  13.827   2.769  11.566
50654W        W14587  28.593  17.207   4.805
50655W        W14588   2.246  24.127   1.737
50656W        W14589  30.093   4.810  14.764
50657W        W14590  40.497  11.793  14.505
50658W        W14591  39.831  24.511   0.954
50659W        W14592   7.687  44.459  10.541
50660W        W14593   6.383  35.920  13.333
50661W        W14594  29.002   8.284   0.265
50662W        W14595  33.052  17.067   2.198
50663W        W14596  11.773  31.965   1.281
50664W        W14597  40.915  10.339   3.217
50665W        W14598  35.079  31.419  14.001
50666W        W14599  15.678  22.536   4.724
50667W        W14600  18.189  37.959  14.834
50668W        W14601   2.388  12.120   2.742
50669W        W14602  13.759  15.263  11.906
50670W        W14603  28.136  15.722   3.372
50671W        W14604   9.681  21.204   2.392
50672W        W14605  29.997  24.683  12.086
50673W        W14606  33.880  23.988   2.245
50674W        W14607  38.378  27.967   3.320
50675W        W14608  44.797  34.047  14.440
50676W        W14609  24.203  39.917   1.801
50677W        W14610  36.567  29.947   0.861
50678W        W14611   1.432  12.614   1.287
50679W        W14612  24.171  13.636   5.138
50680W        W14613   4.279   5.924   4.319
50681W        W14614  33.908   3.450  11.450
50682W        W14615   6.738  14.212   2.664
50683W        W14616   5.745  42.805   1.232
50684W        W14617  10.738  27.134   1.214
50685W        W14618  36.419  29.985  13.836
50686W        W14619  20.594  31.541  10.894
50687W        W14620  31.936  17.761   3.703
50688W        W14621  24.710   9.647  12.422
50689W        W14622  25.073  34.386   0.316
50690W        W14623  42.814  32.954  14.421
50691W        W14624  25.569  31.055   2.349
50692W        W14625  22.573  42.873   2.325
50693W        W14626  43.849  43.445  13.986
50694W        W14627  33.517   4.799   3.384
50695W        W14628  35.403  23.625  12.031
50696W        W14629  26.010  39.481   1.868
50697W        W14630  39.028  13.337  13.917
50698W        W14631  34.553  17.616   3.656
50699W        W14632  17.175  43.508  10.588
50700W        W14633  12.620   5.434   1.802
50701W        W14634  26.184  14.308  11.963
50702W        W14635   6.372   2.304   1.704
50703W        W14636   3.859  12.815  14.413
50704W        W14637   3.783  24.017  11.545
50705W        W14638  31.001   8.405   3.682
50706W        W14639   3.357   7.901   1.248
50707W        W14640  40.508  25.125   4.130
50708W        W14641  38.024  24.004   1.820
50709W        W14642  31.645  43.945  13.408
50710W        W14643   4.210   9.286  12.843
50711W        W14644   1.448  38.552  14.003
50712W        W14645  30.987  35.454  10.619
50713W        W14646  40.003  14.149   0.811
50714W        W14647  26.488  43.822  13.904
50715W        W14648  40.870  29.638   2.287
50716W        W14649  21.544  29.491  12.841
50717W        W14650  27.167  19.551  12.870
50718W        W14651  43.981  13.170   1.871
50719W        W14652  36.556   5.913   2.682
50720W        W14653  27.072   8.692   2.781
50721W        W14654  42.336  16.230   2.388
50722W        W14655  34.477  21.183  14.403
50723W        W14656  20.240  21.259   1.426
50724W        W14657  38.047  23.650   4.260
50725W        W14658  41.977   4.259   3.280
50726W        W14659  39.348  24.616   0.853
50727W        W14660  34.476  39.882  13.505
50728W        W14661  32.124   2.799  11.012
50729W        W14662  31.923  11.708   1.774
50730W        W14663  23.669  20.564   2.326
50731W        W14664   5.304   3.875  14.002
50732W        W14665  18.269  12.212   2.373
50733W        W14666  39.536  28.625   3.328
50734W        W14667  38.069  33.398  14.506
50735W        W14668  42.453  25.012   4.798
50736W        W14669  20.531  16.566  13.327
50737W        W14670  25.041  31.418  14.425
50738W        W14671  19.770  27.152  11.925
50739W        W14672  42.868  25.576  11.889
50740W        W14673   9.747   3.393   0.905
50741W        W14674  15.094  30.132  12.424
50742W        W14675  17.626  27.675  12.963
50743W        W14676  10.654  42.429   4.621
50744W        W14677  33.926  30.483   0.846
50745W        W14678  40.319   2.319  12.491
50746W        W14679  20.624  26.052   3.675
50747W        W14680   7.856  38.439   4.736
50748W        W14681  19.067  31.508   0.245
50749W        W14682  31.586  25.014   2.702
50750W        W14683  43.973  44.389  12.581
50751W        W14684  12.807  43.379  12.404
50752W        W14685  21.041  17.778   2.705
50753W        W14686  25.642  42.000   0.731
50754W        W14687  14.267  35.524  10.568
50755W        W14688  35.500  38.447  12.381
50756W        W14689  20.666   4.446   3.227
50757W        W14690  42.358  44.909  11.910
50758W        W14691   7.673  32.889  12.918
50759W        W14692   4.385  41.818   4.693
50760W        W14693  39.407  23.651  11.603
50761W        W14694  18.084  40.537  11.994
50762W        W14695  18.083  20.522   5.186
50763W        W14696  25.481   3.899   0.874
50764W        W14697  10.208  21.613   5.199
50765W        W14698   8.793  18.653   2.402
50766W        W14699  42.405  10.368   1.388
50767W        W14700   3.370  38.554   2.288
50768W        W14701  35.510  13.761   2.885
50769W        W14702   3.820  40.944   4.621
50770W        W14703  28.148  31.610   1.228
50771W        W14704  13.609  22.695  12.391
50772W        W14705  29.491  38.935  13.883
50773W        W14706   2.865   9.224   4.781
50774W        W14707   3.346  23.189  13.844
50775W        W14708   9.810  38.446  13.000
50776W        W14709   0.810  12.742   4.809
50777W        W14710  16.781  37.527  11.381
50778W        W14711   6.676  23.149   4.636
50779W        W14712  42.887  41.979   2.390
50780W        W14713  25.189   1.914  14.902
50781W        W14714  37.840  13.828  12.424
50782W        W14715  34.925   7.368  12.534
50783W        W14716  43.860  18.651  13.863
50784W        W14717   1.761  36.549   0.415
50785W        W14718  16.122  40.049   1.860
50786W        W14719  38.506  44.862  11.985
50787W        W14720   4.249   2.853   2.270
50788W        W14721  23.173  22.721  10.989
50789W        W14722  29.526  33.450   4.711
50790W        W14723  26.151  36.472   3.351
50791W        W14724  39.560  20.142   1.727
50792W        W14725  44.360  27.646  11.855
50793W        W14726  16.307   2.946   4.788
50794W        W14727  10.329  26.520   0.779
50795W        W14728  31.501   7.329  14.766
50796W        W14729  40.884  35.861  14.827
50797W        W14730   6.301  16.803  11.497
50798W        W14731  18.648   9.854   1.391
50799W        W14732   4.399  15.626   1.414
50800W        W14733  39.435  19.212   2.237
50801W        W14734  24.217  40.808  12.067
50802W        W14735  22.676  41.445  12.962
50803W        W14736   7.362  22.642   1.728
50804W        W14737  41.892  16.731  10.502
50805W        W14738  44.316  32.084  12.032
50806W        W14739  30.642  39.441   0.384
50807W        W14740  29.983  38.049  11.372
50808W        W14741  26.484   5.355  12.351
50809W        W14742  44.891  38.859   4.613
50810W        W14743  22.592  36.892   0.737
50811W        W14744  28.486   7.197   3.807
50812W        W14745  19.251   4.904  12.401
50813W        W14746  23.108  25.035  13.000
50814W        W14747  29.969  19.674   4.605
50815W        W14748  41.514  41.468   2.676
50816W        W14749  18.200  12.212   3.303
50817W        W14750  21.689  31.111   2.275
50818W        W14751  26.992  30.554   3.290
50819W        W14752  24.598  24.230  11.481
50820W        W14753   3.311  24.682   0.825
50821W        W14754  43.314  27.500   3.208
50822W        W14755   4.836  36.035  13.499
50823W        W14756  40.446  32.531   3.868
50824W        W14757  19.100  25.503  11.111
50825W        W14758   9.783  29.480   4.139
50826W        W14759  23.063  28.168  10.478
50827W        W14760  21.097  11.140  12.944
50828W        W14761  37.504  24.020   3.287
50829W        W14762  38.509  18.266   4.348
50830W        W14763  39.862  21.089  13.834
50831W        W14764  38.337  20.089  13.019
50832W        W14765  36.045  18.097  14.946
50833W        W14766  10.326  21.159   2.182
50834W        W14767  15.589  14.261   4.761
50835W        W14768  33.381  11.223   0.394
50836W        W14769   7.818   3.328  12.354
50837W        W14770  22.701   4.245  13.824
50838W        W14771   7.810  44.961   3.320
50839W        W14772   7.713  25.488   2.883
50840W        W14773  33.075  26.653  12.950
50841W        W14774  12.276  26.146  11.578
50842W        W14775  10.282   5.437   4.217
50843W        W14776  29.084   9.806  11.078
50844W        W14777  44.396  38.564  10.093
50845W        W14778  15.306  33.494  13.504
50846W        W14779  30.048  26.615   1.784
50847W        W14780  25.601  42.424  14.003
50848W        W14781   3.255  18.647  11.516
50849W        W14782  21.554  18.704   3.699
50850W        W14783  40.431   7.175   0.922
50851W        W14784  33.045  12.812  14.000
50852W        W14785   3.764   7.268   1.286
50853W        W14786  44.854  23.711  10.475
50854W        W14787   4.439  13.269  11.870
50855W        W14788  41.534  17.241   0.369
50856W        W14789  17.101   7.877  14.991
50857W        W14790  26.480  28.078   1.868
50858W        W14791  31.131  27.110  12.829
50859W        W14792  22.725   7.845   0.317
50860W        W14793   0.389  36.357  11.891
50861W        W14794  38.480  23.103  13.937
50862W        W14795  32.091   4.364  11.910
50863W        W14796  39.508  44.416  13.956
50864W        W14797  18.605  10.851  13.989
50865W        W14798  10.286  22.245  10.006
50866W        W14799  34.986  16.582  10.544
50867W        W14800  20.649   7.856  11.913
50868W        W14801   5.872  12.134   0.782
50869W        W14802  10.152  33.910  14.496
50870W        W14803   6.242   5.290  11.897
50871W        W14804  15.305  18.132  14.931
50872W        W14805  19.709  37.396  11.413
50873W        W14806  36.953  29.475  12.340
50874W        W14807  21.548   2.472  10.403
50875W        W14808  17.205  12.790  12.858
50876W        W14809  40.398   6.712   1.701
50877W        W14810   0.489  44.938  10.903
50878W        W14811  27.625   9.191  13.830
50879W        W14812  14.141   6.185   0.374
50880W        W14813   1.931  12.236  12.493
50881W        W14814  19.733   7.223   0.313
50882W        W14815  26.516  40.390  13.902
50883W        W14816  22.581  38.042   2.321
50884W        W14817  31.911  32.924  12.891
50885W        W14818  28.601  30.598   0.859
50886W        W14819  17.576  26.171  11.021
50887W        W14820  16.086  17.772  11.490
50888W        W14821   8.367  31.898  10.577
50889W        W14822  41.483  31.580   1.779
50890W        W14823   4.377  27.962  12.033
50891W        W14824  19.191  43.305  13.833
50892W        W14825  39.818  36.552   3.219
50893W        W14826  11.292  15.802   1.788
50894W        W14827  34.483  26.534  13.321
50895W        W14828   5.902  34.950   3.256
50896W        W14829  24.166  33.591  13.411
50897W        W14830  35.379   4.719  13.929
50898W        W14831   8.898   7.903  14.346
50899W        W14832  15.618   4.878  13.798
50900W        W14833  20.669  37.933   2.388
50901W        W14834  21.570  30.941   3.361
50902W        W14835   0.486  38.074  14.958
50903W        W14836  24.715  44.453  13.903
50904W        W14837  44.953  23.145   3.258
50905W        W14838  18.087  44.914   2.791
50906W        W14839   1.481  34.582  12.863
50907W        W14840   7.325   6.887   5.251
50908W        W14841   6.869  44.822   1.701
50909W        W14842   7.337   1.773  11.861
50910W        W14843  26.168  43.813  11.869
50911W        W14844  28.165  16.128   4.679
50912W        W14845  22.078   8.210   4.674
50913W        W14846  16.258  18.779   4.199
50914W        W14847   1.340   3.738   0.932
50915W        W14848  20.577  22.209  14.331
50916W        W14849  28.999  37.919   1.858
50917W        W14850  19.712  40.456  10.452
50918W        W14851  28.544  29.583   4.113
50919W        W14852  36.909  28.659   4.302
50920W        W14853   2.370  14.596   3.823
50921W        W14854  16.603  29.033  12.888
50922W        W14855   1.419  26.469  14.003
50923W        W14856  34.047  10.383  10.499
50924W        W14857  21.554  35.008  12.504
50925W        W14858  34.486  12.713  11.907
50926W        W14859  29.464  39.880   3.864
50927W        W14860  24.668  41.452   2.871
50928W        W14861  24.007   0.985   2.383
50929W        W14862  23.523   4.320   0.894
50930W        W14863  31.611  23.027  13.034
50931W        W14864  39.866  44.922   3.859
50932W        W14865  11.255  31.081   2.885
50933W        W14866  15.319  14.152   2.190
50934W        W14867  42.364  15.144   2.739
50935W        W14868   3.747   6.375   1.251
50936W        W14869  37.581  43.894   2.751
50937W        W14870  33.027   2.450  14.345
50938W        W14871  12.794  20.675   4.641
50939W        W14872  17.584  34.436   4.232
50940W        W14873  20.032   4.212  14.383
50941W        W14874  11.370  26.200   3.225
50942W        W14875  40.916  23.054   0.414
50943W        W14876  29.628  13.737  11.530
50944W        W14877  15.765  33.449   4.833
50945W        W14878  35.019   3.385   1.872
50946W        W14879   3.927  17.656  11.405
50947W        W14880  24.552  39.837  11.860
50948W        W14881  17.192  31.647   4.716
50949W        W14882  35.361   2.467   4.174
50950W        W14883  34.113   6.217   1.214
50951W        W14884   9.287  20.085   1.740
50952W        W14885  31.906  17.754   2.896
50953W        W14886   0.321  44.773   3.868
50954W        W14887  27.467  26.060  11.467
50955W        W14888   1.920  16.567  10.464
50956W        W14889  23.598  42.365  11.107
50957W        W14890  39.852  44.461   2.749
50958W        W14891  43.396  12.214  11.419
50959W        W14892   6.276  29.541  12.983
50960W        W14893  41.020  13.258  10.506
50961W        W14894  13.174  41.009  11.113
50962W        W14895  12.267   5.225   9.660
50963W        W14896  27.029   0.332  12.943
50964W        W14897  17.229   6.781  10.969
50965W        W14898   4.396   4.325  10.608
50966W        W14899  21.570  37.082  10.496
50967W        W14900  43.490  26.570  13.338
50968W        W14901   2.445  15.307  14.836
50969W        W14902   0.756  29.619   3.849
50970W        W14903  40.819  11.276   4.203
50971W        W14904  36.095   3.312  14.506
50972W        W14905   2.259  11.197  11.958
50973W        W14906  19.746  19.581  13.961
50974W        W14907  32.890   3.846   1.742
50975W        W14908  10.745  36.085  10.949
50976W        W14909   7.272  40.540   2.785
50977W        W14910  33.902  43.896   3.681
50978W        W14911  19.258  32.097   2.344
50979W        W14912   9.196  16.706  11.502
50980W        W14913  36.881   1.387   1.391
50981W        W14914  22.505  43.969   1.893
50982W        W14915  15.226  23.577  13.002
50983W        W14916  39.926  17.078   2.775
50984W        W14917  10.829   6.838  13.464
50985W        W14918  41.390  18.775  13.977
50986W        W14919   4.830  34.070   0.289
50987W        W14920  13.122   1.976  11.922
50988W        W14921  21.592  10.306   0.440
50989W        W14922  10.691   4.204  14.351
50990W        W14923  13.108  43.374   1.927
50991W        W14924  42.825  18.054  10.131
50992W        W14925  26.541   4.887   3.210
50993W        W14926  14.151  43.271   4.665
50994W        W14927  28.438  22.672  10.133
50995W        W14928   8.670  16.209   0.370
50996W        W14929  18.166  43.843  13.494
50997W        W14930   6.286  22.692   0.930
50998W        W14931   9.268  19.049   1.706
50999W        W14932  25.536  38.407   3.367
51000W        W14933  20.212   0.476  10.983
51001W        W14934  21.239  38.452  13.403
51002W        W14935  32.081   4.263  12.956
51003W        W14936  27.546  40.304  12.554
51004W        W14937   5.726  14.255  13.469
51005W        W14938  41.300   9.645  10.512
51006W        W14939  28.668  35.934   4.774
51007W        W14940  36.469  20.071  14.371
51008W        W14941  21.117  13.766   1.240
51009W        W14942  20.056   5.277  14.869
51010W        W14943  39.048   6.389  10.105
51011W        W14944  21.228  19.692  12.974
51012W        W14945  21.690  11.163  14.917
51013W        W14946  10.751  18.062   2.732
51014W        W14947  26.637  42.841   2.385
51015W        W14948  13.747   6.268   1.773
51016W        W14949  41.366  31.045   1.255
51017W        W14950   3.378  16.665   5.210
51018W        W14951  14.770  11.193  14.013
51019W        W14952   7.395  10.756   1.896
51020W        W14953  44.322   2.364  12.964
51021W        W14954  14.200  13.285  14.278
51022W        W14955  42.942   6.399   1.899
51023W        W14956  34.591  29.503   2.762
51024W        W14957  44.284  31.904   3.725
51025W        W14958  25.188   3.348  11.120
51026W        W14959   1.762  22.174   0.796
51027W        W14960  35.094  26.629   5.252
51028W        W14961  44.418  33.007   2.701
51029W        W14962  32.992  22.197  13.013
51030W        W14963  26.686  19.234  12.980
51031W        W14964  25.679   4.791   2.341
51032W        W14965   1.483  40.517   2.845
51033W        W14966   0.453  18.295   2.356
51034W        W14967  43.320   2.866  11.108
51035W        W14968  24.159  24.158  14.496
51036W        W14969   1.410  11.324  13.001
51037W        W14970  20.228   3.875  10.967
51038W        W14971   3.286  22.598   1.716
51039W        W14972   2.288  39.928   4.701
51040W        W14973  20.649  31.493  13.334
51041W        W14974  30.635  27.578  11.423
51042W        W14975  21.061   9.674   2.738
51043W        W14976   3.419  11.267  10.532
51044W        W14977  22.039  35.394  14.494
51045W        W14978  38.561  27.538  14.953
51046W        W14979  17.711  12.622   2.366
51047W        W14980  23.168   8.674   0.808
51048W        W14981   2.327   0.300  11.538
51049W        W14982  40.939  22.035  11.895
51050W        W14983  36.964  10.867   3.312
51051W        W14984  34.379  27.638  11.077
51052W        W14985  38.878   3.718   2.802
51053W        W14986  32.931   6.845   2.795
51054W        W14987  28.960   0.477   4.171
51055W        W14988  37.464  23.167   3.755
51056W        W14989  31.098  21.242  10.919
51057W        W14990   8.897  32.958   3.318
51058W        W14991  40.828  21.745   4.744
51059W        W14992  36.410   1.274  13.475
51060W        W14993  29.653  35.944  13.811
51061W        W14994   4.298  10.809   1.249
51062W        W14995  15.323  17.644  13.945
51063W        W14996  40.033   5.344  11.410
51064W        W14997  27.612  21.637   3.229
51065W        W14998  31.948  34.880  13.921
51066W        W14999  32.067  39.500   4.190
51067W        W15000  38.362  35.402  10.935
51068W        W15001  17.737  41.895   5.796
51069W        W15002   8.161  13.305  11.017
51070W        W15003   8.667  26.048  11.047
51071W        W15004  13.627  23.133  12.841
51072W        W15005  33.944  40.527   1.879
51073W        W15006  28.079  41.790   4.745
51074W        W15007  11.366  35.055   3.149
51075W        W15008  36.954  33.090  10.443
51076W        W15009   5.428  32.059  14.896
51077W        W15010  41.319   1.247   1.439
51078W        W15011  14.139  27.179  11.399
51079W        W15012  23.181  30.965   4.802
51080W        W15013  13.294   4.795  11.590
51081W        W15014  33.499  34.942  12.348
51082W        W15015  31.077  29.968  13.032
51083W        W15016  14.630  14.790  13.430
51084W        W15017  44.923  28.599   1.820
51085W        W15018  34.411  33.418   3.640
51086W        W15019  26.700  36.469  13.317
51087W        W15020  26.097  16.577  11.551
51088W        W15021  42.006  36.905  14.820
51089W        W15022  26.997  41.012  13.056
51090W        W15023  36.895  19.741   4.698
51091W        W15024   0.768   1.300  14.362
51092W        W15025  39.889  43.495  11.568
51093W        W15026   8.675   2.946   0.832
51094W        W15027  26.478  27.582   0.814
51095W        W15028  31.466  15.165   0.311
51096W        W15029  40.973  42.033  13.902
51097W        W15030   4.934  23.167  12.000
51098W        W15031  33.943  14.098  13.010
51099W        W15032  27.022  31.914   1.723
51100W        W15033  37.949   4.831   0.427
51101W        W15034  37.005  28.957   4.162
51102W        W15035  25.069  42.423   3.247
51103W        W15036  17.190  24.076   0.294
51104W        W15037  39.371   0.834  14.381
51105W        W15038  17.685  42.033   5.161
51106W        W15039  25.050  10.344   4.151
51107W        W15040  39.519  37.392   5.177
51108W        W15041   5.378  11.142   4.304
51109W        W15042  17.069  17.074  14.448
51110W        W15043   6.422  14.289  12.559
51111W        W15044  32.139  43.407   4.314
51112W        W15045   4.827  29.053  10.980
51113W        W15046   3.749  27.617   3.774
51114W        W15047  30.554  21.170   2.359
51115W        W15048  20.249  23.004   1.266
51116W        W15049  13.744  30.107  14.503
51117W        W15050  26.687  12.710   4.661
51118W        W15051  14.217  32.488   4.235
51119W        W15052   5.436  24.209  12.402
51120W        W15053  22.596  24.616  12.867
51121W        W15054  26.700  35.993   4.813
51122W        W15055   5.705  29.423  12.057
51123W        W15056  32.021  13.348  13.895
51124W        W15057  41.436  11.134   4.670
51125W        W15058  11.857  17.728  12.542
51126W        W15059  25.627  13.756  11.439
51127W        W15060  39.442  23.096  10.415
51128W        W15061  37.426  44.478  12.958
51129W        W15062  40.337  40.000   3.704
51130W        W15063  23.708   2.772  14.506
51131W        W15064  16.711  37.484   2.224
51132W        W15065  25.471  28.628  12.349
51133W        W15066  35.976  14.317  14.308
51134W        W15067  13.272  16.253   4.121
51135W        W15068  30.629  35.872   4.216
51136W        W15069   1.419   7.883   2.843
51137W        W15070  22.629  36.585   3.729
51138W        W15071  27.165  12.759   4.340
51139W        W15072   8.296  38.072  14.835
51140W        W15073  40.989  25.635   0.873
51141W        W15074  10.870  13.129  13.931
51142W        W15075  30.964  39.863   1.751
51143W        W15076   5.693   5.726  14.972
51144W        W15077  27.010  33.890  14.293
51145W        W15078  42.364  33.442  10.509
51146W        W15079  26.150   6.816   2.306
51147W        W15080  24.024   0.372  11.486
51148W        W15081  41.995   5.353   4.347
51149W        W15082   5.714  13.256   1.812
51150W        W15083  40.962   3.227  11.068
51151W        W15084  40.034   3.216   1.736
51152W        W15085  33.422   4.866  14.364
51153W        W15086  40.326   9.227  14.469
51154W        W15087  28.006   0.769  11.486
51155W        W15088  30.631  19.284   3.820
51156W        W15089  12.120  29.632   1.236
51157W        W15090  37.844  28.500  12.427
51158W        W15091  34.866  42.408  11.495
51159W        W15092  24.995   9.300  11.938
51160W        W15093  29.013  29.050   1.739
51161W        W15094   4.729  21.204  10.536
51162W        W15095  35.939  24.721   3.281
51163W        W15096  39.035  42.971  12.347
51164W        W15097   9.692  21.188   3.237
51165W        W15098  30.499  34.939  11.089
51166W        W15099  34.455  18.074   3.317
51167W        W15100   6.250  36.373   0.459
51168W        W15101  43.008   8.188   2.320
51169W        W15102  35.096  13.270   1.787
51170W        W15103  31.948  34.481  14.791
51171W        W15104  22.069  16.614   3.850
51172W        W15105  38.480  28.585  10.426
51173W        W15106  10.368  18.247   3.839
51174W        W15107  41.897  37.977   1.233
51175W        W15108  22.223   4.269   1.828
51176W        W15109  20.618  13.744  14.911
51177W        W15110  11.726  35.592   1.857
51178W        W15111   5.318   6.222   0.877
51179W        W15112  19.112  16.683  14.314
51180W        W15113  29.479   4.743   4.724
51181W        W15114  43.801  28.931   1.717
51182W        W15115  38.960  34.891   1.311
51183W        W15116  15.601  40.326  11.476
51184W        W15117  42.804  44.772   1.298
51185W        W15118  11.726  19.574   2.747
51186W        W15119   9.878  44.307  13.336
51187W        W15120   6.701  19.252  13.855
51188W        W15121   9.763  20.238  13.478
51189W        W15122  30.594  21.736  14.460
51190W        W15123  44.453  25.607   5.247
51191W        W15124  39.840  21.160  11.432
51192W        W15125   6.366  36.884   2.739
51193W        W15126  12.246  24.023   4.334
51194W        W15127  15.218   9.830  14.870
51195W        W15128  22.683   4.747  10.112
51196W        W15129   4.380  10.317   2.752
51197W        W15130  28.529   3.876  11.101
51198W        W15131   0.405  43.911   2.664
51199W        W15132  29.955  25.124  14.847
51200W        W15133  14.746  11.761  14.799
51201W        W15134  35.095  28.085   2.231
51202W        W15135  38.033   7.256   3.775
51203W        W15136  40.937  34.450  12.043
51204W        W15137  36.434   7.777   2.261
51205W        W15138  33.437   6.777   2.396
51206W        W15139  13.295   8.729  14.002
51207W        W15140  12.243  25.147   4.129
51208W        W15141   2.874   8.404   0.945
51209W        W15142  13.639  42.996  11.440
51210W        W15143  17.285   1.275   1.799
51211W        W15144  36.578  39.060   3.371
51212W        W15145  22.734  30.603   2.274
51213W        W15146   7.306  26.117   0.329
51214W        W15147  18.720  38.376  13.366
51215W        W15148  44.753  14.805  13.428
51216W        W15149  31.110  13.125   2.348
51217W        W15150  42.978  13.700  12.048
51218W        W15151   5.325  32.592  13.466
51219W        W15152  40.336  43.996  12.081
51220W        W15153  20.116  29.555  14.286
51221W        W15154   8.817  33.493   4.837
51222W        W15155  22.037  33.409  14.400
51223W        W15156  38.367  43.296   0.397
51224W        W15157  40.925  31.506  13.919
51225W        W15158   3.876  36.531   3.256
51226W        W15159  38.014   4.415   4.793
51227W        W15160   6.296  39.419  10.968
51228W        W15161  34.498  19.716   4.690
51229W        W15162  28.672  21.523   1.768
51230W        W15163  13.223  28.933   0.259
51231W        W15164  12.678  37.468  11.571
51232W        W15165   1.313  24.056  11.105
51233W        W15166  29.008  34.949   2.881
51234W        W15167  34.910  20.630   3.333
51235W        W15168   7.271  30.433   4.802
51236W        W15169  26.702  17.621   4.259
51237W        W15170   6.336  23.716  14.887
51238W        W15171  14.137  21.149  11.390
51239W        W15172  14.606  35.469  13.383
51240W        W15173  29.120  10.697  11.018
51241W        W15174  43.325   8.885   3.719
51242W        W15175  17.622  27.963  13.888
51243W        W15176  37.554  29.657  12.385
51244W        W15177  20.256  36.094  13.436
51245W        W15178  20.050  19.773   1.783
51246W        W15179  35.420  18.577   0.749
51247W        W15180  18.250  20.050  11.891
51248W        W15181   9.318  25.615   2.295
51249W        W15182  36.497  12.304   2.867
51250W        W15183   6.219  41.373  14.784
51251W        W15184  37.554  32.472  14.315
51252W        W15185   8.735  14.635   1.235
51253W        W15186   6.248   8.784   3.838
51254W        W15187   9.241   5.202   2.275
51255W        W15188  29.102   8.897  12.560
51256W        W15189  31.516  22.203   2.806
51257W        W15190   6.853  32.054   3.843
51258W        W15191  31.516  36.999   4.812
51259W        W15192  14.200  26.628   2.210
51260W        W15193  17.166  19.266   1.368
51261W        W15194  38.554  28.141   4.724
51262W        W15195  28.968  42.790   1.842
51263W        W15196  38.458  34.480  11.431
51264W        W15197  30.512  38.888  10.915
51265W        W15198  44.310   5.786  12.376
51266W        W15199  29.061   2.265   1.811
51267W        W15200  12.854   6.184   3.809
51268W        W15201  41.440  21.641   0.761
51269W        W15202  40.831   2.893   3.754
51270W        W15203  29.467  38.451  13.804
51271W        W15204  42.909  38.418  12.478
51272W        W15205   9.755  26.101   1.731
51273W        W15206  43.965   0.774   1.364
51274W        W15207  17.636   4.811  14.771
51275W        W15208  16.578  39.520   0.766
51276W        W15209   4.806   7.867  10.502
51277W        W15210  32.392  32.888   4.671
51278W        W15211  32.084   7.761   0.776
51279W        W15212  23.680  21.701   2.277
51280W        W15213  13.820  44.291  14.378
51281W        W15214   8.262   0.262   2.326
51282W        W15215  17.762   5.206   4.211
51283W        W15216  25.628   6.681   1.425
51284W        W15217   5.883  28.043  13.486
51285W        W15218  12.770  16.148  13.037
51286W        W15219  39.995  28.497  14.922
51287W        W15220  30.006  16.085  12.837
51288W        W15221  40.923   7.693   4.707
51289W        W15222  43.988   6.900   4.700
51290W        W15223  21.626  40.836   2.665
51291W        W15224   7.894  20.722   4.758
51292W        W15225  29.502  14.638   0.286
51293W        W15226   4.916  22.095  13.543
51294W        W15227  33.528   9.173   2.350
51295W        W15228  27.119   3.928  12.829
51296W        W15229  36.010  43.959  13.310
51297W        W15230  25.018  18.583  11.053
51298W        W15231  11.166  19.656  12.376
51299W        W15232  29.082  20.070  14.396
51300W        W15233   3.217   5.434  13.325
51301W        W15234  31.477  40.375   3.383
51302W        W15235  42.959  42.490   0.410
51303W        W15236  43.826  41.394  14.785
51304W        W15237   7.831  26.135   2.857
51305W        W15238  37.986  33.495   2.854
51306W        W15239  25.542   2.833   2.888
51307W        W15240  23.090  25.128   1.385
51308W        W15241  37.888  25.695   2.745
51309W        W15242   7.777  35.485  12.416
51310W        W15243  12.770  15.608   2.408
51311W        W15244  22.115  22.179   2.829
51312W        W15245  17.128   8.315  14.989
51313W        W15246  13.755  44.923  13.916
51314W        W15247   5.782  17.733  14.435
51315W        W15248  17.220  10.718   1.733
51316W        W15249  35.993  12.748  12.468
51317W        W15250  43.384  40.400  14.911
51318W        W15251  33.057  38.042  11.084
51319W        W15252  28.932  24.103  13.345
51320W        W15253  10.817  10.817  12.031
51321W        W15254  38.077  11.137   4.661
51322W        W15255  25.087  33.516   2.700
51323W        W15256  14.732  32.946  10.921
51324W        W15257  34.379  33.030   2.181
51325W        W15258  22.163  22.573  10.462
51326W        W15259  19.626  44.810   3.870
51327W        W15260  14.827   2.467  10.622
51328W        W15261  39.524   8.198  14.774
51329W        W15262   0.851  44.272  13.012
51330W        W15263  16.232  22.224   3.834
51331W        W15264  24.531  33.108  12.831
51332W        W15265  33.128  16.149   3.646
51333W        W15266  17.159   2.233  11.936
51334W        W15267  17.788  31.583   4.308
51335W        W15268  24.514  12.122  14.289
51336W        W15269  26.977   5.297   3.679
51337W        W15270  37.356  22.704  12.898
51338W        W15271   7.707  35.032  13.906
51339W        W15272  37.353  26.660   1.906
51340W        W15273   1.817  40.507  11.878
51341W        W15274  25.080  41.806  14.020
51342W        W15275   0.856  19.261  12.898
51343W        W15276  27.979  29.046   3.824
51344W        W15277  30.511  29.499   0.775
51345W        W15278  19.606  44.932  12.064
51346W        W15279  38.406  32.139   3.235
51347W        W15280   2.430   2.816  12.439
51348W        W15281  44.987  16.262   0.355
51349W        W15282   1.864  42.871   3.146
51350W        W15283  23.003  26.964   0.764
51351W        W15284   5.742  18.244  10.543
51352W        W15285  13.265  42.823   4.159
51353W        W15286  29.984  36.367   4.793
51354W        W15287  14.284  16.161   4.164
51355W        W15288   4.706  15.813   1.929
51356W        W15289  35.596  25.967  13.822
51357W        W15290  31.020  21.182  11.598
51358W        W15291   2.371   1.739  10.489
51359W        W15292   4.756  26.961   4.268
51360W        W15293  20.186  11.855   2.389
51361W        W15294  39.038   4.256   4.291
51362W        W15295   5.914  42.386   3.725
51363W        W15296   6.358   6.689   0.450
51364W        W15297  41.010  39.956  14.895
51365W        W15298  32.933  10.289  13.479
51366W        W15299  39.027   2.769   1.348
51367W        W15300  26.994  31.906  13.810
51368W        W15301   1.827  12.711   3.755
51369W        W15302   3.444  25.586   2.399
51370W        W15303  39.386   6.419   4.721
51371W        W15304  25.976  41.811  13.307
51372W        W15305  28.605  10.261   4.652
51373W        W15306  24.725  24.490  10.616
51374W        W15307  12.217  18.197  11.545
51375W        W15308  22.080  26.081   3.812
51376W        W15309  28.555  34.089   2.187
51377W        W15310  15.786  16.644   5.166
51378W        W15311  35.093  43.833   1.848
51379W        W15312  41.923   1.315  13.425
51380W        W15313  42.462  19.620  12.050
51381W        W15314  28.042  13.655  11.483
51382W        W15315   5.438  20.062  14.023
51383W        W15316   2.765  34.878  10.447
51384W        W15317  32.888   5.690   4.627
51385W        W15318  36.865  43.298   0.770
51386W        W15319   3.953  29.051  10.899
51387W        W15320  38.347  11.860   1.793
51388W        W15321  31.434  35.930   3.679
51389W        W15322   2.394  22.164  14.928
51390W        W15323  38.403  42.356   4.334
51391W        W15324  13.839  29.649   1.443
51392W        W15325  13.221   0.832  10.512
51393W        W15326  24.063  19.689   2.352
51394W        W15327   2.353  16.108  11.955
51395W        W15328  21.578  33.545   1.750
51396W        W15329  24.570  38.483   2.713
51397W        W15330  28.546  21.674   2.837
51398W        W15331  32.581   5.842  14.866
51399W        W15332   9.699  25.071   9.968
51400W        W15333  29.621   0.952  11.573
51401W        W15334   5.399   7.796   0.466
51402W        W15335  41.994  39.387   1.741
51403W        W15336  36.348  40.859  14.834
51404W        W15337  28.435   4.927   4.729
51405W        W15338   0.337  26.644  12.935
51406W        W15339   7.182  19.246   4.168
51407W        W15340  20.213  36.065   3.699
51408W        W15341  34.521  37.967   1.250
51409W        W15342  28.974  11.300   4.277
51410W        W15343   5.867  27.605  14.299
51411W        W15344  38.337   5.693  13.531
51412W        W15345  17.785   7.877  10.620
51413W        W15346   4.440  20.166  14.979
51414W        W15347  18.780  35.921   4.689
51415W        W15348  18.722  18.181   1.345
51416W        W15349  13.268  31.540  11.875
51417W        W15350  16.658   0.433  12.971
51418W        W15351  12.854  23.992   4.176
51419W        W15352  13.286   7.686  14.849
51420W        W15353  40.448   2.841  12.094
51421W        W15354  29.130   0.933   3.213
51422W        W15355  26.549  13.201   1.911
51423W        W15356   3.953  28.065  11.055
51424W        W15357   4.758   5.277  12.479
51425W        W15358  17.092   5.751   4.646
51426W        W15359  22.542   4.810  14.368
51427W        W15360  27.115  41.514  11.571
51428W        W15361  42.458   8.890  12.410
51429W        W15362  31.592  22.595   1.419
51430W        W15363  43.777   1.307  11.415
51431W        W15364   2.808  11.840  14.358
51432W        W15365  25.600  16.258  11.072
51433W        W15366  30.123  42.952   0.959
51434W        W15367  22.569  40.992   1.349
51435W        W15368   2.302  21.213   4.147
51436W        W15369   4.835  31.921   1.724
51437W        W15370  23.666  27.964   4.124
51438W        W15371  33.059  32.939   1.843
51439W        W15372   6.293  30.654  11.471
51440W        W15373  28.649  35.984  13.810
51441W        W15374  40.040   5.301  12.890
51442W        W15375   8.886  30.109  12.828
51443W        W15376   9.336  33.435  11.459
51444W        W15377  44.274  41.812  12.062
51445W        W15378  26.465  18.177  14.930
51446W        W15379   2.888  26.047   3.654
51447W        W15380  39.910  16.771   1.264
51448W        W15381  36.068  15.760  14.376
51449W        W15382  18.079  13.143  11.608
51450W        W15383  31.574  30.096   3.382
51451W        W15384  20.758  12.166   2.888
51452W        W15385   2.734  37.552  12.854
51453W        W15386  30.099  42.984   4.273
51454W        W15387   9.663  27.050   4.232
51455W        W15388  32.130  12.830   0.245
51456W        W15389  26.560   8.186  10.899
51457W        W15390  17.648  21.185  10.529
51458W        W15391  30.432  36.432  11.857
51459W        W15392  15.751  27.670   0.246
51460W        W15393  22.148  11.679   2.829
51461W        W15394   2.796  20.545  10.996
51462W        W15395  14.260  23.523  14.005
51463W        W15396   0.259  29.933   2.737
51464W        W15397  15.583   6.315  12.515
51465W        W15398  25.972  18.609  10.525
51466W        W15399   4.727  20.162   4.174
51467W        W15400  40.499  12.302   4.698
51468W        W15401  29.518  11.775  12.025
51469W        W15402  34.069  16.131   0.299
51470W        W15403   3.286  21.167  10.409
51471W        W15404  10.807  36.495   3.328
51472W        W15405  19.047   9.775   2.348
51473W        W15406  12.159  30.572  11.611
51474W        W15407  19.561   8.834  11.392
51475W        W15408   1.737  23.704  10.638
51476W        W15409  10.728  16.259   0.950
51477W        W15410  11.182  16.175  10.965
51478W        W15411  29.505  17.230  14.905
51479W        W15412   1.246   2.236  14.788
51480W        W15413   1.447  19.040   4.240
51481W        W15414   3.833  20.722  12.350
51482W        W15415  14.158  10.720   4.237
51483W        W15416   9.308  19.627   3.351
51484W        W15417   6.349  32.947   2.779
51485W        W15418  24.035  29.425  12.361
51486W        W15419  24.533  18.056  12.389
51487W        W15420   3.722  18.705  10.956
51488W        W15421  37.937  24.181   2.854
51489W        W15422  15.293  37.868  12.550
51490W        W15423  11.318  26.668  13.363
51491W        W15424  29.425   5.789  12.915
51492W        W15425  33.381  36.904   2.220
51493W        W15426  37.861  31.541   2.240
51494W        W15427  34.393  23.040   2.263
51495W        W15428  25.641  10.666   3.850
51496W        W15429   0.447  13.154  13.381
51497W        W15430  34.373  43.417  14.296
51498W        W15431  35.913  17.245  10.636
51499W        W15432  17.250  33.082   4.163
51500W        W15433  27.143  18.606   0.958
51501W        W15434  33.608   6.817   4.652
51502W        W15435  27.692  12.646   2.183
51503W        W15436   8.853  31.567   0.786
51504W        W15437  21.615   2.293  10.956
51505W        W15438  32.103  40.488  12.007
51506W        W15439  36.468  29.647  13.337
51507W        W15440  18.683   6.832   2.276
51508W        W15441  39.500  21.537   3.188
51509W        W15442  32.996  39.998   0.288
51510W        W15443  15.224  30.967  13.884
51511W        W15444  17.279  11.177   0.857
51512W        W15445  40.817  44.867   1.757
51513W        W15446  32.621  35.969  12.067
51514W        W15447  16.764  36.369   1.266
51515W        W15448  16.099  25.657   0.798
51516W        W15449  35.923   4.446   1.222
51517W        W15450   2.411   1.313   1.911
51518W        W15451  10.798  13.683  13.381
51519W        W15452  38.513   7.209  10.444
51520W        W15453  43.435   7.834  12.409
51521W        W15454  33.578  23.681  12.991
51522W        W15455  31.133  27.486  13.547
51523W        W15456  43.418  27.943  12.520
51524W        W15457  24.044   6.863  12.361
51525W        W15458   3.737  31.485  11.028
51526W        W15459  42.523  26.651   0.253
51527W        W15460  16.669  14.186   0.797
51528W        W15461   9.152  42.284  13.858
51529W        W15462  43.804   9.688   0.776
51530W        W15463  28.165  14.283  13.359
51531W        W15464   0.977  38.409  11.488
51532W        W15465  35.426  14.274   2.771
51533W        W15466   8.763  36.842  13.911
51534W        W15467  38.826  11.193   9.993
51535W        W15468  16.741  23.510  14.776
51536W        W15469  22.535   0.277  14.907
51537W        W15470   0.793   1.292  12.499
51538W        W15471  24.080   1.250   0.250
51539W        W15472  40.967  31.508   3.713
51540W        W15473  23.692  10.695   2.412
51541W        W15474  20.272  43.275  13.893
51542W        W15475  24.531  18.559  13.019
51543W        W15476  31.606   2.404   1.872
51544W        W15477  17.220  29.499  10.022
51545W        W15478  44.368   7.668  12.889
51546W        W15479  28.460  34.591   4.645
51547W        W15480  33.509   3.329   1.925
51548W        W15481  10.240  36.867   1.265
51549W        W15482   4.897  38.945   4.632
51550W        W15483  39.864   3.360   2.340
51551W        W15484  25.208  39.529  13.460
51552W        W15485  42.408  30.542  12.003
51553W        W15486  34.942  19.704   1.818
51554W        W15487   6.309  35.006   4.209
51555W        W15488  20.765  20.680   1.901
51556W        W15489  28.549  23.038  12.045
51557W        W15490   5.390  32.917  12.558
51558W        W15491   6.871  41.989  12.073
51559W        W15492  23.177  17.101  10.538
51560W        W15493  38.903  23.211   2.193
51561W        W15494   7.316  41.898  13.809
51562W        W15495  22.599  42.351   4.163
51563W        W15496   4.205  16.164   4.169
51564W        W15497  33.099   0.452   0.477
51565W        W15498  16.157  14.301  11.073
51566W        W15499  19.580  18.078  11.486
51567W        W15500  43.794  19.254   3.806
51568W        W15501  43.907  25.560   0.366
51569W        W15502  22.076  16.591  14.433
51570W        W15503   8.730   3.949  14.487
51571W        W15504  10.186   8.816  14.890
51572W        W15505  23.718  18.559   0.438
51573W        W15506  41.820  36.504  12.830
51574W        W15507  28.079  31.533   2.716
51575W        W15508  39.811  16.774  14.022
51576W        W15509  42.466  32.419   1.732
51577W        W15510  15.224  28.158  10.630
51578W        W15511  23.031   0.921   1.231
51579W        W15512  16.776  10.635  14.319
51580W        W15513  40.040   5.802   3.289
51581W        W15514  18.652  27.186   3.385
51582W        W15515  18.279  27.053  12.433
51583W        W15516  27.476   4.354   0.411
51584W        W15517  22.059  25.071  10.005
51585W        W15518  29.443  41.356  12.857
51586W        W15519  41.912  31.958  13.871
51587W        W15520  16.272  34.449  13.029
51588W        W15521  13.343  42.424   0.245
51589W        W15522  27.619  30.479  11.395
51590W        W15523  18.595  19.171   2.336
51591W        W15524  10.270  30.156  13.352
51592W        W15525  19.665  42.409   1.399
51593W        W15526  16.758  39.946   4.786
51594W        W15527  29.440  20.552  11.582
51595W        W15528  37.376   6.273   4.831
51596W        W15529   2.849   2.272   0.334
51597W        W15530  41.016  34.069   2.724
51598W        W15531  29.031  31.423  11.982
51599W        W15532  20.216  20.701  14.349
51600W        W15533  34.406  37.926   4.663
51601W        W15534  16.775  41.313   2.803
51602W        W15535  37.447  40.968   4.202
51603W        W15536  13.735  10.362  11.060
51604W        W15537  44.368  31.544   0.760
51605W        W15538  14.659   6.898  11.966
51606W        W15539  40.866  43.459  10.640
51607W        W15540  19.049  26.957   0.340
51608W        W15541  31.940  13.731  14.401
51609W        W15542   7.832  28.994  11.952
51610W        W15543  18.698  15.218   3.851
51611W        W15544  25.575  20.616  13.900
51612W        W15545  13.313  29.649  13.922
51613W        W15546  15.294  34.119  13.831
51614W        W15547  41.889  43.773  12.512
51615W        W15548  11.732  15.647  13.915
51616W        W15549  16.727  28.556  11.472
51617W        W15550  12.352  42.873   2.332
51618W        W15551  31.596  23.094   2.770
51619W        W15552  17.182  27.063   2.761
51620W        W15553  42.891  14.339   4.750
51621W        W15554   4.401  18.740  11.457
51622W        W15555  19.206  17.235   3.157
51623W        W15556  12.713  32.442   4.233
51624W        W15557  25.033  34.038  13.472
51625W        W15558  32.473  34.966  14.983
51626W        W15559   2.457   0.358  10.470
51627W        W15560  39.949  13.181   2.728
51628W        W15561   7.221  17.117  14.361
51629W        W15562  35.552  42.912   9.927
51630W        W15563  21.060  23.174  14.508
51631W        W15564  19.108  10.637   4.204
51632W        W15565  21.521  43.792   4.223
51633W        W15566  23.052  36.381  14.299
51634W        W15567  19.690  43.875  13.869
51635W        W15568  22.700  19.163  14.488
51636W        W15569  43.479  33.587  10.131
51637W        W15570  10.801  30.079  10.449
51638W        W15571  27.574   2.870  12.924
51639W        W15572  22.731  17.738   2.877
51640W        W15573  17.133   8.322   2.716
51641W        W15574  12.237  14.775   2.373
51642W        W15575  22.235  36.444  14.778
51643W        W15576  41.027   3.766   4.820
51644W        W15577  34.944  24.665  13.823
51645W        W15578  14.146   7.676  11.919
51646W        W15579  16.729  23.991  12.361
51647W        W15580   4.307   6.906   4.196
51648W        W15581  29.546  17.713   4.638
51649W        W15582   6.216  26.993  11.504
51650W        W15583   8.241  40.820  13.917
51651W        W15584  31.906  27.003  14.759
51652W        W15585  24.068   6.216  13.802
51653W        W15586  26.964  18.775   0.472
51654W        W15587  19.618  17.219  13.814
51655W        W15588  21.534  40.957  14.376
51656W        W15589  30.424  39.862  14.487
51657W        W15590   7.746  35.495   3.639
51658W        W15591  15.701   7.905  13.980
51659W        W15592  40.392  21.526  13.855
51660W        W15593  36.550  22.134  14.454
51661W        W15594  13.268  21.708   3.173
51662W        W15595   1.964   8.753  10.930
51663W        W15596  26.587  12.791   1.851
51664W        W15597  40.495  12.125  12.022
51665W        W15598   8.768  31.896  11.423
51666W        W15599  27.194  15.123   3.820
51667W        W15600  34.502  27.483   1.387
51668W        W15601  35.969   3.814   3.275
51669W        W15602  11.723  14.112  11.072
51670W        W15603  28.055  13.137   0.731
51671W        W15604  24.646  14.274  13.387
51672W        W15605  20.255  36.931   1.875
51673W        W15606  19.144  28.975   0.769
51674W        W15607  19.182  15.603   3.708
51675W        W15608  21.051  18.226  12.883
51676W        W15609   0.945  17.149  13.463
51677W        W15610  13.648  33.967  14.807
51678W        W15611  18.178  33.008   4.717
51679W        W15612  32.576  38.545   4.613
51680W        W15613  15.160  21.613  14.851
51681W        W15614  20.681   7.192  13.477
51682W        W15615  43.514  25.669  12.534
51683W        W15616   3.323   3.801   4.826
51684W        W15617   1.312  19.721  12.512
51685W        W15618  44.969  26.112  12.982
51686W        W15619  38.515  10.692   0.754
51687W        W15620   6.184  38.337   1.820
51688W        W15621  32.022  30.028   4.316
51689W        W15622  32.426  24.188   2.373
51690W        W15623  42.316  37.432  11.431
51691W        W15624  14.647  12.284  12.345
51692W        W15625  40.050  44.386  14.927
51693W        W15626  31.434  22.734  12.351
51694W        W15627   4.404  28.952   0.396
51695W        W15628   6.401  31.002  13.326
51696W        W15629   0.274   9.659  12.058
51697W        W15630  25.073  35.433   0.756
51698W        W15631  23.606  33.602  11.879
51699W        W15632  27.029   4.779   0.441
51700W        W15633  38.908  20.188   2.819
51701W        W15634   6.205  14.177   4.257
51702W        W15635  22.034  18.658  14.298
51703W        W15636  10.779  24.997   2.410
51704W        W15637  11.364  15.308   3.654
51705W        W15638  16.697   5.403   1.377
51706W        W15639  26.498  37.397   4.322
51707W        W15640  24.129  38.438   0.471
51708W        W15641  40.343  17.698  14.420
51709W        W15642  34.390  20.646   2.814
51710W        W15643  10.297   2.252  10.992
51711W        W15644  32.001  21.722  14.989
51712W        W15645  19.075  29.999   2.316
51713W        W15646  33.006   8.398   4.721
51714W        W15647  42.013  23.532   9.959
51715W        W15648  36.064  17.715  11.981
51716W        W15649  39.853  35.854  10.555
51717W        W15650  43.935  17.568   1.355
51718W        W15651  40.843   1.857  13.512
51719W        W15652  12.191  35.429  12.503
51720W        W15653   6.898  30.635   1.260
51721W        W15654   2.929  35.050   3.731
51722W        W15655  16.652  15.112  12.543
51723W        W15656  12.823  10.763  11.907
51724W        W15657  17.124  35.367  12.398
51725W        W15658   1.911   5.298   1.723
51726W        W15659  39.327   2.813  14.870
51727W        W15660  22.043  12.855   1.287
51728W        W15661   8.305  31.995   2.404
51729W        W15662   0.898  33.583   1.862
51730W        W15663   6.258  20.057  11.584
51731W        W15664  28.006  41.353  14.304
51732W        W15665   0.802  43.321  11.373
51733W        W15666   6.857  42.810  11.099
51734W        W15667   5.301   1.859   4.242
51735W        W15668  36.351  32.117   3.273
51736W        W15669   9.231  27.165   3.801
51737W        W15670  33.974  13.633  13.980
51738W        W15671  36.585  17.235   2.181
51739W        W15672  38.405  38.964   4.302
51740W        W15673  10.747   9.682   1.722
51741W        W15674  41.441   5.310   1.891
51742W        W15675  13.312  37.434   2.203
51743W        W15676  26.972   2.249  11.031
51744W        W15677   3.822  29.519   2.274
51745W        W15678  15.139  15.219  11.469
51746W        W15679   9.660  15.230  11.537
51747W        W15680  34.939  23.099   3.744
51748W        W15681   9.862  26.064   9.555
51749W        W15682  34.988   3.407   4.243
51750W        W15683  14.320  30.511   2.857
51751W        W15684  30.459  35.033   1.806
51752W        W15685  28.032  17.126   0.910
51753W        W15686   2.792   3.316  11.545
51754W        W15687  25.699  20.166  13.012
51755W        W15688   0.457  32.934   3.295
51756W        W15689  34.590   7.694   2.896
51757W        W15690  44.263  25.067   5.154
51758W        W15691   9.884  10.748   0.286
51759W        W15692  22.736  28.063   1.732
51760W        W15693  35.530  15.739   2.197
51761W        W15694   4.931   0.274  11.129
51762W        W15695  14.765  21.712   3.751
51763W        W15696  41.944  25.071  14.483
51764W        W15697  11.241  27.177   3.656
51765W        W15698  16.792   7.239   2.776
51766W        W15699  38.507  42.293  10.517
51767W        W15700   8.333  22.727  13.311
51768W        W15701  32.418  38.465  11.450
51769W        W15702  28.605   9.657  13.444
51770W        W15703  12.171  36.944  12.030
51771W        W15704   5.858  18.114  11.549
51772W        W15705  16.232  24.973  10.996
51773W        W15706  33.508  42.413  11.597
51774W        W15707   0.871  14.715   0.374
51775W        W15708  42.912  22.227  13.495
51776W        W15709  19.262  34.409  10.436
51777W        W15710  29.084  24.096  12.497
51778W        W15711  30.523  41.464   4.221
51779W        W15712   1.793  14.224   5.107
51780W        W15713  21.158   1.299   2.849
51781W        W15714  40.029  33.054   1.343
51782W        W15715  41.811  35.405   1.288
51783W        W15716   1.966  16.271  10.948
51784W        W15717  22.701   7.878  12.386
51785W        W15718  32.941  36.019   2.331
51786W        W15719  23.524  22.518   4.259
51787W        W15720  30.994  37.371   4.289
51788W        W15721  36.377  34.435   0.779
51789W        W15722  36.881  15.275  12.417
51790W        W15723   3.713  41.321  12.527
51791W        W15724  27.950  22.550  12.520
51792W        W15725  13.325   4.865   4.769
51793W        W15726  24.159  32.990   2.381
51794W        W15727   8.168  37.506   5.161
51795W        W15728  21.748  19.686  13.381
51796W        W15729  24.608   4.871   2.269
51797W        W15730  25.055  42.357   2.366
51798W        W15731  25.158   1.343   0.288
51799W        W15732  16.187   8.790  13.004
51800W        W15733  20.541   6.312   2.356
51801W        W15734  11.648   6.276   4.119
51802W        W15735  17.690  10.650   0.787
51803W        W15736   3.228  17.564   4.268
51804W        W15737  36.082  12.155   2.215
51805W        W15738  22.657  44.294   4.248
51806W        W15739  26.502  30.030  14.914
51807W        W15740  37.338  11.777  11.867
51808W        W15741  26.635  21.221  12.068
51809W        W15742  23.169  35.471  14.461
51810W        W15743  16.145  27.658   3.213
51811W        W15744  16.193  35.575  13.049
51812W        W15745  44.902  30.528   2.684
51813W        W15746  23.501  39.899   1.359
51814W        W15747   7.674  23.121  11.597
51815W        W15748  18.064  30.425  10.618
51816W        W15749  42.397  40.806  13.844
51817W        W15750  28.003  11.190   1.804
51818W        W15751  31.983  31.023  14.327
51819W        W15752  22.527  40.356  13.843
51820W        W15753  38.468  21.202   1.271
51821W        W15754  33.566   9.369  13.008
51822W        W15755  26.654  37.879   2.849
51823W        W15756  43.849  11.826   4.812
51824W        W15757  31.941  27.499   1.933
51825W        W15758  25.590  21.222  13.851
51826W        W15759   9.265  34.385   2.335
51827W        W15760  44.007  23.989   0.792
51828W        W15761   2.721  24.646   3.381
51829W        W15762  43.443  31.985  10.921
51830W        W15763  22.084  36.414   0.424
51831W        W15764  43.337  37.433   3.274
51832W        W15765  38.037  42.819   0.966
51833W        W15766  22.245  33.467   2.307
51834W        W15767  13.196  15.660   0.894
51835W        W15768  37.989  30.006   0.354
51836W        W15769  11.638  39.506   2.416
51837W        W15770  34.527  39.052  11.592
51838W        W15771  40.529  42.973   2.773
51839W        W15772  30.995  32.127  12.882
51840W        W15773   2.790  17.107  13.392
51841W        W15774  20.267  39.531   4.243
51842W        W15775  27.113  16.578   4.701
51843W        W15776   0.339   6.395  12.824
51844W        W15777   0.432   6.806   4.309
51845W        W15778  21.129  42.029  11.120
51846W        W15779  18.168  31.492   1.301
51847W        W15780  39.435   0.832   4.822
51848W        W15781   3.727  40.388  11.007
51849W        W15782  33.956  21.594   2.897
51850W        W15783  35.070  31.127   3.194
51851W        W15784  18.289  33.562   1.767
51852W        W15785  37.081   9.198   0.933
51853W        W15786  15.114  44.950  12.390
51854W        W15787  29.937   9.242   3.672
51855W        W15788  27.026  14.643  13.325
51856W        W15789  37.859  16.692  10.583
51857W        W15790  38.060  32.093   2.885
51858W        W15791  30.070  21.223  12.007
51859W        W15792  28.533  27.197  14.368
51860W        W15793  33.585  20.167   1.431
51861W        W15794  20.195  26.073   0.753
51862W        W15795  36.364  17.303   4.609
51863W        W15796   9.280  21.664   4.649
51864W        W15797  28.155  43.330  10.891
51865W        W15798  21.532  31.570   4.622
51866W        W15799  22.660  43.294   4.607
51867W        W15800  26.191  16.181  11.041
51868W        W15801   5.834  30.976  14.504
51869W        W15802  12.677   1.736   4.680
51870W        W15803   9.272  36.859   1.336
51871W        W15804  18.697  42.902   2.800
51872W        W15805  41.821  31.634   3.637
51873W        W15806  19.109  13.253   1.215
51874W        W15807  39.827   6.714   1.334
51875W        W15808   0.952   6.909  12.886
51876W        W15809   2.281  38.386   1.870
51877W        W15810  20.268  44.261   2.898
51878W        W15811  29.645   2.868  14.279
51879W        W15812  30.629  36.915  14.771
51880W        W15813  23.029   6.741  14.403
51881W        W15814  39.866   8.777  11.471
51882W        W15815  42.281   2.243  13.480
51883W        W15816  12.805  17.689  11.520
51884W        W15817   1.872  17.158  11.116
51885W        W15818  20.139  16.594   9.978
51886W        W15819  39.514  35.521   2.711
51887W        W15820  28.579  11.315   2.878
51888W        W15821   6.766  42.789  11.567
51889W        W15822   4.239   5.862  11.122
51890W        W15823  42.826  12.320  13.982
51891W        W15824  11.313  25.141  13.808
51892W        W15825  13.622   5.837  11.126
51893W        W15826   6.740  40.525  14.766
51894W        W15827  40.910  38.561   2.182
51895W        W15828  26.528  34.552   2.257
51896W        W15829   1.415  17.187   4.671
51897W        W15830  43.421   2.813   3.267
51898W        W15831  32.571  26.501  10.046
51899W        W15832  28.637  22.707   2.214
51900W        W15833  32.597  11.143   2.792
51901W        W15834   8.348  15.809  13.995
51902W        W15835   7.820  10.381   0.375
51903W        W15836  15.272  44.007   2.801
51904W        W15837  25.469  20.208  13.398
51905W        W15838  23.651  39.428   0.799
51906W        W15839  24.594  35.908  13.918
51907W        W15840  17.137  24.100   1.803
51908W        W15841  44.504   5.802  14.959
51909W        W15842  20.139  23.503   4.145
51910W        W15843  21.065  21.199   1.341
51911W        W15844  35.880  26.640  13.992
51912W        W15845   5.348  41.334   3.369
51913W        W15846  29.595  39.008  10.901
51914W        W15847  38.568  29.938  14.284
51915W        W15848  42.334  36.498  12.403
51916W        W15849  10.635  26.602  12.394
51917W        W15850  37.008  21.196   0.835
51918W        W15851  39.346  30.951   0.901
51919W        W15852  32.029   3.368   1.370
51920W        W15853   4.700   1.736   1.401
51921W        W15854  28.187  14.285  11.536
51922W        W15855   0.961  21.576  12.077
51923W        W15856  35.599  27.166  12.347
51924W        W15857  35.366  13.691  13.062
51925W        W15858   8.739  13.340  14.496
51926W        W15859  20.136  22.697  13.908
51927W        W15860   1.273  30.614   4.220
51928W        W15861  21.698  12.298   1.403
51929W        W15862  33.927  11.333   0.473
51930W        W15863  16.669  41.306   1.447
51931W        W15864   9.764  34.985   3.374
51932W        W15865  39.882  37.580  14.765
51933W        W15866   5.848  18.179  11.981
51934W        W15867  35.048   3.351   4.745
51935W        W15868  22.520  40.805  11.874
51936W        W15869  34.892  18.728   0.273
51937W        W15870   9.686  36.896   1.306
51938W        W15871   9.256  15.203  13.951
51939W        W15872  31.903  19.663  12.499
51940W        W15873   2.774  16.759  10.963
51941W        W15874  37.429   4.353  12.537
51942W        W15875  41.517  40.856  14.461
51943W        W15876  12.654  13.747   4.627
51944W        W15877  19.596  18.128  14.026
51945W        W15878  17.718  39.008  11.039
51946W        W15879  41.786  32.579  12.496
51947W        W15880   7.232  28.527   3.684
51948W        W15881  28.561  36.444  12.492
51949W        W15882  36.427  21.073   3.670
51950W        W15883  27.114  33.587   4.170
51951W        W15884  42.865  14.335   1.754
51952W        W15885   9.297   5.751   2.870
51953W        W15886   7.898   5.308   1.797
51954W        W15887   3.340  15.091  11.394
51955W        W15888   9.163  13.285  11.995
51956W        W15889   7.188  24.116   0.287
51957W        W15890  30.587  13.746   3.276
51958W        W15891   1.399  26.043   0.381
51959W        W15892  39.373  39.855  13.847
51960W        W15893   7.402   6.316  14.846
51961W        W15894  39.017  39.538  12.987
51962W        W15895  32.594  34.013  14.978
51963W        W15896  33.391  20.246   0.806
51964W        W15897  32.969  38.918  13.910
51965W        W15898  27.070  37.490   3.803
51966W        W15899  12.726  40.362   0.289
51967W        W15900  16.090  35.535   4.349
51968W        W15901  24.122  20.087   0.900
51969W        W15902  27.565   8.786   3.737
51970W        W15903  20.235  28.535   2.887
51971W        W15904  39.361  11.261  11.449
51972W        W15905  31.070  22.734   4.129
51973W        W15906  13.311  32.027  10.561
51974W        W15907  43.429  21.166  13.927
51975W        W15908  40.546  17.113   2.837
51976W        W15909  22.039  41.300  13.429
51977W        W15910  43.350  27.525  14.974
51978W        W15911  28.588  16.709  14.945
51979W        W15912  34.563  22.224  10.514
51980W        W15913  34.971   5.851   2.382
51981W        W15914  39.978  37.019   0.416
51982W        W15915  12.312  31.949   0.918
51983W        W15916  44.754   3.802   3.232
51984W        W15917  44.392   2.417  14.868
51985W        W15918  25.200  15.319   0.743
51986W        W15919  27.991  35.488   4.144
51987W        W15920  26.471   4.723   0.435
51988W        W15921  19.656   1.357  14.926
51989W        W15922  22.561  39.469   2.699
51990W        W15923  21.649   6.385  13.020
51991W        W15924  42.982  29.040  10.410
51992W        W15925  27.564  21.225  14.028
51993W        W15926  39.892   1.456  11.979
51994W        W15927  20.649  16.307  11.526
51995W        W15928   2.788  28.551   0.364
51996W        W15929  15.088  17.756  14.393
51997W        W15930   5.689   7.761  14.922
51998W        W15931  10.669  30.086  10.912
51999W        W15932  36.964  10.200  12.975
52000W        W15933  36.898  44.806   1.222
52001W        W15934  22.248  26.018   4.235
52002W        W15935   9.796   0.860   2.256
52003W        W15936  22.198  33.009   1.880
52004W        W15937  23.008   2.272  12.399
52005W        W15938  11.784  36.393  13.538
52006W        W15939  23.511  22.522  11.106
52007W        W15940  12.720  28.963  12.865
52008W        W15941  17.624   7.740   9.989
52009W        W15942   3.223   7.796  14.321
52010W        W15943   7.817  17.681   4.674
52011W        W15944  24.208   5.814   2.708
52012W        W15945  10.642  15.185   0.307
52013W        W15946  18.284  34.412   0.479
52014W        W15947  29.462  20.664  14.334
52015W        W15948  39.359  18.687   3.796
52016W        W15949  29.569   5.882   1.361
52017W        W15950  39.505  15.154   1.881
52018W        W15951  25.113  39.977   0.373
52019W        W15952  28.492  20.148   3.688
52020W        W15953  11.768  29.921   4.305
52021W        W15954  28.180  19.179   4.620
52022W        W15955  24.546  43.859   3.786
52023W        W15956  19.636  42.915  12.890
52024W        W15957   7.880  21.652  12.990
52025W        W15958  33.626  31.064  12.047
52026W        W15959  42.522  28.570   1.374
52027W        W15960   9.392  43.860   3.350
52028W        W15961  44.936   1.867  14.464
52029W        W15962  40.378  30.113   0.793
52030W        W15963  41.018  43.487   1.245
52031W        W15964  11.241  41.948   3.226
52032W        W15965  22.204  23.114   4.243
52033W        W15966  38.885   4.405   1.212
52034W        W15967  23.036  40.964  13.436
52035W        W15968  32.631  13.816   4.290
52036W        W15969   6.681  23.117   4.136
52037W        W15970  19.598   3.778   2.413
52038W        W15971  34.884  10.334  14.775
52039W        W15972  38.494  32.078  14.002
52040W        W15973  13.615   7.750   1.392
52041W        W15974  29.555   5.700   3.264
52042W        W15975  41.833  27.083  10.933
52043W        W15976  11.198  20.198  14.357
52044W        W15977  18.144   6.196   4.351
52045W        W15978  20.701  34.529  12.497
52046W        W15979   6.680   8.393  10.507
52047W        W15980  36.001   8.311   1.239
52048W        W15981   2.239  19.191   2.208
52049W        W15982  15.206   3.377  10.994
52050W        W15983  18.161  22.665  11.419
52051W        W15984   1.258  35.976   4.672
52052W        W15985  43.417   8.186   4.145
52053W        W15986   7.674  19.047   0.336
52054W        W15987  19.088  21.679  14.296
52055W        W15988  31.622  41.317  11.571
52056W        W15989   0.309  44.452   1.233
52057W        W15990   5.213  14.770   2.818
52058W        W15991  40.522  14.201  14.797
52059W        W15992  34.437  28.666  12.056
52060W        W15993  30.015  25.516  13.506
52061W        W15994  28.980   5.211   3.635
52062W        W15995  34.988  13.286   2.871
52063W        W15996  20.750   3.875   4.647
52064W        W15997  34.426  19.230  11.105
52065W        W15998  18.769  42.457  11.995
52066W        W15999   3.449  20.125  13.475
52067W        W16000   4.219  21.256  12.917
52068W        W16001  16.079  33.500   2.293
52069W        W16002  31.086   3.314  13.401
52070W        W16003   1.881  29.427   3.817
52071W        W16004  19.271  12.301   0.780
52072W        W16005  40.988  39.050  13.343
52073W        W16006  34.450  12.845  13.008
52074W        W16007   2.814  20.655   4.800
52075W        W16008   5.235   8.357  14.431
52076W        W16009  38.924  32.935   3.300
52077W        W16010  22.150  27.143   2.805
52078W        W16011   6.746  18.276   1.824
52079W        W16012  44.847  42.970   0.480
52080W        W16013  13.685  14.698   0.922
52081W        W16014  31.593  25.024  12.033
52082W        W16015   7.255   1.787  13.371
52083W        W16016  32.130  15.309   3.185
52084W        W16017  12.256  11.227  10.589
52085W        W16018  43.771  42.370   0.477
52086W        W16019   2.372   3.415  13.816
52087W        W16020  11.806  18.707   4.743
52088W        W16021  30.035   6.347   3.789
52089W        W16022  44.898  23.995   3.250
52090W        W16023  31.423   0.343  13.343
52091W        W16024   2.866  23.600  12.411
52092W        W16025  41.900  10.320   4.142
52093W        W16026   4.743  38.548  11.862
52094W        W16027  23.998   2.458  11.880
52095W        W16028  27.129  38.502  13.969
52096W        W16029   5.328  26.101   4.216
52097W        W16030  19.099  35.886   0.439
52098W        W16031  35.970  11.299  11.421
52099W        W16032   4.223  30.070  10.463
52100W        W16033  36.919  35.481  10.928
52101W        W16034  14.709  31.074  10.558
52102W        W16035  33.600  28.663   3.272
52103W        W16036   1.367  14.734   4.160
52104W        W16037  23.707   3.735  14.448
52105W        W16038  23.174   7.307  14.507
52106W        W16039   7.389  27.684   2.814
52107W        W16040  44.282  38.467   5.231
52108W        W16041   2.465   0.821   5.120
52109W        W16042  10.221  40.973   4.148
52110W        W16043  43.363  14.176   3.376
52111W        W16044  17.724  24.537   0.466
52112W        W16045  44.900  33.912   3.843
52113W        W16046  35.438  35.107  11.900
52114W        W16047  37.574  26.959  13.802
52115W        W16048  40.330   6.691   3.688
52116W        W16049   2.730  39.409   0.817
52117W        W16050  19.650  39.914  10.896
52118W        W16051  38.341  10.823  11.918
52119W        W16052  25.064  16.669   2.408
52120W        W16053  26.530  41.941   1.294
52121W        W16054  18.726   0.926  12.579
52122W        W16055  12.718  28.678  13.323
52123W        W16056  44.485  26.088  12.873
52124W        W16057  28.625  29.930  14.944
52125W        W16058   2.916   0.469  13.028
52126W        W16059  24.625  10.853  14.007
52127W        W16060  42.333  11.830   1.238
52128W        W16061   9.831   6.307  14.862
52129W        W16062  20.081  24.027   0.400
52130W        W16063  27.454  11.271   3.325
52131W        W16064  22.226   1.470  13.329
52132W        W16065   7.747   7.710   0.824
52133W        W16066  42.999  21.057  11.010
52134W        W16067  37.024  24.168   0.944
52135W        W16068  38.895   5.772   1.698
52136W        W16069  37.901  37.562  11.391
52137W        W16070  33.977  42.462  13.837
52138W        W16071  43.957  29.496  11.470
52139W        W16072  27.033  15.764   4.289
52140W        W16073   3.421  42.968   1.368
52141W        W16074   3.899   9.827   1.439
52142W        W16075  10.301   4.280  14.425
52143W        W16076   1.472  30.145  11.570
52144W        W16077  17.134  37.429  12.830
52145W        W16078  18.052   6.824  14.774
52146W        W16079  41.898  17.702  12.436
52147W        W16080  37.577   2.735  14.952
52148W        W16081  26.119  34.044   4.226
52149W        W16082  33.529  24.031   1.736
52150W        W16083  21.738   5.895  10.643
52151W        W16084  44.778  25.635   0.269
52152W        W16085  19.141   6.855  11.404
52153W        W16086  20.111   4.708  14.832
52154W        W16087   5.759  25.041  13.480
52155W        W16088  33.476  43.374  13.371
52156W        W16089  13.811  26.066   3.229
52157W        W16090  24.649   9.675   5.782
52158W        W16091  31.599   7.340   4.325
52159W        W16092  16.214  31.127   2.306
52160W        W16093  12.747  39.438  14.394
52161W        W16094   2.334  12.821   2.387
52162W        W16095  39.402  35.067   1.293
52163W        W16096  25.486  22.576   3.631
52164W        W16097  22.679  16.747   4.754
52165W        W16098  22.047  22.162   0.908
52166W        W16099  17.585  15.237   1.287
52167W        W16100   5.417  36.558  11.936
52168W        W16101   6.333  21.117   1.371
52169W        W16102  36.988  20.745  13.366
52170W        W16103  32.132  32.427   3.363
52171W        W16104  21.726  19.754   0.733
52172W        W16105  36.354  12.209  12.400
52173W        W16106  32.620  23.691   3.250
52174W        W16107  24.526  30.422   3.257
52175W        W16108   8.338  19.736   4.721
52176W        W16109  19.064   5.832  11.976
52177W        W16110  23.078  26.514   2.392
52178W        W16111  28.562   1.370   5.228
52179W        W16112  41.384  32.090  10.911
52180W        W16113  41.807   8.217  14.317
52181W        W16114   8.212  37.013   4.206
52182W        W16115  21.749  44.335  12.418
52183W        W16116  39.838   8.221   1.779
52184W        W16117   4.235  20.065  12.057
52185W        W16118  44.008  13.347   0.292
52186W        W16119  26.571   9.290  10.414
52187W        W16120  42.342  31.597   4.737
52188W        W16121  27.633  25.989  13.389
52189W        W16122  38.875  40.844   0.329
52190W        W16123  12.705  23.065  10.998
52191W        W16124  17.134  15.173   1.708
52192W        W16125   7.815  22.017   3.736
52193W        W16126  13.801  38.879  12.850
52194W        W16127  25.038   3.762   0.262
52195W        W16128  43.966  31.570   0.321
52196W        W16129  39.501  22.148  12.849
52197W        W16130  30.522  32.040  10.123
52198W        W16131  22.120   7.849  12.979
52199W        W16132   5.238   1.807   2.761
52200W        W16133  35.478  19.149   3.244
52201W        W16134  30.433  38.072  14.356
52202W        W16135  27.653  44.442   3.810
52203W        W16136  26.137  21.625   4.826
52204W        W16137  33.438  41.026   2.785
52205W        W16138  25.057   2.232   1.912
52206W        W16139  42.449   0.817  14.281
52207W        W16140  36.581  39.443  13.898
52208W        W16141   2.791  28.573  14.012
52209W        W16142  31.117  19.160  12.899
52210W        W16143   9.870   8.740  14.477
52211W        W16144  23.069   8.685  10.916
52212W        W16145  29.646  16.209  11.901
52213W        W16146  29.029   4.722  14.504
52214W        W16147   9.265  40.517   2.890
52215W        W16148  36.057  25.971   0.872
52216W        W16149  22.567  10.790  11.391
52217W        W16150  25.014  10.160   2.864
52218W        W16151  19.218  10.295  11.870
52219W        W16152   6.386  42.503   4.828
52220W        W16153  44.377  15.734  10.580
52221W        W16154  31.120  26.155   3.760
52222W        W16155  21.622  32.514  11.113
52223W        W16156   5.277  39.420   0.431
52224W        W16157  21.666  12.816  13.002
52225W        W16158   4.394  19.071  10.405
52226W        W16159  14.599   5.743  10.903
52227W        W16160  33.455  33.427   0.827
52228W        W16161  31.639  34.080  11.556
52229W        W16162  19.602  15.160  12.457
52230W        W16163  37.483  28.631  13.459
52231W        W16164  31.072  30.553  11.930
52232W        W16165  36.444   6.761  13.960
52233W        W16166  13.637  42.375  13.988
52234W        W16167  16.698  41.978  14.911
52235W        W16168  32.511  23.067  12.416
52236W        W16169  19.768   8.679   3.364
52237W        W16170   5.433  36.528  12.554
52238W        W16171  23.102  27.961   1.780
52239W        W16172  18.232  31.018   4.599
52240W        W16173  16.652  20.675   3.663
52241W        W16174  37.375  40.816   4.672
52242W        W16175  23.692  39.963  12.861
52243W        W16176  28.597  29.037   3.702
52244W        W16177  25.546  36.378   0.773
52245W        W16178   7.184   7.200   4.164
52246W        W16179   0.259  33.416  11.880
52247W        W16180  13.264  39.884   0.370
52248W        W16181  12.775  39.516   2.831
52249W        W16182  20.086  30.595   0.894
52250W        W16183  10.645  43.803   2.754
52251W        W16184  33.493  25.033  10.014
52252W        W16185   9.870  17.226  12.939
52253W        W16186  36.417   7.179   5.130
52254W        W16187  16.668  34.497   1.407
52255W        W16188  20.052  21.089   1.923
52256W        W16189   0.984   9.766  12.369
52257W        W16190  25.705  37.062  12.924
52258W        W16191  18.118  30.532   2.389
52259W        W16192  23.695   8.699   3.676
52260W        W16193  12.168  11.159  14.323
52261W        W16194   9.166   8.222   0.726
52262W        W16195  14.760  32.993  11.972
52263W        W16196   2.401   9.259  14.002
52264W        W16197   5.877  24.202  12.402
52265W        W16198  37.040  32.936  11.017
52266W        W16199  30.908  12.656  13.961
52267W        W16200  14.125  39.933  13.791
52268W        W16201  29.505  28.955  11.065
52269W        W16202  38.052  14.665   0.794
52270W        W16203   2.245   1.786  12.457
52271W        W16204  30.115  29.487   1.307
52272W        W16205  42.495   1.474  11.446
52273W        W16206  39.046   9.380  10.491
52274W        W16207  34.025  16.637  12.463
52275W        W16208   8.227  12.272  13.005
52276W        W16209  21.636   5.718  14.338
52277W        W16210  34.409   9.692  13.841
52278W        W16211  23.220  29.116   3.785
52279W        W16212   9.250   8.374  12.050
52280W        W16213  13.240   2.409  13.355
52281W        W16214   7.871  14.170  12.071
52282W        W16215  42.905   9.813   4.317
52283W        W16216  28.015   3.440   2.850
52284W        W16217  16.691  16.287  11.552
52285W        W16218  12.649  36.576   0.286
52286W        W16219  13.172  43.969  10.888
52287W        W16220  37.539  10.726  11.083
52288W        W16221  17.232  24.016   4.238
52289W        W16222  36.432  33.126   2.860
52290W        W16223  17.108  14.834  11.558
52291W        W16224  40.048   9.174  11.961
52292W        W16225  15.646   1.924  12.985
52293W        W16226   8.788  43.846  12.847
52294W        W16227   9.655  43.510   3.777
52295W        W16228  20.157  43.813   2.415
52296W        W16229  16.784  20.679  12.440
52297W        W16230   0.798  19.208  11.091
52298W        W16231   8.657  40.315  14.340
52299W        W16232  15.248  10.673   0.948
52300W        W16233  15.275  26.974   4.676
52301W        W16234  36.389  20.754  12.900
52302W        W16235   3.949   7.755  14.309
52303W        W16236  10.169  42.971  13.529
52304W        W16237  21.656  21.207  11.031
52305W        W16238  17.691  30.144   4.808
52306W        W16239  28.155  36.082  11.610
52307W        W16240  34.891  22.655   2.250
52308W        W16241  29.489  43.353   1.279
52309W        W16242   8.695  25.097   5.685
52310W        W16243  42.482  36.020  13.809
52311W        W16244  37.426   7.218  13.427
52312W        W16245   3.802  28.174  10.602
52313W        W16246   6.885  44.758   1.284
52314W        W16247   8.860  21.756   1.387
52315W        W16248  30.111  11.303  13.531
52316W        W16249  18.594   0.482   3.685
52317W        W16250  30.919  18.636   1.847
52318W        W16251  13.650  39.822  13.491
52319W        W16252   0.480  10.703   3.313
52320W        W16253  29.046  33.034  13.794
52321W        W16254  27.974  33.502   9.993
52322W        W16255  19.126  37.848  12.560
52323W        W16256  38.438   3.237  10.110
52324W        W16257  26.013  24.706  13.338
52325W        W16258  13.745   5.860   0.879
52326W        W16259  39.838  15.185   0.439
52327W        W16260  40.967  36.066   2.272
52328W        W16261   9.850  42.482  13.545
52329W        W16262  44.353   7.753  11.501
52330W        W16263  30.931   6.782   1.391
52331W        W16264   3.348  21.201  11.570
52332W        W16265  31.426  12.796  13.017
52333W        W16266  29.155   0.784  12.022
52334W        W16267  15.736  40.318   2.872
52335W        W16268  33.020   5.435  13.994
52336W        W16269  42.888  36.527  10.565
52337W        W16270   3.836  37.845   2.741
52338W        W16271  39.822  19.267  13.976
52339W        W16272   1.383   6.300  10.457
52340W        W16273  25.184  35.956   0.457
52341W        W16274  11.826  22.720   0.310
52342W        W16275   6.803  23.735  11.038
52343W        W16276  13.235   1.796  12.573
52344W        W16277  11.350  19.090   3.193
52345W        W16278  42.491  20.049  13.008
52346W        W16279  33.957   3.845   0.265
52347W        W16280  34.399  17.695   2.327
52348W        W16281  29.512  16.717   2.823
52349W        W16282  24.039   5.922   1.858
52350W        W16283   2.452   7.906  12.090
52351W        W16284   5.226  37.069   1.343
52352W        W16285  18.713   3.760  14.373
52353W        W16286  33.403  27.636   2.245
52354W        W16287  41.836   0.806  14.880
52355W        W16288  32.600  14.608  14.012
52356W        W16289   9.708   8.774   4.688
52357W        W16290   3.901   1.482  11.088
52358W        W16291  27.014  12.256   2.415
52359W        W16292  36.552   5.433  12.355
52360W        W16293  18.145  26.686   4.296
52361W        W16294  22.030  12.338  12.444
52362W        W16295  23.237  21.595   0.840
52363W        W16296   7.851  22.139  14.871
52364W        W16297  44.263  28.481   1.698
52365W        W16298  38.875  37.557  10.480
52366W        W16299  22.696  18.129   1.818
52367W        W16300  26.083   5.700  12.050
52368W        W16301  16.244  15.197   3.729
52369W        W16302  10.192  11.688   2.260
52370W        W16303  36.587  15.719  10.097
52371W        W16304  20.712   0.919   0.772
52372W        W16305   1.793  33.568   0.857
52373W        W16306  39.419  31.148   1.242
52374W        W16307  21.192  41.395  11.405
52375W        W16308   2.278  36.060  13.951
52376W        W16309  33.621  38.887   1.448
52377W        W16310   9.731   6.198  11.429
52378W        W16311  18.694  19.249  13.453
52379W        W16312   9.702  11.711  12.533
52380W        W16313  16.620  24.146   2.661
52381W        W16314  13.600  41.802   1.887
52382W        W16315  17.109  42.513   1.286
52383W        W16316  34.444  22.723  14.391
52384W        W16317  44.869  18.197   3.861
52385W        W16318  30.608  39.411  14.432
52386W        W16319  40.819  32.989  14.770
52387W        W16320  18.092  20.607   0.459
52388W        W16321  38.477   2.459   0.808
52389W        W16322  26.482  34.957   4.250
52390W        W16323  31.624  39.064   3.222
52391W        W16324   3.401  43.390  11.906
52392W        W16325  33.971  23.669   3.696
52393W        W16326  22.010  39.557   0.468
52394W        W16327  20.124  39.398   0.471
52395W        W16328  16.790  37.844   2.355
52396W        W16329  26.530  43.893  14.502
52397W        W16330  20.066   6.913  11.877
52398W        W16331  34.906  36.878   1.218
52399W        W16332  17.292   4.312   2.350
52400W        W16333  35.361   4.849   1.446
52401W        W16334  39.428  20.655   2.308
52402W        W16335   5.344  28.575  14.345
52403W        W16336  34.969   9.805  14.955
52404W        W16337   8.336  11.285   3.307
52405W        W16338  19.139  19.630  12.942
52406W        W16339  32.092  29.036  14.350
52407W        W16340  16.177  38.430  13.868
52408W        W16341  33.935  19.718  14.307
52409W        W16342  10.690   2.911   3.347
52410W        W16343  26.478  12.829   2.687
52411W        W16344  14.735   8.855   0.805
52412W        W16345  40.353   7.809   3.633
52413W        W16346  43.414  24.131   0.796
52414W        W16347  43.475  29.662   0.470
52415W        W16348  35.853  11.128  14.010
52416W        W16349  11.659  25.975  13.865
52417W        W16350  13.657  35.038   1.302
52418W        W16351  41.388   1.829   1.349
52419W        W16352  37.033  21.660  12.931
52420W        W16353  22.251   1.878   3.674
52421W        W16354  23.602   0.766  12.958
52422W        W16355  14.258  13.154   0.750
52423W        W16356   0.977  14.790  13.351
52424W        W16357  44.926   5.225  14.326
52425W        W16358  35.408  17.741   1.711
52426W        W16359  38.989   8.201  13.005
52427W        W16360   5.872  30.155  12.433
52428W        W16361  20.723  20.682  14.389
52429W        W16362  41.915  13.224   4.801
52430W        W16363  41.814  24.175  13.480
52431W        W16364  37.894  31.950  12.417
52432W        W16365  35.076  20.659  10.997
52433W        W16366  24.017  18.759  10.413
52434W        W16367  18.702  20.238  11.978
52435W        W16368  22.194  25.630   4.301
52436W        W16369  14.205  19.766   2.229
52437W        W16370   7.795  37.020  14.311
52438W        W16371  30.008  33.098   3.235
52439W        W16372  15.148   9.711  12.846
52440W        W16373  30.611   3.774  14.962
52441W        W16374  34.411  33.493  13.319
52442W        W16375  26.474  26.577   1.932
52443W        W16376  23.660  13.642   3.839
52444W        W16377   8.750   4.760  10.131
52445W        W16378  14.312  28.615  12.944
52446W        W16379  39.481  11.687   9.942
52447W        W16380  43.866  23.680   0.958
52448W        W16381  28.461  37.507   4.776
52449W        W16382   6.269   9.851   4.174
52450W        W16383  26.157  35.943   4.152
52451W        W16384  35.074  39.056   1.343
52452W        W16385   0.285   1.345  13.870
52453W        W16386  44.294  15.097   2.859
52454W        W16387  31.430  41.529   1.932
52455W        W16388  27.999   0.400   3.720
52456W        W16389  19.143  22.149  11.578
52457W        W16390  11.205   4.841   1.782
52458W        W16391  30.513   3.272   3.790
52459W        W16392  39.530  18.122  13.045
52460W        W16393  42.488  18.726   4.187
52461W        W16394  17.118   1.755  12.477
52462W        W16395  35.001  25.479   4.271
52463W        W16396  11.176   0.921   3.220
52464W        W16397  13.187  15.244   2.753
52465W        W16398  43.290   6.739   0.320
52466W        W16399  27.584  44.929   0.423
52467W        W16400   1.280  18.119  11.434
52468W        W16401  35.600   8.240   1.296
52469W        W16402  38.844  36.950  14.416
52470W        W16403  22.711  22.689  10.584
52471W        W16404  33.607  26.061   3.208
52472W        W16405  18.202  27.081   1.791
52473W        W16406  39.814  15.262   1.899
52474W        W16407  40.464   2.300   0.368
52475W        W16408  28.647  33.610  10.518
52476W        W16409  28.168  37.999  12.934
52477W        W16410  15.661  20.597  11.942
52478W        W16411   5.210  36.465   1.779
52479W        W16412  31.141   0.756   4.155
52480W        W16413   5.418  36.078  14.006
52481W        W16414  21.258  24.491   0.469
52482W        W16415  10.789  42.429  12.478
52483W        W16416   6.791  28.598   3.811
52484W        W16417  19.039   4.338  14.327
52485W        W16418  28.580  23.155   0.253
52486W        W16419  24.999  10.822  14.857
52487W        W16420   8.861  17.727   2.376
52488W        W16421  12.354  27.986   3.849
52489W        W16422  19.217  39.013   4.280
52490W        W16423   5.781  20.180  14.892
52491W        W16424  37.085  26.047  12.860
52492W        W16425  30.062  20.566  11.572
52493W        W16426  43.328  12.288  10.606
52494W        W16427  12.732  37.369   3.186
52495W        W16428   0.840  27.995   4.249
52496W        W16429  15.772  32.939   0.789
52497W        W16430  40.854  23.111  13.483
52498W        W16431  39.849  21.143   5.186
52499W        W16432  12.252  14.273   4.157
52500W        W16433   4.296  40.813   0.319
52501W        W16434   4.237  35.032   3.150
52502W        W16435  36.434  27.078   1.325
52503W        W16436  30.523  24.113   5.260
52504W        W16437  42.779   7.907   0.447
52505W        W16438  30.629  26.999  11.942
52506W        W16439  22.114  13.625   2.815
52507W        W16440   6.764  15.327   2.852
52508W        W16441  44.010  30.149  13.308
52509W        W16442  34.925  21.035  13.028
52510W        W16443   3.936  33.898   3.300
52511W        W16444  30.068  36.409   3.387
52512W        W16445  30.078  18.714   2.351
52513W        W16446  27.001  42.900   1.705
52514W        W16447  12.353   5.279  11.449
52515W        W16448  26.193  42.516  12.396
52516W        W16449  37.440  17.259   3.813
52517W        W16450  31.401  36.527  13.412
52518W        W16451  44.843  15.108  10.985
52519W        W16452  38.890   7.864  14.316
52520W        W16453  34.113  11.786   3.725
52521W        W16454  32.455  16.685  13.488
52522W        W16455  18.719  28.953   2.699
52523W        W16456  18.224  24.716  14.906
52524W        W16457   6.854  25.183  13.005
52525W        W16458  34.103  27.475   2.879
52526W        W16459   5.244  36.404   4.656
52527W        W16460  23.497  42.518   2.758
52528W        W16461  41.902  14.600  14.407
52529W        W16462  32.917  29.076   3.749
52530W        W16463  17.671  27.151   0.846
52531W        W16464   8.665  28.955  10.507
52532W        W16465  32.998  32.004   5.281
52533W        W16466  14.141  39.028  12.518
52534W        W16467  23.649  14.770   3.166
52535W        W16468  12.314  33.560   3.374
52536W        W16469   9.652  39.357  12.557
52537W        W16470  21.051  25.699  13.792
52538W        W16471   6.200   9.258  11.577
52539W        W16472  33.550  28.573   1.904
52540W        W16473  19.199  39.893  14.328
52541W        W16474  40.531  40.881  12.436
52542W        W16475   2.467   6.323  13.928
52543W        W16476  15.125  37.086  10.892
52544W        W16477  38.331   2.965   0.474
52545W        W16478  32.584  18.087   0.740
52546W        W16479  20.593  37.539   5.256
52547W        W16480  37.025  38.822   4.717
52548W        W16481  24.117  36.993  10.472
52549W        W16482  14.252  33.080  13.536
52550W        W16483   0.452  19.070   4.141
52551W        W16484  24.574  18.712   2.374
52552W        W16485  21.045  21.648   4.763
52553W        W16486  42.334   6.335  11.469
52554W        W16487  26.012  28.473   0.403
52555W        W16488   0.424  36.094   4.271
52556W        W16489   4.441  30.437   1.315
52557W        W16490  15.775   0.420  10.447
52558W        W16491  29.630  13.679  13.339
52559W        W16492   3.954   2.965   0.897
52560W        W16493  18.282  19.746  11.084
52561W        W16494  29.933  16.130  12.355
52562W        W16495   6.395  27.053   4.176
52563W        W16496   1.740   2.234   2.318
52564W        W16497   2.347  35.033   3.712
52565W        W16498   6.339   1.350   2.814
52566W        W16499  25.982   4.887   9.980
52567W        W16500  33.541  41.303   2.271
52568W        W16501  15.305  19.163  14.318
52569W        W16502  19.551  33.101   1.332
52570W        W16503  43.817  18.724  13.534
52571W        W16504  26.515  17.143  12.836
52572W        W16505  17.296  28.101   4.686
52573W        W16506  27.184  19.644   4.779
52574W        W16507  42.340  22.140   2.320
52575W        W16508  19.661  20.668  12.438
52576W        W16509  14.594  41.406   1.767
52577W        W16510  23.183  18.554  11.505
52578W        W16511  43.865  17.580  11.863
52579W        W16512  15.662  29.611   2.765
52580W        W16513  43.332  32.550   3.327
52581W        W16514  12.780  19.769  10.629
52582W        W16515   8.876  44.972  13.813
52583W        W16516  31.029  34.016   0.920
52584W        W16517   2.272  22.024  14.286
52585W        W16518  17.734  15.669  11.918
52586W        W16519  29.977  41.793  12.487
52587W        W16520  13.253  38.526  12.877
52588W        W16521  36.492   4.745   0.907
52589W        W16522   0.311  13.203   3.835
52590W        W16523   2.924  43.916   0.421
52591W        W16524  20.105  17.145   5.110
52592W        W16525  26.676   9.655  14.991
52593W        W16526  15.668  39.368  14.502
52594W        W16527  24.193  12.127  12.415
52595W        W16528  26.500  24.646   3.700
52596W        W16529  44.931  33.589  11.393
52597W        W16530  35.024  24.199  11.915
52598W        W16531  29.038  18.143   0.943
52599W        W16532   2.749  29.430   3.263
52600W        W16533   6.296  22.685  12.856
52601W        W16534  16.681   4.847   1.312
52602W        W16535  42.490   1.404  11.049
52603W        W16536  44.999  39.476  10.961
52604W        W16537  27.996  42.780  14.017
52605W        W16538  18.186  23.060  11.057
52606W        W16539   7.840  42.014   1.287
52607W        W16540  24.491   5.319   0.309
52608W        W16541  28.552  24.112   0.730
52609W        W16542  40.396  14.679  12.976
52610W        W16543  41.333  15.172   3.735
52611W        W16544   4.267  27.593   3.384
52612W        W16545  23.626  42.991  10.968
52613W        W16546   2.468  39.376   2.355
52614W        W16547  37.488  13.820   4.127
52615W        W16548   8.861  43.965  14.453
52616W        W16549  15.205   9.809  12.471
52617W        W16550  16.288  41.831  14.926
52618W        W16551  15.261   6.834   5.106
52619W        W16552  22.117  14.164  13.792
52620W        W16553  22.539   5.287  10.636
52621W        W16554   2.921   8.850  10.430
52622W        W16555  24.067  14.213  14.910
52623W        W16556  41.976   1.421   1.712
52624W        W16557  36.957  37.968  14.330
52625W        W16558  43.892  31.549   3.166
52626W        W16559   9.800   0.945  11.127
52627W        W16560  25.032   6.682   4.333
52628W        W16561  13.837  36.467  12.485
52629W        W16562   8.275   8.278   0.912
52630W        W16563  40.344   7.758  12.453
52631W        W16564   2.441  24.634   2.848
52632W        W16565  41.789   7.720   1.442
52633W        W16566  33.510  24.131   5.315
52634W        W16567  19.624  37.920   2.208
52635W        W16568  14.745  22.697  11.884
52636W        W16569  17.592  29.432  10.005
52637W        W16570  20.646  24.149  11.964
52638W        W16571   6.922  15.727   5.241
52639W        W16572  38.493   8.317   2.814
52640W        W16573  31.058  39.827  11.002
52641W        W16574   3.434  19.112   4.286
52642W        W16575  27.125  22.083  12.482
52643W        W16576  13.817  13.649   1.877
52644W        W16577  23.187  34.057  12.933
52645W        W16578   3.734  10.164  11.445
52646W        W16579  32.005  13.229  13.428
52647W        W16580  43.334  30.515   2.214
52648W        W16581  16.318  14.305   3.225
52649W        W16582   6.891  39.496  14.958
52650W        W16583  18.666  19.185   1.829
52651W        W16584   0.967  17.749  12.835
52652W        W16585  13.692   7.837  10.411
52653W        W16586  42.855  28.008   3.363
52654W        W16587  16.181  38.861  14.797
52655W        W16588  31.630   3.282   3.802
52656W        W16589  42.412  26.958   2.357
52657W        W16590  10.192  28.048   4.284
52658W        W16591  29.056  12.838   2.819
52659W        W16592   7.196  13.229   1.218
52660W        W16593   0.949   2.759   2.851
52661W        W16594  24.140  37.573   4.306
52662W        W16595  18.213  28.133   1.816
52663W        W16596   9.794  23.631   2.788
52664W        W16597  25.167  33.088  13.346
52665W        W16598   1.880  28.989  14.021
52666W        W16599   5.412  11.712   2.256
52667W        W16600   4.730   0.273   0.749
52668W        W16601  25.099  37.847  11.432
52669W        W16602   2.382  32.625   0.834
52670W        W16603  41.799   9.812   2.809
52671W        W16604  40.861  23.166  11.528
52672W        W16605  28.153   2.794   1.878
52673W        W16606  31.098   2.945   0.402
52674W        W16607   1.366   7.884   0.288
52675W        W16608  23.617  17.222  12.917
52676W        W16609  44.288   8.657   2.677
52677W        W16610  37.339   6.265  10.620
52678W        W16611   9.178  13.669   3.762
52679W        W16612  16.201  38.004  11.439
52680W        W16613  38.491  27.654  10.485
52681W        W16614   4.919   6.879   4.727
52682W        W16615  25.028  27.175   5.085
52683W        W16616  33.123   6.412   4.185
52684W        W16617  29.967  40.496  13.869
52685W        W16618   9.702  37.353   3.279
52686W        W16619  11.692  38.407  11.052
52687W        W16620  39.913  36.940  13.017
52688W        W16621  14.227  10.339  13.871
52689W        W16622  42.362   1.444   0.888
52690W        W16623   2.430   7.820   3.160
52691W        W16624  19.153  14.679   3.165
52692W        W16625   6.904  17.759   3.272
52693W        W16626   4.269  26.556   2.259
52694W        W16627   4.758  40.418   3.678
52695W        W16628  24.710  16.753  10.471
52696W        W16629  29.002  31.628  14.914
52697W        W16630  43.889  17.718  11.530
52698W        W16631  24.182  16.603  13.800
52699W        W16632  24.093  36.000  10.109
52700W        W16633  39.918  37.891  12.447
52701W        W16634   0.343  35.980   2.259
52702W        W16635   7.678  25.590   1.779
52703W        W16636  40.419   8.871  12.345
52704W        W16637  40.414   1.845   4.632
52705W        W16638  31.937  26.556  11.896
52706W        W16639  42.922  44.981  12.485
52707W        W16640  19.163   5.248  10.531
52708W        W16641  16.285  13.183   2.887
52709W        W16642  27.602  31.515   2.750
52710W        W16643   5.350  32.483  11.111
52711W        W16644  42.966   7.225   0.280
52712W        W16645  35.531  21.664  10.584
52713W        W16646  41.511  24.556  10.430
52714W        W16647   9.693  43.793  13.059
52715W        W16648   4.827  41.334   3.370
52716W        W16649   8.375  21.705  12.076
52717W        W16650  41.004   6.400   0.907
52718W        W16651  34.894  32.928  13.413
52719W        W16652   5.830  39.905  14.820
52720W        W16653  30.100  43.391  11.116
52721W        W16654  15.749  10.824   0.364
52722W        W16655   1.335  18.665  13.367
52723W        W16656   2.788  26.505  10.602
52724W        W16657   5.290  31.084   0.261
52725W        W16658  34.405   8.893   2.837
52726W        W16659  13.233  26.466   3.795
52727W        W16660  30.488  31.506  11.007
52728W        W16661  43.004  19.054  10.532
52729W        W16662  42.360  24.071  11.500
52730W        W16663  40.389   8.798  13.983
52731W        W16664  40.547   3.749  14.794
52732W        W16665  23.612  44.267  10.960
52733W        W16666  35.389  25.100  12.345
52734W        W16667   0.904   7.886  14.456
52735W        W16668   7.840   3.870   1.920
52736W        W16669  35.003  31.585  11.114
52737W        W16670   5.888   2.818  13.796
52738W        W16671  32.908  25.641   2.706
52739W        W16672  41.517  10.377  14.322
52740W        W16673  10.641  23.172   3.251
52741W        W16674   7.688   0.953   0.254
52742W        W16675  39.549  37.479  12.381
52743W        W16676   6.319  41.479  10.965
52744W        W16677  28.955  38.471   2.770
52745W        W16678  31.556  30.534  11.916
52746W        W16679  44.856  36.380   2.846
52747W        W16680   3.762  32.421   2.360
52748W        W16681   8.658  24.687  14.913
52749W        W16682  28.571  31.909   2.877
52750W        W16683  36.013  41.467  14.861
52751W        W16684   3.796  41.893  10.600
52752W        W16685  43.342   9.272   1.335
52753W        W16686   8.181  11.329  14.398
52754W        W16687  21.244  21.615  12.367
52755W        W16688   5.826   1.465  14.763
52756W        W16689  34.900  36.053   4.184
52757W        W16690   7.191  34.937  11.532
52758W        W16691  41.352   7.390   2.389
52759W        W16692  24.613   3.230  12.038
52760W        W16693  41.945   1.478   0.880
52761W        W16694   7.860  17.590  14.291
52762W        W16695   8.346  14.627   4.628
52763W        W16696  34.050  43.855   4.347
52764W        W16697  39.406  10.805  11.510
52765W        W16698  37.871   3.459   2.683
52766W        W16699  15.630  27.480  10.967
52767W        W16700  38.554  31.102  13.367
52768W        W16701   6.907  40.047  11.379
52769W        W16702   6.906  29.514   3.239
52770W        W16703  26.463   4.725   4.170
52771W        W16704  14.820  29.622  10.902
52772W        W16705  22.165   3.237  12.569
52773W        W16706  18.176  22.636  13.867
52774W        W16707  21.706   3.254  11.602
52775W        W16708  36.453  28.649   4.696
52776W        W16709   6.742   1.814  10.969
52777W        W16710   2.268  18.128  14.945
52778W        W16711  40.392   9.749  13.867
52779W        W16712  26.090  14.743  11.591
52780W        W16713  31.637  26.116  13.387
52781W        W16714  15.223  11.188  10.557
52782W        W16715  37.962  35.956   4.193
52783W        W16716  44.374   2.825  13.359
52784W        W16717  33.936  19.644  12.563
52785W        W16718  33.513  36.019  10.101
52786W        W16719  10.759  28.551  12.891
52787W        W16720  23.006  25.134  14.438
52788W        W16721  20.672   1.788   0.443
52789W        W16722   6.819   8.211  11.416
52790W        W16723  13.119  26.579  13.386
52791W        W16724  18.558  31.569  14.450
52792W        W16725  13.228  22.663  10.527
52793W        W16726  38.421  15.677  10.012
52794W        W16727  24.717   8.243  11.380
52795W        W16728  26.670  43.920  11.867
52796W        W16729  21.711  18.261  14.824
52797W        W16730  42.314   6.848  11.104
52798W        W16731  31.032  41.299   2.310
52799W        W16732   5.797  44.772   1.697
52800W        W16733  41.808   4.795   1.819
52801W        W16734  33.522   6.377   2.350
52802W        W16735  37.961  27.994   0.260
52803W        W16736  33.942  43.478  11.863
52804W        W16737  32.475  33.050   0.948
52805W        W16738  23.082   7.793  12.850
52806W        W16739  20.194  37.016   0.838
52807W        W16740   8.180  36.878  12.340
52808W        W16741  28.993  33.930   2.666
52809W        W16742  29.035  27.570   3.310
52810W        W16743   0.768   5.899   2.298
52811W        W16744  16.663  31.038   3.166
52812W        W16745  22.562   5.388   0.452
52813W        W16746  44.958  34.375   1.364
52814W        W16747  36.062  15.626   2.669
52815W        W16748  34.880  12.686  12.474
52816W        W16749  14.317  21.262   1.861
52817W        W16750  33.080  35.556   0.273
52818W        W16751  33.019  40.377   4.315
52819W        W16752  29.607  33.606  10.087
52820W        W16753  27.021  32.088  10.904
52821W        W16754  24.167  30.128   0.337
52822W        W16755  43.969  24.093  10.896
52823W        W16756  28.169  19.164   0.381
52824W        W16757  36.461  20.602  11.953
52825W        W16758  13.331  23.509   2.295
52826W        W16759  26.979  36.859   1.254
52827W        W16760  24.026  23.730   4.298
52828W        W16761  14.094   1.480   3.340
52829W        W16762  44.316  34.483   3.187
52830W        W16763   7.737  19.166   3.857
52831W        W16764  33.514  34.502   0.912
52832W        W16765  27.642  15.795  13.360
52833W        W16766  20.577   5.800  11.874
52834W        W16767  42.970  42.388   1.810
52835W        W16768   6.768  15.180   2.231
52836W        W16769   0.488  34.390   1.326
52837W        W16770  34.868  35.977   3.254
52838W        W16771  19.580  31.147  13.409
52839W        W16772  39.913   8.662   4.753
52840W        W16773  34.450   5.251   4.240
52841W        W16774  14.254  40.871  10.577
52842W        W16775  28.061  38.861   0.853
52843W        W16776   7.290  41.002  12.345
52844W        W16777  34.954   5.746  12.960
52845W        W16778  25.523  34.100  10.483
52846W        W16779   3.805  39.432   2.370
52847W        W16780  41.909  18.669  14.886
52848W        W16781  15.630   9.739  10.923
52849W        W16782  41.487  42.780   2.728
52850W        W16783   1.913  13.639   1.448
52851W        W16784   7.277  23.531  14.992
52852W        W16785   0.409  44.407  14.950
52853W        W16786  44.417  37.959   3.148
52854W        W16787  16.792  16.711   3.849
52855W        W16788   4.312  17.759  11.030
52856W        W16789  32.497  20.748  11.471
52857W        W16790  24.090   2.798   2.893
52858W        W16791  22.007   6.314  11.960
52859W        W16792  13.170   9.778  14.406
52860W        W16793  38.871  42.857   4.787
52861W        W16794  41.873  22.692   1.405
52862W        W16795  43.323  37.892   3.744
52863W        W16796  42.303  40.929  12.550
52864W        W16797  21.228  28.441   5.101
52865W        W16798  30.093   9.159  13.349
52866W        W16799  14.232  42.862  13.480
52867W        W16800  31.436  32.981  11.122
52868W        W16801   8.688  14.639  13.837
52869W        W16802  33.011  25.714  13.479
52870W        W16803  25.169  37.983  10.528
52871W        W16804  18.605  41.853   5.137
52872W        W16805  17.697  23.162   1.920
52873W        W16806  44.346  16.276  13.888
52874W        W16807   0.859  25.035   0.473
52875W        W16808  42.317  24.686   0.302
52876W        W16809  28.951  36.926   2.374
52877W        W16810  11.685  31.556  11.110
52878W        W16811  43.352   5.754   3.870
52879W        W16812   2.419  12.224   4.690
52880W        W16813  28.561  11.269   1.219
52881W        W16814   6.791  15.779  13.929
52882W        W16815  33.544   5.842   4.324
52883W        W16816  34.374  38.029  13.374
52884W        W16817  25.176   0.935  11.487
52885W        W16818  30.936  20.225  12.470
52886W        W16819  20.184  44.007   1.724
52887W        W16820  25.072  43.272   5.639
52888W        W16821  19.209  21.122  11.017
52889W        W16822  21.700  41.847  14.293
52890W        W16823   8.254  32.092  11.493
52891W        W16824  16.201  44.341  14.897
52892W        W16825  39.557   5.701  10.991
52893W        W16826  42.320  21.244  13.925
52894W        W16827  30.539  10.185  11.075
52895W        W16828  21.151  32.077  11.581
52896W        W16829  32.915  25.648  14.816
52897W        W16830  20.601  18.136   1.895
52898W        W16831  34.044   3.219   1.765
52899W        W16832  19.717  20.191   4.630
52900W        W16833   3.452  34.391   1.928
52901W        W16834  13.688  23.133   0.368
52902W        W16835   4.267  27.194   0.275
52903W        W16836   3.368  19.073   1.354
52904W        W16837  35.106   8.390   4.218
52905W        W16838  37.343  36.370  13.382
52906W        W16839  39.526  41.860   1.337
52907W        W16840   2.946  10.653   4.152
52908W        W16841   7.799  28.161  10.154
52909W        W16842   7.897  40.009   3.178
52910W        W16843  20.051  23.637  13.844
52911W        W16844  21.086  42.347   4.703
52912W        W16845  30.537  12.128  13.053
52913W        W16846  34.543  20.676  10.446
52914W        W16847  31.101  26.130  13.889
52915W        W16848   5.320  37.036  11.412
52916W        W16849   9.863  24.608   0.382
52917W        W16850  12.183   6.803  13.449
52918W        W16851  41.342  24.545   0.903
52919W        W16852   9.325   7.279  12.902
52920W        W16853   9.203   8.830  10.972
52921W        W16854  19.602  36.405  14.381
52922W        W16855  31.114  24.596  14.492
52923W        W16856   8.392   8.761  12.557
52924W        W16857  37.397  15.281   4.123
52925W        W16858  26.622  21.174   4.321
52926W        W16859  31.979  21.230   1.299
52927W        W16860  44.498  35.900   0.843
52928W        W16861   8.358  31.547   3.836
52929W        W16862  13.767  34.959   3.244
52930W        W16863  28.023  44.966  13.426
52931W        W16864  18.553   2.791  12.375
52932W        W16865  27.452  35.872   1.727
52933W        W16866   8.180  40.457  14.336
52934W        W16867  34.898   8.347  14.988
52935W        W16868  35.455  36.474  14.006
52936W        W16869  15.739   2.942   4.272
52937W        W16870  12.253  28.099   2.760
52938W        W16871  42.020  11.262   4.729
52939W        W16872  18.070  11.820  13.980
52940W        W16873  16.085  15.288  12.841
52941W        W16874   1.786  36.877   3.310
52942W        W16875  17.154  32.957   0.845
52943W        W16876   0.318   5.295  14.857
52944W        W16877  17.214  14.677  12.833
52945W        W16878  20.226  28.023   3.767
52946W        W16879  23.680  12.362  14.780
52947W        W16880  35.420  29.158   1.304
52948W        W16881  10.292  33.500  12.460
52949W        W16882  41.470  11.275   2.331
52950W        W16883  41.359  26.491   4.297
52951W        W16884  28.447  26.023  14.978
52952W        W16885  25.200  38.015   5.252
52953W        W16886   4.391  30.076  12.038
52954W        W16887  34.926  30.574  13.852
52955W        W16888  38.821   8.783   1.295
52956W        W16889  19.672  25.651   1.317
52957W        W16890   3.753  30.526   2.270
52958W        W16891  11.251  19.140  14.482
52959W        W16892  36.980  31.030   4.717
52960W        W16893  17.662  21.078   0.471
52961W        W16894  11.361   1.920  11.581
52962W        W16895  15.649  37.076  12.475
52963W        W16896  36.003  19.653   0.278
52964W        W16897  17.186  38.414   1.754
52965W        W16898  10.695   5.255  10.443
52966W        W16899  24.213   0.761  13.470
52967W        W16900  19.642   2.859   0.815
52968W        W16901  19.117  21.168   0.810
52969W        W16902  30.518  39.526   3.170
52970W        W16903  13.750  34.391   0.825
52971W        W16904  22.716   9.267   3.319
52972W        W16905  29.448  11.271   0.397
52973W        W16906  22.046  10.288   0.314
52974W        W16907   9.764  40.309  14.489
52975W        W16908  19.201  34.117  10.454
52976W        W16909   2.909   3.794  13.354
52977W        W16910  10.728  34.580   3.710
52978W        W16911  38.510  40.833   3.178
52979W        W16912   8.787  13.145   0.933
52980W        W16913  24.986  24.156   1.413
52981W        W16914  42.965  35.491  13.909
52982W        W16915  22.606  21.208   4.693
52983W        W16916  35.553   3.893  10.975
52984W        W16917  18.164  39.897  14.442
52985W        W16918  20.171  30.004   3.843
52986W        W16919  18.656  32.069  12.905
52987W        W16920  18.254  33.886   2.858
52988W        W16921   9.198  44.992   3.286
52989W        W16922  18.122  23.513   2.358
52990W        W16923  43.433  34.937   9.607
52991W        W16924  18.698  18.624   2.755
52992W        W16925  44.991  28.440  13.496
52993W        W16926  32.970  43.852   0.315
52994W        W16927  39.838  22.632   4.610
52995W        W16928   2.367  39.394   1.223
52996W        W16929  30.023  16.257  11.926
52997W        W16930  36.407  44.799   4.808
52998W        W16931  39.921  28.438   0.383
52999W        W16932  43.007  23.114   3.710
53000W        W16933   0.853  32.941   3.689
53001W        W16934  40.386  37.429  12.079
53002W        W16935  32.016  10.153  13.965
53003W        W16936  11.233   6.276   2.240
53004W        W16937  36.587  32.511   3.156
53005W        W16938  25.693  28.143  11.566
53006W        W16939   2.807   9.362  10.508
53007W        W16940   0.452  11.324   4.686
53008W        W16941  39.010  27.448  11.495
53009W        W16942  42.418  41.379  11.022
53010W        W16943   0.771  41.319  13.435
53011W        W16944   5.726  22.105   0.752
53012W        W16945  37.978  22.715  12.073
53013W        W16946   3.306  19.086  11.086
53014W        W16947  36.084  33.525  11.554
53015W        W16948  21.755  19.602   1.863
53016W        W16949   4.772  40.441  14.452
53017W        W16950  28.968  36.851   1.228
53018W        W16951  18.715  17.580   1.263
53019W        W16952   8.198  12.751  11.998
53020W        W16953  28.592  26.970   3.662
53021W        W16954  44.810   1.817   1.733
53022W        W16955  43.445  36.505   1.855
53023W        W16956   3.896  43.438   4.773
53024W        W16957  33.065  24.614   3.649
53025W        W16958  34.898   7.734   3.373
53026W        W16959  41.433  24.147   3.867
53027W        W16960  29.434   9.297  13.970
53028W        W16961  33.468  42.842  14.838
53029W        W16962  37.348  41.368   2.709
53030W        W16963  43.828   2.423  13.941
53031W        W16964  25.082  13.109   0.377
53032W        W16965  30.026  38.511   2.743
53033W        W16966  13.843  33.411  12.009
53034W        W16967  12.254  34.563  13.376
53035W        W16968   3.324  28.070  10.642
53036W        W16969  18.670  32.134  11.926
53037W        W16970   7.303   3.352  11.458
53038W        W16971   7.894  42.390  13.463
53039W        W16972  28.032   4.934   1.319
53040W        W16973   7.208   1.380   4.636
53041W        W16974  22.167  22.588   3.237
53042W        W16975  25.195  30.001   0.446
53043W        W16976  24.150  29.637   3.256
53044W        W16977  42.979  43.495  12.912
53045W        W16978  18.127  29.924  12.424
53046W        W16979  31.459   7.237  13.460
53047W        W16980  11.686   5.765   0.314
53048W        W16981  28.998  44.757   0.444
53049W        W16982  44.799   2.229  14.280
53050W        W16983   8.667  13.824  13.318
53051W        W16984  33.092  28.980  11.949
53052W        W16985   9.821  24.993  11.482
53053W        W16986  36.936  17.652   3.337
53054W        W16987  32.571  11.834  13.836
53055W        W16988  10.815  20.169  12.463
53056W        W16989  16.233  33.933  13.505
53057W        W16990  34.912  29.625   4.194
53058W        W16991  20.164  22.654   3.787
53059W        W16992  14.212  16.192   4.609
53060W        W16993  30.012  14.125   0.319
53061W        W16994  30.515  38.963  12.436
53062W        W16995  27.021  39.901  10.479
53063W        W16996  43.893  40.498   1.227
53064W        W16997  34.005  41.803  11.521
53065W        W16998   0.811  25.141   1.311
53066W        W16999  28.538  28.520  12.932
53067W        W17000  11.274  34.118  14.886
53068W        W17001  22.580  29.959   2.719
53069W        W17002  42.784  15.645  12.900
53070W        W17003  15.667   1.847   2.182
53071W        W17004  22.686  31.626  13.977
53072W        W17005   1.273  26.524   5.321
53073W        W17006  39.814   7.276   3.213
53074W        W17007  13.300   6.318   0.796
53075W        W17008  13.643  14.799  11.966
53076W        W17009   6.214   8.178  10.522
53077W        W17010  16.169  35.905   3.368
53078W        W17011  29.639  11.273   9.978
53079W        W17012   2.370  18.660   1.254
53080W        W17013  26.119  25.172  11.930
53081W        W17014  28.456   9.395   3.332
53082W        W17015   1.977   4.822  14.473
53083W        W17016  30.058  28.096  10.546
53084W        W17017  24.985   7.283   3.186
53085W        W17018  32.968   6.275   2.685
53086W        W17019  28.646  32.984   0.916
53087W        W17020   3.388  28.552  11.040
53088W        W17021   4.235  21.570  14.500
53089W        W17022   0.788  14.757   3.347
53090W        W17023  40.803  16.610   4.674
53091W        W17024  18.244  15.739   9.965
53092W        W17025   3.336  44.877   3.856
53093W        W17026   6.300  38.062  12.466
53094W        W17027  41.934   8.323   1.216
53095W        W17028   0.399  10.671  11.861
53096W        W17029  42.869  38.344   5.689
53097W        W17030  16.579   5.800  13.993
53098W        W17031  41.397  26.663  12.478
53099W        W17032  25.025  24.650   0.344
53100W        W17033  17.749  19.661  13.895
53101W        W17034  10.355  14.329  12.419
53102W        W17035  26.522  25.998   4.677
53103W        W17036   0.324  16.145  14.988
53104W        W17037   4.304  26.134  14.003
53105W        W17038  18.160  37.374  10.132
53106W        W17039   4.397   1.946  13.437
53107W        W17040   5.279  31.977   2.691
53108W        W17041   6.715  35.026   0.430
53109W        W17042  24.723   1.411   1.724
53110W        W17043  32.982  29.977   1.805
53111W        W17044  28.444  35.855  10.526
53112W        W17045  34.020  30.064   4.614
53113W        W17046   6.731  34.497   1.447
53114W        W17047  12.289   9.210  11.037
53115W        W17048  34.902  22.690  14.802
53116W        W17049  39.330   9.717  11.064
53117W        W17050  14.215  11.748  13.835
53118W        W17051   5.745  42.921  10.593
53119W        W17052  42.854  41.867   0.885
53120W        W17053  20.172  16.653   4.138
53121W        W17054  23.586  24.560  12.395
53122W        W17055  16.246  14.166   3.658
53123W        W17056   2.438  12.726   2.823
53124W        W17057  35.508  27.579  12.905
53125W        W17058   6.357   5.436  13.931
53126W        W17059  43.021   8.662   3.302
53127W        W17060  38.024  31.000   1.415
53128W        W17061  12.230  31.502   1.237
53129W        W17062  15.639   5.419   0.373
53130W        W17063  33.515  11.214   4.299
53131W        W17064  40.976   4.809   2.684
53132W        W17065  32.472  35.997   1.310
53133W        W17066  18.149  18.630   1.420
53134W        W17067  10.245   1.868   0.349
53135W        W17068   2.449   7.741   2.765
53136W        W17069  43.883  40.530  11.888
53137W        W17070  34.098  17.233   1.901
53138W        W17071  16.178  26.077   3.243
53139W        W17072  39.879  24.659   0.359
53140W        W17073   0.279  14.152   3.256
53141W        W17074  29.068  42.472  13.062
53142W        W17075  37.455  40.304  11.440
53143W        W17076  34.534  42.842   0.463
53144W        W17077  30.076   3.403   5.251
53145W        W17078  12.209  30.426   1.898
53146W        W17079  44.459   4.739   0.733
53147W        W17080  35.403  11.715  13.052
53148W        W17081  14.811  27.449  13.490
53149W        W17082  44.868  29.615   0.909
53150W        W17083  23.654  18.673  12.852
53151W        W17084  35.852  32.995   2.747
53152W        W17085  38.408  19.081   3.637
53153W        W17086  33.492   2.852  14.872
53154W        W17087   5.769  11.128  11.438
53155W        W17088   5.896  36.571   4.168
53156W        W17089  39.377  16.623  13.824
53157W        W17090  10.256  34.945   5.145
53158W        W17091   1.801  42.945  10.899
53159W        W17092  23.046  34.372   1.709
53160W        W17093  26.551  10.266   0.427
53161W        W17094   7.831  37.351  10.430
53162W        W17095  36.517  19.730   1.810
53163W        W17096  24.143  39.402  13.404
53164W        W17097  35.070  44.840  13.063
53165W        W17098  14.252  13.678  14.864
53166W        W17099  16.079  15.253  11.941
53167W        W17100   1.287   8.234   3.348
53168W        W17101  38.878  21.263   2.388
53169W        W17102  40.006  13.657   1.278
53170W        W17103  24.586   4.399  11.445
53171W        W17104  22.170  34.417   2.799
53172W        W17105   5.777  15.580   3.372
53173W        W17106  11.260  33.523   0.914
53174W        W17107  33.386  10.703   1.397
53175W        W17108  36.085  40.328   1.838
53176W        W17109  28.459  16.172  11.076
53177W        W17110  11.663  17.759   2.836
53178W        W17111   3.734  37.839   1.292
53179W        W17112  20.641   6.374   3.798
53180W        W17113  43.880  20.704   3.159
53181W        W17114  20.578  24.588   3.263
53182W        W17115   3.301   7.800  12.061
53183W        W17116   7.399  31.113   4.823
53184W        W17117   8.877  43.442  14.464
53185W        W17118  12.285  15.759   1.837
53186W        W17119   4.924  16.794   2.300
53187W        W17120  19.706  11.152   3.199
53188W        W17121  41.925  24.089  11.119
53189W        W17122  38.533   0.399  13.528
53190W        W17123  35.893  39.066   4.733
53191W        W17124   4.244  21.236   3.192
53192W        W17125   8.320  42.359   0.937
53193W        W17126  11.787   1.883  10.546
53194W        W17127   3.738  42.853   3.772
53195W        W17128  38.964   6.271   1.366
53196W        W17129   2.886  43.503  12.953
53197W        W17130  15.169  31.133   2.203
53198W        W17131   6.326  42.438  13.830
53199W        W17132  34.014  11.801   1.258
53200W        W17133   6.680   7.257   2.850
53201W        W17134  29.464  17.232  10.896
53202W        W17135  15.618  40.924  12.965
53203W        W17136  21.243  25.584  13.463
53204W        W17137  36.029   1.420   2.184
53205W        W17138  35.594   1.931  13.936
53206W        W17139  38.918   9.739   0.365
53207W        W17140  17.641  42.905  11.468
53208W        W17141  11.771   6.264  10.430
53209W        W17142  34.058   3.932   1.433
53210W        W17143   1.852  38.971  13.509
53211W        W17144  27.050  11.827   2.865
53212W        W17145  32.520  24.707   2.349
53213W        W17146  23.092   4.259   2.216
53214W        W17147  39.488  41.339  11.128
53215W        W17148  35.428  32.418   4.316
53216W        W17149  38.382   5.890  10.418
53217W        W17150  19.063  38.328  13.843
53218W        W17151  21.183  43.484   1.846
53219W        W17152  30.096   3.223  14.471
53220W        W17153  19.709  15.231  11.589
53221W        W17154  11.789  33.470   0.862
53222W        W17155  14.302  13.820   4.786
53223W        W17156  10.180  33.898  12.382
53224W        W17157  25.074  17.628  14.933
53225W        W17158  15.189  23.728  13.458
53226W        W17159  42.464   1.360   1.389
53227W        W17160  36.078  14.761  14.797
53228W        W17161  27.589  32.102  12.902
53229W        W17162  27.100  35.103  11.373
53230W        W17163  42.380  14.717   0.912
53231W        W17164  26.498  13.260   4.147
53232W        W17165   5.311  35.525  14.447
53233W        W17166  34.987   9.323  11.990
53234W        W17167   0.258  38.026   3.815
53235W        W17168  15.600  19.188   3.205
53236W        W17169  34.575  11.660   1.239
53237W        W17170  17.697  30.525  13.054
53238W        W17171  31.076  10.351  13.510
53239W        W17172  39.559  26.019   0.310
53240W        W17173  25.657  22.173   3.769
53241W        W17174  25.502  36.026  11.544
53242W        W17175  37.540  30.044   4.214
53243W        W17176  36.031   7.402   2.880
53244W        W17177  36.044  42.984  14.477
53245W        W17178  12.169  19.102   2.887
53246W        W17179  24.207  10.733  10.551
53247W        W17180  27.947  34.957  13.974
53248W        W17181  21.123  14.219   4.628
53249W        W17182  17.222  14.616  12.363
53250W        W17183  11.214   8.176   4.272
53251W        W17184   6.906  23.209  14.795
53252W        W17185  25.696   3.218  14.932
53253W        W17186  26.669   1.818  14.919
53254W        W17187  10.739  22.222   3.739
53255W        W17188  36.924  38.366  11.032
53256W        W17189  40.019  14.771   2.901
53257W        W17190  27.589  19.754   0.834
53258W        W17191   7.269  29.934  14.423
53259W        W17192  11.348  42.423   1.255
53260W        W17193  17.085  13.623  12.050
53261W        W17194   8.232   7.396   1.388
53262W        W17195  37.578  34.084   2.865
53263W        W17196   9.344  38.423  14.321
53264W        W17197  10.838  38.035   2.374
53265W        W17198  36.387  21.061   1.235
53266W        W17199  14.293  22.651  10.545
53267W        W17200  44.433  39.895  13.916
53268W        W17201  21.655  34.563   1.445
53269W        W17202  17.102   8.334   4.127
53270W        W17203  28.065   5.888   4.682
53271W        W17204  28.069  32.594   3.708
53272W        W17205   5.405  34.105  12.077
53273W        W17206  26.170   0.383   3.779
53274W        W17207  15.106  12.705   4.183
53275W        W17208  22.234  44.937  12.395
53276W        W17209  27.505  43.456   0.824
53277W        W17210  36.969  12.763   4.273
53278W        W17211  15.695  36.853   1.837
53279W        W17212  37.452   1.251   0.760
53280W        W17213  22.204   4.420   0.845
53281W        W17214  19.176  40.893   3.212
53282W        W17215  25.087  20.723   0.365
53283W        W17216  19.698  43.021   5.182
53284W        W17217  42.282  28.982  10.539
53285W        W17218  15.106   9.369   0.270
53286W        W17219   2.462  38.847   0.963
53287W        W17220  37.950  17.633  14.281
53288W        W17221  17.270   4.205  14.311
53289W        W17222  16.595  20.660  11.915
53290W        W17223  29.528  29.052  10.435
53291W        W17224   1.906   1.931   3.815
53292W        W17225  17.231   5.752   4.174
53293W        W17226  42.899  30.925   0.437
53294W        W17227  15.752   1.415  12.366
53295W        W17228  24.541  20.068  14.406
53296W        W17229  16.775   7.279   1.313
53297W        W17230  33.874  15.809   2.752
53298W        W17231   0.772  13.657  13.806
53299W        W17232   8.399  31.638   0.957
53300W        W17233   0.330  37.916  10.490
53301W        W17234  13.284  36.512   0.961
53302W        W17235  11.265  29.028   1.390
53303W        W17236  34.421  33.542   0.269
53304W        W17237  10.676   1.749  12.557
53305W        W17238  40.411  31.960  10.974
53306W        W17239  19.597  44.331   3.730
53307W        W17240  33.003  36.998   4.291
53308W        W17241  27.005  13.133  10.539
53309W        W17242  29.049  23.166   0.387
53310W        W17243  23.110   8.821   4.288
53311W        W17244  35.576   3.226   0.354
53312W        W17245  34.608  40.812   4.284
53313W        W17246   3.425   0.909  10.936
53314W        W17247   3.455   2.353   1.424
53315W        W17248  42.823  22.502   2.682
53316W        W17249  44.456  15.693  13.980
53317W        W17250   9.697  33.524  11.971
53318W        W17251  32.060  32.906  13.855
53319W        W17252  20.617  39.527  14.880
53320W        W17253   3.277  35.108  13.439
53321W        W17254  29.586  24.701  14.911
53322W        W17255  10.718  44.882   1.699
53323W        W17256   2.243  30.121   0.944
53324W        W17257  24.132  13.748   0.279
53325W        W17258  21.733  16.308   1.700
53326W        W17259   7.817  25.182  10.909
53327W        W17260  25.560  24.186   5.126
53328W        W17261  31.607   7.382   1.780
53329W        W17262  23.203   5.254   1.433
53330W        W17263  18.613  14.154  14.329
53331W        W17264  33.393   2.462   3.812
53332W        W17265  34.547  13.119  13.864
53333W        W17266  33.086   9.173  14.280
53334W        W17267  37.557  37.404  13.907
53335W        W17268  43.480   3.377   1.419
53336W        W17269   9.688  13.800   0.482
53337W        W17270   1.921  38.543  10.478
53338W        W17271  38.543  28.165  12.095
53339W        W17272  39.956  31.121  10.951
53340W        W17273  18.124   6.726  13.990
53341W        W17274  25.499  22.144  13.352
53342W        W17275  36.000  24.205   0.371
53343W        W17276  24.538  21.249  14.404
53344W        W17277  32.569  11.128   4.670
53345W        W17278  44.010   6.397  13.348
53346W        W17279  39.883  22.581   0.916
53347W        W17280  10.695  33.498   0.251
53348W        W17281   8.256  37.084   0.353
53349W        W17282  10.181  43.852  14.769
53350W        W17283  15.273  13.713   2.887
53351W        W17284   8.663  38.539   2.367
53352W        W17285   8.687  31.464  14.433
53353W        W17286  19.156  41.042   4.255
53354W        W17287  19.599  42.013  12.966
53355W        W17288  29.097  16.616   0.748
53356W        W17289  35.944  21.526   4.798
53357W        W17290  29.086   9.771   2.786
53358W        W17291  40.486  27.159   0.879
53359W        W17292  28.008  33.539   3.694
53360W        W17293  13.701  34.467  12.061
53361W        W17294  26.490   8.759   4.144
53362W        W17295  40.851  21.099  14.431
53363W        W17296   1.317  17.696  12.536
53364W        W17297   3.400  12.676   4.615
53365W        W17298  11.782  15.619   4.312
53366W        W17299  43.401  29.508   1.222
53367W        W17300  20.114  33.999  10.955
53368W        W17301  17.636  41.790   2.772
53369W        W17302  27.606   4.931   4.236
53370W        W17303  41.841  36.864   4.195
53371W        W17304   7.788  19.174   4.686
53372W        W17305  42.908  23.231  11.596
53373W        W17306  36.913  15.256   2.761
53374W        W17307  24.125   2.297  13.467
53375W        W17308  22.605  44.500   3.150
53376W        W17309  15.250   5.439  12.876
53377W        W17310  18.093  36.572  13.917
53378W        W17311  43.831  25.134   2.395
53379W        W17312  28.530   1.364   0.950
53380W        W17313  43.346  41.502  10.157
53381W        W17314  23.094   4.408  10.547
53382W        W17315  19.599  38.843   0.251
53383W        W17316  11.642   6.202  12.957
53384W        W17317   9.826   3.798   3.225
53385W        W17318   5.414   4.244  12.565
53386W        W17319  40.405  25.198   4.674
53387W        W17320   1.410  24.527   2.728
53388W        W17321  18.660  22.179   3.153
53389W        W17322  37.003  28.020   4.608
53390W        W17323  18.246  28.522  12.858
53391W        W17324  38.879  37.872   4.208
53392W        W17325  25.121  36.569  11.050
53393W        W17326  32.023  23.498   3.298
53394W        W17327   0.268   3.895  13.044
53395W        W17328   7.350  25.143  11.422
53396W        W17329  34.116  31.617  12.070
53397W        W17330  19.552  29.100  12.456
53398W        W17331  22.095  12.195  10.991
53399W        W17332   7.897   0.295   1.825
53400W        W17333   8.869  26.590  12.410
53401W        W17334  40.441   3.846  12.882
53402W        W17335  24.116  21.046   4.704
53403W        W17336  29.470   9.650   3.268
53404W        W17337  27.122   3.260  14.027
53405W        W17338   4.388  44.820   0.403
53406W        W17339  16.215  12.730   3.355
53407W        W17340  40.369  13.679   2.351
53408W        W17341  20.187  20.073   5.199
53409W        W17342   2.272  29.061   2.881
53410W        W17343  18.787  40.379   4.797
53411W        W17344  29.037  11.634  13.892
53412W        W17345  22.232  12.300  12.980
53413W        W17346  32.077   7.677   2.388
53414W        W17347  24.643  27.161  10.510
53415W        W17348   0.444  37.939  14.365
53416W        W17349  41.854  26.548   2.370
53417W        W17350  44.431  40.336  12.543
53418W        W17351  34.519  21.521  12.029
53419W        W17352  23.728  44.946  10.962
53420W        W17353  14.678  44.457  14.988
53421W        W17354  43.378  33.393   2.181
53422W        W17355  23.559  43.006   2.745
53423W        W17356  33.935  34.016   2.761
53424W        W17357  39.841  44.337  10.597
53425W        W17358  35.418  39.476   0.327
53426W        W17359   0.298  16.134  11.908
53427W        W17360  31.007   5.368  14.963
53428W        W17361  16.592  42.308  10.501
53429W        W17362  19.751  38.033   1.267
53430W        W17363  28.977  15.618  12.828
53431W        W17364   3.353  30.910  14.777
53432W        W17365   5.818  15.188  14.867
53433W        W17366  33.036  17.089   3.153
53434W        W17367  21.602  21.648  10.995
53435W        W17368  18.248  29.101  10.960
53436W        W17369   6.364  27.017   9.481
53437W        W17370  10.183  31.532   3.773
53438W        W17371  31.082  34.453   4.621
53439W        W17372   2.781  13.657  11.012
53440W        W17373  40.414  15.265   3.165
53441W        W17374   3.948   9.193  14.013
53442W        W17375   9.206  34.563  12.997
53443W        W17376  39.367  14.664  11.496
53444W        W17377  30.140  29.585   3.185
53445W        W17378  27.942   4.698  13.011
53446W        W17379  22.096  13.794   1.713
53447W        W17380  32.927   5.243   3.644
53448W        W17381  21.594   7.768   4.300
53449W        W17382  24.554  39.475   0.369
53450W        W17383   2.848  15.130   1.699
53451W        W17384  30.421   8.737  12.387
53452W        W17385  26.483  20.245   4.828
53453W        W17386   4.719  18.111   2.895
53454W        W17387   5.921  43.975  14.958
53455W        W17388  10.275   7.326   1.252
53456W        W17389  35.939  42.527  14.374
53457W        W17390  10.681   6.821   1.904
53458W        W17391  27.024  30.144  13.928
53459W        W17392  43.805  27.599  11.859
53460W        W17393  22.670  43.407  11.488
53461W        W17394  20.034  25.166  14.419
53462W        W17395  26.485  28.602   2.784
53463W        W17396  11.811  28.592   1.861
53464W        W17397   6.686  20.178  12.360
53465W        W17398  38.333  10.670   2.289
53466W        W17399   4.219  26.068  11.514
53467W        W17400  33.892  35.598   4.660
53468W        W17401  39.827  32.494  11.496
53469W        W17402   4.872   6.408   0.320
53470W        W17403  21.229  33.597   5.142
53471W        W17404  24.536  44.843  14.278
53472W        W17405  28.992  11.354  11.013
53473W        W17406  34.068  11.264  11.997
53474W        W17407  39.931  34.425  14.866
53475W        W17408  10.780  31.088   3.870
53476W        W17409  23.024  10.703   2.790
53477W        W17410   2.424  16.211   0.442
53478W        W17411   5.307  11.179  12.536
53479W        W17412   6.748   2.835   4.286
53480W        W17413  36.479  28.181   1.245
53481W        W17414  23.725   7.347  12.533
53482W        W17415   2.839  43.792   4.223
53483W        W17416  17.763  18.618   4.228
53484W        W17417  36.094  13.834   0.783
53485W        W17418  24.015  15.302   3.155
53486W        W17419  21.681  24.992   0.341
53487W        W17420  23.521  32.448  12.893
53488W        W17421  28.488  30.586  14.956
53489W        W17422  14.182  11.810   5.145
53490W        W17423  13.267  30.571  12.484
53491W        W17424  40.990  12.796  11.939
53492W        W17425   7.247   8.350   4.678
53493W        W17426  43.515   8.260  13.462
53494W        W17427  36.370  26.526   5.099
53495W        W17428  43.985  38.848   0.796
53496W        W17429  27.692  11.766   3.840
53497W        W17430  14.310  27.099  13.983
53498W        W17431  24.137  41.393   9.921
53499W        W17432  19.055  43.952  11.003
53500W        W17433  17.154  25.077   5.217
53501W        W17434  22.036  43.421  14.329
53502W        W17435  23.013  38.335  11.449
53503W        W17436  43.774  16.277   0.757
53504W        W17437  12.736   0.988  11.580
53505W        W17438  32.000  23.110   2.368
53506W        W17439  13.716  27.041  13.436
53507W        W17440  20.035  33.112   0.909
53508W        W17441  29.559  31.621   4.687
53509W        W17442   2.317  28.008   4.648
53510W        W17443  44.376  21.091   3.163
53511W        W17444  10.693  34.397   2.801
53512W        W17445  23.625  22.745  10.572
53513W        W17446  14.258  22.509   0.347
53514W        W17447   4.722  13.667   0.277
53515W        W17448   6.756  37.551  10.434
53516W        W17449  35.462  42.820  14.299
53517W        W17450  11.752  13.723   4.299
53518W        W17451  27.557  41.821   2.409
53519W        W17452   2.833   0.857  12.045
53520W        W17453   2.922  26.076  12.371
53521W        W17454  35.104  39.375  11.969
53522W        W17455  19.276  20.089   1.798
53523W        W17456  11.735  24.709  12.386
53524W        W17457  41.032   2.240  10.915
53525W        W17458  12.703  26.646   2.798
53526W        W17459  24.492  14.722   2.698
53527W        W17460  11.245  37.369   0.243
53528W        W17461  41.811  14.212  12.877
53529W        W17462  33.599  30.028   0.740
53530W        W17463  12.771   2.238  12.897
53531W        W17464  24.007  28.656   0.360
53532W        W17465  18.700  25.622   4.181
53533W        W17466   1.462   5.207  11.392
53534W        W17467  43.869  43.907  13.381
53535W        W17468  37.983  27.458  13.043
53536W        W17469  39.812  12.783   0.856
53537W        W17470  22.527  38.451  11.384
53538W        W17471   5.347  23.584  10.636
53539W        W17472   2.786  29.492  14.410
53540W        W17473   9.203   4.870  13.523
53541W        W17474  11.298  11.863   4.675
53542W        W17475   3.281  23.152  10.973
53543W        W17476  39.956   8.303   0.360
53544W        W17477  11.257  13.218   4.705
53545W        W17478  44.842  43.406   0.888
53546W        W17479  26.636   0.963  10.918
53547W        W17480   4.789  41.495  11.021
53548W        W17481  44.914  43.822  11.858
53549W        W17482  14.809  21.051  11.963
53550W        W17483  11.834   9.233  14.361
53551W        W17484  24.054  30.007   0.966
53552W        W17485  19.280  43.883  13.496
53553W        W17486  40.460  30.013   1.376
53554W        W17487   8.836  15.088  14.886
53555W        W17488  20.694  15.747  13.313
53556W        W17489  26.139  30.153   0.899
53557W        W17490  41.529   0.251   3.633
53558W        W17491  30.521   2.760   2.367
53559W        W17492  32.991  21.071   1.925
53560W        W17493  13.721  27.604   1.866
53561W        W17494  12.133   9.771  13.332
53562W        W17495  18.558  21.079   0.811
53563W        W17496   9.844  26.650  12.351
53564W        W17497   9.889  18.140   1.815
53565W        W17498   7.717  21.596  11.049
53566W        W17499  44.768  20.683   4.337
53567W        W17500  20.677   0.857   2.182
53568W        W17501  16.602  31.083   1.247
53569W        W17502  28.133  39.053  13.800
53570W        W17503  27.524   8.198  14.937
53571W        W17504   5.759   5.793  10.909
53572W        W17505   9.804  25.996  13.472
53573W        W17506  43.481  35.563   1.353
53574W        W17507  39.034  15.645   0.334
53575W        W17508  39.900  16.778  12.888
53576W        W17509  43.773   8.289   0.436
53577W        W17510  23.018  20.114   0.263
53578W        W17511  22.123  30.060   2.734
53579W        W17512  25.156  11.197   0.783
53580W        W17513  26.137  20.257  14.491
53581W        W17514  18.101  11.808   3.235
53582W        W17515   8.315  28.013  12.400
53583W        W17516  16.264  37.436  14.011
53584W        W17517  35.543  18.787  14.010
53585W        W17518   7.223  31.018   1.826
53586W        W17519  10.820  21.091   5.319
53587W        W17520   4.448  21.644  11.375
53588W        W17521  41.986  36.034   4.676
53589W        W17522   0.871   6.921   1.815
53590W        W17523  13.603  36.432  14.783
53591W        W17524  10.635  42.022   0.298
53592W        W17525  39.895  35.901  12.066
53593W        W17526  24.052  34.419  14.968
53594W        W17527   4.731  30.569   0.745
53595W        W17528   7.228  37.833  11.121
53596W        W17529   2.342  26.142  10.560
53597W        W17530   6.896  19.181  11.035
53598W        W17531  15.092  39.511  12.078
53599W        W17532  16.693  11.806  14.779
53600W        W17533  42.289  36.358   1.863
53601W        W17534  13.240   4.758  14.386
53602W        W17535   5.853  26.986   2.259
53603W        W17536   8.775  16.237  10.959
53604W        W17537  44.485  24.066   3.238
53605W        W17538  28.626   8.302  11.871
53606W        W17539  17.705  33.588   1.902
53607W        W17540  31.906  15.118  13.888
53608W        W17541   8.340  19.630   4.239
53609W        W17542  39.018   0.398   0.429
53610W        W17543  36.436  18.770  12.396
53611W        W17544  15.640   8.243   2.310
53612W        W17545  12.218  23.640  10.924
53613W        W17546   4.886  20.247   1.806
53614W        W17547  10.225  19.209  12.041
53615W        W17548  21.036  39.383  13.978
53616W        W17549  14.326  21.077   0.805
53617W        W17550  40.494  29.976   4.644
53618W        W17551  43.468   7.317   2.357
53619W        W17552  22.166  20.252  14.446
53620W        W17553   7.877  42.837   2.185
53621W        W17554   9.851  17.589  12.417
53622W        W17555  40.984   1.918   3.736
53623W        W17556  32.995   7.387   2.713
53624W        W17557  35.588  35.428  11.533
53625W        W17558   7.785  40.494  10.632
53626W        W17559  24.559  43.875   2.257
53627W        W17560  18.180  29.549  14.278
53628W        W17561  24.099  16.305  10.588
53629W        W17562  40.004  40.866  13.049
53630W        W17563  26.032   4.435   4.277
53631W        W17564  34.992  33.117  11.081
53632W        W17565  11.864  25.581  11.464
53633W        W17566  44.948  23.637   3.747
53634W        W17567  37.012  14.186  12.567
53635W        W17568  44.760  21.512   4.622
53636W        W17569  12.674  27.106   2.344
53637W        W17570  39.453  18.560  14.901
53638W        W17571   1.807   2.264  14.513
53639W        W17572  40.043  35.572  11.505
53640W        W17573  21.705  15.683   4.634
53641W        W17574  15.297  11.280  12.408
53642W        W17575  15.144  29.088  13.532
53643W        W17576  37.400  20.645  10.954
53644W        W17577   7.393  43.486   0.421
53645W        W17578   5.885  28.037   4.670
53646W        W17579  44.492  39.506   1.752
53647W        W17580  13.106  17.243   2.257
53648W        W17581  20.560  44.765  14.003
53649W        W17582  28.183  42.282  14.798
53650W        W17583   7.904   0.483  11.464
53651W        W17584  26.108  39.916   0.277
53652W        W17585  16.159   9.821  10.539
53653W        W17586  24.015  26.573  13.471
53654W        W17587   4.218   3.845   1.300
53655W        W17588  13.681  36.019   1.858
53656W        W17589  41.409  25.073   4.681
53657W        W17590  21.580  44.331   3.852
53658W        W17591   2.792  38.856   3.308
53659W        W17592  19.233  37.016   4.638
53660W        W17593  23.184  24.621   4.224
53661W        W17594  13.600  43.411  13.367
53662W        W17595   0.851  10.757   3.819
53663W        W17596  27.077  15.630  14.423
53664W        W17597  44.804  23.583  13.538
53665W        W17598  16.694  27.954  12.826
53666W        W17599   5.271  38.875  14.958
53667W        W17600   8.852   4.745  13.903
53668W        W17601   8.234  20.705   0.861
53669W        W17602  18.729  12.233  10.543
53670W        W17603  35.037   8.342  10.437
53671W        W17604   4.870  40.042  13.356
53672W        W17605  39.828  34.565  13.503
53673W        W17606  20.157  12.697   1.915
53674W        W17607  34.563   4.388  12.843
53675W        W17608  13.274   6.709   0.260
53676W        W17609   8.832  35.889  11.387
53677W        W17610  23.678  35.496   4.139
53678W        W17611  29.460   7.766   2.392
53679W        W17612  12.335   7.358  12.435
53680W        W17613  13.173  35.585   2.800
53681W        W17614  11.781   9.851   2.677
53682W        W17615  37.899  12.758   1.316
53683W        W17616  18.101   6.859   0.354
53684W        W17617  44.762   0.355   0.427
53685W        W17618  15.198  11.284   2.257
53686W        W17619  32.963  19.708  14.495
53687W        W17620  11.320   5.248   4.132
53688W        W17621  23.538  38.995   4.269
53689W        W17622  27.172   3.218  13.350
53690W        W17623  23.210  15.660  12.890
53691W        W17624  34.876  14.178  10.510
53692W        W17625  43.778  43.278   2.248
53693W        W17626  19.267  10.146  13.421
53694W        W17627  24.557  32.420  10.610
53695W        W17628  30.421  10.685   1.321
53696W        W17629  26.064  27.043   0.757
53697W        W17630  21.618   6.318  11.055
53698W        W17631  25.594  34.118   3.370
53699W        W17632  13.787  29.602   2.707
53700W        W17633   5.306  35.911  11.512
53701W        W17634  24.642   0.362   0.473
53702W        W17635  21.687  28.663   3.773
53703W        W17636   3.267  19.779  12.049
53704W        W17637  13.695  28.932  12.391
53705W        W17638   1.466   7.297  12.422
53706W        W17639  12.282  41.451   3.301
53707W        W17640  18.230  19.261   4.632
53708W        W17641  34.510  23.492  12.913
53709W        W17642  40.415  26.954  14.781
53710W        W17643  29.988  41.813   0.788
53711W        W17644  24.484  15.266   0.363
53712W        W17645  41.513  23.180   1.816
53713W        W17646   1.388  20.636   3.786
53714W        W17647   8.173  35.972  10.515
53715W        W17648  33.874  33.946   1.848
53716W        W17649  11.754   4.935  13.880
53717W        W17650  20.271  10.358  11.387
53718W        W17651  33.616   6.826   2.881
53719W        W17652  36.458  14.771  14.883
53720W        W17653  16.216  27.990   2.320
53721W        W17654  37.977  44.350  14.429
53722W        W17655  42.788  22.672  13.954
53723W        W17656  26.055   8.814  11.887
53724W        W17657   7.743  27.492  13.326
53725W        W17658  12.254  36.422   2.274
53726W        W17659  36.567  30.981  11.493
53727W        W17660  31.618  21.535   1.799
53728W        W17661  15.792  41.009  10.442
53729W        W17662  13.180  20.618   3.354
53730W        W17663  13.228   9.358  13.421
53731W        W17664  16.213   4.438  13.537
53732W        W17665  17.634  37.847   2.805
53733W        W17666   7.188  43.897   3.160
53734W        W17667  32.495  10.796  13.396
53735W        W17668  33.585   3.267   1.252
53736W        W17669  41.814   9.806   4.775
53737W        W17670  23.662   5.381  12.869
53738W        W17671   5.369   1.317   3.360
53739W        W17672  19.202  14.592  12.953
53740W        W17673  34.602   9.887  13.043
53741W        W17674  15.787  40.357  13.357
53742W        W17675   9.708  35.449   3.708
53743W        W17676  33.408  31.560  14.420
53744W        W17677  24.975   6.918   2.208
53745W        W17678  10.193  18.228  10.927
53746W        W17679  11.259   3.318   3.778
53747W        W17680  33.068  27.597   3.191
53748W        W17681   5.342  29.089   2.729
53749W        W17682  28.011  37.527   4.693
53750W        W17683  34.974  38.965   2.350
53751W        W17684  25.149   7.707   1.794
53752W        W17685  26.603  44.355  13.981
53753W        W17686  28.480  11.703  11.925
53754W        W17687   1.320   9.296  14.786
53755W        W17688  42.484  44.969  10.560
53756W        W17689  14.629  44.316  10.534
53757W        W17690  14.160  14.594  12.000
53758W        W17691  20.274  33.595  10.632
53759W        W17692   0.881  43.869  12.032
53760W        W17693  23.201  26.206  12.554
53761W        W17694  16.640  40.887   1.755
53762W        W17695   1.452   7.796   3.649
53763W        W17696  37.084  34.887   3.666
53764W        W17697  37.580   5.421  12.841
53765W        W17698   0.760  32.006  10.606
53766W        W17699  38.890  33.550   0.297
53767W        W17700  30.959  40.851  14.919
53768W        W17701   9.312   6.743  13.993
53769W        W17702  26.020  44.321  12.547
53770W        W17703   6.678  28.650   1.396
53771W        W17704  36.963   6.306   2.835
53772W        W17705   9.210  32.067  11.886
53773W        W17706  29.958  27.559   4.251
53774W        W17707  26.156  30.524  10.427
53775W        W17708  39.908  23.618   0.742
53776W        W17709   0.408  44.968   3.330
53777W        W17710   6.285   1.476  13.011
53778W        W17711  11.373  15.146  11.479
53779W        W17712  30.520  33.448   0.772
53780W        W17713  44.842  20.717  11.439
53781W        W17714   1.894   0.903  13.035
53782W        W17715  16.181  30.547  14.761
53783W        W17716  28.512  19.238   1.730
53784W        W17717  13.794  21.097  14.334
53785W        W17718  40.843  15.759   4.797
53786W        W17719   6.799  25.564   0.371
53787W        W17720  27.977  33.928   0.356
53788W        W17721  23.095  13.297  14.917
53789W        W17722  23.106  44.781  13.002
53790W        W17723  26.577   6.254   1.450
53791W        W17724   2.331  25.987   2.399
53792W        W17725  17.693   9.310  12.525
53793W        W17726  27.086   2.838  11.412
53794W        W17727   7.900  22.730   3.840
53795W        W17728  29.525  38.410  12.896
53796W        W17729  23.556  27.175  13.470
53797W        W17730  34.037  42.864   4.333
53798W        W17731   3.362  26.985   3.700
53799W        W17732  30.617  17.690  12.505
53800W        W17733   9.357   6.315  10.511
53801W        W17734  36.592  12.758   3.200
53802W        W17735  29.969  24.099  13.812
53803W        W17736  37.493  41.933  14.902
53804W        W17737  36.084  39.916  11.553
53805W        W17738  40.533  41.358   1.226
53806W        W17739  35.103   0.825  10.579
53807W        W17740  21.163  25.543  11.115
53808W        W17741  42.321   8.664  11.025
53809W        W17742  38.527  15.303   0.247
53810W        W17743  23.492  11.208   0.439
53811W        W17744  15.692  10.646  10.940
53812W        W17745  42.835  35.409   2.237
53813W        W17746  13.780  25.037  10.610
53814W        W17747  32.529  36.932  13.792
53815W        W17748  19.214  32.073   4.173
53816W        W17749  42.928  35.505   3.152
53817W        W17750   5.249  16.638  11.109
53818W        W17751  20.038   8.397   0.425
53819W        W17752  30.625  10.632  14.973
53820W        W17753  43.510  15.779  12.979
53821W        W17754  15.121   5.380   9.611
53822W        W17755  14.216  26.692  11.894
53823W        W17756   5.429  43.407   2.380
53824W        W17757  32.477  19.537  12.478
53825W        W17758  12.729  38.395   3.737
53826W        W17759  43.001   5.396   2.676
53827W        W17760  44.445   9.179  14.430
53828W        W17761  31.972   6.336   1.298
53829W        W17762  24.120   4.770  11.541
53830W        W17763  22.704  15.792  12.377
53831W        W17764  34.533   8.684  12.964
53832W        W17765   7.888  20.739   1.356
53833W        W17766   2.259  38.063  11.403
53834W        W17767  14.157  37.344  13.434
53835W        W17768   8.200  41.459  10.988
53836W        W17769  32.400  23.632  14.812
53837W        W17770  40.001   3.265   1.306
53838W        W17771  15.774  30.921  13.311
53839W        W17772  19.698   8.354  10.525
53840W        W17773  31.450  27.469  12.472
53841W        W17774  21.609  12.836  14.415
53842W        W17775  20.094   9.820   1.701
53843W        W17776   4.341  20.179   2.323
53844W        W17777  14.220  11.727  10.525
53845W        W17778  20.733  44.330  11.865
53846W        W17779  13.327  19.183  13.806
53847W        W17780  28.608  32.053  11.554
53848W        W17781  18.216  16.304  10.621
53849W        W17782   8.232  11.708   0.923
53850W        W17783  14.183  24.094  12.013
53851W        W17784   6.359  38.534   3.297
53852W        W17785  10.188  42.417  13.327
53853W        W17786  12.789  10.837   4.696
53854W        W17787  23.182  38.360  10.444
53855W        W17788  29.545  44.995   0.898
53856W        W17789  32.907  38.414  11.874
53857W        W17790  12.822  42.309   0.482
53858W        W17791  25.517  42.882  14.889
53859W        W17792  12.233  16.566  13.819
53860W        W17793  15.225  43.956  11.897
53861W        W17794  28.072  38.922   3.842
53862W        W17795   6.336  30.093  10.435
53863W        W17796  13.131   6.780  10.968
53864W        W17797  14.156  22.150  12.508
53865W        W17798  29.543  19.248  12.492
53866W        W17799  39.415   0.489  14.289
53867W        W17800  21.531  23.658   3.278
53868W        W17801   0.383  16.743  12.410
53869W        W17802  13.611  26.659   2.770
53870W        W17803  23.992  10.795   5.164
53871W        W17804   1.247   1.368  13.943
53872W        W17805   1.851  23.080   4.805
53873W        W17806  28.550  32.400   3.269
53874W        W17807   6.739  22.071   1.441
53875W        W17808   5.690   5.889  12.044
53876W        W17809  32.054  11.200  14.514
53877W        W17810  31.466  29.457   3.679
53878W        W17811  24.051   0.406   2.377
53879W        W17812  20.589  29.009  10.455
53880W        W17813  22.200   3.800  12.879
53881W        W17814  27.173  28.669   2.861
53882W        W17815   2.960   1.871   3.162
53883W        W17816   5.861  12.294   0.403
53884W        W17817  32.634   1.942   1.248
53885W        W17818  39.982  44.787   3.173
53886W        W17819  16.156  13.164   0.260
53887W        W17820  30.067  17.249   3.238
53888W        W17821  36.447  31.628  13.452
53889W        W17822  13.636  23.618   1.738
53890W        W17823   7.396  20.618  12.451
53891W        W17824   7.683  11.213  14.001
53892W        W17825  32.594  41.831   1.245
53893W        W17826  32.103   6.866  14.508
53894W        W17827  31.529   1.241  12.555
53895W        W17828  12.646   5.434   9.971
53896W        W17829  20.640  33.100   0.368
53897W        W17830  31.136  29.608  12.976
53898W        W17831   9.692  12.220   4.143
53899W        W17832  38.874  37.502   0.942
53900W        W17833   6.769   6.247   1.776
53901W        W17834  43.365   7.839   2.883
53902W        W17835   6.806  40.862   2.743
53903W        W17836  22.552  42.794  13.326
53904W        W17837  25.964   9.272  10.892
53905W        W17838  42.938  32.133  14.845
53906W        W17839  11.728  23.617   3.737
53907W        W17840   5.271   0.989   2.330
53908W        W17841  36.407  42.776   2.814
53909W        W17842  18.264  22.522   2.226
53910W        W17843  41.380  41.999   2.233
53911W        W17844  17.742   3.217  14.504
53912W        W17845  30.468  11.204   1.285
53913W        W17846  11.335  31.643  12.438
53914W        W17847  22.687  42.920  11.467
53915W        W17848  30.987  26.465   4.166
53916W        W17849  15.683  30.465  14.791
53917W        W17850  27.577   2.379   4.752
53918W        W17851  25.517   2.366  14.374
53919W        W17852  16.676  43.933  11.079
53920W        W17853  42.410   9.225   3.780
53921W        W17854  18.110  15.103  12.518
53922W        W17855  14.619  38.041   5.215
53923W        W17856   7.811   9.388  13.850
53924W        W17857  22.581  32.591   1.710
53925W        W17858  22.631  43.900  13.883
53926W        W17859  38.431  43.478  14.987
53927W        W17860  19.647  26.679  11.540
53928W        W17861  38.003   5.322  11.940
53929W        W17862  11.350  41.934  10.510
53930W        W17863  13.142  35.989  13.499
53931W        W17864  25.595  43.346   0.357
53932W        W17865   5.381   0.393   2.224
53933W        W17866  18.602  23.097   1.902
53934W        W17867  32.629  20.582   2.807
53935W        W17868  20.728   5.197  13.970
53936W        W17869  22.134  15.617  12.410
53937W        W17870  42.495  26.189  12.551
53938W        W17871  24.573  21.547  14.427
53939W        W17872  10.315   7.226  14.916
53940W        W17873  14.656  36.055  10.488
53941W        W17874  15.609  42.503  12.874
53942W        W17875  29.568   5.358  13.436
53943W        W17876   1.841  20.271  11.429
53944W        W17877  22.027   3.922  13.894
53945W        W17878  22.025  14.744   0.804
53946W        W17879  41.463  39.554  11.114
53947W        W17880  38.338  17.684  13.319
53948W        W17881  16.155  40.490  12.575
53949W        W17882  43.391   6.742   4.793
53950W        W17883  43.305  25.042  14.007
53951W        W17884  29.166  13.220   1.842
53952W        W17885   8.854  33.507   4.134
53953W        W17886  36.444  16.073  13.985
53954W        W17887  30.613  40.437  13.349
53955W        W17888  13.178  39.843   9.969
53956W        W17889  29.474   1.903   4.731
53957W        W17890  36.986   7.798   4.764
53958W        W17891  26.605   3.416  11.052
53959W        W17892   0.878  33.881   1.415
53960W        W17893  20.171   8.674   0.913
53961W        W17894  18.082  28.174   0.755
53962W        W17895  14.786  14.640   0.953
53963W        W17896  14.161  15.217  10.553
53964W        W17897  35.867   5.355   0.876
53965W        W17898  24.681   1.910  11.607
53966W        W17899  30.141  17.604   3.300
53967W        W17900   9.779  36.990   1.793
53968W        W17901  21.197   1.284  13.348
53969W        W17902  39.541  31.632   1.820
53970W        W17903  11.212   5.823  14.948
53971W        W17904  28.549  31.454   3.248
53972W        W17905  40.535  25.617   1.857
53973W        W17906   6.368  42.493   3.215
53974W        W17907  37.413  14.634  13.013
53975W        W17908  11.691  37.062   1.856
53976W        W17909  26.107  34.465   3.716
53977W        W17910  40.450   6.854  12.493
53978W        W17911  25.523  42.785   0.356
53979W        W17912   3.787   5.259   1.818
53980W        W17913  34.467  44.874  12.526
53981W        W17914  11.779  22.704  14.987
53982W        W17915  34.404  22.736   4.656
53983W        W17916  43.322  18.656   0.303
53984W        W17917  43.816  16.204   3.741
53985W        W17918   6.289   5.907  13.058
53986W        W17919  40.512   0.352  14.777
53987W        W17920   9.393  27.125  12.976
53988W        W17921  35.040   6.236   5.262
53989W        W17922  19.676  24.982   9.604
53990W        W17923  35.880  32.600   0.310
53991W        W17924  29.096  36.525  11.995
53992W        W17925  13.304   3.910   4.220
53993W        W17926  20.636  37.974   3.350
53994W        W17927  14.252  29.958  11.884
53995W        W17928   0.917  33.600   0.411
53996W        W17929   1.437   4.284   2.663
53997W        W17930  42.978  15.787  12.573
53998W        W17931   4.262  32.977   3.860
53999W        W17932  36.027  24.516  13.031
54000W        W17933  31.571   3.842  10.961
54001W        W17934  38.515  19.770   1.725
54002W        W17935   7.769  42.974  10.159
54003W        W17936  44.359  11.689   1.855
54004W        W17937   4.227  19.094  13.833
54005W        W17938  16.647  18.173   4.282
54006W        W17939  23.580  21.530  12.084
54007W        W17940   6.249  19.078  11.050
54008W        W17941  39.993  43.331  11.868
54009W        W17942   5.297   2.846   1.930
54010W        W17943  20.203  37.832  13.019
54011W        W17944  38.462   2.361  13.411
54012W        W17945  38.537  14.153   4.133
54013W        W17946  30.929  29.048   2.720
54014W        W17947   9.696  35.872   0.253
54015W        W17948   6.339  13.313  14.927
54016W        W17949  44.813  38.951   2.837
54017W        W17950  19.070  26.665   3.827
54018W        W17951  14.252  28.573   3.724
54019W        W17952  34.895  20.104  13.476
54020W        W17953  13.750  17.216  13.527
54021W        W17954  22.159  26.457  14.398
54022W        W17955   9.395  24.996  14.910
54023W        W17956  33.999  26.095   4.628
54024W        W17957   9.250  10.796   3.215
54025W        W17958  44.494   8.663  10.025
54026W        W17959   4.323  41.825  14.345
54027W        W17960  41.788  30.545  12.086
54028W        W17961  24.520  13.248  12.475
54029W        W17962  14.146  17.679   4.125
54030W        W17963   9.703  11.662  14.926
54031W        W17964  37.563   0.889  11.455
54032W        W17965  43.865  34.493   0.283
54033W        W17966   8.280   2.237  14.278
54034W        W17967   4.349  12.733   2.815
54035W        W17968   0.390  22.670  11.392
54036W        W17969  15.238  20.730   3.346
54037W        W17970  26.466  34.411   2.826
54038W        W17971  31.415  38.556   3.320
54039W        W17972  23.214  41.830   4.703
54040W        W17973  44.818  33.607   1.762
54041W        W17974  43.366   6.354   2.287
54042W        W17975  30.161  44.770   4.697
54043W        W17976   7.770   5.756   3.653
54044W        W17977  44.876  44.907   1.241
54045W        W17978  42.918  40.000   9.975
54046W        W17979  36.975  23.604  13.920
54047W        W17980  14.301   4.885  13.519
54048W        W17981  21.553  13.790   3.750
54049W        W17982  28.132  23.073  14.865
54050W        W17983  27.986  33.006   2.353
54051W        W17984   1.327   7.201  14.314
54052W        W17985  38.895  18.581   0.896
54053W        W17986   5.772  30.082   2.417
54054W        W17987  12.244  38.855   3.649
54055W        W17988   2.841  39.902   0.292
54056W        W17989  41.348  29.426   4.318
54057W        W17990   9.767  17.760  11.478
54058W        W17991  17.140   1.428  11.906
54059W        W17992  18.738  18.253  10.944
54060W        W17993  16.630  43.502  13.438
54061W        W17994  21.125  41.932   1.714
54062W        W17995   0.755  31.583   1.878
54063W        W17996  24.592  29.598   4.214
54064W        W17997   1.384  27.653  12.506
54065W        W17998  21.715  33.114   4.820
54066W        W17999  18.657  25.575  12.378
54067W        W18000   4.890  37.925  10.993
54068W        W18001   8.406  32.517  12.938
54069W        W18002   7.406  42.777  12.051
54070W        W18003   3.436  35.907  10.621
54071W        W18004  13.161   6.738   3.647
54072W        W18005  13.781  14.169  12.427
54073W        W18006  18.059  20.130   1.235
54074W        W18007  11.224   1.463   2.848
54075W        W18008  21.649  22.510   1.739
54076W        W18009  17.642  26.981   1.755
54077W        W18010  33.546   2.231  12.874
54078W        W18011  15.157   1.939  12.882
54079W        W18012   6.744  27.530   2.900
54080W        W18013  24.178  36.938  13.796
54081W        W18014  11.675  42.490  12.578
54082W        W18015  20.668  40.964  11.495
54083W        W18016  33.436  26.551  11.862
54084W        W18017  34.574   7.876  11.044
54085W        W18018  28.550  38.985  10.513
54086W        W18019  30.520  15.654   5.217
54087W        W18020  44.759  22.046  13.908
54088W        W18021  11.245  38.004   0.938
54089W        W18022  37.477  19.608   2.739
54090W        W18023  29.604  22.716   0.848
54091W        W18024  26.183  35.557   3.298
54092W        W18025  30.481  37.891  13.798
54093W        W18026  33.417  24.669   0.464
54094W        W18027  14.806  40.322   2.752
54095W        W18028  39.560   7.841   1.352
54096W        W18029  11.358  35.470  12.036
54097W        W18030  35.491   0.393  14.453
54098W        W18031  44.811  21.750  11.898
54099W        W18032  19.160  19.056   2.700
54100W        W18033   1.286  17.084  10.461
54101W        W18034  30.478   3.814   3.838
54102W        W18035  27.524  23.197   2.377
54103W        W18036  14.283  28.579  11.373
54104W        W18037  35.998  24.589   1.259
54105W        W18038  21.622  14.124  12.014
54106W        W18039  31.628  13.621   1.877
54107W        W18040  10.191   4.826  13.433
54108W        W18041  25.513  37.903  13.411
54109W        W18042  23.034  14.774  11.049
54110W        W18043   3.933  38.043   0.883
54111W        W18044  42.433  41.309  13.430
54112W        W18045  44.433   0.454   4.153
54113W        W18046  18.636   9.711  11.921
54114W        W18047  36.017   7.902  14.403
54115W        W18048  23.731   6.355   4.605
54116W        W18049  37.032   6.918  11.508
54117W        W18050   0.450   3.770  14.002
54118W        W18051  40.949   6.368  14.778
54119W        W18052  16.099  19.683   2.195
54120W        W18053   6.725   9.672   0.890
54121W        W18054  22.574   2.458  10.409
54122W        W18055  35.993  13.351  14.808
54123W        W18056  20.152  15.105   1.406
54124W        W18057  19.733   3.942  12.072
54125W        W18058  37.365  25.530   3.737
54126W        W18059  35.034  22.170  12.473
54127W        W18060  22.745  20.725  10.994
54128W        W18061   2.908  10.157   0.243
54129W        W18062  21.050  34.452   2.900
54130W        W18063  43.965  19.261  14.443
54131W        W18064   1.402  36.877  14.497
54132W        W18065   3.941  37.831  14.372
54133W        W18066  10.139  31.089   2.232
54134W        W18067  42.347  43.315  14.482
54135W        W18068   7.324  17.686  14.760
54136W        W18069  37.002  26.698   4.696
54137W        W18070  24.510  21.729   4.203
54138W        W18071  20.747   1.344  10.476
54139W        W18072  42.888   5.358   4.311
54140W        W18073  19.546  34.048  12.049
54141W        W18074  43.898   4.932  11.977
54142W        W18075  36.472  16.726  11.582
54143W        W18076  16.604  10.321  10.954
54144W        W18077  34.925  44.794   2.199
54145W        W18078  23.174   3.389   3.717
54146W        W18079   8.718  25.034  12.957
54147W        W18080  33.906  23.059  14.401
54148W        W18081   3.332  12.260  13.854
54149W        W18082  26.102  34.385   0.852
54150W        W18083   0.959  27.953  10.026
54151W        W18084  42.440   1.286  14.391
54152W        W18085   9.253  30.531   3.819
54153W        W18086   9.240   5.696   4.778
54154W        W18087  15.138  34.397  10.528
54155W        W18088  11.210   6.857   4.294
54156W        W18089  19.776  20.629   2.824
54157W        W18090   3.869  41.967  14.953
54158W        W18091  27.193  15.218  14.490
54159W        W18092  30.042  15.084  14.301
54160W        W18093  21.084  13.194   5.166
54161W        W18094  24.486  31.110  14.421
54162W        W18095  43.835  44.965  14.785
54163W        W18096   1.456  14.769   0.790
54164W        W18097  36.424  14.310   4.599
54165W        W18098  18.743  22.086   2.734
54166W        W18099   7.815  37.453   4.624
54167W        W18100   4.258  22.655  14.790
54168W        W18101   6.359  32.633  12.942
54169W        W18102  32.582  22.252   3.243
54170W        W18103  21.223  41.942   3.189
54171W        W18104  22.175  21.633  10.435
54172W        W18105  37.860   5.731   3.740
54173W        W18106  10.305   7.771  11.089
54174W        W18107  16.158  27.014  10.903
54175W        W18108  25.189  12.747  14.874
54176W        W18109  17.802  10.755  13.001
54177W        W18110  39.367  19.750  12.904
54178W        W18111  36.998  13.339  12.558
54179W        W18112  24.548   2.317   1.931
54180W        W18113  22.577   4.264   0.468
54181W        W18114  15.627   8.280   1.766
54182W        W18115  40.939  23.069  10.546
54183W        W18116   0.750   1.423  11.477
54184W        W18117  28.516   5.198  11.589
54185W        W18118  29.497  23.553   1.812
54186W        W18119  15.218  25.034  11.024
54187W        W18120   4.875   1.312   2.357
54188W        W18121   8.362  26.073  11.432
54189W        W18122  33.880  24.070  11.095
54190W        W18123  34.957  17.295   3.662
54191W        W18124  32.987   2.430   0.305
54192W        W18125  17.136  36.081   3.829
54193W        W18126  28.505  36.025  12.918
54194W        W18127  21.090  44.485   2.327
54195W        W18128  33.458  14.304  13.984
54196W        W18129  10.293  28.103  11.962
54197W        W18130  11.180   4.438   1.818
54198W        W18131  25.579  17.160  14.467
54199W        W18132  17.690  37.430  12.504
54200W        W18133  23.712  40.382  12.578
54201W        W18134  36.969  41.393   1.726
54202W        W18135   8.185   4.803   2.398
54203W        W18136  39.895  11.863   4.609
54204W        W18137  25.637  11.246   3.793
54205W        W18138   3.218   7.409   0.862
54206W        W18139  21.742  21.188  11.579
54207W        W18140  44.970   2.772   0.466
54208W        W18141  21.655  11.696  13.016
54209W        W18142  16.702  19.574   3.210
54210W        W18143   7.335  26.681   0.924
54211W        W18144  30.919  31.452  11.921
54212W        W18145  13.833  18.771  11.072
54213W        W18146   5.416   9.870   4.226
54214W        W18147  17.742  39.492   2.689
54215W        W18148   8.182  13.228   3.305
54216W        W18149  14.715  36.095   2.195
54217W        W18150  32.077  23.715   4.240
54218W        W18151  32.052   7.723   4.722
54219W        W18152  14.820  29.935   3.846
54220W        W18153   9.178  15.181   4.178
54221W        W18154  34.079   9.687  14.361
54222W        W18155  39.539  19.218  10.936
54223W        W18156  26.674  31.518   0.252
54224W        W18157  42.345   2.837  12.557
54225W        W18158  36.000  36.497  15.000
54226W        W18159  30.972  36.879  14.837
54227W        W18160  10.365  38.987   2.204
54228W        W18161   2.948  28.029   4.246
54229W        W18162  18.578  42.421  14.025
54230W        W18163  26.146  34.574  14.960
54231W        W18164  15.800   1.779  10.917
54232W        W18165  22.747  15.177   4.343
54233W        W18166  15.616  25.623   2.254
54234W        W18167   2.723   1.829  10.913
54235W        W18168   2.409  27.470   3.765
54236W        W18169   3.418   0.327  12.934
54237W        W18170  24.556  11.639   0.842
54238W        W18171  16.695  30.465   4.677
54239W        W18172  25.063  20.068   4.636
54240W        W18173  38.994  37.943   3.725
54241W        W18174  17.802   4.424   0.294
54242W        W18175  19.585   4.392  10.550
54243W        W18176  19.734  17.263   1.730
54244W        W18177  35.421  40.044  13.380
54245W        W18178  39.985  38.897   1.763
54246W        W18179  22.548  17.225  13.498
54247W        W18180  43.270  33.121   4.297
54248W        W18181  36.358   5.754   4.609
54249W        W18182   7.366   7.713   3.721
54250W        W18183  16.145  18.192   1.334
54251W        W18184  33.560  13.317  14.799
54252W        W18185  30.571  20.673   4.807
54253W        W18186  44.989  31.411  12.418
54254W        W18187  38.986  11.272   0.737
54255W        W18188  19.073   3.711   2.405
54256W        W18189  18.089   7.819  11.404
54257W        W18190   4.783  28.108   2.811
54258W        W18191   5.839  25.618  11.011
54259W        W18192  18.546  23.120  14.801
54260W        W18193  13.616  10.227   0.808
54261W        W18194  21.039   9.341  11.052
54262W        W18195  27.554  30.039  14.502
54263W        W18196  30.916   9.818  11.983
54264W        W18197  10.777  21.708   4.709
54265W        W18198  26.625  38.459   1.719
54266W        W18199  33.935  23.997  14.392
54267W        W18200  10.318  16.304   1.791
54268W        W18201   9.347  17.782   2.324
54269W        W18202  40.383  24.119   2.398
54270W        W18203  29.940  39.482   2.870
54271W        W18204  43.454  40.980  12.418
54272W        W18205  10.872  14.615   0.766
54273W        W18206   8.236  13.135  13.471
54274W        W18207  20.086  23.514  14.863
54275W        W18208  37.969  27.665  13.458
54276W        W18209  19.595  14.221   4.783
54277W        W18210   9.804  30.056   0.857
54278W        W18211  29.642  10.657  13.320
54279W        W18212  22.029  22.521   1.429
54280W        W18213  14.110  22.664  11.580
54281W        W18214  20.088  31.644  11.505
54282W        W18215  11.754  10.283   4.233
54283W        W18216  32.477  22.579  11.958
54284W        W18217   2.427  21.089  12.857
54285W        W18218  20.575   1.833   1.706
54286W        W18219  36.907  30.498   3.340
54287W        W18220  13.173   1.276  11.052
54288W        W18221  36.406  39.371  10.912
54289W        W18222   6.195  44.296  11.533
54290W        W18223  10.147  30.958   1.238
54291W        W18224   0.858   4.811   9.919
54292W        W18225  38.071  43.358   2.365
54293W        W18226  41.899  24.155  14.764
54294W        W18227  33.068   6.694  11.516
54295W        W18228  18.052  20.248  11.088
54296W        W18229   3.740  33.097  14.992
54297W        W18230   3.276   4.446   1.775
54298W        W18231  25.105  21.623   0.795
54299W        W18232   7.737  22.086  10.994
54300W        W18233   3.757   8.742  10.562
54301W        W18234  22.051  37.467  10.052
54302W        W18235  23.065  23.613  14.309
54303W        W18236  11.294   9.225  11.930
54304W        W18237  14.796  24.641   2.817
54305W        W18238  35.430   0.307  13.879
54306W        W18239  37.384  13.707   3.656
54307W        W18240  12.271  16.686   1.334
54308W        W18241  38.830   4.854   2.696
54309W        W18242  31.505  23.116   3.196
54310W        W18243  30.515  36.397   0.808
54311W        W18244  12.168   2.898  14.492
54312W        W18245   4.434  16.087   5.237
54313W        W18246   0.301  30.427  12.378
54314W        W18247   8.386  28.110   0.345
54315W        W18248  35.442  23.191   0.883
54316W        W18249   0.449  31.940   2.305
54317W        W18250  42.364  28.083   1.405
54318W        W18251  13.768  43.370  14.385
54319W        W18252  16.259  39.525  11.043
54320W        W18253  14.214  31.011   1.286
54321W        W18254  40.406   7.193   4.677
54322W        W18255  32.534  29.625  14.998
54323W        W18256   4.432   0.419   3.221
54324W        W18257  16.739  28.636  12.437
54325W        W18258   7.669  30.636  14.775
54326W        W18259  41.016  37.471   2.872
54327W        W18260   4.329  25.188   5.587
54328W        W18261  36.908  36.055  13.830
54329W        W18262  39.359   6.423  12.444
54330W        W18263  34.055  14.100  14.864
54331W        W18264  15.168  16.165  14.298
54332W        W18265  35.910  23.039  11.126
54333W        W18266  21.610   1.371  13.054
54334W        W18267  10.196  34.520   1.872
54335W        W18268  43.291  14.701  11.945
54336W        W18269  14.708   3.866   2.740
54337W        W18270  33.399   2.321   4.808
54338W        W18271  21.106  28.028  13.443
54339W        W18272  22.199  42.941   2.841
54340W        W18273  10.672  39.443  14.779
54341W        W18274  24.591   8.875   9.951
54342W        W18275  26.130  11.133  12.963
54343W        W18276  14.269  15.249   1.222
54344W        W18277  39.866  22.196  11.035
54345W        W18278  21.708  10.684  11.030
54346W        W18279  19.199  14.652  11.600
54347W        W18280  44.414  15.314   0.417
54348W        W18281   4.222  15.791   9.990
54349W        W18282  19.068  41.816  14.884
54350W        W18283  16.124  24.520   3.702
54351W        W18284  27.538  26.006  11.883
54352W        W18285  39.875   8.894   1.778
54353W        W18286  35.499   2.887   3.712
54354W        W18287   7.235  43.318  11.604
54355W        W18288  39.330  39.494   3.299
54356W        W18289  28.607  44.266  13.870
54357W        W18290  35.075  44.504  11.026
54358W        W18291  29.543  29.463  10.603
54359W        W18292   6.193  39.324  12.372
54360W        W18293   8.220  43.860   1.782
54361W        W18294  39.813   9.651   4.646
54362W        W18295  24.062   4.261  14.401
54363W        W18296  28.482  37.911   0.787
54364W        W18297  17.197  35.477  11.117
54365W        W18298  21.215  36.450   5.314
54366W        W18299   9.836   0.274  13.476
54367W        W18300   4.398   7.795  13.889
54368W        W18301  14.667   4.209   4.767
54369W        W18302  20.048   8.306   2.191
54370W        W18303  41.381  16.590   4.716
54371W        W18304   0.452  30.474   1.848
54372W        W18305   4.248   0.960   3.663
54373W        W18306  30.003  40.381  12.380
54374W        W18307  32.002  26.564   3.756
54375W        W18308   8.867  17.080   2.686
54376W        W18309  40.828  37.867   3.862
54377W        W18310  31.906  34.010  13.479
54378W        W18311   7.769  33.006   3.290
54379W        W18312  31.464   2.887   1.417
54380W        W18313  21.699  14.649   3.353
54381W        W18314  10.379  21.153   5.246
54382W        W18315  35.598   2.797  12.876
54383W        W18316  10.266   1.477  10.555
54384W        W18317  10.296  27.033  11.918
54385W        W18318  25.595  12.242  11.569
54386W        W18319  10.378  20.547   0.337
54387W        W18320  22.144   2.954   1.400
54388W        W18321  16.586   4.373   3.793
54389W        W18322   3.306  30.070   3.636
54390W        W18323  41.018  39.815   1.732
54391W        W18324   6.692   2.888   9.935
54392W        W18325  13.728  23.233   1.894
54393W        W18326   3.730  42.025   3.257
54394W        W18327   9.342  15.663   2.255
54395W        W18328  44.367  42.295   3.701
54396W        W18329   4.755   5.724   0.777
54397W        W18330   2.867  40.820   2.668
54398W        W18331  26.958  12.651   2.220
54399W        W18332  15.105  18.619  11.012
54400W        W18333   2.751  10.214   1.934
54401W        W18334  41.798  14.760   4.297
54402W        W18335  19.624  38.536  12.095
54403W        W18336  41.798  26.066  13.471
54404W        W18337   2.276  28.024   0.379
54405W        W18338  23.614   9.325   2.230
54406W        W18339   1.969  35.883  11.585
54407W        W18340  43.824  30.050  12.846
54408W        W18341   9.222  18.613   2.395
54409W        W18342   5.931   2.327   4.141
54410W        W18343  44.495  21.576  11.479
54411W        W18344  43.808  11.372   1.359
54412W        W18345  15.224  39.022  11.864
54413W        W18346  36.933  32.899  12.978
54414W        W18347  20.211  25.983   4.309
54415W        W18348  34.550  35.897   1.871
54416W        W18349  26.654  10.803   1.808
54417W        W18350  23.557  33.927  14.455
54418W        W18351  16.648   4.205  11.984
54419W        W18352  21.694  35.930  11.410
54420W        W18353   1.830  18.560  13.007
54421W        W18354   1.749  34.405  12.517
54422W        W18355  43.340  16.316   4.775
54423W        W18356  37.370   4.797  13.374
54424W        W18357  13.282  32.102   0.249
54425W        W18358  21.066   4.870   4.164
54426W        W18359  29.569  42.371  14.402
54427W        W18360   9.743  26.552   3.275
54428W        W18361  22.124  40.522   0.917
54429W        W18362  28.602  44.006  11.446
54430W        W18363   7.787   8.250  11.554
54431W        W18364   8.339  28.504  12.526
54432W        W18365  10.678  22.119  12.484
54433W        W18366  34.379  12.623   4.138
54434W        W18367  19.687  38.895   2.370
54435W        W18368  34.959  22.249   4.221
54436W        W18369  38.871  42.843   1.715
54437W        W18370  11.724  34.989  11.943
54438W        W18371  10.211  25.623   1.845
54439W        W18372  16.246   5.787   3.675
54440W        W18373  13.333  17.672  13.806
54441W        W18374  10.816   9.652  14.424
54442W        W18375  33.467  26.146   2.817
54443W        W18376   1.768  19.045  13.856
54444W        W18377   4.340  43.764  11.509
54445W        W18378  36.440  17.148  14.992
54446W        W18379  32.930  41.932   0.907
54447W        W18380  38.359  14.798  12.915
54448W        W18381  35.450   5.424   0.937
54449W        W18382   6.202  29.465   4.740
54450W        W18383  11.329  32.924  13.946
54451W        W18384  10.866   1.810   2.303
54452W        W18385  37.907  34.989   1.339
54453W        W18386  23.991  14.238   0.333
54454W        W18387  24.174  27.527  13.329
54455W        W18388  37.054  29.112   3.809
54456W        W18389  23.062  14.814  12.855
54457W        W18390  41.018  21.248  14.865
54458W        W18391  19.090  39.854   5.172
54459W        W18392  31.601   1.297   0.808
54460W        W18393  23.165  18.198  10.587
54461W        W18394  37.889  39.987  12.489
54462W        W18395  16.650  23.063  14.284
54463W        W18396  18.635  11.758  14.465
54464W        W18397  12.198  44.365  10.620
54465W        W18398  37.484  24.075   1.418
54466W        W18399  35.105  17.232   2.671
54467W        W18400  19.623   1.292  12.960
54468W        W18401   5.900  32.587   1.213
54469W        W18402  25.108  44.841   1.814
54470W        W18403  28.948   0.375  11.003
54471W        W18404  13.279  10.221   0.454
54472W        W18405   8.779  38.974   4.713
54473W        W18406  12.208   1.305   4.176
54474W        W18407  38.075  22.715   3.731
54475W        W18408  30.503   1.331  11.541
54476W        W18409  14.287  31.636   1.354
54477W        W18410   9.796  41.885   1.351
54478W        W18411  20.253  34.394  11.062
54479W        W18412  30.124   0.429   3.774
54480W        W18413   5.827  13.245   2.256
54481W        W18414  34.585  26.633   4.274
54482W        W18415  36.971  24.216   1.731
54483W        W18416  34.064  35.593   4.156
54484W        W18417  31.082  40.545   0.822
54485W        W18418   6.705  24.174  13.991
54486W        W18419  27.570  29.604   0.918
54487W        W18420   3.311  30.637  10.635
54488W        W18421  33.089   5.713   3.273
54489W        W18422  41.397  18.607   2.350
54490W        W18423  19.221  30.605   2.773
54491W        W18424  21.055   9.887  11.536
54492W        W18425   9.173  13.284  14.913
54493W        W18426  20.593  44.364   3.369
54494W        W18427   7.195  22.638  12.066
54495W        W18428  41.992   2.776   0.379
54496W        W18429  33.514  24.170  11.518
54497W        W18430  34.515  33.575   4.248
54498W        W18431  39.447  10.248  11.916
54499W        W18432  24.119  44.263  12.474
54500W        W18433  24.178  36.414  14.000
54501W        W18434  16.265  15.136  10.900
54502W        W18435  21.138  24.230  11.437
54503W        W18436  37.548   5.909   1.861
54504W        W18437  22.040  20.175   2.707
54505W        W18438   1.837  28.111   2.183
54506W        W18439  12.260  44.478  11.443
54507W        W18440  39.523  40.996   3.822
54508W        W18441  17.628  38.353   4.743
54509W        W18442   0.879  17.296  11.457
54510W        W18443  28.644   9.265   4.154
54511W        W18444   1.731  26.669   0.962
54512W        W18445   8.308  27.015   2.889
54513W        W18446  30.469  10.188   4.278
54514W        W18447   5.270  11.140  14.497
54515W        W18448  10.764  40.013   0.444
54516W        W18449  27.624  14.292  12.452
54517W        W18450  20.711  22.192   4.756
54518W        W18451  29.100  39.557  13.031
54519W        W18452  26.002  22.048  11.399
54520W        W18453  23.631  29.618   2.835
54521W        W18454  23.020  44.879   1.248
54522W        W18455  29.542  25.000   2.404
54523W        W18456  44.860  35.855   3.153
54524W        W18457  20.768  36.871  14.987
54525W        W18458   6.914  32.587   2.690
54526W        W18459  31.116  43.813   3.756
54527W        W18460  15.802  35.357   4.155
54528W        W18461  18.250   5.326  14.004
54529W        W18462  24.672  13.139   1.234
54530W        W18463  44.905  42.828  12.392
54531W        W18464  13.238  18.622  10.932
54532W        W18465  44.485  35.414  10.463
54533W        W18466  31.925  29.942   2.790
54534W        W18467   5.798  13.624  12.917
54535W        W18468  44.371  44.788  11.080
54536W        W18469  11.754  15.171   0.408
54537W        W18470   4.306  20.137   3.668
54538W        W18471  35.884  35.510  13.899
54539W        W18472   1.748  31.104  11.117
54540W        W18473  14.326  24.530   3.719
54541W        W18474  13.244  41.997   4.623
54542W        W18475  39.048  23.522  13.473
54543W        W18476  41.515   4.819  12.478
54544W        W18477  34.979   1.865  10.912
54545W        W18478  26.141  19.253   0.381
54546W        W18479   2.260  41.975   0.783
54547W        W18480  28.506  18.252  11.508
54548W        W18481  32.116  36.934  13.456
54549W        W18482  28.155  31.535   0.337
54550W        W18483   0.331  29.467   4.747
54551W        W18484  36.884   6.711   4.321
54552W        W18485  19.195  23.528   2.680
54553W        W18486   0.396  11.722   0.262
54554W        W18487  15.090  43.820   2.286
54555W        W18488  14.128  34.508   3.692
54556W        W18489  25.007  20.182  12.558
54557W        W18490  36.566  21.124  14.479
54558W        W18491   4.434  31.491   0.441
54559W        W18492  21.123  41.792  13.444
54560W        W18493  43.810  35.462  12.027
54561W        W18494  26.002   3.761   3.352
54562W        W18495  15.596   0.372  14.470
54563W        W18496  39.036  14.809   2.284
54564W        W18497  29.603  44.873   3.383
54565W        W18498   3.750  44.964   3.660
54566W        W18499  17.576   1.461  11.947
54567W        W18500  36.032  37.540   4.809
54568W        W18501  28.663  25.537   4.666
54569W        W18502   9.188  33.584   2.772
54570W        W18503  31.910   3.388   2.693
54571W        W18504   4.895  28.629   4.736
54572W        W18505  10.703   7.746   3.303
54573W        W18506   1.777  19.571   0.770
54574W        W18507  43.001   6.420   5.090
54575W        W18508  32.957  42.802   1.890
54576W        W18509   4.337  11.167  12.963
54577W        W18510  34.580   7.869   4.317
54578W        W18511  12.308  39.528  13.845
54579W        W18512  31.481   7.367  12.976
54580W        W18513  36.455  31.038   3.179
54581W        W18514  28.600  36.352   1.837
54582W        W18515  27.081  43.345   0.472
54583W        W18516  40.054  34.051   1.895
54584W        W18517  37.084  33.475  14.380
54585W        W18518  37.890  23.689  14.960
54586W        W18519  42.498  37.890  12.887
54587W        W18520  12.848   2.863   3.787
54588W        W18521  27.949  24.537   1.218
54589W        W18522  16.264  26.562  14.862
54590W        W18523  41.044   6.759  11.460
54591W        W18524  38.335  34.904  14.363
54592W        W18525   7.862  13.145  10.976
54593W        W18526  24.649  44.975  11.960
54594W        W18527  18.790  29.938   3.694
54595W        W18528   5.422  21.640   1.728
54596W        W18529  14.616  24.612   3.850
54597W        W18530  10.681  14.323   0.770
54598W        W18531  24.035  36.423   4.158
54599W        W18532  42.930  43.277  11.515
54600W        W18533  33.488  37.011   4.691
54601W        W18534   5.786  20.109   2.794
54602W        W18535  28.515  37.905   1.762
54603W        W18536  14.816   1.932   3.315
54604W        W18537   8.664  37.008   2.336
54605W        W18538  19.252  41.457   3.346
54606W        W18539  34.579  22.635  12.072
54607W        W18540   1.310  35.982  11.858
54608W        W18541  20.617  20.712   0.949
54609W        W18542  12.716   5.712   2.803
54610W        W18543  17.063  32.419  14.839
54611W        W18544  39.424  36.586   1.368
54612W        W18545  25.093  22.501  11.066
54613W        W18546   1.797  31.019   2.864
54614W        W18547  36.848  30.474  11.425
54615W        W18548  30.537  40.341   0.897
54616W        W18549  32.993  34.613   2.209
54617W        W18550  44.446  35.445  11.053
54618W        W18551  32.414  40.512  13.811
54619W        W18552   6.868   4.272  14.484
54620W        W18553  22.221  40.029  10.918
54621W        W18554  43.962  32.032  12.545
54622W        W18555  37.869   2.258   1.759
54623W        W18556  18.232  19.632   2.668
54624W        W18557   7.747  13.160  13.333
54625W        W18558   9.779  33.038   1.406
54626W        W18559  17.183   9.800  12.005
54627W        W18560   8.210  34.516   2.417
54628W        W18561  23.196   9.761   2.354
54629W        W18562  43.816  33.466   2.727
54630W        W18563  23.223   8.197   2.347
54631W        W18564  26.060  31.975   1.826
54632W        W18565   0.968  18.704  14.767
54633W        W18566   5.350  21.233   2.210
54634W        W18567  16.622  20.169   4.619
54635W        W18568  24.543  42.436   1.787
54636W        W18569   7.844  18.703  12.559
54637W        W18570  34.057  43.902   4.656
54638W        W18571  20.594  24.613  13.371
54639W        W18572  44.412  27.685  10.903
54640W        W18573  39.391  11.828  13.805
54641W        W18574  23.528   2.290   4.658
54642W        W18575  25.468  30.649  14.770
54643W        W18576  16.776   5.230   0.434
54644W        W18577  10.803  25.523   0.381
54645W        W18578  19.041  27.065   4.755
54646W        W18579  17.691  31.899  12.057
54647W        W18580  27.654  33.407  13.926
54648W        W18581  11.289  27.183   1.304
54649W        W18582  35.485  17.661   4.781
54650W        W18583  26.097  25.047  12.458
54651W        W18584   5.278  14.774  13.507
54652W        W18585  40.927  32.892  12.843
54653W        W18586  41.493  15.128  13.456
54654W        W18587  40.870  23.497   1.924
54655W        W18588  23.106  41.882   1.766
54656W        W18589  12.780  39.831   4.689
54657W        W18590  33.555   1.402   1.360
54658W        W18591  17.783   2.898  13.911
54659W        W18592  19.712   8.669   0.793
54660W        W18593   5.434  36.488  10.971
54661W        W18594   3.315  34.889  12.066
54662W        W18595  37.518  12.188  11.594
54663W        W18596  25.968  16.114  12.038
54664W        W18597  26.194  17.232   3.687
54665W        W18598  40.969  17.705   2.699
54666W        W18599  32.455   4.859  13.894
54667W        W18600  14.153   3.237  12.384
54668W        W18601  15.604  20.647   0.458
54669W        W18602  16.307  38.466   3.306
54670W        W18603   0.913   9.186   0.941
54671W        W18604  15.750   4.808   2.326
54672W        W18605  40.447  20.040  12.073
54673W        W18606  33.590  32.419  10.914
54674W        W18607  12.692  27.056   3.844
54675W        W18608  26.191  11.132   4.224
54676W        W18609  10.856   2.231   1.220
54677W        W18610  36.488  12.713  12.554
54678W        W18611  41.347  20.694  14.808
54679W        W18612  29.951  11.140  14.808
54680W        W18613  14.104  30.581  12.460
54681W        W18614  17.797  22.559  13.884
54682W        W18615  23.051   1.483   1.346
54683W        W18616   3.786  34.385   2.838
54684W        W18617  44.818  32.626  12.020
54685W        W18618  43.511  42.901   1.736
54686W        W18619  16.219  44.325   0.466
54687W        W18620   9.730   4.307  14.928
54688W        W18621  18.576  36.082   2.416
54689W        W18622  35.573  40.327  14.016
54690W        W18623  16.297   8.169  14.438
54691W        W18624  14.172   3.262   5.319
54692W        W18625  20.043  11.649   1.727
54693W        W18626  30.156  43.998  10.890
54694W        W18627  12.656  42.001  14.790
54695W        W18628  22.126   2.760   1.857
54696W        W18629   5.378  23.650  10.912
54697W        W18630   0.988  16.136   1.694
54698W        W18631  36.888  26.558   4.267
54699W        W18632  29.550   7.279  12.415
54700W        W18633  30.596  21.166  11.477
54701W        W18634  30.964  11.685   1.872
54702W        W18635   7.245  12.138  12.482
54703W        W18636   9.759  13.755   3.670
54704W        W18637  44.998  23.618  13.011
54705W        W18638  43.800  21.667   1.422
54706W        W18639  43.907  44.502   3.655
54707W        W18640  34.872   6.775   4.705
54708W        W18641  37.517   3.719  10.627
54709W        W18642  27.635  14.218  11.940
54710W        W18643   2.387  34.408  12.358
54711W        W18644   6.282  32.595  11.586
54712W        W18645  29.927   8.691   4.341
54713W        W18646  11.862  33.907   3.183
54714W        W18647   3.249  19.736   3.281
54715W        W18648  23.717  38.903  11.595
54716W        W18649   1.464  44.898   4.280
54717W        W18650  14.099   8.256  14.307
54718W        W18651  30.072  27.062  11.999
54719W        W18652  10.350   5.408   5.166
54720W        W18653  35.081  19.700  11.076
54721W        W18654   3.866   7.758   1.817
54722W        W18655  11.711  16.754   0.911
54723W        W18656   3.312  38.546  11.028
54724W        W18657  43.486  18.140  12.003
54725W        W18658  23.166  40.511  11.570
54726W        W18659  17.608  21.517   0.434
54727W        W18660  12.687   2.424  14.907
54728W        W18661  39.529  28.632   3.671
54729W        W18662  38.842   2.941  13.836
54730W        W18663  33.573  22.653   3.791
54731W        W18664  16.155  39.936  13.358
54732W        W18665  11.852  31.076  12.480
54733W        W18666   3.430  36.005   3.276
54734W        W18667   4.723  36.427   0.832
54735W        W18668  17.773   5.902  12.039
54736W        W18669  30.933  18.181  14.427
54737W        W18670   0.284   2.366   4.210
54738W        W18671   7.808  15.304  10.986
54739W        W18672  29.496  23.635  13.455
54740W        W18673  33.577  22.162  12.838
54741W        W18674  44.420  29.534   4.617
54742W        W18675  14.215  42.284  12.380
54743W        W18676  19.695  23.161  10.898
54744W        W18677  15.219  24.669  12.450
54745W        W18678  43.472  13.186   4.215
54746W        W18679  28.554  27.994  12.544
54747W        W18680  24.660  26.507  13.361
54748W        W18681  39.373   2.463   0.422
54749W        W18682  32.561   3.406  14.383
54750W        W18683  28.989  20.644   4.739
54751W        W18684  12.184  38.946   3.262
54752W        W18685  20.182  24.514   1.721
54753W        W18686  25.188   9.839  10.895
54754W        W18687  15.594  22.205   3.864
54755W        W18688  33.467  42.020   1.892
54756W        W18689   3.951  33.971   4.179
54757W        W18690  36.073   8.726  14.981
54758W        W18691  23.561   8.784  13.332
54759W        W18692  39.895  16.099   1.251
54760W        W18693   2.865   5.394  11.433
54761W        W18694  14.795  18.178   3.326
54762W        W18695  11.797  32.587   2.214
54763W        W18696  14.234  16.703   0.470
54764W        W18697  23.058   4.362  11.955
54765W        W18698  39.975  29.547  11.441
54766W        W18699  25.567  43.514  13.332
54767W        W18700  18.549  38.410   2.404
54768W        W18701   5.778  31.908  10.426
54769W        W18702  23.626   7.684   3.858
54770W        W18703   1.256  32.990   4.699
54771W        W18704  30.915  14.597  11.010
54772W        W18705  16.784  12.671  12.918
54773W        W18706   1.885   5.280   2.679
54774W        W18707  44.481  35.868  13.030
54775W        W18708   2.829  35.559  12.079
54776W        W18709  40.999   8.754  12.827
54777W        W18710  30.078  36.004  11.116
54778W        W18711  35.456   5.821   2.299
54779W        W18712  27.042  32.028   0.352
54780W        W18713  15.636  24.670  11.047
54781W        W18714   7.887  22.663   5.086
54782W        W18715  41.862  10.709   1.269
54783W        W18716   8.355  16.689  13.308
54784W        W18717  10.205  23.650   4.758
54785W        W18718  30.935   4.838  14.494
54786W        W18719   5.407  32.101   3.315
54787W        W18720  29.019  16.156   4.763
54788W        W18721   4.287  42.817  13.369
54789W        W18722  14.599  37.088  11.458
54790W        W18723  33.483   1.896   3.166
54791W        W18724  37.844  31.020   2.678
54792W        W18725  43.945  30.615   1.856
54793W        W18726   8.226   4.752  10.963
54794W        W18727   4.713  38.960   2.219
54795W        W18728  19.711  34.456  12.965
54796W        W18729  19.643  13.711   3.316
54797W        W18730  39.503  39.944   3.256
54798W        W18731  42.392  14.672   2.208
54799W        W18732  23.075   1.828  13.934
54800W        W18733   5.880  21.031   4.836
54801W        W18734   4.806  41.787  12.862
54802W        W18735  40.970   9.380   0.480
54803W        W18736   8.350   9.759  11.860
54804W        W18737   2.941  29.120  13.426
54805W        W18738  11.157  11.726  11.018
54806W        W18739   7.315  43.474   2.802
54807W        W18740  30.093  40.393   0.884
54808W        W18741  32.936  21.033   1.410
54809W        W18742  44.375  26.649  14.956
54810W        W18743  34.388  25.556  12.512
54811W        W18744  24.721   1.463   0.447
54812W        W18745  12.239  10.672   2.394
54813W        W18746  41.307   2.720  11.388
54814W        W18747   4.277  31.897   3.642
54815W        W18748  16.613  15.815  14.339
54816W        W18749  15.285   5.395   1.705
54817W        W18750  33.484  38.347  12.962
54818W        W18751   7.394  33.445   3.282
54819W        W18752  18.643  28.446   0.312
54820W        W18753   5.230   1.905   3.770
54821W        W18754   3.846  36.463   4.215
54822W        W18755   9.159   2.305   9.643
54823W        W18756  22.732  33.935   2.356
54824W        W18757  34.927  20.691  12.463
54825W        W18758  15.628  36.885   3.349
54826W        W18759   0.941  11.660  10.953
54827W        W18760   5.913  37.420   1.365
54828W        W18761  18.132   1.878  13.363
54829W        W18762   3.876  34.979  13.981
54830W        W18763   0.292  12.214  11.437
54831W        W18764  16.313  13.748   2.408
54832W        W18765  44.996  39.058  12.971
54833W        W18766  10.773   8.342  11.504
54834W        W18767  39.985   4.368  11.402
54835W        W18768  42.949  15.251  11.856
54836W        W18769  15.707  36.540   2.790
54837W        W18770   4.244  10.665  11.572
54838W        W18771  29.145   8.672  10.891
54839W        W18772  18.563   7.306   3.846
54840W        W18773   2.424  34.522   0.302
54841W        W18774  38.912   4.262  12.538
54842W        W18775  30.477  14.270   1.347
54843W        W18776  39.392  37.575  10.959
54844W        W18777  13.207   3.341   3.182
54845W        W18778  20.077  44.311  13.415
54846W        W18779  24.022  32.082  11.977
54847W        W18780  14.118   4.317  10.111
54848W        W18781  25.064   9.296  12.522
54849W        W18782  27.484  36.462   0.415
54850W        W18783  26.570   6.323  11.928
54851W        W18784  33.625   6.336  14.781
54852W        W18785  10.855  16.094  13.858
54853W        W18786  29.924  29.919   3.364
54854W        W18787  23.635  41.803   2.237
54855W        W18788  21.630  14.650  11.927
54856W        W18789  24.703   8.174  13.965
54857W        W18790  41.017   8.870   2.408
54858W        W18791  27.661  30.162  12.982
54859W        W18792  42.796   4.819  12.005
54860W        W18793   5.754  41.460  13.884
54861W        W18794  20.527  15.320   1.408
54862W        W18795  39.044   6.257  13.363
54863W        W18796   2.252  26.172   1.396
54864W        W18797  29.159  34.062   3.828
54865W        W18798  10.174  16.645  13.341
54866W        W18799  41.352  23.071  12.068
54867W        W18800  12.644  42.865  14.805
54868W        W18801  34.866  34.464  13.506
54869W        W18802  12.615   1.297   4.338
54870W        W18803  42.846   0.957  14.982
54871W        W18804   4.434  41.537  12.092
54872W        W18805  32.583   0.911  12.507
54873W        W18806  40.425  40.978   0.409
54874W        W18807   1.765  44.427  11.865
54875W        W18808  34.526  23.065  12.975
54876W        W18809  44.814  36.916   2.724
54877W        W18810  43.409  29.506  14.514
54878W        W18811  25.984  43.002   0.835
54879W        W18812  20.559   0.973  11.520
54880W        W18813   3.228  33.602  10.997
54881W        W18814  32.463  14.615   0.361
54882W        W18815  25.666   0.871   3.174
54883W        W18816  29.620  21.589  14.761
54884W        W18817  14.281  14.639   3.356
54885W        W18818  31.495  30.473  14.325
54886W        W18819  16.219  24.021   1.935
54887W        W18820  10.271  35.879  13.480
54888W        W18821  33.907  14.235   4.814
54889W        W18822  21.701   9.200  13.989
54890W        W18823  32.905  15.690  11.567
54891W        W18824  35.033  44.884  11.555
54892W        W18825  33.491  38.562   2.777
54893W        W18826  40.387  13.611   2.898
54894W        W18827  34.035  33.090  11.411
54895W        W18828  37.988  40.329  12.421
54896W        W18829  27.196  43.795   0.803
54897W        W18830   1.753  20.577   3.702
54898W        W18831  42.971  31.040   3.774
54899W        W18832  20.700  21.562  14.419
54900W        W18833   8.264  21.225  12.413
54901W        W18834   5.221  11.164  13.826
54902W        W18835  29.654  31.476  10.407
54903W        W18836  25.558  15.635   2.376
54904W        W18837  29.624  30.030   1.442
54905W        W18838   5.224  31.018   2.302
54906W        W18839  26.095  33.110  10.931
54907W        W18840  34.501  16.616   0.310
54908W        W18841  29.036  38.922   3.271
54909W        W18842  35.364  16.664   4.765
54910W        W18843  11.184   2.744   0.728
54911W        W18844   0.931  34.047   2.850
54912W        W18845  44.771  37.982   5.256
54913W        W18846  19.129  11.152  14.850
54914W        W18847  37.912  30.513  13.836
54915W        W18848  40.487  26.488  10.058
54916W        W18849   4.393  20.122  13.797
54917W        W18850  25.049  19.736  12.409
54918W        W18851   4.750   2.949  14.867
54919W        W18852  39.399  18.117   0.325
54920W        W18853  14.270   1.292   0.293
54921W        W18854  43.919  29.101   4.269
54922W        W18855   6.406  16.741   3.674
54923W        W18856  12.784  13.253  14.783
54924W        W18857  22.247  10.835  14.819
54925W        W18858  10.737  28.614  12.382
54926W        W18859  11.170  22.244  12.489
54927W        W18860  34.906  14.599  12.495
54928W        W18861   4.369  25.062   3.187
54929W        W18862  13.616  41.958  11.043
54930W        W18863  15.130  20.696  14.954
54931W        W18864  26.123   2.437   0.805
54932W        W18865  25.673  21.563   1.256
54933W        W18866  13.142  28.678  11.016
54934W        W18867   5.907  38.880   2.338
54935W        W18868  24.619  17.694   0.885
54936W        W18869  18.670  39.835   4.140
54937W        W18870  11.282  40.950   2.890
54938W        W18871   0.366  27.087   1.347
54939W        W18872   8.667  34.493   4.233
54940W        W18873  24.207  42.786   1.723
54941W        W18874  12.283  27.142   0.948
54942W        W18875  44.825  39.549   4.295
54943W        W18876  14.307  24.701   0.316
54944W        W18877  21.191  23.630  12.048
54945W        W18878   7.292  32.615  12.968
54946W        W18879  34.471  33.419   4.625
54947W        W18880   5.687  32.995   4.752
54948W        W18881  14.828   0.954   4.158
54949W        W18882  25.083  41.850   3.272
54950W        W18883  13.249  35.038  13.855
54951W        W18884  12.764  27.463  14.977
54952W        W18885  21.590   8.249  11.908
54953W        W18886  27.134  20.759   3.149
54954W        W18887  20.621  28.643   3.801
54955W        W18888  25.133   3.303  12.472
54956W        W18889  22.517  44.794   2.309
54957W        W18890  42.286  24.218   2.267
54958W        W18891  33.009  42.295   0.821
54959W        W18892  33.455  17.161  12.357
54960W        W18893  16.589  32.436   1.826
54961W        W18894  32.946  41.502  10.448
54962W        W18895  22.525  36.436   4.289
54963W        W18896  35.008  25.480  10.491
54964W        W18897  12.734  44.846  13.399
54965W        W18898  31.588   7.880   4.781
54966W        W18899  41.813  18.655  11.521
54967W        W18900   1.938  37.908  12.958
54968W        W18901  36.936  38.998   3.159
54969W        W18902  41.311  39.903  11.116
54970W        W18903  42.808  42.848   0.803
54971W        W18904  21.183   9.737   1.221
54972W        W18905   5.739  43.782  11.955
54973W        W18906  15.189  12.283   4.139
54974W        W18907  19.111  30.427   3.731
54975W        W18908   4.825  17.172  10.560
54976W        W18909  44.766  31.506  13.317
54977W        W18910  24.077  20.228  10.597
54978W        W18911  37.350  38.484  11.509
54979W        W18912   7.908  33.960   4.248
54980W        W18913  35.365  13.192   0.951
54981W        W18914  31.470   4.386   2.693
54982W        W18915  30.595  26.152   3.714
54983W        W18916  31.570   0.347   1.451
54984W        W18917  15.148  42.945  14.841
54985W        W18918  18.149   7.322   4.183
54986W        W18919   2.239   6.345   4.755
54987W        W18920   1.891  15.235   3.690
54988W        W18921  44.376   3.932   4.347
54989W        W18922  16.714   2.448  10.573
54990W        W18923  41.368  34.868   0.894
54991W        W18924   3.342  39.020   1.828
54992W        W18925  11.238  30.626   1.791
54993W        W18926  33.028  44.834  13.024
54994W        W18927  32.441  11.313  12.036
54995W        W18928  28.079  32.498   4.321
54996W        W18929  36.858  15.283  12.859
54997W        W18930  15.250  34.517   2.839
54998W        W18931  10.349  30.632  12.092
54999W        W18932   0.778  14.832  13.791
55000W        W18933  31.897  35.892  11.961
55001W        W18934  20.637  36.858  11.119
55002W        W18935  43.996   8.267  10.921
55003W        W18936  22.530  21.072   5.265
55004W        W18937  34.044  17.113   1.420
55005W        W18938  41.324  35.000  12.894
55006W        W18939  11.689  11.786  11.870
55007W        W18940  41.297  17.591   4.250
55008W        W18941  30.934  32.993  11.484
55009W        W18942  23.651  15.609  14.399
55010W        W18943  13.268   1.428   3.338
55011W        W18944  43.434  21.727   2.235
55012W        W18945  19.581  36.036  10.058
55013W        W18946  35.965   2.793  11.424
55014W        W18947  30.605  20.085   2.298
55015W        W18948  36.052  21.044  12.093
55016W        W18949   3.458  27.069   2.401
55017W        W18950   5.719   0.918  14.862
55018W        W18951  44.916  37.368   2.348
55019W        W18952  21.116  30.969   2.669
55020W        W18953  42.385   1.826   4.348
55021W        W18954  38.567  35.059   1.296
55022W        W18955  11.680  15.637  12.094
55023W        W18956  29.583   1.400   1.281
55024W        W18957  22.673  15.784   1.373
55025W        W18958  35.932   0.836   0.302
55026W        W18959  22.665  15.137  14.344
55027W        W18960   5.832   5.853  14.501
55028W        W18961  36.430   3.234   1.404
55029W        W18962  31.617  37.429   4.609
55030W        W18963  20.138  40.497  13.418
55031W        W18964  29.094   0.491  14.458
55032W        W18965  25.997  11.778   1.244
55033W        W18966  32.618  24.989   4.226
55034W        W18967  34.967  32.581  14.003
55035W        W18968  31.916  40.324   1.725
55036W        W18969   4.881   2.747   2.675
55037W        W18970  40.358  32.584   1.240
55038W        W18971   1.783  34.413  10.469
55039W        W18972  25.488  36.841  14.830
55040W        W18973  43.311   9.717  14.354
55041W        W18974  40.380   9.855  12.481
55042W        W18975  29.516  43.007  11.374
55043W        W18976  25.966  28.672  11.986
55044W        W18977  43.767  25.646   3.226
55045W        W18978   1.363  15.800   2.740
55046W        W18979  29.643  14.280  11.949
55047W        W18980   4.428  38.934   0.314
55048W        W18981   6.785  33.479  11.024
55049W        W18982  10.166  27.507  12.339
55050W        W18983   5.843   1.261  10.520
55051W        W18984  41.892  39.972   1.770
55052W        W18985  13.325  39.393   1.346
55053W        W18986  26.178  37.524   3.861
55054W        W18987   4.907   7.874   1.714
55055W        W18988  25.493  37.908  14.796
55056W        W18989  14.133  21.645   2.712
55057W        W18990  27.130  36.871  14.793
55058W        W18991  13.349  38.916  13.006
55059W        W18992  20.142  30.038   0.884
55060W        W18993  37.839  39.875   1.820
55061W        W18994   7.708  27.147  11.404
55062W        W18995  33.026  17.666  13.852
55063W        W18996   1.277  36.938  11.924
55064W        W18997  26.969  33.879  10.979
55065W        W18998  18.164  12.224   3.817
55066W        W18999  32.111   4.398   2.360
55067W        W19000  38.040  13.663   3.691
55068W        W19001  41.880  37.429   4.278
55069W        W19002   2.266  10.363   4.323
55070W        W19003  43.809  37.046   3.832
55071W        W19004   8.896   8.372   3.166
55072W        W19005  41.897  32.420   1.793
55073W        W19006  25.600  43.405  10.964
55074W        W19007  39.364  39.416   4.133
55075W        W19008  13.601  21.548   0.327
55076W        W19009  24.207   6.728   3.743
55077W        W19010  37.860  22.998  10.518
55078W        W19011  36.902  19.560  14.811
55079W        W19012  38.339  38.569   1.419
55080W        W19013  18.122  25.540   1.813
55081W        W19014  42.509  12.121   0.754
55082W        W19015  28.067  30.138  14.896
55083W        W19016  19.780  34.412  11.993
55084W        W19017  44.502  40.814   0.360
55085W        W19018  43.300  42.012  13.538
55086W        W19019  25.195  35.005  14.807
55087W        W19020  42.777  32.466   0.765
55088W        W19021  11.703  15.577   2.734
55089W        W19022  38.525  18.256   3.727
55090W        W19023   6.874  24.198  14.280
55091W        W19024  14.807  33.602  12.979
55092W        W19025  21.703  10.758   3.260
55093W        W19026  41.000   7.701   3.344
55094W        W19027  27.463  19.610   2.836
55095W        W19028  21.127  37.340   0.875
55096W        W19029  25.555  11.133  13.813
55097W        W19030  14.670  20.570   4.614
55098W        W19031   9.856  11.298  12.056
55099W        W19032   8.201   6.345   0.355
55100W        W19033  28.505  11.676  14.324
55101W        W19034  15.713  19.089   3.645
55102W        W19035   7.830  11.314  11.860
55103W        W19036  40.334  36.515  10.046
55104W        W19037  12.289  25.084  14.857
55105W        W19038  36.881  27.446  12.085
55106W        W19039  23.707   9.244   9.580
55107W        W19040  25.567  33.556  13.443
55108W        W19041  30.447  11.211  14.885
55109W        W19042  31.984   3.868  11.016
55110W        W19043  32.530  42.457  11.913
55111W        W19044  24.997   2.860  11.949
55112W        W19045  20.537  16.206   4.226
55113W        W19046  12.749   5.802   1.274
55114W        W19047  13.227  17.276   0.297
55115W        W19048  31.414  16.107   0.864
55116W        W19049  24.574  27.187  12.435
55117W        W19050  37.950  25.468  14.486
55118W        W19051  39.961  26.503   0.303
55119W        W19052  41.507  39.925   4.815
55120W        W19053  33.501  38.555  12.476
55121W        W19054  44.293  42.295   2.792
55122W        W19055  17.674  14.304  14.481
55123W        W19056  32.440  14.242  10.441
55124W        W19057   2.916  34.515  10.988
55125W        W19058  21.150  24.621  11.912
55126W        W19059  39.405  37.567   1.786
55127W        W19060  19.044  10.786  10.528
55128W        W19061   3.369  44.473   4.654
55129W        W19062   5.335  17.186   0.754
55130W        W19063  33.027  32.894  14.801
55131W        W19064   9.232  38.552  11.052
55132W        W19065  38.551   9.216   0.435
55133W        W19066  21.583  34.515  14.987
55134W        W19067  18.206  16.632   5.277
55135W        W19068   1.761  42.963   5.119
55136W        W19069  11.144  43.816   1.856
55137W        W19070  28.179  10.169  13.021
55138W        W19071  34.576  33.523  14.289
55139W        W19072   0.345  12.775  13.531
55140W        W19073  26.094  31.455   4.651
55141W        W19074  17.593   4.858   4.152
55142W        W19075  37.901  16.735  11.857
55143W        W19076  14.700   5.350   5.188
55144W        W19077  44.444  21.024  14.983
55145W        W19078  12.333  26.695   2.709
55146W        W19079  23.505   6.759  13.984
55147W        W19080   5.918  39.341  14.317
55148W        W19081  32.466  29.570  13.396
55149W        W19082  24.692  38.504  14.778
55150W        W19083  26.111  16.658  13.897
55151W        W19084  15.173  36.411  12.416
55152W        W19085  38.909  40.996   3.273
55153W        W19086  37.876  37.917  12.531
55154W        W19087  18.545  26.095   4.344
55155W        W19088   9.310  10.312   2.791
55156W        W19089  41.360  12.241  13.992
55157W        W19090  44.815  11.351  14.902
55158W        W19091  32.581  19.669  10.899
55159W        W19092   8.826   1.393  12.550
55160W        W19093  29.160   9.811  12.943
55161W        W19094   9.699   1.828  13.859
55162W        W19095   6.816  39.525  11.456
55163W        W19096  17.199   3.950  12.886
55164W        W19097  23.101  39.986  14.917
55165W        W19098  43.288   9.888  10.990
55166W        W19099  36.003   9.804   3.356
55167W        W19100  30.115  43.379  13.349
55168W        W19101  29.116  27.687  10.613
55169W        W19102  13.328  27.518   1.749
55170W        W19103  15.213  26.174  11.996
55171W        W19104  13.661  16.084  11.490
55172W        W19105  25.997  11.371  12.365
55173W        W19106  39.812   3.908   0.752
55174W        W19107  43.889  16.743   0.953
55175W        W19108  30.111  20.548  14.768
55176W        W19109  12.185  28.049   2.181
55177W        W19110  39.902  38.475  12.959
55178W        W19111  18.695  41.506   3.214
55179W        W19112  22.557  33.946  12.848
55180W        W19113  12.695  16.089   4.639
55181W        W19114   4.867   4.422  11.376
55182W        W19115  23.552   4.919   1.357
55183W        W19116  42.472   6.805   4.259
55184W        W19117  28.461  11.698   0.912
55185W        W19118  38.909   7.884  13.057
55186W        W19119  18.572   8.210  14.903
55187W        W19120  34.394  24.113   1.255
55188W        W19121  21.516  27.074   4.307
55189W        W19122  44.431  19.564  14.351
55190W        W19123  41.915  38.472  13.891
55191W        W19124  13.143  36.032   5.279
55192W        W19125   7.349  41.813  11.061
55193W        W19126  40.833  30.468   2.375
55194W        W19127  26.064   8.403   3.248
55195W        W19128  16.616  12.780  10.984
55196W        W19129   9.166  25.014   3.767
55197W        W19130  11.228  13.653   3.853
55198W        W19131  25.123  44.783  14.452
55199W        W19132   6.763  43.301  11.460
55200W        W19133  15.604  42.381  11.105
55201W        W19134  14.606  15.720  12.832
55202W        W19135  43.800  36.067   4.171
55203W        W19136  21.050   9.188  10.524
55204W        W19137  23.499  35.013   2.690
55205W        W19138  29.937  28.985   2.332
55206W        W19139  39.013   0.347  10.053
55207W        W19140  26.035  21.690  11.971
55208W        W19141  18.753   1.243  14.009
55209W        W19142  21.535  31.642   2.350
55210W        W19143  10.157  29.986  12.051
55211W        W19144  44.371  27.647   0.916
55212W        W19145  38.536  38.027   4.802
55213W        W19146   0.826   4.359  10.598
55214W        W19147  10.221   8.386   4.694
55215W        W19148  36.352  40.317   1.353
55216W        W19149  36.847  21.195   1.287
55217W        W19150  42.874  19.114   2.322
55218W        W19151  30.522   3.817  11.972
55219W        W19152   1.907  15.642   4.236
55220W        W19153   6.884  10.253   3.763
55221W        W19154  13.765  18.111  10.492
55222W        W19155  26.031  41.978  14.833
55223W        W19156  12.164  32.958  14.970
55224W        W19157  28.048  13.803  14.297
55225W        W19158   6.690  44.382  14.971
55226W        W19159  32.972   5.349   2.236
55227W        W19160  25.984   7.860   3.339
55228W        W19161  17.100  12.361   2.866
55229W        W19162  32.494  25.129  11.904
55230W        W19163  36.351  10.345  11.018
55231W        W19164   6.885   7.676   4.306
55232W        W19165  21.222  23.196  12.520
55233W        W19166  12.329   0.447   1.300
55234W        W19167   8.315  18.133   2.355
55235W        W19168   9.811   7.249   3.249
55236W        W19169   3.799  25.193  13.347
55237W        W19170   9.776  17.575   2.352
55238W        W19171  21.702  31.420   3.315
55239W        W19172  33.622  43.864  12.559
55240W        W19173  13.326  28.104   2.218
55241W        W19174  18.163   6.748  12.528
55242W        W19175  34.523  32.540  13.854
55243W        W19176  33.614  31.478   0.268
55244W        W19177  17.637  34.533  12.875
55245W        W19178  26.581   3.833   1.323
55246W        W19179  18.210  12.612   3.172
55247W        W19180  44.804  21.543   4.125
55248W        W19181  24.128   1.767  14.836
55249W        W19182  22.659  13.331  13.500
55250W        W19183  13.111   3.747  14.292
55251W        W19184   4.943   6.866   2.281
55252W        W19185  25.998   3.798  11.001
55253W        W19186  33.033  39.937  14.340
55254W        W19187  12.141  17.737   1.300
55255W        W19188  31.644  34.462  12.963
55256W        W19189  15.180   3.456   3.316
55257W        W19190   7.709   8.250   1.832
55258W        W19191  10.690  27.684   2.745
55259W        W19192  19.169  29.047   1.428
55260W        W19193  22.148   3.258  13.459
55261W        W19194  14.099  34.394  12.418
55262W        W19195  15.780  41.316  14.416
55263W        W19196  15.623  37.530  13.341
55264W        W19197  29.034  36.588   1.315
55265W        W19198   2.259   0.977  10.572
55266W        W19199  23.996  32.006  12.950
55267W        W19200   7.252  44.955   1.797
55268W        W19201  33.962  24.126   3.197
55269W        W19202  44.971  25.672  10.986
55270W        W19203  41.292  24.093  10.435
55271W        W19204  20.724  11.293   4.236
55272W        W19205  43.346  16.696   4.309
55273W        W19206  28.999   6.707   1.738
55274W        W19207  43.295  30.424   3.336
55275W        W19208  33.057  42.790  12.566
55276W        W19209   5.896  23.099   0.759
55277W        W19210  32.031  23.510   3.653
55278W        W19211  25.581  32.537   2.255
55279W        W19212  36.457  39.433  12.974
55280W        W19213  40.453  22.511   2.396
55281W        W19214  19.170   8.801   2.268
55282W        W19215   8.268   3.368   3.731
55283W        W19216  23.570  22.056   2.215
55284W        W19217   1.941  39.040   2.275
55285W        W19218  36.930  34.877   1.789
55286W        W19219  16.288  33.620   1.224
55287W        W19220  41.038  11.659  13.821
55288W        W19221   4.848   1.293  11.119
55289W        W19222  21.569  24.107  13.378
55290W        W19223   0.778  24.017   4.740
55291W        W19224  18.283  13.768  10.934
55292W        W19225  27.990  22.581   2.851
55293W        W19226  35.463  29.049  14.975
55294W        W19227   9.313   7.793  14.476
55295W        W19228  19.198   7.314  12.047
55296W        W19229  44.966  32.047   1.843
55297W        W19230  23.134  31.411   2.362
55298W        W19231  41.944  31.442  11.074
55299W        W19232  39.464  17.802   4.817
55300W        W19233  16.236  12.268  10.540
55301W        W19234  19.220  39.837  11.389
55302W        W19235   6.850   7.378  12.025
55303W        W19236   0.877  15.301  13.930
55304W        W19237  21.718   4.784   2.715
55305W        W19238  44.896  36.870   9.924
55306W        W19239  21.259  12.842   3.244
55307W        W19240   2.320  33.384  14.957
55308W        W19241  33.543  12.297   1.782
55309W        W19242  31.038  18.783  14.952
55310W        W19243  11.736  44.942  12.471
55311W        W19244  29.595  37.920  10.580
55312W        W19245   1.412  18.563  10.498
55313W        W19246  37.844  27.649  14.276
55314W        W19247  27.165  19.758  13.401
55315W        W19248  35.431  16.228  12.872
55316W        W19249  10.145  30.595  13.538
55317W        W19250  39.832  22.742   2.346
55318W        W19251   2.389  27.946   3.290
55319W        W19252  35.439  23.200  12.879
55320W        W19253  24.563  11.664   4.177
55321W        W19254  27.047  33.009  14.922
55322W        W19255  14.626  28.036   0.292
55323W        W19256  29.157  24.487   3.798
55324W        W19257  14.671  24.981  13.512
55325W        W19258  31.468  13.667   0.261
55326W        W19259  22.631  13.178   1.704
55327W        W19260  39.052   5.193   4.620
55328W        W19261   7.402   8.176  14.809
55329W        W19262  22.585  37.069   2.272
55330W        W19263  31.000  42.498  14.393
55331W        W19264  13.329   5.823  14.455
55332W        W19265  39.331  21.245   1.707
55333W        W19266  26.486  15.708   4.796
55334W        W19267  24.126  29.031   4.264
55335W        W19268  12.229   2.841   3.292
55336W        W19269  17.266  22.618   4.205
55337W        W19270  21.573  16.788   3.318
55338W        W19271   1.267  11.294   2.685
55339W        W19272  23.732  23.017   4.158
55340W        W19273  25.045   1.939  11.522
55341W        W19274  42.352  29.605  12.042
55342W        W19275  10.643  33.447  13.859
55343W        W19276  22.581   6.689   2.293
55344W        W19277  15.713  43.869  13.045
55345W        W19278  24.145  18.270  12.930
55346W        W19279   6.258   5.916   2.372
55347W        W19280  34.955  15.135   0.361
55348W        W19281  27.050  10.778  12.531
55349W        W19282  16.188  22.109  12.875
55350W        W19283  32.625  15.676   4.257
55351W        W19284  39.018  20.170  11.542
55352W        W19285  40.346  34.893  11.011
55353W        W19286  43.901  29.655   2.337
55354W        W19287   5.326   9.795  14.953
55355W        W19288   0.250  31.551  10.486
55356W        W19289   0.338  32.140  14.484
55357W        W19290  30.613   1.784  12.000
55358W        W19291  34.461   0.933  12.910
55359W        W19292   7.867  18.052  14.953
55360W        W19293  41.012  22.166  11.377
55361W        W19294  32.614  34.387   2.715
55362W        W19295  40.820  19.672  12.926
55363W        W19296  16.637  21.161   1.859
55364W        W19297  24.720  10.822   1.397
55365W        W19298  28.171  10.864  14.893
55366W        W19299  19.076  22.176  12.093
55367W        W19300  30.494  19.581   2.260
55368W        W19301  17.103  26.979  11.972
55369W        W19302  29.536   3.225   1.337
55370W        W19303  25.186  18.706   2.347
55371W        W19304  13.832  12.279   1.807
55372W        W19305  21.749   8.243   2.411
55373W        W19306  12.743  43.984  13.414
55374W        W19307  32.632  11.182  14.424
55375W        W19308  24.489  27.181   0.813
55376W        W19309  23.690  20.267   4.210
55377W        W19310   5.907  15.715   3.751
55378W        W19311   1.474  14.612   3.733
55379W        W19312  28.573   1.367  13.387
55380W        W19313  42.013  29.166  14.822
55381W        W19314  25.624  12.639  14.439
55382W        W19315  28.655  23.597   1.218
55383W        W19316   1.930   3.443  12.057
55384W        W19317   7.358  10.765   0.375
55385W        W19318  14.130  16.166   3.717
55386W        W19319  13.269  24.168   1.357
55387W        W19320  44.284  12.620   5.109
55388W        W19321  19.569   7.780  13.801
55389W        W19322  10.672  43.948   0.909
55390W        W19323   4.737  39.818   4.728
55391W        W19324  36.855   8.341   1.875
55392W        W19325  14.741  32.015  10.960
55393W        W19326  29.660  41.436   0.726
55394W        W19327  35.993  27.557  14.024
55395W        W19328  14.631  39.028  12.930
55396W        W19329  10.869  22.227   1.259
55397W        W19330  15.674  38.862  13.017
55398W        W19331  10.345  33.902  13.349
55399W        W19332  23.049  32.546   3.660
55400W        W19333  42.924   6.394   4.300
55401W        W19334  17.719   9.799  10.561
55402W        W19335  11.258  29.027  13.030
55403W        W19336   1.784  40.042  11.448
55404W        W19337   8.830  35.974   2.312
55405W        W19338   3.258   5.764   2.811
55406W        W19339  37.068  11.807   1.820
55407W        W19340  25.193  17.297  10.996
55408W        W19341  23.663   3.410  11.555
55409W        W19342  18.145   8.874  12.955
55410W        W19343  11.715  39.370   0.897
55411W        W19344  41.476  36.585   4.207
55412W        W19345  12.164  39.359   3.249
55413W        W19346  15.130  38.847  11.005
55414W        W19347  12.275  16.704  11.123
55415W        W19348   5.904  27.993   3.769
55416W        W19349  16.101  39.831  10.614
55417W        W19350  38.382  26.115   0.826
55418W        W19351  23.602  26.161   4.205
55419W        W19352   1.440  10.209   3.296
55420W        W19353  10.383  22.052  14.935
55421W        W19354   5.235   4.393   1.325
55422W        W19355  17.635   5.766  14.825
55423W        W19356  35.475  28.437   1.225
55424W        W19357  12.763  34.023  14.441
55425W        W19358  34.953  21.115  12.020
55426W        W19359   5.278  30.478  13.999
55427W        W19360  41.998  14.662  14.026
55428W        W19361  32.615  41.952   4.313
55429W        W19362   6.221  29.637  12.560
55430W        W19363   1.262  32.032   0.330
55431W        W19364  27.603  27.096  11.043
55432W        W19365  38.410  42.888  12.014
55433W        W19366  19.573  13.336  13.998
55434W        W19367  18.617  14.333  10.135
55435W        W19368  42.979  14.251  11.523
55436W        W19369   2.242  37.578   1.833
55437W        W19370  36.557  33.563   0.252
55438W        W19371  43.357  42.913  13.414
55439W        W19372   9.212  12.786   1.239
55440W        W19373  25.471   8.268  11.084
55441W        W19374  14.227  14.185   4.209
55442W        W19375   1.326   8.658  14.376
55443W        W19376  25.503  28.059   0.914
55444W        W19377  38.982  18.100  13.888
55445W        W19378  17.689  13.749   4.648
55446W        W19379  30.510  16.074  13.489
55447W        W19380  33.541   8.235   4.763
55448W        W19381   4.429  22.199  13.000
55449W        W19382  41.971  10.240  13.501
55450W        W19383  16.797  42.363   1.245
55451W        W19384  44.907   2.241   3.781
55452W        W19385   6.256  11.318  13.506
55453W        W19386   7.279  30.122   1.354
55454W        W19387  10.753   2.781   1.263
55455W        W19388  37.010   8.378   1.326
55456W        W19389  39.018   7.227   1.434
55457W        W19390   4.889   3.907   2.803
55458W        W19391   5.785  34.041  13.313
55459W        W19392  16.746   0.373  14.965
55460W        W19393  15.651   8.684  14.853
55461W        W19394  14.807  25.149   0.784
55462W        W19395  10.264  13.266  11.949
55463W        W19396  44.498  15.810   0.895
55464W        W19397  18.720  18.685  13.414
55465W        W19398  43.322  35.476  11.115
55466W        W19399  11.156   2.803  10.566
55467W        W19400   4.861  30.104  12.014
55468W        W19401  39.535  31.533  13.014
55469W        W19402  26.978  20.194   4.818
55470W        W19403   2.280  36.063   3.337
55471W        W19404   2.326  18.728  10.913
55472W        W19405  11.315  14.675  14.946
55473W        W19406  30.567  41.527  12.086
55474W        W19407  30.913  20.073  14.506
55475W        W19408   4.319  16.610  12.088
55476W        W19409  34.448  31.635  13.000
55477W        W19410  15.636  17.191   3.658
55478W        W19411  12.169  43.862  11.891
55479W        W19412  32.468  25.045   3.723
55480W        W19413  10.329   1.250  12.829
55481W        W19414  16.106  10.329  13.520
55482W        W19415   1.775  41.797   2.772
55483W        W19416  30.033  29.092  12.569
55484W        W19417  12.845  19.092   1.377
55485W        W19418  41.895  27.461  11.054
55486W        W19419   0.915   6.903  11.460
55487W        W19420  22.191  20.710   2.748
55488W        W19421  14.277   1.897  14.347
55489W        W19422  25.002  24.025   2.846
55490W        W19423  25.690   4.735  14.913
55491W        W19424  30.123  23.016   3.720
55492W        W19425  43.991   4.716   2.825
55493W        W19426  33.065  32.942   4.722
55494W        W19427   0.961   5.395  11.015
55495W        W19428  41.031  27.689   3.256
55496W        W19429  40.489   0.398   2.895
55497W        W19430   4.911   9.268   1.819
55498W        W19431  35.857  12.190   3.239
55499W        W19432   7.823  28.605   0.779
55500W        W19433  40.003  29.081  11.516
55501W        W19434  17.097  14.303   0.816
55502W        W19435  23.613   6.338   2.883
55503W        W19436  28.148  39.406  14.959
55504W        W19437   4.915  44.400  10.520
55505W        W19438   4.724  24.554  12.516
55506W        W19439  16.693  18.055  10.933
55507W        W19440   2.388   1.418  11.095
55508W        W19441   0.799  18.230   2.274
55509W        W19442  40.877   1.275   3.744
55510W        W19443  36.090  44.310   0.354
55511W        W19444  15.140   3.883   2.833
55512W        W19445   6.770  18.291   0.252
55513W        W19446  21.641   9.272  11.969
55514W        W19447  29.588  43.819  12.341
55515W        W19448  19.113  19.258  14.419
55516W        W19449  22.069  30.940   3.792
55517W        W19450  29.047   6.340  11.880
55518W        W19451   7.823  13.297  12.953
55519W        W19452  38.514  35.978  10.557
55520W        W19453  21.638   8.345   4.649
55521W        W19454  22.737  15.763   2.695
55522W        W19455  20.693   6.256  10.634
55523W        W19456  25.209  39.544  13.872
55524W        W19457  16.213  23.206  14.915
55525W        W19458  12.310   4.722   1.709
55526W        W19459  10.289  32.926   0.248
55527W        W19460  44.795  44.465  14.851
55528W        W19461  38.467   2.942  13.334
55529W        W19462  17.589  38.883   0.403
55530W        W19463  23.017  14.311   5.211
55531W        W19464   3.724  26.671  11.984
55532W        W19465  40.383  38.975   3.338
55533W        W19466  24.719  20.613   2.383
55534W        W19467  35.051  24.569   4.714
55535W        W19468  23.174  12.833   2.310
55536W        W19469   0.780   6.284   1.397
55537W        W19470   1.287  11.371  14.022
55538W        W19471  29.940  33.570   1.696
55539W        W19472  15.669  16.714   4.665
55540W        W19473   3.384  30.921  13.450
55541W        W19474  14.160  32.600  11.493
55542W        W19475  39.818  19.110  10.921
55543W        W19476   0.896  17.304   1.305
55544W        W19477  17.583  23.532   3.804
55545W        W19478   6.277   9.770  11.447
55546W        W19479  32.908   0.929   3.755
55547W        W19480  33.481  34.576   2.240
55548W        W19481  31.109  34.549  13.892
55549W        W19482  10.821  38.071  11.029
55550W        W19483  26.543  12.188  12.974
55551W        W19484  23.570  24.667   1.774
55552W        W19485  23.183  33.985   3.689
55553W        W19486  21.145  31.107  11.377
55554W        W19487   9.764  34.009  14.761
55555W        W19488  10.640   6.253  13.859
55556W        W19489   3.883  33.592   4.200
55557W        W19490  31.015  21.033   5.193
55558W        W19491  22.210  31.556   4.734
55559W        W19492   7.718  23.589   3.815
55560W        W19493   8.781  35.903  11.915
55561W        W19494  12.138  39.823   2.342
55562W        W19495  26.578  26.655   0.351
55563W        W19496  23.120  21.646   3.198
55564W        W19497   6.363  17.616   0.945
55565W        W19498  10.274  24.136   3.833
55566W        W19499  41.962   6.854  11.062
55567W        W19500  38.885  19.065  13.845
55568W        W19501  15.790  28.073  14.842
55569W        W19502   9.288  24.578  11.533
55570W        W19503  28.601  36.929  14.357
55571W        W19504  13.807  17.125  10.542
55572W        W19505  13.700  29.024   0.305
55573W        W19506   9.320  15.127  14.355
55574W        W19507   5.335  30.658  14.312
55575W        W19508  28.632  13.787   2.744
55576W        W19509  27.097  21.166   0.393
55577W        W19510  36.991  37.517   4.813
55578W        W19511  26.961  23.140  12.523
55579W        W19512   7.218   0.829  12.953
55580W        W19513  43.012   3.285  11.418
55581W        W19514  32.015  24.228   1.289
55582W        W19515  13.659  26.590   2.183
55583W        W19516  15.179   3.444   2.372
55584W        W19517   0.313   2.434  11.016
55585W        W19518  10.281  15.726   3.311
55586W        W19519  41.433  31.623  11.902
55587W        W19520   4.265  36.899   4.712
55588W        W19521  20.068   6.751  10.935
55589W        W19522  31.115  27.040  11.432
55590W        W19523  16.581   4.774  12.936
55591W        W19524   5.730  23.997   1.350
55592W        W19525  23.084  21.133  14.438
55593W        W19526  21.159  32.391   0.741
55594W        W19527   7.826  14.094   1.885
55595W        W19528  41.517   8.163  12.898
55596W        W19529  21.060  15.132   5.319
55597W        W19530  17.633   4.403  11.909
55598W        W19531  28.119   4.303   4.295
55599W        W19532  15.204  15.283   0.754
55600W        W19533  28.562  43.852  12.881
55601W        W19534  38.410  21.613  14.338
55602W        W19535  35.040  29.560   1.934
55603W        W19536  18.200  15.757  10.446
55604W        W19537  20.703  22.570   4.304
55605W        W19538  17.219  38.342  13.047
55606W        W19539  33.098  12.749  10.464
55607W        W19540   3.903  16.193  11.064
55608W        W19541  34.969  15.612  14.339
55609W        W19542  37.956   8.231   0.381
55610W        W19543  25.201  21.673  12.409
55611W        W19544   2.288  34.881  10.458
55612W        W19545   9.752  31.917  10.585
55613W        W19546  20.715  42.343  14.349
55614W        W19547  23.623  17.105  11.537
55615W        W19548   7.758  36.060   0.469
55616W        W19549  18.096  43.842   3.799
55617W        W19550  17.200  11.827   4.620
55618W        W19551  32.522  35.865   5.176
55619W        W19552  32.916  22.212  11.546
55620W        W19553  13.772  44.324   0.464
55621W        W19554  16.079  32.036  10.023
55622W        W19555  28.980  20.733  11.551
55623W        W19556  12.842   1.420  14.934
55624W        W19557  22.577   5.795   1.763
55625W        W19558  16.168   3.753  13.501
55626W        W19559   9.710  16.772   0.839
55627W        W19560   8.173   4.810   3.862
55628W        W19561  40.310  36.936   2.872
55629W        W19562  26.033   8.210   3.766
55630W        W19563  14.690  24.113  11.528
55631W        W19564  13.152  38.325   4.353
55632W        W19565  27.948   8.809  12.418
55633W        W19566  40.439  34.959   1.382
55634W        W19567   6.245  41.460   0.907
55635W        W19568  21.626  27.114  10.079
55636W        W19569   0.949   5.369   3.269
55637W        W19570  22.666  12.718  10.528
55638W        W19571  10.275  14.817  11.980
55639W        W19572  40.545  28.505  13.308
55640W        W19573   4.321   2.744   4.828
55641W        W19574  12.144  20.154   3.353
55642W        W19575  42.956   0.455   3.776
55643W        W19576   9.817  29.948  10.566
55644W        W19577  41.882  16.232   4.149
55645W        W19578  15.609   1.882   3.779
55646W        W19579  18.655  13.307  13.942
55647W        W19580   2.405  44.312  12.983
55648W        W19581  27.038   0.842   0.482
55649W        W19582   5.200  37.890   1.799
55650W        W19583  26.491  38.373   2.256
55651W        W19584   4.836  39.814   3.763
55652W        W19585  33.520  44.762   4.763
55653W        W19586  22.167  27.022  13.028
55654W        W19587  25.485   7.295   2.663
55655W        W19588  36.880   0.861  10.555
55656W        W19589  26.631   4.912  10.967
55657W        W19590  15.140  32.464  13.413
55658W        W19591  38.996  25.681  14.947
55659W        W19592  16.153  19.101   1.790
55660W        W19593  40.376  27.458   0.801
55661W        W19594  11.281  39.491  12.888
55662W        W19595  32.469  11.803   0.365
55663W        W19596  22.018  30.532   0.424
55664W        W19597   6.759  20.572  14.401
55665W        W19598  25.977  22.549  11.404
55666W        W19599  19.223  28.123   0.793
55667W        W19600   4.835  32.932  14.843
55668W        W19601  19.243  41.458  10.523
55669W        W19602  26.083  29.627  13.482
55670W        W19603  23.680  33.897   1.333
55671W        W19604  12.272  16.738   3.347
55672W        W19605  23.710   1.417  11.957
55673W        W19606  42.287  28.495   0.471
55674W        W19607   2.364  36.476   3.856
55675W        W19608  33.085  18.581  14.957
55676W        W19609  38.349  22.118  10.945
55677W        W19610  41.529   8.874   0.848
55678W        W19611  25.104  15.098  11.987
55679W        W19612  14.134   6.183   1.240
55680W        W19613  39.938  30.113  12.406
55681W        W19614   0.451  33.962  12.929
55682W        W19615  28.629  27.476   0.803
55683W        W19616  29.518  10.738  11.430
55684W        W19617  42.457  44.504  13.484
55685W        W19618  10.237  26.500  11.129
55686W        W19619  33.042  14.776  14.427
55687W        W19620   6.338  40.484  11.994
55688W        W19621   4.722  30.079   0.827
55689W        W19622  35.934  22.691  13.326
55690W        W19623  17.285  20.184  12.474
55691W        W19624  10.838  36.958  13.827
55692W        W19625  44.866   8.208  11.966
55693W        W19626  36.884  38.398   4.819
55694W        W19627   2.389  18.664  14.999
55695W        W19628  32.530   8.810  11.101
55696W        W19629  43.785  34.048  13.333
55697W        W19630  36.446   8.680   3.281
55698W        W19631   5.766  42.412  11.460
55699W        W19632  10.333  31.622   3.351
55700W        W19633  12.626  12.187   2.800
55701W        W19634   1.898   8.671  11.609
55702W        W19635  44.290  33.392   2.240
55703W        W19636  32.890  30.954  12.366
55704W        W19637  26.648   0.383  14.402
55705W        W19638  13.712  15.209   1.431
55706W        W19639  31.528  41.003  12.554
55707W        W19640  30.441  18.179   2.803
55708W        W19641  42.325  39.889   9.995
55709W        W19642  10.363  38.864   0.795
55710W        W19643  29.081  30.140  14.856
55711W        W19644  10.216  39.007   1.360
55712W        W19645   6.320  40.429  14.385
55713W        W19646  10.815   3.919  13.041
55714W        W19647  35.024   8.213   2.696
55715W        W19648  26.964   4.756  12.893
55716W        W19649  42.478  31.524  13.001
55717W        W19650   1.253  11.637   1.804
55718W        W19651   1.394  24.549  10.422
55719W        W19652  12.733  25.479   4.734
55720W        W19653  19.134  44.999   0.862
55721W        W19654  20.667  24.102  14.321
55722W        W19655   1.239  39.503   4.302
55723W        W19656   2.748  44.792  10.970
55724W        W19657  32.591  28.968  10.485
55725W        W19658  26.158   5.765   4.327
55726W        W19659  42.454  16.618   2.834
55727W        W19660   5.907  23.090   0.283
55728W        W19661  20.666  44.490  13.325
55729W        W19662  42.894  16.263   2.335
55730W        W19663  21.574  24.718  11.411
55731W        W19664  35.954  34.020  10.503
55732W        W19665  44.431  14.711  13.967
55733W        W19666  17.259  23.161  12.444
55734W        W19667  39.927  15.259   4.255
55735W        W19668  22.732  35.052   3.856
55736W        W19669  31.032  28.638  14.305
55737W        W19670  20.064  32.022  12.555
55738W        W19671  43.771  24.096  13.000
55739W        W19672  32.012  41.934   5.249
55740W        W19673  40.540  35.020  11.558
55741W        W19674   4.218   0.461   1.372
55742W        W19675   5.815   5.268   0.349
55743W        W19676  16.141  11.325   3.226
55744W        W19677  44.479  19.643   4.720
55745W        W19678  18.716   6.839  12.924
55746W        W19679  44.395  11.751  12.953
55747W        W19680  28.184   3.773   4.154
55748W        W19681   7.394   7.717   2.266
55749W        W19682   1.286  33.490  10.997
55750W        W19683  37.461   7.271   4.611
55751W        W19684   5.314  42.842   0.892
55752W        W19685  28.642  38.447   4.707
55753W        W19686  25.645  15.630  11.598
55754W        W19687  22.721  20.226   2.200
55755W        W19688   6.381   8.270   1.851
55756W        W19689  41.317  17.184   2.802
55757W        W19690  39.920  40.962   3.215
55758W        W19691   3.830  30.487   1.732
55759W        W19692  22.666  31.601  13.381
55760W        W19693  42.436   8.197   1.333
55761W        W19694   6.294  15.650  12.500
55762W        W19695  37.889  16.628  14.365
55763W        W19696   5.337  37.905   1.294
55764W        W19697  37.959  34.970   3.799
55765W        W19698  40.477   6.191   3.325
55766W        W19699  44.858  17.783  11.431
55767W        W19700   8.724  27.641  10.973
55768W        W19701  25.590  11.708   4.656
55769W        W19702  22.117   8.719  13.494
55770W        W19703  36.561  23.230   1.850
55771W        W19704  23.156  12.785  13.460
55772W        W19705  26.556  39.816  10.963
55773W        W19706  23.177  27.521  11.903
55774W        W19707   1.285  12.234   0.316
55775W        W19708  13.821  32.056   2.386
55776W        W19709  14.618  39.904   2.303
55777W        W19710  20.611  20.141  10.518
55778W        W19711   7.802  36.550   3.168
55779W        W19712  24.075  12.757  13.060
55780W        W19713  12.201  11.296   3.186
55781W        W19714   7.702  29.151  10.049
55782W        W19715  29.455  21.117   2.848
55783W        W19716  43.376   3.792   0.455
55784W        W19717  26.077  32.391   1.871
55785W        W19718  29.926  28.115   1.418
55786W        W19719  27.027  23.055  12.085
55787W        W19720  25.174  13.342   3.182
55788W        W19721   4.862  24.073   5.275
55789W        W19722  10.684  39.877   4.836
55790W        W19723  24.597  22.572   0.863
55791W        W19724  34.092  10.283   1.445
55792W        W19725   1.840   7.294   1.848
55793W        W19726  34.095   9.658  11.596
55794W        W19727  24.057  19.264  14.853
55795W        W19728  13.232  28.649   2.356
55796W        W19729  32.976  10.262   2.333
55797W        W19730  19.582  36.011  11.435
55798W        W19731  41.314  21.217  10.040
55799W        W19732  17.286  16.076  13.792
55800W        W19733  28.498  36.899   3.339
55801W        W19734  15.662  42.947  14.277
55802W        W19735  32.138  24.509  13.313
55803W        W19736  38.993  33.558  10.959
55804W        W19737  16.186  15.174  12.450
55805W        W19738  30.929  33.557   4.158
55806W        W19739  14.826  28.065   2.268
55807W        W19740  42.824  40.466  11.879
55808W        W19741  29.570  15.124  11.463
55809W        W19742  40.412  42.862  11.113
55810W        W19743  15.275   2.232   0.462
55811W        W19744  13.302  11.275   0.868
55812W        W19745   8.264  14.783   0.419
55813W        W19746  13.138  43.271  12.063
55814W        W19747  43.854  42.472   1.755
55815W        W19748  38.827   6.888  14.388
55816W        W19749  34.895   8.740  11.536
55817W        W19750   9.783  16.181   2.322
55818W        W19751  43.801   5.783   0.444
55819W        W19752  17.635   9.279  14.445
55820W        W19753  39.007  12.139  11.878
55821W        W19754   9.888  24.683  14.797
55822W        W19755  33.526  13.180  14.423
55823W        W19756  14.797  41.422   4.810
55824W        W19757  40.465  22.129   4.341
55825W        W19758  39.366   5.810  11.978
55826W        W19759  11.310   6.277  10.452
55827W        W19760  20.570  28.181   1.910
55828W        W19761  31.418  18.204  12.459
55829W        W19762  36.033  25.982   2.764
55830W        W19763   0.368  30.479   3.345
55831W        W19764  27.113   2.327   2.410
55832W        W19765  20.637  39.393   0.263
55833W        W19766  15.146  36.386   1.401
55834W        W19767  21.202  29.464  14.464
55835W        W19768  34.512  43.270  12.921
55836W        W19769  22.183  11.139  14.350
55837W        W19770  32.990  19.196  13.409
55838W        W19771  12.690  36.922   0.879
55839W        W19772  14.607  27.677  13.024
55840W        W19773  12.184  42.314  11.128
55841W        W19774  41.511  41.369  14.913
55842W        W19775  44.877  38.429  11.972
55843W        W19776  20.097  28.943  13.935
55844W        W19777  36.067   3.934  13.873
55845W        W19778  34.559  15.291  13.815
55846W        W19779   0.436  13.602  13.924
55847W        W19780   8.253  13.606   1.824
55848W        W19781   5.262  42.383   4.638
55849W        W19782  24.097  37.082   0.771
55850W        W19783  42.331  16.248   1.334
55851W        W19784   4.301  44.464   3.699
55852W        W19785  13.644  28.663  12.358
55853W        W19786  10.169  29.642   5.190
55854W        W19787  33.495  44.937  11.911
55855W        W19788  16.185  20.041   3.235
55856W        W19789   7.724   5.824  12.963
55857W        W19790  25.528  30.117   0.332
55858W        W19791   5.900  35.051  11.006
55859W        W19792  39.879  33.514   1.315
55860W        W19793  40.462   2.385  10.946
55861W        W19794  40.999  20.208   0.909
55862W        W19795  40.854  32.094  14.856
55863W        W19796   3.922   3.938   9.593
55864W        W19797  11.197  10.265   4.140
55865W        W19798  26.688  39.429  13.848
55866W        W19799  27.509  28.609  11.908
55867W        W19800  41.804   6.756   2.293
55868W        W19801  43.492  12.763  11.421
55869W        W19802  14.657  28.576  14.516
55870W        W19803   2.724  10.703  10.482
55871W        W19804  35.083   8.319  13.311
55872W        W19805  42.866   1.774  14.001
55873W        W19806   1.475  13.202  12.883
55874W        W19807   4.254  31.024  14.487
55875W        W19808  26.201  23.552  11.441
55876W        W19809  43.396   7.276  13.018
55877W        W19810  27.160  16.679   4.149
55878W        W19811  16.608  18.770  10.075
55879W        W19812  11.677  30.493  10.407
55880W        W19813  33.004  23.987  11.590
55881W        W19814  30.431  20.076   3.194
55882W        W19815  35.584  11.855  12.389
55883W        W19816   2.850   8.266   4.748
55884W        W19817  41.453  14.319   0.462
55885W        W19818  14.161  37.837   3.169
55886W        W19819  26.116   3.248  12.446
55887W        W19820  25.565   9.302   4.761
55888W        W19821  29.621   0.951   0.426
55889W        W19822  27.116  33.948   1.926
55890W        W19823   1.774  39.999   0.281
55891W        W19824  16.287  17.137   5.771
55892W        W19825  28.148   8.214  14.361
55893W        W19826  13.241  40.403  14.774
55894W        W19827   6.888  25.032   1.420
55895W        W19828  37.008  40.344   3.189
55896W        W19829  30.084  33.450  13.840
55897W        W19830   5.838  23.533   1.409
55898W        W19831   3.709  37.346   3.843
55899W        W19832   1.927  35.383   2.782
55900W        W19833  13.692  39.065  11.940
55901W        W19834  21.078  19.130   2.709
55902W        W19835  17.297   7.340   3.819
55903W        W19836  10.871  23.074  10.440
55904W        W19837  20.688  39.863  13.851
55905W        W19838   5.408   8.680  14.376
55906W        W19839  40.010  36.928  11.906
55907W        W19840   6.411  31.587   3.736
55908W        W19841   8.785  30.017  11.433
55909W        W19842  38.983  39.361   4.767
55910W        W19843   3.780  37.957  14.973
55911W        W19844  19.148  33.444   0.383
55912W        W19845  28.023  35.853  13.536
55913W        W19846  30.614  24.503   4.755
55914W        W19847  23.048  22.013   4.737
55915W        W19848  17.689   2.234   3.763
55916W        W19849  13.737  21.046   4.765
55917W        W19850  43.384  37.878   2.196
55918W        W19851  17.176  39.993   0.954
55919W        W19852  31.051  35.546  13.438
55920W        W19853  10.717  20.185  14.981
55921W        W19854   2.783  33.453  13.317
55922W        W19855  16.125  16.767   5.237
55923W        W19856  20.176  18.163  12.061
55924W        W19857  26.463  27.509  13.422
55925W        W19858  44.967  31.041  14.797
55926W        W19859  11.850  12.658   2.867
55927W        W19860  10.299  22.723  12.024
55928W        W19861  40.047  38.481   0.845
55929W        W19862  37.557   6.734  13.856
55930W        W19863  29.592  28.492  13.321
55931W        W19864  35.384  15.099  14.996
55932W        W19865  26.524   5.383  13.543
55933W        W19866  24.197  28.666  12.516
55934W        W19867  16.101  24.057  12.514
55935W        W19868  31.127  10.218   1.813
55936W        W19869  32.936  20.609  11.488
55937W        W19870  44.342  35.903  10.617
55938W        W19871  16.299  19.673   4.837
55939W        W19872  20.552  30.541  13.511
55940W        W19873  36.950  20.535  12.884
55941W        W19874  22.018  31.564   2.717
55942W        W19875   7.740   9.736   1.251
55943W        W19876  25.703   4.900  13.856
55944W        W19877  34.934  34.393   1.309
55945W        W19878  43.943  19.695  10.941
55946W        W19879  39.913  27.173   4.234
55947W        W19880  21.672  32.078  12.366
55948W        W19881  29.064  12.338   2.868
55949W        W19882  13.719  14.263   2.369
55950W        W19883  23.606  38.822  11.013
55951W        W19884  16.779  34.595   2.787
55952W        W19885  16.297  13.220   1.340
55953W        W19886  16.658  40.861   3.215
55954W        W19887  12.336  34.055   4.803
55955W        W19888  28.971  33.942   0.916
55956W        W19889  20.074  44.312   4.830
55957W        W19890  15.233  38.033   9.471
55958W        W19891  20.540  26.616   5.704
55959W        W19892  32.091  31.520  10.995
55960W        W19893  36.460  20.137  13.849
55961W        W19894  17.197   4.844   5.222
55962W        W19895  28.436  30.988  11.447
55963W        W19896   8.747  16.124   2.762
55964W        W19897  31.029  32.107  12.354
55965W        W19898  18.722  20.658   2.842
55966W        W19899  24.724  17.306  10.921
55967W        W19900  22.656  42.031   1.268
55968W        W19901  34.482  29.610   0.746
55969W        W19902   7.303  40.381   0.321
55970W        W19903   1.295  12.810  12.853
55971W        W19904   3.297  14.698  11.421
55972W        W19905  34.975  38.024  12.425
55973W        W19906  36.413  19.573   0.932
55974W        W19907   3.423  18.249   1.240
55975W        W19908  34.116   5.759  11.421
55976W        W19909  25.475  34.105   2.695
55977W        W19910  33.613  16.584   2.268
55978W        W19911  28.957   9.800  12.542
55979W        W19912  13.242  16.116  13.504
55980W        W19913  40.892  27.559  12.524
55981W        W19914  36.486  30.069   0.384
55982W        W19915  33.441  20.527  13.861
55983W        W19916   5.829  10.722   4.265
55984W        W19917   9.158   7.207   0.360
55985W        W19918  19.546  34.502   4.304
55986W        W19919  43.325  44.342  14.758
55987W        W19920  23.704  23.645   2.409
55988W        W19921  43.503  27.172   1.781
55989W        W19922  28.563  40.442  10.534
55990W        W19923   9.377  10.331   4.204
55991W        W19924   7.226   9.667  12.452
55992W        W19925  15.136  43.338  10.516
55993W        W19926  43.363  32.445  11.970
55994W        W19927  38.439  27.568   3.830
55995W        W19928  35.365  14.726   4.746
55996W        W19929  42.969  11.328   9.968
55997W        W19930  12.810  17.078  10.916
55998W        W19931  19.694  34.008   1.857
55999W        W19932   4.798  11.712   0.928
56000W        W19933  16.653  35.402   2.379
56001W        W19934  43.494  31.486   3.848
56002W        W19935  44.977   0.361  14.844
56003W        W19936  41.416   3.916   1.751
56004W        W19937  14.268   0.755  14.423
56005W        W19938  26.125  12.217   1.883
56006W        W19939  44.869  10.660   2.800
56007W        W19940  33.521  14.132   2.801
56008W        W19941  13.754  15.782   3.664
56009W        W19942  12.326  22.218   1.751
56010W        W19943  38.847  25.184   4.183
56011W        W19944  21.038  18.597   3.364
56012W        W19945  37.043  11.338   3.376
56013W        W19946  12.667  18.682  14.516
56014W        W19947   2.938   6.907  13.341
56015W        W19948   6.233  39.888   2.837
56016W        W19949  33.020  28.523   0.273
56017W        W19950   5.834  20.044   3.342
56018W        W19951   2.281   7.815  13.934
56019W        W19952  37.506  17.794   4.618
56020W        W19953   4.322  29.990  14.446
56021W        W19954  12.791  10.791   4.189
56022W        W19955   0.461  26.561   4.731
56023W        W19956  10.258  43.839   3.729
56024W        W19957   0.986  42.416   0.320
56025W        W19958  13.740   8.351  12.847
56026W        W19959  32.436  33.112   2.762
56027W        W19960  19.762   1.311   1.425
56028W        W19961  35.585  18.653   3.291
56029W        W19962  14.311  22.041   3.363
56030W        W19963  41.443  31.470  11.493
56031W        W19964  42.377  29.058   3.857
56032W        W19965  41.913  43.299  14.914
56033W        W19966  13.774  42.476  11.086
56034W        W19967  33.429  27.128   1.436
56035W        W19968  32.510  38.487   2.739
56036W        W19969  15.303  34.489   1.699
56037W        W19970  41.906   7.292   2.309
56038W        W19971  16.602   8.359  11.014
56039W        W19972  35.033  23.649   2.240
56040W        W19973  40.445  13.784  10.637
56041W        W19974  27.537   4.209   4.772
56042W        W19975   4.447  33.618   2.820
56043W        W19976  44.864  32.635  14.399
56044W        W19977  25.700  25.680   4.187
56045W        W19978  23.069  32.009   2.862
56046W        W19979  13.159   7.884   4.824
56047W        W19980   8.214  19.231   4.610
56048W        W19981   4.224  32.934   4.818
56049W        W19982  39.427  13.215   1.213
56050W        W19983  23.697  27.964   2.334
56051W        W19984   7.264  39.334  14.032
56052W        W19985  34.095   6.850  11.000
56053W        W19986  11.648   5.209   3.149
56054W        W19987   6.822  13.654   4.693
56055W        W19988  17.251  11.832   0.317
56056W        W19989  15.113  31.082   3.284
56057W        W19990   5.769  39.891  12.030
56058W        W19991  16.306  17.594   2.777
56059W        W19992  39.960  10.340   2.366
56060W        W19993  11.621  33.941  14.878
56061W        W19994  11.296  38.880   4.782
56062W        W19995   2.930  15.676  14.869
56063W        W19996   1.467   8.694   0.893
56064W        W19997  20.086  18.265   0.894
56065W        W19998  42.026   2.844  10.990
56066W        W19999  41.848   0.795   0.343
56067W        W20000  12.225  26.955   4.198
56068W        W20001  11.832  32.974  14.465
56069W        W20002  33.985  26.590   0.372
56070W        W20003  16.677  40.034  13.422
56071W        W20004  23.085  42.402  12.504
56072W        W20005   1.444  37.946   3.323
56073W        W20006  16.584  17.229   0.291
56074W        W20007  26.191  34.953   0.824
56075W        W20008  24.151  27.002   0.344
56076W        W20009  12.193  34.942   4.752
56077W        W20010  18.644  26.135  14.002
56078W        W20011  31.057  12.823   2.179
56079W        W20012  32.081  15.135  13.397
56080W        W20013   4.707  22.226   4.329
56081W        W20014  43.924  39.949  12.036
56082W        W20015  15.646  25.105  13.384
56083W        W20016  22.701  29.083  10.481
56084W        W20017  38.407  27.099   1.271
56085W        W20018  14.749  24.107  13.864
56086W        W20019  22.149  26.076  14.375
56087W        W20020  20.040  27.065   1.781
56088W        W20021  32.421  31.406  11.109
56089W        W20022  42.341   1.398   2.383
56090W        W20023  14.177  44.860  13.338
56091W        W20024  16.142  13.220  13.054
56092W        W20025  22.705  32.105  14.973
56093W        W20026  29.611   5.815   1.834
56094W        W20027  25.051  11.701   3.857
56095W        W20028  39.939  33.033   0.791
56096W        W20029  11.141  35.437  12.834
56097W        W20030  17.678  34.070   4.322
56098W        W20031  32.489  26.612  12.401
56099W        W20032  21.537  22.218  11.525
56100W        W20033  29.994  22.026   1.795
56101W        W20034  11.231  26.623   2.903
56102W        W20035  37.967  41.401   2.790
56103W        W20036   8.182  32.524   1.749
56104W        W20037  31.430  15.316   1.734
56105W        W20038  22.024   2.944  10.512
56106W        W20039  15.681   6.366  13.913
56107W        W20040  17.574  34.576   1.696
56108W        W20041  38.995   6.288   2.192
56109W        W20042  36.895  44.809   1.721
56110W        W20043  32.098   2.859   2.230
56111W        W20044  35.557  28.987  14.378
56112W        W20045  35.550  30.527   3.680
56113W        W20046  12.303  14.818   0.831
56114W        W20047  22.011   9.355   0.299
56115W        W20048   4.260  25.567  12.893
56116W        W20049  33.959  10.293   4.683
56117W        W20050  19.764  17.750   4.118
56118W        W20051  11.730   1.456   3.320
56119W        W20052  13.836  26.961  10.529
56120W        W20053  20.112  32.890   3.302
56121W        W20054  32.109  13.333  12.546
56122W        W20055  27.129  10.212   0.919
56123W        W20056  43.804   1.314  11.894
56124W        W20057  13.782  38.959   3.743
56125W        W20058  40.942  19.553  14.470
56126W        W20059  30.518  32.552  12.002
56127W        W20060   5.350  37.442   1.303
56128W        W20061  18.645  40.040  12.856
56129W        W20062  38.002  19.047  14.769
56130W        W20063  40.321  17.257  11.418
56131W        W20064  40.389  14.094   0.431
56132W        W20065   4.207  44.298   3.251
56133W        W20066   8.708   0.887  14.450
56134W        W20067   6.402  36.904  13.507
56135W        W20068  16.250   0.788   1.782
56136W        W20069  21.747   9.655  10.969
56137W        W20070   4.231   5.352   1.337
56138W        W20071  36.493  15.226   1.288
56139W        W20072  36.389  29.648  14.986
56140W        W20073   5.253  29.454  11.599
56141W        W20074  21.172  35.417   0.771
56142W        W20075  18.245  38.051  11.570
56143W        W20076  14.703  34.546  10.084
56144W        W20077   1.739   4.382   3.162
56145W        W20078  12.207  41.395  13.970
56146W        W20079  35.911  15.747  11.859
56147W        W20080  22.170  33.992   1.903
56148W        W20081  39.965  37.947  12.878
56149W        W20082   4.874   7.292  12.922
56150W        W20083  44.279  18.271   4.233
56151W        W20084  17.573   4.308  11.444
56152W        W20085  30.648   4.704  14.300
56153W        W20086  28.440  24.682  13.417
56154W        W20087  36.487  42.444   3.180
56155W        W20088  31.538   4.251   3.230
56156W        W20089  21.242   5.790  11.904
56157W        W20090  40.907  27.533   0.912
56158W        W20091  33.442  25.551  13.489
56159W        W20092  26.101  23.653   4.787
56160W        W20093   8.334  22.200  13.470
56161W        W20094   0.276  38.969  13.447
56162W        W20095  24.094  34.909   2.773
56163W        W20096  31.086  35.876   3.766
56164W        W20097  22.550  16.089   3.333
56165W        W20098  21.213   7.739   3.841
56166W        W20099  29.457  28.509   0.773
56167W        W20100   8.737  13.627   3.244
56168W        W20101  22.704   8.682   3.344
56169W        W20102   3.746  36.007   0.945
56170W        W20103  30.143  29.599  10.476
56171W        W20104  33.061   9.744  12.921
56172W        W20105  39.994   0.474   2.186
56173W        W20106  41.308  11.783   1.734
56174W        W20107  22.686  34.477  11.088
56175W        W20108   4.891   3.337   4.325
56176W        W20109  44.815  29.927  13.534
56177W        W20110  10.348  38.007  13.807
56178W        W20111  15.156   3.949  14.512
56179W        W20112  43.512  10.383   3.313
56180W        W20113  16.626  22.183  12.001
56181W        W20114  25.181  15.153  11.027
56182W        W20115   0.864  36.476   0.242
56183W        W20116   8.790  42.331  13.456
56184W        W20117   0.314  37.459  12.542
56185W        W20118  33.131   4.781  10.531
56186W        W20119   2.915  43.912  11.530
56187W        W20120  30.481  39.937   0.320
56188W        W20121  25.004  11.802   1.830
56189W        W20122  18.637  32.032  13.530
56190W        W20123  21.749  20.268  14.905
56191W        W20124  35.874  15.744  14.897
56192W        W20125   6.767  40.532  12.850
56193W        W20126   4.327  16.662  13.949
56194W        W20127  41.487  40.840   2.310
56195W        W20128  31.042  28.513  12.497
56196W        W20129  23.133  24.548   0.917
56197W        W20130  27.193  28.095   1.725
56198W        W20131  27.998  30.476   4.348
56199W        W20132  30.959  39.374  11.575
56200W        W20133   8.844   1.754   4.286
56201W        W20134  35.482  36.374   1.292
56202W        W20135  21.200  13.627   2.400
56203W        W20136  27.669   1.363  12.062
56204W        W20137  13.318  34.099  12.907
56205W        W20138  30.159  13.621   1.844
56206W        W20139  19.278   4.328  11.506
56207W        W20140  14.667   7.293   2.244
56208W        W20141   6.347  14.757  11.551
56209W        W20142  21.223  42.926   3.805
56210W        W20143  12.270  44.495  10.090
56211W        W20144  23.999  44.777  14.902
56212W        W20145  27.491  32.054   2.693
56213W        W20146  29.650  29.634  11.950
56214W        W20147   8.337  26.546   4.646
56215W        W20148  42.796  28.179  11.951
56216W        W20149   0.475   5.909  11.017
56217W        W20150  18.726   4.782   1.696
56218W        W20151   8.276   2.804  13.544
56219W        W20152  44.335   3.890   3.762
56220W        W20153  12.687  23.173   2.769
56221W        W20154  23.710   7.716   1.720
56222W        W20155  26.497  39.821   3.691
56223W        W20156  27.504   6.358  11.501
56224W        W20157   8.402  39.033  10.929
56225W        W20158  18.107  14.138  12.580
56226W        W20159  40.945  24.044  13.992
56227W        W20160  10.800  34.585   3.298
56228W        W20161  42.354  35.593  11.962
56229W        W20162  40.049  37.523   1.319
56230W        W20163  42.886  35.452  13.028
56231W        W20164  22.208  18.647   3.663
56232W        W20165  11.351  42.815   0.779
56233W        W20166  12.806   9.247   1.429
56234W        W20167  34.526   0.475  11.431
56235W        W20168  24.583  39.977   4.186
56236W        W20169  39.394  31.477  12.557
56237W        W20170  32.486  42.855   2.672
56238W        W20171  38.514  24.090   1.321
56239W        W20172  39.913  14.727   2.254
56240W        W20173  36.063  43.502  14.849
56241W        W20174  25.649  30.008   2.377
56242W        W20175  11.817   3.391  14.343
56243W        W20176  33.125   2.247  13.896
56244W        W20177  30.095  10.200  11.864
56245W        W20178  20.166  27.690   0.774
56246W        W20179  24.026   7.261  11.390
56247W        W20180  42.502  21.628  12.455
56248W        W20181  20.269  22.607   4.289
56249W        W20182   2.434  36.408   3.256
56250W        W20183  38.555  33.931   2.885
56251W        W20184  18.662  36.456   1.928
56252W        W20185  18.552   0.291   3.375
56253W        W20186  11.678   3.264   3.674
56254W        W20187  10.805  24.572  13.888
56255W        W20188  30.013   0.320  11.975
56256W        W20189  18.570  34.966   3.782
56257W        W20190  19.226  24.229   2.865
56258W        W20191  16.253  31.411   2.843
56259W        W20192  43.766  31.098   4.681
56260W        W20193  42.517  33.009  13.540
56261W        W20194  25.185  27.050  14.356
56262W        W20195  23.122  35.461   4.245
56263W        W20196  34.938   1.368   2.327
56264W        W20197  24.512   7.291  11.404
56265W        W20198  32.012  10.369   0.413
56266W        W20199   3.887  17.629  12.352
56267W        W20200  39.902  43.301   2.198
56268W        W20201   9.669  24.986   0.246
56269W        W20202  20.715  43.271  12.482
56270W        W20203   1.935  26.066   4.302
56271W        W20204  28.475  22.680   3.268
56272W        W20205  37.345  21.040  11.898
56273W        W20206   0.288  12.197   1.441
56274W        W20207  15.162  30.659  14.837
56275W        W20208  27.170   7.773  11.538
56276W        W20209  16.165   5.268   0.872
56277W        W20210   8.393  35.564   2.745
56278W        W20211   4.863  32.088  10.513
56279W        W20212   8.871  14.685   2.862
56280W        W20213  11.679   8.334   0.279
56281W        W20214  14.334  13.640   1.216
56282W        W20215  15.276  22.690  13.859
56283W        W20216  14.329  21.234   1.268
56284W        W20217   4.732  20.125  12.351
56285W        W20218   4.412  26.618   5.306
56286W        W20219  16.142  41.886  12.504
56287W        W20220  40.467   4.816   3.325
56288W        W20221   9.862   9.705  14.434
56289W        W20222  43.450   1.926   4.735
56290W        W20223  20.057  27.580  13.793
56291W        W20224  12.275  12.202   0.369
56292W        W20225  44.760   9.257   2.360
56293W        W20226  32.007  28.664  12.418
56294W        W20227   8.251  38.462   4.615
56295W        W20228   4.347  41.298  13.486
56296W        W20229  29.072   0.352   0.308
56297W        W20230  38.540  22.709   0.442
56298W        W20231  26.138  23.076  14.404
56299W        W20232  39.427   4.324  11.400
56300W        W20233  21.657  20.612  14.405
56301W        W20234   3.277   5.695  14.764
56302W        W20235  24.001  37.419  11.428
56303W        W20236  14.829  11.302  11.936
56304W        W20237  21.582  28.941  13.314
56305W        W20238  43.358   8.212  13.053
56306W        W20239  17.619   6.868   0.320
56307W        W20240  31.427  20.590   0.791
56308W        W20241  38.361  28.615  11.517
56309W        W20242  43.348  31.536  11.481
56310W        W20243  18.253   7.905  10.943
56311W        W20244  41.039  29.542   2.872
56312W        W20245  25.198  23.528   3.784
56313W        W20246  24.221  30.483  11.446
56314W        W20247  38.531  43.858   2.299
56315W        W20248  35.052  21.261   3.666
56316W        W20249   2.867  30.075   3.841
56317W        W20250  42.302  14.228  11.859
56318W        W20251  44.488  26.572  12.082
56319W        W20252  16.118  39.553   2.764
56320W        W20253  40.813  35.044   2.724
56321W        W20254  23.685  33.390   4.136
56322W        W20255   7.830  38.868  12.845
56323W        W20256  19.760  33.478  14.986
56324W        W20257  26.038  34.582   2.866
56325W        W20258  11.250  13.115   4.320
56326W        W20259  36.056   8.748  12.867
56327W        W20260  23.165   3.370   0.778
56328W        W20261  29.930  23.195   4.655
56329W        W20262  15.233  38.054  11.416
56330W        W20263  17.748  11.710   0.250
56331W        W20264  28.091  16.133   4.149
56332W        W20265   4.704   9.380  13.358
56333W        W20266  23.059  26.085  10.538
56334W        W20267   6.325  15.607   3.309
56335W        W20268  17.777  18.582   5.238
56336W        W20269  31.031  32.528  14.917
56337W        W20270  36.001  14.154  10.619
56338W        W20271  41.349  15.757   0.454
56339W        W20272  11.355   5.234  14.332
56340W        W20273  13.326  43.874   1.902
56341W        W20274  27.621  23.492  11.563
56342W        W20275  21.648  40.385  14.778
56343W        W20276  39.328  11.782  11.902
56344W        W20277  13.619  19.696  13.982
56345W        W20278  19.166   8.816  10.891
56346W        W20279  29.107  30.511  12.944
56347W        W20280   4.738   2.353   4.224
56348W        W20281  33.487  37.347   0.804
56349W        W20282   6.907  34.930  11.417
56350W        W20283  27.667   9.800  11.611
56351W        W20284  33.466  24.134  13.383
56352W        W20285  17.731  12.302   3.158
56353W        W20286  25.037  41.459  10.982
56354W        W20287  30.018  24.668   0.757
56355W        W20288  23.021  25.673   3.820
56356W        W20289  34.558  41.792   4.766
56357W        W20290   7.221   2.372   3.863
56358W        W20291  25.215  41.355  13.477
56359W        W20292  21.524  20.262  14.342
56360W        W20293   7.397  22.616   2.829
56361W        W20294  13.309   3.783  11.465
56362W        W20295   3.730  41.359  10.961
56363W        W20296  30.647  19.580   2.716
56364W        W20297  26.654  20.719   2.720
56365W        W20298  22.165  42.445  12.543
56366W        W20299  41.963  42.517  13.485
56367W        W20300  12.361  32.557   3.740
56368W        W20301   0.493  39.394   3.669
56369W        W20302  18.636   1.362  14.330
56370W        W20303  16.717  31.152  13.792
56371W        W20304  26.007  26.653  10.995
56372W        W20305   8.335   0.748  11.542
56373W        W20306   3.397  15.822   2.320
56374W        W20307   4.913  16.668   1.764
56375W        W20308  15.283  26.036  13.016
56376W        W20309  36.023  24.194  13.386
56377W        W20310  42.914  28.162   1.428
56378W        W20311   5.245   9.733  13.392
56379W        W20312   3.361  41.444  13.371
56380W        W20313   1.289  16.602  13.989
56381W        W20314  20.256  18.295   4.642
56382W        W20315  23.617  42.422   4.354
56383W        W20316   4.251   4.887  11.942
56384W        W20317   1.784  11.792   4.337
56385W        W20318  23.722  34.514  11.919
56386W        W20319  42.319  29.131   2.903
56387W        W20320  41.441  44.464  14.809
56388W        W20321  23.584  41.837   3.263
56389W        W20322   8.320  19.618   0.285
56390W        W20323  40.953   4.849  10.537
56391W        W20324  37.987  40.460  12.056
56392W        W20325   2.771  34.091  11.581
56393W        W20326  41.444  42.514  11.047
56394W        W20327  11.650  27.672  12.422
56395W        W20328  44.326  32.003  11.083
56396W        W20329   2.806  29.943   4.308
56397W        W20330  27.681  27.003   4.836
56398W        W20331  42.910  25.645   5.173
56399W        W20332   5.723   4.376   0.275
56400W        W20333  31.613  37.955  10.431
56401W        W20334  29.645  36.556  12.872
56402W        W20335  26.984  36.029   3.780
56403W        W20336  28.026   1.810  14.833
56404W        W20337  22.506  33.062   3.666
56405W        W20338   1.330  15.737  11.897
56406W        W20339   3.439   8.322   4.132
56407W        W20340  16.715  12.196  10.936
56408W        W20341  24.689  40.461   0.361
56409W        W20342  18.668  42.991  13.880
56410W        W20343  35.084   8.889  10.490
56411W        W20344  43.307  28.633  14.495
56412W        W20345   0.395   4.841  11.941
56413W        W20346  14.186  11.737  10.993
56414W        W20347  29.038  44.889   4.160
56415W        W20348  10.747  29.076  12.892
56416W        W20349  19.075  26.602   4.817
56417W        W20350  43.892  30.137   1.930
56418W        W20351  11.194  24.600  12.390
56419W        W20352   8.374  17.245  12.982
56420W        W20353   6.880  29.950  13.402
56421W        W20354  16.701  21.052  11.443
56422W        W20355  44.982  12.140   0.325
56423W        W20356  34.564  20.767  11.015
56424W        W20357  33.910  16.718   1.846
56425W        W20358  40.413  11.836   3.263
56426W        W20359  23.187  26.628  10.931
56427W        W20360  13.835  44.945   2.367
56428W        W20361  31.128  41.839   3.836
56429W        W20362  30.620   2.897  12.371
56430W        W20363  20.528  20.715  12.418
56431W        W20364  17.780  34.614  11.576
56432W        W20365  25.035  39.829  13.975
56433W        W20366  17.158  24.007  11.955
56434W        W20367  11.824   7.172   0.792
56435W        W20368  22.087  39.018   0.245
56436W        W20369  22.080  36.055   2.778
56437W        W20370   7.209   0.355   3.680
56438W        W20371  40.996  13.273  11.529
56439W        W20372  17.787   7.329   1.278
56440W        W20373  23.080  25.971  10.889
56441W        W20374   4.846  43.289  12.848
56442W        W20375  23.186   5.759   3.796
56443W        W20376   9.808  37.405   4.190
56444W        W20377  19.085  16.135  13.933
56445W        W20378   4.904  32.135   3.680
56446W        W20379  12.123   1.764  13.470
56447W        W20380  33.604  28.543  11.586
56448W        W20381  17.176  28.071  12.458
56449W        W20382   3.860  26.504   3.646
56450W        W20383   1.823   9.780   0.306
56451W        W20384  42.913  22.022  13.832
56452W        W20385  41.509   1.478   3.202
56453W        W20386  28.983  43.769   3.313
56454W        W20387  27.064  44.933   2.357
56455W        W20388  11.747  33.971  13.396
56456W        W20389  33.026  30.913   2.416
56457W        W20390   3.359  22.212   0.383
56458W        W20391  41.326   9.390  12.890
56459W        W20392  16.284  19.663  12.471
56460W        W20393  23.184  13.324   3.177
56461W        W20394  37.462   7.739   1.775
56462W        W20395  39.463   4.847  14.785
56463W        W20396   9.318  15.217  13.463
56464W        W20397  42.804  36.078  11.053
56465W        W20398  11.139  20.160   1.356
56466W        W20399  11.208  31.007  13.997
56467W        W20400  27.154  10.154  13.976
56468W        W20401  10.680  44.418  12.994
56469W        W20402  29.468   8.816  13.357
56470W        W20403  34.902   0.492  12.011
56471W        W20404  33.069  16.137  11.390
56472W        W20405  40.375  44.001   4.795
56473W        W20406  36.370  35.436   0.271
56474W        W20407  19.692  13.264   1.870
56475W        W20408  25.474  11.657   3.327
56476W        W20409  19.121  41.357  13.903
56477W        W20410  10.776  23.512  12.340
56478W        W20411  34.452  13.197   2.311
56479W        W20412   8.384  14.625  10.504
56480W        W20413  15.795  17.178  11.443
56481W        W20414  26.960  29.031   2.281
56482W        W20415  10.383  43.281  13.515
56483W        W20416   1.866   4.409  11.119
56484W        W20417  23.110  38.891  12.035
56485W        W20418  14.265  13.769  14.357
56486W        W20419  31.595   8.889   2.719
56487W        W20420  27.113  14.216   1.717
56488W        W20421  10.356  42.788   4.675
56489W        W20422  35.489   9.781  13.419
56490W        W20423  13.715  41.462  12.026
56491W        W20424  26.669  40.447  12.061
56492W        W20425  12.222  17.248  13.804
56493W        W20426  37.000  20.043  14.789
56494W        W20427  19.704  10.730   1.929
56495W        W20428  31.039   6.296   4.752
56496W        W20429  42.939  14.786  11.126
56497W        W20430  34.942  32.426  14.951
56498W        W20431  18.626   3.425  11.118
56499W        W20432  25.159  19.185   2.736
56500W        W20433  44.475  25.175   4.274
56501W        W20434  23.222  24.057  12.477
56502W        W20435   4.307  17.061  10.616
56503W        W20436  14.095   3.250  13.497
56504W        W20437  41.422  18.228  14.309
56505W        W20438  28.122  42.030  13.338
56506W        W20439   2.373  24.082   2.862
56507W        W20440  11.264  10.281  14.924
56508W        W20441  41.374  41.329  11.024
56509W        W20442   1.243   9.777   3.217
56510W        W20443  23.526   3.806  13.517
56511W        W20444  34.988  13.784   4.756
56512W        W20445   3.447  41.455   0.359
56513W        W20446  44.006   6.299   4.699
56514W        W20447  41.299   7.243  10.917
56515W        W20448  40.374  26.490   0.335
56516W        W20449  44.446  42.400  13.535
56517W        W20450   9.389  31.933   2.780
56518W        W20451  18.291   8.389  10.578
56519W        W20452  22.053  16.179   2.680
56520W        W20453   3.858  34.888   0.290
56521W        W20454  13.807  39.978   1.411
56522W        W20455   6.266  32.528  12.050
56523W        W20456   0.485   5.388  10.414
56524W        W20457  38.495  10.650   1.375
56525W        W20458  41.463  18.146   2.709
56526W        W20459  28.025  10.268  14.374
56527W        W20460  36.008   7.671   0.306
56528W        W20461  11.689  43.012   3.355
56529W        W20462  22.558  11.678   1.760
56530W        W20463  43.341   8.399  13.933
56531W        W20464   5.276   0.857   4.600
56532W        W20465  42.834  20.610  13.003
56533W        W20466  34.422  34.038   4.648
56534W        W20467   7.713  19.730   3.216
56535W        W20468   7.230  38.886  13.477
56536W        W20469  41.793   2.240   2.283
56537W        W20470  28.062  43.955   4.294
56538W        W20471   2.434  37.413  11.965
56539W        W20472  18.780  16.303   2.203
56540W        W20473   2.410  27.610  12.368
56541W        W20474  17.588   7.797   0.837
56542W        W20475   9.322  44.357  11.493
56543W        W20476  23.126  12.664   0.318
56544W        W20477  19.593  11.207   1.831
56545W        W20478   3.835  15.161   1.277
56546W        W20479  11.710   9.386  13.021
56547W        W20480  14.206   8.672  11.579
56548W        W20481  18.714  35.595  13.527
56549W        W20482   7.696   2.897  14.928
56550W        W20483  21.126   1.932   4.773
56551W        W20484  16.669   0.469   2.411
56552W        W20485  25.581  16.247  12.061
56553W        W20486  43.838  17.219  13.942
56554W        W20487   3.269  12.348   1.878
56555W        W20488   7.730  27.111   1.232
56556W        W20489   3.301   3.219   4.615
56557W        W20490   8.887  19.717  12.091
56558W        W20491  38.335   1.864  14.289
56559W        W20492  37.007   8.678  11.430
56560W        W20493   4.735  23.673   4.655
56561W        W20494  38.556   2.861  11.496
56562W        W20495  20.645  26.061   9.937
56563W        W20496   2.227  36.892   3.324
56564W        W20497  23.161   5.398   4.759
56565W        W20498   0.879  11.232  11.004
56566W        W20499  16.689   5.706   5.169
56567W        W20500  40.040  34.461   2.903
56568W        W20501  22.729  30.913  11.388
56569W        W20502  21.164  27.994  10.450
56570W        W20503  37.388  19.209   0.315
56571W        W20504   9.342  10.257   1.392
56572W        W20505  26.107  42.868   5.223
56573W        W20506  22.521  20.750   2.682
56574W        W20507  44.760  16.074   3.193
56575W        W20508  34.450   7.198   4.660
56576W        W20509  35.409  35.993  13.912
56577W        W20510  17.259  32.395   0.900
56578W        W20511   0.810  12.165   0.410
56579W        W20512  32.112   0.981  13.430
56580W        W20513  14.270   4.903  13.986
56581W        W20514  12.719   3.743  11.530
56582W        W20515   8.293  26.647  13.499
56583W        W20516  38.923  30.505  13.508
56584W        W20517  12.765  19.134  10.423
56585W        W20518  39.909  20.628   2.728
56586W        W20519   1.766  41.920   0.772
56587W        W20520  22.601   2.436   4.633
56588W        W20521   1.947   9.673   2.777
56589W        W20522  25.638  37.917   4.276
56590W        W20523  11.128  13.799  14.454
56591W        W20524  14.750  31.607   2.225
56592W        W20525  37.989  16.173  11.905
56593W        W20526  40.351  16.595   2.895
56594W        W20527  39.945  32.986   3.849
56595W        W20528  30.602  31.648  12.964
56596W        W20529  25.622   7.831  11.012
56597W        W20530  29.556  22.668  10.490
56598W        W20531  15.704  35.575  12.521
56599W        W20532  40.341   3.286  13.879
56600W        W20533  17.632  29.167  14.336
56601W        W20534  12.667  17.795   4.628
56602W        W20535  27.655  11.153  11.399
56603W        W20536   9.197  30.098  11.879
56604W        W20537   0.294  25.683   3.686
56605W        W20538   1.399  40.406   1.252
56606W        W20539  29.018  29.003  10.961
56607W        W20540  39.510  25.133  13.447
56608W        W20541  31.004   6.809   0.248
56609W        W20542   6.286  27.189  14.918
56610W        W20543   6.408   8.393   3.284
56611W        W20544  41.535  16.764   2.270
56612W        W20545  12.804  16.181   0.756
56613W        W20546  36.847  28.083  11.041
56614W        W20547  33.568   2.362  14.398
56615W        W20548  41.007   0.477   3.637
56616W        W20549  23.688  21.516   1.222
56617W        W20550   1.444  26.076   0.781
56618W        W20551  12.663  36.370  14.884
56619W        W20552  23.645  39.360   2.721
56620W        W20553   5.243   2.274   3.790
56621W        W20554  26.524   7.712  14.513
56622W        W20555  30.114   7.285   2.203
56623W        W20556  19.611  19.679   1.868
56624W        W20557  14.230  15.235  12.046
56625W        W20558   2.903  13.826   3.386
56626W        W20559  18.120  15.593  10.958
56627W        W20560   2.353  37.009   2.725
56628W        W20561  28.457  34.893  10.644
56629W        W20562  15.238  15.804   1.385
56630W        W20563  35.443  27.583   1.833
56631W        W20564   9.205   4.759   0.802
56632W        W20565  14.798  39.902   1.910
56633W        W20566  34.502  24.702  13.036
56634W        W20567  24.117   9.243   3.229
56635W        W20568  11.755  33.545   1.914
56636W        W20569  27.010  44.807  12.035
56637W        W20570  11.813  36.412   4.231
56638W        W20571  27.993  29.425  10.567
56639W        W20572  40.404   8.206   0.878
56640W        W20573  25.014  20.232  13.526
56641W        W20574  30.995   2.722  12.872
56642W        W20575  24.626   8.382   3.294
56643W        W20576  38.919  26.689  10.555
56644W        W20577  36.584  18.132   2.196
56645W        W20578  19.127   9.235  12.440
56646W        W20579  12.359   1.407  12.039
56647W        W20580   6.805  27.660  12.550
56648W        W20581   4.843  34.930   0.745
56649W        W20582  30.962  11.813  13.497
56650W        W20583   0.354   2.910  12.470
56651W        W20584  43.911  37.839  14.341
56652W        W20585  35.428  33.119  14.413
56653W        W20586  19.561  29.105   3.168
56654W        W20587  25.482  15.695   2.695
56655W        W20588  43.277  33.128   1.891
56656W        W20589  36.849  18.144   3.754
56657W        W20590  21.726  29.162   2.316
56658W        W20591  39.354  10.156  11.424
56659W        W20592  22.503  23.000  12.528
56660W        W20593  42.779  38.061  13.932
56661W        W20594  12.197  28.463   0.908
56662W        W20595   3.880  12.136  13.063
56663W        W20596  23.537  36.535   3.168
56664W        W20597   1.853   8.867   0.385
56665W        W20598  39.422   3.954  12.857
56666W        W20599  15.657  41.357  10.077
56667W        W20600  11.302  26.143  10.415
56668W        W20601   9.283  30.477  14.855
56669W        W20602   9.242   2.234   0.731
56670W        W20603   1.370   9.217  14.390
56671W        W20604  23.659   1.789   0.882
56672W        W20605   9.840  23.581   4.240
56673W        W20606  36.539  41.410   0.903
56674W        W20607  29.644  15.234   2.234
56675W        W20608  37.387   5.300   1.730
56676W        W20609  39.843  13.195   4.823
56677W        W20610   8.378  41.974  12.915
56678W        W20611  36.849   9.358  11.875
56679W        W20612   3.381  16.106  14.445
56680W        W20613  28.146   3.723  14.906
56681W        W20614  41.334  11.855   2.784
56682W        W20615  10.782   4.847   4.166
56683W        W20616  18.622  43.954   0.822
56684W        W20617  24.533  18.108  13.314
56685W        W20618  26.972  32.579   2.274
56686W        W20619  19.726   5.227  10.934
56687W        W20620  35.933   0.409   1.775
56688W        W20621  31.402  10.262  10.979
56689W        W20622  42.295  32.034  12.386
56690W        W20623  19.719   0.743   2.799
56691W        W20624   6.368   6.351   0.920
56692W        W20625   8.365   8.300   4.129
56693W        W20626  42.805  17.779   4.301
56694W        W20627  26.122   9.792  14.368
56695W        W20628  44.429   1.746   0.885
56696W        W20629  11.649  11.219  10.986
56697W        W20630   8.840  39.412   1.794
56698W        W20631  38.030  30.016   0.830
56699W        W20632  36.062  14.702  11.061
56700W        W20633  44.306  42.486   4.753
56701W        W20634   9.186  31.975   3.758
56702W        W20635  41.816  21.694   3.854
56703W        W20636  16.658  44.997  13.003
56704W        W20637  19.092  33.014   1.309
56705W        W20638  23.608   7.340   0.873
56706W        W20639   0.851  34.058  12.033
56707W        W20640  11.861  11.831  13.852
56708W        W20641  18.740  12.138   1.789
56709W        W20642  20.577  38.068  14.423
56710W        W20643  13.690  24.492   4.268
56711W        W20644  25.187  25.206  11.527
56712W        W20645   7.860   2.892  11.430
56713W        W20646   4.782  33.579   3.781
56714W        W20647  14.279  34.871   2.792
56715W        W20648  10.864  43.378   0.769
56716W        W20649  39.544   3.353  11.874
56717W        W20650  15.200  10.653  14.859
56718W        W20651   2.888  38.910  11.881
56719W        W20652  40.423  35.926  14.340
56720W        W20653  43.926  17.091  11.537
56721W        W20654  20.155  13.824  13.004
56722W        W20655  27.035  36.516  12.571
56723W        W20656  26.090  18.217   0.788
56724W        W20657  32.495  27.587  12.872
56725W        W20658  37.901  15.823   0.949
56726W        W20659  40.324  14.169  10.059
56727W        W20660   3.434   7.826  10.542
56728W        W20661   0.857  21.558   3.363
56729W        W20662  17.090  18.121  11.462
56730W        W20663  30.436  13.836  10.935
56731W        W20664   5.251  18.572  12.450
56732W        W20665  32.390  29.455   4.146
56733W        W20666   0.451  39.324   9.941
56734W        W20667   9.829  11.666   0.474
56735W        W20668  17.070   5.368   3.703
56736W        W20669  39.053   2.908   0.319
56737W        W20670   9.780  25.502  12.843
56738W        W20671  21.196   8.236   1.808
56739W        W20672   2.915  14.770  14.003
56740W        W20673   4.727  19.775   1.822
56741W        W20674   0.920  20.763   3.376
56742W        W20675  36.963   1.919  11.925
56743W        W20676  40.901  17.639   4.263
56744W        W20677  22.737  31.959   0.932
56745W        W20678  18.685   6.782   0.375
56746W        W20679  39.056  32.567  12.443
56747W        W20680  10.211  37.069  10.894
56748W        W20681  10.813  21.165   0.797
56749W        W20682  43.815  22.744   3.186
56750W        W20683  28.628  26.703  11.033
56751W        W20684  18.074  24.221   1.272
56752W        W20685   2.355   3.366  12.418
56753W        W20686  14.629  33.490  14.775
56754W        W20687  37.915   5.226  13.383
56755W        W20688  37.454  42.287   4.233
56756W        W20689  15.148  34.105  14.403
56757W        W20690  39.530  11.333   3.346
56758W        W20691   8.212  15.276   3.654
56759W        W20692  28.473   8.779   0.962
56760W        W20693  20.251  39.833  13.468
56761W        W20694  14.136  40.454  13.993
56762W        W20695  28.614   2.774   2.708
56763W        W20696  40.342  21.066  14.419
56764W        W20697  20.533   3.347  10.984
56765W        W20698  37.967   3.350   4.117
56766W        W20699  41.487   0.349  12.996
56767W        W20700  17.802  12.766  11.024
56768W        W20701   1.407  40.422  14.854
56769W        W20702  29.068  29.075  12.963
56770W        W20703   4.911  11.257  13.929
56771W        W20704  16.656  27.655   2.296
56772W        W20705  12.689  24.516   1.704
56773W        W20706  19.669  13.637   0.473
56774W        W20707  26.083   6.806   3.737
56775W        W20708  33.961  15.117   2.754
56776W        W20709   7.389  38.356   3.147
56777W        W20710  41.458  19.639  14.437
56778W        W20711  11.864  17.626   2.412
56779W        W20712  28.999  43.865   2.287
56780W        W20713  39.881  11.134   2.398
56781W        W20714   2.339  34.870  11.086
56782W        W20715  11.225  20.673   1.792
56783W        W20716  30.508  14.196   3.749
56784W        W20717  44.897  20.708  14.399
56785W        W20718  44.973  27.011   0.446
56786W        W20719  42.829  33.552   0.248
56787W        W20720  29.627  27.003  12.383
56788W        W20721  42.434  19.208  11.409
56789W        W20722  25.629  16.637   1.424
56790W        W20723  44.453  41.455  11.949
56791W        W20724   2.859  34.461   1.390
56792W        W20725   5.237  19.204   2.777
56793W        W20726  36.592  22.237   3.271
56794W        W20727   9.301  25.150   0.804
56795W        W20728  42.862   5.729   3.358
56796W        W20729  25.136  21.585  10.591
56797W        W20730  35.001  40.405   3.232
56798W        W20731   6.375  34.891   2.686
56799W        W20732  12.689  25.709  12.428
56800W        W20733  26.018  23.734   0.322
56801W        W20734  35.550   2.232  13.478
56802W        W20735  14.099  27.147  12.031
56803W        W20736   9.236  38.074   1.891
56804W        W20737   0.795  26.054  14.802
56805W        W20738  30.486  15.123  12.398
56806W        W20739  42.295  20.252   4.829
56807W        W20740  38.065  42.930  10.074
56808W        W20741  13.836   8.670   2.824
56809W        W20742  34.441  44.875  10.487
56810W        W20743  39.501   9.648  13.438
56811W        W20744   9.169  11.343  13.386
56812W        W20745   7.299  44.009  12.905
56813W        W20746  39.001  31.995   4.755
56814W        W20747  35.024  29.479   2.278
56815W        W20748   8.814  44.380   4.732
56816W        W20749  10.287  36.947  14.867
56817W        W20750  38.864  38.374  10.027
56818W        W20751   7.321  17.193   3.242
56819W        W20752   7.866  28.171   0.457
56820W        W20753  15.223  31.596   3.237
56821W        W20754  19.153  36.021  13.438
56822W        W20755   0.882  30.944   4.195
56823W        W20756  16.242   5.363   3.234
56824W        W20757  23.568  40.846  13.015
56825W        W20758  11.781  17.557   0.822
56826W        W20759  10.823  25.658  13.948
56827W        W20760  30.079  13.226  11.571
56828W        W20761  37.573  38.061   4.676
56829W        W20762  39.050  31.984  12.992
56830W        W20763   0.742  39.541  11.607
56831W        W20764  19.253  29.448   2.409
56832W        W20765  18.183  29.556  13.877
56833W        W20766  43.451  40.448   1.866
56834W        W20767  36.541  12.334   4.205
56835W        W20768  33.044  40.907   2.762
56836W        W20769  35.988  40.007  11.090
56837W        W20770  41.337  17.780   1.863
56838W        W20771  21.074  42.315   1.416
56839W        W20772  39.414  30.048  11.974
56840W        W20773  39.973  22.520   2.829
56841W        W20774  28.540  33.599   0.946
56842W        W20775   4.856   9.377   1.399
56843W        W20776  16.610   6.249   2.848
56844W        W20777  42.407  41.407   3.302
56845W        W20778  14.249   0.389   4.669
56846W        W20779  42.415   8.841   1.399
56847W        W20780  38.963  44.838  10.539
56848W        W20781  42.965   4.808  10.521
56849W        W20782  44.374  32.608  12.420
56850W        W20783  18.662   7.774   4.704
56851W        W20784  41.413  32.085   1.431
56852W        W20785  17.666   7.738  12.033
56853W        W20786  44.880  19.552  11.458
56854W        W20787  39.853  42.395   0.450
56855W        W20788   7.688  19.704   1.851
56856W        W20789  43.389  33.393  12.489
56857W        W20790  12.144   4.921   4.171
56858W        W20791  27.451   0.369   4.739
56859W        W20792  30.155  12.833  11.942
56860W        W20793  38.963   0.393  14.509
56861W        W20794   5.804   2.325   0.894
56862W        W20795  31.421  41.886   0.756
56863W        W20796  29.446   0.290  12.352
56864W        W20797   2.308  19.766  12.989
56865W        W20798  21.023   2.896   3.320
56866W        W20799   7.410   1.774  11.526
56867W        W20800  30.964  32.058   2.348
56868W        W20801  44.401  12.719   2.886
56869W        W20802  26.082  38.454   3.262
56870W        W20803  27.467  44.385   1.450
56871W        W20804  29.546  13.637   1.816
56872W        W20805  16.177  34.008  14.832
56873W        W20806  13.671  26.689  11.389
56874W        W20807   4.848  38.939  10.479
56875W        W20808  26.598  15.588   5.297
56876W        W20809  10.710   8.283   1.821
56877W        W20810  39.823   2.270   2.869
56878W        W20811   8.339  18.282  10.989
56879W        W20812   5.413  43.968  10.500
56880W        W20813  21.580  11.764   1.835
56881W        W20814  31.012   6.348   0.845
56882W        W20815  33.545  35.451  13.423
56883W        W20816   5.899  18.138   2.352
56884W        W20817  37.040  20.605  12.017
56885W        W20818  35.083  13.791  13.898
56886W        W20819  37.359   0.402  13.497
56887W        W20820  31.979   1.239   1.269
56888W        W20821  34.536  44.329  11.006
56889W        W20822  30.151   4.234   3.766
56890W        W20823  13.787   0.777   4.204
56891W        W20824   2.297  10.258  14.377
56892W        W20825   3.346  17.287   5.237
56893W        W20826  13.839   9.737   4.278
56894W        W20827  32.963  43.833   1.895
56895W        W20828  31.046  11.298   3.338
56896W        W20829  26.073   3.313  14.816
56897W        W20830   3.712  21.713  10.424
56898W        W20831  13.652  22.552  11.933
56899W        W20832  38.395  20.220   4.136
56900W        W20833   2.459   8.853  10.156
56901W        W20834  32.985  18.720   0.734
56902W        W20835  21.601  42.485  14.992
56903W        W20836   2.459  34.611  12.042
56904W        W20837  17.754   6.702  11.984
56905W        W20838  26.034  28.439   4.126
56906W        W20839  25.025   4.390   1.930
56907W        W20840  38.070   1.482  13.973
56908W        W20841   0.448   8.703  14.473
56909W        W20842   7.779  10.712  14.371
56910W        W20843  20.664  19.688   0.887
56911W        W20844  18.592  34.053  13.853
56912W        W20845  19.661   6.183  11.990
56913W        W20846  15.705   2.318  11.538
56914W        W20847  43.866  39.390  12.468
56915W        W20848  15.604   4.777  12.995
56916W        W20849  41.798  20.185   0.430
56917W        W20850  27.690  18.063  14.761
56918W        W20851   6.416   9.789   0.428
56919W        W20852  17.267  37.966  11.937
56920W        W20853  39.048  15.318  11.000
56921W        W20854  11.671  33.485   9.936
56922W        W20855   6.760   0.459  12.913
56923W        W20856  25.010  41.428  12.379
56924W        W20857  21.651   0.251   2.260
56925W        W20858  34.424  19.229   0.756
56926W        W20859  29.013  10.695   1.796
56927W        W20860  14.802   0.389  13.340
56928W        W20861  21.550  18.555  12.560
56929W        W20862  14.161  31.634  11.400
56930W        W20863  27.140  42.796  11.407
56931W        W20864  29.573  25.100  10.469
56932W        W20865  33.499  15.261  14.794
56933W        W20866   5.418  32.121   0.814
56934W        W20867  13.157  18.210  10.111
56935W        W20868   6.295   0.480  14.323
56936W        W20869   9.804  29.135  14.462
56937W        W20870  33.117   9.880  11.602
56938W        W20871  42.379  29.525  14.941
56939W        W20872  28.612  35.418   3.731
56940W        W20873   1.479  37.348   0.733
56941W        W20874   1.325  36.847   1.911
56942W        W20875  15.182  23.499   1.275
56943W        W20876  19.616  18.780  13.880
56944W        W20877  34.040  22.066   1.724
56945W        W20878  25.007  20.068  14.457
56946W        W20879   4.929  37.019  13.360
56947W        W20880   8.852  14.225   3.195
56948W        W20881  42.866  14.691  14.447
56949W        W20882   5.337  38.027   3.702
56950W        W20883  34.876  30.417   4.120
56951W        W20884   4.815   5.243  10.572
56952W        W20885  29.923  34.953   4.161
56953W        W20886  29.032  27.534   2.806
56954W        W20887  20.580  17.708   4.803
56955W        W20888   7.698  38.946   3.754
56956W        W20889  37.852  33.907  11.129
56957W        W20890  33.993  37.352  14.798
56958W        W20891  29.087   9.155   4.208
56959W        W20892   7.812  41.412  10.425
56960W        W20893  20.031  19.671  14.961
56961W        W20894  22.638   9.731   0.731
56962W        W20895  23.151   6.320  12.549
56963W        W20896  40.326   2.307   1.758
56964W        W20897  32.398  31.637   2.412
56965W        W20898  24.148  38.008   3.148
56966W        W20899  30.152  25.609  11.033
56967W        W20900  37.911  20.095   4.828
56968W        W20901   6.248  34.565   4.746
56969W        W20902   7.299  23.647   4.174
56970W        W20903   2.886  27.026   3.223
56971W        W20904  11.784  19.649  13.427
56972W        W20905  25.086  11.131  12.066
56973W        W20906  19.103  40.543  14.811
56974W        W20907  15.649  19.586   4.168
56975W        W20908  42.370   6.893   1.728
56976W        W20909   4.824  15.600   2.731
56977W        W20910  36.078  24.489   0.823
56978W        W20911  32.026  29.121   3.771
56979W        W20912  29.057  17.233  13.013
56980W        W20913  22.190   1.911  12.066
56981W        W20914  19.142  32.986  14.385
56982W        W20915   3.412  30.913  11.562
56983W        W20916  29.101  42.922  13.856
56984W        W20917  15.272  20.535   3.658
56985W        W20918  37.012   8.306  13.971
56986W        W20919  16.718  11.344   4.212
56987W        W20920   3.711   1.863  12.843
56988W        W20921   4.313  32.004  14.810
56989W        W20922  40.054  30.033  10.623
56990W        W20923  39.548  43.305   1.348
56991W        W20924   5.361  15.813   0.953
56992W        W20925  10.239  38.022  14.353
56993W        W20926  23.196  29.643  10.602
56994W        W20927  17.278   0.302   0.328
56995W        W20928  32.081  39.896   1.875
56996W        W20929  25.103  27.608   1.710
56997W        W20930  40.385  11.272   0.351
56998W        W20931  42.307  37.445   3.862
56999W        W20932  35.563  32.412   0.404
57000W        W20933  23.178  17.666  13.387
57001W        W20934  37.514  44.275   0.811
57002W        W20935   0.882  24.183  14.868
57003W        W20936   9.649  22.180  13.062
57004W        W20937   0.451   9.339  12.402
57005W        W20938   6.425  25.186   3.714
57006W        W20939  32.002   1.936   2.210
57007W        W20940  43.434  38.006  13.823
57008W        W20941  39.513  25.593   4.732
57009W        W20942  26.073  29.173  12.527
57010W        W20943   4.895  16.716  10.148
57011W        W20944  20.243  13.230  13.487
57012W        W20945  18.175  36.421   0.322
57013W        W20946  28.160  16.658  14.784
57014W        W20947   4.811  20.035   0.394
57015W        W20948   7.398   7.272  12.843
57016W        W20949  21.163  18.105   2.296
57017W        W20950   2.286  35.364   0.749
57018W        W20951  15.771  42.009   4.785
57019W        W20952  19.143  29.923  11.071
57020W        W20953  30.114   4.888   4.626
57021W        W20954   8.262  34.081  10.460
57022W        W20955  30.602  40.054   1.385
57023W        W20956  36.520  39.976   4.783
57024W        W20957  25.137  40.040   3.698
57025W        W20958   6.833  10.239   0.248
57026W        W20959  44.343   1.957   4.120
57027W        W20960  17.297  11.213   2.818
57028W        W20961  23.527  32.074  12.420
57029W        W20962  11.757  24.977  10.511
57030W        W20963  22.677  29.986  11.086
57031W        W20964  28.450  42.889   3.792
57032W        W20965  42.444   6.398  15.000
57033W        W20966  32.896  31.637  13.052
57034W        W20967  43.867  16.766  14.883
57035W        W20968   9.208  22.605   2.243
57036W        W20969  20.237  14.285   2.328
57037W        W20970  17.086  14.165  14.409
57038W        W20971  29.431   0.856  14.476
57039W        W20972  29.089  12.754   3.660
57040W        W20973  44.505  23.691   1.865
57041W        W20974   8.862  20.717  13.537
57042W        W20975   2.253   4.766   0.440
57043W        W20976  28.519  37.006  12.831
57044W        W20977  17.688   4.371   2.212
57045W        W20978  32.904  20.713   0.317
57046W        W20979   5.196  26.041   2.774
57047W        W20980  31.477   9.181   2.774
57048W        W20981   0.440  43.482   0.731
57049W        W20982  24.094  25.104   2.892
57050W        W20983  22.125   1.237   2.703
57051W        W20984   2.889  24.530  14.941
57052W        W20985  30.062  43.913   2.341
57053W        W20986  14.270  34.583  13.009
57054W        W20987  18.091  32.897   1.213
57055W        W20988  27.084  28.174  10.591
57056W        W20989   1.403  16.260   0.748
57057W        W20990  15.239  36.553  13.918
57058W        W20991   0.315  36.892   5.156
57059W        W20992  34.498  20.569   3.198
57060W        W20993  13.344  34.611   2.381
57061W        W20994  23.641  15.106   3.223
57062W        W20995  23.578  17.791   3.781
57063W        W20996  37.395  33.943  12.347
57064W        W20997  31.121  41.532  14.891
57065W        W20998  21.554  27.522   1.819
57066W        W20999   7.836  36.096   1.920
57067W        W21000  20.539  13.254   1.874
57068W        W21001  23.215  34.384   0.816
57069W        W21002   6.817   9.269  10.511
57070W        W21003  37.976   2.447   0.950
57071W        W21004  35.873  43.830  12.014
57072W        W21005  13.690  23.166   0.887
57073W        W21006  29.020  27.542   3.774
57074W        W21007   1.913  27.516   1.400
57075W        W21008  23.677  28.450  11.992
57076W        W21009  25.192  23.721  14.300
57077W        W21010  27.493  24.122  12.547
57078W        W21011  17.782   8.256   0.852
57079W        W21012   7.718   9.700   2.800
57080W        W21013  20.093   5.401   2.900
57081W        W21014  30.436  21.194   3.252
57082W        W21015  39.897   7.277   4.691
57083W        W21016  16.692  24.163  12.951
57084W        W21017  41.943   3.756  11.975
57085W        W21018   8.815   2.867  10.931
57086W        W21019  22.573   2.778  10.600
57087W        W21020  31.582  24.705  10.602
57088W        W21021  39.453  28.183   3.207
57089W        W21022  18.294  14.311  13.390
57090W        W21023  18.060  13.682   3.340
57091W        W21024   7.780  34.559  12.074
57092W        W21025  28.086  41.892  13.834
57093W        W21026  38.950  40.457   1.896
57094W        W21027  29.154  16.252   3.368
57095W        W21028  38.517  26.532   2.666
57096W        W21029  25.496  13.783  13.347
57097W        W21030   6.342   1.374   4.601
57098W        W21031   7.276  26.080  11.912
57099W        W21032  12.141  29.578  13.538
57100W        W21033   4.816  20.096  13.901
57101W        W21034  12.784  12.161   3.372
57102W        W21035  16.208   5.901   2.871
57103W        W21036  11.854  43.992  10.919
57104W        W21037  14.691  19.665   0.314
57105W        W21038  10.662  13.697   3.359
57106W        W21039  39.412  20.053   2.213
57107W        W21040  17.608  23.670  10.553
57108W        W21041  36.551  24.580   1.305
57109W        W21042  27.112   1.382  10.405
57110W        W21043   6.210   5.918   0.296
57111W        W21044  34.469  21.065  13.424
57112W        W21045  24.498  34.870  10.440
57113W        W21046  36.368   4.204   1.783
57114W        W21047  34.437   5.207  12.570
57115W        W21048   9.371  37.549  12.361
57116W        W21049  43.368   9.833   1.268
57117W        W21050   8.791   2.900   1.371
57118W        W21051  10.273  31.930   4.712
57119W        W21052  38.069  26.645  14.929
57120W        W21053  30.090   1.755   4.619
57121W        W21054   1.293  15.695   3.243
57122W        W21055  40.454  43.306   1.778
57123W        W21056  28.943  39.061   3.759
57124W        W21057   3.373  14.103  12.550
57125W        W21058  19.591  39.376   4.674
57126W        W21059  17.228   8.165  11.544
57127W        W21060  39.905  10.287   0.841
57128W        W21061  11.792  33.552  14.376
57129W        W21062  36.061   7.732  10.435
57130W        W21063  14.792  16.247   4.304
57131W        W21064  20.052  23.658   2.795
57132W        W21065  39.388   5.216   0.438
57133W        W21066   0.956  27.075   3.149
57134W        W21067  34.449   2.328  12.455
57135W        W21068  43.459  10.275  10.155
57136W        W21069   5.801   5.226  12.369
57137W        W21070   2.807  20.030   0.777
57138W        W21071  20.605  44.926  12.049
57139W        W21072  38.986   3.882  14.957
57140W        W21073  11.801  37.061  14.511
57141W        W21074  29.482  12.666   2.217
57142W        W21075   2.457  43.319   0.380
57143W        W21076  16.194  15.647   1.815
57144W        W21077  29.143  39.982   3.849
57145W        W21078   3.272  24.600   4.252
57146W        W21079  12.813  19.550   3.738
57147W        W21080  29.526  33.112   4.824
57148W        W21081  18.743   7.680  10.898
57149W        W21082  35.428  43.329   1.441
57150W        W21083  38.978  17.594   0.462
57151W        W21084   3.950  39.051  14.442
57152W        W21085  23.570  19.772  14.345
57153W        W21086  11.364  13.153  10.572
57154W        W21087  33.408   9.320   0.853
57155W        W21088  41.417  22.184   4.755
57156W        W21089  14.763  15.148  13.804
57157W        W21090   6.846  11.356  11.500
57158W        W21091  14.676  18.064   1.293
57159W        W21092  43.420  41.007  14.283
57160W        W21093  20.136  18.682  12.910
57161W        W21094  27.627  30.487   3.712
57162W        W21095  13.230  30.556  12.932
57163W        W21096  40.443  19.140  13.525
57164W        W21097  16.260  16.626  13.973
57165W        W21098  30.078  27.080   4.260
57166W        W21099   4.940  26.684  11.593
57167W        W21100  27.617  40.021   1.410
57168W        W21101  24.043   8.804  14.942
57169W        W21102  37.491  27.677   1.829
57170W        W21103  39.966  25.695  14.004
57171W        W21104  18.165  21.166  13.839
57172W        W21105  36.018  42.431   4.267
57173W        W21106  32.056   3.842   0.833
57174W        W21107  38.935  24.561   4.834
57175W        W21108  44.361  31.950   5.169
57176W        W21109  11.147  33.590   4.291
57177W        W21110  19.206   9.726  11.451
57178W        W21111  23.128   8.300  14.375
57179W        W21112   9.826  13.760  13.973
57180W        W21113   5.428  37.551   1.829
57181W        W21114   2.407   6.286   1.817
57182W        W21115  43.786  10.161   9.939
57183W        W21116   6.380  20.693  12.455
57184W        W21117  22.509  31.404   1.717
57185W        W21118  34.073  18.688   0.243
57186W        W21119   3.334   5.908  13.535
57187W        W21120  24.724  19.165   0.921
57188W        W21121  41.397  18.646  12.058
57189W        W21122  30.500  43.510  11.057
57190W        W21123  10.796  14.211   3.651
57191W        W21124  14.645  26.178  12.552
57192W        W21125  12.713  38.010  13.042
57193W        W21126  34.890  34.913   1.782
57194W        W21127  28.528  23.539  11.382
57195W        W21128  20.594  37.503   0.875
57196W        W21129  34.607  22.145  11.867
57197W        W21130  36.543  40.925  14.327
57198W        W21131  27.115  41.496  14.472
57199W        W21132  36.364  33.002   0.408
57200W        W21133  16.115  38.927   2.270
57201W        W21134  43.328  28.560   0.750
57202W        W21135  27.469  18.677  13.885
57203W        W21136  41.845   3.901  14.469
57204W        W21137  41.451  29.451  11.865
57205W        W21138  33.492  16.140   3.360
57206W        W21139  36.447  40.471  14.454
57207W        W21140   0.402  13.311  10.913
57208W        W21141  11.860  43.011  11.612
57209W        W21142  29.156  39.421   4.148
57210W        W21143  34.529  37.537  11.592
57211W        W21144  26.597  33.585   4.624
57212W        W21145  40.337  16.792  11.010
57213W        W21146  22.080  32.391  14.345
57214W        W21147  39.964  22.675  10.501
57215W        W21148  41.986  25.641  11.386
57216W        W21149  29.159  15.764  12.401
57217W        W21150   2.467   6.680   4.309
57218W        W21151  24.115  23.581  12.418
57219W        W21152  19.230  30.009   4.225
57220W        W21153  41.510   2.325   2.299
57221W        W21154   5.791  25.159  11.965
57222W        W21155   8.290   1.463   1.752
57223W        W21156  17.670  28.156  12.866
57224W        W21157   1.273   4.352  13.991
57225W        W21158  16.583  17.624  13.381
57226W        W21159  21.719  10.324   4.120
57227W        W21160   5.331   3.395  14.814
57228W        W21161  44.969  12.320  13.901
57229W        W21162  30.626  26.184   0.356
57230W        W21163  38.917  17.769  13.051
57231W        W21164  38.968   9.290  13.333
57232W        W21165  24.696  30.107  14.427
57233W        W21166  38.948  10.751   3.780
57234W        W21167  44.771   8.264  14.418
57235W        W21168  13.240  33.457   0.477
57236W        W21169  37.886   6.889  11.575
57237W        W21170   1.761  28.012   0.281
57238W        W21171  43.922  37.969  12.858
57239W        W21172  18.167  32.903   0.780
57240W        W21173   0.770  30.072  14.934
57241W        W21174   2.900  30.065  13.403
57242W        W21175   6.239  31.129  14.982
57243W        W21176  40.394  41.907  11.005
57244W        W21177   2.281  19.184   3.859
57245W        W21178  17.785   3.769   2.715
57246W        W21179  31.048  36.873   0.385
57247W        W21180   1.244   3.729  10.890
57248W        W21181  28.654   7.879   2.299
57249W        W21182  13.826  38.352  12.923
57250W        W21183  14.778  29.134   4.199
57251W        W21184   4.347   4.333   9.655
57252W        W21185  44.461  29.091  10.901
57253W        W21186  18.551  19.677  11.897
57254W        W21187   0.954   4.828   4.829
57255W        W21188  14.736  31.924   2.730
57256W        W21189   9.354  16.735   3.811
57257W        W21190  17.662  44.265   0.835
57258W        W21191  37.483  23.642   2.412
57259W        W21192  18.161  24.572   3.801
57260W        W21193  23.668  10.161  12.043
57261W        W21194  16.245  22.614  12.037
57262W        W21195  34.488  16.658  10.991
57263W        W21196  35.885  30.568   2.804
57264W        W21197  10.756  31.440  11.457
57265W        W21198  40.346  20.204   2.220
57266W        W21199  14.719  11.673   0.483
57267W        W21200  24.609   1.969  12.069
57268W        W21201  37.996  39.440   0.949
57269W        W21202  27.981   0.942  12.433
57270W        W21203  16.076  37.832   2.834
57271W        W21204  40.496  42.367   4.336
57272W        W21205  22.082  34.603  11.959
57273W        W21206  37.944  33.558   1.395
57274W        W21207  20.734  10.866   4.720
57275W        W21208  33.619  31.566   2.276
57276W        W21209  16.209  21.050  11.928
57277W        W21210  37.950   9.845   4.802
57278W        W21211  30.606   1.339  11.000
57279W        W21212   8.254   5.819  13.009
57280W        W21213  25.481  28.970  10.551
57281W        W21214  31.933  42.874   5.216
57282W        W21215   7.807  30.966   0.267
57283W        W21216   5.439  21.205  13.799
57284W        W21217  13.637  42.874   1.739
57285W        W21218  43.304  17.219  12.518
57286W        W21219  15.616   1.785  10.567
57287W        W21220  26.527  15.794  13.984
57288W        W21221   3.363  21.586   1.826
57289W        W21222  24.136  41.019   2.252
57290W        W21223   0.435   2.871  10.906
57291W        W21224  30.582  26.685   1.277
57292W        W21225  27.628  30.483   0.383
57293W        W21226  26.976   0.769   2.758
57294W        W21227  43.931  44.493  14.370
57295W        W21228   2.467  30.132   0.464
57296W        W21229  30.610  25.596   3.680
57297W        W21230  43.766  41.402   1.390
57298W        W21231  15.662  21.105   9.983
57299W        W21232  39.026   2.777   4.141
57300W        W21233  38.441  13.603  13.872
57301W        W21234  24.641   5.266   3.383
57302W        W21235  22.037  30.932   0.419
57303W        W21236  42.455  18.136   1.312
57304W        W21237  28.082   2.795  13.465
57305W        W21238   5.783  40.828   4.609
57306W        W21239  21.632  26.667  10.902
57307W        W21240   3.422  12.690  14.778
57308W        W21241   9.393  42.859   5.160
57309W        W21242   0.299  34.419  10.507
57310W        W21243   1.959  27.179  13.413
57311W        W21244   7.406   5.273   3.785
57312W        W21245  10.213  17.622   0.250
57313W        W21246  27.469  44.914   1.727
57314W        W21247  18.691   5.809   0.769
57315W        W21248  15.747  14.647  12.968
57316W        W21249  13.135   6.903  13.852
57317W        W21250  27.967   9.717  13.446
57318W        W21251  24.502   2.846  11.938
57319W        W21252   8.208  11.241  14.848
57320W        W21253  39.479   5.832   1.316
57321W        W21254   2.955  39.461   3.387
57322W        W21255  35.886  30.976   1.232
57323W        W21256  38.961  35.981   0.765
57324W        W21257  40.486  42.983   1.234
57325W        W21258  13.229  30.571   0.299
57326W        W21259  35.889  39.407  11.527
57327W        W21260  37.957  10.299  12.491
57328W        W21261  16.209  27.623  14.847
57329W        W21262  44.990  22.723   3.240
57330W        W21263  24.578  20.235  13.950
57331W        W21264   4.420  21.056   2.195
57332W        W21265  27.949  26.559   0.336
57333W        W21266  13.697  27.565  12.006
57334W        W21267  36.934  23.521  14.484
57335W        W21268   3.267  26.044   3.823
57336W        W21269   4.420  26.648  12.514
57337W        W21270  15.312  30.105  14.026
57338W        W21271   3.724  41.899   3.661
57339W        W21272  23.180  37.483  14.928
57340W        W21273  36.071  30.600  14.930
57341W        W21274  31.041  32.044  14.006
57342W        W21275   8.339  24.589   1.376
57343W        W21276  28.670  15.734  11.508
57344W        W21277   7.284   3.305   1.409
57345W        W21278  31.973  10.795  11.491
57346W        W21279   4.342  24.078  12.498
57347W        W21280  42.826  20.272  12.549
57348W        W21281  21.143  33.039   0.449
57349W        W21282   4.326   1.364  13.834
57350W        W21283  44.765  16.765   4.775
57351W        W21284  35.012  38.341  11.905
57352W        W21285  25.975  41.369  10.076
57353W        W21286  27.679  17.269  14.875
57354W        W21287  43.292   3.876  10.997
57355W        W21288  18.139  25.628  14.868
57356W        W21289   2.439  10.656  12.437
57357W        W21290  40.345  29.018   3.827
57358W        W21291   4.889  33.938   2.411
57359W        W21292  36.567  32.125   1.700
57360W        W21293  41.396  15.326  13.827
57361W        W21294  23.511  29.114   0.397
57362W        W21295   4.884  23.192  13.991
57363W        W21296  23.535   4.741  12.004
57364W        W21297  28.040  34.934  12.881
57365W        W21298  43.007   2.888   4.172
57366W        W21299   7.776  16.669  13.352
57367W        W21300  26.205  10.142  11.076
57368W        W21301  21.571  42.880   4.325
57369W        W21302   2.857   0.955  13.841
57370W        W21303  13.262  31.052  12.357
57371W        W21304  37.868   4.726   1.913
57372W        W21305  37.018   1.480  13.524
57373W        W21306   0.439  38.388   4.149
57374W        W21307  17.754   7.410   3.694
57375W        W21308  30.449   8.851   2.362
57376W        W21309   5.307  40.418  10.530
57377W        W21310  29.466  37.383  10.141
57378W        W21311   4.765  11.675  14.401
57379W        W21312  39.983  12.151   1.391
57380W        W21313  33.028   4.883   1.701
57381W        W21314  26.518  31.448  14.376
57382W        W21315  41.330  15.241  11.037
57383W        W21316   9.190  29.660  10.047
57384W        W21317  16.719  44.329   0.740
57385W        W21318  23.094  32.009  13.797
57386W        W21319   6.405  13.322  14.358
57387W        W21320  35.391  27.134   3.682
57388W        W21321  17.297  35.023   0.741
57389W        W21322  34.482  14.211   2.772
57390W        W21323  26.520  44.494   2.303
57391W        W21324  15.603  11.161   0.401
57392W        W21325  19.777   1.330  10.456
57393W        W21326  36.354  35.541   1.318
57394W        W21327  37.467  26.534   3.378
57395W        W21328  27.641  38.037   0.291
57396W        W21329  29.109  38.521  12.382
57397W        W21330   6.729  39.921   1.267
57398W        W21331   8.748  13.168   3.663
57399W        W21332  27.578  23.992   1.817
57400W        W21333  33.974  33.428   0.934
57401W        W21334  17.118   5.437   0.446
57402W        W21335  34.506   2.428   2.793
57403W        W21336   0.350  32.097   5.107
57404W        W21337   9.842  15.679  12.567
57405W        W21338   3.312  28.558  14.313
57406W        W21339  36.050   0.821   3.346
57407W        W21340  44.288  26.150   0.449
57408W        W21341   3.411  34.473   2.302
57409W        W21342  18.664  41.791  12.340
57410W        W21343  31.528  32.573   2.409
57411W        W21344  43.966  15.687  11.088
57412W        W21345  32.932  12.856  13.473
57413W        W21346  24.639  15.325   2.412
57414W        W21347   2.833  44.357  12.501
57415W        W21348  21.140  26.964  11.419
57416W        W21349  14.626  31.934   1.327
57417W        W21350  18.601  20.652   4.825
57418W        W21351   9.797  20.063   3.647
57419W        W21352  26.559   0.898   2.804
57420W        W21353   9.360  43.502   1.737
57421W        W21354  39.840  28.980   4.164
57422W        W21355  27.598   6.829  14.032
57423W        W21356  18.133  19.144   0.836
57424W        W21357  16.566   7.789  11.979
57425W        W21358  44.325  31.402   4.675
57426W        W21359   0.939  26.683   0.381
57427W        W21360  26.640  31.504  11.580
57428W        W21361  12.688   5.301   3.321
57429W        W21362  33.013   2.327   2.410
57430W        W21363  29.486  29.954   2.283
57431W        W21364   7.374  13.644  13.859
57432W        W21365  14.675  13.827   3.347
57433W        W21366  18.551   6.801  11.908
57434W        W21367  21.723   2.230   3.364
57435W        W21368  41.482  27.191   1.757
57436W        W21369   8.197  22.502  11.504
57437W        W21370  31.403   0.812  13.438
57438W        W21371   1.888   4.432   1.278
57439W        W21372  32.069  34.994  12.379
57440W        W21373  29.005   8.874   4.612
57441W        W21374  20.647  31.568  13.876
57442W        W21375   3.229  41.968   5.209
57443W        W21376   6.249  40.913  12.893
57444W        W21377  41.524  24.998   3.721
57445W        W21378  22.120  21.602   3.173
57446W        W21379  26.554  12.636  14.893
57447W        W21380   1.868  41.358  10.896
57448W        W21381  32.459  10.768  14.003
57449W        W21382  23.706  11.356   0.797
57450W        W21383  42.471  27.562   1.225
57451W        W21384  33.438  15.717   3.674
57452W        W21385  43.993  39.039  11.552
57453W        W21386  22.582  33.879   4.644
57454W        W21387  42.473  20.159  14.327
57455W        W21388  17.636   0.269   4.240
57456W        W21389  23.071  25.572  10.480
57457W        W21390  12.716  39.887   3.296
57458W        W21391  22.541  20.597   1.226
57459W        W21392  16.246  19.146  10.597
57460W        W21393  37.945  23.018  11.855
57461W        W21394  12.270   0.485   0.465
57462W        W21395  33.088  18.250  11.123
57463W        W21396  35.428  43.892  13.424
57464W        W21397  23.143  29.533   1.340
57465W        W21398  35.923  33.534   2.739
57466W        W21399  24.099  33.526   4.187
57467W        W21400  18.247   7.877  12.883
57468W        W21401  29.540  34.016   0.750
57469W        W21402  21.729  30.489   3.262
57470W        W21403  31.534   4.874   0.447
57471W        W21404   6.777  27.549   4.660
57472W        W21405  31.999  42.910   3.798
57473W        W21406  32.567  28.980   0.946
57474W        W21407   0.951   0.409   3.171
57475W        W21408  32.089  32.472   2.902
57476W        W21409   3.319  38.961  11.123
57477W        W21410  15.320   5.732   2.756
57478W        W21411  40.857  20.166   2.833
57479W        W21412  31.123   6.237  10.612
57480W        W21413   7.682  19.612   4.688
57481W        W21414   0.957   0.379   4.298
57482W        W21415  25.976  32.577  13.853
57483W        W21416  35.998  13.746   3.250
57484W        W21417  41.019  37.363  14.966
57485W        W21418  29.977  39.517  11.086
57486W        W21419  36.427  13.692  12.945
57487W        W21420   1.381  29.922  10.495
57488W        W21421  18.188  22.198  14.804
57489W        W21422  31.599  27.512  14.435
57490W        W21423  13.189   8.843  11.488
57491W        W21424   4.928   6.780  14.777
57492W        W21425  38.388  26.092  11.564
57493W        W21426  16.309  21.203  12.950
57494W        W21427  21.139   0.925  12.404
57495W        W21428  29.657  11.849   2.669
57496W        W21429   6.915  36.000   0.888
57497W        W21430  39.322  27.978   4.318
57498W        W21431  39.348  40.348  13.853
57499W        W21432  44.958  37.936  13.827
57500W        W21433  43.469  11.779   9.924
57501W        W21434  33.525  19.576   1.801
57502W        W21435  31.019  39.438  14.478
57503W        W21436  38.040  11.274  12.838
57504W        W21437  23.545  16.790  14.817
57505W        W21438  38.328  10.226  13.505
57506W        W21439  38.383  18.081  11.933
57507W        W21440  26.953  22.062  14.792
57508W        W21441  38.453  14.719   2.884
57509W        W21442  41.349  13.306  10.535
57510W        W21443  14.604  13.295  11.962
57511W        W21444  27.595  18.232  13.011
57512W        W21445  15.192   9.691  11.031
57513W        W21446  21.561  15.146   3.704
57514W        W21447  44.465   4.257  14.011
57515W        W21448   8.852  21.179   5.317
57516W        W21449  11.648   9.200  13.392
57517W        W21450  35.088  19.217   4.654
57518W        W21451   9.714  12.712  14.322
57519W        W21452  42.468  28.608   3.840
57520W        W21453  44.771  38.016   0.337
57521W        W21454  11.200  37.397  14.471
57522W        W21455  15.701   9.173  12.975
57523W        W21456  18.757  43.420  11.902
57524W        W21457  24.103  24.100   4.745
57525W        W21458  17.652  21.070   2.345
57526W        W21459   9.764   1.972  11.124
57527W        W21460  41.416  30.479   1.731
57528W        W21461  38.410  30.090   3.846
57529W        W21462  30.654  10.677   2.355
57530W        W21463   4.890  11.659  10.628
57531W        W21464  39.316  40.802  12.516
57532W        W21465  40.935  12.264   3.148
57533W        W21466  30.529  18.588   4.688
57534W        W21467  22.635  32.038   2.696
57535W        W21468  38.842   1.927   3.635
57536W        W21469  24.176  39.820  12.350
57537W        W21470  17.566  10.824  14.967
57538W        W21471  23.512  17.789  11.377
57539W        W21472   4.906  23.552   2.893
57540W        W21473  32.609   9.324   3.208
57541W        W21474  11.321  17.568  13.021
57542W        W21475  36.871  43.367   4.303
57543W        W21476  13.336  34.477  12.532
57544W        W21477  43.384  32.512   0.967
57545W        W21478  10.196  14.159  11.524
57546W        W21479  38.990  13.134   4.610
57547W        W21480  36.967   2.243  10.463
57548W        W21481  34.903  16.140  13.309
57549W        W21482  42.521  29.156  14.798
57550W        W21483  10.824   4.383   0.865
57551W        W21484   5.408  39.968  10.996
57552W        W21485  43.365  11.799   0.310
57553W        W21486  32.397   3.719   2.409
57554W        W21487   6.859   6.828   2.359
57555W        W21488  40.037  16.204  12.935
57556W        W21489  22.241  17.590   2.852
57557W        W21490  41.999  33.895   1.885
57558W        W21491  27.513  23.113   0.805
57559W        W21492   1.755   8.654  14.032
57560W        W21493  42.448  29.551  10.976
57561W        W21494  42.968  26.060   2.819
57562W        W21495  12.272  34.879  12.447
57563W        W21496  31.408   5.339  13.795
57564W        W21497  43.355  31.570  13.387
57565W        W21498  19.767  26.531   4.189
57566W        W21499  19.268  41.298   3.691
57567W        W21500  14.664  14.325   9.965
57568W        W21501  24.002  23.177  14.013
57569W        W21502   4.315  38.864   2.880
57570W        W21503   7.380  31.145  12.504
57571W        W21504  24.117  10.732  14.792
57572W        W21505  21.549  22.728  14.947
57573W        W21506   2.857  38.396   3.352
57574W        W21507   2.329  44.305  14.900
57575W        W21508  19.631  39.328   1.343
57576W        W21509  22.104  19.057   0.775
57577W        W21510  38.919  34.480  12.886
57578W        W21511  39.836  42.307  11.121
57579W        W21512  35.042  15.227   4.811
57580W        W21513  27.983  27.942  14.899
57581W        W21514  25.962  25.705   0.758
57582W        W21515  19.627  36.054   3.185
57583W        W21516  31.646  21.149  13.372
57584W        W21517  12.821  13.105   2.836
57585W        W21518  25.986   4.932   0.465
57586W        W21519   8.885  38.036  14.370
57587W        W21520  10.813  37.358  11.600
57588W        W21521  39.919   7.316   2.676
57589W        W21522   3.835  36.955  14.768
57590W        W21523   3.804  37.002  10.450
57591W        W21524  22.642   0.762   1.831
57592W        W21525  29.079  25.536  12.846
57593W        W21526  43.945  26.207  13.337
57594W        W21527  43.900  27.108  12.434
57595W        W21528   6.719  32.988  10.900
57596W        W21529   0.829   3.868  11.379
57597W        W21530  33.075  13.146   1.424
57598W        W21531  35.585  13.732   0.333
57599W        W21532  39.328  43.372   2.766
57600W        W21533  40.526   9.796   1.925
57601W        W21534   8.872  15.329  13.054
57602W        W21535   9.736  32.056   4.188
57603W        W21536   1.754  18.274  13.354
57604W        W21537  26.690  38.977   3.715
57605W        W21538  24.596  17.681   2.418
57606W        W21539  38.414  38.548  11.047
57607W        W21540  41.891   6.304   4.279
57608W        W21541  14.152   7.791   2.320
57609W        W21542  41.428   3.710   2.355
57610W        W21543  12.276  30.416  14.021
57611W        W21544  33.452  32.038  10.548
57612W        W21545  19.636  34.904   0.734
57613W        W21546  20.759  43.393  13.508
57614W        W21547   7.207  33.585   1.295
57615W        W21548  25.986   6.262  13.310
57616W        W21549  19.195   4.398   4.273
57617W        W21550  14.680  15.719   4.178
57618W        W21551   9.270  18.129  11.961
57619W        W21552  34.068  16.111   3.701
57620W        W21553  41.464  23.001   2.792
57621W        W21554  11.648  10.742  11.099
57622W        W21555   4.807   9.750   2.336
57623W        W21556  34.509  37.082  14.279
57624W        W21557  40.357  15.106   3.660
57625W        W21558  11.228  18.776  14.443
57626W        W21559  20.216  35.400  10.543
57627W        W21560  29.069  36.050   3.339
57628W        W21561  35.547  41.409  14.494
57629W        W21562  37.086  31.613   3.712
57630W        W21563  39.522  40.803  11.973
57631W        W21564   9.357  32.465   2.694
57632W        W21565  26.511  19.061  11.572
57633W        W21566  13.164   8.199   5.144
57634W        W21567  10.211  20.105   4.223
57635W        W21568  17.124  14.185  11.992
57636W        W21569  20.111  38.508   3.656
57637W        W21570  40.910  35.428  14.782
57638W        W21571   2.235   9.852   1.719
57639W        W21572  18.207  40.384  12.403
57640W        W21573  43.383  10.335   2.689
57641W        W21574  15.118   4.234   2.317
57642W        W21575   6.386  27.186  11.095
57643W        W21576  43.381  34.972  12.576
57644W        W21577  21.111  35.003   4.790
57645W        W21578  22.646  12.771  12.903
57646W        W21579  15.809  19.681   3.245
57647W        W21580  42.860  41.851   1.746
57648W        W21581  43.823  38.556  12.430
57649W        W21582  26.988  34.425  12.962
57650W        W21583  12.234   7.782   0.307
57651W        W21584  23.718  29.144  10.514
57652W        W21585   1.369  30.651   1.737
57653W        W21586  10.638  28.985  14.429
57654W        W21587   1.894  31.509  11.918
57655W        W21588  25.000  44.265  14.814
57656W        W21589  24.085  29.500   5.312
57657W        W21590  24.171   4.249  13.523
57658W        W21591  25.637  35.493   2.732
57659W        W21592   1.922  35.501  13.907
57660W        W21593   9.153  44.333   3.378
57661W        W21594  16.109  17.103   2.318
57662W        W21595  23.619  19.570  12.341
57663W        W21596  14.771  25.609   2.236
57664W        W21597   3.280  34.001  11.058
57665W        W21598  20.041  12.340   3.818
57666W        W21599  43.764  31.039  11.926
57667W        W21600  40.423  32.892  11.463
57668W        W21601  38.070  23.567   2.406
57669W        W21602  20.159  42.453  10.638
57670W        W21603  37.074   7.182   3.364
57671W        W21604  38.825  37.574   1.763
57672W        W21605  10.787  28.615   3.831
57673W        W21606   6.418  13.631   9.518
57674W        W21607  43.927  30.986  14.390
57675W        W21608  10.831  22.531   2.728
57676W        W21609  44.963  32.985   1.913
57677W        W21610  22.025   8.817   4.620
57678W        W21611  10.385  17.799   3.655
57679W        W21612  19.593  35.417   2.264
57680W        W21613   6.678  29.590  12.392
57681W        W21614  33.032  36.845  11.042
57682W        W21615  21.147  12.228  14.314
57683W        W21616  42.920   4.234  13.534
57684W        W21617  17.604  23.551   1.239
57685W        W21618  44.886  21.625   2.663
57686W        W21619  40.310   9.652  12.030
57687W        W21620   1.975  26.568  11.057
57688W        W21621  41.974  40.488  11.938
57689W        W21622  25.976   4.816   1.339
57690W        W21623  31.027  43.852  13.548
57691W        W21624  14.213  10.224  11.892
57692W        W21625  29.609  42.293  10.441
57693W        W21626   9.756  32.137  14.916
57694W        W21627  22.056   7.412  14.303
57695W        W21628  21.749   4.910  12.445
57696W        W21629  41.891  41.023  14.814
57697W        W21630  34.436  27.971  13.530
57698W        W21631  12.315  37.868   0.943
57699W        W21632  24.707  21.708   2.772
57700W        W21633  34.880  19.657  12.479
57701W        W21634  26.489  12.287  14.331
57702W        W21635  31.627   4.414   4.801
57703W        W21636  25.193  12.665   1.780
57704W        W21637   3.388  25.707  13.886
57705W        W21638   2.941  36.884   4.836
57706W        W21639  14.217  42.977  14.341
57707W        W21640  31.933  34.110  11.027
57708W        W21641   6.269  33.498  11.088
57709W        W21642  40.815  42.513  11.930
57710W        W21643  14.228  34.920   0.462
57711W        W21644  25.519   3.828   4.293
57712W        W21645  12.219  19.706   4.287
57713W        W21646  32.467  42.890  12.905
57714W        W21647   7.387  19.169   1.311
57715W        W21648  26.520  16.644  12.409
57716W        W21649   2.879  24.556   3.634
57717W        W21650  42.778  42.805   2.755
57718W        W21651  21.529  31.445  11.093
57719W        W21652  40.438  23.590  13.421
57720W        W21653  40.401   8.809   1.290
57721W        W21654  18.707  37.452  13.399
57722W        W21655  20.621  14.792   4.179
57723W        W21656   5.911  22.588   1.858
57724W        W21657  43.349  33.486   0.253
57725W        W21658   5.888  43.799  14.306
57726W        W21659  14.189   4.741  10.993
57727W        W21660  43.965   7.708  13.042
57728W        W21661  22.067  22.739   4.197
57729W        W21662  19.115  29.528  14.788
57730W        W21663  17.744  37.051  10.548
57731W        W21664  29.641  25.971   4.816
57732W        W21665   6.814  23.100   5.188
57733W        W21666   9.296  28.129   4.705
57734W        W21667   0.377  30.027  12.941
57735W        W21668  32.971  17.090  12.975
57736W        W21669  18.758  16.319  12.480
57737W        W21670  23.207  19.598   2.248
57738W        W21671  19.755  35.076   1.894
57739W        W21672  42.962  43.933  14.836
57740W        W21673  26.615  16.600  11.505
57741W        W21674  42.918  27.196  10.581
57742W        W21675  13.206  31.508   1.341
57743W        W21676  13.257  15.084  14.323
57744W        W21677  23.238  24.034  11.941
57745W        W21678   2.437   7.207   0.378
57746W        W21679  32.110  43.441  10.911
57747W        W21680   6.306   2.399   2.901
57748W        W21681  25.518   3.215   0.393
57749W        W21682   3.448  31.625   0.905
57750W        W21683  29.594  38.450   2.361
57751W        W21684   7.763  10.155   5.301
57752W        W21685  22.116   5.322  12.575
57753W        W21686  30.606  19.195  13.363
57754W        W21687  28.941  40.801   2.805
57755W        W21688  18.771  26.558  14.026
57756W        W21689  24.489  10.312   4.322
57757W        W21690   7.749  40.909   1.714
57758W        W21691  38.959   4.205  11.126
57759W        W21692  29.081  36.880  10.406
57760W        W21693   0.458  15.584  11.439
57761W        W21694  35.371  17.133   4.674
57762W        W21695   0.747  30.053  12.418
57763W        W21696   6.824   2.858   1.725
57764W        W21697  22.667  20.074   4.183
57765W        W21698  29.111  14.338  12.937
57766W        W21699  33.585  27.506  13.977
57767W        W21700  26.692   1.277  14.771
57768W        W21701  25.022  38.354   4.782
57769W        W21702  42.324  34.458   4.283
57770W        W21703  12.737   8.865  12.059
57771W        W21704   3.884  22.251  13.040
57772W        W21705  20.533  15.265  11.880
57773W        W21706  43.306  23.011  12.081
57774W        W21707  29.120   2.742   4.675
57775W        W21708   5.706  19.171   4.295
57776W        W21709  34.915  25.536  14.015
57777W        W21710  11.645  38.356   4.641
57778W        W21711  43.501  18.214  13.004
57779W        W21712  34.056   8.674   2.826
57780W        W21713  33.919   2.446  11.563
57781W        W21714   1.241   6.239  14.414
57782W        W21715  24.479   3.940  13.976
57783W        W21716  35.446  29.938  12.347
57784W        W21717  35.012  44.940   4.770
57785W        W21718  22.665   8.900  10.026
57786W        W21719  44.314   1.768   1.290
57787W        W21720  22.107  23.146   3.861
57788W        W21721   5.820  36.405   3.369
57789W        W21722  16.760  33.400   1.721
57790W        W21723  26.694   1.261  13.956
57791W        W21724  29.984  43.294   4.268
57792W        W21725  41.872  25.603   3.290
57793W        W21726   6.802  22.233   4.254
57794W        W21727  18.633  36.983  11.893
57795W        W21728   4.305  31.493   4.138
57796W        W21729  23.235   5.273  11.919
57797W        W21730  20.068  25.041   1.263
57798W        W21731  18.617   7.869   2.328
57799W        W21732  22.103  32.921   0.278
57800W        W21733  22.149  28.603   4.822
57801W        W21734  42.322  23.196   4.835
57802W        W21735  26.693   7.418   0.873
57803W        W21736   3.927   5.281   0.871
57804W        W21737  34.966  17.688  13.847
57805W        W21738  38.479   3.234  12.982
57806W        W21739  35.570  42.342  11.871
57807W        W21740  17.069   1.461  12.897
57808W        W21741   1.274  42.426   3.215
57809W        W21742  16.593  31.065  10.510
57810W        W21743   6.706  38.375   2.222
57811W        W21744  24.022  36.889   4.636
57812W        W21745  12.826  26.581  10.924
57813W        W21746  34.409  27.617  13.526
57814W        W21747  29.087  16.578   2.828
57815W        W21748   8.189  21.721  10.436
57816W        W21749   5.731  13.315  10.965
57817W        W21750  13.240  32.907  12.932
57818W        W21751  43.870  35.578   0.304
57819W        W21752  13.156  33.501  12.847
57820W        W21753  41.008  36.886  12.031
57821W        W21754  10.747  40.496  13.363
57822W        W21755  23.022  33.014  13.440
57823W        W21756  42.013   5.263   4.825
57824W        W21757   8.743  37.946   4.835
57825W        W21758   7.798  31.941   2.263
57826W        W21759  44.331  44.911   3.662
57827W        W21760   5.306  29.474  11.970
57828W        W21761  12.665  12.308  13.313
57829W        W21762  38.363  27.669   1.396
57830W        W21763  26.511  38.840  12.522
57831W        W21764  32.553   8.394   1.277
57832W        W21765  11.726   3.395   9.983
57833W        W21766  15.609  28.960   4.824
57834W        W21767  13.124   0.847  11.445
57835W        W21768   3.340  37.087  13.363
57836W        W21769  17.185  10.256   3.199
57837W        W21770  10.208   6.412   0.820
57838W        W21771  21.751  14.834  12.517
57839W        W21772  24.163  36.378  10.994
57840W        W21773  22.117  29.075   4.676
57841W        W21774  43.771   4.279   4.761
57842W        W21775   8.683   0.742  10.538
57843W        W21776  29.584  13.246   4.217
57844W        W21777   4.230  31.626   2.192
57845W        W21778  22.168   7.378  13.436
57846W        W21779  14.807   4.726   1.442
57847W        W21780  22.214   2.874   4.328
57848W        W21781  14.110  42.365  13.803
57849W        W21782  10.796  43.844   3.866
57850W        W21783  32.532  15.145   0.888
57851W        W21784  42.776   9.216  12.422
57852W        W21785  22.038  20.578   4.349
57853W        W21786  37.889  13.291  12.443
57854W        W21787  13.712   0.435  14.433
57855W        W21788  43.767  44.977  11.864
57856W        W21789  33.997  43.000  13.488
57857W        W21790  41.380  24.493   2.217
57858W        W21791  33.503  28.443   0.255
57859W        W21792  34.943  18.765  12.438
57860W        W21793  35.441   7.889   4.805
57861W        W21794  42.937  40.861  11.590
57862W        W21795  11.217  11.652  14.844
57863W        W21796  35.420  36.531   1.918
57864W        W21797  17.145  14.304   0.377
57865W        W21798  17.720   6.235   3.728
57866W        W21799  35.905  22.576   1.876
57867W        W21800  22.182  16.100  14.387
57868W        W21801  28.456   1.925   4.265
57869W        W21802  33.946  30.081   2.795
57870W        W21803  12.167  35.881   3.839
57871W        W21804   6.786   6.920  13.940
57872W        W21805   0.834  44.774   0.304
57873W        W21806  40.458  41.297   3.638
57874W        W21807  43.950  10.705   4.687
57875W        W21808  42.948   7.746  11.456
57876W        W21809  40.380  40.372  10.026
57877W        W21810   4.885  15.777  10.458
57878W        W21811  25.493  19.648  11.972
57879W        W21812  34.945  39.364  14.806
57880W        W21813  20.701  18.778  13.873
57881W        W21814   1.346  22.612  14.949
57882W        W21815   5.371   8.742   3.635
57883W        W21816  29.474  12.678   0.246
57884W        W21817  28.567   6.378  11.925
57885W        W21818  26.126   5.203  13.869
57886W        W21819  33.013  40.862   0.934
57887W        W21820  13.616  28.566  12.839
57888W        W21821  20.044   9.173   3.273
57889W        W21822   3.856  37.505   1.861
57890W        W21823   0.975  17.301   4.347
57891W        W21824  21.749  37.075  14.420
57892W        W21825   0.342  18.562   3.819
57893W        W21826  16.663   8.888   1.267
57894W        W21827  26.129  26.691  14.470
57895W        W21828  17.724   7.391   9.989
57896W        W21829  18.549  35.572   3.365
57897W        W21830  22.169  27.514   1.421
57898W        W21831  34.422  38.951  13.404
57899W        W21832  22.080  30.513   2.810
57900W        W21833  17.142   0.772   5.257
57901W        W21834  28.989  40.470   2.317
57902W        W21835  28.489  43.487   0.293
57903W        W21836  42.837  16.193  11.061
57904W        W21837  44.454  28.582   1.381
57905W        W21838  30.596  23.509  11.436
57906W        W21839  44.772   2.261   4.225
57907W        W21840  12.671  18.600  10.428
57908W        W21841  15.681  35.087  13.535
57909W        W21842  12.279  39.440  10.464
57910W        W21843  43.479  15.646  11.566
57911W        W21844   3.915  33.599   0.870
57912W        W21845   0.344  34.941   0.939
57913W        W21846  17.685  34.573   0.900
57914W        W21847   0.255  14.651   0.474
57915W        W21848  30.158  25.029  13.518
57916W        W21849  38.859  12.754  10.998
57917W        W21850  21.155  44.349   3.693
57918W        W21851  21.042   8.667   4.781
57919W        W21852  23.202  25.607   4.797
57920W        W21853   1.958  43.499   4.641
57921W        W21854  20.148  13.834  11.393
57922W        W21855  25.161   3.413   4.244
57923W        W21856  37.924  11.763   2.328
57924W        W21857   9.859   9.786  13.535
57925W        W21858  40.442   5.761   0.847
57926W        W21859  11.327  40.500   1.716
57927W        W21860   0.402  39.959   4.267
57928W        W21861  33.447  31.912   9.951
57929W        W21862  15.695  39.395   0.895
57930W        W21863  37.071  20.709  14.964
57931W        W21864  34.077  20.746  11.882
57932W        W21865  16.656   7.821   3.816
57933W        W21866   5.403  38.397  11.554
57934W        W21867  41.431  39.400   2.301
57935W        W21868  14.609  24.496  14.973
57936W        W21869  17.741  42.406   4.135
57937W        W21870  36.918  24.194   4.620
57938W        W21871   7.672  34.939  10.488
57939W        W21872   9.217   3.790   1.312
57940W        W21873  22.131  36.534   3.767
57941W        W21874  37.456  25.696  11.539
57942W        W21875   4.771  26.133  10.982
57943W        W21876  15.755   1.735   0.761
57944W        W21877   5.709  24.664  11.498
57945W        W21878  15.578  25.002   3.643
57946W        W21879  10.192  16.083   1.352
57947W        W21880  37.582   3.743  12.950
57948W        W21881   2.779  39.519  12.451
57949W        W21882  13.233  18.116   1.416
57950W        W21883  30.465  29.056   2.777
57951W        W21884  40.049  12.637  12.042
57952W        W21885  17.192   9.739   0.363
57953W        W21886  17.652   5.286   0.315
57954W        W21887  33.036  27.104   4.733
57955W        W21888  14.625  12.710  14.996
57956W        W21889  36.521  40.527   3.818
57957W        W21890  37.486  35.450  10.574
57958W        W21891  38.001  15.139  10.494
57959W        W21892  27.025  22.618  11.876
57960W        W21893  42.360  34.863  13.449
57961W        W21894  25.555  43.410  11.859
57962W        W21895  36.094  24.601   1.835
57963W        W21896  42.505   4.885   0.265
57964W        W21897   6.370  32.959   3.198
57965W        W21898  23.238  26.166  12.913
57966W        W21899  40.437  21.229  11.915
57967W        W21900  26.625  12.847   0.956
57968W        W21901  23.554   2.457   4.286
57969W        W21902  32.076  25.027  13.434
57970W        W21903   3.330  39.897   4.687
57971W        W21904  42.428  40.809   4.250
57972W        W21905  28.004  12.161  12.006
57973W        W21906  14.111  39.837  10.938
57974W        W21907  36.422  16.286  14.848
57975W        W21908  36.950  43.290   3.150
57976W        W21909  23.561  20.139   0.750
57977W        W21910   1.858  33.893   1.911
57978W        W21911  41.344  22.132   1.766
57979W        W21912  35.880  34.906   2.717
57980W        W21913  40.537  41.356   0.316
57981W        W21914  28.679   9.879  10.922
57982W        W21915  42.389  43.807   3.722
57983W        W21916   6.714  10.656   0.478
57984W        W21917  37.419  20.665   2.240
57985W        W21918  21.071  18.056   0.961
57986W        W21919  21.060  12.670  12.397
57987W        W21920  33.524  35.089  13.448
57988W        W21921   6.418  25.492  11.448
57989W        W21922   7.901  40.520   1.223
57990W        W21923  41.414  33.913   1.253
57991W        W21924  12.830   5.222  11.868
57992W        W21925   5.787  37.468   1.852
57993W        W21926  22.025  28.971   3.669
57994W        W21927  29.651   8.331   2.265
57995W        W21928  27.463  11.251   4.767
57996W        W21929  31.544  43.424   0.733
57997W        W21930  44.446  31.121  12.481
57998W        W21931  17.626   6.184  12.397
57999W        W21932  17.599  24.989   2.327
58000W        W21933   7.386   3.924  11.870
58001W        W21934  17.623  12.749   4.162
58002W        W21935  35.439  39.024  14.301
58003W        W21936  31.579  12.841   1.441
58004W        W21937   2.424  10.228   5.317
58005W        W21938  37.953  24.216  12.008
58006W        W21939  25.593  12.824   3.331
58007W        W21940   3.857  37.541  13.348
58008W        W21941  44.894  39.829  12.504
58009W        W21942  17.685  38.031  13.885
58010W        W21943  29.040   0.988  10.923
58011W        W21944   7.367  17.205   0.345
58012W        W21945   3.334  21.156   1.806
58013W        W21946  16.220  30.151  14.335
58014W        W21947  15.173  28.668   2.416
58015W        W21948  37.969  23.050  11.036
58016W        W21949  31.065  15.704   4.791
58017W        W21950  29.124  28.657  14.987
58018W        W21951  20.674  19.564  11.884
58019W        W21952  14.816  41.807   4.722
58020W        W21953  26.002  29.520  14.450
58021W        W21954  36.970  20.264   1.773
58022W        W21955  33.404  20.216   4.776
58023W        W21956  10.767  26.999  11.074
58024W        W21957  35.008  17.080  13.424
58025W        W21958  18.178  33.949   0.444
58026W        W21959  30.485  41.512  13.531
58027W        W21960  17.186  36.498   3.277
58028W        W21961  41.907  42.395   4.606
58029W        W21962   5.403  24.668   4.225
58030W        W21963  32.944  20.626   1.315
58031W        W21964  34.589   2.862  13.491
58032W        W21965  24.586  22.101   1.913
58033W        W21966  40.876  33.509  12.072
58034W        W21967  38.336   1.806   0.430
58035W        W21968  40.030  43.777  11.900
58036W        W21969  23.567  24.128  11.904
58037W        W21970   9.885  37.370  13.833
58038W        W21971  18.091  24.509  10.440
58039W        W21972  42.011  18.784   0.384
58040W        W21973   2.860  23.550   1.733
58041W        W21974  17.175   8.664   9.954
58042W        W21975  23.608   2.388  12.959
58043W        W21976  32.586  44.872  13.337
58044W        W21977  34.038  21.718   3.758
58045W        W21978   5.744  15.103  10.991
58046W        W21979  34.422  18.183   0.372
58047W        W21980   0.321  38.429  11.034
58048W        W21981  44.418  28.028  13.846
58049W        W21982  33.878  30.568   2.410
58050W        W21983   2.774   5.207  14.304
58051W        W21984  35.522   6.713   0.348
58052W        W21985  14.157  11.759   1.772
58053W        W21986  43.998  22.633  13.890
58054W        W21987   9.383  26.203   3.698
58055W        W21988  14.252  39.903   4.622
58056W        W21989   8.263  12.815  12.498
58057W        W21990  32.403  19.614   1.846
58058W        W21991  32.908  15.301   2.292
58059W        W21992   3.230  42.341  12.411
58060W        W21993   4.433  25.590   5.804
58061W        W21994  39.477  24.540  13.973
58062W        W21995  27.600  25.971   3.266
58063W        W21996  18.232  21.716   1.729
58064W        W21997   9.157  13.613  12.834
58065W        W21998   3.930  23.539  12.913
58066W        W21999  18.546   5.815   2.825
58067W        W22000   1.276  37.025   2.780
58068W        W22001  25.216   0.259   3.774
58069W        W22002   0.957  38.856  13.032
58070W        W22003  10.356  24.507   1.250
58071W        W22004  21.134   1.797   3.683
58072W        W22005   6.834  24.142   4.196
58073W        W22006  14.273   0.433  11.906
58074W        W22007  18.716   7.670  11.398
58075W        W22008  14.627  21.158  14.439
58076W        W22009  36.086  11.697  11.509
58077W        W22010  10.839  43.927   4.346
58078W        W22011  39.861  21.176  13.536
58079W        W22012  17.080   3.751  12.476
58080W        W22013  34.111   8.658  14.398
58081W        W22014  39.833  24.638   2.836
58082W        W22015   9.205  11.834   2.853
58083W        W22016  29.979  14.104   0.952
58084W        W22017   1.738  10.701   2.362
58085W        W22018  36.390  44.442   4.832
58086W        W22019  12.198  44.407   1.447
58087W        W22020  11.853  37.358   2.360
58088W        W22021  26.569   4.268   1.829
58089W        W22022  21.079  27.560   2.217
58090W        W22023   3.932  36.033   3.148
58091W        W22024  23.081  36.072   1.318
58092W        W22025  24.615   0.824   1.879
58093W        W22026   9.343  12.798  11.488
58094W        W22027  13.650  34.090  12.519
58095W        W22028  35.419  40.504   0.477
58096W        W22029  12.136  12.291   1.888
58097W        W22030   2.958   1.469  14.808
58098W        W22031  41.960  20.577   0.732
58099W        W22032   8.386  30.926  13.455
58100W        W22033  26.529  42.341   5.120
58101W        W22034   3.278  23.211   1.815
58102W        W22035  18.623  42.397   1.827
58103W        W22036  44.963  39.491   4.795
58104W        W22037  17.611  26.965  13.387
58105W        W22038   6.744  17.129   1.914
58106W        W22039  18.620  34.955  14.360
58107W        W22040  33.389  15.133  11.988
58108W        W22041  26.559   7.872  12.078
58109W        W22042  39.431  29.124   4.166
58110W        W22043  20.117  17.567  13.453
58111W        W22044  27.658  36.461  11.454
58112W        W22045  34.889  24.510  10.993
58113W        W22046  40.319   9.778   1.320
58114W        W22047  43.825   2.346  11.089
58115W        W22048  36.047   9.237   0.765
58116W        W22049  25.697   5.735  11.450
58117W        W22050  28.104   8.215  11.608
58118W        W22051  31.646   8.865   1.771
58119W        W22052  43.946  43.863   0.478
58120W        W22053  13.661  11.208  12.935
58121W        W22054   7.811  15.123  11.379
58122W        W22055  13.148   2.849  14.508
58123W        W22056  36.451  36.896   0.862
58124W        W22057   7.232  34.907  13.054
58125W        W22058  32.519  37.973  11.031
58126W        W22059  44.833  13.176   1.320
58127W        W22060  20.615  16.621  10.633
58128W        W22061  27.473  41.367  14.448
58129W        W22062  11.361   2.796  12.931
58130W        W22063   0.403   2.845   0.308
58131W        W22064  30.575  17.262   1.769
58132W        W22065   6.350   7.377  11.934
58133W        W22066  13.655  18.164   2.739
58134W        W22067  27.961  11.298   2.700
58135W        W22068  25.139  28.152  10.468
58136W        W22069  32.918  38.388   2.418
58137W        W22070   0.487  26.098   2.248
58138W        W22071   2.298  24.225  13.817
58139W        W22072  23.107  38.549  13.956
58140W        W22073  11.368  28.551   1.225
58141W        W22074   5.254  33.610   2.264
58142W        W22075  31.641  40.911  14.379
58143W        W22076  34.896  21.638  14.895
58144W        W22077  38.018   2.376   3.867
58145W        W22078  37.432  44.835   3.858
58146W        W22079  15.601  28.667   0.872
58147W        W22080  38.382  42.293  11.033
58148W        W22081  14.706  26.006   4.675
58149W        W22082  35.433  11.723  13.835
58150W        W22083  17.594  32.077  12.836
58151W        W22084  33.959  37.880   1.358
58152W        W22085  37.883  14.696   1.348
58153W        W22086  22.660  22.021   0.774
58154W        W22087   4.781   6.253  12.556
58155W        W22088  38.826  38.354   3.866
58156W        W22089  30.615  39.887   0.768
58157W        W22090  26.677  26.573  11.874
58158W        W22091  41.301  15.635   3.243
58159W        W22092  28.151  26.684  11.904
58160W        W22093  26.043  13.625  10.443
58161W        W22094  12.777   4.834  10.118
58162W        W22095  44.982  16.250   4.831
58163W        W22096  27.943  39.354  12.971
58164W        W22097  31.936   7.872  13.807
58165W        W22098  10.719  23.130   4.291
58166W        W22099   5.809   3.718   3.651
58167W        W22100  19.534  38.452   3.836
58168W        W22101  25.139  35.467   1.416
58169W        W22102   6.765  10.260  13.324
58170W        W22103  22.718   7.283  11.910
58171W        W22104  26.637  12.618   1.265
58172W        W22105   3.797  22.538   3.160
58173W        W22106   8.745   0.291  13.442
58174W        W22107  35.923  26.469  14.377
58175W        W22108  29.555  25.592   0.816
58176W        W22109  23.565  29.465   3.649
58177W        W22110  13.258  43.019   4.753
58178W        W22111  41.800  13.186  11.542
58179W        W22112  38.899  33.032   1.282
58180W        W22113  12.227  23.151   1.391
58181W        W22114   2.294  42.383  12.362
58182W        W22115  38.473  26.000  14.470
58183W        W22116   2.865  16.093   1.314
58184W        W22117  25.669  42.858   2.383
58185W        W22118  12.306  35.987   1.843
58186W        W22119  24.616   3.821   4.609
58187W        W22120  25.708   7.256   9.920
58188W        W22121  37.429   0.297  12.916
58189W        W22122   3.828   4.386   0.459
58190W        W22123   6.230  22.012  13.994
58191W        W22124  28.436  10.203  13.482
58192W        W22125  11.226   9.373  13.825
58193W        W22126  26.133  26.557   2.367
58194W        W22127  29.035  33.453  11.968
58195W        W22128   6.866  20.211   4.669
58196W        W22129   2.885  31.976  12.499
58197W        W22130  17.098  35.863   2.369
58198W        W22131   4.753   9.390   2.820
58199W        W22132  12.197  15.159   1.867
58200W        W22133   3.448  43.473   2.706
58201W        W22134  34.610  37.473  12.864
58202W        W22135  26.084   1.389  14.438
58203W        W22136  19.076  37.964  10.016
58204W        W22137   9.860  20.766  14.412
58205W        W22138   7.320  17.621   0.920
58206W        W22139  41.439  44.428  13.355
58207W        W22140   0.347   0.374   0.334
58208W        W22141  15.744  24.176  12.523
58209W        W22142  38.855  42.336   1.857
58210W        W22143   5.389  18.220  14.385
58211W        W22144  27.484  25.505  13.049
58212W        W22145  26.518  44.798  10.890
58213W        W22146  32.103  17.214  12.016
58214W        W22147  12.117  35.041   0.928
58215W        W22148  31.516  38.963  11.508
58216W        W22149   8.281  34.886   1.742
58217W        W22150  21.122  17.603  14.296
58218W        W22151  18.608  12.362  13.839
58219W        W22152  13.337  13.114   0.334
58220W        W22153  26.630  36.492   1.440
58221W        W22154  39.546  25.009   4.163
58222W        W22155  15.671   1.446  12.839
58223W        W22156  10.747  17.731  12.035
58224W        W22157  15.144  34.567  14.762
58225W        W22158   5.400  33.465  10.059
58226W        W22159  10.873   8.763   4.649
58227W        W22160  28.619  17.259  14.440
58228W        W22161   8.759  10.227   3.146
58229W        W22162   6.407  17.639   3.760
58230W        W22163  40.410  28.026  14.873
58231W        W22164  20.129  22.506  11.597
58232W        W22165   5.813  27.004  10.541
58233W        W22166  34.102   7.322  12.077
58234W        W22167  36.368   7.345  11.537
58235W        W22168   2.464  17.621   2.284
58236W        W22169  11.832  20.619   4.685
58237W        W22170   3.842   9.149  10.492
58238W        W22171   8.267  16.236  11.458
58239W        W22172   6.194  25.150  12.354
58240W        W22173  33.408  42.964   0.321
58241W        W22174  22.183  15.090  11.100
58242W        W22175   0.863  43.996   4.837
58243W        W22176   7.792   5.870   0.850
58244W        W22177  40.878  37.082  12.940
58245W        W22178  26.672   2.768  14.941
58246W        W22179  13.827  22.088   4.207
58247W        W22180  15.130  37.550  14.767
58248W        W22181  16.806  24.576   4.820
58249W        W22182  31.072   9.651   1.751
58250W        W22183  28.933  10.875   3.167
58251W        W22184   6.269   6.881   3.187
58252W        W22185   0.267   9.800   2.731
58253W        W22186  26.548   3.775   4.627
58254W        W22187  31.633   9.885  14.284
58255W        W22188  16.661  14.297  14.418
58256W        W22189  28.658  16.107   2.367
58257W        W22190  25.197  28.088  14.362
58258W        W22191  13.291  13.224   4.688
58259W        W22192  11.221  33.124   1.929
58260W        W22193  11.360  11.204  14.404
58261W        W22194  10.238  23.127   0.352
58262W        W22195  37.841  26.178  11.953
58263W        W22196  15.589  26.563   2.237
58264W        W22197  12.791  41.355  13.031
58265W        W22198   8.200  36.495   1.298
58266W        W22199   4.752  12.129  11.414
58267W        W22200  31.129   2.456  13.830
58268W        W22201   6.261   9.327   3.354
58269W        W22202  28.577  41.438   3.868
58270W        W22203   9.878  32.910   1.899
58271W        W22204  22.067  24.519  11.608
58272W        W22205  36.886  32.938  14.928
58273W        W22206  21.653  13.228  10.437
58274W        W22207   1.245  34.439   2.818
58275W        W22208  11.775  23.563  14.496
58276W        W22209  33.386  15.763   5.246
58277W        W22210  38.367   8.382   0.925
58278W        W22211  37.532  22.226   3.766
58279W        W22212   0.438  30.470   2.373
58280W        W22213   9.313   5.764  12.556
58281W        W22214  20.097  32.606  10.915
58282W        W22215  20.653   2.295   4.836
58283W        W22216  14.637  29.945  10.642
58284W        W22217  39.402  30.151   0.886
58285W        W22218  43.000  13.141   1.309
58286W        W22219  39.356  10.825   0.854
58287W        W22220  35.546  33.621   0.322
58288W        W22221   4.776   6.351  10.922
58289W        W22222  17.557   0.771  11.417
58290W        W22223  34.087  36.842  12.378
58291W        W22224  37.993  35.982  12.000
58292W        W22225  18.074  14.734  11.988
58293W        W22226  16.112  44.359  11.534
58294W        W22227   0.944  15.225   1.400
58295W        W22228  23.103  15.257  14.922
58296W        W22229  42.801  15.663  13.377
58297W        W22230  37.045  18.245  11.889
58298W        W22231   9.233  25.574   3.794
58299W        W22232  32.473  12.714  12.026
58300W        W22233  33.946   7.707   0.474
58301W        W22234  11.248  16.644   2.271
58302W        W22235  12.116  28.114   4.283
58303W        W22236   1.262   4.213   4.723
58304W        W22237  19.209  34.466   0.900
58305W        W22238  25.014  44.484   3.725
58306W        W22239   4.801  32.958   4.236
58307W        W22240  20.529  15.629   4.828
58308W        W22241  41.390  17.686   2.211
58309W        W22242  40.317  31.897   5.307
58310W        W22243  17.599   0.842   3.212
58311W        W22244  34.570  29.007   1.447
58312W        W22245  13.307  32.563  13.049
58313W        W22246  39.414  33.484   2.368
58314W        W22247  25.073  15.796  12.941
58315W        W22248  31.066  11.806  12.515
58316W        W22249  35.882  28.184   5.279
58317W        W22250  41.350  30.051   4.148
58318W        W22251  30.917   2.874  12.426
58319W        W22252  38.053  23.078  11.455
58320W        W22253  10.154  25.105   2.376
58321W        W22254  33.888   6.383  11.535
58322W        W22255  36.874  28.643  10.518
58323W        W22256  31.059  37.488  11.587
58324W        W22257  25.566  14.797  14.950
58325W        W22258  28.540   5.861  14.316
58326W        W22259   6.405   7.175   3.268
58327W        W22260  35.425  25.523   3.685
58328W        W22261  26.554  21.664   0.370
58329W        W22262  40.528  12.762   0.941
58330W        W22263   1.275   0.936  11.044
58331W        W22264  23.597  37.984   0.362
58332W        W22265  26.648  10.250  13.028
58333W        W22266  26.129  25.962   1.833
58334W        W22267  34.464   0.366   1.727
58335W        W22268  17.195  39.369  10.049
58336W        W22269  26.200  31.069   0.245
58337W        W22270  18.100  10.264   3.639
58338W        W22271  18.082  36.522   4.630
58339W        W22272  42.470  24.174   1.841
58340W        W22273  44.484  21.663  12.976
58341W        W22274  23.127  25.210   0.812
58342W        W22275  42.399   5.724   1.370
58343W        W22276  29.026   4.723   2.701
58344W        W22277  10.218   8.194  13.043
58345W        W22278  28.531  28.102   9.985
58346W        W22279  42.380   3.778  10.511
58347W        W22280  28.565  36.087  11.996
58348W        W22281  43.287   6.744   2.791
58349W        W22282  10.785  13.145   3.775
58350W        W22283  22.084  35.974  14.392
58351W        W22284  35.994  35.358  14.932
58352W        W22285   2.790  28.525  10.602
58353W        W22286  21.070  38.568   4.630
58354W        W22287  15.708   4.232  13.017
58355W        W22288   7.373  22.088   9.563
58356W        W22289  32.087   8.243   3.277
58357W        W22290  22.702  37.540   0.450
58358W        W22291  43.900  43.348  13.055
58359W        W22292  22.608  19.763  10.966
58360W        W22293   5.374  39.894   0.898
58361W        W22294  22.728  10.780   4.163
58362W        W22295  12.152  31.980   2.760
58363W        W22296  38.415  16.285  13.517
58364W        W22297  18.690  26.682  12.091
58365W        W22298  27.523  40.329  13.309
58366W        W22299   2.409  43.979   1.284
58367W        W22300  27.463  13.159   4.268
58368W        W22301  17.223  15.241  14.479
58369W        W22302  36.376  43.464   3.178
58370W        W22303  10.688  41.941   1.251
58371W        W22304  30.604  28.045  12.346
58372W        W22305  39.826  20.624   3.790
58373W        W22306  43.276   7.317   0.402
58374W        W22307  39.988  13.811   4.252
58375W        W22308   5.418  28.669  13.473
58376W        W22309  17.699  33.038   4.200
58377W        W22310  20.113  17.772   0.388
58378W        W22311  16.802  10.317  14.401
58379W        W22312  36.901   5.898   4.187
58380W        W22313  33.594  21.541   1.768
58381W        W22314  36.465   3.392   2.822
58382W        W22315  20.746   2.384   3.867
58383W        W22316  38.410  25.972  12.852
58384W        W22317  26.071  24.711   2.397
58385W        W22318  20.670   1.931  12.542
58386W        W22319  12.826  36.089  11.873
58387W        W22320  16.257   9.394  11.857
58388W        W22321  41.382  27.952  14.829
58389W        W22322  21.613  19.663   3.302
58390W        W22323  44.395  30.650   0.453
58391W        W22324  42.965  37.445  14.799
58392W        W22325  26.136  13.180  11.943
58393W        W22326  16.115   9.388   5.618
58394W        W22327   2.821  13.686  12.902
58395W        W22328   1.287  15.772   1.759
58396W        W22329  40.881  14.234  13.966
58397W        W22330  24.064   6.250   0.427
58398W        W22331  38.827   8.214   1.803
58399W        W22332  17.076   0.968  15.000
58400W        W22333  41.448  31.959   2.891
58401W        W22334  39.063  16.182  12.032
58402W        W22335  33.056  16.245  12.406
58403W        W22336  11.730   2.842  11.080
58404W        W22337  23.147  22.110   4.183
58405W        W22338  32.011   1.779  12.577
58406W        W22339  19.665  14.138  14.856
58407W        W22340  41.516  13.251  12.367
58408W        W22341   4.854  12.796   1.450
58409W        W22342   4.803  17.128  14.304
58410W        W22343  40.027   3.783  11.392
58411W        W22344  43.901  20.123  14.471
58412W        W22345   3.441  20.574   1.734
58413W        W22346  35.965  22.081   0.932
58414W        W22347  37.338  18.209  14.441
58415W        W22348  33.446  15.749   3.376
58416W        W22349  23.201   4.305  11.096
58417W        W22350  19.065  36.003   1.444
58418W        W22351  10.190  23.667  13.544
58419W        W22352   1.895  37.465   2.713
58420W        W22353  21.046  21.573  11.926
58421W        W22354   4.432  14.231  14.876
58422W        W22355   2.791  23.030   0.806
58423W        W22356  40.411  20.616   0.826
58424W        W22357  43.860   2.891   4.696
58425W        W22358  10.204  20.599  11.984
58426W        W22359  15.614  43.942  12.399
58427W        W22360   7.747   6.383  12.920
58428W        W22361   7.276  30.124   3.796
58429W        W22362  15.161   2.733  10.409
58430W        W22363  25.055  36.441  12.416
58431W        W22364   5.196  42.800   0.383
58432W        W22365  38.917  26.583   1.775
58433W        W22366  42.391  33.103   2.716
58434W        W22367  40.524  18.771   3.181
58435W        W22368  34.071  33.976  14.414
58436W        W22369  29.650  19.635  14.931
58437W        W22370  44.803  13.747  12.070
58438W        W22371   7.804  15.822   3.732
58439W        W22372   5.846  37.355  14.417
58440W        W22373  33.118  41.008  14.022
58441W        W22374  14.747  27.541   4.638
58442W        W22375  38.544  12.166  13.018
58443W        W22376  10.645   7.413  11.444
58444W        W22377  28.986  30.448   4.808
58445W        W22378  30.065  28.631  13.870
58446W        W22379  17.736  22.611   4.247
58447W        W22380  37.377  33.454   1.257
58448W        W22381  44.835  30.461  11.962
58449W        W22382  43.892   6.428  14.863
58450W        W22383  37.043  44.974   4.305
58451W        W22384  30.059  44.936  12.399
58452W        W22385  38.390  28.485  13.463
58453W        W22386  42.346  17.219   2.679
58454W        W22387  24.609  25.123   4.720
58455W        W22388  42.894  28.676   0.332
58456W        W22389  32.911  25.597   3.193
58457W        W22390  39.974  37.504  14.398
58458W        W22391   8.859  22.107   2.891
58459W        W22392  17.093  23.715  13.435
58460W        W22393  20.032  12.653   4.614
58461W        W22394  14.757  12.129   4.684
58462W        W22395   6.329   4.852   5.585
58463W        W22396  20.685  20.156  14.789
58464W        W22397  44.382  16.727  12.827
58465W        W22398  12.309  32.594   1.897
58466W        W22399  44.909  24.599   4.725
58467W        W22400   0.451  13.815  13.061
58468W        W22401   5.860   8.807   1.888
58469W        W22402  17.576  44.426  12.423
58470W        W22403  19.632  16.620  12.501
58471W        W22404   1.845   5.248   2.306
58472W        W22405  30.027   6.786   4.276
58473W        W22406  10.819  26.085  12.400
58474W        W22407  40.517   9.264   1.304
58475W        W22408  11.190  36.977   2.763
58476W        W22409  33.068  26.702  14.366
58477W        W22410  23.999  15.597   9.997
58478W        W22411  15.633  34.511   1.749
58479W        W22412  34.994  12.191  12.009
58480W        W22413  38.834  19.666  14.404
58481W        W22414  21.672  43.383  14.763
58482W        W22415   9.357  28.943   3.211
58483W        W22416  33.940  27.620   4.786
58484W        W22417  30.154   8.823  11.952
58485W        W22418  22.079  10.143   3.187
58486W        W22419  17.218  11.365  10.422
58487W        W22420  29.029  11.296   0.344
58488W        W22421   6.702  25.651  10.416
58489W        W22422   1.896   0.927   4.614
58490W        W22423  26.189  15.278   0.302
58491W        W22424  34.983   9.175   3.249
58492W        W22425  38.347  40.948   2.798
58493W        W22426  32.893  21.654   4.681
58494W        W22427   5.304  23.716   0.868
58495W        W22428  21.569  10.835  14.936
58496W        W22429  30.571   2.901   3.837
58497W        W22430  26.491  18.189   2.901
58498W        W22431  40.026  16.313   2.256
58499W        W22432   7.186  24.526  11.907
58500W        W22433   0.397  39.890  11.091
58501W        W22434  28.595  20.675  12.403
58502W        W22435  21.079  42.390  10.486
58503W        W22436  10.304   3.329  12.488
58504W        W22437  39.987  33.963   4.193
58505W        W22438  34.934  38.337   0.449
58506W        W22439   9.348  40.507   0.369
58507W        W22440  26.529  43.363  11.082
58508W        W22441  14.710  29.957  12.830
58509W        W22442  32.411  17.699   3.230
58510W        W22443  19.065  28.537   0.409
58511W        W22444  19.653  16.210  14.868
58512W        W22445   2.883  22.123   1.871
58513W        W22446  25.553  38.903   4.624
58514W        W22447   6.915   3.811  12.907
58515W        W22448  42.031  22.547   4.323
58516W        W22449  42.443  41.897   2.225
58517W        W22450  35.877   9.684  12.087
58518W        W22451  41.392  31.123  11.443
58519W        W22452  33.588  41.918  13.948
58520W        W22453  29.478  18.768   3.783
58521W        W22454   7.396  40.400   4.615
58522W        W22455   2.457  33.470   1.883
58523W        W22456  36.557  27.988   3.637
58524W        W22457  29.637   1.465   3.755
58525W        W22458  35.965  21.553   4.324
58526W        W22459  39.003  24.173   0.372
58527W        W22460   4.856  10.720  12.047
58528W        W22461  24.698   1.383  10.528
58529W        W22462   4.924  14.618  12.992
58530W        W22463  37.520   5.196  11.443
58531W        W22464  29.642  11.685   0.252
58532W        W22465  36.546  36.526   3.341
58533W        W22466  31.129  38.878  14.407
58534W        W22467   1.794  23.193   1.414
58535W        W22468  26.088  42.985   2.354
58536W        W22469  23.014  26.167   1.375
58537W        W22470  19.622  36.536  13.990
58538W        W22471   1.976  35.906   4.267
58539W        W22472  33.596  36.572  13.488
58540W        W22473   0.375   7.282  13.878
58541W        W22474   8.160  39.447  12.967
58542W        W22475  21.697  13.830  13.002
58543W        W22476  21.592  16.239  12.370
58544W        W22477   0.431  11.305  11.004
58545W        W22478  25.579  11.628  12.958
58546W        W22479  33.439  35.950  11.112
58547W        W22480   2.748  11.791   4.829
58548W        W22481  30.504   7.229  12.030
58549W        W22482   3.814  36.947  12.442
58550W        W22483  43.513   5.744  11.024
58551W        W22484   0.861  37.936   9.939
58552W        W22485   9.839  26.986   0.388
58553W        W22486  22.732  23.629  12.540
58554W        W22487  41.462  33.600   4.247
58555W        W22488  35.415   1.250   2.794
58556W        W22489  36.976  32.069   1.893
58557W        W22490  38.024   6.365   3.686
58558W        W22491  29.015  37.507   3.377
58559W        W22492  24.566  43.020   2.381
58560W        W22493  32.961  23.121  12.869
58561W        W22494  43.971  43.411   3.864
58562W        W22495  34.068  37.838  10.610
58563W        W22496  14.729  38.378  12.402
58564W        W22497  43.877  12.151  14.858
58565W        W22498   5.818  29.458   4.786
58566W        W22499  34.885  41.956   1.884
58567W        W22500  33.461   4.426   0.967
58568W        W22501  10.308  41.041   2.180
58569W        W22502  37.339  39.341   1.350
58570W        W22503  12.352  20.254  11.027
58571W        W22504   7.272  10.380  12.468
58572W        W22505  19.578   6.835  10.978
58573W        W22506  16.107  41.537   4.835
58574W        W22507  36.061  22.041  11.577
58575W        W22508  38.418  33.404  13.466
58576W        W22509  16.185  32.963  12.068
58577W        W22510  13.262  26.981   0.824
58578W        W22511  31.976   5.233  12.503
58579W        W22512  10.799  40.920   4.121
58580W        W22513   2.920  22.019  12.982
58581W        W22514  41.419  39.480   4.671
58582W        W22515   6.903  40.362   0.811
58583W        W22516  42.924   6.302   0.828
58584W        W22517  34.575  20.153  14.968
58585W        W22518  19.221  19.710  14.836
58586W        W22519  10.729  12.124  12.419
58587W        W22520  35.459  42.302  13.478
58588W        W22521  40.493   3.219  10.591
58589W        W22522  18.552  30.066  14.768
58590W        W22523  20.225  10.232  14.917
58591W        W22524  42.905   8.221  10.949
58592W        W22525  43.831   8.278   1.440
58593W        W22526  40.345  18.682   4.724
58594W        W22527   9.726  40.943  11.989
58595W        W22528  20.603   9.393   2.290
58596W        W22529   2.317  35.409  12.981
58597W        W22530   2.303   7.299   4.775
58598W        W22531  34.384  44.289   0.287
58599W        W22532  10.320   0.371   9.935
58600W        W22533   7.334  43.314  14.905
58601W        W22534  19.226  22.624  12.934
58602W        W22535  36.585  24.036  14.889
58603W        W22536   5.368  33.899  14.398
58604W        W22537  11.329  10.162   2.277
58605W        W22538  12.613  19.154  12.897
58606W        W22539  10.348  22.649   0.263
58607W        W22540  22.173   9.873   3.292
58608W        W22541  35.436  36.535   3.180
58609W        W22542  33.944  43.851  13.037
58610W        W22543   0.293  20.240   3.779
58611W        W22544  43.314  30.001  10.933
58612W        W22545  11.136  42.455  13.046
58613W        W22546  22.182  25.504  10.003
58614W        W22547   9.677  32.087   2.755
58615W        W22548  42.836  29.014  11.574
58616W        W22549   2.834  41.383   4.191
58617W        W22550  32.995  13.300  11.376
58618W        W22551  11.626  30.453   1.250
58619W        W22552  44.392  44.308   1.260
58620W        W22553  26.138  35.364   4.256
58621W        W22554  19.588  31.595  10.510
58622W        W22555   8.688  13.181   5.147
58623W        W22556  28.124  26.523  13.511
58624W        W22557  13.175  27.942   3.752
58625W        W22558  14.124   1.948  12.453
58626W        W22559  17.725  38.358  14.342
58627W        W22560   0.881  22.248  14.904
58628W        W22561  32.515  25.014  12.373
58629W        W22562   1.429  29.534   3.858
58630W        W22563  43.946  44.423   0.431
58631W        W22564  10.225  13.112   3.192
58632W        W22565  32.931  40.926  12.988
58633W        W22566  33.490   9.705   3.818
58634W        W22567   3.914   8.841  14.913
58635W        W22568  28.568  14.311  12.075
58636W        W22569  12.616  19.544   0.385
58637W        W22570  22.176   7.308   4.738
58638W        W22571  10.271  38.925  11.980
58639W        W22572  44.754  19.652   1.934
58640W        W22573  22.505   9.254   1.256
58641W        W22574  34.389  17.798  11.551
58642W        W22575   4.274   5.869   3.331
58643W        W22576   3.819  37.567   4.780
58644W        W22577  11.305  14.673   0.435
58645W        W22578  34.109  18.269   4.599
58646W        W22579  44.499  41.520  10.603
58647W        W22580   4.279  19.582  14.425
58648W        W22581  22.543  20.619  11.594
58649W        W22582   5.892  20.204   0.378
58650W        W22583  37.543  44.869   2.812
58651W        W22584  39.880  14.789  10.555
58652W        W22585  26.179   9.199  10.466
58653W        W22586   2.337  40.040  10.596
58654W        W22587  11.261  39.421   3.644
58655W        W22588  40.524  13.330   4.305
58656W        W22589   4.370  27.944   0.409
58657W        W22590  19.086  40.420  10.633
58658W        W22591  12.746  38.400   3.382
58659W        W22592  31.897  21.609  12.526
58660W        W22593  21.670  24.690  14.003
58661W        W22594  15.773   9.355  11.431
58662W        W22595  36.430   0.473  10.027
58663W        W22596  12.762  11.677  11.600
58664W        W22597  38.443   6.803   4.153
58665W        W22598  20.628  21.046  10.904
58666W        W22599   1.388  42.818   0.837
58667W        W22600  34.485  40.834   3.692
58668W        W22601   5.287  34.869   0.946
58669W        W22602   8.671  43.460   1.405
58670W        W22603  42.022  26.161   1.243
58671W        W22604  24.160   5.244  13.791
58672W        W22605  34.971  20.161   2.249
58673W        W22606  22.063   8.702  12.934
58674W        W22607  37.018   4.921   1.743
58675W        W22608  44.386  13.252  10.472
58676W        W22609  10.186  19.722   1.853
58677W        W22610  26.054  41.446  12.399
58678W        W22611  14.207  22.201   0.858
58679W        W22612  12.642  42.320   1.877
58680W        W22613   4.421  29.094  11.873
58681W        W22614  35.923  10.850  13.047
58682W        W22615  31.414  26.682  11.029
58683W        W22616  30.148  43.436  12.848
58684W        W22617  29.118  19.700   0.792
58685W        W22618  39.843  11.853  13.793
58686W        W22619  10.815  42.504  13.798
58687W        W22620   6.745  22.634   2.686
58688W        W22621  33.569  28.451   4.341
58689W        W22622  28.443  16.569  13.045
58690W        W22623  12.247  24.990   1.740
58691W        W22624   8.354  36.501   2.238
58692W        W22625  30.568  36.438  12.847
58693W        W22626   1.310   4.738  13.887
58694W        W22627   9.236   4.832  11.952
58695W        W22628  20.192  26.164   3.235
58696W        W22629  21.142  20.062  12.443
58697W        W22630  32.408   6.793   4.215
58698W        W22631  26.457   6.389  12.888
58699W        W22632  35.394  19.605   2.192
58700W        W22633  37.461   8.841   5.187
58701W        W22634  17.139  11.693  13.462
58702W        W22635   3.315  29.525  10.639
58703W        W22636  44.758  28.055  14.786
58704W        W22637  13.720  12.716   1.912
58705W        W22638  19.261  16.756   3.659
58706W        W22639   4.439  29.667  14.417
58707W        W22640   6.345  11.324  14.916
58708W        W22641  24.029  40.441  14.988
58709W        W22642  18.083  13.200   1.695
58710W        W22643  44.342  11.867   2.775
58711W        W22644  31.643  32.054  12.960
58712W        W22645  38.906  35.960   4.625
58713W        W22646  14.284  30.420   4.663
58714W        W22647   0.934  25.682  13.859
58715W        W22648  23.135  25.513  14.312
58716W        W22649   7.667  17.246   0.726
58717W        W22650  32.500   5.345  11.502
58718W        W22651  26.460  32.973  10.594
58719W        W22652  27.649  28.483   0.476
58720W        W22653   9.860   5.336   2.706
58721W        W22654  44.840  15.299  11.984
58722W        W22655   0.289  34.392  12.370
58723W        W22656  22.070   1.299   4.673
58724W        W22657  30.560   0.399  14.385
58725W        W22658  22.198  16.131  12.440
58726W        W22659   4.322  44.482  11.872
58727W        W22660  38.529  39.015  12.930
58728W        W22661  19.078  24.527   4.307
58729W        W22662   1.308   1.842  11.903
58730W        W22663  19.617  37.513  12.049
58731W        W22664  27.580  28.641  10.463
58732W        W22665  18.607  44.814  11.916
58733W        W22666  18.577  16.292  13.963
58734W        W22667  15.804  32.556  11.391
58735W        W22668  17.177  36.842  12.871
58736W        W22669  15.160  29.486   1.838
58737W        W22670  35.531  38.549  13.412
58738W        W22671   6.311  25.095  12.878
58739W        W22672   5.746   4.938  12.872
58740W        W22673   8.862   9.221   4.642
58741W        W22674   2.403  21.750   0.783
58742W        W22675  36.546  16.217   0.295
58743W        W22676  21.203  19.253  13.456
58744W        W22677  19.730  33.592  12.550
58745W        W22678   7.737  41.907  13.054
58746W        W22679  33.486  20.657  14.874
58747W        W22680  21.081   4.941   3.234
58748W        W22681  17.210  23.022   2.839
58749W        W22682  19.111  31.635  11.439
58750W        W22683  34.032  11.364  10.597
58751W        W22684  24.063  26.157  10.499
58752W        W22685  32.628   6.233   0.781
58753W        W22686  13.709  31.931  14.829
58754W        W22687  26.107  39.813   4.608
58755W        W22688  36.554   9.661   4.825
58756W        W22689  26.987   8.740  11.872
58757W        W22690  39.370  24.671  10.893
58758W        W22691  38.898  38.844   0.254
58759W        W22692   7.857  31.108  10.629
58760W        W22693  13.239  23.094  14.289
58761W        W22694   0.256  20.541  10.624
58762W        W22695   0.444  24.555   2.381
58763W        W22696  14.747   5.282   9.450
58764W        W22697  17.086  37.079   3.648
58765W        W22698   4.247   2.876   4.309
58766W        W22699   9.206  38.971  10.924
58767W        W22700  15.144  39.031   1.338
58768W        W22701  26.702  27.021   3.246
58769W        W22702   5.820  41.453   0.410
58770W        W22703  17.129   2.247   3.678
58771W        W22704  14.261  28.110   1.244
58772W        W22705   8.363  25.509   1.917
58773W        W22706  13.247  40.015   2.745
58774W        W22707  24.987   2.459  12.471
58775W        W22708  18.195  16.582  14.956
58776W        W22709   2.471   9.323  12.069
58777W        W22710  16.234  22.547  10.461
58778W        W22711   7.734   1.359   3.208
58779W        W22712  27.450  10.201   3.237
58780W        W22713  28.005  21.691  14.027
58781W        W22714  38.044  39.015   9.946
58782W        W22715   7.779  32.636   2.181
58783W        W22716   0.395  38.372  12.405
58784W        W22717  41.817  17.750   3.673
58785W        W22718   0.336  13.226  11.431
58786W        W22719   6.273  26.688  14.275
58787W        W22720  39.931  16.298  10.609
58788W        W22721   2.291  30.659   4.186
58789W        W22722  15.270  15.278   1.303
58790W        W22723   6.894  44.975   3.802
58791W        W22724  10.791   9.238  13.800
58792W        W22725  34.911  18.209   1.398
58793W        W22726  37.520  32.527  10.560
58794W        W22727   8.163  31.039   0.319
58795W        W22728  21.120  21.669  11.039
58796W        W22729  30.527   0.431   3.651
58797W        W22730  44.493   3.816   0.857
58798W        W22731   0.984  17.073  14.930
58799W        W22732   8.726  39.376  14.442
58800W        W22733  14.707  30.628   0.321
58801W        W22734  37.340   9.327  13.045
58802W        W22735  21.262   2.954  12.916
58803W        W22736  40.354   0.484  12.512
58804W        W22737  26.972   0.380  11.917
58805W        W22738  34.890   5.813  13.544
58806W        W22739  29.982   7.264  10.586
58807W        W22740  10.371  40.547  12.991
58808W        W22741  30.445  33.068  10.931
58809W        W22742  40.865  38.861  11.409
58810W        W22743  43.963  17.570   2.263
58811W        W22744  22.098  42.474  10.569
58812W        W22745  35.464  19.203   1.699
58813W        W22746  19.226  40.956   0.262
58814W        W22747  26.014  44.855  13.483
58815W        W22748  17.707   5.754  10.892
58816W        W22749  44.439  17.633   3.323
58817W        W22750  32.460  30.600  12.854
58818W        W22751  14.776  13.210  10.494
58819W        W22752   5.755  41.816   4.664
58820W        W22753  40.489   8.666  14.464
58821W        W22754  11.325  26.676   0.358
58822W        W22755  28.102  10.280  14.985
58823W        W22756  12.224  26.680   0.347
58824W        W22757  14.156   8.377   3.219
58825W        W22758  15.597  44.415   1.214
58826W        W22759  37.060  20.087   4.737
58827W        W22760   0.264  26.985   3.251
58828W        W22761  28.506  25.036   2.726
58829W        W22762   5.705  35.995   2.760
58830W        W22763  34.034  32.970   1.282
58831W        W22764  37.978  37.454   3.384
58832W        W22765  40.418  36.903  10.927
58833W        W22766  16.132  41.833  11.607
58834W        W22767   8.843  43.776   1.437
58835W        W22768  32.030  13.615   4.344
58836W        W22769  27.002  26.469  12.906
58837W        W22770  11.691  33.614  11.426
58838W        W22771  37.865  33.102  10.913
58839W        W22772   0.340  16.205   3.228
58840W        W22773   3.934  12.701  11.109
58841W        W22774  13.347  28.073  10.625
58842W        W22775  41.960  12.641   4.274
58843W        W22776  22.703  43.435   2.196
58844W        W22777  24.653  18.717   0.770
58845W        W22778  39.032  21.653   2.356
58846W        W22779   2.273  39.431   4.330
58847W        W22780  14.612  22.655   0.279
58848W        W22781   3.379   5.694   1.857
58849W        W22782  36.514  17.087   3.379
58850W        W22783  33.524  13.325   3.366
58851W        W22784  32.016  21.720   3.315
58852W        W22785  12.816  16.087   1.416
58853W        W22786   6.842   8.282   4.774
58854W        W22787  35.534  41.828  12.968
58855W        W22788  20.587  12.192  12.351
58856W        W22789  13.171  16.221   1.439
58857W        W22790  32.472  21.204   3.778
58858W        W22791  21.723  31.041  12.952
58859W        W22792  22.214  35.567   1.348
58860W        W22793  25.057  30.592   3.192
58861W        W22794  24.022  26.484   0.775
58862W        W22795  35.005   4.856   3.327
58863W        W22796  11.672  34.950   0.930
58864W        W22797  11.845  24.207  10.458
58865W        W22798  17.195  21.053  13.044
58866W        W22799  31.127   2.834   2.260
58867W        W22800   3.717  32.623   1.271
58868W        W22801  28.548  27.132   3.361
58869W        W22802  10.808   0.318  12.370
58870W        W22803  23.626  35.922  10.468
58871W        W22804  28.464  27.491  11.432
58872W        W22805   9.718  44.266   4.281
58873W        W22806  43.458  34.051  11.421
58874W        W22807   7.688  25.659   0.815
58875W        W22808  28.110  31.401   1.823
58876W        W22809  10.803  22.572   9.928
58877W        W22810   7.673   3.452  14.917
58878W        W22811  34.464  29.935   2.375
58879W        W22812  25.576  12.254   4.806
58880W        W22813  28.607   5.854   2.863
58881W        W22814  28.991  30.637  14.009
58882W        W22815  25.206   0.317  10.093
58883W        W22816  26.171  19.242   1.891
58884W        W22817  19.645   8.709  12.351
58885W        W22818  40.830  28.094  14.898
58886W        W22819  38.890   8.677   1.773
58887W        W22820  41.519  12.217  12.463
58888W        W22821  20.132  19.263  14.980
58889W        W22822  15.806  43.793  11.449
58890W        W22823   5.791  41.943  11.078
58891W        W22824   3.414   3.331  11.420
58892W        W22825  30.951  24.524  14.808
58893W        W22826  19.598  20.648   3.635
58894W        W22827  16.213  18.569  13.020
58895W        W22828  15.300  18.760  13.386
58896W        W22829   5.219  16.633  14.973
58897W        W22830  12.701  23.592   3.327
58898W        W22831  18.164  11.352  13.502
58899W        W22832  36.057   4.206   0.764
58900W        W22833   0.385  24.187   4.273
58901W        W22834  40.037   2.789  12.829
58902W        W22835   5.906  44.407   3.666
58903W        W22836  22.128  29.014  14.317
58904W        W22837  30.915   3.260  12.040
58905W        W22838  26.115  38.362  12.829
58906W        W22839   0.984  39.873   3.651
58907W        W22840  25.542  17.156  12.380
58908W        W22841  29.156  27.158  10.456
58909W        W22842  23.609  14.112   4.698
58910W        W22843  24.175  19.282  12.857
58911W        W22844  38.489  41.506   0.738
58912W        W22845  21.632  11.690   1.216
58913W        W22846  10.770   5.688   3.676
58914W        W22847  10.636  37.956  10.487
58915W        W22848  19.104  37.415   2.888
58916W        W22849  42.457  41.863   0.910
58917W        W22850  40.361  34.878   3.770
58918W        W22851   0.447  35.075   1.222
58919W        W22852  43.993  30.412   4.775
58920W        W22853   5.417  22.225  13.320
58921W        W22854  37.570  15.197   2.262
58922W        W22855  37.996  42.393  14.784
58923W        W22856  25.059  40.832   0.331
58924W        W22857  42.525  35.888  11.083
58925W        W22858   3.711   4.774  14.414
58926W        W22859  24.675  36.062  10.444
58927W        W22860  38.400  16.297   4.802
58928W        W22861  14.199  40.422   4.710
58929W        W22862   9.324  11.720  11.860
58930W        W22863  40.356   0.770   4.621
58931W        W22864   7.352  43.421   3.630
58932W        W22865  42.455   7.666   0.312
58933W        W22866  25.639  17.217  14.776
58934W        W22867  38.057  19.642  11.087
58935W        W22868  24.565  26.029   4.791
58936W        W22869  35.402   4.235   0.479
58937W        W22870  20.692   6.342  11.451
58938W        W22871  15.277   9.833  11.437
58939W        W22872  21.112  31.012  11.980
58940W        W22873  18.080  14.150   0.752
58941W        W22874  18.233   4.278   3.279
58942W        W22875   4.766  44.436   3.185
58943W        W22876   2.771  41.943   3.311
58944W        W22877  41.820  22.021  12.069
58945W        W22878  24.222  32.004  13.407
58946W        W22879   4.849  29.990  13.870
58947W        W22880  20.526  14.630  12.052
58948W        W22881  24.704  43.486  11.055
58949W        W22882  19.730   9.280  10.459
58950W        W22883   8.327  39.015   2.844
58951W        W22884  25.473  31.986   3.202
58952W        W22885  22.219  14.641  12.418
58953W        W22886  11.182  34.115   3.250
58954W        W22887  28.458   6.833   1.722
58955W        W22888   6.779  13.658  13.864
58956W        W22889  12.346  22.714  14.870
58957W        W22890   4.861  34.010  11.040
58958W        W22891   9.744   5.405  14.359
58959W        W22892  21.580  38.391  11.485
58960W        W22893   0.402   9.874  10.964
58961W        W22894  30.642  13.105  10.995
58962W        W22895  11.366  25.190  12.403
58963W        W22896  30.931  24.521  10.999
58964W        W22897  39.552  14.816   1.219
58965W        W22898  38.398  38.038   4.282
58966W        W22899  23.178  26.647  11.470
58967W        W22900  27.120  26.532  12.093
58968W        W22901  15.128   9.378  13.307
58969W        W22902  31.599  40.403  13.942
58970W        W22903  12.725  29.582  12.943
58971W        W22904  35.564  15.144  13.352
58972W        W22905  36.998  39.895  13.340
58973W        W22906  32.124   6.287   4.314
58974W        W22907  27.193  43.413  14.347
58975W        W22908  17.615  13.109   0.907
58976W        W22909  27.479  37.984   3.343
58977W        W22910  22.201  41.034   4.779
58978W        W22911  29.423  24.165  11.516
58979W        W22912   4.808  18.153   0.438
58980W        W22913   3.312   3.947   2.810
58981W        W22914  22.112  17.561   3.336
58982W        W22915  40.042   7.831   0.807
58983W        W22916  26.098   2.732  13.311
58984W        W22917  19.114  34.936   0.808
58985W        W22918  23.638  32.992   2.285
58986W        W22919  43.464   5.830  10.582
58987W        W22920   7.262  44.365  12.063
58988W        W22921  39.042  32.048  14.011
58989W        W22922  28.930  31.501  14.336
58990W        W22923  23.014  42.445  11.106
58991W        W22924   1.369   3.302  10.921
58992W        W22925  15.190   3.271   1.281
58993W        W22926  26.636  17.638  10.916
58994W        W22927  23.122  28.473   1.713
58995W        W22928   9.225  34.887  11.541
58996W        W22929  15.228  39.863   2.178
58997W        W22930  42.969  21.751  13.978
58998W        W22931  42.421  13.241   2.676
58999W        W22932  15.202  28.495  12.510
59000W        W22933  10.240  13.812   4.153
59001W        W22934  31.560  33.462   0.313
59002W        W22935  41.399  21.245   0.873
59003W        W22936  39.373   5.734  14.915
59004W        W22937   0.864   5.435  10.532
59005W        W22938  43.845  28.665  10.485
59006W        W22939  18.122  28.571  13.964
59007W        W22940   6.873   4.352  11.108
59008W        W22941  38.846   4.370   3.321
59009W        W22942  23.560  15.603  12.840
59010W        W22943  42.353  36.480  11.563
59011W        W22944  10.374  38.554   0.336
59012W        W22945  36.457   2.735  11.946
59013W        W22946   4.362  16.309   2.213
59014W        W22947   7.366  41.987  11.559
59015W        W22948  27.624  29.939  11.083
59016W        W22949  13.133  32.963  12.472
59017W        W22950  19.227   3.267   4.260
59018W        W22951   7.838  25.968   5.276
59019W        W22952  10.355  44.419   0.786
59020W        W22953   9.780  16.155   3.283
59021W        W22954   3.413   2.885  12.564
59022W        W22955   3.366  33.511   3.736
59023W        W22956   0.809  14.634   2.724
59024W        W22957  29.652   0.816   3.324
59025W        W22958   6.700  25.181   3.709
59026W        W22959  44.279  40.363   0.264
59027W        W22960  36.853  39.380  14.391
59028W        W22961  36.490  42.955  14.903
59029W        W22962  13.802   1.454   2.272
59030W        W22963   9.305  19.110  12.059
59031W        W22964   0.322  35.960  11.096
59032W        W22965  29.544  19.670   2.269
59033W        W22966   9.841  37.508   4.717
59034W        W22967  35.889  12.239   3.703
59035W        W22968   3.738  24.033  13.834
59036W        W22969  14.818  23.662   2.308
59037W        W22970   3.911  29.989   1.252
59038W        W22971  40.873  25.211   0.880
59039W        W22972  12.325  28.060   1.295
59040W        W22973  10.724  13.224   2.416
59041W        W22974  12.787  33.089   4.825
59042W        W22975  40.919  17.278  14.316
59043W        W22976   4.411  38.455   3.366
59044W        W22977  12.327  40.886   0.295
59045W        W22978  35.071   2.388  10.414
59046W        W22979  42.959   4.345  14.769
59047W        W22980  31.058  16.184  10.969
59048W        W22981  34.498  41.450   0.895
59049W        W22982  10.201   9.831  13.484
59050W        W22983   8.882  27.104  10.009
59051W        W22984   5.435  28.989   1.834
59052W        W22985  35.535  31.120   1.389
59053W        W22986  40.815   3.394  10.573
59054W        W22987   8.298  25.496  13.429
59055W        W22988  20.707  34.991   1.757
59056W        W22989  26.577  27.571  11.989
59057W        W22990  29.029   2.356   0.437
59058W        W22991  29.633  26.063   3.636
59059W        W22992  41.346  17.785  12.486
59060W        W22993  27.001  10.773  14.761
59061W        W22994  19.771  21.628   2.349
59062W        W22995   4.871  21.223   4.742
59063W        W22996  26.085  18.153   0.295
59064W        W22997   7.285   6.703   0.381
59065W        W22998  36.089  25.051  10.427
59066W        W22999  36.093  34.944   2.361
59067W        W23000  19.245  32.608  14.465
59068W        W23001   3.789   3.747  14.933
59069W        W23002  21.237  32.961   9.959
59070W        W23003  33.617  18.650  14.880
59071W        W23004  32.029  26.643  12.529
59072W        W23005  33.087   2.307  11.002
59073W        W23006  36.534   7.416   4.600
59074W        W23007  32.111  14.672   3.324
59075W        W23008   9.316  23.616  11.490
59076W        W23009  29.980   3.262  11.972
59077W        W23010   7.341   1.844  12.893
59078W        W23011  13.338  43.431   0.791
59079W        W23012  44.460  41.937   2.736
59080W        W23013  28.185  26.077  11.928
59081W        W23014  23.105  33.040   0.255
59082W        W23015  33.920  11.134  13.954
59083W        W23016   1.799   2.456  14.809
59084W        W23017   6.888  35.065   3.264
59085W        W23018  34.412  21.584   0.766
59086W        W23019  43.365  27.528  10.489
59087W        W23020   2.325  24.068   1.358
59088W        W23021  25.213  40.478   0.458
59089W        W23022  43.915  38.510   2.197
59090W        W23023  34.914  29.962   2.855
59091W        W23024  10.661  29.114   0.442
59092W        W23025  39.471  15.126  11.883
59093W        W23026  30.061  29.966   0.763
59094W        W23027  18.680  33.995  10.540
59095W        W23028  30.096  14.322  14.852
59096W        W23029  24.168  14.652  12.432
59097W        W23030  18.703  25.051  10.161
59098W        W23031  36.045  15.744   2.220
59099W        W23032  15.234   4.246   4.733
59100W        W23033  34.076   2.767   0.745
59101W        W23034  21.178   8.300  13.437
59102W        W23035  29.009  15.195  14.455
59103W        W23036  44.334  16.611  10.434
59104W        W23037  19.218  32.995   2.281
59105W        W23038   3.844  16.614  13.062
59106W        W23039  29.960  43.811  11.889
59107W        W23040   0.402  30.561  13.338
59108W        W23041  12.296  26.035  14.001
59109W        W23042  32.911   8.832  14.478
59110W        W23043  18.083  28.524   1.213
59111W        W23044   5.830  35.865  13.481
59112W        W23045  31.597  22.180  10.566
59113W        W23046  15.680  32.021  11.885
59114W        W23047   2.288  12.650  14.445
59115W        W23048   1.756  26.664  14.397
59116W        W23049  43.993  35.423   4.186
59117W        W23050  38.002  11.367   3.753
59118W        W23051  41.876  13.202  11.893
59119W        W23052  41.798  13.219   4.328
59120W        W23053  44.921  17.648  12.977
59121W        W23054  13.818  25.545   3.777
59122W        W23055  35.079  14.731  10.532
59123W        W23056   4.251  27.197  11.967
59124W        W23057  19.230  17.643  12.431
59125W        W23058  17.105   4.778  12.478
59126W        W23059   5.814  15.244   3.742
59127W        W23060   6.834   0.418   3.698
59128W        W23061   5.902  14.199  11.374
59129W        W23062  31.984  40.858   3.363
59130W        W23063  42.013   6.826   0.398
59131W        W23064  27.685  20.152   0.285
59132W        W23065  34.370  12.245  13.487
59133W        W23066  21.109  11.748   4.638
59134W        W23067  21.557  23.520   1.319
59135W        W23068  36.581  37.886   3.815
59136W        W23069  12.750  22.096  11.969
59137W        W23070  28.125  23.157  12.511
59138W        W23071  17.142  18.221   1.231
59139W        W23072  20.566  14.151  13.431
59140W        W23073  10.233  20.701  13.523
59141W        W23074   9.749  17.239  14.978
59142W        W23075  30.497  19.568   3.163
59143W        W23076  13.277  10.761   2.902
59144W        W23077  43.406   8.783   1.703
59145W        W23078   0.979  12.179   0.812
59146W        W23079  16.282   2.742  14.878
59147W        W23080   5.377  37.001   4.198
59148W        W23081   3.436  24.079  12.362
59149W        W23082  43.351  41.465  11.509
59150W        W23083  16.802  28.023  13.791
59151W        W23084   5.717  40.391  14.311
59152W        W23085  26.689  13.239  14.449
59153W        W23086  38.842  23.026  12.038
59154W        W23087  21.179   1.388  13.858
59155W        W23088  23.066  36.546  12.950
59156W        W23089  37.510  16.770  13.437
59157W        W23090  36.009  44.908  12.374
59158W        W23091  37.082  28.633   0.868
59159W        W23092  16.104  21.263   4.215
59160W        W23093   5.338  29.649  12.403
59161W        W23094   4.230  30.562   1.730
59162W        W23095  12.219  16.208  10.941
59163W        W23096   3.240  21.194   1.428
59164W        W23097   1.307  40.814  10.898
59165W        W23098  19.544  22.695   3.302
59166W        W23099  44.455  32.585   1.359
59167W        W23100   2.827  17.196  14.785
59168W        W23101  37.450  15.655  14.841
59169W        W23102   7.342  19.769   0.259
59170W        W23103  24.493  19.676   2.788
59171W        W23104  20.183  39.521  10.547
59172W        W23105  26.175  11.248   0.467
59173W        W23106   1.331  13.740   3.721
59174W        W23107   9.852   8.805   3.270
59175W        W23108  41.432  20.062   0.382
59176W        W23109  10.756  43.967   1.861
59177W        W23110  36.475  31.485  11.055
59178W        W23111  27.133  28.030  14.998
59179W        W23112  28.493  42.517   5.167
59180W        W23113  19.597   8.324   0.392
59181W        W23114  27.052  40.018  12.972
59182W        W23115   5.763   6.421   2.180
59183W        W23116  21.152  35.576  13.478
59184W        W23117  41.815   4.265  13.438
59185W        W23118   5.701   0.870   0.324
59186W        W23119  23.537   4.350   0.307
59187W        W23120  43.815   5.835  14.912
59188W        W23121   0.372  41.354   3.381
59189W        W23122   7.806   7.739  14.767
59190W        W23123  34.564  17.689  12.000
59191W        W23124  21.244   0.795  14.333
59192W        W23125  40.517  14.156  11.387
59193W        W23126   5.796   5.825   2.681
59194W        W23127   6.291  37.418  11.078
59195W        W23128  30.571  15.116  13.858
59196W        W23129   1.404  23.504  10.542
59197W        W23130  23.200   9.668   1.865
59198W        W23131  44.007  21.560   4.150
59199W        W23132  23.678  19.736   3.232
59200W        W23133  11.352   4.940  14.848
59201W        W23134  25.109  19.778  11.492
59202W        W23135  31.150  30.452   4.209
59203W        W23136  31.125  34.527   2.230
59204W        W23137  29.056  27.973   2.807
59205W        W23138  11.818  23.991  12.038
59206W        W23139   1.976  14.719   0.428
59207W        W23140   1.904   5.380  11.394
59208W        W23141  36.541  26.566   3.183
59209W        W23142   5.335  28.057  10.467
59210W        W23143  23.680   7.883   4.613
59211W        W23144  38.001  11.649  14.903
59212W        W23145  11.692  39.010  13.036
59213W        W23146  36.512  16.094  12.557
59214W        W23147  24.661  29.444   1.796
59215W        W23148   2.869  21.596  11.426
59216W        W23149  15.149   7.346   2.776
59217W        W23150  30.610  43.317   3.675
59218W        W23151  12.159   7.883  11.005
59219W        W23152  14.202  11.742  14.994
59220W        W23153  22.611  30.992   1.758
59221W        W23154  10.697  31.490   4.691
59222W        W23155  16.577  34.017  14.429
59223W        W23156  17.223   6.255   3.158
59224W        W23157  13.192  39.920   0.816
59225W        W23158  40.447   2.956   3.782
59226W        W23159  31.405   9.877  12.406
59227W        W23160  17.288  14.288  13.313
59228W        W23161   7.255  32.456  14.872
59229W        W23162  18.630  27.521   0.360
59230W        W23163  22.140   5.709   2.742
59231W        W23164   2.319  26.490  13.545
59232W        W23165  30.150  39.852  13.837
59233W        W23166  33.901  19.728  11.941
59234W        W23167  40.989  43.444  11.890
59235W        W23168  16.206  17.076   3.312
59236W        W23169   9.331  26.554  12.379
59237W        W23170  43.815  16.742  13.004
59238W        W23171  19.779   8.322  14.865
59239W        W23172  18.708  38.845  11.887
59240W        W23173  42.904  21.553   1.727
59241W        W23174  44.896  13.188   0.959
59242W        W23175  32.431   2.437   3.325
59243W        W23176   6.211  14.655   2.253
59244W        W23177  38.464   9.160  12.372
59245W        W23178  29.029  20.552  12.989
59246W        W23179  20.230  31.982   1.780
59247W        W23180  32.014  15.674   4.800
59248W        W23181  44.791   3.753  11.951
59249W        W23182  43.945  15.695   3.779
59250W        W23183   2.285  23.579  10.609
59251W        W23184  28.095   1.936   4.218
59252W        W23185  40.911  28.582   0.270
59253W        W23186  20.561  34.615  13.330
59254W        W23187   1.470  28.617  13.827
59255W        W23188  31.090   4.728  10.590
59256W        W23189   8.831  12.716  10.639
59257W        W23190  29.581   3.848  14.980
59258W        W23191  13.799   5.328   0.283
59259W        W23192  10.676   1.825   4.132
59260W        W23193  27.134  36.857  12.480
59261W        W23194  18.746  21.545   2.293
59262W        W23195  13.795  31.035   1.365
59263W        W23196  13.693  19.754  14.857
59264W        W23197  29.918   5.744   0.372
59265W        W23198  24.669  43.353  13.380
59266W        W23199   3.343  34.535   1.387
59267W        W23200  26.532  42.855  10.890
59268W        W23201  37.047  26.168   3.252
59269W        W23202  24.136  24.514  11.063
59270W        W23203  26.616   3.776   2.827
59271W        W23204  33.399   6.370   3.696
59272W        W23205  23.559  44.261   0.269
59273W        W23206  18.257  43.965  12.995
59274W        W23207  43.417  19.066  13.340
59275W        W23208  32.582   0.862   3.344
59276W        W23209  24.622   9.676  14.287
59277W        W23210   3.730   8.342  11.967
59278W        W23211   1.768   2.257   1.715
59279W        W23212  37.847  13.787  11.515
59280W        W23213  10.788  35.450  11.078
59281W        W23214  39.462  44.805  14.365
59282W        W23215  31.483  10.766  13.946
59283W        W23216   0.452   3.283   1.298
59284W        W23217   6.869  29.098  13.477
59285W        W23218  26.133  11.622  11.485
59286W        W23219  10.691  25.075   4.810
59287W        W23220  38.464  17.588   4.114
59288W        W23221  35.463  42.387   3.657
59289W        W23222  13.642  10.637  13.949
59290W        W23223   9.391  40.813  14.463
59291W        W23224  33.523  23.180  10.645
59292W        W23225  34.419  16.746  11.508
59293W        W23226  22.065  30.019  14.377
59294W        W23227  42.346   5.228   4.135
59295W        W23228  13.720  25.208  11.950
59296W        W23229   1.451  38.542   1.831
59297W        W23230  41.988  27.974   5.136
59298W        W23231  22.234  25.162  13.336
59299W        W23232  29.647   8.864  10.544
59300W        W23233  35.906  28.542   2.708
59301W        W23234  39.419  15.201  12.901
59302W        W23235  30.483  16.229   0.857
59303W        W23236  35.071   3.396  12.481
59304W        W23237  37.995  23.497   3.357
59305W        W23238   4.427   4.306  12.051
59306W        W23239  19.067   8.824   4.333
59307W        W23240  42.888   0.257  13.385
59308W        W23241   9.251  17.224   0.448
59309W        W23242  34.371   1.434  12.990
59310W        W23243  16.701  26.064  13.981
59311W        W23244  30.919  28.476   1.718
59312W        W23245  23.060  40.369   0.366
59313W        W23246  44.321  42.971   5.090
59314W        W23247   8.318  42.283  14.790
59315W        W23248  38.074  30.601  10.523
59316W        W23249  44.989  13.623   1.778
59317W        W23250  29.012  17.661  11.100
59318W        W23251   1.944  12.120  11.873
59319W        W23252  22.129  17.749  11.491
59320W        W23253  33.880  24.064  13.019
59321W        W23254  34.985  22.172   3.670
59322W        W23255  10.841   4.325   2.353
59323W        W23256   1.422  42.419  13.821
59324W        W23257  10.250   3.810   2.821
59325W        W23258  37.530  36.980  12.954
59326W        W23259  28.557  22.687   0.391
59327W        W23260  25.155  29.019   1.415
59328W        W23261  31.096  28.679  11.085
59329W        W23262   0.300  15.201  13.450
59330W        W23263  27.590   0.915  12.368
59331W        W23264  24.064  32.992  10.572
59332W        W23265  30.148  39.492   1.368
59333W        W23266   5.700  16.645  12.983
59334W        W23267  19.589  22.131  12.518
59335W        W23268  38.886  10.244  10.978
59336W        W23269  15.690  22.209   2.232
59337W        W23270  43.922  20.159  13.474
59338W        W23271  30.542  11.736  11.581
59339W        W23272   7.277   9.245   1.331
59340W        W23273  30.485  23.239  13.413
59341W        W23274  35.491   3.427   2.338
59342W        W23275  22.088  11.657  12.555
59343W        W23276   7.707  13.718   0.389
59344W        W23277   1.449  22.709  10.590
59345W        W23278  38.325  16.292   1.282
59346W        W23279   8.781  21.030   1.904
59347W        W23280  41.333  18.265   3.239
59348W        W23281  26.641  26.526  10.590
59349W        W23282  44.960  28.997   3.673
59350W        W23283  41.938   7.206  14.352
59351W        W23284  25.107  29.164   3.801
59352W        W23285  34.934  40.545   1.410
59353W        W23286  29.170  17.618  11.526
59354W        W23287   2.390  18.568   3.853
59355W        W23288  40.008   2.338  14.424
59356W        W23289   6.831  13.786   2.873
59357W        W23290  17.114   9.720  11.551
59358W        W23291  19.760  26.019  11.011
59359W        W23292  10.697  18.639  11.945
59360W        W23293  42.297   4.294   2.771
59361W        W23294  19.592  13.719  12.863
59362W        W23295   9.826  16.089  12.496
59363W        W23296  37.544  31.972  13.950
59364W        W23297  17.293  25.073  12.955
59365W        W23298  43.434  34.098  10.994
59366W        W23299   2.233  10.330   0.851
59367W        W23300   4.766  43.840  12.943
59368W        W23301   5.712  42.305   1.791
59369W        W23302   5.439  29.473  12.870
59370W        W23303  38.947   8.785  14.286
59371W        W23304  19.237  23.196  12.403
59372W        W23305  31.452  11.323  13.331
59373W        W23306  28.534   2.803   2.277
59374W        W23307  40.542  41.804  13.343
59375W        W23308   6.202  21.229   4.267
59376W        W23309  28.064  43.390   0.787
59377W        W23310   8.295  16.756   0.294
59378W        W23311  21.222  12.334  12.853
59379W        W23312  12.808  40.534   3.714
59380W        W23313  16.793  42.032   1.332
59381W        W23314   9.351  16.677  11.933
59382W        W23315  41.981  12.749  11.528
59383W        W23316  15.295  25.481  12.474
59384W        W23317  23.129  44.999   3.245
59385W        W23318  31.054  11.288  13.875
59386W        W23319  42.840   7.180   3.769
59387W        W23320  27.459  13.608  11.991
59388W        W23321  44.313   2.845   1.717
59389W        W23322  22.686  15.315   4.605
59390W        W23323   6.201  40.875   3.255
59391W        W23324  14.800  16.672  11.530
59392W        W23325  40.833  21.513   0.907
59393W        W23326  37.356   5.907  14.032
59394W        W23327  16.187  16.157   4.605
59395W        W23328   3.342   8.712   0.937
59396W        W23329  20.086   6.222   0.343
59397W        W23330  24.974  28.679   2.255
59398W        W23331   5.384  26.074  10.996
59399W        W23332  16.736   1.867  13.018
59400W        W23333   2.331   2.470   0.420
59401W        W23334   4.895  12.837  13.835
59402W        W23335  23.615   7.686  13.874
59403W        W23336  38.979   0.819  11.916
59404W        W23337  22.094  15.099  12.542
59405W        W23338   8.852  18.615  10.405
59406W        W23339  10.173  34.962   3.648
59407W        W23340  11.625  31.016  11.867
59408W        W23341  34.391  17.248  12.007
59409W        W23342  31.570  40.442   0.356
59410W        W23343  18.187  24.050   2.801
59411W        W23344  33.122  18.630  11.904
59412W        W23345  23.204  21.231   1.725
59413W        W23346  27.541  12.752  10.457
59414W        W23347  22.070  13.754   3.825
59415W        W23348   3.314   4.297  14.460
59416W        W23349  34.557  12.746  13.946
59417W        W23350   1.950   1.739   0.382
59418W        W23351  43.463  24.495   3.732
59419W        W23352  23.118  43.994  14.885
59420W        W23353   8.864  26.962   0.413
59421W        W23354  42.839  35.983   1.901
59422W        W23355  35.470  29.553   4.654
59423W        W23356  16.649   9.672  13.386
59424W        W23357  18.692  36.549  10.510
59425W        W23358  22.019  38.534  12.935
59426W        W23359  13.247   8.406  11.434
59427W        W23360  27.140  34.914   0.897
59428W        W23361  37.834  14.701   1.902
59429W        W23362  10.324   2.346   2.791
59430W        W23363  17.177  19.270  14.381
59431W        W23364  44.426  11.718   4.224
59432W        W23365   4.899  36.373  13.388
59433W        W23366  12.842  22.121   3.682
59434W        W23367  37.961  31.627   1.805
59435W        W23368  43.874  11.226   0.842
59436W        W23369  32.995  33.544   3.671
59437W        W23370   8.288  40.830  10.617
59438W        W23371   4.255  27.586   2.419
59439W        W23372  19.207  20.149  14.846
59440W        W23373   7.867  36.389  14.864
59441W        W23374   7.892  18.219   0.727
59442W        W23375  42.497  14.156   2.833
59443W        W23376  16.195  22.241  13.519
59444W        W23377  24.183  37.423   3.178
59445W        W23378   6.338   5.780   0.949
59446W        W23379  27.190   6.853   2.408
59447W        W23380  35.418  16.118   4.646
59448W        W23381  30.983   7.694  13.441
59449W        W23382   8.260   0.284  14.854
59450W        W23383   4.447  39.347   4.725
59451W        W23384  17.084  35.444  12.041
59452W        W23385  19.694  42.887   4.300
59453W        W23386  31.417  33.427  11.867
59454W        W23387   9.244  30.944   3.315
59455W        W23388  38.878  15.131  11.596
59456W        W23389   6.713   2.439  13.031
59457W        W23390   3.348  26.570  10.965
59458W        W23391  20.757  17.267   2.769
59459W        W23392  11.362  11.230  11.562
59460W        W23393   0.441  41.538   0.887
59461W        W23394  35.862  31.526   4.724
59462W        W23395   1.265  13.795   1.925
59463W        W23396  36.091  36.448  13.805
59464W        W23397  19.709  15.193   1.826
59465W        W23398  39.518  43.788  13.372
59466W        W23399  39.375   4.347   1.268
59467W        W23400   4.260  15.189   0.736
59468W        W23401  28.489  10.196  10.460
59469W        W23402  13.168  40.963   0.288
59470W        W23403  20.564  40.996  13.386
59471W        W23404  11.314  28.952   3.806
59472W        W23405  29.577  40.491   0.360
59473W        W23406  12.642  21.594   1.929
59474W        W23407  29.642  27.479   0.390
59475W        W23408  10.842   4.427   3.173
59476W        W23409  15.264  43.304  13.990
59477W        W23410  36.866  26.510   0.961
59478W        W23411   5.696  22.212   3.708
59479W        W23412  16.154  37.966  13.883
59480W        W23413  13.752   3.451   3.208
59481W        W23414  18.755  40.411  11.920
59482W        W23415  17.107  26.511  12.891
59483W        W23416   1.371   7.752  11.030
59484W        W23417  41.955  12.805   0.743
59485W        W23418  20.273   2.873   1.762
59486W        W23419   8.673  14.309   3.829
59487W        W23420  40.320  32.966  11.097
59488W        W23421  20.097  35.418  12.030
59489W        W23422  12.620  42.890   2.733
59490W        W23423   6.344  35.985  10.425
59491W        W23424   3.741  20.256   4.149
59492W        W23425   9.290  44.351  11.913
59493W        W23426  25.985  39.432  14.489
59494W        W23427  25.187   9.730   9.938
59495W        W23428  21.255  32.545  13.380
59496W        W23429   4.733   0.302  14.993
59497W        W23430   0.871  10.210  11.000
59498W        W23431  37.538  31.574   3.796
59499W        W23432  38.884  41.495  14.289
59500W        W23433  37.879  24.042   2.386
59501W        W23434  34.111  17.089  13.947
59502W        W23435   7.666   7.339  11.545
59503W        W23436  14.316  32.420   0.258
59504W        W23437   0.271  40.800  12.083
59505W        W23438  28.075  25.626  14.457
59506W        W23439  40.365  22.051   4.768
59507W        W23440   4.716  22.715   1.331
59508W        W23441   7.401  27.085   4.259
59509W        W23442  21.689  30.994   0.818
59510W        W23443   9.191   1.858   1.750
59511W        W23444   7.897  27.195   1.756
59512W        W23445  16.185  44.755   4.733
59513W        W23446  27.551   2.295   3.362
59514W        W23447  32.042  36.040  13.950
59515W        W23448  33.590  18.062  11.889
59516W        W23449  16.152  15.616   0.335
59517W        W23450  17.717   2.874  11.404
59518W        W23451  35.382   0.249  13.322
59519W        W23452  14.312   3.784   4.284
59520W        W23453  44.419  11.351   0.282
59521W        W23454  18.179  16.767   1.428
59522W        W23455  31.452  40.036  12.827
59523W        W23456  36.083   5.857   4.624
59524W        W23457  13.692  37.344  14.848
59525W        W23458   2.307  23.096   1.240
59526W        W23459  14.190  34.035   1.918
59527W        W23460  23.142  25.495   1.824
59528W        W23461  40.018  17.743   2.819
59529W        W23462   8.325  40.982  11.565
59530W        W23463  44.808  19.059  11.534
59531W        W23464  35.585   9.244  12.382
59532W        W23465   1.885  44.495  14.352
59533W        W23466  30.068   3.264  11.410
59534W        W23467  30.618   8.375   0.415
59535W        W23468  31.043  41.918  11.012
59536W        W23469   1.965   0.828   1.864
59537W        W23470   6.349  21.667   3.666
59538W        W23471  38.824  40.021  14.940
59539W        W23472  25.614  39.551   2.674
59540W        W23473   9.870  29.004  12.501
59541W        W23474   1.330  31.988   2.334
59542W        W23475  19.149  41.337  14.902
59543W        W23476   2.962   2.464  12.894
59544W        W23477  25.075  17.593   4.739
59545W        W23478  22.544  18.693   4.156
59546W        W23479  44.409  21.564  10.085
59547W        W23480  42.284  11.679   4.638
59548W        W23481  43.416   7.328   9.933
59549W        W23482  32.033   8.713   2.688
59550W        W23483   3.745  24.569  14.930
59551W        W23484  10.684  18.230  14.366
59552W        W23485   4.441   3.276  10.508
59553W        W23486   9.165  31.124  12.984
59554W        W23487  18.705  24.228   1.763
59555W        W23488  43.817   3.383  14.809
59556W        W23489  32.541  23.229  11.070
59557W        W23490  10.825  41.827   3.150
59558W        W23491  16.581  23.079  11.918
59559W        W23492  24.076  41.995  14.793
59560W        W23493  40.832  38.539  10.522
59561W        W23494  15.631  35.557   2.691
59562W        W23495  17.169  35.860   3.237
59563W        W23496   9.186  31.634  10.480
59564W        W23497  11.727  12.125  13.495
59565W        W23498  36.902   8.284  13.324
59566W        W23499  28.536   4.704   3.820
59567W        W23500  39.508  12.277  14.836
59568W        W23501  37.373   5.428  12.012
59569W        W23502  12.686   7.337   2.838
59570W        W23503  28.005  32.018   3.208
59571W        W23504  27.491  31.556   0.859
59572W        W23505   5.227  29.139  14.800
59573W        W23506  15.315  33.546  10.547
59574W        W23507  25.608  19.762   5.166
59575W        W23508   9.703  29.030  12.090
59576W        W23509  15.118  10.755   4.237
59577W        W23510   9.802  18.653   1.426
59578W        W23511  13.319  38.370  14.010
59579W        W23512  33.439  24.110   9.982
59580W        W23513   5.805   2.296   9.583
59581W        W23514  16.235  16.696  11.375
59582W        W23515  21.202  39.859  10.628
59583W        W23516  28.508  35.874   1.729
59584W        W23517  28.009  20.221  12.472
59585W        W23518   6.341  39.912  10.933
59586W        W23519   3.815   1.394   2.225
59587W        W23520  38.890  34.509  10.589
59588W        W23521  11.854   0.386  13.371
59589W        W23522  30.126  16.223   0.885
59590W        W23523  41.516  14.225   0.925
59591W        W23524  41.472  12.222  10.894
59592W        W23525  29.498  27.666   4.717
59593W        W23526  28.482   9.290   1.733
59594W        W23527  41.331  17.792  13.518
59595W        W23528  18.265  32.927   4.255
59596W        W23529  13.762   7.782  14.921
59597W        W23530  35.369  10.865   2.894
59598W        W23531   9.883  22.601  12.828
59599W        W23532  29.629  32.475   0.437
59600W        W23533  38.410  12.779   1.427
59601W        W23534  32.936  12.228  13.362
59602W        W23535   4.218  30.117   4.619
59603W        W23536  26.970  43.486  12.042
59604W        W23537  16.725  36.962   5.100
59605W        W23538  44.935  35.386   1.355
59606W        W23539   2.426  38.512  14.948
59607W        W23540   6.234  19.581   3.679
59608W        W23541  34.081  24.193  11.895
59609W        W23542  26.465   8.168   1.824
59610W        W23543  22.156  39.326  13.828
59611W        W23544  26.552  43.405   2.351
59612W        W23545  12.166  34.045   0.898
59613W        W23546   7.824  30.990  13.956
59614W        W23547   4.849   8.807   4.209
59615W        W23548  37.425  41.787  10.911
59616W        W23549  35.965  26.539   3.868
59617W        W23550  11.252   9.779   2.721
59618W        W23551  13.257  29.121   2.329
59619W        W23552  44.463   9.889  10.420
59620W        W23553  32.469  27.542  14.319
59621W        W23554  21.070   1.475  14.962
59622W        W23555   9.813   8.738  10.615
59623W        W23556   3.904  34.084  14.992
59624W        W23557   0.480  35.086  11.096
59625W        W23558  27.098  28.179   4.118
59626W        W23559  27.530   2.235   9.451
59627W        W23560   4.289  35.992   1.777
59628W        W23561  38.969  15.804  11.121
59629W        W23562   4.398   1.827  12.444
59630W        W23563  27.022   7.838   2.769
59631W        W23564  21.208  32.633  14.346
59632W        W23565   0.322  12.169   0.455
59633W        W23566  41.292  23.719   4.216
59634W        W23567  17.085  20.042  12.005
59635W        W23568  34.925  16.599  14.028
59636W        W23569   1.420  16.677   3.756
59637W        W23570  42.472  37.057  11.442
59638W        W23571  21.521   2.803   1.330
59639W        W23572  21.667  30.946   1.706
59640W        W23573  26.619   5.288  11.878
59641W        W23574  37.022  19.701   1.240
59642W        W23575  24.637  17.146  13.429
59643W        W23576  11.691   4.740  13.345
59644W        W23577  37.364  43.941  12.050
59645W        W23578  15.674   2.922  12.368
59646W        W23579  44.454  23.733   4.348
59647W        W23580  18.584   9.252  11.010
59648W        W23581  35.865  24.227   3.210
59649W        W23582  20.062  12.244   2.856
59650W        W23583  11.831  21.668   3.745
59651W        W23584   4.917  16.223  12.448
59652W        W23585  43.507  40.502  13.523
59653W        W23586  32.451  38.528   4.237
59654W        W23587  10.851  35.398   3.195
59655W        W23588   2.468  41.457  13.520
59656W        W23589  18.670  11.755  12.400
59657W        W23590  39.888   5.421  10.990
59658W        W23591  20.639  21.064   3.866
59659W        W23592  11.292  12.807   4.683
59660W        W23593  29.621  37.446  13.408
59661W        W23594  19.188  30.916   0.451
59662W        W23595  31.620  44.808  10.475
59663W        W23596  38.352   7.232   0.957
59664W        W23597  26.192  10.788  11.425
59665W        W23598  42.010  27.008   2.266
59666W        W23599  23.654  33.591  11.546
59667W        W23600  34.460   1.846   4.694
59668W        W23601   2.828  19.630  10.922
59669W        W23602  29.958  36.453   0.274
59670W        W23603  18.229   7.890  13.471
59671W        W23604  25.139  19.685   2.870
59672W        W23605  11.767   9.777  14.276
59673W        W23606   4.334  34.901   1.757
59674W        W23607  19.227  43.415   4.313
59675W        W23608  11.183  31.037  12.527
59676W        W23609  41.915   4.265  13.010
59677W        W23610  27.091  40.504   3.866
59678W        W23611   6.394   2.830   1.832
59679W        W23612  44.784  10.301  10.980
59680W        W23613   8.726  11.864  12.538
59681W        W23614  42.402  23.019  12.898
59682W        W23615  29.952   8.696   0.931
59683W        W23616  29.982  30.931   4.719
59684W        W23617  43.773   9.695   4.251
59685W        W23618  43.894  17.267   0.915
59686W        W23619   5.777  11.266   2.345
59687W        W23620  43.847  10.846  12.927
59688W        W23621  39.858   6.379   3.385
59689W        W23622  16.157  23.553  13.329
59690W        W23623   0.842  23.658   0.806
59691W        W23624  19.166   5.389   2.796
59692W        W23625  15.698  26.964  10.490
59693W        W23626  17.194  34.382   9.944
59694W        W23627  18.636  14.314  12.924
59695W        W23628  16.150  35.900   1.798
59696W        W23629  22.168  10.219   0.944
59697W        W23630  41.030   8.392  12.376
59698W        W23631  33.414  10.706  13.448
59699W        W23632   3.251  42.310   1.854
59700W        W23633  25.183  12.717  11.116
59701W        W23634  10.660   0.355   2.881
59702W        W23635   9.185  28.655  12.866
59703W        W23636   1.249  14.282   0.936
59704W        W23637  44.479  23.166  13.387
59705W        W23638  42.779  12.220   0.854
59706W        W23639  42.414  24.093   1.341
59707W        W23640  18.078  41.025  13.829
59708W        W23641   4.256  25.638   0.340
59709W        W23642  33.493  14.110  14.502
59710W        W23643  26.154  20.202   4.129
59711W        W23644   3.433  10.244  10.503
59712W        W23645  35.909  35.566   4.684
59713W        W23646  43.834  25.629   1.267
59714W        W23647  21.670  30.569  10.463
59715W        W23648  29.581   5.887   4.241
59716W        W23649  31.117  14.179   3.681
59717W        W23650  42.394  22.091  11.918
59718W        W23651   2.822  36.589   1.311
59719W        W23652  25.699  15.781   9.934
59720W        W23653  18.595  42.857   1.768
59721W        W23654   3.771  38.405  13.452
59722W        W23655  20.535  10.260   0.764
59723W        W23656   6.712   4.289  12.983
59724W        W23657  24.489  15.760   4.123
59725W        W23658  37.570  28.945   4.271
59726W        W23659  15.597  16.216  11.450
59727W        W23660  17.614   8.308   3.270
59728W        W23661   5.234  40.978  13.476
59729W        W23662  16.276  20.761  14.465
59730W        W23663  33.385  23.547  14.512
59731W        W23664  35.494   1.390  14.902
59732W        W23665  37.993  36.871   0.467
59733W        W23666  42.365  21.202   3.324
59734W        W23667  35.466  28.583   2.384
59735W        W23668  20.708  30.534  12.984
59736W        W23669  38.544  20.650   2.417
59737W        W23670   4.812  36.411  14.458
59738W        W23671  37.872  33.927  14.502
59739W        W23672  12.229  24.489  12.836
59740W        W23673  10.258  35.593   0.255
59741W        W23674  19.228  23.096   4.623
59742W        W23675   0.978   5.883  12.433
59743W        W23676   0.412  25.215  11.425
59744W        W23677  21.099  42.496   4.223
59745W        W23678  11.752  44.833   3.202
59746W        W23679  41.469  21.681   2.335
59747W        W23680  15.665  37.021   1.275
59748W        W23681  22.221  44.799   3.172
59749W        W23682  34.583  25.707   4.267
59750W        W23683   4.215   2.418   2.696
59751W        W23684  42.421  19.668   0.863
59752W        W23685  10.667  24.494  13.389
59753W        W23686  22.109  41.984  13.431
59754W        W23687  30.583  12.610  14.989
59755W        W23688   6.723  21.220   1.885
59756W        W23689  35.540  27.538  11.030
59757W        W23690  28.973  15.200   2.256
59758W        W23691  21.533  22.521  12.527
59759W        W23692  22.696  11.673   3.379
59760W        W23693  26.670  27.464   0.422
59761W        W23694  10.744  17.180   3.704
59762W        W23695  32.885  23.549   4.823
59763W        W23696  19.244  34.023  10.982
59764W        W23697  30.142  10.689   3.637
59765W        W23698  42.974   1.341  10.615
59766W        W23699  44.985  26.015  14.960
59767W        W23700   4.800   8.351   4.125
59768W        W23701  26.088  44.312   0.837
59769W        W23702  34.391  36.027   2.716
59770W        W23703  17.307  19.680  11.396
59771W        W23704   8.779  33.487  10.972
59772W        W23705  13.629   9.728  13.971
59773W        W23706  35.416  44.955   0.894
59774W        W23707   5.382  25.536   1.780
59775W        W23708  38.445  21.736  13.386
59776W        W23709  37.861   3.737   4.192
59777W        W23710  30.104  25.493   4.686
59778W        W23711  21.642   4.211  12.921
59779W        W23712  24.085  23.999   3.729
59780W        W23713  42.469   7.722  11.583
59781W        W23714   4.884  23.049  10.478
59782W        W23715  30.481   4.823  11.884
59783W        W23716  12.769  44.871   1.755
59784W        W23717   0.318  17.728  12.902
59785W        W23718   5.349  14.621  12.475
59786W        W23719  29.464  19.652   9.965
59787W        W23720  21.185  12.620  14.379
59788W        W23721  44.903   4.223  14.458
59789W        W23722  12.122   4.326  12.343
59790W        W23723   3.397   3.896   3.240
59791W        W23724  15.176   9.396   1.794
59792W        W23725  35.087   9.726  12.532
59793W        W23726  31.023  20.647  10.610
59794W        W23727  34.403   3.361   0.249
59795W        W23728  32.011  42.458  13.322
59796W        W23729   8.404   4.435   0.747
59797W        W23730  31.615   6.744  14.774
59798W        W23731  10.205   5.865   2.403
59799W        W23732  16.658  12.734  10.632
59800W        W23733  43.775   5.407   2.312
59801W        W23734  15.273   9.758   0.957
59802W        W23735  23.616   9.686   4.257
59803W        W23736  34.061  29.918   1.442
59804W        W23737  43.013  29.954  10.626
59805W        W23738  14.206  43.788  12.531
59806W        W23739  36.983  41.028   0.933
59807W        W23740  39.931  39.542   9.642
59808W        W23741  39.023  16.078  14.361
59809W        W23742  42.350  24.210   0.475
59810W        W23743   7.246  20.087  12.859
59811W        W23744  38.060  16.631   4.818
59812W        W23745  24.176  15.786  12.878
59813W        W23746   3.772  22.587   4.156
59814W        W23747  42.506   0.904   3.295
59815W        W23748  36.021  42.021   4.689
59816W        W23749   3.231   9.319   3.863
59817W        W23750  34.975   6.680  12.533
59818W        W23751   7.731   9.393  11.449
59819W        W23752  31.076  11.709  14.310
59820W        W23753  33.875   7.673   1.356
59821W        W23754  43.492  23.601   0.852
59822W        W23755  15.256  28.129  14.822
59823W        W23756  25.132  12.300  12.900
59824W        W23757  41.481  30.984  11.912
59825W        W23758  43.865  23.149   3.678
59826W        W23759  40.321  26.174   0.262
59827W        W23760  27.586  37.506  12.038
59828W        W23761  17.608  32.617  11.077
59829W        W23762  26.471  27.118   1.742
59830W        W23763   1.375  24.075  13.438
59831W        W23764   3.743  32.885  11.997
59832W        W23765  44.363  39.034   0.305
59833W        W23766  24.217  35.598  11.054
59834W        W23767  41.364   6.381   1.931
59835W        W23768   6.221  24.196   4.157
59836W        W23769   6.726   8.897   1.325
59837W        W23770  29.619   9.866   1.861
59838W        W23771   2.861  10.337  10.063
59839W        W23772  34.438  12.197   3.184
59840W        W23773   7.182   7.886   0.305
59841W        W23774   3.459  29.522   3.843
59842W        W23775  42.492  13.117   0.460
59843W        W23776   8.208  38.929  12.040
59844W        W23777   7.802  38.000   4.685
59845W        W23778  37.562  32.527   4.699
59846W        W23779  20.175   7.777  13.985
59847W        W23780  37.340  34.393  10.907
59848W        W23781  37.440  35.041   2.414
59849W        W23782   4.841  42.892   3.292
59850W        W23783  40.958  11.271   2.320
59851W        W23784   9.869  38.549  13.976
59852W        W23785  28.022  15.095   1.912
59853W        W23786  15.206   1.892   4.692
59854W        W23787  35.598  31.538   3.221
59855W        W23788  32.932  38.956  10.644
59856W        W23789  33.500  22.025  14.940
59857W        W23790  26.669  40.916   2.684
59858W        W23791  22.150   2.298   0.373
59859W        W23792  24.594  19.201  13.891
59860W        W23793  15.578  38.379  14.993
59861W        W23794  21.039  36.369   2.250
59862W        W23795   0.489  15.182   0.919
59863W        W23796  37.463  32.000  10.575
59864W        W23797  18.090  42.378   2.851
59865W        W23798  26.524  41.951  14.338
59866W        W23799  30.094  42.802   0.252
59867W        W23800  32.111   5.242   4.828
59868W        W23801  38.936  44.283   4.153
59869W        W23802  12.800   9.297   4.693
59870W        W23803  15.749  18.203  12.854
59871W        W23804  10.846  35.018  12.380
59872W        W23805  26.598   1.476   1.881
59873W        W23806  38.952  31.595   3.687
59874W        W23807  42.837  44.874  12.069
59875W        W23808  25.986   5.866  11.511
59876W        W23809  26.015  15.131  13.455
59877W        W23810  40.038  29.937   2.882
59878W        W23811  18.720  19.165  10.633
59879W        W23812  15.105   6.306   0.799
59880W        W23813  12.708  16.250  11.995
59881W        W23814   0.316  40.945  12.413
59882W        W23815  36.398  23.534  13.871
59883W        W23816   0.804  31.406  10.969
59884W        W23817  13.714   7.222  12.544
59885W        W23818  11.753   4.425   3.653
59886W        W23819  30.105  24.544   2.694
59887W        W23820  27.680  30.137   3.344
59888W        W23821  39.982   3.720  12.929
59889W        W23822  24.992  41.988   1.436
59890W        W23823  43.402  13.741   2.693
59891W        W23824   8.755  19.601   4.163
59892W        W23825   4.293  34.983   4.115
59893W        W23826  26.085  40.982  12.041
59894W        W23827  16.237  37.899  14.788
59895W        W23828  12.282  29.611  12.019
59896W        W23829  17.768  39.876   2.742
59897W        W23830  25.040  24.182   4.206
59898W        W23831  12.267  15.319   2.187
59899W        W23832  44.310  24.715  13.845
59900W        W23833  35.895  40.530   3.184
59901W        W23834  44.413  20.671   0.392
59902W        W23835  16.626  29.128   0.253
59903W        W23836  44.269  16.291  11.861
59904W        W23837  34.442  34.089  14.413
59905W        W23838   6.307  27.618   2.407
59906W        W23839  43.322  19.720   4.652
59907W        W23840  34.897  44.384   5.134
59908W        W23841   0.952  21.263  13.459
59909W        W23842  14.182  38.903  14.313
59910W        W23843   7.799  24.543  14.810
59911W        W23844  13.654  31.461   1.274
59912W        W23845  38.418  26.037   2.817
59913W        W23846   0.359  41.974   3.371
59914W        W23847   3.250  42.931  13.842
59915W        W23848   2.421  26.566   1.748
59916W        W23849  21.552  22.161   2.414
59917W        W23850  14.242   3.883  11.571
59918W        W23851  42.422  36.532  11.000
59919W        W23852  24.149  37.536   1.250
59920W        W23853  42.316  26.609  14.467
59921W        W23854  37.459  33.100  12.843
59922W        W23855  32.051  17.111   1.809
59923W        W23856   1.779  30.012  13.313
59924W        W23857  16.582  15.806  10.632
59925W        W23858  20.678  23.580  14.280
59926W        W23859  42.312  33.397  12.949
59927W        W23860  41.414  39.027   4.197
59928W        W23861  35.872  34.561   3.183
59929W        W23862   2.392  18.635   2.263
59930W        W23863  26.102  36.400  13.889
59931W        W23864  21.147  30.466  12.998
59932W        W23865   6.919  28.496   1.825
59933W        W23866  21.179  16.725  13.817
59934W        W23867  19.606  27.941  14.984
59935W        W23868   5.433  25.180   3.791
59936W        W23869  12.129  39.340  11.441
59937W        W23870  39.028   9.288   4.154
59938W        W23871  19.703   1.367  13.427
59939W        W23872   7.735  39.831  14.453
59940W        W23873  43.513   3.437  12.564
59941W        W23874  14.810  11.208  11.115
59942W        W23875   9.878   1.283  11.063
59943W        W23876   9.742  43.998   0.807
59944W        W23877  10.365   0.249  13.497
59945W        W23878  42.855  24.123  10.504
59946W        W23879  20.631   7.403   0.800
59947W        W23880   2.737   7.370   2.800
59948W        W23881  27.962  13.803   1.311
59949W        W23882  15.118  21.723  12.575
59950W        W23883  17.119   6.313  12.096
59951W        W23884   5.231  23.624  12.496
59952W        W23885  26.464   7.802   5.227
59953W        W23886   0.898  13.344   4.228
59954W        W23887  40.027  33.059   4.202
59955W        W23888  43.512  28.103  11.028
59956W        W23889  38.433   6.206   2.792
59957W        W23890  36.513  17.215   1.795
59958W        W23891   6.353  22.092  12.069
59959W        W23892   9.279  26.192   5.144
59960W        W23893  28.601  34.109   3.303
59961W        W23894   1.447  31.134  13.331
59962W        W23895  27.454  16.316  14.471
59963W        W23896  10.296  23.721   1.754
59964W        W23897  36.486   1.960   0.318
59965W        W23898  43.435  25.079  10.906
59966W        W23899  18.758  11.853  14.014
59967W        W23900  16.281  11.755  12.974
59968W        W23901  20.727   5.786   1.724
59969W        W23902  19.676  23.124  11.897
59970W        W23903  16.593   1.376  13.849
59971W        W23904  23.131  40.449  14.809
59972W        W23905  41.032  23.025   0.867
59973W        W23906  30.159   8.725   2.405
59974W        W23907  42.914   6.306  10.539
59975W        W23908  16.315  28.526  13.357
59976W        W23909  17.278  42.389   3.262
59977W        W23910  15.725  40.971   3.272
59978W        W23911  27.664  40.493   4.642
59979W        W23912  31.107  18.065  12.392
59980W        W23913  25.088  16.257  11.885
59981W        W23914  29.547  42.369   4.788
59982W        W23915   7.310   0.864  10.921
59983W        W23916  11.722  36.004   0.275
59984W        W23917  14.809  29.560  11.552
59985W        W23918   3.892   4.719   3.703
59986W        W23919  11.231  26.680   3.357
59987W        W23920   4.708  25.514  11.069
59988W        W23921  21.585   3.824  14.915
59989W        W23922  19.200   2.960   4.139
59990W        W23923   9.186  35.886   4.824
59991W        W23924  10.342  29.557   4.266
59992W        W23925  18.638   3.424   2.710
59993W        W23926  19.777  36.407   4.225
59994W        W23927  44.006  44.879   1.432
59995W        W23928  40.361  43.288   2.885
59996W        W23929  21.104  13.820  12.430
59997W        W23930  33.559   1.347   3.291
59998W        W23931   9.694  12.748  12.433
59999W        W23932   3.832  34.946  13.348
60000W        W23933   2.943  22.577   3.659
60001W        W23934   7.210  41.924   4.636
60002W        W23935  13.116  24.500  12.475
60003W        W23936  26.493  19.725   4.798
60004W        W23937  26.658   0.253   9.536
60005W        W23938   9.225  23.726   0.321
60006W        W23939  18.584  19.063   5.088
60007W        W23940  33.067  44.925  11.064
60008W        W23941  37.369   1.392  12.410
60009W        W23942  24.022  28.045  14.022
60010W        W23943  43.007  34.923  11.398
60011W        W23944   6.380  42.357   1.774
60012W        W23945  41.853  28.075  12.367
60013W        W23946  40.364  27.657   0.463
60014W        W23947  44.886  12.643  12.863
60015W        W23948  38.992  34.574   3.198
60016W        W23949   7.347   6.188  12.368
60017W        W23950  23.686  13.160   4.320
60018W        W23951  18.082   0.813   2.286
60019W        W23952  34.559   5.255   2.776
60020W        W23953   8.881   5.393  10.916
60021W        W23954  39.443  43.451  10.908
60022W        W23955  33.990  16.670  10.941
60023W        W23956  33.928  27.540  14.507
60024W        W23957  13.603  32.016  10.492
60025W        W23958  25.633  40.965   4.329
60026W        W23959  44.861  37.523  14.454
60027W        W23960   7.739  35.430  11.937
60028W        W23961  40.435  30.483   3.295
60029W        W23962  19.582  26.598  14.862
60030W        W23963  17.163  37.953  14.316
60031W        W23964   1.761  18.677  11.613
60032W        W23965   6.705  23.697  10.443
60033W        W23966   1.790   4.801  11.015
60034W        W23967   8.302  10.638   4.344
60035W        W23968  23.724  42.871  12.037
60036W        W23969  19.256  40.941   5.595
60037W        W23970   3.851  21.685   2.753
60038W        W23971  39.535  25.024  12.831
60039W        W23972   2.851  34.417  14.394
60040W        W23973  26.569  38.422  14.420
60041W        W23974  10.664  29.096  12.469
60042W        W23975  36.940  22.070   2.894
60043W        W23976  34.605   9.769  14.511
60044W        W23977  42.882  22.061   0.380
60045W        W23978  22.714  35.986  13.321
60046W        W23979  42.997  29.540   3.354
60047W        W23980   7.892  17.176   0.433
60048W        W23981  23.686  20.107   1.257
60049W        W23982  31.097   1.272   2.818
60050W        W23983  43.864  32.051  14.949
60051W        W23984  35.476  41.859  14.895
60052W        W23985   4.245  39.496   1.877
60053W        W23986  42.508  34.503   2.764
60054W        W23987  44.475   2.434  14.305
60055W        W23988  24.036  21.058   4.168
60056W        W23989  14.253  27.577  13.307
60057W        W23990  12.139  14.657   3.788
60058W        W23991  44.368  33.926  10.584
60059W        W23992   3.421  33.880  13.039
60060W        W23993  10.646  43.841   0.427
60061W        W23994  38.063   1.809   2.418
60062W        W23995  28.609  22.689   3.734
60063W        W23996   3.372   5.418   2.827
60064W        W23997   0.745  42.296   4.795
60065W        W23998  17.576   7.270   4.658
60066W        W23999   0.847  11.662   1.372
60067W        W24000  16.574  17.797   0.819
60068W        W24001  16.212  31.075   1.425
60069W        W24002  15.233  12.762   4.826
60070W        W24003  40.850  30.414   1.314
60071W        W24004  41.374  31.461   0.932
60072W        W24005  38.459   1.847  12.896
60073W        W24006  38.071  16.188  12.359
60074W        W24007  22.671  26.002  10.123
60075W        W24008  37.032   6.707   4.825
60076W        W24009  19.238   3.764   0.461
60077W        W24010   5.401  29.047   0.947
60078W        W24011   2.443  29.537   2.366
60079W        W24012   9.883   9.347   0.436
60080W        W24013  23.215  32.403   3.168
60081W        W24014  12.618   4.260  13.353
60082W        W24015   9.265  19.215  10.616
60083W        W24016  32.394   3.735  10.440
60084W        W24017  26.048  10.662  12.862
60085W        W24018  18.060   5.706   1.873
60086W        W24019  29.121  44.400  11.006
60087W        W24020  44.259   1.452   4.605
60088W        W24021  12.332   9.649  10.579
60089W        W24022  32.934  18.630  11.428
60090W        W24023  21.227  24.552   4.144
60091W        W24024  26.559  42.979   1.231
60092W        W24025  44.862  39.044   1.909
60093W        W24026  12.169  44.332  12.429
60094W        W24027  20.695   5.889   3.243
60095W        W24028  27.025   2.733  12.095
60096W        W24029  37.385  32.060  10.951
60097W        W24030   9.659  30.034  13.825
60098W        W24031  10.230  44.446   1.700
60099W        W24032   9.823   6.253   1.796
60100W        W24033   6.289  23.612   5.145
60101W        W24034  44.830  36.992   9.674
60102W        W24035   2.764  10.676   1.787
60103W        W24036  24.645  38.447  12.976
60104W        W24037  23.694  37.831   3.363
60105W        W24038   5.247  35.875  12.507
60106W        W24039  15.735  37.918  14.400
60107W        W24040  13.688  40.445   2.776
60108W        W24041  18.657  44.904  12.888
60109W        W24042  19.116  36.886  12.092
60110W        W24043   8.169  21.153  10.950
60111W        W24044   0.839  37.843  11.031
60112W        W24045  24.703  37.936   4.724
60113W        W24046  40.392  22.093  11.580
60114W        W24047   5.203  12.752  14.970
60115W        W24048  17.596  11.353   4.821
60116W        W24049  26.501  11.230  12.931
60117W        W24050   8.221   2.956  12.954
60118W        W24051  13.330  43.908   1.267
60119W        W24052  43.383  14.302   4.657
60120W        W24053  39.966  10.694  11.446
60121W        W24054   9.697  15.231  10.986
60122W        W24055   6.880   8.360   2.329
60123W        W24056  32.572  27.072   3.219
60124W        W24057  36.895   9.802  11.507
60125W        W24058  38.474  44.387  11.555
60126W        W24059  18.688   0.303   0.271
60127W        W24060  37.874  23.700  12.857
60128W        W24061  18.236  15.148   0.736
60129W        W24062  30.096  44.453  11.501
60130W        W24063  41.316  32.993  11.493
60131W        W24064   3.736  35.043   3.716
60132W        W24065  23.085  41.885   3.181
60133W        W24066  10.237   3.817   5.247
60134W        W24067  29.565  14.653   4.655
60135W        W24068   9.276  36.496   3.358
60136W        W24069  36.964  43.861   1.859
60137W        W24070  25.524  29.012  11.507
60138W        W24071  39.473   6.828   2.393
60139W        W24072   6.815  27.473   0.781
60140W        W24073  37.979  18.598   3.665
60141W        W24074  14.174  39.394  11.941
60142W        W24075   6.366   2.290  10.607
60143W        W24076   5.751   9.261  13.508
60144W        W24077  29.926   7.202  10.889
60145W        W24078   7.306   9.689  11.060
60146W        W24079  41.835  38.911   3.338
60147W        W24080  12.811   3.413  11.608
60148W        W24081  34.118  43.976  14.016
60149W        W24082  44.317   8.264   1.700
60150W        W24083  22.188  16.194  11.510
60151W        W24084   2.423  32.920  12.084
60152W        W24085  42.991  10.261   1.719
60153W        W24086  31.097  17.717   0.365
60154W        W24087  28.502  12.800  10.924
60155W        W24088   2.389  21.173  11.942
60156W        W24089   4.883  27.455   0.791
60157W        W24090  12.833  33.565  14.392
60158W        W24091  28.133  44.882   1.328
60159W        W24092  16.160  21.618  14.474
60160W        W24093   2.936  40.469  12.963
60161W        W24094  33.099  37.352  14.294
60162W        W24095  22.734  27.653   2.218
60163W        W24096   9.188  20.627  11.422
60164W        W24097   1.414   9.198  13.988
60165W        W24098   8.364  19.149  14.314
60166W        W24099  38.064  11.622  11.588
60167W        W24100  29.645  30.123  12.897
60168W        W24101   0.268  42.985  12.953
60169W        W24102  32.453  31.086   3.271
60170W        W24103  15.740  18.681   0.757
60171W        W24104  10.381  17.289  10.917
60172W        W24105  41.425  22.526  10.631
60173W        W24106  30.057  39.367   3.217
60174W        W24107  23.158  42.824   2.687
60175W        W24108  10.369  24.205  13.048
60176W        W24109   1.911   6.259   1.253
60177W        W24110  31.125   5.832   4.169
60178W        W24111  40.924  29.542  13.011
60179W        W24112  12.312   8.314   0.756
60180W        W24113   1.874  32.138   1.839
60181W        W24114  10.673  38.413  12.956
60182W        W24115   0.881  32.923  13.011
60183W        W24116   1.942  21.086  11.964
60184W        W24117  41.023  15.666  13.871
60185W        W24118  16.737   4.381  11.006
60186W        W24119   7.310   1.866   1.882
60187W        W24120  26.575   2.758  10.481
60188W        W24121   8.326   3.350   9.969
60189W        W24122  26.687  23.554   4.306
60190W        W24123   4.283  22.183  12.397
60191W        W24124  24.519   2.431   2.830
60192W        W24125   8.393  19.125  11.395
60193W        W24126   8.813  16.780  10.968
60194W        W24127  22.179   2.901  14.477
60195W        W24128   0.766  28.482   3.831
60196W        W24129   5.273  37.569   2.193
60197W        W24130  36.422  17.576  11.547
60198W        W24131   5.758  10.205  12.077
60199W        W24132  44.445  22.599   2.351
60200W        W24133  30.022  34.441   3.208
60201W        W24134  39.907  26.481  10.417
60202W        W24135  41.404  13.306  11.560
60203W        W24136  14.756  16.210   1.894
60204W        W24137  21.746  17.721  10.625
60205W        W24138  11.310  13.666   4.708
60206W        W24139  12.215  44.886  12.877
60207W        W24140   2.438  43.833   2.750
60208W        W24141  11.182  33.565  14.282
60209W        W24142  14.264  14.323   1.243
60210W        W24143  25.689  44.416   3.387
60211W        W24144  23.152   0.827  14.961
60212W        W24145  33.905  17.720   4.184
60213W        W24146  30.570  13.207   4.293
60214W        W24147   4.447  31.050  12.899
60215W        W24148   8.884   0.487   2.337
60216W        W24149  20.158  19.554  11.859
60217W        W24150  23.513  22.006  13.016
60218W        W24151  34.452  17.093  13.919
60219W        W24152  16.072   2.927  13.812
60220W        W24153  38.329   4.316   0.954
60221W        W24154  38.991  11.655  13.486
60222W        W24155  30.041  37.936   1.886
60223W        W24156  20.239   1.410  10.540
60224W        W24157  11.204  21.243  12.967
60225W        W24158  18.197   7.300  13.951
60226W        W24159   0.987  43.809  10.958
60227W        W24160  27.561   0.422  13.394
60228W        W24161  41.447   9.679  12.908
60229W        W24162  26.492  38.923  11.063
60230W        W24163  38.820  41.966  12.896
60231W        W24164  25.028   2.247   2.841
60232W        W24165   6.811  44.921  14.424
60233W        W24166  33.078  43.272  14.491
60234W        W24167  12.251   7.401  11.865
60235W        W24168   9.820  34.405   1.818
60236W        W24169  16.781  31.146  12.016
60237W        W24170  37.939  21.200  14.279
60238W        W24171   3.791  13.209  11.408
60239W        W24172  10.341   0.273  13.819
60240W        W24173   0.311  10.843   0.800
60241W        W24174  15.686  24.710   3.869
60242W        W24175   6.724  32.596  14.345
60243W        W24176  33.940  38.871  10.467
60244W        W24177  21.232  43.893   0.290
60245W        W24178  16.286   7.761   9.927
60246W        W24179   4.701  28.938   0.769
60247W        W24180   3.237   0.325   3.760
60248W        W24181   1.828  15.288   1.806
60249W        W24182  32.908   6.398  13.872
60250W        W24183  17.301   0.868  12.055
60251W        W24184  16.270  43.792   0.422
60252W        W24185  13.288  43.845   3.244
60253W        W24186   0.296  22.063   2.241
60254W        W24187  30.081  42.811   3.188
60255W        W24188  30.018  25.186  14.510
60256W        W24189  44.837  30.100   0.433
60257W        W24190  14.128  33.010  12.567
60258W        W24191   9.817   9.194   2.786
60259W        W24192  28.998  34.981   0.917
60260W        W24193  16.696  15.651   2.270
60261W        W24194  24.548  16.099  11.055
60262W        W24195  40.979  25.566   0.260
60263W        W24196  13.742  11.272  10.507
60264W        W24197  41.436  35.506  10.636
60265W        W24198  41.013   5.209   0.317
60266W        W24199  38.511  24.479  10.938
60267W        W24200   5.339  29.659  14.460
60268W        W24201  19.260  25.144   0.750
60269W        W24202  37.368   5.872   4.161
60270W        W24203  20.266  42.483  11.478
60271W        W24204  33.456  30.938  14.427
60272W        W24205  39.333   2.815  12.360
60273W        W24206  29.465  12.730   5.150
60274W        W24207  28.096  30.589   0.918
60275W        W24208   5.369   5.390  14.930
60276W        W24209  41.299  35.924  11.885
60277W        W24210  24.134   2.870   2.326
60278W        W24211  30.463  18.261  11.586
60279W        W24212  22.193  17.300   4.166
60280W        W24213  22.544  32.498   3.267
60281W        W24214   9.871  40.871   1.377
60282W        W24215  20.033  16.709   1.810
60283W        W24216  40.307   0.447  14.437
60284W        W24217  41.499  19.764  13.047
60285W        W24218  42.459   6.337   2.345
60286W        W24219  28.184   2.884   4.244
60287W        W24220  31.090  43.791   3.178
60288W        W24221  32.636  41.362  12.051
60289W        W24222  22.090  13.302   3.150
60290W        W24223  25.567  35.949  12.071
60291W        W24224   8.226  24.110   5.214
60292W        W24225  41.478  33.596   2.720
60293W        W24226  34.003   2.449  14.353
60294W        W24227   4.845  36.989  10.973
60295W        W24228  42.524  23.734   1.438
60296W        W24229   3.455  21.587   2.771
60297W        W24230  16.809  42.359  11.399
60298W        W24231  39.946  38.411   1.885
60299W        W24232  31.619  13.285  11.978
60300W        W24233  41.468  42.888  13.314
60301W        W24234  22.164  15.706   4.618
60302W        W24235  16.277  39.919   0.422
60303W        W24236   7.350  10.686   2.224
60304W        W24237  11.251  35.500  12.487
60305W        W24238  16.201  30.954   3.299
60306W        W24239   3.248   0.929   3.834
60307W        W24240  12.830   4.710   9.597
60308W        W24241  26.040  35.941  13.801
60309W        W24242  34.979  44.935   1.823
60310W        W24243   4.707   3.905   4.116
60311W        W24244  43.342  24.023  13.882
60312W        W24245  11.287  39.486  11.092
60313W        W24246  39.970  27.545  11.423
60314W        W24247   8.261  32.101   4.218
60315W        W24248  28.471  25.507   0.279
60316W        W24249   7.272  14.191  12.861
60317W        W24250   9.777  43.982  12.039
60318W        W24251  33.408   3.358  13.832
60319W        W24252   1.416  35.078   4.310
60320W        W24253  22.659  44.376   5.141
60321W        W24254  28.094  19.189   3.826
60322W        W24255   1.416  29.557   0.771
60323W        W24256  28.109   6.304  13.976
60324W        W24257   1.367  10.851  14.510
60325W        W24258  35.100  27.090   2.200
60326W        W24259  44.500  29.984   0.738
60327W        W24260  44.843  38.536   4.837
60328W        W24261  39.354   0.755   0.457
60329W        W24262  23.590   4.737   2.837
60330W        W24263  30.466  23.008   2.759
60331W        W24264  26.494  43.446  10.596
60332W        W24265   1.423  33.127   3.231
60333W        W24266  44.412  39.057  12.391
60334W        W24267  27.559   1.810  10.617
60335W        W24268   1.903  38.422  13.860
60336W        W24269   8.192  36.363  15.000
60337W        W24270  16.715  14.792  14.844
60338W        W24271  15.787  26.696   1.889
60339W        W24272   9.671  25.972  13.815
60340W        W24273  10.661  40.814  14.933
60341W        W24274  31.137  18.701   1.440
60342W        W24275  14.210  24.179  11.426
60343W        W24276  21.199  33.398  10.537
60344W        W24277   2.804   4.401  11.053
60345W        W24278  20.048  20.646   0.841
60346W        W24279   2.847  43.998  14.497
60347W        W24280  29.140  36.008  13.353
60348W        W24281   5.233  41.948   1.285
60349W        W24282  26.017   3.373  12.901
60350W        W24283  43.458  35.575   1.826
60351W        W24284   2.257  26.589   5.213
60352W        W24285   4.909   4.943  11.544
60353W        W24286  27.609  26.483  11.920
60354W        W24287  16.692  13.139  13.987
60355W        W24288  29.958  24.093  10.626
60356W        W24289  30.468   2.272  12.388
60357W        W24290   3.937   2.763   4.629
60358W        W24291  38.482  35.856  14.458
60359W        W24292   3.344   7.410  13.460
60360W        W24293  20.196  33.483   3.669
60361W        W24294  35.491  11.864  11.425
60362W        W24295  43.992  39.026   1.935
60363W        W24296   9.267  13.845  11.398
60364W        W24297   8.869   9.206   0.760
60365W        W24298  27.622  12.757   4.800
60366W        W24299  13.827  13.296  14.021
60367W        W24300   0.284  20.546  13.442
60368W        W24301  17.282  30.072   1.770
60369W        W24302  29.171  15.713  11.527
60370W        W24303  36.593  19.175   4.213
60371W        W24304  14.272   2.744  14.888
60372W        W24305  25.077  21.656  14.855
60373W        W24306  38.942  31.148  11.051
60374W        W24307  11.189  17.128  12.449
60375W        W24308  35.570  22.718  13.406
60376W        W24309  40.372   5.823  13.442
60377W        W24310  37.967   2.427  10.960
60378W        W24311   8.786  19.705   4.762
60379W        W24312   6.361  14.260   0.284
60380W        W24313  36.927  12.832  13.797
60381W        W24314  36.458  25.665  14.948
60382W        W24315   6.315   8.698  14.336
60383W        W24316  35.014  43.380  10.412
60384W        W24317   9.746  14.604   3.802
60385W        W24318   9.215  15.810  12.947
60386W        W24319  27.047  16.251  13.487
60387W        W24320  33.403  29.162   4.253
60388W        W24321  31.484   4.848   1.921
60389W        W24322  40.010   6.390  12.894
60390W        W24323  21.576  26.140  12.064
60391W        W24324  24.191  43.392  11.584
60392W        W24325   4.425  13.692   0.744
60393W        W24326  25.210   7.805   3.870
60394W        W24327  20.272  15.179  13.840
60395W        W24328  31.506  16.726  10.438
60396W        W24329  17.621  38.929  14.469
60397W        W24330  20.530  16.748   2.200
60398W        W24331  28.502  37.502  10.913
60399W        W24332  33.005   5.784   2.709
60400W        W24333  21.676  42.853   1.439
60401W        W24334   7.812  37.353  11.944
60402W        W24335  41.962   5.209  14.011
60403W        W24336  35.478   0.271   4.744
60404W        W24337  33.438  27.645  12.484
60405W        W24338  19.601  21.601  14.448
60406W        W24339   8.821  24.525   2.343
60407W        W24340  35.433   3.403  14.467
60408W        W24341  42.815   1.759  11.468
60409W        W24342  15.699  21.178  13.926
60410W        W24343  43.386  44.830  14.281
60411W        W24344  37.864  13.344  10.425
60412W        W24345  18.667  23.681   2.669
60413W        W24346  20.176  10.724  13.049
60414W        W24347  18.143  32.515   4.831
60415W        W24348  14.199  19.040   3.181
60416W        W24349   4.929  11.694   0.375
60417W        W24350  27.190  37.467  10.589
60418W        W24351   4.868  12.231   0.333
60419W        W24352  32.125  35.000  14.368
60420W        W24353   1.804   8.683   3.268
60421W        W24354  18.758  44.347  12.402
60422W        W24355  27.180  36.933  13.382
60423W        W24356  42.820  18.598   2.388
60424W        W24357   1.320  18.102  14.405
60425W        W24358  43.919  21.517   0.426
60426W        W24359  34.504  24.607   3.825
60427W        W24360  24.706  30.045  13.418
60428W        W24361  38.911  18.685  13.463
60429W        W24362  10.759   8.720   3.272
60430W        W24363  44.354   1.955   3.754
60431W        W24364  17.759  11.187   3.264
60432W        W24365  44.873   2.435   1.807
60433W        W24366   5.341  17.304  10.634
60434W        W24367  42.361  38.045  13.959
60435W        W24368   4.224   5.762   2.387
60436W        W24369  44.318  30.519  13.378
60437W        W24370  27.065   9.386   1.445
60438W        W24371   1.810  20.203   1.913
60439W        W24372  27.029  37.846   2.357
60440W        W24373  18.290  26.159  11.059
60441W        W24374  29.591  35.042  11.386
60442W        W24375  44.882   3.830   3.772
60443W        W24376  26.957  24.092  13.492
60444W        W24377   0.362   3.437  11.531
60445W        W24378  32.024  42.945   0.929
60446W        W24379  30.434  14.139  12.910
60447W        W24380   7.685   6.274   2.767
60448W        W24381  37.919  15.110   4.634
60449W        W24382  11.343   1.859   4.642
60450W        W24383  29.450  10.241   0.246
60451W        W24384  22.698  23.186   1.794
60452W        W24385  17.663  18.738  14.409
60453W        W24386   9.326  37.421   4.813
60454W        W24387  39.899  19.578   4.686
60455W        W24388   0.911  22.651  12.484
60456W        W24389  43.014  33.005   2.388
60457W        W24390  44.753  21.109   2.374
60458W        W24391  11.269   0.454   4.838
60459W        W24392   0.957   4.768  13.380
60460W        W24393  30.059   2.830  14.976
60461W        W24394  17.104   4.778   3.381
60462W        W24395  24.514  10.721  12.567
60463W        W24396  28.943   7.320   2.877
60464W        W24397  41.447  28.611   2.714
60465W        W24398  33.944  28.934  11.925
60466W        W24399  12.788  36.986   1.830
60467W        W24400  18.627   3.308  10.517
60468W        W24401  10.780  16.261   4.344
60469W        W24402  17.754  35.422   4.630
60470W        W24403   2.367  23.641   4.227
60471W        W24404  39.906   9.373  14.822
60472W        W24405   9.803  31.556   0.792
60473W        W24406  18.266  29.085   2.860
60474W        W24407  24.989  44.488   1.239
60475W        W24408  26.670  28.441  12.441
60476W        W24409   2.463  38.553  12.440
60477W        W24410  41.877  38.560   5.156
60478W        W24411  17.560  30.658   1.260
60479W        W24412  10.798  22.195  12.889
60480W        W24413  29.931  32.004  14.886
60481W        W24414  38.029  29.449   1.778
60482W        W24415  37.857  36.883   2.745
60483W        W24416  11.697   6.845   3.786
60484W        W24417  28.553  14.185   0.733
60485W        W24418  30.144  29.606  11.424
60486W        W24419  10.239  42.422  14.279
60487W        W24420  23.236  24.635  11.440
60488W        W24421   5.404  27.960  12.372
60489W        W24422  11.240  29.922  12.342
60490W        W24423  15.300  27.690   2.892
60491W        W24424  31.631   2.395   4.232
60492W        W24425  36.973  11.744   3.739
60493W        W24426   7.366  27.458  14.822
60494W        W24427  37.560  38.569   1.296
60495W        W24428  39.541  29.507   1.866
60496W        W24429  43.782  23.639  14.996
60497W        W24430  15.259   6.907  12.886
60498W        W24431  32.051  19.090  13.963
60499W        W24432  23.127  27.002  14.355
60500W        W24433  22.658   5.269  11.547
60501W        W24434  32.142  14.182   2.342
60502W        W24435  10.250   7.750   2.273
60503W        W24436  11.738   8.387  14.827
60504W        W24437   6.275  14.643  12.050
60505W        W24438  22.173  15.186   4.597
60506W        W24439  25.616  27.023   3.871
60507W        W24440  23.174  38.862  14.329
60508W        W24441  21.263   2.928  10.964
60509W        W24442   9.182  11.699  14.931
60510W        W24443  43.880  30.152  10.513
60511W        W24444  10.170  14.812  10.585
60512W        W24445  18.723  38.043  11.052
60513W        W24446  32.996   1.786  12.045
60514W        W24447  33.568  42.501  13.314
60515W        W24448  32.594  21.153   3.210
60516W        W24449   1.323  40.896   3.173
60517W        W24450  27.168   1.977   4.684
60518W        W24451   4.390  19.683   4.329
60519W        W24452   0.959  34.577  10.427
60520W        W24453   9.886  22.226  14.024
60521W        W24454  44.791   4.240   4.293
60522W        W24455  15.148  23.215   0.304
60523W        W24456  40.951  18.229   0.446
60524W        W24457  23.073  14.271   1.380
60525W        W24458  43.912  42.527   3.342
60526W        W24459  38.064   2.964  10.913
60527W        W24460  21.106  20.768   4.202
60528W        W24461   5.215  29.654   0.747
60529W        W24462   2.757  16.730   4.696
60530W        W24463  40.311  11.232   0.880
60531W        W24464   9.805  27.623  14.411
60532W        W24465  17.187  26.103   0.261
60533W        W24466   4.734   1.452   4.822
60534W        W24467   0.372   5.787   3.334
60535W        W24468   8.272   0.356  10.422
60536W        W24469  17.216  37.998   2.236
60537W        W24470   8.786  36.563  14.917
60538W        W24471  16.771   8.839  13.391
60539W        W24472  26.198  18.157  11.534
60540W        W24473  18.288  33.910  12.548
60541W        W24474  15.714   0.448   1.747
60542W        W24475  40.320  32.902   1.806
60543W        W24476  25.167  15.234  13.415
60544W        W24477  20.160  29.653   9.609
60545W        W24478  11.725  30.022  12.842
60546W        W24479   5.293  36.950  11.001
60547W        W24480   4.901  17.633  11.924
60548W        W24481  14.609  24.212   1.918
60549W        W24482  34.585  12.843   0.387
60550W        W24483   2.356  32.934   1.853
60551W        W24484  42.026   1.752   3.671
60552W        W24485  44.793  27.650   4.654
60553W        W24486  43.963  41.445   3.806
60554W        W24487  39.862  31.461   3.630
60555W        W24488   0.334   9.769   2.301
60556W        W24489  13.202   3.443   0.351
60557W        W24490  38.053  20.101  11.453
60558W        W24491  44.992  44.851  12.451
60559W        W24492  20.680   2.320   0.471
60560W        W24493  43.792  20.741  13.985
60561W        W24494  16.112   6.912   1.312
60562W        W24495  43.937  27.683   4.814
60563W        W24496  38.822   5.774  13.441
60564W        W24497  16.753  40.862   4.834
60565W        W24498  36.017  16.752   4.233
60566W        W24499  10.199  20.651  10.016
60567W        W24500  41.408  37.957  14.377
60568W        W24501  15.126  11.166  14.446
60569W        W24502  18.257  42.809   9.968
60570W        W24503  43.775  36.860  14.388
60571W        W24504   6.769  26.997   3.783
60572W        W24505  42.471  27.483  10.609
60573W        W24506  22.048  27.029   3.269
60574W        W24507   5.365   2.932   2.868
60575W        W24508  27.574  42.898  11.026
60576W        W24509   0.324  11.186  11.934
60577W        W24510  42.288  43.469   4.261
60578W        W24511  21.123  27.501   4.140
60579W        W24512  11.196  44.925   0.327
60580W        W24513  30.608  20.191   0.480
60581W        W24514  21.190  38.014   3.676
60582W        W24515  22.597  44.297  11.098
60583W        W24516  38.970  14.721  13.881
60584W        W24517  31.068  31.424  12.536
60585W        W24518  10.262  10.199  14.865
60586W        W24519  24.616  36.465   1.344
60587W        W24520  44.821  27.123  14.912
60588W        W24521   9.293   2.244   1.825
60589W        W24522  41.822  37.048  10.940
60590W        W24523  14.669   5.263   3.371
60591W        W24524   3.713  38.440   4.616
60592W        W24525   5.280  25.048  11.867
60593W        W24526  34.521  17.084   0.271
60594W        W24527  43.875   1.905   4.709
60595W        W24528   4.445  13.250   1.725
60596W        W24529  31.543   6.184   4.709
60597W        W24530  42.342  31.965  13.510
60598W        W24531   6.207  44.776   3.195
60599W        W24532  29.018   6.802   2.727
60600W        W24533   9.232  18.612  10.425
60601W        W24534   6.797  39.467  10.899
60602W        W24535  20.715   2.242  13.432
60603W        W24536   6.233   6.339  10.614
60604W        W24537  15.677   7.675  14.280
60605W        W24538  12.338  27.168   4.689
60606W        W24539  12.813   5.818  12.455
60607W        W24540   6.862  31.970   1.401
60608W        W24541  26.999   4.829   1.844
60609W        W24542  23.507  12.735  11.994
60610W        W24543  38.380  42.831  14.464
60611W        W24544  31.554   4.759   1.325
60612W        W24545  24.974  33.992  12.480
60613W        W24546  13.674  35.023   0.407
60614W        W24547  24.990  29.074   2.315
60615W        W24548  17.089  18.597  12.923
60616W        W24549  42.459   0.307  14.375
60617W        W24550  28.093  36.961  14.791
60618W        W24551  34.458   7.414   0.789
60619W        W24552   3.368   8.739  10.497
60620W        W24553  12.162  12.251  12.417
60621W        W24554  10.752  22.670   1.825
60622W        W24555  23.001  24.657  14.511
60623W        W24556   9.202  22.745  10.159
60624W        W24557   0.920  10.693  13.798
60625W        W24558   0.344   0.966   4.698
60626W        W24559   1.846  16.762  14.351
60627W        W24560  40.981   2.726  10.946
60628W        W24561  43.938  31.044   1.402
60629W        W24562  29.656  39.949  10.411
60630W        W24563  35.969  39.892  11.965
60631W        W24564  42.340  30.659   3.380
60632W        W24565  19.171  13.830   2.416
60633W        W24566  16.732   1.794   1.738
60634W        W24567  27.536  24.068  11.526
60635W        W24568  36.463  16.072   3.226
60636W        W24569  25.652  31.451  12.445
60637W        W24570  26.186  31.016  13.370
60638W        W24571   4.875  15.150   3.648
60639W        W24572  29.609  19.231   4.233
60640W        W24573   6.332  30.421  13.407
60641W        W24574   7.795   5.269   2.346
60642W        W24575  20.692  24.487  10.907
60643W        W24576  25.558  14.174  12.943
60644W        W24577  38.993  36.459  10.979
60645W        W24578  39.924   6.882  12.416
60646W        W24579   0.494  36.070  12.414
60647W        W24580   1.431  34.410  12.488
60648W        W24581   3.259  24.675  14.762
60649W        W24582  15.695  44.995   0.354
60650W        W24583  13.196  21.525  11.870
60651W        W24584  18.765   4.312   4.249
60652W        W24585  29.048  16.694   0.449
60653W        W24586  16.242  19.780   0.753
60654W        W24587  36.871  41.022   2.321
60655W        W24588  18.223  17.581  10.559
60656W        W24589   1.799  27.640  12.089
60657W        W24590  32.917  31.967   0.398
60658W        W24591  29.634  41.961  12.916
60659W        W24592  23.651  36.563   3.673
60660W        W24593   3.281   8.862  14.855
60661W        W24594  38.862   6.190   4.136
60662W        W24595   9.339  23.090   4.191
60663W        W24596  32.414  41.410   5.242
60664W        W24597  19.252  24.581   0.930
60665W        W24598  25.215   6.738  10.944
60666W        W24599  20.613  12.719  13.381
60667W        W24600  35.419   6.258   2.702
60668W        W24601  16.617  17.196  13.974
60669W        W24602  33.070   7.302  10.493
60670W        W24603  23.024  37.945   0.906
60671W        W24604  34.922  34.112   2.774
60672W        W24605  13.257  18.659  12.018
60673W        W24606  17.687  30.934   4.818
60674W        W24607  19.214  25.551   3.686
60675W        W24608   5.347   8.739  13.946
60676W        W24609  41.829  31.554  13.533
60677W        W24610  17.258  44.757   4.788
60678W        W24611  34.900   0.267  11.440
60679W        W24612  28.552   6.859   2.718
60680W        W24613  41.864   5.261   0.265
60681W        W24614  43.359   2.309  13.536
60682W        W24615  30.074  27.977  12.097
60683W        W24616   7.729  12.660   1.343
60684W        W24617  44.989  30.512   1.808
60685W        W24618  34.064   9.662   4.134
60686W        W24619  11.261  25.159  14.948
60687W        W24620   1.317   9.375  12.445
60688W        W24621  14.123  14.308  10.907
60689W        W24622   3.872   4.412  10.610
60690W        W24623   3.721  17.192  13.494
60691W        W24624   4.701  32.527   3.831
60692W        W24625  14.225   7.796   5.287
60693W        W24626   0.400  37.928   0.864
60694W        W24627   5.380   3.867   3.798
60695W        W24628  39.402  41.977  11.496
60696W        W24629  13.200  17.751   2.705
60697W        W24630  43.344  44.450   3.320
60698W        W24631  29.007   2.871   0.393
60699W        W24632  24.076  32.413  13.399
60700W        W24633  12.158  37.970  11.393
60701W        W24634  42.921   7.267   3.203
60702W        W24635  23.211  35.598  11.563
60703W        W24636  12.299  15.298   3.839
60704W        W24637   9.358  41.456   0.961
60705W        W24638  22.081  43.393   1.284
60706W        W24639  36.494  35.047  11.475
60707W        W24640  24.043  13.757  14.778
60708W        W24641  31.624   3.393  10.583
60709W        W24642  40.000   0.459  14.759
60710W        W24643  18.781   4.288   4.780
60711W        W24644  33.888   9.811   4.761
60712W        W24645  33.531  36.431   2.892
60713W        W24646  29.581  36.088  10.476
60714W        W24647  38.019  24.702  12.078
60715W        W24648  30.518  33.441   5.098
60716W        W24649  31.644  12.781   2.833
60717W        W24650  18.587  21.564   1.787
60718W        W24651  26.089  30.013  10.969
60719W        W24652  40.890  16.669   2.854
60720W        W24653  24.191  22.218   2.670
60721W        W24654  29.996  40.028  14.788
60722W        W24655  14.142  11.786  11.566
60723W        W24656  12.640   1.343   3.378
60724W        W24657  26.190   2.276  12.850
60725W        W24658  21.197  12.331   0.863
60726W        W24659   0.462  12.217  10.468
60727W        W24660   0.438  34.437   1.807
60728W        W24661  35.974   3.348   5.284
60729W        W24662   5.321  22.026  14.299
60730W        W24663  44.962  44.410   3.798
60731W        W24664  29.509  25.563  14.947
60732W        W24665  10.335  36.547  12.847
60733W        W24666  15.800  24.027   3.320
60734W        W24667  20.711  34.907   3.321
60735W        W24668  19.677   5.840  10.531
60736W        W24669  43.953  16.140   1.386
60737W        W24670   9.360  17.103  14.322
60738W        W24671  15.132   3.341  10.125
60739W        W24672  20.652  44.818  12.454
60740W        W24673  16.073  10.267   0.312
60741W        W24674  41.990   8.358   4.289
60742W        W24675  39.840   3.335   3.848
60743W        W24676  24.031  17.715  13.014
60744W        W24677  10.230  18.703  10.888
60745W        W24678  22.554  43.516   4.328
60746W        W24679   7.839  32.102  12.473
60747W        W24680  20.629  16.774   4.780
60748W        W24681  13.611  10.717   0.834
60749W        W24682  26.118  32.069  11.906
60750W        W24683  16.256  36.435  12.850
60751W        W24684   6.398  28.109   9.989
60752W        W24685  13.267  40.813   2.300
60753W        W24686   6.784  37.903  12.535
60754W        W24687  43.803  30.494   4.242
60755W        W24688  34.010  16.796  10.429
60756W        W24689   7.747  14.334   2.230
60757W        W24690  27.076   7.387   1.319
60758W        W24691  18.052   1.295   4.132
60759W        W24692  14.658   0.429  12.559
60760W        W24693  41.303   5.802   0.450
60761W        W24694  32.432  21.029  11.880
60762W        W24695  33.484  39.844  13.483
60763W        W24696  42.031  29.171  13.484
60764W        W24697  43.400   9.376  14.986
60765W        W24698  11.204  10.837  12.941
60766W        W24699  13.250  19.715  12.468
60767W        W24700  11.627   0.858  10.129
60768W        W24701  23.536  40.011  14.320
60769W        W24702   9.297  34.930   4.666
60770W        W24703  20.062   7.746  11.536
60771W        W24704  17.795   8.191  12.096
60772W        W24705  27.606  10.855   0.925
60773W        W24706  33.960  20.115   2.211
60774W        W24707  30.998  20.131  13.910
60775W        W24708  10.843   5.868   2.206
60776W        W24709  37.957   3.781  11.497
60777W        W24710  11.348  32.886   1.353
60778W        W24711   7.776  37.457  13.411
60779W        W24712   4.715  39.521  12.933
60780W        W24713  13.244  38.821  14.409
60781W        W24714   2.720  32.067   5.125
60782W        W24715  39.375  20.154   2.867
60783W        W24716  25.989  19.745   3.188
60784W        W24717  14.740   6.206  13.518
60785W        W24718  16.615  11.758   0.733
60786W        W24719  19.618  14.760  11.437
60787W        W24720  19.244  31.123   4.740
60788W        W24721   0.464  26.459   1.316
60789W        W24722   6.896  30.516  12.892
60790W        W24723   4.268  18.211   0.432
60791W        W24724  31.943  18.683   2.398
60792W        W24725  38.942  38.535   0.481
60793W        W24726  44.500  43.001  11.119
60794W        W24727  30.523  34.033  14.967
60795W        W24728  22.106   0.391  12.465
60796W        W24729  41.819  36.402   2.293
60797W        W24730  15.300  13.308   2.372
60798W        W24731  15.143  27.662   3.199
60799W        W24732  35.572   9.695  11.590
60800W        W24733  29.468  31.624  12.876
60801W        W24734  43.325   6.751  12.910
60802W        W24735   8.689  22.657   4.620
60803W        W24736  14.299  15.707   1.729
60804W        W24737  21.238  10.852   4.801
60805W        W24738  21.039  13.281  10.512
60806W        W24739  33.930  31.111   4.148
60807W        W24740  40.303  40.323  12.872
60808W        W24741  39.959   6.304  13.794
60809W        W24742  36.563  43.498  14.914
60810W        W24743  10.653  33.499   2.406
60811W        W24744  31.968   4.395   3.282
60812W        W24745  43.889  30.422  13.873
60813W        W24746  25.140  17.786  11.111
60814W        W24747  18.627  17.083  11.946
60815W        W24748  41.830  40.010  13.398
60816W        W24749  27.002  23.592   2.292
60817W        W24750  29.498  24.663   4.790
60818W        W24751   7.199   0.902   4.760
60819W        W24752  23.659  34.116   2.681
60820W        W24753  33.610  25.510   2.675
60821W        W24754  21.147  17.121   3.172
60822W        W24755   4.404  23.240   2.692
60823W        W24756  30.484  44.853   2.841
60824W        W24757  20.104  40.376   0.894
60825W        W24758  41.014  32.601  12.827
60826W        W24759  13.701  42.378  12.023
60827W        W24760   8.252   6.849  12.986
60828W        W24761  25.632  35.934  11.014
60829W        W24762  30.498  13.652   1.319
60830W        W24763  13.769  19.618  11.569
60831W        W24764  43.884   9.692  14.782
60832W        W24765  39.031   2.775  13.407
60833W        W24766  16.141  30.091   0.780
60834W        W24767  28.641  21.750  14.497
60835W        W24768   7.735  42.907   3.289
60836W        W24769  42.478   3.912   0.774
60837W        W24770  44.992  35.489  13.889
60838W        W24771  33.516  36.537   4.205
60839W        W24772  10.330  24.197  11.439
60840W        W24773   2.415   1.335   1.413
60841W        W24774   0.314   3.820  11.006
60842W        W24775  44.008  22.664   0.261
60843W        W24776  16.088   3.713   2.825
60844W        W24777   6.207  33.930  13.794
60845W        W24778  10.736  40.427   4.187
60846W        W24779  27.136  40.418  14.284
60847W        W24780  41.405  22.711  11.594
60848W        W24781   9.845  13.833  14.842
60849W        W24782   6.311  40.538  12.953
60850W        W24783  42.513  12.738  12.532
60851W        W24784  16.128   6.294  12.889
60852W        W24785  37.857  31.507  13.931
60853W        W24786  15.721  13.671   0.733
60854W        W24787  13.175  23.505   2.738
60855W        W24788  11.720  28.096   9.939
60856W        W24789  13.723  30.460  12.402
60857W        W24790  34.950  10.360   0.474
60858W        W24791  10.343  33.389  11.896
60859W        W24792   4.852  22.575   2.752
60860W        W24793  29.563  20.226  11.488
60861W        W24794  44.822  26.506   2.363
60862W        W24795   2.806   8.282   1.312
60863W        W24796   4.774   4.257  14.307
60864W        W24797  29.920   8.682   9.957
60865W        W24798   2.390  26.684   2.191
60866W        W24799  25.970  18.583  12.033
60867W        W24800  43.868   1.249   3.211
60868W        W24801  20.243  32.956   3.839
60869W        W24802   1.352  29.513   0.437
60870W        W24803  14.731  36.913   1.744
60871W        W24804   1.321  37.558  11.390
60872W        W24805  23.517  10.748  14.016
60873W        W24806  17.794   8.773  13.799
60874W        W24807  32.452  15.209   2.341
60875W        W24808  43.886  32.895  14.768
60876W        W24809   3.357  22.503  12.881
60877W        W24810  10.294  28.067  11.079
60878W        W24811  42.920  32.591   2.290
60879W        W24812  15.325  32.071  11.921
60880W        W24813  22.679  22.195  13.050
60881W        W24814  13.131   3.305  11.962
60882W        W24815  13.615  42.295   1.428
60883W        W24816  10.805  32.451   4.136
60884W        W24817  33.617  21.202   3.818
60885W        W24818  15.701  38.348  14.429
60886W        W24819  29.033  33.428  10.547
60887W        W24820  25.096  41.309   0.893
60888W        W24821  25.980   1.376   4.177
60889W        W24822   3.862   1.903  10.577
60890W        W24823  16.301  27.955  10.130
60891W        W24824  34.398   0.809   4.746
60892W        W24825   4.710  36.354  12.927
60893W        W24826  35.099  37.976   3.204
60894W        W24827  11.643   6.195  11.926
60895W        W24828   7.671  41.958  11.542
60896W        W24829  30.918  17.179  11.074
60897W        W24830  30.026  28.054  13.006
60898W        W24831   1.850  11.795   2.710
60899W        W24832   5.230  42.925  13.407
60900W        W24833  20.127  12.132  14.838
60901W        W24834   3.817  18.118   5.195
60902W        W24835   1.265   2.276   0.418
60903W        W24836  43.390  19.544  14.430
60904W        W24837  29.562  20.047   3.270
60905W        W24838  10.643   9.749   0.923
60906W        W24839  25.053  13.804   3.838
60907W        W24840  44.897  37.016   4.167
60908W        W24841  32.469  11.725  10.091
60909W        W24842  40.451  12.657   3.759
60910W        W24843  23.643  40.529   2.312
60911W        W24844   3.796  44.799  13.537
60912W        W24845   3.750  33.123   3.249
60913W        W24846  29.486  15.823   3.846
60914W        W24847  32.578  25.149   1.746
60915W        W24848   7.889  43.869  14.994
60916W        W24849  44.466  30.991  11.070
60917W        W24850   0.339  39.475  13.469
60918W        W24851  39.896  43.319  14.933
60919W        W24852   9.728  37.009   4.230
60920W        W24853   4.343  31.593   3.259
60921W        W24854  27.942  24.499  10.458
60922W        W24855  13.168  26.610   1.859
60923W        W24856  38.358  39.535  14.485
60924W        W24857  35.036   1.345   4.746
60925W        W24858  10.686  35.025   3.685
60926W        W24859  34.107  16.794   1.441
60927W        W24860  13.827  13.332  10.921
60928W        W24861  24.602  14.606   3.212
60929W        W24862  42.311   0.869   3.852
60930W        W24863  16.103  35.051   1.891
60931W        W24864   2.390  21.190  13.939
60932W        W24865  27.569  30.445   0.864
60933W        W24866   2.872   7.372  14.990
60934W        W24867  38.899  29.150  10.947
60935W        W24868  24.654  21.677   1.231
60936W        W24869  29.089   5.717   2.255
60937W        W24870  20.597  24.699  14.395
60938W        W24871   2.747  26.145   0.826
60939W        W24872  43.291  11.799  14.483
60940W        W24873   6.811  18.196  10.921
60941W        W24874  28.549   6.873   0.308
60942W        W24875   3.412  41.990  13.481
60943W        W24876  29.640  20.544  12.365
60944W        W24877   9.881  24.708  12.484
60945W        W24878  22.043  41.376  10.575
60946W        W24879   9.377  27.482  14.472
60947W        W24880  20.053   6.312  10.983
60948W        W24881  31.548  30.659   0.282
60949W        W24882   9.279  20.752   2.331
60950W        W24883   8.857  28.593  14.966
60951W        W24884  21.228  14.776  10.915
60952W        W24885  20.124  35.873   0.358
60953W        W24886  30.458  14.194   1.701
60954W        W24887  37.898  44.891   3.216
60955W        W24888  18.660  41.353   4.763
60956W        W24889  12.615  29.541   1.261
60957W        W24890  19.675   1.922  12.567
60958W        W24891  21.027  20.097  14.332
60959W        W24892  42.463  19.618  11.575
60960W        W24893  38.894  16.737   4.706
60961W        W24894  30.026   9.811  12.029
60962W        W24895  42.947  31.969   1.905
60963W        W24896  18.082  21.642   0.346
60964W        W24897  43.457  41.865  11.037
60965W        W24898  41.445  39.526   1.913
60966W        W24899   2.308  35.562   0.350
60967W        W24900  40.345  35.082   0.740
60968W        W24901  42.472  31.009  10.961
60969W        W24902   9.299  26.072  12.484
60970W        W24903  22.698   1.440  14.876
60971W        W24904   0.299  41.829   2.300
60972W        W24905  40.408  30.152   3.816
60973W        W24906   1.408   6.923   1.841
60974W        W24907  14.616  20.670   2.267
60975W        W24908  28.121   5.394  11.016
60976W        W24909   9.808  37.398  14.950
60977W        W24910  43.289   6.208  13.421
60978W        W24911  33.904  34.017  14.956
60979W        W24912  31.151  38.021  12.910
60980W        W24913  20.259  23.536   3.779
60981W        W24914   7.718  29.510  11.932
60982W        W24915   1.949  11.162  13.497
60983W        W24916  29.933  44.266  14.278
60984W        W24917   3.811  21.661  14.355
60985W        W24918  23.152  28.576  11.866
60986W        W24919   9.768  16.758  10.639
60987W        W24920  30.027   6.815  12.548
60988W        W24921  27.594   0.455   3.678
60989W        W24922  19.234  27.947  14.862
60990W        W24923  11.848   0.375  11.575
60991W        W24924  36.439  14.634  14.331
60992W        W24925  14.296   0.928  13.313
60993W        W24926  30.018  22.718   1.830
60994W        W24927  18.289  18.097  12.044
60995W        W24928   6.798   6.761  14.346
60996W        W24929  43.338  12.776  13.943
60997W        W24930   4.388  41.374  10.551
60998W        W24931  42.815  27.156  11.066
60999W        W24932  19.161  15.738  11.447
61000W        W24933  15.695   5.400  13.382
61001W        W24934   8.686  16.594   2.682
61002W        W24935  44.452  28.529  12.430
61003W        W24936  15.187  10.255  11.055
61004W        W24937  12.184  20.603  13.316
61005W        W24938  38.980  32.421  10.916
61006W        W24939  19.579  37.842   0.850
61007W        W24940  16.602  15.250  14.940
61008W        W24941  14.689  25.623  12.972
61009W        W24942   0.987   7.725   3.310
61010W        W24943  29.524   4.777  11.124
61011W        W24944   8.706  19.241   1.711
61012W        W24945  16.718  13.326  12.954
61013W        W24946   2.868   8.180   2.308
61014W        W24947   3.894   4.915   4.260
61015W        W24948  25.108  30.530  13.342
61016W        W24949  37.840   5.857  14.929
61017W        W24950  40.926  42.284   2.248
61018W        W24951  26.057   5.747  13.409
61019W        W24952  23.083   2.732  11.010
61020W        W24953  17.792   6.293   2.315
61021W        W24954  43.304  26.144  10.603
61022W        W24955   5.432  22.586  14.308
61023W        W24956  32.564  18.651  13.818
61024W        W24957  39.518   1.957   4.131
61025W        W24958  24.650  11.658  14.994
61026W        W24959  14.096  43.465   3.798
61027W        W24960   3.863  29.501  14.931
61028W        W24961  41.932  11.846  12.986
61029W        W24962  37.387  16.808  12.432
61030W        W24963  32.050  18.683  14.842
61031W        W24964  36.986  35.375   0.352
61032W        W24965  35.517  44.960   0.275
61033W        W24966   9.313  13.116   2.362
61034W        W24967  35.553   4.432   1.735
61035W        W24968  16.654  12.180   1.325
61036W        W24969  15.293  12.796   2.866
61037W        W24970  41.986  20.596   1.889
61038W        W24971  12.696  36.017  11.102
61039W        W24972   9.693  38.026   4.791
61040W        W24973  13.831   1.345  11.123
61041W        W24974  30.074   7.760  13.988
61042W        W24975  29.110  12.725  10.435
61043W        W24976   6.829  30.916   2.364
61044W        W24977   0.427  31.906   1.865
61045W        W24978  11.823  11.143   4.205
61046W        W24979  26.178  42.946  13.374
61047W        W24980   3.867  11.740  10.455
61048W        W24981   2.454   8.358   1.292
61049W        W24982  26.685  23.532  12.960
61050W        W24983   4.716  17.653  11.105
61051W        W24984   0.832  23.490   3.675
61052W        W24985  22.109  18.657   1.885
61053W        W24986  29.482   4.905  14.355
61054W        W24987  33.413  25.471   1.895
61055W        W24988   8.768  21.622  12.526
61056W        W24989  22.620  25.139  14.494
61057W        W24990  38.560  14.142  13.839
61058W        W24991  42.484  32.422  11.553
61059W        W24992  22.089  33.898   0.935
61060W        W24993  41.007  12.287  12.853
61061W        W24994   9.766  27.467   4.646
61062W        W24995  21.582  15.213  12.079
61063W        W24996   2.243   8.245   3.821
61064W        W24997  16.225  35.400  13.482
61065W        W24998  39.422  33.947  13.881
61066W        W24999  23.138  14.115   2.255
61067W        W25000   3.415  22.036   0.928
61068W        W25001   9.151  42.481   1.389
61069W        W25002   1.758  43.470   4.194
61070W        W25003  41.980  42.451   0.442
61071W        W25004  42.373  17.219  12.872
61072W        W25005  31.072  21.640   2.375
61073W        W25006  26.702  19.735   2.187
61074W        W25007  37.897   0.807   4.260
61075W        W25008  21.219  23.677  11.089
61076W        W25009   3.339  29.609   0.468
61077W        W25010   7.758  37.866   3.174
61078W        W25011  17.742  31.608   1.762
61079W        W25012   7.800  28.558   1.438
61080W        W25013  15.256  43.489  12.574
61081W        W25014  35.107  33.501  14.302
61082W        W25015  37.832  36.920   1.321
61083W        W25016  28.145  11.211  13.420
61084W        W25017  41.012  15.327   0.818
61085W        W25018   1.384  20.178  11.046
61086W        W25019  36.879  22.035  14.905
61087W        W25020  13.621  11.691  14.500
61088W        W25021   6.743  32.053  14.472
61089W        W25022  35.452  36.933   3.376
61090W        W25023  16.597  22.739   2.178
61091W        W25024  36.905  15.162  11.540
61092W        W25025  28.093  36.878   2.232
61093W        W25026  19.103  34.615   2.711
61094W        W25027  17.271  21.156  11.568
61095W        W25028   6.726  21.551   3.212
61096W        W25029   5.215  43.785   2.744
61097W        W25030  19.631  31.570  14.845
61098W        W25031  27.979   3.298  10.601
61099W        W25032  38.550   4.363  11.988
61100W        W25033  38.373  24.704  11.443
61101W        W25034  13.771  19.257  12.518
61102W        W25035  17.239  33.578   2.780
61103W        W25036  38.072  24.507  10.955
61104W        W25037  29.058  16.153  10.578
61105W        W25038  33.411  26.563  10.592
61106W        W25039  30.953  19.583   9.972
61107W        W25040  28.184  18.252   0.963
61108W        W25041   0.952  32.961   3.326
61109W        W25042  44.478  12.307   4.666
61110W        W25043   6.383  17.232  13.917
61111W        W25044   8.349  13.169  11.585
61112W        W25045  25.190   8.338   1.721
61113W        W25046   9.764   8.381  13.888
61114W        W25047  19.640  21.257  14.286
61115W        W25048   8.871   9.867  13.383
61116W        W25049  43.921  31.044   4.187
61117W        W25050  31.507  29.668   1.770
61118W        W25051   0.434  37.896   2.297
61119W        W25052  43.916   2.954   1.214
61120W        W25053  35.531  19.638  12.827
61121W        W25054  11.336  14.287   4.764
61122W        W25055  34.368  19.086   4.770
61123W        W25056  13.654  10.667  14.497
61124W        W25057  27.688  14.328   2.836
61125W        W25058   7.207  31.119   4.300
61126W        W25059  16.225  37.081  13.542
61127W        W25060  29.113  12.211   4.160
61128W        W25061  17.148  26.608   5.103
61129W        W25062  39.007  32.972   3.655
61130W        W25063   5.379  13.743  14.344
61131W        W25064  29.945   2.757   2.388
61132W        W25065  25.695  37.887  11.611
61133W        W25066   8.893   0.350  10.482
61134W        W25067  16.292   9.387  10.483
61135W        W25068   8.226  32.108  13.889
61136W        W25069  44.805  12.349   1.236
61137W        W25070  44.793   4.833  14.285
61138W        W25071  30.074  22.720   0.474
61139W        W25072  27.176  26.952  13.952
61140W        W25073  21.035  34.421   3.813
61141W        W25074  42.947  36.557   1.385
61142W        W25075  14.308  13.829  10.435
61143W        W25076   7.684  11.829   2.726
61144W        W25077  31.604  15.262  13.025
61145W        W25078  40.870  31.557   1.713
61146W        W25079  13.324   2.401  14.415
61147W        W25080  24.212  38.369   4.612
61148W        W25081  30.908   1.364  14.995
61149W        W25082  41.292  30.455  14.405
61150W        W25083  38.332  23.675  13.987
61151W        W25084  37.493   0.254   3.640
61152W        W25085  37.572  13.730   1.890
61153W        W25086   5.374  17.711   4.241
61154W        W25087  11.676  32.984   3.217
61155W        W25088  19.176  39.531   2.748
61156W        W25089  25.086  34.409  14.504
61157W        W25090  23.050   4.423  13.510
61158W        W25091   2.232  18.245   4.794
61159W        W25092  10.156   8.372   4.190
61160W        W25093  16.235   9.154   9.929
61161W        W25094  23.188  31.418  11.597
61162W        W25095   8.367  22.645   3.363
61163W        W25096   4.446  23.044   4.743
61164W        W25097  31.989  27.638   0.874
61165W        W25098   3.871  18.685  14.888
61166W        W25099   1.481  21.515   2.696
61167W        W25100  43.414  40.528  14.410
61168W        W25101  27.679  12.166   2.259
61169W        W25102  22.032  30.577  14.852
61170W        W25103  25.707  14.721   2.196
61171W        W25104  32.001  28.096   1.807
61172W        W25105  38.444  22.241  10.588
61173W        W25106  25.088  43.420  14.475
61174W        W25107  10.168   7.377  10.593
61175W        W25108  27.983  25.093  10.026
61176W        W25109  44.451  18.133  11.073
61177W        W25110  27.090  34.451   0.472
61178W        W25111   9.172  16.267  14.919
61179W        W25112  36.453  25.712  12.902
61180W        W25113  17.243  35.035   2.230
61181W        W25114  25.660  13.819  12.887
61182W        W25115  41.319   2.812  12.832
61183W        W25116  31.153  26.102  11.032
61184W        W25117  35.570  16.135   4.244
61185W        W25118   5.227  18.687  12.938
61186W        W25119  34.474   8.681  13.913
61187W        W25120   3.365  26.140  13.864
61188W        W25121  26.170   4.873  13.389
61189W        W25122  15.098  21.186  11.456
61190W        W25123  33.942  38.556   4.179
61191W        W25124  37.942  23.569   0.759
61192W        W25125  40.910  20.192  12.468
61193W        W25126   5.694  25.060   1.389
61194W        W25127   3.921  18.551  13.823
61195W        W25128  18.784  11.838   1.887
61196W        W25129  23.616  20.146   2.699
61197W        W25130  32.501  33.957   3.631
61198W        W25131   3.857  33.413  14.021
61199W        W25132  17.622  18.242  14.976
61200W        W25133  32.571  40.984   4.204
61201W        W25134   0.779  36.970  11.499
61202W        W25135  43.454  30.013   1.314
61203W        W25136  43.440   5.317  14.878
61204W        W25137  42.522  15.719   1.739
61205W        W25138  29.541  25.143  11.459
61206W        W25139  37.470  27.197   4.766
61207W        W25140  27.446   6.383   1.843
61208W        W25141  36.954  41.902   4.263
61209W        W25142   4.878  26.501  14.838
61210W        W25143  17.795  44.767   2.409
61211W        W25144  35.495  43.765   1.737
61212W        W25145  35.863  29.928   3.840
61213W        W25146  43.396  44.261  13.457
61214W        W25147   9.249  18.666   3.309
61215W        W25148   0.263  22.585   0.735
61216W        W25149  43.954   0.904  14.297
61217W        W25150   0.285  42.837  12.520
61218W        W25151   9.838   5.375  13.007
61219W        W25152   0.404  21.689  10.947
61220W        W25153  23.111  21.650   1.771
61221W        W25154  27.527  35.908   4.272
61222W        W25155  17.588   5.801   4.244
61223W        W25156  13.320  21.190  13.898
61224W        W25157  31.943   8.856   9.941
61225W        W25158  19.758  22.744  14.296
61226W        W25159  17.237  36.586  13.831
61227W        W25160  43.820  23.210  14.434
61228W        W25161   6.381  36.351   3.293
61229W        W25162   5.400  34.523  10.416
61230W        W25163  10.242  22.094  11.988
61231W        W25164  39.857   2.945   1.390
61232W        W25165  36.857  18.656   1.232
61233W        W25166   8.342   6.777  10.626
61234W        W25167  34.878  17.728  10.498
61235W        W25168  38.392   8.839  13.483
61236W        W25169   2.423   3.456   4.340
61237W        W25170   5.689   3.338   3.170
61238W        W25171   7.906  23.561   1.362
61239W        W25172  21.525   2.365   3.754
61240W        W25173  17.166  14.715   2.776
61241W        W25174  28.553  10.690   1.801
61242W        W25175  44.497  14.310   2.676
61243W        W25176   9.151  24.125  13.023
61244W        W25177   8.865  17.189   5.274
61245W        W25178  26.685  21.542  12.055
61246W        W25179  19.707  21.716   4.803
61247W        W25180  17.103  35.443  10.508
61248W        W25181  39.464  13.164   1.857
61249W        W25182  43.951  36.856   3.147
61250W        W25183  23.676  12.229  13.882
61251W        W25184  28.977   3.432   0.343
61252W        W25185  10.844  30.978  10.974
61253W        W25186  31.920  44.774   2.352
61254W        W25187   6.776  42.523  11.453
61255W        W25188  44.879   3.360  11.408
61256W        W25189  31.091  11.677  12.831
61257W        W25190  36.949  39.032  11.409
61258W        W25191  18.050   4.356  10.504
61259W        W25192  38.000  21.063  13.398
61260W        W25193  41.971  19.689  13.526
61261W        W25194  21.628  37.456  11.868
61262W        W25195  36.041   7.177  12.841
61263W        W25196   0.875  28.592  10.566
61264W        W25197  36.874   0.390  14.817
61265W        W25198  25.110  42.450   0.454
61266W        W25199  23.207  36.575  14.926
61267W        W25200  21.609   1.414  10.561
61268W        W25201  41.297  11.329   3.655
61269W        W25202  35.027  33.944  12.833
61270W        W25203  38.026  41.006   2.258
61271W        W25204   5.920  20.622  12.091
61272W        W25205  39.455   4.862  12.880
61273W        W25206  30.650  21.223   0.451
61274W        W25207  32.997  42.887  11.885
61275W        W25208   3.401  44.961  12.453
61276W        W25209   7.326  14.821   4.740
61277W        W25210   1.366  23.514   1.243
61278W        W25211  43.433  13.711  11.000
61279W        W25212  32.438  18.109  14.825
61280W        W25213  10.219  11.176   3.376
61281W        W25214  34.014  31.635   2.317
61282W        W25215  12.169  40.379  12.395
61283W        W25216  15.098  20.556   1.747
61284W        W25217  41.837  23.726  11.027
61285W        W25218  23.098  40.525   4.153
61286W        W25219  11.683   1.920  13.455
61287W        W25220  35.571  16.152  14.959
61288W        W25221   3.732   2.276   0.963
61289W        W25222  23.536  22.520  12.965
61290W        W25223  39.880  17.218   4.798
61291W        W25224   6.261  38.048   4.839
61292W        W25225  42.948   2.767  14.761
61293W        W25226  28.043  27.956   0.265
61294W        W25227  17.659  16.114   2.846
61295W        W25228  26.090  23.002  11.892
61296W        W25229  32.952   6.279   1.419
61297W        W25230  42.814   2.787  13.986
61298W        W25231  19.732  21.663  13.333
61299W        W25232  16.658   7.185  14.977
61300W        W25233  32.611  36.549   1.430
61301W        W25234  28.473   5.928   0.426
61302W        W25235   7.866  16.580  11.128
61303W        W25236  21.116  31.421  13.929
61304W        W25237  20.600  36.027   4.762
61305W        W25238  26.667  41.405  13.797
61306W        W25239  20.172  13.144  11.572
61307W        W25240   1.883  24.193  10.980
61308W        W25241   5.308  24.479   2.677
61309W        W25242  42.436   0.911   0.914
61310W        W25243  30.090  27.001   0.265
61311W        W25244  15.628  37.542   0.475
61312W        W25245  11.167  29.980  10.615
61313W        W25246   0.408  40.442  12.511
61314W        W25247  25.200  37.552  13.863
61315W        W25248   5.345   0.311  13.411
61316W        W25249  29.158  31.578  13.360
61317W        W25250  19.620  44.964  14.865
61318W        W25251  27.135  24.628   0.761
61319W        W25252   1.907  14.614   1.405
61320W        W25253  38.350   5.241  11.496
61321W        W25254   0.747  11.263  12.829
61322W        W25255  33.015  40.434   4.665
61323W        W25256  37.974  13.824   2.686
61324W        W25257  40.835  35.983  13.379
61325W        W25258  20.198   2.914  11.880
61326W        W25259  32.596   8.754   0.892
61327W        W25260  28.002  15.203  11.520
61328W        W25261  17.622  33.485   1.292
61329W        W25262   9.872  26.055   2.397
61330W        W25263  11.311  13.829  14.852
61331W        W25264   2.787   2.892   3.845
61332W        W25265  35.402  25.590   0.435
61333W        W25266  33.988  13.779  13.519
61334W        W25267  42.430  35.103   9.975
61335W        W25268  14.800  24.018  13.384
61336W        W25269  40.851  32.034  11.579
61337W        W25270  35.869  43.415  11.106
61338W        W25271  31.489   2.388  14.776
61339W        W25272   4.404   2.274  12.851
61340W        W25273  34.450  21.111  11.415
61341W        W25274  25.493  17.174  11.011
61342W        W25275  42.308  25.974  12.924
61343W        W25276  36.979  17.731  10.539
61344W        W25277   3.826  36.588  13.340
61345W        W25278  38.493  43.910  13.510
61346W        W25279  39.046  19.570  11.383
61347W        W25280  36.039  40.802   3.764
61348W        W25281  28.930  27.029   4.761
61349W        W25282  36.852  17.717  14.381
61350W        W25283  32.906  29.531   1.755
61351W        W25284  18.546  34.418   4.693
61352W        W25285   0.356  39.483   0.850
61353W        W25286  26.982   2.269  10.602
61354W        W25287   6.723   4.823   3.173
61355W        W25288  37.361   1.389  13.810
61356W        W25289  32.522  25.056  13.885
61357W        W25290   4.786  32.571  14.840
61358W        W25291  16.173   1.363  12.877
61359W        W25292   8.697  23.685   4.653
61360W        W25293  32.054   9.258   5.273
61361W        W25294  40.514  44.497  12.979
61362W        W25295   6.345   2.293   0.266
61363W        W25296  37.965  41.370  14.797
61364W        W25297  19.742  17.792  12.422
61365W        W25298  17.256  29.019  14.486
61366W        W25299  14.605  36.958   4.616
61367W        W25300  28.454  21.107  11.374
61368W        W25301  26.483  11.707  12.576
61369W        W25302  35.966  34.493  14.464
61370W        W25303  16.791   1.907  13.498
61371W        W25304  32.937  10.777   4.257
61372W        W25305  21.076  28.044   3.842
61373W        W25306  19.670  29.967   0.894
61374W        W25307  37.354  21.731   4.317
61375W        W25308  19.764  16.145   3.158
61376W        W25309  28.613   0.273  14.933
61377W        W25310   5.874  41.995   1.377
61378W        W25311  33.032  31.112   3.654
61379W        W25312  14.812   9.825  13.461
61380W        W25313   8.873  12.287   2.227
61381W        W25314   5.805   5.378   2.238
61382W        W25315  44.425  37.979  14.969
61383W        W25316  41.421   4.340  12.883
61384W        W25317   4.914   2.382  10.975
61385W        W25318  28.150   6.765  11.058
61386W        W25319  17.236   8.702   0.279
61387W        W25320  30.963  35.006  11.419
61388W        W25321  41.883   0.782  10.511
61389W        W25322  34.877  43.940   4.158
61390W        W25323  12.650  18.265  10.574
61391W        W25324  40.932  34.093   3.784
61392W        W25325   8.263  43.403   4.785
61393W        W25326  26.173  36.055   0.875
61394W        W25327   0.249  44.456  12.493
61395W        W25328  20.574  38.380  12.380
61396W        W25329   8.224   2.816   4.616
61397W        W25330   4.781  27.962   1.820
61398W        W25331  40.977  11.832  13.367
61399W        W25332  32.910  23.078  12.038
61400W        W25333  34.488  21.682   0.404
61401W        W25334  13.650  43.431   4.650
61402W        W25335  38.564  31.906  14.431
61403W        W25336  43.879  40.440  10.566
61404W        W25337   0.977  40.856   3.831
61405W        W25338  19.605   8.320   2.672
61406W        W25339  29.138   3.907  11.092
61407W        W25340  17.721  21.587  11.373
61408W        W25341  35.035  19.597   2.736
61409W        W25342  31.451   6.242  13.857
61410W        W25343  42.000  44.905   2.800
61411W        W25344  31.901  26.586   4.314
61412W        W25345  33.092  28.608   3.184
61413W        W25346  39.992   9.337   1.781
61414W        W25347  37.389  36.433   3.185
61415W        W25348   1.938  27.648   3.211
61416W        W25349   3.724  43.360  11.383
61417W        W25350   2.427  27.559   4.129
61418W        W25351  13.255  32.404   0.772
61419W        W25352  41.344  43.993   0.737
61420W        W25353   8.759   4.243   2.248
61421W        W25354   5.206  22.601  12.823
61422W        W25355  39.948   4.863  11.957
61423W        W25356   6.368  27.134   0.451
61424W        W25357  28.027   8.742  12.876
61425W        W25358   6.685  12.182   0.836
61426W        W25359   9.748   9.830   4.739
61427W        W25360  42.312  39.337  12.903
61428W        W25361  16.256  29.506  11.437
61429W        W25362  30.152  19.678  11.878
61430W        W25363   0.769   4.832  14.395
61431W        W25364   9.764  32.563  11.591
61432W        W25365  33.392  30.563  13.546
61433W        W25366  38.385  38.875  13.471
61434W        W25367   9.325  39.022   4.262
61435W        W25368   7.414  41.395  13.319
61436W        W25369   0.394   4.325   3.769
61437W        W25370  23.606   9.883   9.948
61438W        W25371  16.780  10.689   4.649
61439W        W25372  18.551  25.101   1.734
61440W        W25373  24.588  21.641  13.375
61441W        W25374  31.487  11.734  14.372
61442W        W25375  18.260  30.032  11.081
61443W        W25376  42.833   6.288   1.287
61444W        W25377  26.159  37.853   2.885
61445W        W25378  30.624   8.206  14.001
61446W        W25379   9.151  27.632  10.597
61447W        W25380  44.916  37.967  13.491
61448W        W25381   1.319  38.031   4.165
61449W        W25382  25.605   7.298  11.008
61450W        W25383  23.723  17.197   4.171
61451W        W25384  31.002  22.717  10.006
61452W        W25385  12.807  11.710   2.328
61453W        W25386  25.682  21.218  10.422
61454W        W25387  20.143  25.084   2.746
61455W        W25388   0.796  14.106  14.854
61456W        W25389  42.303  18.096  11.536
61457W        W25390  15.767   2.961   3.256
61458W        W25391  18.773  11.269   2.344
61459W        W25392  14.666  41.502   1.293
61460W        W25393  10.152   3.729  11.584
61461W        W25394  13.743  28.031   0.293
61462W        W25395  33.132   7.293  12.352
61463W        W25396  10.140   6.364   2.836
61464W        W25397  43.924  19.196   0.949
61465W        W25398  44.838  17.288   4.334
61466W        W25399  41.889  19.711  14.954
61467W        W25400   3.776  15.809   3.662
61468W        W25401  21.581  42.906   3.229
61469W        W25402  13.185  10.222  12.562
61470W        W25403  12.244  31.624  11.612
61471W        W25404  28.139  38.937   2.801
61472W        W25405  33.552   4.787   3.742
61473W        W25406  26.121   8.297   1.756
61474W        W25407  32.559  19.684  12.947
61475W        W25408  33.610  20.605   1.709
61476W        W25409  24.646  32.922  11.574
61477W        W25410  24.674   2.440  12.511
61478W        W25411  14.338  27.137   3.148
61479W        W25412  29.550  30.487   1.730
61480W        W25413   1.907  15.645   5.259
61481W        W25414  11.347  18.681  14.970
61482W        W25415  11.762  33.908   2.749
61483W        W25416   9.693  31.060   2.331
61484W        W25417  39.966   0.264   4.242
61485W        W25418   5.286  16.293   4.836
61486W        W25419  30.656   1.435   4.680
61487W        W25420  17.228  39.453  12.092
61488W        W25421  21.647   4.811   1.343
61489W        W25422   9.262  43.306  13.934
61490W        W25423   9.276  29.946   3.287
61491W        W25424   3.218  43.298  12.345
61492W        W25425  30.582  16.309   3.342
61493W        W25426  15.302  10.177   0.339
61494W        W25427  16.683  13.225   1.698
61495W        W25428  21.153   6.766  14.446
61496W        W25429  43.858  37.343   3.157
61497W        W25430   1.809  24.526   0.934
61498W        W25431   9.693  16.122  13.979
61499W        W25432  35.525  30.137   4.607
61500W        W25433  11.231   5.432   3.248
61501W        W25434   8.901   6.217  11.604
61502W        W25435  28.490  12.838  11.543
61503W        W25436  32.012  39.322   3.751
61504W        W25437  24.635  19.721   0.430
61505W        W25438  33.994  38.532  14.841
61506W        W25439   5.311  36.391  13.447
61507W        W25440  30.000  35.500  10.616
61508W        W25441  18.165   8.821   4.121
61509W        W25442  24.193  22.199  10.421
61510W        W25443  28.971  27.155   1.294
61511W        W25444  36.581  42.943  13.857
61512W        W25445  11.858  42.873   2.832
61513W        W25446  14.323  41.521   4.678
61514W        W25447   0.931  25.654   0.937
61515W        W25448   8.210  24.185  12.431
61516W        W25449  23.008  14.765   0.734
61517W        W25450  23.996  16.303   1.770
61518W        W25451  44.923  29.541  14.444
61519W        W25452  23.230  13.707   1.697
61520W        W25453   4.877  17.781   2.238
61521W        W25454  19.572  35.416   0.330
61522W        W25455   9.807  23.545  10.443
61523W        W25456  27.471   9.363  12.871
61524W        W25457  31.136   9.185   2.704
61525W        W25458  35.502  15.598  14.837
61526W        W25459   7.372   2.369  12.453
61527W        W25460   5.388   5.767   1.274
61528W        W25461   5.800   4.723  12.433
61529W        W25462  28.445  43.990  10.915
61530W        W25463  19.077  34.055  12.469
61531W        W25464   9.360  18.685  13.882
61532W        W25465  15.326  26.164   2.417
61533W        W25466  19.056  35.925  10.910
61534W        W25467  22.049  27.520   3.266
61535W        W25468  23.024  24.666   2.415
61536W        W25469   6.850  44.305   0.278
61537W        W25470  23.154  20.106  10.518
61538W        W25471  30.578  22.172  13.495
61539W        W25472  24.681   0.862   3.750
61540W        W25473  10.823  11.671  11.960
61541W        W25474   4.756  25.674   5.798
61542W        W25475  30.607  39.533  14.000
61543W        W25476  32.918  11.772  14.856
61544W        W25477  34.607  17.699   1.754
61545W        W25478  29.925   8.402  11.855
61546W        W25479   4.819  15.677   5.189
61547W        W25480  33.077  23.532  14.885
61548W        W25481  15.650  30.964   2.220
61549W        W25482   0.816  41.969  11.930
61550W        W25483  26.555  31.039   4.827
61551W        W25484  10.862  13.718   0.816
61552W        W25485  17.137  17.626  13.792
61553W        W25486  44.481   9.255  10.999
61554W        W25487  39.006  40.846  11.069
61555W        W25488  12.292  11.654  14.898
61556W        W25489  18.150   7.844   4.620
61557W        W25490  41.532  36.018   2.894
61558W        W25491   2.367   9.688   4.307
61559W        W25492  17.585  32.481   0.925
61560W        W25493  17.105  17.555   3.750
61561W        W25494  44.396  20.167   4.148
61562W        W25495  29.575   9.672  14.413
61563W        W25496   9.301   6.709   1.292
61564W        W25497  39.441   4.220   0.372
61565W        W25498  18.603   6.369  13.486
61566W        W25499  42.484  15.261   0.434
61567W        W25500  35.102   6.318   2.259
61568W        W25501   2.786  22.138   0.950
61569W        W25502  36.870  10.747   1.369
61570W        W25503  28.495  28.587  12.410
61571W        W25504  17.585  15.162   2.692
61572W        W25505  44.900  30.145  11.470
61573W        W25506  21.206  25.563   3.707
61574W        W25507  42.827  29.621  13.491
61575W        W25508  38.975   4.400   0.387
61576W        W25509  17.280   7.398  10.136
61577W        W25510  43.882  12.257   0.819
61578W        W25511  25.471  36.988  12.339
61579W        W25512  15.728  29.606  11.491
61580W        W25513  27.068   8.785  11.020
61581W        W25514   2.244  22.633  14.315
61582W        W25515  13.749  35.883  11.424
61583W        W25516  22.731  43.785  10.460
61584W        W25517  36.079  26.966   1.400
61585W        W25518   0.459  21.035   2.839
61586W        W25519  39.412   2.344   2.711
61587W        W25520  42.469   4.852  14.933
61588W        W25521  32.025  42.374   3.633
61589W        W25522  44.820  43.863   4.253
61590W        W25523  19.629  25.577   3.761
61591W        W25524  23.707  20.224   0.433
61592W        W25525  36.543  18.262   3.284
61593W        W25526  27.461  38.888   0.371
61594W        W25527  40.450  20.202  12.357
61595W        W25528  36.012  12.824  11.552
61596W        W25529  38.333  13.184   2.229
61597W        W25530  38.510  23.119   3.241
61598W        W25531   2.444  20.264  12.577
61599W        W25532  41.361  44.453  11.939
61600W        W25533  29.612  27.619   0.892
61601W        W25534  34.494  26.023  14.328
61602W        W25535   0.851  43.387  12.979
61603W        W25536  21.112  37.876   1.924
61604W        W25537   0.958  22.130  11.912
61605W        W25538   1.467  42.868  14.806
61606W        W25539  10.876  41.318  13.842
61607W        W25540   6.368  18.059  14.007
61608W        W25541   1.767  33.919   3.795
61609W        W25542  43.924   0.363  11.073
61610W        W25543  44.298  34.108  11.439
61611W        W25544   3.795  18.091  14.411
61612W        W25545  19.683  29.462  13.015
61613W        W25546  41.428  36.497   2.311
61614W        W25547  36.470  23.655   4.599
61615W        W25548  22.600  40.851  13.826
61616W        W25549  20.696  25.023   1.378
61617W        W25550  16.300  38.937  13.526
61618W        W25551  26.062  23.614  12.880
61619W        W25552  41.843   9.778   2.205
61620W        W25553  20.161  43.365   3.351
61621W        W25554  32.488  41.320   1.841
61622W        W25555  44.779  20.198  11.380
61623W        W25556  40.035  39.927   0.346
61624W        W25557  35.555  25.107   0.405
61625W        W25558  20.708   7.311   3.255
61626W        W25559   7.669   9.152   1.236
61627W        W25560   2.255  20.176  12.939
61628W        W25561   4.832  13.117  13.048
61629W        W25562   3.355  28.458  12.449
61630W        W25563  24.053   3.372  10.086
61631W        W25564  29.475  34.960   2.346
61632W        W25565  18.602  37.547  14.918
61633W        W25566   2.319  15.584   0.961
61634W        W25567  25.691  44.451  14.836
61635W        W25568   9.205  22.702  12.943
61636W        W25569   0.267  16.263  11.010
61637W        W25570  24.555  24.040  14.943
61638W        W25571  12.317  13.346   3.867
61639W        W25572  30.496  28.522  14.023
61640W        W25573  44.769   5.376   0.812
61641W        W25574  24.006   0.317   4.240
61642W        W25575  17.086  35.413  13.411
61643W        W25576  19.268   4.714  13.337
61644W        W25577  44.311  26.606  12.928
61645W        W25578  23.550   5.770  12.079
61646W        W25579  24.651  42.480  11.033
61647W        W25580   1.423  34.059   0.391
61648W        W25581  17.104  34.998  11.932
61649W        W25582  42.963  25.505   2.835
61650W        W25583   5.369  42.349   3.374
61651W        W25584  28.677  42.402  11.879
61652W        W25585  24.160   2.790   3.201
61653W        W25586  41.335  30.043   0.404
61654W        W25587   0.302  37.447   5.658
61655W        W25588  24.147   2.457   2.279
61656W        W25589  26.613  13.838  13.868
61657W        W25590  35.530  38.050   0.741
61658W        W25591  14.167  40.539  10.911
61659W        W25592  42.989  10.654  11.611
61660W        W25593  23.232  36.488   0.954
61661W        W25594  43.849  23.548   3.832
61662W        W25595  42.991  35.014   1.867
61663W        W25596  12.633  25.671  13.978
61664W        W25597  21.212  41.822   2.265
61665W        W25598  14.672   5.225   9.919
61666W        W25599  22.595   4.342   4.748
61667W        W25600  42.838  40.312   4.183
61668W        W25601  35.382   6.762  10.502
61669W        W25602  42.407  20.181  11.865
61670W        W25603   7.687  35.911   2.809
61671W        W25604  43.498   7.763  14.769
61672W        W25605   3.265  17.109   0.419
61673W        W25606  25.665   6.405   0.430
61674W        W25607   7.706  28.079  12.356
61675W        W25608  43.501  26.651   2.846
61676W        W25609  32.898   2.421   3.383
61677W        W25610  10.221  24.616  14.932
61678W        W25611   0.905  43.883  14.955
61679W        W25612  18.778  33.417  11.922
61680W        W25613  22.068   5.777   3.774
61681W        W25614  14.616  31.588   0.910
61682W        W25615  37.998  40.425   4.788
61683W        W25616  33.988   5.425  13.026
61684W        W25617  32.492  44.403  10.487
61685W        W25618  26.566  36.958  12.347
61686W        W25619  31.482   1.254   2.198
61687W        W25620  12.361   7.248  13.864
61688W        W25621  31.605  42.496  11.949
61689W        W25622  19.244   3.948  13.935
61690W        W25623  38.342  43.288  11.519
61691W        W25624  14.180  34.042  10.509
61692W        W25625  15.326  35.986  11.892
61693W        W25626  19.237  20.540  12.553
61694W        W25627  26.619   8.705  14.293
61695W        W25628  38.986   2.721   2.309
61696W        W25629  17.778  33.110  14.932
61697W        W25630  25.021  26.592  13.533
61698W        W25631  24.179  13.825   4.688
61699W        W25632  30.152  26.623  11.593
61700W        W25633  35.007   8.198  13.022
61701W        W25634  39.812  34.938  12.366
61702W        W25635  29.541   6.237   4.179
61703W        W25636  14.723  27.025  11.478
61704W        W25637  36.366  32.614  11.076
61705W        W25638  10.638  16.106   1.916
61706W        W25639  44.757  13.782   2.774
61707W        W25640  35.051  17.653  12.435
61708W        W25641  43.902   5.408   3.160
61709W        W25642  24.515  19.274  14.308
61710W        W25643  12.278  25.989  14.445
61711W        W25644  10.845  36.461   3.720
61712W        W25645   6.898  31.494  11.544
61713W        W25646  18.216  27.588  13.888
61714W        W25647  21.542  23.164   0.756
61715W        W25648   4.744  27.989   3.351
61716W        W25649  19.118  30.489   1.373
61717W        W25650  16.783  13.138   0.914
61718W        W25651  21.036  11.241  14.886
61719W        W25652   1.797   0.954   2.239
61720W        W25653   5.893   9.697  10.435
61721W        W25654  17.231  27.158   9.505
61722W        W25655  19.188   9.170   1.336
61723W        W25656   6.423  44.329   3.763
61724W        W25657  14.810   7.885   1.346
61725W        W25658  43.982  18.263   1.336
61726W        W25659  15.785  39.856   4.636
61727W        W25660  32.104  36.492  13.041
61728W        W25661  36.984  39.938   1.712
61729W        W25662   4.855   9.852   4.729
61730W        W25663  18.069  24.611  13.534
61731W        W25664  36.538   0.982  12.030
61732W        W25665  12.765   6.333  11.536
61733W        W25666   4.862  30.013   1.912
61734W        W25667  35.483  35.077  10.453
61735W        W25668   2.269  39.889   2.368
61736W        W25669  30.007  30.583  13.399
61737W        W25670   8.894  31.908   3.635
61738W        W25671  36.846  43.900   4.691
61739W        W25672  39.521  25.010   0.458
61740W        W25673  25.629  34.423  13.845
61741W        W25674  41.954  14.766  13.511
61742W        W25675  36.352   8.683   1.862
61743W        W25676   0.867  19.728  11.392
61744W        W25677  22.723  43.330  13.371
61745W        W25678  25.612  31.522   2.344
61746W        W25679  36.558  14.197  13.414
61747W        W25680   4.807  34.948   3.650
61748W        W25681  24.570  33.437  13.056
61749W        W25682  41.502   9.660  14.834
61750W        W25683  32.114  38.467   1.791
61751W        W25684   3.920  10.225   0.472
61752W        W25685  40.901  31.125   4.345
61753W        W25686  23.996  25.539  14.434
61754W        W25687   8.195  27.959  14.398
61755W        W25688   0.955  20.051  12.950
61756W        W25689  14.738   1.398  14.764
61757W        W25690  26.567  34.521   4.657
61758W        W25691  25.531  26.590  11.490
61759W        W25692  30.086   1.439  12.860
61760W        W25693  33.510  29.649   1.816
61761W        W25694  22.089   5.360   3.668
61762W        W25695  43.278  26.503   1.442
61763W        W25696  15.619  18.727  11.599
61764W        W25697  41.347  16.211   4.613
61765W        W25698   4.897  39.999  11.933
61766W        W25699  40.882  35.869  14.004
61767W        W25700  44.907  20.105  12.087
61768W        W25701  32.045  12.121   3.375
61769W        W25702  22.127  11.654  10.088
61770W        W25703  42.481  25.164  11.931
61771W        W25704  28.067   3.409  12.414
61772W        W25705  17.777  44.374   1.445
61773W        W25706  42.393  43.003  13.879
61774W        W25707  13.109  37.841  10.450
61775W        W25708   4.834   3.848  12.523
61776W        W25709  29.560  22.186  11.062
61777W        W25710  39.475  21.086  14.942
61778W        W25711   0.413  15.803  12.946
61779W        W25712  35.913   4.768  13.515
61780W        W25713  36.874  26.537   3.853
61781W        W25714  30.551   5.913   4.319
61782W        W25715  19.087   2.333  11.962
61783W        W25716  38.911  17.085   4.186
61784W        W25717   4.899  40.035   0.360
61785W        W25718   8.866  31.897  12.858
61786W        W25719  20.086  41.500  14.949
61787W        W25720  27.505  14.835   1.791
61788W        W25721  32.075  11.719  12.580
61789W        W25722   2.784  42.021   2.218
61790W        W25723   6.207  43.419  10.425
61791W        W25724   2.930  36.523  11.432
61792W        W25725  36.546  31.528  11.486
61793W        W25726   1.765  34.448   3.363
61794W        W25727   3.403   3.248  12.560
61795W        W25728  40.375  16.271   1.720
61796W        W25729  43.296  24.117  11.387
61797W        W25730  42.428  11.156  14.404
61798W        W25731  42.333   3.303   2.196
61799W        W25732  15.686  38.878   4.149
61800W        W25733  36.487  20.127   4.205
61801W        W25734   0.744  37.563  12.976
61802W        W25735  18.685  15.227  13.427
61803W        W25736  16.708  23.645   0.270
61804W        W25737  33.621  23.027   4.655
61805W        W25738  25.537  15.578   4.254
61806W        W25739   9.295  29.073  13.818
61807W        W25740   2.762   9.153   0.935
61808W        W25741  26.563  26.973  11.394
61809W        W25742  30.045  31.591   2.318
61810W        W25743  21.634  37.499  13.485
61811W        W25744   3.230  11.790   9.935
61812W        W25745  14.656  17.642   0.401
61813W        W25746   4.720  38.071   2.792
61814W        W25747  22.595   1.835  14.841
61815W        W25748  43.370   3.728   0.890
61816W        W25749  29.074  23.708  13.445
61817W        W25750  30.500  40.517   1.881
61818W        W25751   6.681  19.645  11.922
61819W        W25752   7.770   0.829  14.838
61820W        W25753  10.244   6.243   4.748
61821W        W25754   2.729  39.328  10.924
61822W        W25755  20.553  17.770   0.336
61823W        W25756  27.625   8.784   5.312
61824W        W25757  31.101   2.759  14.952
61825W        W25758  33.941  15.676   0.790
61826W        W25759  25.051  21.183   1.353
61827W        W25760   7.260  12.207   1.426
61828W        W25761  23.008  29.929  11.992
61829W        W25762  35.366  20.233   3.319
61830W        W25763  42.485   8.191  13.435
61831W        W25764   0.335  11.864  12.861
61832W        W25765  35.519  28.042   4.141
61833W        W25766  13.260   9.321   3.183
61834W        W25767  41.036  12.328   1.413
61835W        W25768  43.916  19.212  13.416
61836W        W25769  32.125  39.451   0.870
61837W        W25770  43.496   0.419  13.884
61838W        W25771  34.517  34.966   0.246
61839W        W25772  36.584  27.143   2.287
61840W        W25773  35.383   2.391   2.361
61841W        W25774  40.819  22.221   1.370
61842W        W25775  37.421  41.942   4.201
61843W        W25776  15.227  23.663  12.556
61844W        W25777  44.816   4.365  11.414
61845W        W25778  26.013  31.521  14.844
61846W        W25779  38.832   1.288  12.529
61847W        W25780  23.173  34.494   1.385
61848W        W25781  36.010   8.875   0.405
61849W        W25782   8.283  37.388   4.707
61850W        W25783  26.179   7.268   4.194
61851W        W25784  33.126   1.395  13.406
61852W        W25785  38.366  35.512  12.826
61853W        W25786  17.118  12.822   5.184
61854W        W25787  18.253  38.494   4.132
61855W        W25788  32.593  40.316   4.328
61856W        W25789  14.159  38.471  11.571
61857W        W25790  12.783  43.795  11.905
61858W        W25791  23.157   6.326   3.841
61859W        W25792   8.371  19.123   2.369
61860W        W25793  16.681  37.832   4.348
61861W        W25794  42.785  16.776  14.306
61862W        W25795  18.579  33.391   3.162
61863W        W25796   9.772   2.331   1.321
61864W        W25797  43.794  34.487   4.692
61865W        W25798   0.441  42.856   4.334
61866W        W25799  11.792  28.978   0.773
61867W        W25800   8.772  16.144  14.357
61868W        W25801   8.164  15.750   0.378
61869W        W25802  22.096  20.196   0.825
61870W        W25803  12.159  36.346   4.120
61871W        W25804  44.759  44.837   3.186
61872W        W25805   6.200   3.395   4.766
61873W        W25806  40.503  39.036   5.104
61874W        W25807  28.026  10.736  10.967
61875W        W25808  35.435  37.395   1.316
61876W        W25809   5.401  30.127   4.354
61877W        W25810  27.589  44.805   2.200
61878W        W25811   8.194   2.330  13.843
61879W        W25812  29.455  25.019  11.944
61880W        W25813  14.180  17.768   3.814
61881W        W25814  35.045  11.823   0.763
61882W        W25815  22.165  32.417   0.426
61883W        W25816  10.194  26.686   2.254
61884W        W25817   2.747  20.726  10.633
61885W        W25818   7.384  36.960   3.193
61886W        W25819  19.653  41.368  14.333
61887W        W25820  23.527  27.971  10.901
61888W        W25821   0.808  11.237   1.888
61889W        W25822  18.772  25.620  12.978
61890W        W25823  12.737  37.950   2.809
61891W        W25824  22.584  41.828   0.768
61892W        W25825  31.940  13.844   4.724
61893W        W25826  34.568  42.808   2.408
61894W        W25827  27.054  15.229  14.837
61895W        W25828  40.911  14.260   0.317
61896W        W25829   6.744  39.893   4.308
61897W        W25830  25.034  18.160  13.989
61898W        W25831   2.883  25.121  10.476
61899W        W25832  44.908  41.473  13.527
61900W        W25833  32.545  12.776   0.393
61901W        W25834   4.883   1.453   0.771
61902W        W25835  27.166  30.148  12.017
61903W        W25836   3.944  15.205   4.180
61904W        W25837  27.561  44.940  14.762
61905W        W25838   8.284  36.913  11.017
61906W        W25839  40.011   1.856  14.443
61907W        W25840  22.249  11.337   2.854
61908W        W25841  31.984  20.684   4.688
61909W        W25842  20.737  13.747   0.396
61910W        W25843  15.713  34.481  10.043
61911W        W25844  23.220  28.586   3.758
61912W        W25845   2.314  12.188  14.863
61913W        W25846  34.872  37.341   1.375
61914W        W25847  38.881  15.613   4.760
61915W        W25848  30.575  31.115  13.004
61916W        W25849  34.553  21.583  12.535
61917W        W25850  16.578  39.553  10.915
61918W        W25851  37.395  30.969   2.349
61919W        W25852  39.846  24.575  13.891
61920W        W25853   3.396  28.631   3.275
61921W        W25854   6.404   6.854   5.296
61922W        W25855  21.153  38.549   2.369
61923W        W25856   0.366  43.325  14.007
61924W        W25857  41.033  30.609   3.722
61925W        W25858  33.070  27.008  12.035
61926W        W25859  11.674  24.116   1.770
61927W        W25860  35.076  37.473  14.353
61928W        W25861  15.702  20.699  14.911
61929W        W25862  12.830  41.019   2.687
61930W        W25863  34.863   9.646   0.455
61931W        W25864  28.668  39.843  14.426
61932W        W25865  15.279  10.767  13.380
61933W        W25866  27.180   7.810  10.563
61934W        W25867  10.751   6.908   1.379
61935W        W25868  15.785  33.125  12.928
61936W        W25869   3.216  15.654   1.378
61937W        W25870  15.199  38.825   2.240
61938W        W25871  25.708  24.488   2.856
61939W        W25872  13.603  19.263  12.959
61940W        W25873  35.928  20.057   0.897
61941W        W25874  23.685  39.821  13.479
61942W        W25875  17.078  18.790   3.264
61943W        W25876  38.906  10.787   0.812
61944W        W25877  19.266   8.216   1.858
61945W        W25878  14.226  39.424   2.343
61946W        W25879  20.667   0.249   1.739
61947W        W25880   6.352  15.098  11.009
61948W        W25881   6.702  41.448  10.404
61949W        W25882   2.445   9.268   0.954
61950W        W25883  30.954  23.551  11.511
61951W        W25884  42.892  41.473  13.373
61952W        W25885  41.425  21.141  14.429
61953W        W25886  22.739  17.276   3.260
61954W        W25887  23.223  25.107  11.856
61955W        W25888  40.354   1.765  13.495
61956W        W25889   8.709  42.522   3.840
61957W        W25890  29.095  10.324  12.901
61958W        W25891  43.271  13.795  12.544
61959W        W25892  31.589  17.610  11.536
61960W        W25893  32.596  28.441  14.953
61961W        W25894  38.452  43.330  12.473
61962W        W25895  17.283  41.348   4.633
61963W        W25896   2.964   8.263  13.835
61964W        W25897  33.122  11.176  14.936
61965W        W25898  11.212  15.302  12.068
61966W        W25899   2.938   5.925  13.373
61967W        W25900  29.989  40.832   2.236
61968W        W25901   8.726   7.858  10.600
61969W        W25902   8.330  31.525   4.124
61970W        W25903  25.552  21.659  14.280
61971W        W25904  13.129   7.351   1.346
61972W        W25905  18.758  15.809  14.923
61973W        W25906  20.523  41.944   1.225
61974W        W25907   2.247  25.006   1.449
61975W        W25908  25.077  30.495   1.330
61976W        W25909  32.491  41.996  12.923
61977W        W25910  27.623  23.239   4.671
61978W        W25911   9.291   0.425  11.416
61979W        W25912  27.997  27.977   4.310
61980W        W25913  14.596  39.480  14.450
61981W        W25914  27.059  40.947  14.488
61982W        W25915   6.831  38.073   0.873
61983W        W25916  23.235  22.525  11.486
61984W        W25917  11.798   0.392   4.344
61985W        W25918  31.944   6.777  11.378
61986W        W25919  20.102  23.521  10.478
61987W        W25920  25.119  19.596   1.734
61988W        W25921  35.007  17.774   4.816
61989W        W25922  27.005  19.107  14.030
61990W        W25923   4.407  36.877  12.872
61991W        W25924  12.163  35.374   0.392
61992W        W25925  17.672   1.740  10.593
61993W        W25926  25.075   7.406   2.181
61994W        W25927  27.150  15.309   0.944
61995W        W25928   5.793  12.730   4.606
61996W        W25929  29.024   0.985  11.488
61997W        W25930  44.778  27.148  14.462
61998W        W25931  16.690  10.248  14.823
61999W        W25932  31.448  18.209  14.842
62000W        W25933  39.937  21.519   1.235
62001W        W25934  29.562   4.802   3.366
62002W        W25935  25.004   2.346  11.106
62003W        W25936  17.705  22.150  10.950
62004W        W25937  39.823  14.239  14.982
62005W        W25938   5.405  13.757   2.706
62006W        W25939   5.226  10.807   0.424
62007W        W25940  37.418  40.479  11.968
62008W        W25941  39.848  30.497  14.501
62009W        W25942  21.018   5.748  10.127
62010W        W25943  10.170   4.263   0.315
62011W        W25944   8.182   4.943   0.792
62012W        W25945  41.342  32.600   1.780
62013W        W25946  27.656  27.983   4.261
62014W        W25947  36.073  40.475  14.413
62015W        W25948  35.968  29.965  14.385
62016W        W25949  15.213  13.117  13.026
62017W        W25950  21.645  27.563  14.988
62018W        W25951  11.631  37.520   3.744
62019W        W25952  16.073  42.311   2.710
62020W        W25953  29.987  25.989  14.991
62021W        W25954  18.721  44.297   2.698
62022W        W25955  25.467  31.062   0.378
62023W        W25956  20.742   9.686   3.207
62024W        W25957  30.655  38.470   4.659
62025W        W25958   2.799   2.402   2.224
62026W        W25959  13.615  39.463  14.338
62027W        W25960   7.395  43.766   2.387
62028W        W25961  32.990  15.196  11.897
62029W        W25962  41.394  20.234   5.319
62030W        W25963  25.576  11.215  14.366
62031W        W25964  30.003  15.171   0.951
62032W        W25965  19.572  41.923   1.267
62033W        W25966  12.737  34.962   2.883
62034W        W25967  25.056  13.804  12.065
62035W        W25968  36.920  40.901  14.277
62036W        W25969   3.433  32.958  11.487
62037W        W25970  39.360  35.401   1.880
62038W        W25971  16.280  16.318   1.894
62039W        W25972   4.321   7.755   3.305
62040W        W25973   8.704  28.028   4.820
62041W        W25974  21.574  32.129  11.408
62042W        W25975  44.895  39.988  11.458
62043W        W25976  10.838  20.761   0.761
62044W        W25977  26.666  17.585   3.701
62045W        W25978   9.876   0.279  10.912
62046W        W25979   5.231  11.697  10.978
62047W        W25980  20.127  22.673  12.417
62048W        W25981  14.113  16.114   3.358
62049W        W25982   5.353  31.646   4.309
62050W        W25983  40.420  36.906  13.044
62051W        W25984  41.489   0.880   0.412
62052W        W25985  15.326  37.397   2.393
62053W        W25986  20.644  24.182   4.838
62054W        W25987  31.968  37.513   0.243
62055W        W25988   9.153  27.032   4.296
62056W        W25989  38.032  21.695  13.028
62057W        W25990  36.052  32.597  14.872
62058W        W25991  38.539  13.183  14.803
62059W        W25992   1.302  13.674  11.125
62060W        W25993   6.199  20.739   2.299
62061W        W25994  22.568   0.809   9.929
62062W        W25995  32.121  43.409   1.322
62063W        W25996  42.930   9.204   4.625
62064W        W25997  29.629  40.052   4.215
62065W        W25998  35.550   5.424  10.966
62066W        W25999  41.934  26.617  13.390
62067W        W26000   4.784   1.425  10.013
62068W        W26001  34.494   3.943  12.040
62069W        W26002  39.527  40.869  14.430
62070W        W26003   0.879  35.009   2.794
62071W        W26004  27.569  16.811   0.847
62072W        W26005  39.860  24.709  14.477
62073W        W26006  26.143   9.151  13.497
62074W        W26007  43.452  30.122   3.814
62075W        W26008  38.457  33.937  13.833
62076W        W26009  40.485  38.507  10.615
62077W        W26010  18.559  25.674   0.773
62078W        W26011   1.758  20.097   2.743
62079W        W26012  25.112  19.693   3.730
62080W        W26013  35.545  19.236  12.542
62081W        W26014  28.470  30.157  10.976
62082W        W26015  31.964  27.045   4.617
62083W        W26016  13.180  35.395  12.017
62084W        W26017  44.396  10.192   2.797
62085W        W26018  12.743   6.191   1.746
62086W        W26019  20.184  21.134  14.784
62087W        W26020  25.633   8.397   2.678
62088W        W26021   5.841  13.631   2.397
62089W        W26022  40.027  24.100   1.396
62090W        W26023  26.146  15.287  11.972
62091W        W26024  17.634  28.493  12.063
62092W        W26025  10.860  10.192   2.820
62093W        W26026  35.105  25.631   2.341
62094W        W26027  22.248  31.518   0.958
62095W        W26028  18.297   6.842  11.534
62096W        W26029  32.466  14.262   2.379
62097W        W26030  39.392  34.058  10.481
62098W        W26031  14.136  15.230  13.344
62099W        W26032   8.835   9.872  12.566
62100W        W26033  41.949  27.514  11.441
62101W        W26034  44.486  30.609  14.883
62102W        W26035  16.671  42.829   4.120
62103W        W26036   9.303  33.498  13.534
62104W        W26037  35.382  30.427   3.188
62105W        W26038  26.167   7.184  12.974
62106W        W26039  19.043  18.150  13.844
62107W        W26040  37.974  37.368   5.175
62108W        W26041  36.924  18.174  14.322
62109W        W26042  17.623  44.916   1.235
62110W        W26043  24.089   8.833   1.770
62111W        W26044  22.204   9.368   4.125
62112W        W26045  43.775   8.710  12.027
62113W        W26046  32.036  44.829   2.791
62114W        W26047   4.723   4.373  14.771
62115W        W26048  11.334  27.528  11.012
62116W        W26049  23.113  12.336  12.561
62117W        W26050  44.872  28.153  14.015
62118W        W26051  43.457   5.323  14.294
62119W        W26052  12.309   9.869  13.037
62120W        W26053  31.050   7.350   4.650
62121W        W26054  26.497  37.520  12.023
62122W        W26055  24.084  21.730   1.219
62123W        W26056  13.600   0.914   3.661
62124W        W26057  10.175  11.162  14.460
62125W        W26058   8.837  13.188   2.723
62126W        W26059  18.614   2.913  10.905
62127W        W26060  18.647  26.504   1.887
62128W        W26061  19.157  25.185  12.446
62129W        W26062  19.556  39.546  11.548
62130W        W26063  27.007   4.426   0.370
62131W        W26064  27.095  28.466  13.998
62132W        W26065   8.666   5.204   4.280
62133W        W26066  26.648  10.707  12.870
62134W        W26067  17.701  18.555  11.918
62135W        W26068  34.531   6.746   4.219
62136W        W26069   5.858   4.226   1.230
62137W        W26070  13.198  14.267  14.488
62138W        W26071  10.816  40.935  12.479
62139W        W26072  30.418   5.926   3.853
62140W        W26073  44.383  28.956  14.502
62141W        W26074  44.312  30.062   0.264
62142W        W26075  32.580  18.232   2.665
62143W        W26076  35.954  11.772   0.267
62144W        W26077  31.592  39.413   1.738
62145W        W26078  27.573  41.913  14.318
62146W        W26079  15.583   7.745  12.548
62147W        W26080  11.775  39.922   0.787
62148W        W26081   7.370  23.654  11.989
62149W        W26082  20.104  22.019   0.811
62150W        W26083  20.760  42.393   0.870
62151W        W26084  39.342  33.112  13.414
62152W        W26085  18.233   5.289  10.923
62153W        W26086  27.490  22.221  12.400
62154W        W26087  15.276  34.559   2.237
62155W        W26088  41.899  36.526   3.362
62156W        W26089  16.164  37.576  10.026
62157W        W26090  42.821  30.942  13.966
62158W        W26091  28.093  21.637  11.391
62159W        W26092   4.253  28.125   1.256
62160W        W26093  36.078  33.414   3.655
62161W        W26094  25.197  28.566  14.014
62162W        W26095  17.222  37.040   5.786
62163W        W26096  10.149  43.933   4.350
62164W        W26097  43.793   1.396   4.608
62165W        W26098  41.901  36.392   2.769
62166W        W26099  28.181  32.610  14.458
62167W        W26100  32.488  25.600  11.467
62168W        W26101  22.561  17.069  14.885
62169W        W26102  23.998  30.467   3.719
62170W        W26103  37.896  15.183  13.979
62171W        W26104   1.399  20.029   4.615
62172W        W26105  33.044  40.335   0.815
62173W        W26106  42.859   9.202  14.836
62174W        W26107  26.091  33.494   1.286
62175W        W26108  43.454  36.045   0.248
62176W        W26109  36.962   1.923  14.911
62177W        W26110  15.692   6.265   2.255
62178W        W26111  37.844  27.078  13.327
62179W        W26112  30.415   4.385   3.785
62180W        W26113   4.888  32.988  11.992
62181W        W26114   4.281  21.167  13.946
62182W        W26115  14.741  16.793  12.577
62183W        W26116  20.761  15.245   4.246
62184W        W26117  16.140  12.764   2.197
62185W        W26118   5.785  41.968  11.451
62186W        W26119  40.402  29.495  10.421
62187W        W26120  31.590  26.035   0.245
62188W        W26121  25.075   2.243  13.980
62189W        W26122  44.891  20.257  12.508
62190W        W26123  37.393  30.953   0.446
62191W        W26124  10.872  42.994  11.391
62192W        W26125  20.187  42.403   1.712
62193W        W26126  23.595  18.249   1.822
62194W        W26127  26.187  10.788  14.469
62195W        W26128   8.377  23.083  13.329
62196W        W26129   6.204  33.411  10.499
62197W        W26130  10.289   2.811  10.456
62198W        W26131  18.621  33.129  12.045
62199W        W26132  16.606   5.342  11.954
62200W        W26133   8.207  41.977   4.754
62201W        W26134  12.780   9.805  10.424
62202W        W26135   2.396  40.811   1.273
62203W        W26136  26.021  43.415   3.268
62204W        W26137   8.783   1.852  10.149
62205W        W26138  42.913  43.360  11.027
62206W        W26139  30.980  44.385   1.908
62207W        W26140  16.240  23.622   0.430
62208W        W26141  37.889  15.155  12.020
62209W        W26142  22.571  36.033  13.008
62210W        W26143  30.069  23.672  11.916
62211W        W26144  35.047  37.344   5.094
62212W        W26145  39.839  38.366  11.383
62213W        W26146  21.610  19.625   4.321
62214W        W26147   8.339  38.489  13.035
62215W        W26148  11.360  32.018   3.291
62216W        W26149  18.566  22.571   1.298
62217W        W26150  14.324  39.951  10.611
62218W        W26151   4.381  38.991   1.431
62219W        W26152  43.503   6.832  14.481
62220W        W26153  44.356  23.023   1.753
62221W        W26154  42.426  41.473   0.957
62222W        W26155   3.222  31.586  12.829
62223W        W26156  21.183  25.002   9.928
62224W        W26157  15.622  42.903   3.146
62225W        W26158  22.723  25.026  11.910
62226W        W26159  19.197  18.111   0.793
62227W        W26160  32.893  42.402  11.413
62228W        W26161   1.799  28.656   0.332
62229W        W26162   4.274   4.732   2.707
62230W        W26163   6.789  41.031  13.027
62231W        W26164  25.181  30.596  12.905
62232W        W26165  42.354  22.237  12.971
62233W        W26166  16.579  29.534   4.629
62234W        W26167   4.769  13.605   1.720
62235W        W26168  43.889  41.328  12.017
62236W        W26169  36.369  14.146   3.335
62237W        W26170   1.953   3.313   2.708
62238W        W26171  37.966  32.409  13.416
62239W        W26172  24.707  20.087   1.407
62240W        W26173   9.721  25.073   1.835
62241W        W26174  18.742  37.564  12.906
62242W        W26175   2.836  29.122   4.688
62243W        W26176   9.697   1.432  14.966
62244W        W26177  20.122  29.133  11.975
62245W        W26178  38.438  43.792  12.840
62246W        W26179  26.521  17.581   2.230
62247W        W26180  22.090  11.206  13.893
62248W        W26181  44.363  14.798   4.621
62249W        W26182  30.098   3.749   2.872
62250W        W26183  12.343  25.713   3.700
62251W        W26184   9.733  26.514   1.325
62252W        W26185   5.367   4.804   1.739
62253W        W26186  18.676  23.093  14.486
62254W        W26187   4.388  43.371  14.898
62255W        W26188  13.703  31.635   4.266
62256W        W26189  36.371  16.620   0.278
62257W        W26190   5.713  44.389   0.306
62258W        W26191  14.744  44.451   3.845
62259W        W26192  44.408  30.545   1.704
62260W        W26193  33.572  27.020  11.028
62261W        W26194  39.000  12.183   1.235
62262W        W26195  17.693  24.990   5.254
62263W        W26196  14.835   5.926   2.251
62264W        W26197  16.631  37.364  14.003
62265W        W26198  29.064   4.329  12.437
62266W        W26199  16.675   0.334   2.891
62267W        W26200  35.516  16.780  13.861
62268W        W26201   8.777   5.932  12.840
62269W        W26202  11.309  16.300   4.334
62270W        W26203   8.265  21.688   2.765
62271W        W26204  19.230  14.595  14.483
62272W        W26205   2.886   0.325  10.449
62273W        W26206  11.712  14.237   4.838
62274W        W26207  33.021  17.593  14.941
62275W        W26208  41.010  34.610  12.541
62276W        W26209  22.671   6.219  13.933
62277W        W26210  37.893  38.906   1.382
62278W        W26211  19.706   5.697   1.227
62279W        W26212  25.652  32.029   1.252
62280W        W26213  22.160  34.008   1.241
62281W        W26214  36.998   3.426  13.861
62282W        W26215  32.129  27.538  14.364
62283W        W26216  17.216  32.026   2.808
62284W        W26217  26.602  14.757   2.184
62285W        W26218   6.738   0.417   0.456
62286W        W26219  44.977  14.793  11.441
62287W        W26220   3.765  33.609  11.517
62288W        W26221  10.249  19.201   0.740
62289W        W26222   4.905  19.061  11.961
62290W        W26223  24.143  15.301   2.759
62291W        W26224  11.718   8.258   3.243
62292W        W26225   7.357  26.208   9.486
62293W        W26226  39.004  32.478   2.225
62294W        W26227   6.407  19.606   1.711
62295W        W26228  42.378  39.845   4.303
62296W        W26229  43.882   1.789  10.450
62297W        W26230  39.923  42.943   2.325
62298W        W26231  13.733  21.691   1.288
62299W        W26232  12.718  17.110   1.727
62300W        W26233  14.130  33.539  12.977
62301W        W26234   7.767  39.338  13.415
62302W        W26235  44.917  35.529  12.032
62303W        W26236  20.675   1.270   4.705
62304W        W26237   0.376   4.368  13.519
62305W        W26238  19.284  14.690  13.503
62306W        W26239  17.239  24.627   3.177
62307W        W26240  17.273  21.557   1.919
62308W        W26241  36.919  34.971  14.933
62309W        W26242  29.982   2.725   4.197
62310W        W26243  43.293  27.635   4.675
62311W        W26244  28.594   4.348  13.512
62312W        W26245  15.754  17.238   4.329
62313W        W26246  34.868   8.771   4.310
62314W        W26247   5.813  28.486  14.462
62315W        W26248  41.953   7.218   3.677
62316W        W26249  26.510  35.544  10.577
62317W        W26250  43.958   5.925   3.286
62318W        W26251  20.700  11.712   1.310
62319W        W26252  42.996  19.081  12.445
62320W        W26253  31.409   0.770  13.809
62321W        W26254  42.913  40.045  10.503
62322W        W26255  10.858  42.005  13.829
62323W        W26256  30.441  38.383   1.371
62324W        W26257  13.778  38.885  13.854
62325W        W26258  40.526  11.280   1.706
62326W        W26259  39.332  21.250  11.510
62327W        W26260  31.985  26.100  12.923
62328W        W26261  32.032  41.019   1.866
62329W        W26262   0.885  37.516  11.980
62330W        W26263  32.925  21.632  13.452
62331W        W26264  14.787  20.688   4.239
62332W        W26265  29.443   9.360   3.725
62333W        W26266  39.956   4.920  14.471
62334W        W26267  20.618  42.329  11.862
62335W        W26268   0.253   8.254  14.425
62336W        W26269  14.601  17.145   1.254
62337W        W26270   4.310   9.864   0.764
62338W        W26271  31.409  22.549  14.358
62339W        W26272  27.973   2.952  12.343
62340W        W26273  15.209   0.337   1.881
62341W        W26274  14.284   7.338   2.898
62342W        W26275  16.197  22.503  13.437
62343W        W26276   5.349  21.099  11.553
62344W        W26277  17.699   0.935   4.238
62345W        W26278  39.335   8.225   4.810
62346W        W26279   4.448   1.456  14.845
62347W        W26280  36.441   2.855   0.780
62348W        W26281  35.443  22.720  11.422
62349W        W26282  18.144  27.590   0.264
62350W        W26283  32.090  16.575   3.286
62351W        W26284  14.784  25.560  11.393
62352W        W26285  39.367  11.627  14.325
62353W        W26286  29.608  26.125  14.323
62354W        W26287   6.777  12.632   0.792
62355W        W26288  38.909   0.929  12.918
62356W        W26289  10.773  32.028  14.847
62357W        W26290  20.638  11.287   2.285
62358W        W26291   4.722   8.785   2.670
62359W        W26292  23.137  24.541  11.926
62360W        W26293  37.010  36.920   0.450
62361W        W26294  13.262  26.606   2.319
62362W        W26295   2.294  10.646   2.783
62363W        W26296  16.272  26.093   4.745
62364W        W26297  30.615   7.863   1.846
62365W        W26298  33.053  21.734  10.529
62366W        W26299  34.866   3.419   5.178
62367W        W26300  34.446  32.412   4.804
62368W        W26301  43.474  44.314  13.042
62369W        W26302  39.362  41.354  14.505
62370W        W26303  14.217  44.344   0.303
62371W        W26304  33.121  20.231  12.019
62372W        W26305  27.950  27.543   1.434
62373W        W26306  34.967   6.310   3.159
62374W        W26307  42.501  29.506   3.694
62375W        W26308  14.094  43.987   0.915
62376W        W26309  17.091  31.404   0.318
62377W        W26310  26.613   7.212  13.013
62378W        W26311  41.442  11.340  11.083
62379W        W26312  19.590  22.104   2.724
62380W        W26313  32.023   3.769   4.338
62381W        W26314   0.929   8.380  14.410
62382W        W26315  22.022  44.845  10.484
62383W        W26316  36.481  29.952  14.792
62384W        W26317   0.373  31.058  12.371
62385W        W26318   8.755   3.368   2.793
62386W        W26319  31.929  21.070   0.965
62387W        W26320  24.578   7.846   1.788
62388W        W26321  24.551  37.514  13.030
62389W        W26322  33.428  41.039  12.064
62390W        W26323  20.692  16.150   3.299
62391W        W26324  33.951   6.229   2.741
62392W        W26325  24.125   7.386   3.860
62393W        W26326  40.833  38.901   3.686
62394W        W26327   7.278  10.373  12.039
62395W        W26328   7.773  14.313   0.432
62396W        W26329  12.337  21.661   3.225
62397W        W26330  11.827  15.698  14.828
62398W        W26331  38.542  12.627   0.301
62399W        W26332  18.576  28.930  11.586
62400W        W26333  40.012   1.841   1.868
62401W        W26334   4.845  34.508   2.682
62402W        W26335   1.798  14.173   0.731
62403W        W26336   4.781  19.165   2.298
62404W        W26337  10.307  27.615   2.355
62405W        W26338   2.922  13.161   1.754
62406W        W26339   8.239  13.723   3.192
62407W        W26340  40.829  35.001  11.555
62408W        W26341  18.633  12.747   4.780
62409W        W26342  30.948  11.757   4.719
62410W        W26343   5.740  21.520  13.365
62411W        W26344   5.342   3.804  14.786
62412W        W26345  37.040   2.864   1.362
62413W        W26346   1.298  35.069  11.962
62414W        W26347   1.313  44.755   1.314
62415W        W26348  32.565   0.271  14.874
62416W        W26349  28.668   5.884  12.912
62417W        W26350  31.148  10.662  12.357
62418W        W26351  38.472  40.918  14.444
62419W        W26352  20.565  23.535  11.001
62420W        W26353  39.897   1.758   2.773
62421W        W26354  15.700  19.712   2.771
62422W        W26355  14.289  11.205   1.279
62423W        W26356   6.760  37.952   4.294
62424W        W26357   6.689  19.582  10.892
62425W        W26358  25.186  35.018   2.686
62426W        W26359  30.056  27.156  13.828
62427W        W26360   3.452  30.960   4.130
62428W        W26361  34.376  35.484   4.656
62429W        W26362  24.150   1.809  13.875
62430W        W26363  26.152   7.230  11.076
62431W        W26364   8.374  44.866   3.245
62432W        W26365  24.544  13.329   0.360
62433W        W26366   4.744   4.381  13.044
62434W        W26367  36.038  24.655   4.237
62435W        W26368  23.548  20.193   1.845
62436W        W26369  22.098  28.111  14.303
62437W        W26370  25.966  31.519  12.493
62438W        W26371  16.641   0.403  12.345
62439W        W26372  44.854   6.346   1.343
62440W        W26373  15.239   3.739  10.443
62441W        W26374  39.846   6.854   0.482
62442W        W26375   1.899   1.313  13.411
62443W        W26376  30.052  10.815   2.800
62444W        W26377  25.190  20.158  11.897
62445W        W26378   9.665   7.360   4.152
62446W        W26379  22.644   1.280   3.228
62447W        W26380  44.930  29.974   0.867
62448W        W26381  37.439  14.281   4.114
62449W        W26382   2.932  17.786   2.206
62450W        W26383  15.090  24.557   0.472
62451W        W26384   5.759  35.482   3.750
62452W        W26385  10.837  22.144  14.471
62453W        W26386   2.812  14.664   0.878
62454W        W26387  16.193   6.388   4.145
62455W        W26388  17.672   5.868  13.934
62456W        W26389  15.243  10.150  11.528
62457W        W26390  19.696  27.101   2.198
62458W        W26391  16.206  30.627   1.824
62459W        W26392  12.268  20.736  11.390
62460W        W26393  29.442   6.754  11.377
62461W        W26394  24.718  12.761  14.462
62462W        W26395  10.763  26.146   4.193
62463W        W26396  40.934  41.885   3.197
62464W        W26397  18.768  14.225  11.598
62465W        W26398  19.189  24.586  13.896
62466W        W26399  24.061   7.695   0.356
62467W        W26400   1.243  14.277   2.254
62468W        W26401  36.545  25.963  11.933
62469W        W26402   6.330  32.635  12.363
62470W        W26403  13.683  23.033  11.509
62471W        W26404  19.777  18.229  14.903
62472W        W26405  28.671  23.210  11.578
62473W        W26406  18.569  18.745   0.459
62474W        W26407  23.551  30.604   4.641
62475W        W26408  37.435  12.848   1.856
62476W        W26409  25.624  44.915  12.536
62477W        W26410  24.136   3.236   2.663
62478W        W26411  31.564  12.345   3.146
62479W        W26412  24.675   9.656   5.231
62480W        W26413  25.472  23.663   1.219
62481W        W26414   1.778  10.280   0.434
62482W        W26415   8.812  41.806   2.178
62483W        W26416  22.214  10.763   0.377
62484W        W26417  37.530  38.328  10.108
62485W        W26418  44.374  22.089   3.335
62486W        W26419   8.852   8.673  10.408
62487W        W26420  41.991  23.673  13.421
62488W        W26421   6.901   9.257   3.284
62489W        W26422  32.453   0.982   3.720
62490W        W26423  40.488  30.496   4.835
62491W        W26424  41.419  10.274  11.393
62492W        W26425  24.516  17.124   1.336
62493W        W26426   2.421  26.496  12.931
62494W        W26427   5.746  18.679  14.022
62495W        W26428  33.921  32.592   2.258
62496W        W26429  30.086  35.410   3.865
62497W        W26430  36.918   8.347   3.304
62498W        W26431  36.360  35.951   2.294
62499W        W26432   1.888  22.619   3.861
62500W        W26433  19.583   6.216   3.701
62501W        W26434   8.214  13.817   0.961
62502W        W26435  16.244  21.518  11.601
62503W        W26436  37.353  17.731  10.638
62504W        W26437  30.012  27.120  10.503
62505W        W26438  15.637  11.333  13.929
62506W        W26439   3.867   2.796  11.524
62507W        W26440  28.560  25.989   3.337
62508W        W26441  13.797  37.580   1.216
62509W        W26442   1.798   8.689   1.815
62510W        W26443  32.912  43.269  10.593
62511W        W26444   4.447  37.074   2.297
62512W        W26445  44.454   5.193   2.824
62513W        W26446  34.112  22.018   0.729
62514W        W26447   3.449  21.143   5.301
62515W        W26448   3.341   5.395   4.617
62516W        W26449  32.955   4.743  11.413
62517W        W26450  37.878  13.161   3.844
62518W        W26451  16.603  34.023   3.733
62519W        W26452  25.160  39.399  10.422
62520W        W26453  35.047  28.521   3.774
62521W        W26454  30.478   6.196   4.762
62522W        W26455   6.841   6.367   5.215
62523W        W26456  25.570  35.941  14.861
62524W        W26457  24.680  36.910  11.075
62525W        W26458  25.618  39.518   2.215
62526W        W26459  44.377  13.722   0.264
62527W        W26460  15.802  29.103   0.897
62528W        W26461  14.728   4.914  10.522
62529W        W26462  32.409  36.935  14.371
62530W        W26463   9.284  19.249   0.272
62531W        W26464  17.747  24.715   3.762
62532W        W26465  26.574   2.349  14.964
62533W        W26466  17.131  39.843  12.004
62534W        W26467  42.821   6.740  13.454
62535W        W26468   7.730  17.138  14.772
62536W        W26469  39.006  16.273   0.478
62537W        W26470  18.134   2.265  12.915
62538W        W26471  17.282  22.122   0.367
62539W        W26472  14.752  40.947   2.371
62540W        W26473   1.912  28.963  12.376
62541W        W26474  16.083  25.019   0.336
62542W        W26475  25.629  37.566  13.474
62543W        W26476  31.902  11.823   4.145
62544W        W26477  25.583   2.835  10.899
62545W        W26478  30.571  20.230  13.043
62546W        W26479  35.446   6.383   1.261
62547W        W26480   1.321  21.755  13.415
62548W        W26481   7.691  44.866   1.445
62549W        W26482  12.288  23.128  14.009
62550W        W26483  25.543   7.682  11.426
62551W        W26484  14.140   9.172  10.492
62552W        W26485  29.424  39.888   1.752
62553W        W26486  19.217  21.718  11.545
62554W        W26487  24.512  15.199  11.923
62555W        W26488  25.033  32.550   0.766
62556W        W26489  14.649   4.922  11.539
62557W        W26490  26.968   6.306  12.824
62558W        W26491   5.254  32.521  13.959
62559W        W26492  33.433   0.399   1.268
62560W        W26493  18.139   3.767   2.183
62561W        W26494   6.413  42.939   4.349
62562W        W26495  29.492  10.750   0.297
62563W        W26496   0.350  25.504   4.672
62564W        W26497  24.090  29.504   4.719
62565W        W26498  15.298  31.951   0.318
62566W        W26499  22.137  34.864   2.219
62567W        W26500  13.799  18.694  11.903
62568W        W26501  22.629  29.056   4.133
62569W        W26502  36.954  13.162  13.854
62570W        W26503  40.994   5.842   3.289
62571W        W26504  33.543   7.723  13.397
62572W        W26505  40.904   3.937   3.653
62573W        W26506   0.865  13.798   4.662
62574W        W26507  42.811   6.341  14.031
62575W        W26508  36.975  21.516   4.351
62576W        W26509  21.051  15.735   4.713
62577W        W26510   0.979   1.899  13.929
62578W        W26511  16.737  33.038  11.856
62579W        W26512  21.605  38.887  13.997
62580W        W26513  28.471  36.995   0.826
62581W        W26514   7.843   5.846   2.284
62582W        W26515   6.408  21.231   4.654
62583W        W26516  37.524  20.140  11.562
62584W        W26517  29.451  36.058  13.381
62585W        W26518  22.213  15.714  11.537
62586W        W26519   0.822  36.485   4.329
62587W        W26520  24.180  40.993  13.027
62588W        W26521  23.578   4.388  13.371
62589W        W26522  14.335   5.399   5.300
62590W        W26523  11.761   4.448  11.593
62591W        W26524  25.554  32.425  14.513
62592W        W26525  32.490   2.861  14.031
62593W        W26526  37.547  32.112   1.363
62594W        W26527  14.219  25.689   4.705
62595W        W26528   8.405   0.910  13.990
62596W        W26529  40.408  25.692   2.328
62597W        W26530  22.519  26.518   2.693
62598W        W26531  18.172  42.328  14.478
62599W        W26532  28.079  37.338   0.276
62600W        W26533  26.514   0.910   0.816
62601W        W26534  29.467  20.060   3.757
62602W        W26535  15.205  26.004   0.887
62603W        W26536   2.844  36.550   4.764
62604W        W26537  39.958   0.302  11.446
62605W        W26538  34.461   7.346  10.445
62606W        W26539  44.899  34.444   4.180
62607W        W26540  17.732  42.335   0.918
62608W        W26541  44.941  10.252  14.839
62609W        W26542  18.634  10.302   5.171
62610W        W26543  44.837   6.794   3.302
62611W        W26544  19.747  30.147   2.233
62612W        W26545  28.053  30.447  10.554
62613W        W26546   0.805  10.310   1.731
62614W        W26547   7.859   2.878   1.397
62615W        W26548  36.397  21.179   2.849
62616W        W26549   1.380  34.531   4.777
62617W        W26550  42.936  27.057   1.353
62618W        W26551  24.129  22.055  13.338
62619W        W26552  38.028  12.658  10.933
62620W        W26553   9.299  24.144  13.836
62621W        W26554  32.468  24.713  10.973
62622W        W26555  40.342  16.190  13.539
62623W        W26556  13.768  25.105   3.833
62624W        W26557   7.855  13.130  14.995
62625W        W26558  41.033  38.350   4.749
62626W        W26559   4.785  40.833   0.898
62627W        W26560  18.725  33.016   0.857
62628W        W26561  35.944  34.886  11.492
62629W        W26562  33.472  27.509  10.464
62630W        W26563  33.394  34.943  11.114
62631W        W26564   3.855  32.028   0.401
62632W        W26565  38.947  35.395  11.118
62633W        W26566  43.953  43.427   2.811
62634W        W26567  29.980  13.194   3.162
62635W        W26568  14.178  44.834  12.382
62636W        W26569   9.833  10.830  13.027
62637W        W26570  12.839  38.426  14.907
62638W        W26571  27.043  29.972   2.879
62639W        W26572  18.274  11.856  10.548
62640W        W26573   3.795  19.738   4.610
62641W        W26574   7.224   4.904  14.950
62642W        W26575   8.761  15.604  11.417
62643W        W26576  26.589  11.647   1.370
62644W        W26577  40.370  42.437   3.341
62645W        W26578   6.800  25.061  11.492
62646W        W26579  44.986   2.877  11.591
62647W        W26580  18.605  14.327  12.055
62648W        W26581  38.351   3.347  13.913
62649W        W26582  37.831   8.315   0.806
62650W        W26583  23.579   8.255   2.348
62651W        W26584  36.451  43.928   0.730
62652W        W26585   8.837   6.819   1.713
62653W        W26586  19.039  41.996   3.245
62654W        W26587  37.954   7.297   3.262
62655W        W26588   6.789   8.208  13.356
62656W        W26589   2.799  31.592   1.762
62657W        W26590   5.208  38.549  14.837
62658W        W26591   2.425   3.888  12.911
62659W        W26592  19.561  36.946  14.460
62660W        W26593  24.647   1.334   2.670
62661W        W26594  38.370  20.720   3.785
62662W        W26595   2.935  16.229   3.261
62663W        W26596   2.387  39.508  12.460
62664W        W26597  35.980  17.111   0.936
62665W        W26598  15.091   7.360   0.853
62666W        W26599   1.392  31.452  11.893
62667W        W26600   2.306  36.962  12.037
62668W        W26601  23.058  37.448   1.929
62669W        W26602  27.600  37.375  14.295
62670W        W26603  43.445  29.078  13.879
62671W        W26604   2.780   8.858  14.903
62672W        W26605   6.331  16.277   4.621
62673W        W26606  28.970  14.140   5.117
62674W        W26607  37.017  27.063   2.304
62675W        W26608  26.578  14.233  10.499
62676W        W26609  14.338   0.386  12.917
62677W        W26610  21.514  17.567   4.274
62678W        W26611   7.810  15.293   4.162
62679W        W26612  22.746  35.014  13.983
62680W        W26613  33.585  16.143  11.892
62681W        W26614   7.707  27.598   2.891
62682W        W26615  35.517  40.496   4.132
62683W        W26616  14.677  43.480  13.054
62684W        W26617  23.201  35.505   2.414
62685W        W26618  40.802  16.204  11.477
62686W        W26619  22.525  40.429  12.927
62687W        W26620  10.319  17.683  11.950
62688W        W26621   3.366  22.601   0.952
62689W        W26622  16.175  28.952   4.648
62690W        W26623  40.380   4.911  10.406
62691W        W26624  37.549   6.871   4.610
62692W        W26625  40.921  36.904  11.031
62693W        W26626  13.630  42.981  13.360
62694W        W26627   3.765  15.209  14.434
62695W        W26628  44.998  25.597   1.812
62696W        W26629  25.592  29.941   3.234
62697W        W26630  44.323  44.308   4.823
62698W        W26631  35.082  34.475  14.801
62699W        W26632   2.800  17.135   4.321
62700W        W26633  44.463  40.417   4.710
62701W        W26634  11.692  26.548  10.118
62702W        W26635   3.410  36.969   1.775
62703W        W26636  19.220  20.589  11.894
62704W        W26637  18.175   1.926  11.571
62705W        W26638  18.096  41.455   5.775
62706W        W26639  26.079   2.725  12.826
62707W        W26640  16.088  41.808  13.365
62708W        W26641  16.620  23.111   4.661
62709W        W26642  35.530  30.922   3.805
62710W        W26643  36.949  38.070  14.013
62711W        W26644  33.585   3.917  12.942
62712W        W26645  41.424  36.404   5.291
62713W        W26646  19.048  23.523  11.541
62714W        W26647  36.406   1.426   2.277
62715W        W26648  13.709  35.881   2.760
62716W        W26649  36.401  11.821   2.273
62717W        W26650  28.048   8.721  10.078
62718W        W26651  39.053  17.727   2.362
62719W        W26652  28.029  36.347  12.917
62720W        W26653  20.611  13.326   3.767
62721W        W26654  18.172  20.642  13.053
62722W        W26655  43.330  14.204  12.435
62723W        W26656  26.686  12.720  14.415
62724W        W26657   9.661  28.471   2.735
62725W        W26658   2.371  31.507  12.852
62726W        W26659  40.801  27.574   3.643
62727W        W26660  26.123  23.142   1.900
62728W        W26661   7.846   7.260   2.360
62729W        W26662  44.853  38.879  10.462
62730W        W26663  16.161   4.411  13.876
62731W        W26664  25.149   5.865  11.394
62732W        W26665   7.204  12.189  11.511
62733W        W26666  34.036   9.192  13.514
62734W        W26667   6.816  42.413   2.206
62735W        W26668   5.871  44.992   3.351
62736W        W26669  17.221  35.452   0.438
62737W        W26670  17.131  28.497  12.520
62738W        W26671  29.593  23.080  11.922
62739W        W26672   8.353  26.585   2.212
62740W        W26673  21.238  18.082   3.205
62741W        W26674  17.231  11.827  14.014
62742W        W26675  21.098   2.406  10.405
62743W        W26676   1.348   9.343   1.721
62744W        W26677  29.071   2.937   3.817
62745W        W26678  41.525  23.090  12.918
62746W        W26679  14.600  11.135   3.155
62747W        W26680  32.550  15.741  14.372
62748W        W26681  39.005  34.117   0.404
62749W        W26682  23.150  13.142   3.709
62750W        W26683  41.032  32.561   0.775
62751W        W26684  12.303  23.008  12.536
62752W        W26685   3.735  16.614  11.601
62753W        W26686   5.878   1.955   0.900
62754W        W26687  39.887  25.186   2.410
62755W        W26688  31.550  41.883  10.910
62756W        W26689  39.461  29.489   2.324
62757W        W26690  26.125   3.833   3.821
62758W        W26691  42.958  13.117  11.068
62759W        W26692   4.325   1.785   4.187
62760W        W26693  36.507  26.684   4.259
62761W        W26694  36.044  21.689  14.971
62762W        W26695   4.263  20.535  14.850
62763W        W26696  41.844  43.488  11.961
62764W        W26697   0.473   7.397  12.845
62765W        W26698  34.065  30.654  12.871
62766W        W26699  40.431   3.444  12.090
62767W        W26700  44.965   9.880   1.876
62768W        W26701  29.158  10.323  14.772
62769W        W26702  33.969  42.381  12.902
62770W        W26703  17.689  27.601   4.130
62771W        W26704   5.309   6.805   2.682
62772W        W26705  33.889  11.726   2.290
62773W        W26706  28.677  31.407  11.542
62774W        W26707   7.321  19.616   0.730
62775W        W26708   0.798  15.786  14.829
62776W        W26709  10.725  19.084  12.094
62777W        W26710  40.849  26.503   2.822
62778W        W26711   9.325   3.781  14.411
62779W        W26712   2.417   0.987  11.538
62780W        W26713  42.969  24.163   0.762
62781W        W26714  23.007  11.309   0.839
62782W        W26715   6.910   2.345  11.404
62783W        W26716  16.789   9.387  10.939
62784W        W26717  27.048  32.483  11.610
62785W        W26718  12.239   4.443  10.915
62786W        W26719  32.568  25.971   2.699
62787W        W26720  24.018  15.276  10.474
62788W        W26721   7.401  37.480  13.828
62789W        W26722  28.017  10.839   2.791
62790W        W26723   1.368  10.752  12.843
62791W        W26724  38.898  15.271  13.511
62792W        W26725  23.007   7.291  10.588
62793W        W26726  20.156  31.965  12.902
62794W        W26727  30.447   2.855  11.982
62795W        W26728  19.053  30.608   2.329
62796W        W26729  32.561  43.959  13.532
62797W        W26730  14.814  40.879   1.699
62798W        W26731  38.556  23.191   1.875
62799W        W26732  27.022   5.275   1.749
62800W        W26733   3.385  27.183  13.526
62801W        W26734  27.050   5.812   4.653
62802W        W26735  27.965  14.649   2.836
62803W        W26736  15.695  24.579   4.155
62804W        W26737  44.427   5.699  13.346
62805W        W26738  24.108   8.226  12.362
62806W        W26739   0.952  40.439   4.185
62807W        W26740  31.033  24.660   2.735
62808W        W26741  10.197   8.365  11.374
62809W        W26742  15.771  14.245  11.438
62810W        W26743  40.879  34.388  13.997
62811W        W26744   7.836   4.767   0.959
62812W        W26745   1.977  34.955  14.845
62813W        W26746   4.871  27.135  12.394
62814W        W26747  39.331  17.762   3.283
62815W        W26748  10.142  23.499   2.368
62816W        W26749  20.121  37.497  14.427
62817W        W26750  36.593   6.410   1.909
62818W        W26751  33.922  33.941  13.044
62819W        W26752   0.878  24.493  12.346
62820W        W26753  29.497  32.020  14.772
62821W        W26754  43.419  43.403  14.349
62822W        W26755  25.623  36.391  11.504
62823W        W26756  37.008  42.848  12.994
62824W        W26757  27.963  39.875  13.875
62825W        W26758  27.687  15.310   2.824
62826W        W26759   7.287   7.408  10.415
62827W        W26760  30.612  44.951   2.229
62828W        W26761   4.830  31.538   3.686
62829W        W26762  11.374  35.579   3.755
62830W        W26763  37.454  14.820   0.852
62831W        W26764  17.615  10.640   3.262
62832W        W26765   7.196   4.207  12.455
62833W        W26766  14.255   4.924   3.650
62834W        W26767   8.880   9.162   0.275
62835W        W26768   0.939  34.569  14.427
62836W        W26769   9.162   4.260  11.481
62837W        W26770  13.608  40.039  10.584
62838W        W26771  30.162  41.786  13.885
62839W        W26772  39.445  24.704   4.657
62840W        W26773  31.122  42.911  11.082
62841W        W26774  27.627   9.158  10.938
62842W        W26775  22.741  42.386   1.295
62843W        W26776  22.582  26.664   3.204
62844W        W26777  35.053  18.768   3.814
62845W        W26778  38.014  16.262  14.397
62846W        W26779  44.814  38.525  12.996
62847W        W26780  23.191  19.751   4.274
62848W        W26781  41.481  16.161   3.860
62849W        W26782  35.495  24.129  13.491
62850W        W26783   9.791   2.392  11.983
62851W        W26784  28.449  29.993   0.952
62852W        W26785   9.367  31.475   4.199
62853W        W26786  29.017  22.117   1.212
62854W        W26787  30.494  16.642   0.864
62855W        W26788  44.837  37.485   4.650
62856W        W26789  44.331   5.252   4.628
62857W        W26790  23.070  40.309  13.824
62858W        W26791  25.528  42.968   0.941
62859W        W26792  39.393   4.892   3.776
62860W        W26793  14.198  43.383  14.447
62861W        W26794  36.903  10.287   3.743
62862W        W26795  17.209  33.413   0.360
62863W        W26796  25.576  32.582   3.156
62864W        W26797  24.503   9.718   3.208
62865W        W26798  18.193  44.364  11.499
62866W        W26799   6.365   1.352   3.786
62867W        W26800  16.638   4.428   3.168
62868W        W26801   9.327  32.492  14.011
62869W        W26802  27.961  11.238   0.913
62870W        W26803   0.763  24.517  13.800
62871W        W26804  25.143  21.537  11.430
62872W        W26805   4.724  17.295  14.820
62873W        W26806   3.445  11.670   1.270
62874W        W26807   1.403  32.606  12.492
62875W        W26808  36.473   6.272  12.551
62876W        W26809   6.859  16.775   4.619
62877W        W26810  41.907  10.747   2.837
62878W        W26811  14.717  31.545   0.475
62879W        W26812  12.138  32.949  10.982
62880W        W26813  35.554  31.029   4.744
62881W        W26814  44.500  31.120  11.504
62882W        W26815  21.643  25.582  13.332
62883W        W26816  15.596  26.541   0.769
62884W        W26817  12.244  17.223  11.444
62885W        W26818  34.947  15.610   2.217
62886W        W26819  15.718  19.670  12.982
62887W        W26820  44.753  11.151   3.698
62888W        W26821   0.392  15.202   1.808
62889W        W26822  31.921   4.419   2.731
62890W        W26823  44.988  21.202  12.471
62891W        W26824   0.885  37.866  13.886
62892W        W26825  43.923   3.300   0.375
62893W        W26826  30.939   8.283  14.814
62894W        W26827  36.523  32.013  12.027
62895W        W26828  33.584   4.781   4.334
62896W        W26829   9.687  24.026  11.515
62897W        W26830  33.924   6.427  10.937
62898W        W26831   1.316  21.030   0.399
62899W        W26832  16.170  35.106  10.437
62900W        W26833  43.993  13.731  14.371
62901W        W26834  32.887   3.340   1.391
62902W        W26835  33.617  20.524   3.668
62903W        W26836   9.196  32.482  14.320
62904W        W26837  28.966   5.416  12.907
62905W        W26838  31.052  22.138   4.728
62906W        W26839  19.273  37.543  11.044
62907W        W26840  42.404  24.535   3.367
62908W        W26841  15.177  23.496   1.763
62909W        W26842  32.050   3.311  14.863
62910W        W26843  16.604  19.144   2.282
62911W        W26844   7.667   8.163   3.233
62912W        W26845  14.303  18.220   4.794
62913W        W26846  42.794  17.671   0.859
62914W        W26847  11.247  35.520   0.405
62915W        W26848  27.510  42.481  14.351
62916W        W26849  44.423   2.740  14.435
62917W        W26850  44.386  26.499   2.893
62918W        W26851  37.459   1.369   4.150
62919W        W26852  15.273  18.672   4.120
62920W        W26853  39.432  20.035  13.823
62921W        W26854   4.865   5.296   3.374
62922W        W26855  15.202  36.404   0.251
62923W        W26856  21.594   0.349   1.428
62924W        W26857  23.575  42.987  13.502
62925W        W26858   9.799  29.044  11.415
62926W        W26859  27.067  21.094  10.072
62927W        W26860  32.612  17.192  12.917
62928W        W26861  38.564  35.976   4.122
62929W        W26862  21.724  31.404  12.000
62930W        W26863  33.026   7.297   0.818
62931W        W26864  36.073   6.841  12.449
62932W        W26865  19.723   4.309   2.372
62933W        W26866  20.170   7.845   1.441
62934W        W26867   1.265  40.821   1.305
62935W        W26868   2.384  22.111   0.360
62936W        W26869  20.188  28.643  13.063
62937W        W26870  39.836  41.971   3.682
62938W        W26871  13.294  29.943  12.347
62939W        W26872   7.855  14.156   5.192
62940W        W26873  28.156  39.821  14.309
62941W        W26874   7.293  42.023   2.770
62942W        W26875  26.566  42.465   3.155
62943W        W26876  22.621  22.567   5.184
62944W        W26877  10.652   3.241   2.750
62945W        W26878   9.235   7.322  14.843
62946W        W26879  29.669  13.685  11.092
62947W        W26880  28.487  14.220   4.235
62948W        W26881   2.813  21.738   0.776
62949W        W26882  20.584  31.049   4.216
62950W        W26883  21.258  36.087   2.225
62951W        W26884   4.829  22.202  11.513
62952W        W26885   7.682  19.714  11.990
62953W        W26886  44.770  32.101   1.340
62954W        W26887  42.488  35.415   9.573
62955W        W26888  16.786  19.133  10.595
62956W        W26889  11.777   1.935  12.514
62957W        W26890  34.936  13.818   0.460
62958W        W26891  28.536  39.913  11.124
62959W        W26892   4.243  25.647   4.285
62960W        W26893  15.179  35.393   4.145
62961W        W26894  36.930   1.246   4.614
62962W        W26895  20.700  29.638  13.989
62963W        W26896   2.802  25.532   3.226
62964W        W26897  12.840  26.106  13.324
62965W        W26898   0.357  21.169  10.930
62966W        W26899  12.766  34.518  12.533
62967W        W26900  40.489  33.051   4.129
62968W        W26901  42.797  26.160   4.256
62969W        W26902  33.577   3.342  10.575
62970W        W26903  29.155  42.321   2.857
62971W        W26904  35.441  10.658  11.063
62972W        W26905  21.208  25.097   4.121
62973W        W26906  28.604  44.953   4.297
62974W        W26907  36.864  36.482  11.411
62975W        W26908  20.605  43.357  13.931
62976W        W26909  10.713  44.864  10.938
62977W        W26910  39.932  28.158   1.727
62978W        W26911  29.506  32.081   0.862
62979W        W26912  38.347   7.876   0.273
62980W        W26913  18.639  13.633   0.354
62981W        W26914  26.665  35.379  12.487
62982W        W26915  32.910  23.536   1.416
62983W        W26916  34.032  12.855  14.280
62984W        W26917  37.430   0.844  11.101
62985W        W26918  21.242  28.581   3.187
62986W        W26919  15.624   3.898  14.463
62987W        W26920   8.815  29.601   5.217
62988W        W26921   9.200   4.794  10.897
62989W        W26922  28.121  36.371   3.285
62990W        W26923  15.297  17.224   5.729
62991W        W26924  10.648  26.119  13.424
62992W        W26925  35.894  36.500   1.731
62993W        W26926  37.462   1.274   3.783
62994W        W26927   6.280  14.629   5.091
62995W        W26928  14.318  41.034   3.256
62996W        W26929  27.077  38.899  11.509
62997W        W26930  15.620  44.884   4.302
62998W        W26931  32.941  19.076   0.306
62999W        W26932  22.541  42.512   0.306
63000W        W26933  31.948  33.465   4.245
63001W        W26934  17.693   1.765  12.845
63002W        W26935  14.617  15.687   4.656
63003W        W26936  34.932   1.773  14.458
63004W        W26937  32.539   0.817   0.307
63005W        W26938  19.134  13.743  10.541
63006W        W26939  41.887  14.261   4.736
63007W        W26940   7.267  15.719  11.993
63008W        W26941  32.993  42.301   1.346
63009W        W26942  21.519  19.668   0.404
63010W        W26943  43.000  23.627  14.906
63011W        W26944  16.620   2.825   1.230
63012W        W26945  14.622  20.235  12.073
63013W        W26946  30.612   2.967  12.995
63014W        W26947  23.537   9.191   2.710
63015W        W26948   8.398  19.583  12.560
63016W        W26949   8.859  41.993   1.859
63017W        W26950  31.986  43.975   0.475
63018W        W26951  21.061  28.996   1.836
63019W        W26952  10.186  34.078   2.369
63020W        W26953  12.765  29.040   4.201
63021W        W26954   8.194   2.785   2.229
63022W        W26955  30.457  15.139   0.927
63023W        W26956  27.061  22.563   4.650
63024W        W26957  35.363  19.711  14.486
63025W        W26958  12.686  22.121   2.182
63026W        W26959  35.367  16.676   1.287
63027W        W26960  37.401  15.326  10.498
63028W        W26961   6.811   0.892  13.939
63029W        W26962  29.431  13.261  11.557
63030W        W26963  30.559  43.895   4.239
63031W        W26964  10.206  36.943  11.560
63032W        W26965  18.084  41.848   2.402
63033W        W26966  31.045  30.039  11.872
63034W        W26967  35.082  29.648   4.810
63035W        W26968  12.358  33.952   1.796
63036W        W26969  37.942   7.688  14.018
63037W        W26970   8.178  43.980  13.058
63038W        W26971   3.259  27.042  13.964
63039W        W26972  24.558  31.467   2.859
63040W        W26973  24.624  42.916   3.334
63041W        W26974   3.766  39.971  11.040
63042W        W26975   1.796  23.177   0.928
63043W        W26976  36.919  22.244   2.348
63044W        W26977  29.061  19.113  12.079
63045W        W26978  18.731  11.364  12.960
63046W        W26979  22.619  17.209  11.052
63047W        W26980  27.095   0.482  14.394
63048W        W26981  19.192  35.430  13.837
63049W        W26982   2.887   2.373   4.757
63050W        W26983  37.507  33.919  14.356
63051W        W26984   0.851  22.174   1.345
63052W        W26985   6.212  29.074  14.499
63053W        W26986   7.222  26.206   2.840
63054W        W26987  13.766  40.509   4.780
63055W        W26988  33.501   4.787   5.318
63056W        W26989  38.531   9.361   2.889
63057W        W26990  35.957  25.579   3.820
63058W        W26991   7.746   2.814  10.408
63059W        W26992   5.794  36.063   0.837
63060W        W26993   8.853  42.295  13.917
63061W        W26994   8.682  10.259  12.505
63062W        W26995  43.790  24.200   2.892
63063W        W26996   0.922  11.318   3.638
63064W        W26997   8.270   8.365  11.984
63065W        W26998  17.627  16.790   1.791
63066W        W26999   3.920  43.903   4.206
63067W        W27000  42.892   4.431   3.700
63068W        W27001  17.267  10.802   0.868
63069W        W27002  34.583   6.384   2.322
63070W        W27003  22.072  40.826  13.888
63071W        W27004  13.714  25.220   4.336
63072W        W27005  30.113  13.280   0.467
63073W        W27006  29.168   7.701  13.447
63074W        W27007  14.758  38.884  10.148
63075W        W27008   1.808  33.584  13.330
63076W        W27009  43.487  12.173   1.904
63077W        W27010   6.921  21.613   3.711
63078W        W27011  25.608  37.572   2.371
63079W        W27012  17.628  17.177  11.871
63080W        W27013  31.111   4.438   4.331
63081W        W27014   3.812  43.299   1.797
63082W        W27015   8.743   1.332  13.539
63083W        W27016   2.871  26.650   4.648
63084W        W27017  42.304  35.076   3.682
63085W        W27018  43.802  42.993   3.688
63086W        W27019  27.153  11.231   2.277
63087W        W27020   2.733  18.672  10.492
63088W        W27021   2.825  42.025   1.833
63089W        W27022  10.166  44.282   3.788
63090W        W27023  19.158  24.075  13.492
63091W        W27024  26.001   8.795  14.875
63092W        W27025  35.580   6.876  10.939
63093W        W27026  28.547  17.210  14.939
63094W        W27027  41.891   5.914  13.988
63095W        W27028  20.124  35.963  12.540
63096W        W27029   1.947  39.468   2.710
63097W        W27030  17.275   3.301  13.979
63098W        W27031   5.751  17.746  12.399
63099W        W27032   0.295  14.138   4.799
63100W        W27033  21.618  38.515   2.236
63101W        W27034  44.484   3.913  14.900
63102W        W27035  36.397  38.512   1.745
63103W        W27036  37.435   7.777   4.122
63104W        W27037  17.763   7.259  14.876
63105W        W27038   9.777  16.712  14.826
63106W        W27039  15.756  25.023   1.799
63107W        W27040   3.313  19.696   1.732
63108W        W27041   9.247  18.567  11.021
63109W        W27042  16.641  21.043  12.058
63110W        W27043  40.001  33.472  11.515
63111W        W27044  26.541  39.535  10.497
63112W        W27045  32.114  33.071   1.850
63113W        W27046  42.445  27.128  13.494
63114W        W27047  25.200  11.308  11.576
63115W        W27048  12.211  21.112  13.955
63116W        W27049  23.735  26.625  10.643
63117W        W27050   5.829  10.839   2.767
63118W        W27051  25.196   3.910   3.331
63119W        W27052  34.960  18.714  12.013
63120W        W27053   2.472   8.272  10.560
63121W        W27054  14.244  27.588  12.049
63122W        W27055  20.036  39.884  10.625
63123W        W27056   8.817  10.665   3.220
63124W        W27057  36.970  14.790   2.281
63125W        W27058  42.527   7.764   0.858
63126W        W27059  44.879  28.643  14.009
63127W        W27060  13.249  16.626  12.477
63128W        W27061  16.794  32.412  11.862
63129W        W27062  25.569  23.592   3.265
63130W        W27063  18.280   3.834   1.450
63131W        W27064  44.999  19.056  14.766
63132W        W27065  20.626  19.203   0.288
63133W        W27066   2.270  24.076   4.309
63134W        W27067  32.112  10.322  11.860
63135W        W27068   7.872   9.165   0.327
63136W        W27069  29.523   6.800  12.426
63137W        W27070   7.290   5.824   2.899
63138W        W27071   7.775  20.746  13.411
63139W        W27072  44.457   1.286  11.978
63140W        W27073  36.416   8.852   4.233
63141W        W27074  15.652  42.329   0.254
63142W        W27075  39.969  37.412   1.872
63143W        W27076  43.379  29.469   4.769
63144W        W27077  42.898  44.776   3.747
63145W        W27078  31.989  19.762   1.843
63146W        W27079  16.760  10.303   9.978
63147W        W27080  44.444   6.376  11.118
63148W        W27081  35.531  12.355   0.821
63149W        W27082   3.911  44.983  11.596
63150W        W27083  38.371  14.338   3.748
63151W        W27084   4.761  31.023   3.646
63152W        W27085  13.704   3.288  11.900
63153W        W27086  20.063  13.134   5.173
63154W        W27087  25.070  17.657   1.363
63155W        W27088  33.128  13.623  10.637
63156W        W27089  41.360  23.194  13.826
63157W        W27090  10.318  42.356   0.278
63158W        W27091   8.193  32.553  14.821
63159W        W27092  42.783  29.518   5.177
63160W        W27093  26.703  39.358   4.667
63161W        W27094  19.614  28.089   3.230
63162W        W27095  33.088   9.195   3.222
63163W        W27096  13.163  25.564   0.885
63164W        W27097  33.985  29.989  11.946
63165W        W27098  26.109  40.812   2.787
63166W        W27099  42.391  32.540  12.383
63167W        W27100  28.465  39.023   4.229
63168W        W27101  24.067   0.977  11.120
63169W        W27102  13.632  26.102   0.946
63170W        W27103  10.742  10.172   2.194
63171W        W27104  14.670  41.856   1.852
63172W        W27105  13.111  28.521  13.005
63173W        W27106  27.133  40.306   4.671
63174W        W27107  40.014  22.601  11.487
63175W        W27108  19.219   0.978  14.770
63176W        W27109  11.627   9.349  12.401
63177W        W27110  26.956  21.751  13.412
63178W        W27111  42.903  23.553  11.019
63179W        W27112  40.401  33.409   4.808
63180W        W27113  30.108   7.203  13.488
63181W        W27114  21.732  14.228  13.867
63182W        W27115   4.770   9.742  11.014
63183W        W27116  34.013  14.696  10.513
63184W        W27117  36.981   3.237   2.350
63185W        W27118  28.992  23.524  11.868
63186W        W27119  41.959  26.689  11.904
63187W        W27120   3.882  32.977   0.801
63188W        W27121  14.340  30.077   0.847
63189W        W27122   0.839  27.610  11.855
63190W        W27123  42.950  20.250   4.270
63191W        W27124  26.140  40.975  10.500
63192W        W27125  44.966  38.370   4.314
63193W        W27126  27.019   8.255   2.233
63194W        W27127   9.710   9.313   1.747
63195W        W27128  38.519  14.282  11.550
63196W        W27129  11.647  41.405   4.813
63197W        W27130  25.009  39.985  11.577
63198W        W27131  34.032  23.074  11.060
63199W        W27132  15.121   9.882  12.091
63200W        W27133  44.010   5.319  10.900
63201W        W27134  30.162  40.049   1.323
63202W        W27135  40.342  12.663  11.974
63203W        W27136  14.589  34.016   3.354
63204W        W27137   9.849  16.095  12.995
63205W        W27138  22.638   5.795  14.282
63206W        W27139  32.602  12.681   5.266
63207W        W27140  31.132  21.634  13.013
63208W        W27141  29.571   1.843   2.180
63209W        W27142  13.841   6.786   0.435
63210W        W27143  25.074   4.789   1.440
63211W        W27144  27.474  27.001  11.445
63212W        W27145  14.766  17.565  13.061
63213W        W27146   6.878  37.474   1.333
63214W        W27147  16.788  10.184  12.369
63215W        W27148  26.049  22.164   0.787
63216W        W27149  13.813  23.671  10.918
63217W        W27150   8.794   2.826   0.471
63218W        W27151  37.476  35.074  12.529
63219W        W27152  21.195  16.258  11.456
63220W        W27153  19.588  35.988  10.427
63221W        W27154  44.819  22.197   0.907
63222W        W27155  40.446  24.584   1.821
63223W        W27156   4.813  31.133   4.196
63224W        W27157  17.174   2.770  13.004
63225W        W27158  16.752  18.573   0.397
63226W        W27159   9.207  25.066  11.517
63227W        W27160  15.106  39.970   4.708
63228W        W27161  43.777   3.277  12.395
63229W        W27162  12.205  35.471  14.847
63230W        W27163   5.279  25.472   0.779
63231W        W27164  22.202  31.418   2.356
63232W        W27165   8.347  30.080   0.785
63233W        W27166  40.442   1.248   2.804
63234W        W27167  40.967   8.811  11.531
63235W        W27168  25.677  21.060  12.544
63236W        W27169  36.563  11.173  13.507
63237W        W27170  29.012   9.360  13.028
63238W        W27171  21.737  14.614   1.314
63239W        W27172  35.562  30.159   1.780
63240W        W27173  32.131   7.751  10.505
63241W        W27174   1.381  25.967  10.567
63242W        W27175  37.495  31.642  10.624
63243W        W27176   2.259  16.698  12.523
63244W        W27177  33.918  12.712  11.443
63245W        W27178  42.509  44.433   0.270
63246W        W27179   3.814  42.918  12.873
63247W        W27180  16.148  43.910   2.391
63248W        W27181  12.818   9.272  12.053
63249W        W27182  31.927  18.207  13.922
63250W        W27183  34.996   9.687   4.133
63251W        W27184  42.776  30.028  11.384
63252W        W27185  41.512  31.526  14.888
63253W        W27186  35.545  29.555   3.828
63254W        W27187  23.156  32.009   1.919
63255W        W27188  13.820  20.638   4.796
63256W        W27189   3.433  14.271  11.561
63257W        W27190  38.862  38.438   0.845
63258W        W27191  34.573  39.465  13.897
63259W        W27192   9.757  40.470   2.887
63260W        W27193  22.695  41.915  12.880
63261W        W27194  40.485  12.227  12.832
63262W        W27195   5.325  28.632   1.808
63263W        W27196  19.632   6.898  13.521
63264W        W27197   8.688  12.739   2.789
63265W        W27198  17.242  19.254  10.641
63266W        W27199  28.000  33.554   4.136
63267W        W27200  33.520  39.816   1.774
63268W        W27201   7.263  16.276  14.876
63269W        W27202  25.167  21.544  13.809
63270W        W27203  26.499  13.614  14.343
63271W        W27204  15.613  32.965   2.858
63272W        W27205   7.260  11.669  12.836
63273W        W27206  10.726  21.236  13.813
63274W        W27207  33.607   2.337   1.357
63275W        W27208   8.166  34.476   3.269
63276W        W27209  19.113  28.157  11.126
63277W        W27210  27.451  16.633  14.894
63278W        W27211  21.753  39.974  13.028
63279W        W27212  22.734   5.806  12.515
63280W        W27213  18.272  36.938   1.751
63281W        W27214  26.696  24.230   4.120
63282W        W27215  22.721  14.690   4.689
63283W        W27216   7.885   6.287  10.130
63284W        W27217  16.619  43.281   1.214
63285W        W27218   1.772  18.260   3.153
63286W        W27219  42.812  30.440  10.915
63287W        W27220   6.737  31.409  12.960
63288W        W27221   1.303   0.390  12.868
63289W        W27222  38.390  29.526  10.591
63290W        W27223   4.941  19.116  11.549
63291W        W27224  13.273  40.327   1.321
63292W        W27225  28.034   8.852   2.864
63293W        W27226   6.910  42.464   0.297
63294W        W27227   8.318  25.168  13.848
63295W        W27228  39.370  22.557   0.285
63296W        W27229  31.991  19.697   3.337
63297W        W27230  31.141  16.118   2.898
63298W        W27231   8.698   9.884  12.872
63299W        W27232  14.764  30.585  10.014
63300W        W27233  14.194   4.796   2.879
63301W        W27234   9.873  35.887  12.013
63302W        W27235   6.772  14.659  14.427
63303W        W27236   0.332  43.840  14.778
63304W        W27237   3.887  30.991   3.771
63305W        W27238  42.970  39.478   3.860
63306W        W27239   7.822  18.190  11.387
63307W        W27240  23.525  23.655  10.438
63308W        W27241   7.221   1.422   2.184
63309W        W27242  18.225   4.777  11.452
63310W        W27243  37.485  39.506   1.775
63311W        W27244  17.220   3.887   2.235
63312W        W27245  14.800  26.480  10.521
63313W        W27246  15.615   9.342  10.969
63314W        W27247  38.372  16.811  12.002
63315W        W27248  25.149   3.797   0.727
63316W        W27249  13.161  21.186  14.925
63317W        W27250  28.080  42.888   2.862
63318W        W27251  43.368  16.276   2.255
63319W        W27252   9.269  22.187   4.262
63320W        W27253  17.289  40.008   5.104
63321W        W27254   0.814   7.322  13.438
63322W        W27255   8.247  34.488  14.507
63323W        W27256   3.791  22.171  12.458
63324W        W27257  39.008  25.026   4.718
63325W        W27258  16.623  29.010   1.386
63326W        W27259  34.890  36.085   0.255
63327W        W27260  29.956  13.625  12.558
63328W        W27261   3.275   5.842  11.502
63329W        W27262  21.571  10.731  10.404
63330W        W27263   7.336  41.926   0.248
63331W        W27264  12.697  27.017   0.814
63332W        W27265   0.884   2.253  12.951
63333W        W27266  28.669   7.369   0.935
63334W        W27267  40.359   2.748   2.871
63335W        W27268  24.639  11.325  14.791
63336W        W27269   9.210   4.806   5.204
63337W        W27270  29.108  30.497   0.907
63338W        W27271  19.120   3.851  12.399
63339W        W27272  42.852  43.847  12.352
63340W        W27273   0.481  29.475   3.255
63341W        W27274  44.855   5.361   2.885
63342W        W27275  17.697  28.052  14.395
63343W        W27276  26.673  31.896   1.741
63344W        W27277  25.173   3.358   3.211
63345W        W27278  20.042  37.472  13.811
63346W        W27279  27.613  42.444  11.508
63347W        W27280  21.567  36.027   2.785
63348W        W27281   9.820  21.072   1.921
63349W        W27282  19.567  26.079  13.045
63350W        W27283  33.945  41.889  10.602
63351W        W27284  16.794  42.301  10.953
63352W        W27285  40.967  13.243  14.408
63353W        W27286  12.639   2.403   3.309
63354W        W27287  23.240  33.406  12.022
63355W        W27288  39.368  42.378   4.790
63356W        W27289   1.241  23.660   0.791
63357W        W27290  26.507   6.879  12.494
63358W        W27291  16.224  17.096   4.116
63359W        W27292   4.752   6.862   4.301
63360W        W27293  31.519  34.403  11.450
63361W        W27294   4.842  12.280  10.071
63362W        W27295  10.859   5.258  13.470
63363W        W27296  19.670  42.777  11.038
63364W        W27297   1.460  36.574  11.911
63365W        W27298  11.692   1.896   1.437
63366W        W27299  23.610  13.344  11.416
63367W        W27300  20.261   0.901  13.310
63368W        W27301  38.477  31.115  11.539
63369W        W27302  41.452  25.501   2.247
63370W        W27303  10.225  28.029   1.271
63371W        W27304  29.933  27.620   1.417
63372W        W27305  28.490  20.097  13.442
63373W        W27306  32.051  32.067   1.929
63374W        W27307   3.793   9.260  11.008
63375W        W27308   0.392  24.504   4.722
63376W        W27309  44.329  26.102   4.625
63377W        W27310  31.138  42.489  13.825
63378W        W27311  44.876  15.184  14.327
63379W        W27312  33.481  41.818   4.705
63380W        W27313  12.246  38.335  13.952
63381W        W27314  37.550  12.325   2.394
63382W        W27315   6.405  21.614   9.955
63383W        W27316   7.781  41.928   4.757
63384W        W27317  11.290  14.185  11.003
63385W        W27318  10.368   5.848   2.710
63386W        W27319  34.589  24.078  13.405
63387W        W27320  34.562   8.795   4.696
63388W        W27321   7.228  29.627   1.838
63389W        W27322  38.379  40.865   1.815
63390W        W27323  24.582   2.886   1.425
63391W        W27324  28.988   1.769  10.528
63392W        W27325  43.833  34.442  11.571
63393W        W27326  31.018  19.052   2.836
63394W        W27327  13.702  15.309  10.994
63395W        W27328  39.021  44.460  14.946
63396W        W27329  16.157  16.254  14.926
63397W        W27330  21.053  36.088  12.537
63398W        W27331   6.810  33.552   4.344
63399W        W27332  33.926  10.751   3.190
63400W        W27333  18.661  40.924  11.539
63401W        W27334   0.481  31.525   4.763
63402W        W27335  37.418  17.154   2.331
63403W        W27336  30.076  23.497  14.487
63404W        W27337   0.950  25.040  11.456
63405W        W27338  14.336  12.829   4.169
63406W        W27339  39.482  19.217  10.498
63407W        W27340  28.441  38.426  11.598
63408W        W27341  16.087  11.680  10.453
63409W        W27342  43.973  12.758   1.784
63410W        W27343   5.915   9.670   3.678
63411W        W27344   9.684  43.498   1.849
63412W        W27345   0.388  27.509   2.407
63413W        W27346  18.091   3.722  14.407
63414W        W27347  42.836  29.173   2.737
63415W        W27348   3.718  24.147  11.938
63416W        W27349  32.086  20.190   4.243
63417W        W27350  41.369  30.149   3.670
63418W        W27351  14.296  20.108  14.980
63419W        W27352  39.457  22.197   2.679
63420W        W27353   7.264  35.888   4.833
63421W        W27354  18.761   7.801  14.892
63422W        W27355  21.216   6.335  14.368
63423W        W27356  11.775  38.507   3.863
63424W        W27357  13.613  15.310  11.427
63425W        W27358  20.662  21.250   1.712
63426W        W27359   0.763   8.737   0.372
63427W        W27360  16.314  42.775   4.763
63428W        W27361  34.557  19.739  11.915
63429W        W27362   6.755  42.995   4.278
63430W        W27363  13.218  15.279  11.569
63431W        W27364   4.264   3.321  11.413
63432W        W27365  26.631   3.360  11.895
63433W        W27366  17.769  44.392  10.450
63434W        W27367   3.818  37.367  11.429
63435W        W27368  44.858  23.016  14.400
63436W        W27369  17.725  18.218  14.464
63437W        W27370  44.489  26.017   1.344
63438W        W27371  34.025  20.139   0.957
63439W        W27372  27.488  28.969  12.057
63440W        W27373   6.428  28.657   3.303
63441W        W27374  14.619   3.745  11.502
63442W        W27375  15.133   7.719   5.165
63443W        W27376   7.786  37.582  14.421
63444W        W27377   5.747  33.080  14.277
63445W        W27378  11.133  42.418  12.526
63446W        W27379  34.451  17.292  10.950
63447W        W27380  33.560  43.793  11.512
63448W        W27381  12.238  38.411  14.333
63449W        W27382  10.872  42.779   4.803
63450W        W27383  27.608  29.057  13.374
63451W        W27384  27.076  24.984   3.691
63452W        W27385  30.037  14.758   3.309
63453W        W27386   9.156  29.966  12.483
63454W        W27387  33.078   8.294   3.658
63455W        W27388   2.282  29.139  12.958
63456W        W27389   3.740  28.619  11.397
63457W        W27390  30.919  30.417   4.598
63458W        W27391   0.757  15.301   0.877
63459W        W27392  31.909  34.109  13.814
63460W        W27393   0.395   4.923   3.235
63461W        W27394  12.286  14.314  12.993
63462W        W27395  32.911  40.438   1.431
63463W        W27396  22.154  17.605   2.412
63464W        W27397   0.294  39.923  12.895
63465W        W27398  12.679  32.087  11.510
63466W        W27399  22.109  25.049   1.799
63467W        W27400   8.847  34.977   4.606
63468W        W27401  17.616  40.322   1.921
63469W        W27402  31.407  23.603  14.429
63470W        W27403  34.934  40.443  11.409
63471W        W27404  32.472  18.122   0.339
63472W        W27405  33.588  19.573  12.091
63473W        W27406   4.922   1.863  10.958
63474W        W27407   4.705  37.462   1.386
63475W        W27408  26.673  30.078  14.480
63476W        W27409  27.991  38.382  12.984
63477W        W27410  13.766  25.481   4.785
63478W        W27411  20.112  26.606  12.344
63479W        W27412  16.578  13.743   1.311
63480W        W27413   2.360  11.770  12.352
63481W        W27414   6.807  17.784  11.121
63482W        W27415   2.243  44.303  14.315
63483W        W27416  42.975  36.368  14.786
63484W        W27417  23.213  41.340   2.294
63485W        W27418  16.572   8.262  11.387
63486W        W27419  24.230  21.691  11.480
63487W        W27420   3.236  27.016  11.857
63488W        W27421  39.881   0.742  10.578
63489W        W27422   5.780   6.851  14.336
63490W        W27423  23.498  21.220  10.916
63491W        W27424   8.679  34.918   1.889
63492W        W27425  28.165  35.960   0.347
63493W        W27426  33.550  34.931  14.464
63494W        W27427  26.511   6.247  14.974
63495W        W27428   6.199  31.020  12.472
63496W        W27429  21.053  36.493   1.232
63497W        W27430  11.675  39.869   1.757
63498W        W27431  26.672  19.087  14.432
63499W        W27432  12.170  35.092   2.263
63500W        W27433  40.418  18.087  12.837
63501W        W27434  37.371   3.394   4.806
63502W        W27435   2.741  21.747  12.403
63503W        W27436  40.473  19.232  13.849
63504W        W27437   5.868  40.843   0.892
63505W        W27438  24.001  35.102   1.234
63506W        W27439  27.093  38.825   9.920
63507W        W27440  24.063  43.278   1.929
63508W        W27441  20.037  26.135  13.411
63509W        W27442   8.211  31.635  12.457
63510W        W27443  28.676  34.371  11.973
63511W        W27444  21.704  43.902  14.004
63512W        W27445  29.637  42.305   0.421
63513W        W27446  21.066   5.758  10.978
63514W        W27447  29.985  18.220  13.885
63515W        W27448  33.040  44.363   1.430
63516W        W27449  24.611  44.828  14.824
63517W        W27450   5.699  13.236  10.571
63518W        W27451  34.557   6.909   4.745
63519W        W27452  24.135  43.422   9.436
63520W        W27453  18.547  36.591   0.390
63521W        W27454  32.939  28.091  11.994
63522W        W27455  39.922  10.835   4.727
63523W        W27456  34.037   5.697  14.771
63524W        W27457  25.160  26.112   3.634
63525W        W27458  26.084   5.687  13.993
63526W        W27459   3.314  22.703   2.268
63527W        W27460  14.710  18.761  12.984
63528W        W27461  27.157  23.560   3.324
63529W        W27462  19.177  38.918   3.286
63530W        W27463  22.568  23.564  11.936
63531W        W27464  41.450   6.207  10.462
63532W        W27465   8.896  43.944   0.966
63533W        W27466  24.179  36.908   3.664
63534W        W27467   2.817  44.886  14.031
63535W        W27468  38.941  11.745   3.631
63536W        W27469  17.144  24.531   1.710
63537W        W27470   3.318  15.736  12.531
63538W        W27471  44.341  42.385  11.378
63539W        W27472  28.987  30.914  12.080
63540W        W27473  12.745  20.198   0.274
63541W        W27474  25.078  28.088   4.656
63542W        W27475   5.708   6.827   5.316
63543W        W27476   1.882   7.404   4.223
63544W        W27477  36.533  42.449   2.414
63545W        W27478   7.879  40.993   2.675
63546W        W27479   8.195  19.084  12.560
63547W        W27480  26.020  12.173  12.849
63548W        W27481  22.178  43.882  11.123
63549W        W27482   2.370  14.621  11.454
63550W        W27483  18.604   7.305  11.881
63551W        W27484  20.195  28.951  14.815
63552W        W27485   5.256  30.930   3.788
63553W        W27486  41.377  12.852  11.114
63554W        W27487  39.967  36.587   2.787
63555W        W27488  22.119  28.060   3.686
63556W        W27489   8.770   9.263  13.915
63557W        W27490  39.989   9.284  14.374
63558W        W27491  35.475  16.315   3.294
63559W        W27492  30.013   3.364   0.776
63560W        W27493  29.544  17.242   3.641
63561W        W27494  14.241  34.944  12.580
63562W        W27495  40.923  15.197  12.490
63563W        W27496  36.859  23.102  12.829
63564W        W27497  44.419  25.700   2.396
63565W        W27498  28.076  32.019  11.028
63566W        W27499  36.553  28.515   1.216
63567W        W27500   7.699   6.320   9.649
63568W        W27501  21.568  15.266  13.433
63569W        W27502  33.107   9.233   2.833
63570W        W27503  35.593  35.586  14.930
63571W        W27504  43.420  16.753   0.782
63572W        W27505  32.948   7.861  12.033
63573W        W27506  26.679   9.372   4.654
63574W        W27507  44.994   7.361   0.442
63575W        W27508  44.927  16.800  10.554
63576W        W27509   4.247  22.088  13.336
63577W        W27510  28.959  31.041   0.472
63578W        W27511  15.167  37.037  12.360
63579W        W27512  35.050  25.193  14.410
63580W        W27513  34.991  41.329  10.416
63581W        W27514  35.065  28.612   1.321
63582W        W27515  33.065   8.846   2.835
63583W        W27516  37.523  41.942   0.847
63584W        W27517  16.122  43.955  14.487
63585W        W27518  15.698  20.230   4.113
63586W        W27519  19.534  22.538   4.646
63587W        W27520   3.409  12.211   4.823
63588W        W27521   6.741  15.195  14.908
63589W        W27522  17.673  33.546  11.520
63590W        W27523  13.672  30.005   4.121
63591W        W27524  30.430  36.525  13.383
63592W        W27525   6.349  24.592  14.920
63593W        W27526  18.725  16.211  10.599
63594W        W27527  35.888  34.590   1.447
63595W        W27528  10.318  14.103   3.748
63596W        W27529   2.898  42.389   1.777
63597W        W27530   4.877   7.326   3.247
63598W        W27531  39.926   5.892  13.427
63599W        W27532  21.096  44.932   2.873
63600W        W27533  12.807  38.347   1.702
63601W        W27534  21.548  22.687  14.482
63602W        W27535   0.749  34.971  14.031
63603W        W27536  28.635  25.054  10.545
63604W        W27537  21.562  29.645   0.740
63605W        W27538  32.890  38.847   1.890
63606W        W27539   5.865   2.960  14.370
63607W        W27540  14.628  10.735   0.345
63608W        W27541  35.096  10.240  12.837
63609W        W27542  33.010  41.295  10.992
63610W        W27543   8.686  21.181   3.762
63611W        W27544  15.587  24.486   1.417
63612W        W27545  23.728  44.453  13.869
63613W        W27546  38.551  15.629  12.966
63614W        W27547  35.867  39.342   0.296
63615W        W27548  40.502  21.539   3.337
63616W        W27549  13.750  19.574   1.214
63617W        W27550  41.374  15.757  14.965
63618W        W27551  12.827  38.000   1.339
63619W        W27552  17.106  22.104   2.397
63620W        W27553  13.111  36.431   4.725
63621W        W27554  35.037   4.917  12.890
63622W        W27555  13.158  41.527   3.252
63623W        W27556  44.466  26.107   2.735
63624W        W27557   9.213  20.556  14.280
63625W        W27558  40.514  34.119  11.057
63626W        W27559  22.243  18.186   4.645
63627W        W27560  29.540  11.857   1.863
63628W        W27561  27.965   3.773   2.755
63629W        W27562  29.437  29.542   0.269
63630W        W27563   8.825  17.084   4.347
63631W        W27564  38.345  44.910   0.924
63632W        W27565  16.287  30.034   2.848
63633W        W27566  26.005   1.411   3.260
63634W        W27567  41.847  40.838  12.851
63635W        W27568  16.601  34.018   3.178
63636W        W27569  37.503  44.383   3.867
63637W        W27570  19.554  22.158  11.962
63638W        W27571  24.216  25.017   1.852
63639W        W27572  41.393  11.640   2.375
63640W        W27573  36.974   4.271   0.349
63641W        W27574  16.203  38.522   2.692
63642W        W27575   4.375  28.930   2.692
63643W        W27576  22.209  19.042  12.060
63644W        W27577  18.230  36.521  14.840
63645W        W27578  29.989  37.514  10.497
63646W        W27579   2.904  26.160  11.945
63647W        W27580  36.501   1.788  11.503
63648W        W27581  11.726  30.611   4.275
63649W        W27582   1.971  21.511   2.672
63650W        W27583  31.479  20.626  11.581
63651W        W27584  44.270  36.846   2.313
63652W        W27585  40.947  26.681  12.037
63653W        W27586  39.853   4.903   3.161
63654W        W27587  22.145   6.840  12.066
63655W        W27588  25.537  10.347   2.211
63656W        W27589  19.127  40.808  12.846
63657W        W27590  15.641  30.160   3.167
63658W        W27591  32.568   5.411  11.101
63659W        W27592  34.526   3.324   1.721
63660W        W27593  28.176  43.393   4.315
63661W        W27594  14.716  39.411   5.215
63662W        W27595  24.212  21.597   3.663
63663W        W27596  29.523  13.138   2.251
63664W        W27597  31.446  39.980  13.930
63665W        W27598   9.169  28.933   4.717
63666W        W27599  17.225   2.443   1.378
63667W        W27600  44.963  22.700   0.367
63668W        W27601  40.969  14.164   3.356
63669W        W27602  27.595  11.731  10.956
63670W        W27603   6.345  41.959   4.273
63671W        W27604  43.991  39.470  10.641
63672W        W27605  40.814  21.119   3.731
63673W        W27606  18.589  16.168   4.701
63674W        W27607  18.699  31.501  13.954
63675W        W27608  37.989  34.100  13.495
63676W        W27609  11.271  21.702  10.526
63677W        W27610  23.026   6.203  13.508
63678W        W27611   1.820   6.261  13.414
63679W        W27612   0.248  19.173   3.814
63680W        W27613  39.893  12.260  11.035
63681W        W27614  17.795   4.412  10.938
63682W        W27615  23.499  16.217  13.857
63683W        W27616  34.562   3.350   2.348
63684W        W27617   0.953  44.389   2.730
63685W        W27618  10.675   0.747  11.899
63686W        W27619   0.789   0.940   0.852
63687W        W27620  35.397  23.083  14.475
63688W        W27621  15.144  40.935   1.385
63689W        W27622  39.978  10.830   1.857
63690W        W27623  23.163  17.194   3.644
63691W        W27624  18.134  35.432   0.787
63692W        W27625  41.988  30.510   2.186
63693W        W27626  36.423  30.136   1.759
63694W        W27627  26.526  33.415  12.377
63695W        W27628   3.808  26.521   4.331
63696W        W27629  25.187  21.683   3.757
63697W        W27630  34.053   6.779  10.547
63698W        W27631  12.307   1.374  14.307
63699W        W27632  35.597  38.048  12.457
63700W        W27633   0.766  40.338   4.780
63701W        W27634   9.763  11.866   1.341
63702W        W27635  33.529  26.474  14.952
63703W        W27636  12.729  37.503  13.029
63704W        W27637  22.130  21.216   3.281
63705W        W27638   3.854  13.603   2.893
63706W        W27639  40.423  44.330  14.847
63707W        W27640  20.179  22.996   4.671
63708W        W27641  18.270  15.752   1.763
63709W        W27642  29.597  18.666  14.981
63710W        W27643  31.987  33.125  11.986
63711W        W27644  20.162  33.974   0.771
63712W        W27645  30.580   6.369  11.886
63713W        W27646   6.734  38.961  10.478
63714W        W27647  33.049  11.710  10.438
63715W        W27648   7.898   3.937  13.928
63716W        W27649  18.694   8.821   1.822
63717W        W27650  24.002  15.640   0.749
63718W        W27651  43.783  43.940   4.315
63719W        W27652  21.127   8.279  14.482
63720W        W27653  31.000  31.080   0.435
63721W        W27654  26.964  39.921  13.950
63722W        W27655  43.271  29.138  13.057
63723W        W27656  44.848  36.391  10.927
63724W        W27657  33.099  28.591  12.482
63725W        W27658  13.694  41.914  13.540
63726W        W27659  21.638   5.402  14.492
63727W        W27660  38.889  36.880  10.519
63728W        W27661  38.384   8.383   3.292
63729W        W27662  38.325  35.488   0.909
63730W        W27663  16.605  22.174   3.744
63731W        W27664   1.419  17.738   3.237
63732W        W27665  30.620  13.217   3.700
63733W        W27666  20.739   2.906   2.883
63734W        W27667  22.727  15.737  10.981
63735W        W27668  29.955   4.754  11.440
63736W        W27669  39.970  25.640   3.206
63737W        W27670  32.910  30.607  12.542
63738W        W27671  22.048   3.847   1.274
63739W        W27672  19.766  29.574   3.297
63740W        W27673  28.039   4.797  13.333
63741W        W27674  24.651  11.681  13.354
63742W        W27675  29.573  40.814  14.977
63743W        W27676  32.465  18.611  10.588
63744W        W27677  14.221   6.794  13.478
63745W        W27678  14.806   2.792   3.258
63746W        W27679  40.049  18.761  11.071
63747W        W27680  32.082  21.197   0.387
63748W        W27681  34.931  12.344   3.355
63749W        W27682  22.600  33.002  11.397
63750W        W27683   9.323  34.905  14.994
63751W        W27684  37.579  28.600   0.422
63752W        W27685  30.132   3.293  13.994
63753W        W27686  12.265   0.888   3.635
63754W        W27687  12.137   6.843  14.776
63755W        W27688  29.028   3.239   4.340
63756W        W27689   0.915  37.555  11.066
63757W        W27690  14.738  38.483   4.825
63758W        W27691   9.274  42.350  13.015
63759W        W27692  44.476  14.302  14.795
63760W        W27693  36.895   9.868  14.933
63761W        W27694  15.612  24.674  12.445
63762W        W27695  33.974  43.812  12.403
63763W        W27696  31.458   6.284   3.664
63764W        W27697   6.213  28.026   4.123
63765W        W27698  14.216  41.384   3.372
63766W        W27699  23.137  12.328   2.182
63767W        W27700  26.138  15.187   3.730
63768W        W27701  43.022  40.322   5.204
63769W        W27702  12.160  22.038   1.403
63770W        W27703  23.648  27.594  13.962
63771W        W27704  35.599  43.416  14.412
63772W        W27705  24.188  41.939  12.850
63773W        W27706  11.291  40.486   0.943
63774W        W27707  36.919  21.076   4.816
63775W        W27708  39.975   6.429   0.340
63776W        W27709  11.791  30.159   1.250
63777W        W27710  42.970  34.944   5.261
63778W        W27711  33.893   8.297  11.009
63779W        W27712  31.542  44.909  13.975
63780W        W27713  44.274  14.215  10.950
63781W        W27714  36.366  27.543  12.056
63782W        W27715   6.829  17.183  14.970
63783W        W27716  41.318  15.598   0.887
63784W        W27717  32.112   8.184   2.691
63785W        W27718   8.783  15.154   1.326
63786W        W27719  35.396  15.306   2.383
63787W        W27720  24.570  37.831  14.007
63788W        W27721  23.491   8.209   3.343
63789W        W27722  10.825  26.497  13.347
63790W        W27723  22.696  10.775   2.662
63791W        W27724   2.382  27.172   3.331
63792W        W27725  28.955   6.200   0.871
63793W        W27726   7.723  29.133   3.734
63794W        W27727  19.624  16.583   9.958
63795W        W27728  19.215  40.390  14.452
63796W        W27729  17.578  35.453  11.932
63797W        W27730  40.030  13.781  13.532
63798W        W27731  38.063  43.014  14.292
63799W        W27732  42.454  36.565  13.832
63800W        W27733  37.459  14.758  11.914
63801W        W27734  38.003   3.394   3.820
63802W        W27735  34.466  32.546  14.292
63803W        W27736  44.345   0.871  14.451
63804W        W27737  14.616  35.577  12.360
63805W        W27738   3.285   7.180   1.720
63806W        W27739  27.537   4.237   4.348
63807W        W27740  43.807  12.823   2.806
63808W        W27741  42.342   4.730   3.278
63809W        W27742  30.158  21.233   4.181
63810W        W27743  37.893  27.479   2.215
63811W        W27744  11.193  20.671  12.413
63812W        W27745  21.734   4.442  14.461
63813W        W27746  27.496   9.228  10.549
63814W        W27747  16.741  20.126   1.400
63815W        W27748  11.849  36.999   0.769
63816W        W27749  14.616  39.314  12.959
63817W        W27750  12.325  39.023   0.382
63818W        W27751   5.837  16.288   1.403
63819W        W27752  39.939  22.193  14.012
63820W        W27753  37.989  14.621   2.757
63821W        W27754   2.303  30.122   2.773
63822W        W27755  19.135   8.325   2.302
63823W        W27756  29.956  36.945  11.466
63824W        W27757  36.911  33.537  10.596
63825W        W27758  38.361  34.545  13.352
63826W        W27759  30.983  20.685  14.320
63827W        W27760  39.365  30.519  12.420
63828W        W27761  18.106  25.561  10.487
63829W        W27762  34.590  35.406   1.839
63830W        W27763  15.659   0.873   1.340
63831W        W27764   5.318   0.974  13.320
63832W        W27765  25.701  29.115  13.808
63833W        W27766  20.735  14.296  12.090
63834W        W27767   2.238   8.732   1.358
63835W        W27768  26.017  28.169  12.506
63836W        W27769  38.864  34.372   1.746
63837W        W27770  31.971  34.101  14.871
63838W        W27771  18.069  20.572   4.684
63839W        W27772  33.531  21.050  14.932
63840W        W27773  12.652  10.681   0.363
63841W        W27774  12.754  34.939   3.326
63842W        W27775  25.218  25.973  11.982
63843W        W27776  24.023  13.664  10.415
63844W        W27777  24.552  12.694   0.940
63845W        W27778   6.332  42.976   2.289
63846W        W27779  18.688  11.289  10.897
63847W        W27780  25.698   8.276  11.511
63848W        W27781  33.477  23.037  13.522
63849W        W27782   6.280  34.099   2.413
63850W        W27783   7.795  44.308  12.841
63851W        W27784  39.546  29.603  12.959
63852W        W27785  36.844   0.486   3.280
63853W        W27786  40.991  36.467   4.600
63854W        W27787  16.153  37.880   0.479
63855W        W27788  28.092  24.229   2.398
63856W        W27789   5.724  26.067  13.440
63857W        W27790  38.491   8.226   3.788
63858W        W27791  15.305   4.730   0.923
63859W        W27792  19.556  38.486  14.445
63860W        W27793  10.243  21.259  12.033
63861W        W27794  28.619  22.022  14.434
63862W        W27795  39.426  21.714  11.506
63863W        W27796  33.469   4.231   4.287
63864W        W27797   1.882   2.257   4.345
63865W        W27798  25.110  39.554   1.302
63866W        W27799  23.143  38.475  14.366
63867W        W27800  32.094  26.559  14.784
63868W        W27801  28.659   6.307  13.051
63869W        W27802  31.933  42.977   2.842
63870W        W27803  11.364  20.619  14.397
63871W        W27804  19.537  28.018   5.615
63872W        W27805  14.635  35.592   3.270
63873W        W27806  21.698  14.159  12.968
63874W        W27807  42.890  18.665   0.408
63875W        W27808  31.014  22.163   3.344
63876W        W27809  28.445  18.245   2.319
63877W        W27810  12.802  30.449   0.770
63878W        W27811  17.739  26.497  13.546
63879W        W27812  11.299  15.747  12.354
63880W        W27813   9.710  37.850  12.047
63881W        W27814   6.182   7.770  13.055
63882W        W27815   1.852   6.850   3.150
63883W        W27816  38.477  12.750   2.681
63884W        W27817  38.455   8.694  14.803
63885W        W27818  25.049  25.083  12.963
63886W        W27819  29.609  21.610   4.310
63887W        W27820   0.774  21.176  12.996
63888W        W27821  34.434   9.876   0.943
63889W        W27822  17.306   8.779   3.771
63890W        W27823  42.894   1.942   1.714
63891W        W27824   3.378   4.432  13.411
63892W        W27825   5.265  30.436   1.427
63893W        W27826   8.696   4.863  13.440
63894W        W27827  42.871  21.257   3.688
63895W        W27828  30.506  38.059   1.797
63896W        W27829  18.588  15.123   0.885
63897W        W27830  12.678  35.881   0.741
63898W        W27831   3.772  20.272  13.059
63899W        W27832  30.034  44.902   0.811
63900W        W27833   9.254  27.033  12.081
63901W        W27834  32.603  42.787   4.243
63902W        W27835  10.775  18.289  12.938
63903W        W27836  27.944  11.806   2.326
63904W        W27837  24.996  43.401  11.078
63905W        W27838  16.746   2.960   0.919
63906W        W27839  38.836  19.233  11.100
63907W        W27840  39.485   9.189   4.680
63908W        W27841  10.746  44.434   3.792
63909W        W27842  43.913  36.856  13.476
63910W        W27843   4.373  32.430  11.511
63911W        W27844  36.859  33.581  12.890
63912W        W27845  13.604  24.021   4.680
63913W        W27846  35.902   2.413   3.196
63914W        W27847  13.127  14.810   3.765
63915W        W27848  10.719  24.057  10.413
63916W        W27849  23.050  43.277  11.877
63917W        W27850  20.130   2.773  14.876
63918W        W27851   3.444  27.577  14.995
63919W        W27852  12.702  29.142   0.751
63920W        W27853  12.316  43.420  14.361
63921W        W27854   4.700  15.256   2.763
63922W        W27855  18.131  18.143   3.729
63923W        W27856  31.632  31.491  12.994
63924W        W27857  27.097  33.509  12.916
63925W        W27858  26.084  30.998   4.817
63926W        W27859  32.080  35.533  10.620
63927W        W27860  32.456  12.674  14.415
63928W        W27861  31.991  31.578   3.163
63929W        W27862  43.395  27.613   1.272
63930W        W27863   8.195  35.586   3.297
63931W        W27864  38.331  14.169  12.829
63932W        W27865   2.423  39.424  11.993
63933W        W27866  39.009  16.253   1.818
63934W        W27867   1.254  42.408  12.535
63935W        W27868   8.172  23.703  12.434
63936W        W27869  18.254  19.743  14.856
63937W        W27870  12.268   3.237  11.525
63938W        W27871  11.752  33.464  13.973
63939W        W27872  13.670  22.084   1.416
63940W        W27873  26.178   8.806   5.204
63941W        W27874  42.815  31.575  13.006
63942W        W27875  31.081  12.739  14.470
63943W        W27876  44.291   7.292   3.670
63944W        W27877   6.414  15.800   3.776
63945W        W27878  36.052  30.139   4.758
63946W        W27879  33.116  44.883  11.477
63947W        W27880  39.402  32.490   1.439
63948W        W27881  20.151  41.790   0.431
63949W        W27882  12.339  22.582   1.776
63950W        W27883  42.513  40.043   3.727
63951W        W27884   1.329  40.932  12.580
63952W        W27885  21.131  31.452   0.929
63953W        W27886   7.880  18.620   3.755
63954W        W27887   4.363  43.285  12.519
63955W        W27888  19.170  37.910   3.858
63956W        W27889  41.519  33.912   4.825
63957W        W27890  21.070  29.511   1.251
63958W        W27891  44.002  33.494  11.975
63959W        W27892  38.927  43.444   3.682
63960W        W27893  25.673  14.239   2.717
63961W        W27894   1.751   6.896  14.931
63962W        W27895  35.940  41.863  12.541
63963W        W27896  33.894  17.155  14.936
63964W        W27897  13.253  36.585  13.981
63965W        W27898  11.211  35.395   2.348
63966W        W27899  10.291  37.517   4.678
63967W        W27900  29.155  14.151   3.165
63968W        W27901  19.733  27.965  14.455
63969W        W27902  17.781  32.134  12.495
63970W        W27903  43.427  35.956   3.832
63971W        W27904   4.284  13.660   2.262
63972W        W27905  12.171  26.590  11.542
63973W        W27906  12.291   6.855  11.894
63974W        W27907  43.298  25.625   3.701
63975W        W27908  37.929  30.084   4.263
63976W        W27909  37.966   5.343  12.435
63977W        W27910  12.779   4.410   3.650
63978W        W27911  13.273  28.047   0.748
63979W        W27912  38.879  12.261  13.800
63980W        W27913  40.306  20.110  11.464
63981W        W27914  10.296  22.516  13.332
63982W        W27915  20.746  14.271  11.612
63983W        W27916  32.929  31.056  12.052
63984W        W27917   6.708   1.351  14.781
63985W        W27918  32.425  38.488   1.364
63986W        W27919  42.378   6.416   3.857
63987W        W27920   0.961   7.244  13.859
63988W        W27921   7.396  31.635  13.965
63989W        W27922  30.461   3.271  13.410
63990W        W27923  44.889   8.208   1.322
63991W        W27924  14.286   2.276   1.851
63992W        W27925  31.512   1.853  12.347
63993W        W27926   0.893  17.629  11.431
63994W        W27927   4.744  26.543  13.479
63995W        W27928  13.673   2.721  12.090
63996W        W27929  33.544  41.876  13.309
63997W        W27930  22.629  14.223   3.285
63998W        W27931  22.193  37.088  11.067
63999W        W27932  23.563  35.469  12.855
64000W        W27933  44.427  28.028  10.594
64001W        W27934  43.454  15.797  12.007
64002W        W27935  13.238  13.146   2.843
64003W        W27936  27.459  40.020   2.692
64004W        W27937   1.339  29.586  11.609
64005W        W27938  28.562  40.911   3.190
64006W        W27939  35.086  20.259   4.633
64007W        W27940  19.055  28.475   0.728
64008W        W27941  27.633  10.711  14.011
64009W        W27942  28.439  17.295   1.791
64010W        W27943  33.626  10.191  13.311
64011W        W27944   7.763  14.125  10.007
64012W        W27945  10.798  15.718  13.863
64013W        W27946  10.200   8.275  10.472
64014W        W27947  11.807  25.005  11.038
64015W        W27948  19.116  38.004   5.635
64016W        W27949  12.252   2.960  12.575
64017W        W27950  30.508   8.286  12.907
64018W        W27951   5.827   2.241   2.874
64019W        W27952   1.422  28.677  14.929
64020W        W27953  38.327  28.979   0.965
64021W        W27954  11.157  41.000  11.998
64022W        W27955   9.751  11.837   2.375
64023W        W27956  27.130  20.756   4.153
64024W        W27957  11.693   4.380   3.165
64025W        W27958  32.631  42.485   2.340
64026W        W27959   6.397   1.767   2.318
64027W        W27960  13.319  29.161   2.714
64028W        W27961  28.121  28.554   3.759
64029W        W27962  25.137   0.970  12.493
64030W        W27963  39.545  22.663   2.207
64031W        W27964  27.996  32.019   1.330
64032W        W27965  35.530  15.632  12.560
64033W        W27966   3.428  27.034   1.777
64034W        W27967  16.306  16.088  10.416
64035W        W27968  30.911   1.835  12.966
64036W        W27969  43.004  22.133   0.850
64037W        W27970   3.826   6.920   3.218
64038W        W27971  15.715  37.839   2.775
64039W        W27972  24.615  43.489   9.937
64040W        W27973  38.993  41.871  10.933
64041W        W27974  36.396  23.491   1.750
64042W        W27975   4.306   4.435  11.128
64043W        W27976  27.557  17.794   1.859
64044W        W27977  34.615  39.505  10.497
64045W        W27978  18.620   1.363  13.425
64046W        W27979   8.681  42.486  11.576
64047W        W27980   6.797  21.676   4.806
64048W        W27981  33.579  16.700  14.305
64049W        W27982   0.778  29.007  10.126
64050W        W27983  23.537   2.450  10.618
64051W        W27984  13.321  21.529   3.655
64052W        W27985   3.307  35.930  14.435
64053W        W27986  27.151  17.753   0.883
64054W        W27987  12.355  19.182   0.760
64055W        W27988  41.950  24.484   1.212
64056W        W27989  24.162  36.872  10.938
64057W        W27990  31.560  23.629   2.750
64058W        W27991  21.046   4.224  10.894
64059W        W27992   7.268  18.725  14.907
64060W        W27993  34.004  23.108   3.306
64061W        W27994  42.335   2.757  13.863
64062W        W27995  32.048  23.684  12.504
64063W        W27996  30.118  38.396  13.009
64064W        W27997  12.321  24.671  13.371
64065W        W27998   7.245  28.618  11.413
64066W        W27999   9.790  36.506  12.889
64067W        W28000  22.130   7.689   2.820
64068W        W28001  36.895  42.521  11.528
64069W        W28002  19.578   3.821  11.102
64070W        W28003  20.580  41.973  10.554
64071W        W28004   3.858  34.564  14.002
64072W        W28005  15.294  27.001   2.752
64073W        W28006  35.053  27.973  14.812
64074W        W28007  39.444  24.677   2.355
64075W        W28008   5.889  43.387  10.626
64076W        W28009  10.204  28.175   0.388
64077W        W28010  40.861  18.548   3.377
64078W        W28011  39.377  43.871   1.394
64079W        W28012  42.358  30.989  14.338
64080W        W28013  37.338  15.813  10.480
64081W        W28014  44.891  38.882  10.981
64082W        W28015   3.838  16.297  10.027
64083W        W28016  10.376  11.136   3.857
64084W        W28017  22.122  11.185   0.441
64085W        W28018   1.953  22.076  14.928
64086W        W28019  15.610  34.490  14.298
64087W        W28020  31.941  39.039  12.044
64088W        W28021  26.580  33.948  12.997
64089W        W28022   1.285  29.944  13.507
64090W        W28023  37.440  13.250   0.751
64091W        W28024  39.542  17.070  14.989
64092W        W28025   5.414   3.377   3.322
64093W        W28026  32.113  21.176   3.672
64094W        W28027  27.449  10.339  13.824
64095W        W28028  22.068   4.321  14.776
64096W        W28029  23.520  39.458   2.347
64097W        W28030  21.074  35.535   1.917
64098W        W28031   0.393   0.934  11.485
64099W        W28032   1.951   7.774   2.827
64100W        W28033  38.435  16.797   4.628
64101W        W28034  18.587  21.689   3.176
64102W        W28035  27.012  16.622  12.889
64103W        W28036  12.636  29.046  13.845
64104W        W28037  17.774  21.052  12.928
64105W        W28038  38.819  16.644  14.404
64106W        W28039   0.856  35.075   4.314
64107W        W28040  40.016  27.149  10.453
64108W        W28041  32.521  12.819   3.792
64109W        W28042   2.347   4.698  13.463
64110W        W28043  13.733  22.637  13.035
64111W        W28044  22.043  13.612  11.391
64112W        W28045   4.246  25.167  10.631
64113W        W28046  36.072  38.526  12.846
64114W        W28047  43.437  31.414  14.026
64115W        W28048   0.794  42.917   0.862
64116W        W28049  24.560  13.207   0.894
64117W        W28050  32.050  31.585   4.149
64118W        W28051  10.815  43.001   0.736
64119W        W28052  40.359  26.992  13.526
64120W        W28053  31.090   0.397  11.953
64121W        W28054   1.771  41.431  13.341
64122W        W28055  14.207  42.862   2.901
64123W        W28056  34.095  31.463   2.902
64124W        W28057  40.845  14.122  14.994
64125W        W28058  19.264  40.324  12.075
64126W        W28059  42.493  43.967   1.852
64127W        W28060  28.944  22.686   4.308
64128W        W28061   5.697  13.314  11.504
64129W        W28062   8.206  43.013   4.825
64130W        W28063  18.253   1.873   1.876
64131W        W28064   1.787   1.316   4.808
64132W        W28065  42.471  39.911   3.205
64133W        W28066  40.996  29.116  12.523
64134W        W28067  20.553  33.417  11.041
64135W        W28068  33.874  38.986  12.062
64136W        W28069  20.733   1.787   4.787
64137W        W28070  20.229  41.824  13.512
64138W        W28071  23.534  25.967   2.688
64139W        W28072  21.557   7.205  14.966
64140W        W28073  24.520  35.559  14.873
64141W        W28074  42.409  11.333   1.378
64142W        W28075  38.536  17.288   3.168
64143W        W28076  21.664  16.678  12.948
64144W        W28077  19.230  30.973   3.283
64145W        W28078  40.326  25.994  10.939
64146W        W28079  17.576  28.082  10.016
64147W        W28080  29.136  28.974  12.559
64148W        W28081  37.494  33.047   2.223
64149W        W28082  38.923  21.071   1.264
64150W        W28083  28.069   2.291   4.598
64151W        W28084  39.489  35.007  11.536
64152W        W28085  40.999   7.813   2.183
64153W        W28086  29.476  12.731   4.162
64154W        W28087  11.177   7.697   2.220
64155W        W28088   9.800  27.157   3.192
64156W        W28089  22.739  10.723   1.715
64157W        W28090  10.337  11.279  11.455
64158W        W28091  30.126  19.638   1.258
64159W        W28092  14.340  42.804   1.781
64160W        W28093  23.557  25.582   2.774
64161W        W28094  30.121  23.993  11.442
64162W        W28095   5.868   1.473   4.785
64163W        W28096  35.060  15.588   1.699
64164W        W28097  42.499  11.773  12.474
64165W        W28098  22.253   0.307   2.364
64166W        W28099  39.834  25.603  10.601
64167W        W28100  36.552  15.717   1.331
64168W        W28101  44.299  32.087  13.321
64169W        W28102  28.937   9.372   2.840
64170W        W28103  43.383  11.186   2.286
64171W        W28104  41.014  38.567   3.763
64172W        W28105  14.270   5.699  12.555
64173W        W28106   1.888  34.428  11.585
64174W        W28107  13.766  24.029  12.538
64175W        W28108  44.415  37.484   0.902
64176W        W28109  38.396  26.487   0.257
64177W        W28110  29.063  44.331   1.769
64178W        W28111  14.129  38.530  12.020
64179W        W28112  15.636  27.476   0.854
64180W        W28113   8.198  25.584  11.594
64181W        W28114  18.609   6.736   0.858
64182W        W28115   1.288  42.514   0.874
64183W        W28116  42.795  18.103  12.878
64184W        W28117  18.224  39.808   4.226
64185W        W28118  43.503  40.970   0.882
64186W        W28119  38.868  38.443   4.711
64187W        W28120  41.930  27.490  12.970
64188W        W28121  29.484  30.519  14.351
64189W        W28122   8.824  42.882   2.816
64190W        W28123  22.686  21.559  14.826
64191W        W28124  27.584   0.820  11.070
64192W        W28125  43.326  42.449   3.850
64193W        W28126  10.268  29.109   0.455
64194W        W28127  16.775  42.020   0.769
64195W        W28128  32.009  31.993   4.687
64196W        W28129  14.599   7.839   4.627
64197W        W28130  13.622  39.429   1.448
64198W        W28131  36.955  34.954  12.441
64199W        W28132  28.947   4.842   0.932
64200W        W28133  29.528  14.238   3.861
64201W        W28134  23.642  37.005  13.051
64202W        W28135   6.731  38.041  14.973
64203W        W28136  39.316  30.612   2.708
64204W        W28137  29.997   4.869   1.220
64205W        W28138   7.714  38.406  12.403
64206W        W28139  33.991  19.642  12.994
64207W        W28140  16.232  34.099   3.665
64208W        W28141  41.818  34.524  11.412
64209W        W28142  29.593  15.219   0.967
64210W        W28143   5.866  44.984  14.984
64211W        W28144  38.861  11.634  11.965
64212W        W28145  44.482  38.830  13.320
64213W        W28146  25.635  18.116  13.952
64214W        W28147  36.418   4.774   4.203
64215W        W28148  32.931   3.718   2.336
64216W        W28149  24.512   2.856   4.766
64217W        W28150  21.197  39.815  11.118
64218W        W28151  34.043  22.525  14.419
64219W        W28152  38.914   4.759   0.862
64220W        W28153   9.849  26.699  13.873
64221W        W28154  30.099  40.356  14.387
64222W        W28155  34.954  24.026  12.838
64223W        W28156  37.877  28.549  10.477
64224W        W28157   1.396  27.001  11.051
64225W        W28158  11.862  19.226  11.596
64226W        W28159  30.053   3.305  10.500
64227W        W28160  16.174  17.069   0.883
64228W        W28161  42.920   6.785  13.986
64229W        W28162  33.461  29.057  13.865
64230W        W28163  42.992  39.330   1.353
64231W        W28164  29.593  23.704   4.645
64232W        W28165  23.614   8.168  12.059
64233W        W28166  40.395   1.917   4.275
64234W        W28167  28.096  30.510   2.283
64235W        W28168  26.049  14.104   5.096
64236W        W28169  37.437  36.895   4.306
64237W        W28170   6.325  10.213  10.936
64238W        W28171  26.660  12.203   1.316
64239W        W28172  12.145  31.480   2.266
64240W        W28173  33.029   7.882   3.851
64241W        W28174  34.452  11.740   3.299
64242W        W28175  31.064  36.033   0.939
64243W        W28176  33.913  30.442   1.893
64244W        W28177  24.480  12.122   5.782
64245W        W28178  10.161  24.102   2.793
64246W        W28179  22.667  33.548  14.769
64247W        W28180   2.940  11.299  13.859
64248W        W28181   4.837  27.152   5.319
64249W        W28182  18.635  37.482   3.855
64250W        W28183  44.416  21.644   2.308
64251W        W28184  30.638  27.651   1.842
64252W        W28185  17.572  37.511  11.448
64253W        W28186   1.387  44.391  11.964
64254W        W28187  14.685   2.853  11.099
64255W        W28188   0.786  24.718   0.410
64256W        W28189  43.810   7.311   0.860
64257W        W28190  16.740  43.505  12.053
64258W        W28191  20.766  16.144   2.320
64259W        W28192  11.223  41.316   0.372
64260W        W28193  38.017  40.944   0.808
64261W        W28194  12.652  32.885   3.356
64262W        W28195  15.600  26.476   0.475
64263W        W28196  26.097   7.800  11.455
64264W        W28197   8.808   7.676  13.522
64265W        W28198  24.183  38.976   3.702
64266W        W28199  24.153  35.955  14.960
64267W        W28200  10.350  10.739  12.981
64268W        W28201  42.974   2.409  12.355
64269W        W28202  26.174   8.737   4.276
64270W        W28203  29.082  22.224  10.606
64271W        W28204  10.720  29.600   0.283
64272W        W28205  32.440  33.518   9.981
64273W        W28206  16.288  39.865   4.793
64274W        W28207   5.326  35.511  11.447
64275W        W28208  24.600  41.421   4.662
64276W        W28209  44.834  30.046   3.152
64277W        W28210   0.776  17.778  12.063
64278W        W28211  36.066  19.080  10.523
64279W        W28212   0.264  12.794  12.058
64280W        W28213  22.588  23.104  12.016
64281W        W28214   7.294  19.056  13.480
64282W        W28215  20.565  10.759   2.265
64283W        W28216  42.861  11.774  14.790
64284W        W28217  14.123  20.265  11.969
64285W        W28218   0.376  30.503   0.820
64286W        W28219  14.095   1.940  12.832
64287W        W28220   5.305  14.735  14.359
64288W        W28221  12.717  12.818  13.041
64289W        W28222   4.242  41.315   1.742
64290W        W28223  10.811  24.089  13.428
64291W        W28224   8.838  23.234  10.512
64292W        W28225   7.381  31.021  14.929
64293W        W28226  10.167  44.866   4.783
64294W        W28227  19.601  27.039   0.427
64295W        W28228   7.392  29.535   3.325
64296W        W28229  44.262  44.361   3.700
64297W        W28230   4.216  16.149  11.107
64298W        W28231  34.942  23.633  12.575
64299W        W28232  21.610  39.973  13.343
64300W        W28233   7.334  23.030  11.110
64301W        W28234  20.699   7.213  10.989
64302W        W28235  17.085  32.563  13.481
64303W        W28236  20.669   9.377  11.608
64304W        W28237  33.492  12.665   4.709
64305W        W28238  31.519   4.937  14.511
64306W        W28239  26.057  29.103   0.314
64307W        W28240  33.898  41.967   4.745
64308W        W28241  33.988  19.570   4.686
64309W        W28242  16.295  11.297  12.350
64310W        W28243  40.015  26.692   1.934
64311W        W28244  43.272  14.115   0.779
64312W        W28245  14.120  27.111   4.727
64313W        W28246  32.506   9.190   0.946
64314W        W28247  13.643   6.713   1.903
64315W        W28248   1.306  41.041  13.045
64316W        W28249  35.011  30.626  10.498
64317W        W28250  27.141  32.395   1.417
64318W        W28251   7.790  39.387  11.024
64319W        W28252  19.560  42.934  11.917
64320W        W28253  40.807   2.783  11.941
64321W        W28254  24.057  11.288   4.612
64322W        W28255  29.465  37.087  12.907
64323W        W28256   2.451  24.500  13.857
64324W        W28257   1.441   6.708  13.362
64325W        W28258  19.710  37.037  11.944
64326W        W28259   5.924  31.970  13.500
64327W        W28260  44.783  40.889   0.945
64328W        W28261   9.214   4.251  10.438
64329W        W28262  21.076  36.397  12.430
64330W        W28263  37.389  18.650   5.219
64331W        W28264   8.262  40.360   4.314
64332W        W28265  16.683  22.129  11.417
64333W        W28266  43.459  23.551   1.327
64334W        W28267   7.767  35.088   0.408
64335W        W28268  10.856  38.076   0.849
64336W        W28269  39.550   8.242  12.927
64337W        W28270  20.712  32.546  13.917
64338W        W28271  34.887   2.359  10.987
64339W        W28272  29.013  29.095   4.604
64340W        W28273  44.928  14.763   0.760
64341W        W28274  26.118   7.210  10.471
64342W        W28275   0.753  11.788  14.795
64343W        W28276   9.703  26.583   2.312
64344W        W28277  17.146  33.981  13.848
64345W        W28278  37.953  40.018   4.756
64346W        W28279  34.093   6.818   3.813
64347W        W28280   1.971  35.976  13.374
64348W        W28281  12.818  34.478   2.323
64349W        W28282  25.203  42.458   2.669
64350W        W28283   9.871   4.231   3.754
64351W        W28284  15.299  18.075  10.514
64352W        W28285   7.883  32.113   3.841
64353W        W28286  42.430  27.489   3.163
64354W        W28287  24.042  28.453  12.054
64355W        W28288  40.915   8.870  14.791
64356W        W28289   3.247   2.911   4.211
64357W        W28290  39.358  14.771  13.903
64358W        W28291  31.958  15.593   1.252
64359W        W28292  29.612   5.278   1.792
64360W        W28293   0.298   5.701  14.939
64361W        W28294  41.977  17.084   1.273
64362W        W28295  11.721   6.797   1.753
64363W        W28296  44.860  23.728  14.777
64364W        W28297  26.968  34.536  10.605
64365W        W28298  39.933   9.164   0.332
64366W        W28299  35.364  43.346  12.871
64367W        W28300  15.780   4.302  11.947
64368W        W28301  42.361  28.181  11.596
64369W        W28302   9.798  40.506  13.889
64370W        W28303  41.936  15.602  13.815
64371W        W28304  10.147  10.684  14.762
64372W        W28305  11.774  15.609  14.465
64373W        W28306   2.251  22.578  10.540
64374W        W28307  11.799  33.413  12.831
64375W        W28308  23.697  31.584   0.346
64376W        W28309  33.033  20.241  13.462
64377W        W28310  35.027   7.261   0.391
64378W        W28311  41.996  19.569   9.953
64379W        W28312  41.874  33.609   3.671
64380W        W28313  12.653  38.409  12.507
64381W        W28314  23.014   7.832   1.802
64382W        W28315   8.876  11.365  12.077
64383W        W28316  18.230   0.492   1.323
64384W        W28317  19.283   8.246  12.073
64385W        W28318   9.182  36.370   0.473
64386W        W28319   0.290   6.796  11.120
64387W        W28320  22.035  40.474  13.795
64388W        W28321   7.668   6.798   0.348
64389W        W28322  35.871  38.425  13.422
64390W        W28323  34.957  41.947  11.859
64391W        W28324  22.228  28.636   1.703
64392W        W28325   3.845  34.436   0.754
64393W        W28326  23.671  34.908  10.897
64394W        W28327   0.781  21.089   2.190
64395W        W28328  18.548  27.035  13.464
64396W        W28329  21.660  15.273   1.829
64397W        W28330  23.086  31.149  11.400
64398W        W28331  34.417  27.035  12.471
64399W        W28332   8.793  22.592  12.471
64400W        W28333  16.295  20.152  14.377
64401W        W28334  35.520  42.451  14.023
64402W        W28335  23.032  16.700   0.850
64403W        W28336   6.694  32.035   4.631
64404W        W28337   7.270  40.900   2.725
64405W        W28338  33.610  32.045  12.859
64406W        W28339   3.894  20.684  11.458
64407W        W28340  43.270   0.259   1.321
64408W        W28341  43.012   4.805  12.970
64409W        W28342  17.635  35.922  12.361
64410W        W28343  22.626  13.686   0.869
64411W        W28344   7.276   9.840  14.032
64412W        W28345   7.229  25.593  11.440
64413W        W28346   7.874  33.597   4.779
64414W        W28347  14.690  25.468   3.326
64415W        W28348  34.043  11.229  12.432
64416W        W28349  22.047   6.694   3.327
64417W        W28350  27.028  20.222  14.032
64418W        W28351  23.736  41.959   1.358
64419W        W28352  32.416  35.006   0.379
64420W        W28353  10.238  27.107  14.910
64421W        W28354  36.482  39.530   0.883
64422W        W28355  14.255  26.159  13.310
64423W        W28356  34.042   8.774   0.911
64424W        W28357   3.254  19.273  12.385
64425W        W28358  10.381  29.463  14.990
64426W        W28359  19.580  10.191   2.863
64427W        W28360  23.519  29.645   0.898
64428W        W28361  31.571  37.022   0.275
64429W        W28362  28.470   6.886  11.921
64430W        W28363   6.889  14.210  14.019
64431W        W28364  32.449  14.249  14.381
64432W        W28365  33.388   3.876  14.344
64433W        W28366  12.173  10.825   2.688
64434W        W28367  26.460  11.721  14.501
64435W        W28368  12.188  41.883  14.387
64436W        W28369  33.463   2.920  13.886
64437W        W28370  35.439  41.406   3.701
64438W        W28371  41.032  29.105  11.414
64439W        W28372  38.357  37.345   4.133
64440W        W28373  30.999  29.035  10.614
64441W        W28374  10.705  18.170  11.525
64442W        W28375  25.160  44.300  12.449
64443W        W28376  39.539   3.396  13.352
64444W        W28377  20.768  11.700  11.069
64445W        W28378  35.062  10.815   1.702
64446W        W28379   6.694  14.748   1.835
64447W        W28380  11.271   0.298   2.304
64448W        W28381  42.281  21.169  11.010
64449W        W28382  26.529  11.325   0.777
64450W        W28383  36.973  18.568   2.815
64451W        W28384  17.219  44.274   0.328
64452W        W28385  14.619  28.979   1.402
64453W        W28386  26.665  24.183  14.953
64454W        W28387   1.242  14.158   1.219
64455W        W28388  33.117  32.889   1.449
64456W        W28389  20.524   8.803  11.877
64457W        W28390  27.166  37.371  12.007
64458W        W28391  24.627  26.600   2.289
64459W        W28392  40.894  29.130   2.330
64460W        W28393  39.857   9.381   3.268
64461W        W28394  41.330  36.499   2.903
64462W        W28395   2.736  33.624   2.269
64463W        W28396  37.020  35.443  12.077
64464W        W28397  13.316  40.345   5.266
64465W        W28398   3.261  25.523   2.882
64466W        W28399  13.327  17.068   2.763
64467W        W28400  38.872  40.007   2.222
64468W        W28401  16.739  13.129   4.608
64469W        W28402  21.718  36.043   2.227
64470W        W28403  40.950  28.541  12.060
64471W        W28404   0.411  33.540  14.814
64472W        W28405  13.111  12.754  12.447
64473W        W28406   0.786  27.971  13.857
64474W        W28407  37.565   5.746   2.314
64475W        W28408  27.146  18.602  14.866
64476W        W28409  44.309   1.341  14.408
64477W        W28410  25.711  21.640  10.538
64478W        W28411  20.206  43.396   2.876
64479W        W28412  16.305  11.153  13.350
64480W        W28413  28.495  36.886   1.234
64481W        W28414  42.315  13.811  12.977
64482W        W28415  39.942  34.967   4.807
64483W        W28416  38.562  20.642   1.711
64484W        W28417   8.750  22.102   0.868
64485W        W28418  20.107  21.554  14.427
64486W        W28419  22.550  37.956  13.354
64487W        W28420   7.297  40.527  12.063
64488W        W28421  24.568  10.838   4.114
64489W        W28422   6.257  19.055  11.417
64490W        W28423  15.128  34.094   0.479
64491W        W28424   6.777  27.491  10.484
64492W        W28425   4.820  18.199   1.379
64493W        W28426  27.166  34.565  13.915
64494W        W28427  12.254  13.727  11.992
64495W        W28428  34.450  15.645   0.475
64496W        W28429   5.718   2.472   3.332
64497W        W28430   8.834  13.834  14.819
64498W        W28431  21.719   8.657   0.302
64499W        W28432  24.712  23.035  10.950
64500W        W28433  12.836  32.407  11.024
64501W        W28434  34.466  34.525   1.801
64502W        W28435  42.979   6.688   4.745
64503W        W28436  21.180   3.811   1.451
64504W        W28437   2.421  30.111   1.241
64505W        W28438  22.137   8.818  13.936
64506W        W28439  14.693  37.391  14.842
64507W        W28440   4.436   7.684   1.809
64508W        W28441   6.402  29.063  11.423
64509W        W28442   6.751  14.700  11.115
64510W        W28443  29.045  16.317  13.409
64511W        W28444  37.385  21.689  12.405
64512W        W28445  35.969  36.040   1.897
64513W        W28446  26.499  17.621   0.889
64514W        W28447   2.426  43.949  13.426
64515W        W28448   8.818  37.408  12.459
64516W        W28449   5.221  22.564  10.961
64517W        W28450  17.605  38.882   1.270
64518W        W28451  15.655  20.033   0.458
64519W        W28452   1.456  29.608   4.806
64520W        W28453  43.835  12.779  14.285
64521W        W28454  17.656   3.717  13.367
64522W        W28455  36.893  36.035   0.839
64523W        W28456  38.467  13.295  11.419
64524W        W28457   8.886  37.997   1.835
64525W        W28458   3.357  26.640   1.264
64526W        W28459  20.622  15.228  12.560
64527W        W28460  19.106   0.393  14.961
64528W        W28461  33.426  21.604  14.346
64529W        W28462  32.497   9.737  13.333
64530W        W28463  21.725  43.862   0.809
64531W        W28464  43.899  38.527  14.366
64532W        W28465  40.904  22.712  13.427
64533W        W28466  41.450   3.847   3.640
64534W        W28467  44.882  43.793  13.970
64535W        W28468  44.932   2.324   3.324
64536W        W28469  41.486  14.181   3.843
64537W        W28470   9.355  42.891   0.895
64538W        W28471  37.906   4.837   1.365
64539W        W28472  13.721   4.911  13.336
64540W        W28473  44.000  32.459  11.468
64541W        W28474  41.790   2.820   2.372
64542W        W28475  32.124  42.951   1.393
64543W        W28476  31.936   6.866  12.027
64544W        W28477  27.105  25.602   2.339
64545W        W28478  19.230  43.902  12.427
64546W        W28479  10.243  15.096  10.557
64547W        W28480  35.555  18.600  14.283
64548W        W28481  21.692  30.099  12.438
64549W        W28482  22.530  27.477   0.746
64550W        W28483   0.308   4.785  13.938
64551W        W28484  17.295   7.883   3.317
64552W        W28485  24.517   4.799   2.686
64553W        W28486  19.578  13.206  12.026
64554W        W28487  28.606  12.305   1.874
64555W        W28488  44.779   8.330   1.799
64556W        W28489  25.041  23.524   4.728
64557W        W28490  42.840  43.838   2.299
64558W        W28491  42.487   7.177   2.682
64559W        W28492  39.534  19.719  10.434
64560W        W28493   8.714   7.784  13.819
64561W        W28494  18.269  42.365  12.439
64562W        W28495   2.966  15.632   2.355
64563W        W28496  18.186  13.237   2.266
64564W        W28497  30.983  38.040  14.368
64565W        W28498  12.857  35.502  11.503
64566W        W28499  15.142  40.934  12.349
64567W        W28500   6.267  34.599   1.736
64568W        W28501  34.044  39.871   4.293
64569W        W28502  30.097  26.582  13.345
64570W        W28503  38.486   9.377   3.237
64571W        W28504  30.012  14.730   2.663
64572W        W28505  23.635   7.748   0.404
64573W        W28506  33.081  26.638  12.364
64574W        W28507  22.166  15.805  14.366
64575W        W28508   6.825  33.450   2.764
64576W        W28509  20.155  16.684   1.271
64577W        W28510   1.476  32.523   3.714
64578W        W28511  39.934  37.911   0.308
64579W        W28512   9.654  37.071  13.388
64580W        W28513  28.086  24.551   3.713
64581W        W28514  23.625   1.909  14.006
64582W        W28515  37.406  43.004  10.411
64583W        W28516   7.314  15.706   0.416
64584W        W28517  23.550  44.970  12.927
64585W        W28518   9.869  11.695  12.095
64586W        W28519  15.105  20.174  13.953
64587W        W28520  14.800   4.939   4.181
64588W        W28521  43.898  20.063  10.435
64589W        W28522  26.103   6.213   2.764
64590W        W28523   1.745  31.510   0.888
64591W        W28524  35.362  29.124  13.381
64592W        W28525  26.121  31.576  11.951
64593W        W28526  22.064  36.474  11.955
64594W        W28527  32.891  20.081  12.978
64595W        W28528  24.225   3.837  12.905
64596W        W28529  43.896   7.788  10.484
64597W        W28530  22.580  10.226  12.977
64598W        W28531   3.284  29.028   0.287
64599W        W28532  20.669  26.617  11.441
64600W        W28533  12.162  44.924  10.508
64601W        W28534   7.346  30.637  14.396
64602W        W28535  16.293   4.393   3.157
64603W        W28536  23.212  34.581  13.864
64604W        W28537  12.260  31.033   4.314
64605W        W28538  29.045  34.611  12.933
64606W        W28539  26.062  19.112  13.510
64607W        W28540   6.299  19.771  14.882
64608W        W28541  36.088  18.646  12.354
64609W        W28542  27.471   9.169   3.311
64610W        W28543  29.015  19.189   1.411
64611W        W28544  42.392  28.642   3.226
64612W        W28545  10.702  25.635  13.318
64613W        W28546  28.171  30.956   4.790
64614W        W28547   0.922   4.247  12.888
64615W        W28548  15.302  33.388  13.045
64616W        W28549  16.106  41.312  14.972
64617W        W28550  16.161  34.526   2.302
64618W        W28551  11.643  25.131  12.481
64619W        W28552   0.423  26.511  11.889
64620W        W28553  18.078  20.570  13.475
64621W        W28554  22.679  38.976  14.990
64622W        W28555  25.032  18.639   4.739
64623W        W28556  28.062   4.866   0.962
64624W        W28557  20.051  44.499   2.207
64625W        W28558  33.038  40.530  13.367
64626W        W28559  18.593   2.857  14.281
64627W        W28560  38.401  33.558   2.804
64628W        W28561  20.089  14.796   4.804
64629W        W28562  17.575  14.219  12.068
64630W        W28563  22.703  16.081   3.738
64631W        W28564  14.698  36.377   4.258
64632W        W28565   8.375  22.536  14.487
64633W        W28566  38.547  30.948   0.397
64634W        W28567   9.301  19.060  13.939
64635W        W28568  41.030   8.297   4.615
64636W        W28569   6.692  11.711   3.200
64637W        W28570  37.465  42.779   4.707
64638W        W28571   3.392  33.417   5.306
64639W        W28572  40.371  33.967  14.377
64640W        W28573   4.775  12.708  12.962
64641W        W28574  22.507   4.896   0.791
64642W        W28575  28.470  37.014   2.808
64643W        W28576  32.923  38.565   1.728
64644W        W28577  16.136  17.211  10.926
64645W        W28578  18.076  24.662   4.752
64646W        W28579  17.772   5.362  12.477
64647W        W28580  38.901  39.022   0.761
64648W        W28581  19.689   1.244  11.423
64649W        W28582  28.053   2.382  12.951
64650W        W28583  42.821  20.131   1.345
64651W        W28584  25.131  18.681  14.990
64652W        W28585  39.944  35.540  14.970
64653W        W28586  17.666  42.387   2.333
64654W        W28587  22.226  40.843  11.888
64655W        W28588  18.616  26.662   3.814
64656W        W28589  35.948  34.928  14.514
64657W        W28590  42.419  21.054   0.820
64658W        W28591  36.079   4.400   2.811
64659W        W28592  43.505  25.183  14.918
64660W        W28593  12.335  39.488  11.987
64661W        W28594  23.663   2.819   2.229
64662W        W28595  27.988  37.948   1.335
64663W        W28596  24.570  37.854  14.944
64664W        W28597  28.607  41.428   0.938
64665W        W28598   3.343  22.570  11.413
64666W        W28599  30.064   5.211  12.028
64667W        W28600  28.181  34.556  12.862
64668W        W28601  20.047  35.049   4.802
64669W        W28602  19.777  36.402   5.159
64670W        W28603  23.225  44.352   9.956
64671W        W28604  16.261  33.535  14.327
64672W        W28605   4.866  31.062   4.823
64673W        W28606  11.212   2.947  13.518
64674W        W28607  30.523  33.613  11.925
64675W        W28608  10.671  15.599   2.205
64676W        W28609   3.919  32.078  13.535
64677W        W28610  39.415  37.439  14.413
64678W        W28611  18.683  35.579  11.390
64679W        W28612  27.100  25.613   3.348
64680W        W28613   4.444  33.897   3.772
64681W        W28614  37.975  15.608   1.709
64682W        W28615  18.100  25.971  10.619
64683W        W28616  21.258  30.952  13.519
64684W        W28617  34.111  33.105  13.011
64685W        W28618  42.371  16.277  11.905
64686W        W28619  23.078  28.596  11.108
64687W        W28620  18.728  42.519   2.285
64688W        W28621  23.117   2.227   4.246
64689W        W28622  38.039  19.662   4.323
64690W        W28623  27.479  29.167   0.908
64691W        W28624  31.982  37.933   4.795
64692W        W28625  40.840  19.115  10.413
64693W        W28626   6.231  11.661  10.558
64694W        W28627  10.277  12.673   2.408
64695W        W28628  40.305  33.496  12.396
64696W        W28629  30.455  12.256  10.452
64697W        W28630   3.274  40.995   1.429
64698W        W28631   6.365  38.058  11.943
64699W        W28632  25.513  15.290  11.431
64700W        W28633  10.810  28.587   0.410
64701W        W28634  17.223  32.955  10.524
64702W        W28635   8.744  37.900   5.155
64703W        W28636  35.461   4.248   4.662
64704W        W28637  27.584  13.121  13.518
64705W        W28638   0.805   0.890  12.349
64706W        W28639  27.664  36.987  11.524
64707W        W28640   1.454  36.518  14.850
64708W        W28641  29.596  26.655  12.875
64709W        W28642   9.213  31.914  13.433
64710W        W28643  27.458  37.356  13.377
64711W        W28644   7.772  28.611  14.296
64712W        W28645  10.876   7.277   5.081
64713W        W28646  12.245  43.385   3.343
64714W        W28647   6.350  38.487   2.250
64715W        W28648  44.299  36.528   3.738
64716W        W28649  18.262  16.275   4.175
64717W        W28650  38.542   2.320   0.420
64718W        W28651  43.346  27.096  12.975
64719W        W28652  41.316   7.291  11.473
64720W        W28653  29.012  10.725   4.810
64721W        W28654   9.204  26.127   0.382
64722W        W28655   8.901  24.178  14.354
64723W        W28656  22.077  36.956   2.853
64724W        W28657   3.890  28.184   0.741
64725W        W28658  10.311  26.165  14.442
64726W        W28659  27.486   5.311   3.798
64727W        W28660   0.425  44.499  11.379
64728W        W28661   3.743  18.607  11.537
64729W        W28662  30.548  38.462   3.726
64730W        W28663  23.058  31.477   4.668
64731W        W28664   7.849   3.926   2.837
64732W        W28665   1.867  37.926   2.708
64733W        W28666   0.749  30.424  13.496
64734W        W28667   8.831  31.548   1.835
64735W        W28668  29.145  30.584   4.156
64736W        W28669  39.947  17.636  13.333
64737W        W28670   0.425  24.708   3.202
64738W        W28671  28.968   1.893   4.333
64739W        W28672   4.752   0.358   4.785
64740W        W28673   4.914   0.418  14.392
64741W        W28674  18.262   3.796  14.821
64742W        W28675   3.752  19.044  14.795
64743W        W28676  33.472  27.193   2.332
64744W        W28677  39.038  33.444   2.778
64745W        W28678  33.098  31.010  11.572
64746W        W28679  41.855  23.498   1.927
64747W        W28680  21.717  42.001   1.433
64748W        W28681  13.206   3.908   2.826
64749W        W28682  41.452  30.496   2.746
64750W        W28683  11.749  12.660   3.682
64751W        W28684  23.654  23.515   0.310
64752W        W28685   1.870  40.847  11.933
64753W        W28686  22.173  39.360   3.719
64754W        W28687   3.904  33.966  11.574
64755W        W28688  18.645  19.683  12.922
64756W        W28689   7.372  44.357   4.248
64757W        W28690  23.635   0.961  13.987
64758W        W28691  35.501  32.416   4.806
64759W        W28692  33.947   8.308   2.316
64760W        W28693  17.210  22.024  12.872
64761W        W28694   1.804  15.788   2.841
64762W        W28695  38.426  42.447   2.279
64763W        W28696  10.812   3.711   1.898
64764W        W28697  42.417  13.701   0.440
64765W        W28698  44.991  37.942  11.920
64766W        W28699  31.554  12.726   3.791
64767W        W28700   8.723   1.832   0.446
64768W        W28701   0.293   7.404  13.441
64769W        W28702  38.852   9.349  12.016
64770W        W28703  20.553  32.984  10.896
64771W        W28704  19.244   5.881   4.303
64772W        W28705  43.858  13.258  12.062
64773W        W28706   2.350  33.433  13.831
64774W        W28707  32.008  44.973   3.337
64775W        W28708  34.380  17.756  13.820
64776W        W28709  30.976  24.688  11.855
64777W        W28710  20.153  27.667  12.083
64778W        W28711  30.156   8.231   3.771
64779W        W28712   3.760  42.904  10.022
64780W        W28713  39.838  10.872  12.416
64781W        W28714   2.898   3.756  13.832
64782W        W28715   2.771  26.956  12.945
64783W        W28716  37.049  29.077  12.353
64784W        W28717  28.131  30.448  10.983
64785W        W28718  44.321  21.748   3.292
64786W        W28719  12.349   1.882  14.408
64787W        W28720  37.065   1.908  14.008
64788W        W28721  25.220  12.278   4.218
64789W        W28722  27.098  17.244  14.320
64790W        W28723  33.901  25.017   3.770
64791W        W28724   5.691  28.033  10.971
64792W        W28725  24.632  36.060   3.653
64793W        W28726   3.841  22.553  10.566
64794W        W28727   3.275  35.526   2.200
64795W        W28728  28.076   1.878   1.725
64796W        W28729  41.012   4.304   1.714
64797W        W28730  10.673  36.095  13.328
64798W        W28731   3.423  37.916  13.969
64799W        W28732  33.107  29.443   2.328
64800W        W28733  39.955   1.945  13.359
64801W        W28734  32.607  17.766  10.616
64802W        W28735  38.415  22.238   3.247
64803W        W28736  10.674  18.129   0.269
64804W        W28737  16.316   1.780  12.559
64805W        W28738  32.618  41.499   3.808
64806W        W28739  42.842  23.090   1.331
64807W        W28740   3.389  42.801   3.861
64808W        W28741   3.445  38.901   4.810
64809W        W28742  19.069  35.952  14.497
64810W        W28743   0.301  13.755  14.836
64811W        W28744  13.204  41.364  10.157
64812W        W28745   8.227   2.907  12.051
64813W        W28746  32.591  33.979  11.454
64814W        W28747  41.432  29.445   5.313
64815W        W28748  32.472   7.326   3.631
64816W        W28749  12.671  41.975   0.446
64817W        W28750  28.442  29.047  12.449
64818W        W28751  20.189  26.005  12.896
64819W        W28752  15.766   9.192   0.770
64820W        W28753  41.933  39.557   4.744
64821W        W28754  10.270  11.203  12.941
64822W        W28755  34.465  36.498   4.317
64823W        W28756  17.786  26.575  14.825
64824W        W28757  26.506  18.171   4.134
64825W        W28758  16.810  31.988   0.260
64826W        W28759  41.932   6.243  10.531
64827W        W28760  40.954  17.757  13.025
64828W        W28761  38.370   7.844  14.856
64829W        W28762  11.728  44.959   1.915
64830W        W28763   5.426  18.629  14.494
64831W        W28764  25.165  15.752  14.451
64832W        W28765  10.320  42.802   3.642
64833W        W28766   7.866  34.079   3.328
64834W        W28767  37.025  32.430  14.871
64835W        W28768   4.278  20.135  12.448
64836W        W28769   3.380   2.281   4.713
64837W        W28770  26.963   3.314   1.806
64838W        W28771   7.240  41.512   2.698
64839W        W28772  24.183   9.231   0.433
64840W        W28773  20.523  21.124  13.542
64841W        W28774  36.023  25.184  12.989
64842W        W28775  26.978  12.157  12.388
64843W        W28776  10.727  38.990  12.083
64844W        W28777  39.916  34.901  11.058
64845W        W28778  10.353  40.505  11.937
64846W        W28779  35.864  14.128  11.457
64847W        W28780  29.153  30.119   4.317
64848W        W28781  13.250  44.423  10.969
64849W        W28782   2.726  23.508   2.372
64850W        W28783  19.571  28.933   4.628
64851W        W28784  16.106   7.804  13.382
64852W        W28785  30.053  29.128  11.069
64853W        W28786  40.044  21.653  12.892
64854W        W28787  26.954  20.682   2.752
64855W        W28788   0.761  36.874  10.068
64856W        W28789  26.159  22.232  11.082
64857W        W28790   2.418  30.952  12.503
64858W        W28791  20.217  18.759  11.101
64859W        W28792  26.134  42.907  10.444
64860W        W28793  36.538  23.635  14.481
64861W        W28794  16.144  13.179  14.846
64862W        W28795  22.021  13.646   0.254
64863W        W28796  27.145   0.804  14.941
64864W        W28797  11.349  32.913   3.756
64865W        W28798  20.751  40.505   1.413
64866W        W28799  14.321  42.423  14.951
64867W        W28800   4.214  24.634   5.183
64868W        W28801  21.128   6.222  10.482
64869W        W28802  31.529  40.465   1.232
64870W        W28803  20.059  29.919   5.104
64871W        W28804   9.268  21.160   3.638
64872W        W28805   1.446  30.093  14.981
64873W        W28806  19.145  20.258  11.952
64874W        W28807  27.189  13.635  14.013
64875W        W28808   3.923  22.150  10.499
64876W        W28809  23.030  30.064  13.457
64877W        W28810  25.192  27.124  13.399
64878W        W28811   2.454   4.716  14.343
64879W        W28812   1.473  32.596   2.780
64880W        W28813  18.111  25.479   0.438
64881W        W28814  35.590   0.912  10.931
64882W        W28815   7.838   6.787   9.936
64883W        W28816  32.495  13.229  11.057
64884W        W28817   5.198  29.962  12.465
64885W        W28818   5.208  27.606   3.326
64886W        W28819  30.519   3.774   3.194
64887W        W28820  24.591   0.845  14.389
64888W        W28821  19.556  16.786  11.102
64889W        W28822  23.727  13.626  13.978
64890W        W28823  19.577  30.123  13.422
64891W        W28824   2.228   3.328   2.209
64892W        W28825  13.273  43.289   2.887
64893W        W28826  11.204  17.666  11.489
64894W        W28827  37.505  31.607  14.838
64895W        W28828  13.245   8.876  11.972
64896W        W28829  44.265  23.994  14.824
64897W        W28830   8.319  38.568   1.790
64898W        W28831  23.077  25.468  12.546
64899W        W28832  13.285   1.939  13.995
64900W        W28833  27.084  14.766   0.397
64901W        W28834  24.154  31.533  13.421
64902W        W28835  28.487  37.438  13.900
64903W        W28836  34.905   1.922   1.749
64904W        W28837   5.255  35.364   0.358
64905W        W28838  24.160  33.969   0.757
64906W        W28839   2.374   5.912   9.935
64907W        W28840  28.128  32.406   1.729
64908W        W28841  38.059   4.807   2.375
64909W        W28842  11.636  29.057   0.242
64910W        W28843  19.274  10.170  11.604
64911W        W28844  23.166  36.071  14.832
64912W        W28845  41.315   9.683   3.239
64913W        W28846  43.889  29.442  11.950
64914W        W28847  20.062  42.319  13.407
64915W        W28848   6.391  34.017  12.362
64916W        W28849   8.833   5.828  10.078
64917W        W28850   6.237  34.900  10.591
64918W        W28851  26.646  21.210   0.481
64919W        W28852   4.248  28.504  11.415
64920W        W28853  11.221   7.704  10.469
64921W        W28854  15.147  36.538   4.709
64922W        W28855  26.157  26.160  12.835
64923W        W28856  26.470  32.142  14.381
64924W        W28857  43.375  41.347  12.424
64925W        W28858  35.506  34.100  12.884
64926W        W28859  38.489  38.420  12.519
64927W        W28860   6.256  28.535   3.787
64928W        W28861  10.152  22.128  13.330
64929W        W28862   3.455  38.971   0.928
64930W        W28863  10.798   2.411  13.892
64931W        W28864  11.651   5.263  12.434
64932W        W28865  31.009  26.520   0.414
64933W        W28866  34.000  34.094  10.585
64934W        W28867   4.302  12.771   2.319
64935W        W28868  44.960  44.882  10.513
64936W        W28869  32.422   0.967   4.352
64937W        W28870  15.152  44.437   1.440
64938W        W28871  17.764  42.284   3.176
64939W        W28872  27.058  37.887  10.595
64940W        W28873  43.440  10.756   0.794
64941W        W28874  31.545  21.680  11.537
64942W        W28875  28.007  40.452   0.887
64943W        W28876   9.389   8.790   1.240
64944W        W28877  27.663  28.156   0.345
64945W        W28878  40.815   7.775  13.060
64946W        W28879   1.336  32.557   0.439
64947W        W28880  14.289  18.196   0.863
64948W        W28881  33.398  24.582   0.806
64949W        W28882  16.797   9.333  14.828
64950W        W28883   5.393  16.217   3.306
64951W        W28884  27.683   1.302   1.293
64952W        W28885  38.881  29.596   0.312
64953W        W28886  30.924   1.248   1.345
64954W        W28887  32.416  13.614   1.407
64955W        W28888   7.823  41.310  13.932
64956W        W28889  14.120  17.601   2.364
64957W        W28890   0.278  27.155   1.717
64958W        W28891  12.831   4.727   1.897
64959W        W28892  41.473  44.006   2.859
64960W        W28893   6.262   4.372  12.548
64961W        W28894  14.762  20.114  11.485
64962W        W28895  37.988  20.685   4.636
64963W        W28896  17.655  28.958   4.684
64964W        W28897  23.012   2.285  11.070
64965W        W28898   0.479   1.866   2.273
64966W        W28899  32.082  36.462  11.468
64967W        W28900  32.081  19.717   0.294
64968W        W28901  42.028  40.339   4.140
64969W        W28902  27.166   8.854   3.863
64970W        W28903  28.627  12.733  14.011
64971W        W28904  28.968  14.652  12.433
64972W        W28905  38.926  15.291  13.893
64973W        W28906  26.591  29.128   1.383
64974W        W28907  25.668  43.990   2.679
64975W        W28908  31.623  26.128   4.289
64976W        W28909   0.264   5.849   3.775
64977W        W28910  38.000  14.766  10.982
64978W        W28911  33.572  17.150   3.701
64979W        W28912  14.138  43.316   3.147
64980W        W28913   8.860   5.712   1.771
64981W        W28914  25.117  17.742   2.321
64982W        W28915  24.082  15.818   2.795
64983W        W28916  20.739  40.389  13.921
64984W        W28917  33.505  14.272   2.415
64985W        W28918  33.066   5.759  14.430
64986W        W28919   1.437  26.676   3.278
64987W        W28920  11.374   5.312   1.261
64988W        W28921   1.763  21.565  14.405
64989W        W28922  24.698   8.663  10.954
64990W        W28923  13.825  32.609   1.900
64991W        W28924  18.702  43.998  14.980
64992W        W28925  13.648  39.357  13.906
64993W        W28926   3.875  42.379   3.790
64994W        W28927  12.702  28.086  10.899
64995W        W28928  11.665  30.553   3.868
64996W        W28929   3.388  25.710  11.108
64997W        W28930  43.272  10.865  10.439
64998W        W28931  15.616  16.730  10.444
64999W        W28932   5.777  23.724  10.992
65000W        W28933  36.915  14.317  12.877
65001W        W28934  34.411  41.043   0.749
65002W        W28935  36.497  13.270  13.939
65003W        W28936  31.542  24.101  13.404
65004W        W28937  36.936  30.625   4.244
65005W        W28938  32.462  42.787  10.939
65006W        W28939  18.285  20.264  14.506
65007W        W28940  18.607   0.888   3.752
65008W        W28941  10.643  30.647   1.406
65009W        W28942  21.750  40.531   3.201
65010W        W28943  39.414  27.951   2.208
65011W        W28944  23.729  28.972   2.337
65012W        W28945  44.906   5.201  13.363
65013W        W28946  37.856   9.651   3.361
65014W        W28947  44.977  44.892  12.019
65015W        W28948  41.318  40.862   0.325
65016W        W28949  34.948  30.612  13.315
65017W        W28950  33.013  21.572  11.561
65018W        W28951  33.915  44.272  11.446
65019W        W28952  29.450  30.937   0.393
65020W        W28953  20.710  26.617  10.953
65021W        W28954   8.199  43.955  11.575
65022W        W28955  40.812   8.260  12.854
65023W        W28956  16.162  27.666  11.524
65024W        W28957  14.706  12.829  12.474
65025W        W28958   8.232   2.314  12.895
65026W        W28959  25.182  36.367   2.732
65027W        W28960  30.040   9.863  13.449
65028W        W28961   8.181   5.777  11.536
65029W        W28962  27.605  30.636   2.881
65030W        W28963  13.784   9.863  11.114
65031W        W28964   3.867  41.528  12.002
65032W        W28965  43.870  21.091   1.828
65033W        W28966   3.286   0.961   1.932
65034W        W28967  42.944   2.914  11.501
65035W        W28968  42.374  25.700  11.473
65036W        W28969  39.538  40.532  14.409
65037W        W28970   0.479  16.779   4.246
65038W        W28971  39.405  15.818  11.867
65039W        W28972  11.824  25.593   0.769
65040W        W28973   9.153   6.194  11.556
65041W        W28974  21.227  35.878   0.416
65042W        W28975   9.714   8.341   2.358
65043W        W28976  10.648  32.477   3.237
65044W        W28977   5.707   2.434  13.842
65045W        W28978   1.326  17.144  10.900
65046W        W28979  25.509  38.424   0.420
65047W        W28980  10.349   7.201   0.380
65048W        W28981  23.508  38.462   0.755
65049W        W28982  41.862  30.159  12.919
65050W        W28983  14.687  43.902  11.094
65051W        W28984  44.902  40.990   4.139
65052W        W28985  14.815  23.039   1.228
65053W        W28986   2.335   0.781   4.641
65054W        W28987  15.796  20.181  12.001
65055W        W28988  35.001  19.567  13.357
65056W        W28989  22.726  30.911   4.707
65057W        W28990  42.307  20.598  14.307
65058W        W28991  37.938  14.103   4.618
65059W        W28992  16.149  39.380   3.759
65060W        W28993  41.808  14.130  13.354
65061W        W28994  19.705  15.260  13.046
65062W        W28995  41.805  14.173   4.329
65063W        W28996  40.478  24.997  13.811
65064W        W28997  27.465   3.919   2.307
65065W        W28998  22.088  13.679  10.565
65066W        W28999  16.646   9.335   1.911
65067W        W29000  15.678  15.666  11.874
65068W        W29001  24.163  23.544   2.248
65069W        W29002  18.248  31.621   4.352
65070W        W29003  27.968  32.100  10.069
65071W        W29004   4.911  44.485  13.337
65072W        W29005   5.299  31.432  11.436
65073W        W29006  38.510  41.796   1.796
65074W        W29007  34.093   5.217  13.417
65075W        W29008   3.371  27.670   2.691
65076W        W29009  15.115  35.401   0.345
65077W        W29010  35.566   5.333  14.893
65078W        W29011  27.147  33.613  13.847
65079W        W29012  33.545  44.981   2.255
65080W        W29013  35.420   1.922  14.335
65081W        W29014  35.091  40.375  12.563
65082W        W29015   9.365  36.589  13.386
65083W        W29016  14.823  33.900  12.037
65084W        W29017  31.009  22.011   0.833
65085W        W29018  25.700  30.512  11.065
65086W        W29019  34.933   2.458   4.625
65087W        W29020  39.418   1.819   3.788
65088W        W29021  19.592   0.941   2.373
65089W        W29022  19.668  10.873   2.751
65090W        W29023  25.641  26.566   2.770
65091W        W29024  13.330   4.875  14.026
65092W        W29025   1.256  30.572  13.821
65093W        W29026   5.294  33.535   2.789
65094W        W29027  34.999  43.805   2.398
65095W        W29028  18.718  38.530  12.845
65096W        W29029  12.777  43.427  13.325
65097W        W29030  41.006   6.915   4.272
65098W        W29031  16.222   1.847  13.494
65099W        W29032  34.427  24.140   4.329
65100W        W29033  40.868   0.367  13.380
65101W        W29034  18.114  16.616  12.381
65102W        W29035  41.360  20.764  11.405
65103W        W29036  42.930  39.534  14.915
65104W        W29037  42.940  11.748   1.746
65105W        W29038   7.188  27.001   0.304
65106W        W29039  22.247   0.764   0.881
65107W        W29040  10.855  20.270  14.468
65108W        W29041  17.662  39.409   3.768
65109W        W29042  20.177   4.789  12.985
65110W        W29043  32.628  29.452  11.374
65111W        W29044  38.408   6.278  12.877
65112W        W29045   5.226  40.449  10.984
65113W        W29046  12.209   7.350  11.390
65114W        W29047  22.249  13.672  10.954
65115W        W29048  31.537  31.954   0.793
65116W        W29049  35.577  39.403   3.322
65117W        W29050   8.197  37.050  11.399
65118W        W29051  21.707  32.478  13.976
65119W        W29052  19.624   2.924   1.775
65120W        W29053   7.690  26.147  11.542
65121W        W29054  21.657  40.970  13.960
65122W        W29055  21.172   7.304   2.748
65123W        W29056  28.967  35.057   1.433
65124W        W29057  13.722  11.209  12.022
65125W        W29058   2.956  13.122  14.436
65126W        W29059   8.345  43.387  12.471
65127W        W29060  20.264  43.308   3.784
65128W        W29061  30.002  28.558   0.327
65129W        W29062  33.510  10.259  11.579
65130W        W29063  17.561  15.593   4.225
65131W        W29064   4.750  32.028   1.250
65132W        W29065  30.555  32.636  14.362
65133W        W29066  34.421  16.778  12.359
65134W        W29067  15.270  14.141  12.996
65135W        W29068  26.171  39.493  14.002
65136W        W29069  13.109  26.006  11.924
65137W        W29070  42.320  38.933   2.801
65138W        W29071  34.563  36.428   4.645
65139W        W29072  25.691  35.564  14.505
65140W        W29073  40.949  13.207   3.853
65141W        W29074  39.429   8.397  11.912
65142W        W29075  31.527  32.601   4.131
65143W        W29076  29.156  13.223   4.739
65144W        W29077  21.552  35.436   0.331
65145W        W29078  20.036   8.322  14.385
65146W        W29079  30.926  40.366  11.379
65147W        W29080  19.687  26.594  12.954
65148W        W29081  38.544  16.106  14.389
65149W        W29082  37.390  21.092   0.255
65150W        W29083  10.190   6.824  11.062
65151W        W29084  16.673  35.989  13.791
65152W        W29085   3.267  34.520  14.360
65153W        W29086  36.052   0.262  14.299
65154W        W29087  29.068   8.772   2.325
65155W        W29088  20.220  30.532   4.294
65156W        W29089  22.672   7.879   3.330
65157W        W29090  37.451  36.861   4.620
65158W        W29091  38.884  36.536  11.410
65159W        W29092  19.250  30.072   1.216
65160W        W29093   8.835   4.446   5.085
65161W        W29094  11.685  41.390   2.823
65162W        W29095   6.220  23.532   9.440
65163W        W29096  33.974   4.725  11.894
65164W        W29097  18.134  12.244   4.678
65165W        W29098  22.524  28.166   0.438
65166W        W29099  41.341  10.762  11.118
65167W        W29100  27.101  12.697   2.714
65168W        W29101  35.532  10.256  12.481
65169W        W29102   6.894  17.062   0.904
65170W        W29103  12.145   4.427  11.992
65171W        W29104  17.759  28.501   4.687
65172W        W29105  36.500  42.839  11.110
65173W        W29106   9.167  35.368  10.958
65174W        W29107  38.858  44.323   3.636
65175W        W29108  41.442  42.851   4.645
65176W        W29109  30.055  29.929   2.836
65177W        W29110   2.823  21.247  13.488
65178W        W29111  17.727  27.625  12.437
65179W        W29112   0.480  13.140   3.287
65180W        W29113   2.243  36.536  12.369
65181W        W29114  28.595   9.168   0.440
65182W        W29115   9.308  32.412  12.923
65183W        W29116  35.934  24.176  11.515
65184W        W29117  25.158  33.602  14.286
65185W        W29118  11.637  33.012   0.478
65186W        W29119  34.389  34.520  14.831
65187W        W29120  42.028  31.447   4.198
65188W        W29121  21.655   9.680  11.450
65189W        W29122  11.855  15.280  13.981
65190W        W29123  41.523  35.588  14.774
65191W        W29124  40.863   3.275   1.874
65192W        W29125  18.196   3.437  13.438
65193W        W29126  36.557  44.280  12.853
65194W        W29127   6.289   3.715   0.375
65195W        W29128  40.836  14.215  12.910
65196W        W29129  21.196  40.050   4.749
65197W        W29130  14.127  12.235   3.847
65198W        W29131  27.653  14.695   1.326
65199W        W29132   6.789   1.924  11.986
65200W        W29133  13.166  26.008   3.301
65201W        W29134  29.025  23.709  13.010
65202W        W29135  23.716  30.991  11.098
65203W        W29136  33.964  16.130   1.742
65204W        W29137  40.498  37.027   4.346
65205W        W29138   9.685   6.774  14.502
65206W        W29139  33.127  32.416   0.305
65207W        W29140  27.024   7.670  11.045
65208W        W29141   6.344  26.560  11.426
65209W        W29142  12.161  13.138   2.366
65210W        W29143  20.656  39.977   4.339
65211W        W29144  24.525  15.631   3.370
65212W        W29145  16.071  33.040  13.031
65213W        W29146  23.653  33.025   4.734
65214W        W29147  40.812  29.052  13.518
65215W        W29148  28.000   0.344   1.695
65216W        W29149   4.323  11.783  12.426
65217W        W29150   0.453  16.173  11.513
65218W        W29151   0.299   1.946  12.555
65219W        W29152  35.600  18.242   1.722
65220W        W29153  32.109   1.848  13.980
65221W        W29154  24.194  32.000   3.158
65222W        W29155  20.523  28.466   4.125
65223W        W29156  24.132  34.512   2.901
65224W        W29157  29.985   6.342   3.224
65225W        W29158  21.643  19.113   3.345
65226W        W29159  42.498  28.018  13.441
65227W        W29160   6.792   0.962   2.833
65228W        W29161  25.124   0.782  13.836
65229W        W29162  32.928  27.066  11.418
65230W        W29163  31.417  25.122  12.580
65231W        W29164  28.160  38.472  12.017
65232W        W29165  24.037  27.509   4.643
65233W        W29166  28.137  42.284   1.784
65234W        W29167  12.636   8.315  12.095
65235W        W29168  40.846  43.899  12.566
65236W        W29169   2.461  44.273   5.257
65237W        W29170  24.225   9.311   4.772
65238W        W29171   9.394   3.229  14.790
65239W        W29172  27.551  18.057   4.691
65240W        W29173   7.859  35.094   0.776
65241W        W29174  18.787   6.893  10.467
65242W        W29175  13.636  39.041  13.394
65243W        W29176  43.338  44.342   1.419
65244W        W29177  42.473  29.073   4.323
65245W        W29178  26.051  28.619   3.735
65246W        W29179   0.325  42.383   4.801
65247W        W29180  20.699  38.561   2.328
65248W        W29181  23.630  33.909   0.831
65249W        W29182  24.126  29.950  13.442
65250W        W29183  40.045  14.806   1.747
65251W        W29184  31.616  41.364   0.447
65252W        W29185  16.234  42.384   4.752
65253W        W29186  28.436   2.304   0.291
65254W        W29187  11.322  27.073  10.423
65255W        W29188  29.640  28.676  14.291
65256W        W29189   2.782  24.608  13.412
65257W        W29190   9.828   5.865   3.805
65258W        W29191  29.643   4.881   1.767
65259W        W29192  41.031  11.294  11.512
65260W        W29193  29.439  21.683  10.412
65261W        W29194  11.224  40.855   3.820
65262W        W29195  29.167  18.236   2.247
65263W        W29196   9.253   2.963   0.902
65264W        W29197  28.528  20.653   4.223
65265W        W29198  38.006  10.838  11.517
65266W        W29199  43.765  32.053  12.001
65267W        W29200   9.650  21.201   0.422
65268W        W29201  24.510  38.031  13.022
65269W        W29202  31.631  29.657  14.355
65270W        W29203  16.731  24.569   3.361
65271W        W29204   4.896  29.052  14.965
65272W        W29205   7.736  30.119  10.606
65273W        W29206   5.382   6.351   2.406
65274W        W29207  12.634  14.144   2.408
65275W        W29208  18.592   2.887   4.135
65276W        W29209   9.674  26.640  11.869
65277W        W29210  13.238  21.535  13.805
65278W        W29211  19.551  39.846  10.141
65279W        W29212  13.685  35.525   1.825
65280W        W29213  20.760  36.947   4.336
65281W        W29214  21.734  30.952   3.643
65282W        W29215  31.487  20.599  12.052
65283W        W29216  30.471  13.218   2.260
65284W        W29217   0.271  24.624  13.917
65285W        W29218  12.633  28.570   0.357
65286W        W29219  17.676   2.746   4.650
65287W        W29220  25.062  28.163  12.377
65288W        W29221  40.024  23.014   2.302
65289W        W29222  20.225   4.285   1.878
65290W        W29223  39.417   8.768   0.943
65291W        W29224  17.580  16.236   0.910
65292W        W29225  30.568  18.572  10.497
65293W        W29226  32.465  36.090   2.810
65294W        W29227  20.100   3.397   2.310
65295W        W29228  42.478  10.359   2.883
65296W        W29229  17.164  35.952  14.338
65297W        W29230  26.985  20.738  12.399
65298W        W29231  11.144   7.177  11.520
65299W        W29232  13.320  40.958   3.811
65300W        W29233  40.345  37.386  12.994
65301W        W29234  28.089  19.176  11.939
65302W        W29235  44.372  37.053  10.913
65303W        W29236  35.423  22.063  11.546
65304W        W29237   0.293  38.428   0.283
65305W        W29238  29.555  28.586  10.507
65306W        W29239  32.467  22.094  11.114
65307W        W29240  38.856  32.137   1.361
65308W        W29241  37.956  38.027  11.499
65309W        W29242  29.124  40.987  11.875
65310W        W29243  26.062  43.500  13.798
65311W        W29244   6.742  24.002  10.579
65312W        W29245  14.226  39.492   1.321
65313W        W29246  12.198  38.018  13.357
65314W        W29247  37.892  10.825  10.457
65315W        W29248   1.335   6.763  13.000
65316W        W29249   4.290  27.494  14.902
65317W        W29250  41.364   3.442  11.422
65318W        W29251  23.602  24.978  12.870
65319W        W29252  29.620  17.632  14.346
65320W        W29253  19.198  36.886   2.673
65321W        W29254  16.594   8.717   2.282
65322W        W29255   2.832  34.517  13.498
65323W        W29256  34.056   1.441   1.754
65324W        W29257  14.786  22.153   3.800
65325W        W29258  21.051  24.045  12.502
65326W        W29259  27.021  24.660   1.799
65327W        W29260   3.757  14.213  13.826
65328W        W29261  18.176  30.424  14.761
65329W        W29262  18.677  43.486   0.901
65330W        W29263   2.862  39.329  14.959
65331W        W29264  17.780  10.866  11.600
65332W        W29265  40.873  27.671  12.002
65333W        W29266   1.448  43.005  11.413
65334W        W29267  25.690  10.721   1.904
65335W        W29268   8.179  14.704   0.759
65336W        W29269  44.937  18.264  13.806
65337W        W29270  28.134  32.935   2.767
65338W        W29271   4.907  34.593  10.584
65339W        W29272  28.539  32.912   0.301
65340W        W29273  42.444  12.322   1.916
65341W        W29274  35.967  34.950  10.445
65342W        W29275   0.871  39.990  14.459
65343W        W29276   7.292  29.567   0.312
65344W        W29277  25.005   1.757  13.395
65345W        W29278  33.441  39.923  11.026
65346W        W29279  24.550  19.052   4.217
65347W        W29280  41.801  10.795   3.824
65348W        W29281  24.600  11.727   2.400
65349W        W29282   7.362  16.782  14.980
65350W        W29283  35.595  44.919   4.696
65351W        W29284  25.992  19.624  10.580
65352W        W29285  39.870  15.605  10.992
65353W        W29286  36.083   2.368  14.420
65354W        W29287   7.409  43.371  11.920
65355W        W29288  40.039  23.500  12.929
65356W        W29289  22.160  16.658  14.997
65357W        W29290  21.105  26.004  13.898
65358W        W29291  25.578  26.558  13.501
65359W        W29292  25.176  30.934  13.482
65360W        W29293  38.474  13.649  14.339
65361W        W29294   3.333  11.255   3.752
65362W        W29295  39.338  12.630  13.046
65363W        W29296  26.967  36.891   1.790
65364W        W29297  24.570  18.057  13.938
65365W        W29298   2.353  32.436   0.245
65366W        W29299  37.540  43.772  11.047
65367W        W29300  15.244  42.972   3.258
65368W        W29301  35.974  25.075  13.791
65369W        W29302  35.937  23.719   4.284
65370W        W29303  31.096   2.293  12.020
65371W        W29304  40.383  21.212   5.116
65372W        W29305  40.507   1.247  13.372
65373W        W29306   3.422  26.586   5.183
65374W        W29307  23.125   9.782   0.384
65375W        W29308  23.988  20.583  12.443
65376W        W29309  28.518  21.092  12.393
65377W        W29310   7.758  20.143  12.086
65378W        W29311   1.918  10.811  13.344
65379W        W29312  32.105  17.171   4.707
65380W        W29313  15.173  37.967  10.102
65381W        W29314  44.933  26.147   1.887
65382W        W29315  42.292  29.101   3.311
65383W        W29316   6.846  19.699   0.906
65384W        W29317  23.574  44.806  13.508
65385W        W29318   3.952  33.559  14.791
65386W        W29319  34.101  11.645  10.077
65387W        W29320  23.551  28.018   0.430
65388W        W29321   6.287  12.699  11.923
65389W        W29322  40.389  21.200  13.817
65390W        W29323  26.641   9.770   2.891
65391W        W29324  20.731   3.451   2.343
65392W        W29325  20.161   3.370   9.985
65393W        W29326  37.512   2.441  13.885
65394W        W29327  33.975  12.757   1.890
65395W        W29328  29.582   9.175  11.572
65396W        W29329  15.717  29.585   4.692
65397W        W29330  25.642  40.807  11.458
65398W        W29331  34.900  10.178   3.748
65399W        W29332  35.930  23.141  14.993
65400W        W29333  32.464  39.351   0.751
65401W        W29334   6.230  23.614   2.228
65402W        W29335  43.499  37.343  14.834
65403W        W29336  24.976  31.648   1.711
65404W        W29337  14.743  37.980  12.893
65405W        W29338   1.876  21.626   3.756
65406W        W29339  37.576  17.653   0.904
65407W        W29340  42.411  26.093  13.530
65408W        W29341  10.728  43.016   3.184
65409W        W29342  35.365  33.546   4.198
65410W        W29343  37.382   3.892   1.443
65411W        W29344  32.459  34.586  13.870
65412W        W29345   5.762  15.580  10.912
65413W        W29346  18.596  43.915   4.749
65414W        W29347  18.177  15.703   1.410
65415W        W29348  43.506  38.893  13.918
65416W        W29349  17.223  36.987   2.400
65417W        W29350  31.993   2.414   2.187
65418W        W29351  11.157  32.894  14.794
65419W        W29352   4.423  44.951  10.474
65420W        W29353  36.570  40.022  14.433
65421W        W29354  41.391   1.748   3.274
65422W        W29355  32.004   3.330  12.912
65423W        W29356   6.750  26.620   3.690
65424W        W29357  39.442  41.985  12.044
65425W        W29358  43.360  10.380  13.326
65426W        W29359   2.754  37.543   3.264
65427W        W29360  27.012  16.177  13.805
65428W        W29361  19.605   0.783  12.881
65429W        W29362   9.225  11.630   4.629
65430W        W29363  12.684   7.299   1.892
65431W        W29364  34.924   5.917  10.044
65432W        W29365   4.317  18.210   1.891
65433W        W29366  15.219  31.978  11.122
65434W        W29367  39.333  26.974   3.824
65435W        W29368  35.460   2.407   3.748
65436W        W29369   1.948  10.764  11.909
65437W        W29370  33.874  10.273   3.705
65438W        W29371  26.165  13.741  14.963
65439W        W29372   0.854   4.343  14.358
65440W        W29373  31.080  33.563   2.835
65441W        W29374  14.604   4.226  12.918
65442W        W29375  25.170   0.874   2.264
65443W        W29376  16.722  23.538  11.125
65444W        W29377   7.335  31.602   2.738
65445W        W29378  17.697  39.036   2.236
65446W        W29379  14.621  31.989  14.300
65447W        W29380  22.627  14.594   0.372
65448W        W29381  34.397   1.385  10.538
65449W        W29382  43.395  13.688  13.950
65450W        W29383   1.369  44.805  14.942
65451W        W29384  33.515  36.050  14.995
65452W        W29385  28.451  24.018   3.643
65453W        W29386   9.351  13.336  12.873
65454W        W29387  18.657  27.983  13.531
65455W        W29388  16.744  20.096  12.405
65456W        W29389  36.844  36.032   1.713
65457W        W29390   2.927  43.288  12.367
65458W        W29391   1.342  32.016  10.638
65459W        W29392   7.378   8.820  11.504
65460W        W29393  19.208  39.859  13.902
65461W        W29394  14.758  36.021  11.028
65462W        W29395  44.296  22.191   3.784
65463W        W29396  27.045  43.498  12.550
65464W        W29397  23.683  28.665  14.762
65465W        W29398  33.616  40.492  12.012
65466W        W29399  19.606   8.382   4.686
65467W        W29400  35.424  23.166  11.428
65468W        W29401   3.285  31.045   3.198
65469W        W29402   8.249   0.360   0.254
65470W        W29403   6.903  36.844  13.352
65471W        W29404  44.293  27.499  11.478
65472W        W29405  28.102  20.097  13.859
65473W        W29406   1.316  14.741   1.425
65474W        W29407  41.313  31.052   4.228
65475W        W29408   9.819  13.162  13.811
65476W        W29409  44.377  42.449  14.764
65477W        W29410  38.066  21.191  11.118
65478W        W29411  22.071  15.308   0.940
65479W        W29412   8.774   7.750  11.933
65480W        W29413  44.389  23.587   4.687
65481W        W29414  19.617  29.549   5.146
65482W        W29415  19.628  24.518   0.889
65483W        W29416   4.886  29.438  11.477
65484W        W29417  12.155  37.518  14.341
65485W        W29418  36.048  35.429  12.451
65486W        W29419  10.757  35.937  13.031
65487W        W29420  17.656  30.072  14.434
65488W        W29421  20.241  20.035  13.514
65489W        W29422  27.189  12.648   4.691
65490W        W29423  26.596  30.556  12.844
65491W        W29424   2.298  28.180  14.461
65492W        W29425  33.512  34.561   2.689
65493W        W29426  30.072  41.498  14.777
65494W        W29427  41.025  26.057  14.436
65495W        W29428  28.644   9.387  12.996
65496W        W29429  40.442  10.655   0.870
65497W        W29430   1.853  19.169   2.322
65498W        W29431  17.268  38.966   2.309
65499W        W29432  23.637  24.651   3.151
65500W        W29433  12.829   0.271  14.430
65501W        W29434  41.908  33.051   1.716
65502W        W29435  44.817  34.927  10.422
65503W        W29436  35.474   7.859  10.629
65504W        W29437  27.057  29.053  11.558
65505W        W29438  36.001  22.720   3.670
65506W        W29439   2.455  37.548   3.637
65507W        W29440  27.029  28.643  12.346
65508W        W29441  15.777  38.413   0.921
65509W        W29442   0.963   4.360   0.732
65510W        W29443  36.390   2.396   2.670
65511W        W29444  25.505  13.346  11.605
65512W        W29445   4.791  41.361   2.379
65513W        W29446  34.893   7.730  12.844
65514W        W29447  33.534   9.213   9.978
65515W        W29448  22.719  40.945   4.144
65516W        W29449  36.473   1.859   2.804
65517W        W29450  24.569  32.586  14.866
65518W        W29451  31.139  43.377  13.334
65519W        W29452  42.382  17.785   4.694
65520W        W29453  39.828  24.117  10.543
65521W        W29454  20.162   1.784   3.765
65522W        W29455  42.334  33.458  13.529
65523W        W29456  30.115  19.269   3.249
65524W        W29457   9.274  20.172   4.697
65525W        W29458   4.814  33.050   1.417
65526W        W29459  14.612  39.378   3.169
65527W        W29460  31.119  35.027   1.849
65528W        W29461  44.813  30.525  14.992
65529W        W29462  11.334   1.378   4.293
65530W        W29463  19.261  16.118  14.320
65531W        W29464  24.664  16.637  11.110
65532W        W29465  40.898  23.684   4.139
65533W        W29466  37.884  30.072  14.498
65534W        W29467  40.808  22.569   0.939
65535W        W29468  16.598  16.722  13.479
65536W        W29469  29.497  18.216  14.761
65537W        W29470   2.938  17.262  11.427
65538W        W29471   8.224  34.610  13.936
65539W        W29472  33.431  15.784  12.404
65540W        W29473  24.722   9.816  12.058
65541W        W29474  17.141  35.359  14.930
65542W        W29475  30.514  35.421   1.796
65543W        W29476  12.832  15.593  12.910
65544W        W29477   1.410  28.080  10.917
65545W        W29478   7.314   8.782   1.281
65546W        W29479  40.914   7.772  13.425
65547W        W29480   1.854  12.643   3.342
65548W        W29481  32.590  13.200   3.784
65549W        W29482  13.625  30.586   3.202
65550W        W29483  10.744  27.179   4.222
65551W        W29484  33.519  15.750  13.811
65552W        W29485  26.122   5.321  13.355
65553W        W29486  12.803  42.003   2.252
65554W        W29487  37.965   1.755  12.517
65555W        W29488  34.980  30.012  13.010
65556W        W29489   1.740  15.747   1.251
65557W        W29490  38.461  32.592  13.544
65558W        W29491  20.560  18.187  14.350
65559W        W29492   5.379  16.740  14.499
65560W        W29493   9.266  44.923  10.501
65561W        W29494  27.468  25.082  13.461
65562W        W29495   4.395  15.697   4.778
65563W        W29496  29.094   5.782   3.750
65564W        W29497  12.209  37.001  13.815
65565W        W29498  42.857  27.500   4.279
65566W        W29499  20.657  33.936  13.859
65567W        W29500  13.291  40.303   2.863
65568W        W29501  41.795   7.798  13.347
65569W        W29502  17.113   0.422   3.197
65570W        W29503  20.689  14.204  10.565
65571W        W29504   1.825  13.235   1.450
65572W        W29505   7.222  33.924  13.963
65573W        W29506  43.455  35.590   2.903
65574W        W29507  11.208  30.463   0.388
65575W        W29508  27.492  27.478  11.476
65576W        W29509  18.166  25.587  13.996
65577W        W29510   8.391   2.312  10.489
65578W        W29511  12.149   8.244   4.193
65579W        W29512   3.783  35.573  10.441
65580W        W29513  30.547  32.120   0.957
65581W        W29514  17.186   0.914   1.228
65582W        W29515  12.689  22.735  11.548
65583W        W29516  21.675  32.082   2.737
65584W        W29517   4.748  22.691  14.806
65585W        W29518   6.702  22.682  11.079
65586W        W29519  42.484   6.812  13.939
65587W        W29520  28.155  15.130  14.400
65588W        W29521  17.086  41.041  14.433
65589W        W29522  16.187  44.417   0.764
65590W        W29523  27.518  18.680   3.284
65591W        W29524  34.060   6.225  11.951
65592W        W29525  19.075  37.977  12.023
65593W        W29526  42.316  14.274  13.948
65594W        W29527  21.605  25.066  10.470
65595W        W29528  42.828  32.609   1.324
65596W        W29529  41.021   4.328   4.344
65597W        W29530  28.643   2.427  11.603
65598W        W29531  41.329  25.533   4.627
65599W        W29532  14.698  18.584   2.292
65600W        W29533  42.488  11.837  10.527
65601W        W29534   0.388  30.448   3.640
65602W        W29535   1.756  40.475  12.410
65603W        W29536   4.420   8.702   3.801
65604W        W29537  11.287   4.352  14.816
65605W        W29538  12.854   2.301  12.079
65606W        W29539   4.712  35.090  13.521
65607W        W29540  19.738  39.045  11.889
65608W        W29541  33.121  32.473  12.432
65609W        W29542  29.037   9.808  14.996
65610W        W29543  19.536   9.241  13.821
65611W        W29544  31.627  25.692  10.947
65612W        W29545   7.711  24.677   2.243
65613W        W29546  31.493   8.164   3.281
65614W        W29547  10.861  28.482  14.984
65615W        W29548   8.351  36.923  12.965
65616W        W29549  44.277   5.925  10.107
65617W        W29550  14.230   4.357   0.798
65618W        W29551  40.851  15.609  11.517
65619W        W29552  40.351  26.658  11.969
65620W        W29553  31.535   4.909   4.145
65621W        W29554  26.507  25.582   2.682
65622W        W29555  32.025   1.351  13.509
65623W        W29556  21.606  12.189   5.124
65624W        W29557  33.405  16.198   3.741
65625W        W29558  25.675  23.676  13.868
65626W        W29559  20.601   0.818   1.725
65627W        W29560  25.137  13.707   2.811
65628W        W29561  24.605  20.721  11.931
65629W        W29562  31.459  41.464   4.824
65630W        W29563   3.264  24.098  13.910
65631W        W29564  36.411   6.707  11.597
65632W        W29565  43.787  19.134   4.289
65633W        W29566  14.640   4.425   2.700
65634W        W29567  42.873   0.486  14.286
65635W        W29568   7.383  35.572   2.755
65636W        W29569   7.722   5.730  11.464
65637W        W29570  11.854  24.051  14.420
65638W        W29571  42.918  20.251   2.202
65639W        W29572  31.578  26.998   1.400
65640W        W29573  29.078  22.095   1.764
65641W        W29574  15.133   0.248  13.939
65642W        W29575  23.665  28.975  13.435
65643W        W29576  22.509  11.681   2.723
65644W        W29577  21.076  39.924   2.313
65645W        W29578   3.834  28.184   4.689
65646W        W29579   4.362  28.132   4.268
65647W        W29580  14.274  35.946   4.186
65648W        W29581  32.393  23.145   3.672
65649W        W29582  25.122  23.022   1.907
65650W        W29583  38.829   8.213  11.928
65651W        W29584   3.902  36.983   2.398
65652W        W29585  43.821  31.917  14.462
65653W        W29586  35.400  31.998   2.661
65654W        W29587  42.309  17.786  11.510
65655W        W29588  26.037  34.116  13.900
65656W        W29589   5.199  31.135  10.582
65657W        W29590   7.802  32.140  12.023
65658W        W29591   4.419  27.549   4.146
65659W        W29592  21.021  36.074  11.116
65660W        W29593  35.398  43.012   4.830
65661W        W29594   8.771  40.834   0.260
65662W        W29595  43.775  26.662   5.152
65663W        W29596  33.469   5.319  11.116
65664W        W29597  12.811  40.498   4.618
65665W        W29598  35.969  18.051  14.449
65666W        W29599  26.605  12.730  13.010
65667W        W29600  15.300  28.647   2.832
65668W        W29601   0.264  40.879  13.343
65669W        W29602   0.463   0.963  11.044
65670W        W29603  13.736  36.541   2.680
65671W        W29604  30.051  43.932  14.950
65672W        W29605  44.788  24.126  11.484
65673W        W29606  35.074   7.350  10.493
65674W        W29607   2.907  22.156  14.339
65675W        W29608  20.047  10.238   4.321
65676W        W29609  33.465   4.389  12.851
65677W        W29610  40.532  44.860   1.231
65678W        W29611   1.428  17.288   0.290
65679W        W29612  14.642  14.266  11.938
65680W        W29613  42.903  20.712  12.076
65681W        W29614   0.884  16.223   0.244
65682W        W29615  25.522  11.215  11.382
65683W        W29616  40.947   1.272   4.683
65684W        W29617  34.118  38.852   2.691
65685W        W29618  18.584  36.881   1.379
65686W        W29619  21.517  30.918  11.576
65687W        W29620  12.237  28.606  13.825
65688W        W29621  33.948  39.479   4.757
65689W        W29622  30.954  15.117  13.959
65690W        W29623  12.682  34.994  13.844
65691W        W29624  13.331  38.558   2.386
65692W        W29625   9.197  21.644  13.971
65693W        W29626  33.901  17.687   4.740
65694W        W29627  39.837  39.398  11.465
65695W        W29628   6.331  15.180   0.840
65696W        W29629  16.759   1.292   3.834
65697W        W29630  12.160  43.463  13.802
65698W        W29631  22.515  32.093  10.567
65699W        W29632   6.305   6.235  13.491
65700W        W29633  16.692  16.779  12.901
65701W        W29634  40.478  34.092  10.525
65702W        W29635  23.091  25.991   0.348
65703W        W29636  34.990  12.823  10.458
65704W        W29637  23.124  42.831  11.481
65705W        W29638   9.745  18.216   2.299
65706W        W29639   6.716  20.662   0.909
65707W        W29640  42.297  25.207   3.156
65708W        W29641  25.710   1.475   0.433
65709W        W29642  42.400  31.063  11.380
65710W        W29643  31.059  23.143   3.344
65711W        W29644   7.352  36.080  11.940
65712W        W29645  23.141  40.017  13.390
65713W        W29646  38.562  15.264  12.072
65714W        W29647  13.669  24.555  12.460
65715W        W29648  10.227  10.872  10.599
65716W        W29649  28.559  32.594  12.906
65717W        W29650  36.918  16.611  14.896
65718W        W29651  19.576  42.948  11.602
65719W        W29652  11.339  37.839  12.567
65720W        W29653   4.235  16.662  10.522
65721W        W29654  35.441  42.333  10.986
65722W        W29655  34.534  29.434  13.943
65723W        W29656  36.425  35.934  11.859
65724W        W29657  14.786  13.804   2.214
65725W        W29658   0.939  26.123   4.317
65726W        W29659  36.487  44.759  13.455
65727W        W29660  15.093   4.872   9.508
65728W        W29661  26.638  10.204   5.301
65729W        W29662  31.957  41.404   2.331
65730W        W29663  22.724   9.870  13.950
65731W        W29664  33.943  40.986   0.446
65732W        W29665  11.721  39.915  14.388
65733W        W29666  39.012  20.609   1.873
65734W        W29667  44.818  14.228  11.374
65735W        W29668  39.353  33.986  12.938
65736W        W29669  41.999   0.368   3.823
65737W        W29670  34.973  27.684   0.243
65738W        W29671  19.057  30.623  14.782
65739W        W29672  19.227  15.169  12.981
65740W        W29673  28.459  25.635  12.957
65741W        W29674   7.246   5.402   1.934
65742W        W29675  28.621  40.801   4.165
65743W        W29676  36.411  42.389  12.523
65744W        W29677  28.994   4.761   4.766
65745W        W29678  38.557  36.519   0.413
65746W        W29679  25.973  15.145  12.989
65747W        W29680   1.265  44.810  14.345
65748W        W29681  36.096   7.216   4.214
65749W        W29682  22.501  25.994   2.732
65750W        W29683   6.365  27.688   1.861
65751W        W29684  11.758   7.872   1.928
65752W        W29685   9.882   9.708   1.297
65753W        W29686  24.168   0.260  13.450
65754W        W29687  29.121  31.980  13.904
65755W        W29688  12.690  41.821   1.703
65756W        W29689  33.441  11.266   5.131
65757W        W29690  39.364  30.616   0.863
65758W        W29691   8.332   5.424   2.418
65759W        W29692  25.184  37.416   4.258
65760W        W29693   3.337  43.286   2.188
65761W        W29694  14.255   2.855  13.409
65762W        W29695  38.452  16.106  12.496
65763W        W29696   9.846  39.424   0.731
65764W        W29697  16.152  21.665   1.326
65765W        W29698   4.441  12.257  14.477
65766W        W29699  33.408  40.847  12.359
65767W        W29700  31.989  40.479  14.288
65768W        W29701  27.976  17.109   2.868
65769W        W29702  44.268  16.150   4.228
65770W        W29703   0.260   5.720   2.294
65771W        W29704  38.517  11.237   1.379
65772W        W29705  12.298  26.456  10.988
65773W        W29706  44.471  26.173   0.847
65774W        W29707   4.444  25.046   2.738
65775W        W29708  42.425  20.660   1.312
65776W        W29709  25.694  17.645  14.794
65777W        W29710  14.331   7.742  12.848
65778W        W29711  34.983  19.070   0.375
65779W        W29712   3.438  21.091   4.244
65780W        W29713  12.744  10.798   0.805
65781W        W29714  28.936  36.355  11.392
65782W        W29715   6.420   3.453  14.408
65783W        W29716   4.746  24.058   0.272
65784W        W29717  23.517  30.448   4.300
65785W        W29718  42.882   2.311   4.695
65786W        W29719  14.736  43.469  14.824
65787W        W29720   1.850  25.579   0.427
65788W        W29721  14.230  44.985  14.926
65789W        W29722  29.653  35.373  11.514
65790W        W29723  11.750   7.362   0.387
65791W        W29724  10.677   0.249  13.940
65792W        W29725  17.156   4.331  13.430
65793W        W29726  23.035  44.840  10.531
65794W        W29727  27.458  11.654   0.442
65795W        W29728   7.383   9.786  14.771
65796W        W29729   9.858  37.517   1.407
65797W        W29730   1.315  20.149   0.458
65798W        W29731  15.671   2.449  14.331
65799W        W29732  19.222  36.488   2.710
65800W        W29733  43.450  43.384  13.361
65801W        W29734   9.317  40.985   1.822
65802W        W29735  20.214  30.432  14.310
65803W        W29736  25.604  17.647   3.197
65804W        W29737  12.823  24.188  11.859
65805W        W29738  15.800   2.908  11.916
65806W        W29739  12.212   8.664  12.077
65807W        W29740  24.198  21.249   1.355
65808W        W29741  17.776  23.152  14.031
65809W        W29742  23.729  31.044   4.813
65810W        W29743   8.834  29.650   3.216
65811W        W29744  20.585  12.345  12.090
65812W        W29745  22.672  37.521   1.713
65813W        W29746  10.669  40.502   1.894
65814W        W29747  40.946   2.880   4.662
65815W        W29748  44.967  36.988  14.903
65816W        W29749  27.959  24.101   4.692
65817W        W29750  28.139  14.799   0.436
65818W        W29751   9.857  18.699   0.394
65819W        W29752  39.943  37.362   0.394
65820W        W29753  22.182  35.510  10.916
65821W        W29754  17.250  30.638  10.543
65822W        W29755  25.987  21.077  10.423
65823W        W29756  23.174  22.662  10.474
65824W        W29757  34.606  24.609   2.240
65825W        W29758   2.380  44.274   1.401
65826W        W29759  28.656  43.861   2.679
65827W        W29760  17.767  29.115  13.363
65828W        W29761  21.247  12.144  12.044
65829W        W29762  44.803  39.001  14.497
65830W        W29763  30.980  34.488   3.188
65831W        W29764  38.363  38.543  13.794
65832W        W29765  17.573  36.965   1.383
65833W        W29766   9.762   0.358   1.927
65834W        W29767  28.446  27.104  11.081
65835W        W29768  12.207  16.213   3.650
65836W        W29769  28.089  11.752  13.314
65837W        W29770  27.624  37.952  12.480
65838W        W29771  34.864  43.947  12.877
65839W        W29772  17.250  29.541   0.810
65840W        W29773  42.853  29.647  12.455
65841W        W29774  31.901  29.165  13.993
65842W        W29775  16.714  26.535   1.887
65843W        W29776   1.374  38.006  14.020
65844W        W29777   7.670  26.078   0.859
65845W        W29778  35.095  23.671  13.987
65846W        W29779  19.586  32.507  14.463
65847W        W29780  15.173   3.457   0.758
65848W        W29781  21.227   5.400  10.520
65849W        W29782   3.756   5.274   5.250
65850W        W29783  19.142  19.660  13.901
65851W        W29784  22.243  43.389  14.811
65852W        W29785  44.849  20.608   0.924
65853W        W29786  33.613  16.783   4.239
65854W        W29787  18.244  44.291  14.286
65855W        W29788  22.209  30.059   0.823
65856W        W29789  38.956  39.842   2.782
65857W        W29790   2.819  28.439   4.619
65858W        W29791  24.666  30.426   0.893
65859W        W29792   6.785  23.007   9.474
65860W        W29793  34.471  18.645  14.014
65861W        W29794  33.908  22.732  12.399
65862W        W29795  33.615  39.350   1.779
65863W        W29796  12.747  26.051  14.840
65864W        W29797  14.654  42.386   0.475
65865W        W29798  30.057  44.849   3.805
65866W        W29799  37.054   7.890  13.483
65867W        W29800   5.766  34.931  14.287
65868W        W29801  22.568  26.569  14.340
65869W        W29802  17.149  10.223   5.242
65870W        W29803  32.589  25.500   1.388
65871W        W29804  21.209   4.291  14.333
65872W        W29805  26.100   4.862  12.398
65873W        W29806  28.479  38.456   0.813
65874W        W29807  38.489  28.498   2.703
65875W        W29808  22.201   5.300   0.775
65876W        W29809  36.418  26.002   1.775
65877W        W29810  35.387   2.772   4.151
65878W        W29811  20.716  26.576   0.288
65879W        W29812  16.216  10.711  11.584
65880W        W29813  27.508  27.086   2.858
65881W        W29814  26.495  37.037   3.660
65882W        W29815  24.532   3.882   1.418
65883W        W29816   4.330  18.777  12.048
65884W        W29817  16.299  37.977  12.985
65885W        W29818  29.433  23.188   4.600
65886W        W29819  39.352   6.749  13.487
65887W        W29820  43.478  19.178   0.394
65888W        W29821   6.838  36.400  13.988
65889W        W29822  40.812  28.953   1.895
65890W        W29823  37.977  17.798   1.414
65891W        W29824  44.857  10.168  13.989
65892W        W29825   4.413  13.761   4.129
65893W        W29826   9.201  34.053   2.261
65894W        W29827  12.320  21.069   2.296
65895W        W29828  13.260   4.424  10.038
65896W        W29829  19.707  11.634  13.439
65897W        W29830  12.226  37.886  11.021
65898W        W29831   5.340  16.271   3.787
65899W        W29832  17.107  36.562  14.777
65900W        W29833  17.731  21.158   4.278
65901W        W29834   6.377  16.644  10.477
65902W        W29835  17.575  16.652   0.299
65903W        W29836  22.046  25.000   3.240
65904W        W29837  14.119  18.547  11.101
65905W        W29838   7.818  34.004   3.815
65906W        W29839  38.036  37.023   3.749
65907W        W29840  27.094  10.650  10.913
65908W        W29841  30.515  19.704  14.759
65909W        W29842  29.012   5.370  10.976
65910W        W29843  44.374  35.978  11.864
65911W        W29844   8.278   6.911   4.761
65912W        W29845  13.254  35.099  12.029
65913W        W29846  18.565  31.427   0.418
65914W        W29847  36.891  16.249   4.835
65915W        W29848  19.705   0.901   4.699
65916W        W29849  30.946  42.799  14.357
65917W        W29850  26.591  31.912  10.589
65918W        W29851  12.720  31.954  10.591
65919W        W29852  24.685   9.211  10.975
65920W        W29853  22.236  21.716  13.490
65921W        W29854   2.767  30.446  13.424
65922W        W29855  28.589  16.583   2.419
65923W        W29856  23.510   8.862  11.420
65924W        W29857  25.214   4.389   0.868
65925W        W29858  32.013  12.326   0.463
65926W        W29859  44.493  21.658   0.928
65927W        W29860  11.669   5.766  13.857
65928W        W29861  16.114  25.976   2.254
65929W        W29862  13.141  28.669  13.894
65930W        W29863  15.170  36.399  10.641
65931W        W29864  18.124  29.618   3.356
65932W        W29865   5.355  34.985   1.795
65933W        W29866   3.229  19.134  11.990
65934W        W29867  27.028  14.816   1.930
65935W        W29868  17.768   2.831   2.814
65936W        W29869  15.193  14.829   1.421
65937W        W29870  33.979   8.191   4.643
65938W        W29871  25.536   9.387  11.065
65939W        W29872  18.199   5.428   4.283
65940W        W29873  16.723  32.888   4.738
65941W        W29874  32.577  38.041   4.653
65942W        W29875   8.259   4.819   4.301
65943W        W29876  31.936   3.836  14.883
65944W        W29877  26.152  34.425   1.813
65945W        W29878   8.207   1.845  10.033
65946W        W29879  30.530  12.776   0.398
65947W        W29880  29.526  21.117   1.772
65948W        W29881  16.795   3.928   0.333
65949W        W29882  15.728  35.861  11.877
65950W        W29883   7.866  22.694   1.748
65951W        W29884  11.815  38.349  14.878
65952W        W29885  36.425  43.982   2.308
65953W        W29886  30.938  40.000  13.510
65954W        W29887  21.661  12.273  12.417
65955W        W29888  33.460  38.844  12.936
65956W        W29889  39.909  15.705  12.845
65957W        W29890  18.580  29.655   5.105
65958W        W29891  11.842  42.506   3.377
65959W        W29892  21.119  36.961   3.153
65960W        W29893  19.576  25.589   0.320
65961W        W29894  26.588   8.271  10.439
65962W        W29895  31.592  15.627  13.002
65963W        W29896  28.986  34.072  14.866
65964W        W29897  31.581  26.137  14.339
65965W        W29898  38.831  27.445  12.506
65966W        W29899  19.606   7.892  10.996
65967W        W29900  21.641  34.542   4.777
65968W        W29901  44.845  24.616   1.782
65969W        W29902  39.833  21.071   3.298
65970W        W29903   1.834   9.703  10.411
65971W        W29904  19.552  14.641   0.357
65972W        W29905  23.729  21.210  12.429
65973W        W29906  22.076   6.270   0.301
65974W        W29907  12.360  27.683   4.727
65975W        W29908   7.861  24.575   4.161
65976W        W29909  39.509  15.225   2.809
65977W        W29910  36.873  19.039  10.551
65978W        W29911   7.781  34.967   2.385
65979W        W29912  28.496  27.640   4.343
65980W        W29913  29.490  27.618  13.828
65981W        W29914  32.553  44.867   2.234
65982W        W29915  20.205  21.615   0.791
65983W        W29916  20.565   3.936   1.291
65984W        W29917  41.952  23.152  10.983
65985W        W29918  35.108   7.893  11.080
65986W        W29919   5.728  26.684  10.971
65987W        W29920  28.489  19.098  12.890
65988W        W29921  28.603  31.999  13.870
65989W        W29922  22.043  25.492  14.495
65990W        W29923  10.785  30.606   4.130
65991W        W29924   0.321  43.918   0.461
65992W        W29925  13.714  41.327   2.826
65993W        W29926   1.307  37.860   0.326
65994W        W29927  39.951  22.136   0.463
65995W        W29928   2.786  24.715   1.872
65996W        W29929   0.483  19.561   3.222
65997W        W29930   7.740  29.923   4.229
65998W        W29931  17.084  28.157   2.834
65999W        W29932  16.079   1.276   3.200
66000W        W29933   8.746  38.886  13.537
66001W        W29934  24.614  28.100   0.306
66002W        W29935  33.987  28.039  10.471
66003W        W29936  34.921  29.102  11.088
66004W        W29937  34.486  38.859   3.638
66005W        W29938  22.136  34.096   0.417
66006W        W29939  33.406  27.176  12.918
66007W        W29940  31.070  41.939  12.994
66008W        W29941  38.975  33.594   9.939
66009W        W29942  26.598  34.525  13.855
66010W        W29943  33.094   5.194   2.862
66011W        W29944   7.395  44.348  13.062
66012W        W29945  18.551  23.099   0.260
66013W        W29946  30.114  18.189   2.705
66014W        W29947  41.909   1.884   3.156
66015W        W29948  34.544   4.777   0.884
66016W        W29949  26.129  42.995  14.339
66017W        W29950  22.193  24.514   2.829
66018W        W29951  29.008  12.715   1.344
66019W        W29952  25.636  20.600  10.609
66020W        W29953  15.734  30.944   1.409
66021W        W29954  17.142  19.109   1.766
66022W        W29955  38.933  29.618  14.342
66023W        W29956  38.489  37.575   9.948
66024W        W29957  28.635   6.866   4.160
66025W        W29958  22.680  41.379  12.092
66026W        W29959  39.504  29.636  11.602
66027W        W29960  15.645  42.949   0.316
66028W        W29961   2.867  11.205   2.418
66029W        W29962  12.195  34.974  11.549
66030W        W29963  33.402  38.840  12.067
66031W        W29964  29.541  13.251  14.012
66032W        W29965  27.135  35.045   2.837
66033W        W29966  13.305  27.537   0.386
66034W        W29967   6.725  13.118  13.477
66035W        W29968  25.046  34.876  10.639
66036W        W29969  26.576  40.907  12.419
66037W        W29970  44.258  23.615   9.962
66038W        W29971  42.367  34.604  14.399
66039W        W29972  36.951  31.488  13.451
66040W        W29973  17.731   5.753  12.392
66041W        W29974  28.187  38.381  10.913
66042W        W29975  22.219  34.909  11.481
66043W        W29976  37.836  28.152  13.965
66044W        W29977   4.938   5.920   3.331
66045W        W29978  16.114  38.562   0.282
66046W        W29979  14.286  13.827  11.946
66047W        W29980  20.211  15.732  14.935
66048W        W29981   1.893  39.882   3.200
66049W        W29982  31.483  14.195  12.574
66050W        W29983  43.300  13.144   2.396
66051W        W29984  26.043  21.050   1.827
66052W        W29985  37.004  14.654  10.473
66053W        W29986   1.393  21.638  14.912
66054W        W29987  33.381  38.003  11.919
66055W        W29988   3.752  16.075   2.819
66056W        W29989  17.136  21.032  12.579
66057W        W29990  30.443   9.332  10.632
66058W        W29991  22.583  33.040  14.860
66059W        W29992  32.024   1.890   4.794
66060W        W29993  16.603   8.864   4.684
66061W        W29994   8.395   1.797   4.613
66062W        W29995  35.893  26.997   3.657
66063W        W29996  22.202   0.280   1.437
66064W        W29997  36.462  41.838   0.899
66065W        W29998  29.976  10.354  10.951
66066W        W29999  38.870  31.599  12.831
66067W        W30000  16.645  42.380   0.851
66068W        W30001  15.590  34.052  13.929
66069W        W30002  42.820  19.187   0.449
66070W        W30003  16.150  33.935   1.794
66071W        W30004  16.130  17.187   9.445
66072W        W30005  19.258  26.163   9.610
66073W        W30006   1.901   1.263   1.422
66074W        W30007  39.535   0.293   4.657
66075W        W30008  30.503  38.457   0.755
66076W        W30009  33.997   0.279  14.319
66077W        W30010  44.300  19.778  11.609
66078W        W30011   4.227  39.856   3.633
66079W        W30012  25.038  36.904   3.208
66080W        W30013  17.668   5.718   4.657
66081W        W30014  10.157  26.147   9.977
66082W        W30015  12.679  36.920  14.424
66083W        W30016  26.044  36.892  10.450
66084W        W30017  18.130  22.166   4.223
66085W        W30018  16.120  32.536  11.464
66086W        W30019  37.881  22.644   1.310
66087W        W30020  12.724  31.513  14.902
66088W        W30021  15.231  23.171   1.726
66089W        W30022  41.918  33.072  14.982
66090W        W30023  38.889  20.128  13.888
66091W        W30024  13.106  28.153  12.484
66092W        W30025  39.435   7.192   4.251
66093W        W30026  28.994  44.280  11.576
66094W        W30027  36.444  24.537   3.847
66095W        W30028   2.878  11.342  14.879
66096W        W30029   5.826  39.025  11.944
66097W        W30030  22.154  22.651  12.441
66098W        W30031  10.747  11.708   0.481
66099W        W30032  19.221  23.988  11.941
66100W        W30033  43.949  26.065   3.324
66101W        W30034  41.911  11.725   5.235
66102W        W30035  10.670  15.749  14.332
66103W        W30036   0.348  19.162   3.291
66104W        W30037   5.368  20.559   2.691
66105W        W30038  31.089  28.051  12.571
66106W        W30039   1.385  34.019  10.623
66107W        W30040  29.430  33.588   3.224
66108W        W30041  27.488  11.259  10.488
66109W        W30042  36.944  44.438  13.444
66110W        W30043  22.742  28.024   5.253
66111W        W30044   1.753  40.303   0.731
66112W        W30045  25.110  43.915  11.447
66113W        W30046  26.026   3.445  10.002
66114W        W30047  41.827  32.966   2.790
66115W        W30048   4.914  36.992   3.346
66116W        W30049  11.736  14.137   3.183
66117W        W30050  23.565  37.337   4.130
66118W        W30051   9.164   8.342   2.409
66119W        W30052   0.875   3.721  13.419
66120W        W30053  43.299  11.185   0.358
66121W        W30054  28.630  34.613  13.507
66122W        W30055   2.417  13.825  12.957
66123W        W30056  11.139  29.473  13.986
66124W        W30057  17.562  26.523   3.862
66125W        W30058  32.077  27.115  11.557
66126W        W30059  26.493  36.028  13.005
66127W        W30060  31.041  35.996  13.432
66128W        W30061  13.310   5.883   4.739
66129W        W30062   4.394  19.198  11.471
66130W        W30063   9.686  11.863  12.897
66131W        W30064  35.032  23.518   0.286
66132W        W30065  39.020  41.442   4.705
66133W        W30066   5.834  15.178  12.878
66134W        W30067  31.591  43.807   4.681
66135W        W30068  29.058   9.277   2.244
66136W        W30069  40.495  17.225  13.440
66137W        W30070  29.941  23.592   4.220
66138W        W30071  28.036  17.658  12.974
66139W        W30072  29.663  16.766   1.243
66140W        W30073  11.309   6.403   1.268
66141W        W30074  40.872  42.454  13.888
66142W        W30075  29.470  37.065  11.889
66143W        W30076  13.269  19.112   4.269
66144W        W30077  41.922   8.844   2.369
66145W        W30078  16.615  31.972   2.289
66146W        W30079  39.459  25.590  14.029
66147W        W30080   3.265  37.956   2.882
66148W        W30081  17.607  18.124   2.346
66149W        W30082  36.990  24.026  12.883
66150W        W30083  39.368   7.863  13.359
66151W        W30084  21.208  29.502   3.854
66152W        W30085  30.616  28.943  12.006
66153W        W30086  17.152  33.602  13.899
66154W        W30087   9.643  25.548   9.500
66155W        W30088  17.102   8.772   4.638
66156W        W30089  31.568   3.834   0.931
66157W        W30090  36.535  32.985  12.442
66158W        W30091  25.485  40.461  12.877
66159W        W30092  12.272  18.633  11.102
66160W        W30093  17.191  26.096  12.348
66161W        W30094  16.665  41.970   4.168
66162W        W30095  16.279  19.103   3.805
66163W        W30096  39.991  33.919  14.771
66164W        W30097  11.848  14.300   1.337
66165W        W30098   7.797  35.457  13.475
66166W        W30099  10.357  19.053  14.405
66167W        W30100  35.106  25.629  12.457
66168W        W30101  22.013  16.715  11.383
66169W        W30102   1.869  15.726   3.706
66170W        W30103  23.517  13.746  13.352
66171W        W30104  19.276  29.140  13.521
66172W        W30105   5.883  33.526  14.928
66173W        W30106  20.212   0.324  13.889
66174W        W30107  18.072  38.927  11.472
66175W        W30108  13.610   4.785   0.751
66176W        W30109  44.274  43.891   2.827
66177W        W30110  38.018  24.026  12.545
66178W        W30111  22.615   8.318  13.314
66179W        W30112  41.523  15.777  11.397
66180W        W30113   4.723  33.927  14.776
66181W        W30114   4.268  14.611   2.270
66182W        W30115  10.666  41.514   4.823
66183W        W30116  21.243  29.109   4.125
66184W        W30117  26.653  27.569  13.950
66185W        W30118  37.903  38.444  11.509
66186W        W30119  24.210  24.079   3.377
66187W        W30120   3.276   5.215   1.357
66188W        W30121  40.423  17.572   4.306
66189W        W30122  16.780  35.067   3.646
66190W        W30123  12.189  29.641   0.838
66191W        W30124  27.054  26.959   1.885
66192W        W30125  12.131   6.714   3.203
66193W        W30126  23.671  14.306   2.842
66194W        W30127  39.461   0.460  13.870
66195W        W30128  34.471   1.379  10.994
66196W        W30129   2.770  34.376   3.168
66197W        W30130  33.127  20.268  12.495
66198W        W30131   8.757  31.140  10.914
66199W        W30132   9.200  14.222  12.424
66200W        W30133   7.172  37.457  11.561
66201W        W30134  28.165  32.445  12.515
66202W        W30135   8.168  33.431  14.334
66203W        W30136   7.888  16.749   2.381
66204W        W30137  29.062   7.723  14.315
66205W        W30138  16.302  11.195  14.821
66206W        W30139  26.204  22.046  14.872
66207W        W30140  26.046   7.275   3.192
66208W        W30141  10.215   3.849   1.782
66209W        W30142  30.999  19.652   5.217
66210W        W30143  12.639  44.985  10.939
66211W        W30144  33.529  34.380   1.412
66212W        W30145  12.698  23.630   2.766
66213W        W30146  30.137  42.469  12.939
66214W        W30147  15.585  25.194   1.319
66215W        W30148  10.290  43.989  14.457
66216W        W30149   6.291  43.766  13.808
66217W        W30150  33.597  41.951  14.447
66218W        W30151  38.356  26.606   4.276
66219W        W30152  38.360   1.805   4.656
66220W        W30153  10.836  25.042  11.968
66221W        W30154  20.097  17.715  11.862
66222W        W30155  11.317  10.329   1.293
66223W        W30156   1.288  12.200  11.379
66224W        W30157  39.808  29.492   0.909
66225W        W30158   5.725  13.262   0.471
66226W        W30159  23.990  19.250   1.858
66227W        W30160  28.435  10.682   0.266
66228W        W30161  31.943  42.446   4.687
66229W        W30162  12.671  33.095  13.891
66230W        W30163  11.287  39.811  12.887
66231W        W30164  21.061  37.040   4.799
66232W        W30165   1.830   9.161  12.404
66233W        W30166  11.265  39.522   4.710
66234W        W30167  23.597  35.868  13.397
66235W        W30168  37.359  35.447   0.381
66236W        W30169  15.613   9.365   0.476
66237W        W30170  23.210  13.723   4.183
66238W        W30171   5.389  41.857   4.126
66239W        W30172  41.003  30.946  14.019
66240W        W30173  24.173   9.779   3.294
66241W        W30174  19.572  26.651  13.931
66242W        W30175  14.809  35.005  10.475
66243W        W30176  24.023  21.658   1.780
66244W        W30177  37.402  43.384  12.015
66245W        W30178   7.256  23.688   2.349
66246W        W30179  37.834  32.391  10.500
66247W        W30180  43.380   7.851   1.902
66248W        W30181  12.266   0.892   1.779
66249W        W30182  29.493  30.084  14.860
66250W        W30183   0.424  28.638  13.975
66251W        W30184  27.136  44.294  11.486
66252W        W30185   6.894  41.518   1.301
66253W        W30186  34.864  33.023   2.729
66254W        W30187  25.053   0.971  10.948
66255W        W30188  43.770  38.333  13.423
66256W        W30189   7.194  18.668  13.495
66257W        W30190  40.525  11.334   3.216
66258W        W30191  26.147  22.598  11.034
66259W        W30192   1.461  33.397  14.991
66260W        W30193   7.288  14.236  11.522
66261W        W30194  31.997   0.908   2.219
66262W        W30195  26.989  12.653  13.373
66263W        W30196  31.506  31.435  10.518
66264W        W30197  10.876  40.980   2.714
66265W        W30198  28.134  30.088  12.353
66266W        W30199   1.860  43.455   0.951
66267W        W30200  12.256  25.636   1.806
66268W        W30201   0.860   5.200  12.001
66269W        W30202  30.429  13.221   5.224
66270W        W30203  17.289  17.189   3.181
66271W        W30204  25.019  33.503   0.795
66272W        W30205   7.844  14.695  12.438
66273W        W30206   4.266  31.929   4.178
66274W        W30207  34.550  43.282   3.822
66275W        W30208  25.092  11.299  13.331
66276W        W30209  13.648  18.775  13.875
66277W        W30210  18.695  33.443   2.337
66278W        W30211   5.365  28.511   4.790
66279W        W30212  35.876   4.859  11.937
66280W        W30213  14.168  44.280   2.731
66281W        W30214  10.676  28.028   1.365
66282W        W30215   8.791  27.980  11.540
66283W        W30216  17.078   7.355  10.630
66284W        W30217  19.244  42.422   1.781
66285W        W30218  18.266   5.348   4.831
66286W        W30219  23.114   0.324   3.147
66287W        W30220  40.427   1.307  12.930
66288W        W30221  25.051   4.783  12.005
66289W        W30222  40.385  15.126   4.649
66290W        W30223  22.178  26.515  13.852
66291W        W30224  35.512  35.501  12.032
66292W        W30225  25.026  41.028  13.903
66293W        W30226   8.283  41.457   1.796
66294W        W30227  13.691  16.108   4.117
66295W        W30228  34.973  10.634   4.289
66296W        W30229  33.026  28.015  13.047
66297W        W30230  25.128  10.231  11.901
66298W        W30231  34.109   1.963   0.407
66299W        W30232  24.718  26.031  10.497
66300W        W30233  12.153  22.519  11.565
66301W        W30234  26.015   0.901   5.205
66302W        W30235   6.239  28.589   1.271
66303W        W30236  24.636  12.278   1.286
66304W        W30237   0.436  36.854   1.912
66305W        W30238  42.508   1.947  13.969
66306W        W30239   7.685   8.656   1.703
66307W        W30240  13.216   0.476   3.381
66308W        W30241  32.115  19.150  12.401
66309W        W30242  20.128   5.913  11.044
66310W        W30243   9.288  38.471   0.358
66311W        W30244   2.907  37.946  11.469
66312W        W30245  33.464  15.282  13.360
66313W        W30246   1.276  39.857  10.982
66314W        W30247   1.311  13.723   4.190
66315W        W30248   7.402  12.241   4.209
66316W        W30249  10.371   9.741  10.620
66317W        W30250   2.268   3.353  13.408
66318W        W30251   4.247   4.324   4.687
66319W        W30252  13.837  11.316   4.226
66320W        W30253  19.756  33.590   2.832
66321W        W30254  21.188  43.999  13.941
66322W        W30255   9.202  34.401  13.867
66323W        W30256  17.699  12.729   0.731
66324W        W30257  14.724  40.933   0.362
66325W        W30258  24.170  14.316   4.789
66326W        W30259  15.756   1.975   2.772
66327W        W30260  36.874  32.424  10.934
66328W        W30261   9.743   3.816  12.353
66329W        W30262  28.104  14.758  10.889
66330W        W30263  16.655   9.372  10.120
66331W        W30264   8.723  38.560   1.759
66332W        W30265  34.569  41.981   1.771
66333W        W30266  38.868   7.196  14.949
66334W        W30267   7.229   0.821   2.187
66335W        W30268  14.742  43.306  13.546
66336W        W30269  24.046  16.588  12.530
66337W        W30270   9.767   8.305   1.895
66338W        W30271  40.879  41.390  13.040
66339W        W30272  36.095  25.078   3.679
66340W        W30273  28.474  14.099  12.448
66341W        W30274  39.363  18.679   1.236
66342W        W30275  20.044  12.276  11.908
66343W        W30276  36.425  44.855   0.445
66344W        W30277  38.360  25.477   0.931
66345W        W30278  38.525   3.382  14.368
66346W        W30279  19.076   0.461  12.966
66347W        W30280   0.762  18.213  12.359
66348W        W30281   8.269  37.906   4.298
66349W        W30282  36.039   9.293  13.525
66350W        W30283  40.978   5.753   4.776
66351W        W30284  16.129  10.279   3.669
66352W        W30285  44.972   7.806  11.092
66353W        W30286  22.007  39.977   2.696
66354W        W30287  33.615  24.052  13.880
66355W        W30288  13.599  39.970  13.049
66356W        W30289  28.029   5.789  12.360
66357W        W30290   4.413  43.300   1.250
66358W        W30291  21.070   1.756   2.369
66359W        W30292  31.942  35.037  12.092
66360W        W30293  32.583  21.725   3.354
66361W        W30294  42.410  41.484   4.197
66362W        W30295  32.074  31.412   0.418
66363W        W30296   3.774   0.968  12.460
66364W        W30297  14.751  18.681  11.858
66365W        W30298  19.104  11.664  11.416
66366W        W30299  40.304  18.113   0.476
66367W        W30300   5.249  33.879  10.542
66368W        W30301  14.800  42.441   2.756
66369W        W30302   1.446   5.822   2.373
66370W        W30303  29.087  23.153   3.275
66371W        W30304  25.594  38.460   3.773
66372W        W30305  44.994  41.036  14.960
66373W        W30306  25.698   6.895   4.350
66374W        W30307  26.619  28.640   2.409
66375W        W30308   5.864  37.923   4.647
66376W        W30309   6.748  12.741   4.132
66377W        W30310   9.308  22.996  10.513
66378W        W30311  20.071  19.168  11.945
66379W        W30312  11.187   2.731   3.758
66380W        W30313  40.872  28.134   2.750
66381W        W30314  29.970  41.440  11.459
66382W        W30315   1.825  14.338  14.893
66383W        W30316  26.013  35.058   2.401
66384W        W30317  30.074  27.118   3.718
66385W        W30318  39.013  24.623  10.426
66386W        W30319   0.747  36.498  12.983
66387W        W30320  37.510   4.236  11.088
66388W        W30321  35.517  38.446   1.912
66389W        W30322  25.075  28.180   1.709
66390W        W30323  24.665  29.010   2.273
66391W        W30324   5.859   4.323  14.298
66392W        W30325  27.095  36.522   1.866
66393W        W30326   1.318   1.953  12.455
66394W        W30327  33.492   0.347  12.450
66395W        W30328  41.455  29.543   2.814
66396W        W30329  36.545  37.447   3.376
66397W        W30330   1.340  12.122  14.454
66398W        W30331   8.852  23.697  10.071
66399W        W30332  12.147  35.550   2.418
66400W        W30333   1.351  22.019   0.321
66401W        W30334   0.929  18.663   4.149
66402W        W30335  31.106  23.110  10.510
66403W        W30336  16.161  35.503  11.892
66404W        W30337  27.447  38.505  13.020
66405W        W30338  35.869   3.933  11.567
66406W        W30339  43.375  28.564   4.625
66407W        W30340  41.467  39.432  13.913
66408W        W30341  14.605   5.367   3.718
66409W        W30342  11.752   0.448   0.302
66410W        W30343   9.246  43.979  11.374
66411W        W30344  28.527  38.844   3.285
66412W        W30345  35.509  44.913   3.303
66413W        W30346  28.089  29.933  12.905
66414W        W30347  18.053   5.407   1.784
66415W        W30348  24.053  19.724  14.349
66416W        W30349  43.321  18.168  12.472
66417W        W30350  31.496  10.176  12.843
66418W        W30351  18.119  25.204  14.420
66419W        W30352  25.976   1.468  12.001
66420W        W30353  23.076  25.528  14.001
66421W        W30354  22.209  44.261  12.443
66422W        W30355   5.835  27.168  11.936
66423W        W30356  27.049   9.737  12.088
66424W        W30357  16.129  26.176  12.026
66425W        W30358  37.922  38.342  13.369
66426W        W30359  30.433  19.720  12.949
66427W        W30360   1.282   8.275   0.441
66428W        W30361   7.239  15.294  12.488
66429W        W30362  35.554   0.420   3.756
66430W        W30363  25.634   6.686  13.941
66431W        W30364  42.778  42.930  14.475
66432W        W30365  33.944  27.511   0.250
66433W        W30366   1.881   2.776   2.376
66434W        W30367   0.823   8.361   4.191
66435W        W30368   8.163   2.403  14.814
66436W        W30369   0.751  34.425  13.792
66437W        W30370  28.152  14.632  12.897
66438W        W30371  33.580  12.310  11.555
66439W        W30372   5.879  36.993   3.780
66440W        W30373  13.779  42.019   4.676
66441W        W30374  27.501  38.410   4.622
66442W        W30375  29.625  28.152   2.794
66443W        W30376  18.567  14.100   0.460
66444W        W30377   8.843  41.806   0.838
66445W        W30378  14.288  38.991  11.967
66446W        W30379  27.457  14.338   0.406
66447W        W30380   0.807  35.536   2.745
66448W        W30381  28.595   9.751  12.438
66449W        W30382  37.395   6.335   3.357
66450W        W30383   7.228  28.603  13.361
66451W        W30384  13.673   8.214  12.432
66452W        W30385  33.907  28.472   0.910
66453W        W30386  42.452  14.214  13.400
66454W        W30387  11.163  38.014  12.958
66455W        W30388  35.911   9.759   3.657
66456W        W30389   3.414   2.469   1.896
66457W        W30390  15.223  28.041   4.661
66458W        W30391  25.554   3.790   2.287
66459W        W30392  11.142  24.056  13.366
66460W        W30393   9.303  37.351  14.999
66461W        W30394  12.699   3.263   1.295
66462W        W30395  35.873   8.340   4.263
66463W        W30396  31.541   2.813  13.016
66464W        W30397  13.734  11.181   0.328
66465W        W30398  23.664   9.151  12.508
66466W        W30399  17.182  27.944  10.016
66467W        W30400  17.796  13.198   3.183
66468W        W30401   3.864  31.472  12.953
66469W        W30402  18.586  32.436   2.274
66470W        W30403  18.103  16.658  14.496
66471W        W30404   5.294   8.794   2.293
66472W        W30405  18.570  40.958  12.404
66473W        W30406  39.877  39.905   2.766
66474W        W30407  26.491   2.328   1.291
66475W        W30408   5.926   4.322   2.197
66476W        W30409  18.692  35.547  10.638
66477W        W30410  15.165   8.184   1.308
66478W        W30411  16.224  38.009   1.424
66479W        W30412  38.486   3.453  10.621
66480W        W30413  15.113  34.438  12.467
66481W        W30414  12.631   9.291  11.602
66482W        W30415  14.143  12.637  12.093
66483W        W30416  15.688  30.063  14.424
66484W        W30417  27.543  24.152  10.486
66485W        W30418  43.793  22.246   3.631
66486W        W30419  17.747   5.773   3.254
66487W        W30420  30.495   3.782   0.291
66488W        W30421   4.776   1.396   3.677
66489W        W30422   0.785  23.491   2.265
66490W        W30423  16.741   4.724   3.852
66491W        W30424   4.905   1.743  10.046
66492W        W30425  26.198  31.079   4.148
66493W        W30426  16.660  35.989  14.486
66494W        W30427  40.841  35.491  10.974
66495W        W30428  35.013  26.983   1.732
66496W        W30429  16.098  33.072  12.547
66497W        W30430  29.010   2.370  13.374
66498W        W30431   2.471  20.165   4.266
66499W        W30432  44.298  27.995  13.456
66500W        W30433  26.486   0.458   5.701
66501W        W30434  21.061  15.682   0.823
66502W        W30435  20.189  30.626   4.683
66503W        W30436   6.307  42.402  14.425
66504W        W30437  13.647   8.366   4.837
66505W        W30438   6.384  40.354   1.232
66506W        W30439  20.668  19.580   1.279
66507W        W30440  23.214   0.823  11.420
66508W        W30441  34.911  10.870   4.664
66509W        W30442  20.159   9.791   0.745
66510W        W30443   5.259  12.675   0.915
66511W        W30444  28.442   0.921   3.689
66512W        W30445  32.557   6.342  14.468
66513W        W30446   5.772  30.975   4.301
66514W        W30447  44.908  21.127  13.035
66515W        W30448   1.402   3.881   3.743
66516W        W30449  22.601  27.137  12.044
66517W        W30450  21.103   2.786   3.836
66518W        W30451   8.393  33.065   3.743
66519W        W30452  29.448  13.286   0.308
66520W        W30453  44.925   2.870   3.322
66521W        W30454  33.130  42.349  14.855
66522W        W30455  37.429  27.954  12.417
66523W        W30456   9.826  23.525   1.293
66524W        W30457  27.185  43.967   2.732
66525W        W30458  34.945  38.520  11.100
66526W        W30459  34.432   5.853  12.068
66527W        W30460  26.517  42.993  13.984
66528W        W30461  30.967  27.997   2.295
66529W        W30462  20.621   4.381   4.339
66530W        W30463  33.411  23.183   4.348
66531W        W30464  40.025  15.578   2.817
66532W        W30465  12.706  37.515  13.937
66533W        W30466   9.655  34.559  14.892
66534W        W30467   8.316  38.398   1.222
66535W        W30468  23.235  19.123  11.383
66536W        W30469  22.597  43.870   4.328
66537W        W30470  12.794  13.708  13.351
66538W        W30471  24.656  21.646   0.254
66539W        W30472  12.282  36.550   0.726
66540W        W30473  15.679  10.283   2.389
66541W        W30474  20.535  37.488  10.997
66542W        W30475  42.442  35.987   4.611
66543W        W30476  32.082   9.276   2.897
66544W        W30477  44.806  12.139   0.742
66545W        W30478   1.445   0.987   1.296
66546W        W30479  18.110   1.295  12.913
66547W        W30480  43.012  16.301   3.760
66548W        W30481  35.006  42.838   5.172
66549W        W30482   1.826   8.726  14.371
66550W        W30483  33.991  28.557   2.897
66551W        W30484   4.893  22.686  11.863
66552W        W30485  33.514  16.237  12.931
66553W        W30486  37.949  29.005  14.029
66554W        W30487  29.518  23.532  13.811
66555W        W30488  15.131  40.440  11.483
66556W        W30489  36.926  28.146   4.234
66557W        W30490  21.652  36.520   1.783
66558W        W30491   3.350  33.501  12.389
66559W        W30492  29.125  16.674   3.753
66560W        W30493  10.194   1.323  11.927
66561W        W30494  21.206  21.632  14.832
66562W        W30495  11.652  23.044   1.392
66563W        W30496   1.924  18.599   4.325
66564W        W30497  29.516  41.367   1.922
66565W        W30498  39.809   0.360   2.851
66566W        W30499   8.287  30.580   1.404
66567W        W30500  16.162  16.203  13.036
66568W        W30501  22.639  39.969  14.495
66569W        W30502  19.621   0.742   0.870
66570W        W30503  23.618  12.217   3.360
66571W        W30504   9.697  39.972  11.585
66572W        W30505  39.876  14.728   4.290
66573W        W30506  38.479  34.976  12.992
66574W        W30507  10.242  35.452   2.880
66575W        W30508  30.631  26.682  10.630
66576W        W30509  31.507  14.698   0.365
66577W        W30510   2.302  36.008  14.986
66578W        W30511   1.950  18.616   2.846
66579W        W30512  17.138  16.091   0.482
66580W        W30513  26.000  43.473   1.350
66581W        W30514  41.957  20.745   3.378
66582W        W30515  22.664  18.732   1.212
66583W        W30516  19.265  37.543   1.387
66584W        W30517  33.422  38.050  14.405
66585W        W30518  39.907   8.701  12.578
66586W        W30519  15.601  27.954   0.836
66587W        W30520  40.435  29.011  13.025
66588W        W30521  27.462  43.917   0.795
66589W        W30522  31.018  24.090  10.432
66590W        W30523  38.566  18.744   4.338
66591W        W30524   3.335  24.003   3.739
66592W        W30525  20.168   9.752  12.029
66593W        W30526  35.933  42.949   0.915
66594W        W30527  18.610  15.695  13.044
66595W        W30528  18.750  35.536  13.794
66596W        W30529  16.649  34.530  11.514
66597W        W30530  30.060  26.574   5.268
66598W        W30531  41.840  44.353   0.827
66599W        W30532  14.268  36.092  11.017
66600W        W30533  39.516  26.024   4.132
66601W        W30534  40.837  42.445  12.855
66602W        W30535  39.860  12.119   1.839
66603W        W30536  20.247   7.713  14.817
66604W        W30537  10.873  39.315  10.547
66605W        W30538  12.717   2.804  13.536
66606W        W30539  14.712  21.194   0.744
66607W        W30540  43.016  35.437  14.918
66608W        W30541  12.228  23.145   0.466
66609W        W30542  16.804  34.581  14.851
66610W        W30543  41.425  44.343   1.277
66611W        W30544  40.049   1.836  12.903
66612W        W30545  43.409  37.565  12.082
66613W        W30546  24.165  24.496   0.455
66614W        W30547  10.729   6.286   4.323
66615W        W30548  12.757   0.288   0.380
66616W        W30549  24.134  28.065   1.839
66617W        W30550  28.450  12.314  12.061
66618W        W30551  17.685   1.323   1.708
66619W        W30552  42.440   5.903   0.271
66620W        W30553  28.965  15.329   3.298
66621W        W30554   6.406   4.260   1.229
66622W        W30555   0.967  19.092   3.177
66623W        W30556   5.814  29.080  12.909
66624W        W30557  30.631   6.773   4.676
66625W        W30558   3.866   2.873  10.939
66626W        W30559  24.982  42.914   0.312
66627W        W30560  36.077  26.643   2.661
66628W        W30561  35.001   2.862  12.370
66629W        W30562   8.385  27.656   3.257
66630W        W30563   4.827   5.433   4.118
66631W        W30564   6.756  35.398   4.311
66632W        W30565   2.828  20.635  14.411
66633W        W30566  17.076   6.311  11.610
66634W        W30567  23.120  22.577   2.241
66635W        W30568  13.758  11.235   4.792
66636W        W30569  39.885   4.820   4.272
66637W        W30570   9.687  35.101  11.608
66638W        W30571  31.026  23.611  10.560
66639W        W30572  26.174  24.975   4.124
66640W        W30573   6.867  11.813   1.284
66641W        W30574  34.985  30.087   2.347
66642W        W30575   9.162  11.739  12.911
66643W        W30576  27.553  19.618  11.105
66644W        W30577  20.601   8.165  14.875
66645W        W30578  29.644   9.662  13.993
66646W        W30579  21.531  31.096   1.362
66647W        W30580  20.202   7.340  14.430
66648W        W30581  19.544  17.801   1.297
66649W        W30582  42.832  14.731   1.231
66650W        W30583  19.736   3.893   4.807
66651W        W30584   9.822  13.705  12.551
66652W        W30585  13.611   5.436  10.518
66653W        W30586  41.538   2.772   3.775
66654W        W30587   5.246  34.495   3.226
66655W        W30588   0.314  37.348  13.895
66656W        W30589  41.810  31.914  11.929
66657W        W30590  11.743  40.812  13.050
66658W        W30591  12.306  21.694  12.942
66659W        W30592  11.829   3.858  11.061
66660W        W30593  28.178   8.254  11.913
66661W        W30594  41.879  13.653  10.432
66662W        W30595  14.184  36.381   2.788
66663W        W30596   8.691   4.283  11.571
66664W        W30597  43.854  33.052   1.323
66665W        W30598  25.081  29.596   2.834
66666W        W30599  13.810  15.669   4.338
66667W        W30600  23.685  29.109   1.312
66668W        W30601  14.589  31.058   1.826
66669W        W30602  31.107  31.530   3.314
66670W        W30603  27.075  11.261   5.084
66671W        W30604   2.426  17.068   9.936
66672W        W30605  19.195   7.775  12.945
66673W        W30606   9.869   8.176   0.735
66674W        W30607   5.434   2.866  13.953
66675W        W30608  14.289  44.367  13.350
66676W        W30609  11.774  28.477   2.267
66677W        W30610  30.496  14.705   1.769
66678W        W30611  34.403  13.760   2.197
66679W        W30612  11.735  34.062  11.391
66680W        W30613  22.527  28.642  10.891
66681W        W30614  33.089   2.899   1.751
66682W        W30615   0.352  30.948  13.032
66683W        W30616  23.074  39.812  10.514
66684W        W30617  27.616   1.378  13.539
66685W        W30618  40.313  19.632   1.228
66686W        W30619  23.237   4.845   0.887
66687W        W30620  36.576  24.119   3.340
66688W        W30621  36.566  34.983  12.462
66689W        W30622  17.748  28.564  13.336
66690W        W30623  18.788   8.732   4.764
66691W        W30624  22.195  28.153   2.764
66692W        W30625   2.961  40.526  10.469
66693W        W30626  38.951  13.234  12.949
66694W        W30627  30.008  28.066   4.654
66695W        W30628   3.724  27.139  13.355
66696W        W30629  39.858  42.938   2.749
66697W        W30630  15.180  28.514  13.900
66698W        W30631   4.740  41.518  11.949
66699W        W30632  40.818  37.081   5.723
66700W        W30633  36.088  14.304   0.336
66701W        W30634  22.220  37.869  12.511
66702W        W30635  26.475  33.997  13.326
66703W        W30636  36.938  30.474   4.603
66704W        W30637  42.933   2.331   0.749
66705W        W30638   2.382  39.486  12.996
66706W        W30639  33.897  29.592  10.590
66707W        W30640   9.816  18.269   2.796
66708W        W30641  22.132  24.602   4.660
66709W        W30642  41.958  11.260  13.374
66710W        W30643   7.244  41.902   3.643
66711W        W30644  18.135  37.374  13.014
66712W        W30645  39.049  28.946  10.468
66713W        W30646   9.695   4.223  11.432
66714W        W30647  39.376  17.726  10.452
66715W        W30648   7.889  40.005   2.212
66716W        W30649  14.228  25.532   1.699
66717W        W30650  23.079  38.980   3.645
66718W        W30651   0.797  26.537  13.011
66719W        W30652  16.279  14.596  14.393
66720W        W30653   7.343   6.188   1.807
66721W        W30654  27.594  15.602  13.840
66722W        W30655  11.668  42.321   1.299
66723W        W30656  39.520  16.658  13.355
66724W        W30657  10.723   6.301  14.808
66725W        W30658  44.324  40.887  12.417
66726W        W30659  19.702  34.026  13.887
66727W        W30660  32.608   9.825   0.274
66728W        W30661  34.958  25.055   1.695
66729W        W30662   4.815  26.201   3.809
66730W        W30663  41.001  43.018   0.319
66731W        W30664  27.538  26.527   4.330
66732W        W30665  15.315   5.254   4.300
66733W        W30666  26.187   5.282   0.377
66734W        W30667  37.402  18.225   3.226
66735W        W30668  42.969  17.223  14.029
66736W        W30669  32.465  10.194  10.539
66737W        W30670  42.870  38.883   3.359
66738W        W30671  34.474   3.736   1.371
66739W        W30672  30.656   7.862  11.053
66740W        W30673   0.950  32.897  13.420
66741W        W30674  40.343  29.613   2.744
66742W        W30675  21.200  14.250   1.310
66743W        W30676  23.142   3.250   0.374
66744W        W30677   6.396  10.233  13.356
66745W        W30678  19.607  28.581  11.496
66746W        W30679  15.781   8.862   5.175
66747W        W30680   6.255  33.406   2.724
66748W        W30681  10.707  21.635   2.895
66749W        W30682   7.310  31.972  11.929
66750W        W30683   3.289  32.140   5.215
66751W        W30684  41.996  15.183   4.668
66752W        W30685  18.218  15.627  12.924
66753W        W30686  21.222  40.305  14.341
66754W        W30687  25.010  40.975  14.292
66755W        W30688  14.223  35.896   0.247
66756W        W30689  35.922  26.066  14.864
66757W        W30690  36.959  13.262   1.346
66758W        W30691   3.728  36.551  14.872
66759W        W30692   7.754  20.118  11.533
66760W        W30693  25.026  20.535   4.162
66761W        W30694  22.626  32.453   2.206
66762W        W30695  23.120   1.945   2.859
66763W        W30696  18.206  26.647  10.940
66764W        W30697  22.164  33.515   0.913
66765W        W30698  33.040  36.592   1.271
66766W        W30699   3.732   0.353   1.328
66767W        W30700  11.645   1.381   2.896
66768W        W30701   0.810  15.119  12.084
66769W        W30702  14.265  30.931  11.870
66770W        W30703   0.423  27.121  12.343
66771W        W30704  28.569  44.972   1.718
66772W        W30705  21.161  39.980  10.002
66773W        W30706  10.646  15.141  12.080
66774W        W30707   6.284   8.778  10.954
66775W        W30708  24.706  36.959  13.535
66776W        W30709  35.009  23.656  12.005
66777W        W30710  15.712  10.792   4.343
66778W        W30711   9.279   0.912   3.693
66779W        W30712  19.048   2.752  12.095
66780W        W30713  37.924  37.883  11.071
66781W        W30714   8.852  27.606  13.944
66782W        W30715  39.925   1.829  11.372
66783W        W30716   7.811  20.118  14.480
66784W        W30717  15.163  12.835  12.863
66785W        W30718   9.727  35.389  10.501
66786W        W30719  34.010  23.165  14.871
66787W        W30720  24.107  14.632  12.858
66788W        W30721  39.021   4.239  10.511
66789W        W30722  37.366   9.816   2.679
66790W        W30723  26.668  21.568   4.252
66791W        W30724  43.341  17.656  12.956
66792W        W30725  33.068  14.216   0.448
66793W        W30726  32.122  23.591  10.987
66794W        W30727  34.512  15.108   4.693
66795W        W30728  30.043  14.290  13.892
66796W        W30729   6.314  18.647   0.348
66797W        W30730  29.458  14.698  13.932
66798W        W30731  30.966  18.657   4.238
66799W        W30732  17.646  22.049   1.230
66800W        W30733   3.827  39.855   0.389
66801W        W30734  41.795  17.782   3.226
66802W        W30735  38.458   4.891   1.387
66803W        W30736  44.978   3.855   1.899
66804W        W30737  22.609  38.457   3.368
66805W        W30738   8.900  44.280   0.843
66806W        W30739  30.052  21.568   2.734
66807W        W30740   5.335   4.714  12.982
66808W        W30741   5.426  39.939  12.981
66809W        W30742   5.836  21.631   4.215
66810W        W30743  29.037  43.856   4.692
66811W        W30744  21.172  42.407  13.807
66812W        W30745   1.309  25.478  13.984
66813W        W30746  19.097   7.330  14.776
66814W        W30747  24.557   3.797   4.196
66815W        W30748  17.661  34.424  13.420
66816W        W30749   8.366   3.272  11.399
66817W        W30750  13.212  26.188  12.985
66818W        W30751  37.931  41.007  14.281
66819W        W30752   7.270  33.530  14.935
66820W        W30753  38.956   3.444   5.232
66821W        W30754  24.491  34.998   1.843
66822W        W30755  37.487   7.387  14.315
66823W        W30756   8.820  10.216   3.675
66824W        W30757  12.179  32.046  12.966
66825W        W30758  14.628  31.563  10.618
66826W        W30759  18.213  26.022  14.494
66827W        W30760   5.415   9.330   3.649
66828W        W30761  40.870  28.491  12.356
66829W        W30762   6.413  15.310  13.313
66830W        W30763  40.807  40.826   1.381
66831W        W30764  21.116  14.165  14.826
66832W        W30765  19.670  34.915  13.817
66833W        W30766  13.721  12.840  12.443
66834W        W30767  38.558  20.186  13.354
66835W        W30768   2.851  12.204  13.831
66836W        W30769  35.063  42.851   1.720
66837W        W30770   8.362  16.176   4.237
66838W        W30771  15.165  29.654   4.232
66839W        W30772  37.857  26.476   2.805
66840W        W30773   0.797   6.860  13.546
66841W        W30774  16.076  35.602  12.457
66842W        W30775   6.309  17.569  14.330
66843W        W30776  40.393  33.996  12.879
66844W        W30777  41.897  41.974  13.396
66845W        W30778   8.390  32.904  13.352
66846W        W30779  14.158  17.623  11.926
66847W        W30780   5.910   7.750  13.428
66848W        W30781  33.543  34.953  11.916
66849W        W30782   3.281   3.859  13.006
66850W        W30783  27.647  31.617  12.405
66851W        W30784  30.580  40.976   3.764
66852W        W30785  34.053   5.830  12.079
66853W        W30786   9.367  22.580  14.489
66854W        W30787  28.089  39.377  13.994
66855W        W30788  24.597  11.338  10.938
66856W        W30789  39.345  21.225  13.369
66857W        W30790   4.337  23.593   1.872
66858W        W30791  26.163  42.527   0.810
66859W        W30792  43.413  43.832   4.181
66860W        W30793   0.492  44.287   3.762
66861W        W30794  16.771  38.027   0.773
66862W        W30795   0.478   0.249  12.079
66863W        W30796   3.335  16.712  14.287
66864W        W30797  19.538   7.705   4.627
66865W        W30798  12.219   5.274  12.977
66866W        W30799  19.045   0.930   3.255
66867W        W30800  34.003  36.562   3.200
66868W        W30801  26.178   8.305   4.199
66869W        W30802  33.043   1.911  12.445
66870W        W30803  32.001   5.208   0.321
66871W        W30804  41.793  15.762  12.494
66872W        W30805   9.822  38.929  12.064
66873W        W30806  15.673  14.591   0.434
66874W        W30807  11.346  36.046   3.325
66875W        W30808  12.674  20.702   3.660
66876W        W30809  36.894  18.696   3.752
66877W        W30810  31.493   2.820  13.960
66878W        W30811  17.628  30.510  14.343
66879W        W30812  10.800  14.276  11.006
66880W        W30813  27.640  17.571   3.320
66881W        W30814  33.478  38.848   0.358
66882W        W30815  35.100  25.582   0.431
66883W        W30816  34.391  19.201  10.407
66884W        W30817   8.747  36.518  11.422
66885W        W30818  18.270   4.398  12.860
66886W        W30819   2.378  14.147  11.938
66887W        W30820  20.637  25.618  14.907
66888W        W30821   5.322   2.897   1.257
66889W        W30822   4.769   5.852   3.745
66890W        W30823  35.948   8.336  13.412
66891W        W30824  19.590  40.399   1.291
66892W        W30825  29.031  30.556   2.841
66893W        W30826  43.902  31.100  12.453
66894W        W30827  39.954  43.910  10.963
66895W        W30828  38.518  10.247   2.388
66896W        W30829   6.765  15.303   1.755
66897W        W30830  41.898  19.151   3.765
66898W        W30831   2.888  21.199   3.802
66899W        W30832  29.168  33.528  11.022
66900W        W30833  35.460  28.935  12.398
66901W        W30834  21.241   0.390  13.016
66902W        W30835  22.539  25.638   3.861
66903W        W30836  24.565   1.326   2.261
66904W        W30837  40.330   1.938  10.002
66905W        W30838  14.656  36.464   3.211
66906W        W30839   7.869   9.655   4.727
66907W        W30840  43.827  27.674  11.122
66908W        W30841  32.419  17.235  10.081
66909W        W30842   8.658  18.603   1.423
66910W        W30843   1.384  20.665  14.900
66911W        W30844  29.948  40.015   2.661
66912W        W30845  37.054  42.967   2.725
66913W        W30846   3.269  22.725   3.741
66914W        W30847  14.296  41.015  14.885
66915W        W30848  21.719  38.515   3.154
66916W        W30849  35.903  37.033   0.332
66917W        W30850  35.879  19.574  13.026
66918W        W30851  44.441  29.158   4.623
66919W        W30852  39.809  33.065  13.487
66920W        W30853  22.238  20.542   0.881
66921W        W30854  16.575   8.661  14.333
66922W        W30855  43.817  16.106   3.288
66923W        W30856  41.534   8.745   3.294
66924W        W30857  20.119  11.162  13.476
66925W        W30858  11.738  22.252   2.414
66926W        W30859  26.569  21.068  12.411
66927W        W30860  25.689  20.122   3.858
66928W        W30861  28.508   0.483  11.047
66929W        W30862  16.268   6.235  12.033
66930W        W30863  22.575  42.001   2.788
66931W        W30864  24.570  24.125  13.382
66932W        W30865  26.671  20.162  14.310
66933W        W30866  38.535   4.743  13.434
66934W        W30867  42.969   1.372  12.092
66935W        W30868  23.069   3.431  11.873
66936W        W30869  30.482  31.598   2.221
66937W        W30870  39.981  43.922   3.197
66938W        W30871  26.065   0.938   4.250
66939W        W30872  26.023  12.769   1.722
66940W        W30873  26.696   9.711   0.412
66941W        W30874  22.636   9.315  11.573
66942W        W30875   2.226  17.188   4.626
66943W        W30876  29.994  33.088   1.438
66944W        W30877  17.273  36.523   0.449
66945W        W30878   3.919  18.237   4.602
66946W        W30879  30.627  34.957   0.250
66947W        W30880  32.603  26.163   1.370
66948W        W30881  15.705  25.062  11.886
66949W        W30882  23.583   5.378  10.510
66950W        W30883  10.223  40.987  14.794
66951W        W30884  10.722   1.321   3.836
66952W        W30885  23.234  41.833   2.240
66953W        W30886  34.419  39.446   2.298
66954W        W30887  24.986  23.676  12.953
66955W        W30888  38.537  38.994   2.687
66956W        W30889   1.875  19.223   0.379
66957W        W30890  14.670   4.418   1.904
66958W        W30891  30.961   0.395   1.338
66959W        W30892   8.216   9.888  10.965
66960W        W30893  30.930  28.056   0.834
66961W        W30894  32.959  35.891   0.353
66962W        W30895  20.613  44.477  11.405
66963W        W30896  19.597  10.269   4.292
66964W        W30897   4.835  25.499  12.404
66965W        W30898  16.670   9.250   2.354
66966W        W30899  33.561  11.698   4.305
66967W        W30900   2.446  35.467  12.045
66968W        W30901   2.347  19.075   3.277
66969W        W30902   2.861   7.269   0.814
66970W        W30903  43.398  16.160  13.370
66971W        W30904  44.959  39.521   2.197
66972W        W30905  26.521  23.987  10.478
66973W        W30906  10.225   1.250   2.389
66974W        W30907  38.520  29.447  13.366
66975W        W30908   0.852  30.111   4.321
66976W        W30909  29.950  17.621   2.215
66977W        W30910  15.649  36.418   3.306
66978W        W30911  26.957  42.781   3.345
66979W        W30912  27.999  39.478   3.328
66980W        W30913  37.451  19.281   1.791
66981W        W30914  40.955  38.827  10.424
66982W        W30915   8.388  11.180   0.313
66983W        W30916  15.710   6.875  10.105
66984W        W30917  14.643   0.770  12.966
66985W        W30918  34.461   5.738   2.779
66986W        W30919  22.731  42.981   1.888
66987W        W30920  41.393  33.906  12.340
66988W        W30921  30.435  22.581   3.703
66989W        W30922   6.333  40.041   0.449
66990W        W30923  42.915  40.920   3.790
66991W        W30924   2.466  40.313  10.044
66992W        W30925  32.063  23.122   3.808
66993W        W30926   1.363  26.670   2.888
66994W        W30927  27.017  40.880  14.766
66995W        W30928  13.150  30.970  14.473
66996W        W30929  21.107  30.103  10.431
66997W        W30930  32.112  43.854  11.428
66998W        W30931  22.119  10.326   4.229
66999W        W30932  32.925   0.334   3.344
67000W        W30933  34.482  16.804   1.259
67001W        W30934  17.744  41.955  13.906
67002W        W30935  20.244  17.757  14.842
67003W        W30936  14.295   3.847  13.995
67004W        W30937  23.568  11.776   1.769
67005W        W30938  19.228  44.445  12.070
67006W        W30939  39.443  38.478   0.743
67007W        W30940  13.629   4.374   0.428
67008W        W30941  26.062  26.107  10.419
67009W        W30942  30.028  14.222   3.359
67010W        W30943  37.910  15.139   1.374
67011W        W30944  28.629  44.766   0.367
67012W        W30945  21.571   9.153  14.827
67013W        W30946   9.189  10.192  13.405
67014W        W30947   2.234  29.512  14.460
67015W        W30948  42.381   8.818  14.942
67016W        W30949  20.186  30.107  11.124
67017W        W30950  44.265   8.343   4.276
67018W        W30951  40.457  31.598  14.469
67019W        W30952  16.198  34.960   0.762
67020W        W30953  43.335  23.025   3.798
67021W        W30954   3.776   2.245   2.734
67022W        W30955  20.753  24.606  12.449
67023W        W30956  21.038  41.326  13.947
67024W        W30957   6.360   7.205  13.991
67025W        W30958  20.158  14.680  11.024
67026W        W30959  20.232  38.479   2.276
67027W        W30960  23.100  13.190   0.923
67028W        W30961  44.994  24.160   1.919
67029W        W30962  30.924  43.872  11.469
67030W        W30963  39.409  11.224  14.814
67031W        W30964  24.585  38.511  12.092
67032W        W30965  16.701  16.239  11.987
67033W        W30966   6.274  16.703   4.271
67034W        W30967   9.825  23.017  13.856
67035W        W30968  33.938  19.077   1.444
67036W        W30969  42.887  11.140   2.740
67037W        W30970  26.675  33.083  12.554
67038W        W30971   6.270   4.865   9.618
67039W        W30972  20.246   0.315  10.118
67040W        W30973  40.029   8.752   3.635
67041W        W30974   4.438   9.860   2.808
67042W        W30975  29.957  17.151  11.915
67043W        W30976   6.363  40.942  10.427
67044W        W30977  28.077  31.539  11.898
67045W        W30978  34.480  20.749   4.785
67046W        W30979  39.465  39.824  12.952
67047W        W30980  15.750  22.684   1.246
67048W        W30981  25.204   8.184  11.526
67049W        W30982  22.180  19.737  10.964
67050W        W30983  33.451   5.829   2.209
67051W        W30984  12.151  15.209  12.005
67052W        W30985  16.592  15.200   0.819
67053W        W30986  11.330  13.818  13.393
67054W        W30987  38.468   9.833  13.991
67055W        W30988   0.878  42.939   2.197
67056W        W30989   8.750  15.768   3.695
67057W        W30990  41.032  31.123  12.838
67058W        W30991   8.247   2.888  10.124
67059W        W30992   1.483  10.861  11.602
67060W        W30993  33.878   3.893  10.905
67061W        W30994   7.853   5.378  12.449
67062W        W30995  38.447  30.035   3.147
67063W        W30996   7.752  38.951   1.323
67064W        W30997  10.304  27.948   0.901
67065W        W30998  41.433  16.738   3.865
67066W        W30999  41.373   0.412   0.405
67067W        W31000   7.765   8.700   2.414
67068W        W31001   5.769  14.312   0.462
67069W        W31002  17.285  27.691  14.497
67070W        W31003   3.918   6.801  12.480
67071W        W31004  41.011  29.566   4.240
67072W        W31005   6.264  17.131  10.632
67073W        W31006  37.831   1.926   3.186
67074W        W31007  34.076  24.611  11.987
67075W        W31008  22.635  21.567  12.859
67076W        W31009  43.991  24.134  14.937
67077W        W31010  41.036  42.831  12.927
67078W        W31011  15.097  31.036  11.974
67079W        W31012   3.340  43.772   9.952
67080W        W31013  17.088  11.315  13.503
67081W        W31014  43.817  44.403   1.418
67082W        W31015  31.575  10.753   4.144
67083W        W31016  20.658  38.864   3.834
67084W        W31017  43.490  15.655  12.506
67085W        W31018  20.580  38.889  14.478
67086W        W31019  37.468  28.988   0.340
67087W        W31020  43.290  21.081  14.309
67088W        W31021  16.591   9.343  13.473
67089W        W31022  17.707  22.187   4.315
67090W        W31023   1.272  22.096  14.002
67091W        W31024  18.254   0.842  12.489
67092W        W31025  35.481  44.402   4.166
67093W        W31026  29.999  11.175  12.826
67094W        W31027  26.969  10.317  14.500
67095W        W31028  43.980  13.810  11.888
67096W        W31029   7.282  18.695  14.317
67097W        W31030  12.197  21.161  12.904
67098W        W31031   1.968   2.752   4.139
67099W        W31032  24.094  11.233   0.392
67100W        W31033  44.492  15.663   0.302
67101W        W31034  14.813   2.252   0.934
67102W        W31035  34.928  17.268   1.300
67103W        W31036  20.180  39.062   3.185
67104W        W31037  30.442  15.270   3.751
67105W        W31038  27.538  33.481  11.865
67106W        W31039   7.755   7.309   1.736
67107W        W31040  30.466  15.321   3.228
67108W        W31041  14.615  38.043   1.699
67109W        W31042  40.417  33.977  13.364
67110W        W31043  19.146  21.677  13.909
67111W        W31044  21.562  18.684  13.520
67112W        W31045  37.845  19.564   2.759
67113W        W31046  41.855  34.956  11.395
67114W        W31047   8.351   3.255   4.149
67115W        W31048   0.473   6.851  12.529
67116W        W31049   9.391  41.992  12.973
67117W        W31050   4.361   8.872  13.545
67118W        W31051   3.898  19.773  11.458
67119W        W31052  27.466  40.019  10.906
67120W        W31053  13.318  42.954  13.815
67121W        W31054   4.290  17.731   1.318
67122W        W31055  20.262  43.938   0.801
67123W        W31056  40.991  11.355   0.378
67124W        W31057  30.616  33.962   2.405
67125W        W31058  35.976  35.872   2.745
67126W        W31059  31.555  10.780  14.917
67127W        W31060  15.742  36.468   1.823
67128W        W31061  32.946  16.176   2.822
67129W        W31062   0.880  34.517  10.132
67130W        W31063  16.108  11.817  11.492
67131W        W31064  29.603  34.561   1.212
67132W        W31065  34.563  34.933  10.938
67133W        W31066   5.223  44.291   0.272
67134W        W31067  23.058  43.859   2.394
67135W        W31068   4.929  28.609  12.563
67136W        W31069  16.157  33.418  13.953
67137W        W31070  14.817  38.447   3.213
67138W        W31071   2.792   9.873  11.586
67139W        W31072   8.168  11.631  10.951
67140W        W31073  19.622   3.860   4.269
67141W        W31074  23.180   5.412  12.879
67142W        W31075  29.939  39.325  11.899
67143W        W31076  33.905  25.038   2.183
67144W        W31077   6.887   0.823   0.452
67145W        W31078  36.502  26.995   0.777
67146W        W31079   9.301  15.654   3.210
67147W        W31080  25.665  16.233   1.701
67148W        W31081  13.778  16.279  10.616
67149W        W31082  21.208  36.478  11.449
67150W        W31083  19.057  15.624   3.155
67151W        W31084  22.699  27.681   4.660
67152W        W31085  13.163  11.229  12.868
67153W        W31086  11.175  34.525  11.566
67154W        W31087  44.923  31.139  10.522
67155W        W31088   5.892  21.034  13.385
67156W        W31089   8.171  17.653  11.585
67157W        W31090  35.085  28.665   3.157
67158W        W31091  11.701  15.186   4.616
67159W        W31092  19.548  23.554   3.273
67160W        W31093   6.753  21.653   1.316
67161W        W31094  10.666  35.374  13.031
67162W        W31095  11.204  43.493  14.460
67163W        W31096  18.644  17.064  12.923
67164W        W31097  38.514  28.038  13.543
67165W        W31098   0.796  14.267   3.776
67166W        W31099  33.115  43.869  14.949
67167W        W31100  27.981  12.145   3.684
67168W        W31101  10.269  28.540  14.871
67169W        W31102  26.076  39.009   3.735
67170W        W31103  34.995  16.283  13.941
67171W        W31104  25.010  29.958  11.007
67172W        W31105  21.670  20.207   3.343
67173W        W31106   5.252  39.318   4.170
67174W        W31107   4.218  12.280   5.229
67175W        W31108   2.827  19.689   0.901
67176W        W31109  28.086  13.670   4.746
67177W        W31110   0.366  33.381  14.297
67178W        W31111  36.868  30.973  14.513
67179W        W31112  25.654   0.963   0.267
67180W        W31113  37.417   2.304  11.877
67181W        W31114  26.617  16.657   1.359
67182W        W31115   2.776  36.480  12.510
67183W        W31116   7.378  35.406  13.536
67184W        W31117  13.808   4.368  10.523
67185W        W31118  30.100  37.354   5.275
67186W        W31119  23.052  29.069   3.169
67187W        W31120  10.263   7.337   0.760
67188W        W31121  32.391  24.521   4.754
67189W        W31122  27.477   0.807  12.975
67190W        W31123   1.434  21.100   4.325
67191W        W31124   8.382   4.350  11.475
67192W        W31125   3.877  31.467  12.351
67193W        W31126   4.833  21.514  13.019
67194W        W31127  42.886  35.944   0.355
67195W        W31128  34.572  26.107   4.821
67196W        W31129   2.906  12.218  10.987
67197W        W31130  39.504   4.298  13.414
67198W        W31131  38.975  11.662   1.891
67199W        W31132  34.594  21.231   1.932
67200W        W31133  31.548  38.473   4.764
67201W        W31134  18.692   3.926  12.568
67202W        W31135  19.751  29.023   0.903
67203W        W31136  15.232   3.735   5.304
67204W        W31137  43.348  43.271   3.849
67205W        W31138  26.634  12.688   3.692
67206W        W31139  42.948  11.293   3.313
67207W        W31140  34.568  13.637   4.617
67208W        W31141  40.967  11.792   0.949
67209W        W31142  29.174  39.903   4.301
67210W        W31143  38.929  33.065  10.023
67211W        W31144  22.165   9.187  12.403
67212W        W31145  42.855  30.543  13.927
67213W        W31146   2.266  31.551   2.408
67214W        W31147  13.820  22.592   2.267
67215W        W31148  18.702  39.810  13.395
67216W        W31149  39.032   1.958  13.508
67217W        W31150  31.589  25.566   0.813
67218W        W31151  37.495  28.472  12.868
67219W        W31152   2.743  24.021  12.569
67220W        W31153  28.083   1.285   3.839
67221W        W31154  43.320  14.653  10.977
67222W        W31155  14.209  30.969   2.383
67223W        W31156  16.266  20.215   0.436
67224W        W31157  23.636  22.206  11.457
67225W        W31158  30.968  19.563   3.700
67226W        W31159  23.556  34.470   0.272
67227W        W31160   8.866  24.575   3.210
67228W        W31161   3.297  25.037   1.412
67229W        W31162  40.902  15.802   1.829
67230W        W31163  32.962  19.586  12.400
67231W        W31164  10.138  34.963   0.951
67232W        W31165  15.095   7.407  13.325
67233W        W31166  43.976   6.277  11.397
67234W        W31167   0.965   8.276   3.659
67235W        W31168   3.279  37.085  10.528
67236W        W31169  18.105  30.929   0.804
67237W        W31170  30.556  36.860   2.873
67238W        W31171   7.741  24.720  12.072
67239W        W31172  18.267  40.015   0.440
67240W        W31173  27.070  39.483   0.244
67241W        W31174  33.616  17.689   3.173
67242W        W31175  34.402  18.726   3.734
67243W        W31176   1.907  36.371   0.734
67244W        W31177  20.585   6.238  11.927
67245W        W31178  16.196   3.794   1.847
67246W        W31179  36.973  34.042   0.815
67247W        W31180   9.373  20.085   2.875
67248W        W31181  27.153  25.169  11.945
67249W        W31182  11.688   7.710  12.034
67250W        W31183  40.817  44.405   4.726
67251W        W31184  19.568  18.575  12.943
67252W        W31185  17.151  37.476  12.477
67253W        W31186  28.567   4.829  14.026
67254W        W31187  44.329  15.704   4.217
67255W        W31188   8.772  10.230  13.922
67256W        W31189   1.356  28.526   3.288
67257W        W31190  13.227  18.567   4.717
67258W        W31191  35.539   3.933  13.493
67259W        W31192   2.272  27.036   4.726
67260W        W31193  12.155  13.815  10.424
67261W        W31194   2.342   6.697   0.921
67262W        W31195   6.788  31.531   4.209
67263W        W31196  41.907   3.358   2.338
67264W        W31197   9.756  18.217   3.223
67265W        W31198  43.394  43.968  12.904
67266W        W31199  32.613  40.836   0.433
67267W        W31200  36.472   4.217  12.549
67268W        W31201   7.376   6.766  14.990
67269W        W31202  34.026   4.204  13.337
67270W        W31203  44.771  40.493   3.752
67271W        W31204  29.435  22.536   1.327
67272W        W31205   0.863  19.734  12.397
67273W        W31206  42.400  37.433   3.322
67274W        W31207  34.870   7.383  11.083
67275W        W31208  44.274   1.289   4.316
67276W        W31209  34.563  28.052  14.297
67277W        W31210   4.291  39.059   3.694
67278W        W31211  23.025  34.028  14.904
67279W        W31212  10.685  15.684  10.131
67280W        W31213  30.587  10.761   2.726
67281W        W31214  15.685  14.282   2.184
67282W        W31215   4.246   8.277  14.018
67283W        W31216  19.708  32.416  13.547
67284W        W31217  27.143   4.416  11.076
67285W        W31218  31.456   2.322  12.458
67286W        W31219   4.810  23.720  11.931
67287W        W31220  21.569  23.052  14.842
67288W        W31221  31.958   2.952  14.458
67289W        W31222  44.940  22.248  12.423
67290W        W31223   0.371  18.658   1.298
67291W        W31224   4.900  40.030  12.882
67292W        W31225  35.430  43.008  10.640
67293W        W31226  24.223   6.751  11.052
67294W        W31227  11.754  19.276   1.308
67295W        W31228  39.989  33.896  13.398
67296W        W31229  10.718  39.877   2.832
67297W        W31230  35.030  10.314  11.126
67298W        W31231  31.412  39.352   1.383
67299W        W31232   4.383   8.740   2.356
67300W        W31233  30.115  26.637  10.996
67301W        W31234  20.631  10.250   1.724
67302W        W31235  16.125  36.373  10.594
67303W        W31236  35.585   3.381  13.359
67304W        W31237  14.259   5.880  11.533
67305W        W31238  31.640  26.569   3.655
67306W        W31239   2.283  29.462   1.917
67307W        W31240   1.423  38.476  14.382
67308W        W31241  11.250  24.661  10.998
67309W        W31242  35.595  35.601  11.011
67310W        W31243   3.225  37.503   3.240
67311W        W31244  39.939  40.046   1.303
67312W        W31245  23.120  15.249  10.525
67313W        W31246  13.199  22.109  10.583
67314W        W31247  40.475   9.659   3.307
67315W        W31248  41.337  17.208   0.727
67316W        W31249  21.674  36.370  11.015
67317W        W31250  38.373  37.048   3.211
67318W        W31251  38.522  25.653  13.507
67319W        W31252  27.585  36.979   1.367
67320W        W31253  44.287  24.989   2.407
67321W        W31254  27.005   6.201   2.186
67322W        W31255  11.289  26.179  14.400
67323W        W31256   8.757  40.926   1.317
67324W        W31257   6.806  31.079   1.347
67325W        W31258  43.302  33.550  14.436
67326W        W31259  24.704  22.658  14.975
67327W        W31260  20.676  23.660  10.605
67328W        W31261  28.183  18.257   3.260
67329W        W31262  32.464  30.539  14.910
67330W        W31263  27.523   5.410   4.145
67331W        W31264  33.613   6.206   5.261
67332W        W31265  25.049  19.073  11.933
67333W        W31266  13.118   8.810   0.390
67334W        W31267   0.784  17.670   0.306
67335W        W31268  38.333  15.584   0.951
67336W        W31269  13.775  36.386  13.532
67337W        W31270   3.778  19.116   2.686
67338W        W31271  13.709   1.340   4.724
67339W        W31272  11.325  20.623   2.392
67340W        W31273  18.741  27.543  14.448
67341W        W31274  41.945  35.914  14.813
67342W        W31275   5.838  15.207   2.181
67343W        W31276  10.283  16.120   2.694
67344W        W31277   2.918  31.520   0.391
67345W        W31278  34.938  13.669  13.015
67346W        W31279   4.236  11.829   1.356
67347W        W31280  40.005  27.582   1.885
67348W        W31281   4.895  35.049   2.267
67349W        W31282   7.763   6.677  11.949
67350W        W31283  19.272   2.416  12.437
67351W        W31284   6.309  13.760  12.019
67352W        W31285  41.501  44.930  12.550
67353W        W31286  14.767  43.911   3.263
67354W        W31287  18.601  19.071  12.000
67355W        W31288  25.211   9.850   0.316
67356W        W31289  41.991  37.887   0.280
67357W        W31290   0.338  42.341   2.696
67358W        W31291  11.334   2.755  12.573
67359W        W31292  41.384   5.212   3.796
67360W        W31293   7.815   1.331   1.256
67361W        W31294  34.078  12.238  14.293
67362W        W31295   8.667  40.379   2.792
67363W        W31296  10.865   6.392  13.457
67364W        W31297  16.783   4.913   0.478
67365W        W31298  17.661  20.553   5.215
67366W        W31299   6.883  31.096   3.844
67367W        W31300   8.744  14.596  12.829
67368W        W31301  12.134  44.915  12.443
67369W        W31302  38.340  30.074   2.753
67370W        W31303   2.959  17.106  11.972
67371W        W31304  38.422   0.853   2.336
67372W        W31305  26.958  20.675  10.917
67373W        W31306  21.678  17.089   3.707
67374W        W31307  26.978  16.577   3.803
67375W        W31308  19.083  34.496   1.896
67376W        W31309  18.676   9.775   4.296
67377W        W31310   1.939   3.387  14.827
67378W        W31311  24.716  15.165  14.792
67379W        W31312   2.381  23.213   0.403
67380W        W31313  23.073  10.224   4.189
67381W        W31314  20.641   4.446  14.353
67382W        W31315   7.209  36.856   2.758
67383W        W31316   3.759  25.064   5.138
67384W        W31317  26.477   0.945   3.635
67385W        W31318  13.622  20.126   0.330
67386W        W31319  37.885  18.616  14.852
67387W        W31320   6.826  17.141   4.805
67388W        W31321  24.083  35.963   4.681
67389W        W31322  26.957  43.368   3.322
67390W        W31323  44.499   1.351  13.392
67391W        W31324  43.437  21.640  11.127
67392W        W31325  24.225  29.118   3.227
67393W        W31326  21.549  37.396  14.414
67394W        W31327   7.172  24.525   3.320
67395W        W31328   6.226   3.917   1.254
67396W        W31329  41.972  15.252   2.193
67397W        W31330  27.607   1.255   3.347
67398W        W31331  41.292  33.422   3.254
67399W        W31332  21.634  24.991  13.829
67400W        W31333  42.464   8.656   3.371
67401W        W31334  43.505   2.437   1.849
67402W        W31335  23.684  22.660   0.339
67403W        W31336  11.684  17.597   1.865
67404W        W31337   7.778  12.164  11.434
67405W        W31338  12.747  30.036   2.849
67406W        W31339  28.514  15.250   0.349
67407W        W31340  36.509  40.841   3.803
67408W        W31341  14.646  19.614  12.077
67409W        W31342  21.199  40.429   1.256
67410W        W31343  35.459  17.305  12.351
67411W        W31344  22.645  26.581  12.828
67412W        W31345  27.073   6.795  10.434
67413W        W31346   2.447  29.546   0.793
67414W        W31347  26.018  37.538  12.449
67415W        W31348   7.866  30.109  13.471
67416W        W31349   8.384  25.137   1.424
67417W        W31350  16.676  11.166  13.988
67418W        W31351  12.179  37.008  14.860
67419W        W31352  42.920  13.350   4.167
67420W        W31353  30.052  29.459   2.787
67421W        W31354  26.981  40.359   1.735
67422W        W31355   2.890  39.321   4.644
67423W        W31356  21.057  35.370   3.326
67424W        W31357  24.560  22.253   0.464
67425W        W31358  44.965  24.687   3.169
67426W        W31359   6.721  10.377  11.093
67427W        W31360  10.150   4.816   2.689
67428W        W31361  16.219  31.115  12.988
67429W        W31362  27.600   1.872   4.209
67430W        W31363   6.815   4.420   2.297
67431W        W31364   1.451  29.483  12.418
67432W        W31365  19.621  32.063   0.731
67433W        W31366   5.304  13.195  11.080
67434W        W31367  28.450  31.068  10.907
67435W        W31368   4.312  41.987  12.580
67436W        W31369  35.389  36.427  12.361
67437W        W31370  20.192  14.213  14.293
67438W        W31371  17.665  25.206  10.408
67439W        W31372  22.664  27.680  11.918
67440W        W31373   7.410  31.570   3.763
67441W        W31374  37.083   1.341  12.984
67442W        W31375  24.056  18.568   0.351
67443W        W31376   8.395   7.275  11.921
67444W        W31377  22.601   7.793   5.300
67445W        W31378  10.704  25.516   1.709
67446W        W31379  22.503  11.195   1.320
67447W        W31380  19.689   7.397   2.676
67448W        W31381  30.951   2.919   4.311
67449W        W31382  13.201  38.545   4.601
67450W        W31383  10.720  33.622  14.461
67451W        W31384  41.322   8.197   1.703
67452W        W31385  39.537   1.421   1.372
67453W        W31386  19.774  21.755   3.171
67454W        W31387  15.803  28.636  11.567
67455W        W31388  34.524  22.240   0.850
67456W        W31389   7.848  16.206  12.548
67457W        W31390  30.063  29.029   0.317
67458W        W31391  39.557  26.647   2.870
67459W        W31392  25.663  39.409  13.315
67460W        W31393  20.545  32.414   4.151
67461W        W31394   8.326  37.524  12.383
67462W        W31395  37.906  31.610   2.757
67463W        W31396  30.939  28.027  14.427
67464W        W31397   3.375  11.231  10.080
67465W        W31398  20.131   5.360  14.349
67466W        W31399   5.251  10.178   4.201
67467W        W31400  43.956   9.751   2.261
67468W        W31401  10.798  42.452   1.857
67469W        W31402   0.886  28.934  14.402
67470W        W31403  41.857   8.718  14.954
67471W        W31404   0.377  38.999  14.785
67472W        W31405  17.212  20.714   1.294
67473W        W31406   4.276  22.226  13.994
67474W        W31407  39.358   9.236  11.448
67475W        W31408  39.519   4.235   1.699
67476W        W31409  30.108  38.028  13.507
67477W        W31410  26.559  10.342  11.438
67478W        W31411  32.984   0.757  14.349
67479W        W31412  25.608  42.488  13.444
67480W        W31413  21.031  15.663  11.053
67481W        W31414  16.247  37.504   5.178
67482W        W31415   2.403  30.951   4.638
67483W        W31416   3.809  33.468   2.415
67484W        W31417  16.621  32.949  13.489
67485W        W31418  43.295   1.842   3.296
67486W        W31419  30.548   1.953  14.769
67487W        W31420  44.842   2.934  14.516
67488W        W31421  20.612  41.460  14.377
67489W        W31422  24.050  31.082   4.597
67490W        W31423  11.213  20.543  12.999
67491W        W31424   3.459  13.258  12.998
67492W        W31425   3.331  30.929   0.376
67493W        W31426  11.806  13.678  11.489
67494W        W31427  33.062  31.079   0.327
67495W        W31428  41.944  27.162   0.347
67496W        W31429  12.334  30.921   2.677
67497W        W31430  38.054  39.992   0.865
67498W        W31431  42.437  18.172   4.199
67499W        W31432  25.529   3.274   0.923
67500W        W31433  21.192  34.054  12.341
67501W        W31434  22.157   9.718  12.483
67502W        W31435  41.360  31.940  13.454
67503W        W31436  39.349   9.857  12.554
67504W        W31437  40.968  15.217  14.328
67505W        W31438  13.661  27.651  14.774
67506W        W31439  15.213  21.072   3.842
67507W        W31440  10.765  39.357   0.765
67508W        W31441  31.953  33.473  13.993
67509W        W31442   5.399  33.574  12.542
67510W        W31443  31.452  21.031   0.741
67511W        W31444  36.066   5.764   1.845
67512W        W31445  25.189   5.783   0.283
67513W        W31446   0.323  11.736  12.454
67514W        W31447  34.092  25.082  10.944
67515W        W31448   2.923  41.896   4.138
67516W        W31449  40.870  29.469  11.427
67517W        W31450  29.091  27.546   2.347
67518W        W31451  30.513  37.535   1.909
67519W        W31452  13.723   6.417   0.359
67520W        W31453  16.643  16.134   4.666
67521W        W31454  13.149  23.019   0.379
67522W        W31455  27.022  25.487   1.891
67523W        W31456   3.419  35.390  10.969
67524W        W31457   7.903  27.596   0.413
67525W        W31458   0.473  22.620   3.725
67526W        W31459  41.835  42.426   3.852
67527W        W31460  44.868  25.024  10.473
67528W        W31461   3.458   1.796   0.788
67529W        W31462  40.448  44.875  12.503
67530W        W31463  39.890  15.165   3.362
67531W        W31464  28.993   4.826  14.864
67532W        W31465  26.061  31.086   1.767
67533W        W31466   2.304  21.026  11.111
67534W        W31467  10.189  19.166  13.029
67535W        W31468  44.328  30.131  11.009
67536W        W31469  44.488  39.978   3.235
67537W        W31470   5.323  34.033   0.434
67538W        W31471  16.589   5.759   1.433
67539W        W31472   1.863  13.696  13.807
67540W        W31473  30.565   9.287   4.160
67541W        W31474   9.162  34.427  10.507
67542W        W31475  36.357   8.304  12.077
67543W        W31476  38.325  35.007  10.942
67544W        W31477  12.687  10.824  14.000
67545W        W31478  41.799  26.055  11.102
67546W        W31479  13.683  18.152   2.300
67547W        W31480   5.716  35.509  10.408
67548W        W31481  11.811  39.056  11.011
67549W        W31482  21.250  22.564  12.943
67550W        W31483   7.297  18.680   1.296
67551W        W31484  33.058  28.150   2.253
67552W        W31485  17.788  44.423   2.701
67553W        W31486  26.204  29.938   3.294
67554W        W31487  26.206   5.435  13.015
67555W        W31488  18.078  35.983  12.864
67556W        W31489  33.418  42.885   0.914
67557W        W31490  26.061  24.197   3.742
67558W        W31491  28.563  32.432  10.571
67559W        W31492  30.995  21.589  10.937
67560W        W31493  33.053   5.273  10.445
67561W        W31494   6.830  33.929  13.924
67562W        W31495  13.334   2.434  11.465
67563W        W31496  31.024  28.591   1.310
67564W        W31497  35.106  43.283  12.891
67565W        W31498   8.271   9.320   2.403
67566W        W31499  40.341  33.970   2.801
67567W        W31500   0.330  32.083  14.981
67568W        W31501   3.249  20.163   2.899
67569W        W31502  17.125  35.909  10.958
67570W        W31503  18.722  26.058   2.716
67571W        W31504  31.099  36.946  12.351
67572W        W31505  33.110  30.499   4.829
67573W        W31506   3.859  23.230   0.414
67574W        W31507  19.693  25.571   4.352
67575W        W31508  41.295  23.509  10.563
67576W        W31509   5.919   0.370  12.394
67577W        W31510  42.354  13.187   3.183
67578W        W31511   9.171  36.458  14.281
67579W        W31512  17.213  25.519   1.228
67580W        W31513  27.062  34.391   1.821
67581W        W31514  42.841  17.186   1.746
67582W        W31515  33.028  11.832  11.058
67583W        W31516  26.082  27.519  10.587
67584W        W31517  44.377  11.209   2.239
67585W        W31518   7.264  26.537   0.420
67586W        W31519  29.579  23.074  11.032
67587W        W31520   9.803  14.310  14.459
67588W        W31521  39.338  15.676   2.702
67589W        W31522  10.863  32.402   0.788
67590W        W31523  37.055   6.853  11.112
67591W        W31524  42.917  33.087   2.902
67592W        W31525  31.024  32.948   1.716
67593W        W31526  41.970  18.281   1.849
67594W        W31527  39.059  41.884   2.236
67595W        W31528  28.583   8.739  13.519
67596W        W31529  13.337   3.259   1.442
67597W        W31530  22.722  12.816   4.295
67598W        W31531  29.148  39.824  13.970
67599W        W31532  19.133  29.020   3.303
67600W        W31533  39.557  43.447   4.754
67601W        W31534   0.266  37.397   9.597
67602W        W31535   9.825  38.341  14.874
67603W        W31536  29.668   4.876   5.116
67604W        W31537   5.337  38.998   2.745
67605W        W31538  41.396   3.937  12.836
67606W        W31539  15.272  24.995   3.281
67607W        W31540  12.273  20.161   4.120
67608W        W31541   6.837  41.871   2.709
67609W        W31542  44.907  37.353   2.688
67610W        W31543  39.993  41.445  13.968
67611W        W31544  35.882   2.412  12.502
67612W        W31545  31.581  13.784  14.463
67613W        W31546  44.895  41.928  10.532
67614W        W31547  34.488  16.262  13.032
67615W        W31548   0.773  35.523  11.857
67616W        W31549  42.806  42.853  12.398
67617W        W31550  40.541  38.041  10.465
67618W        W31551  27.616  14.277  13.544
67619W        W31552  37.526  22.109   0.320
67620W        W31553  27.684  33.494  14.831
67621W        W31554  32.487   0.308   0.393
67622W        W31555  37.447  27.598  10.897
67623W        W31556   3.344   5.331   3.184
67624W        W31557  28.574  13.202   1.428
67625W        W31558  40.856  41.495  14.875
67626W        W31559  25.017  43.927  11.897
67627W        W31560   5.900  15.716   1.339
67628W        W31561   7.410  39.489  11.372
67629W        W31562  17.588   1.881   2.821
67630W        W31563  43.921  14.250   0.759
67631W        W31564  31.470  12.119  13.968
67632W        W31565  42.913   5.778   1.814
67633W        W31566  27.561  36.054   3.758
67634W        W31567  34.559  22.156  14.759
67635W        W31568  30.947  10.164   1.298
67636W        W31569   7.681  12.169  10.414
67637W        W31570  32.041  41.025   4.624
67638W        W31571  32.063  39.361  11.071
67639W        W31572   9.808  11.663  13.350
67640W        W31573  11.296  14.637   2.397
67641W        W31574  30.059  42.368  14.025
67642W        W31575   2.236  37.471   2.300
67643W        W31576   8.802  33.540   2.717
67644W        W31577  25.216  20.091   3.224
67645W        W31578  21.688  28.150   9.992
67646W        W31579   5.194   5.222  12.482
67647W        W31580   3.280  39.348  13.881
67648W        W31581  18.700  32.948   3.342
67649W        W31582   3.377   5.745  11.979
67650W        W31583  30.143  20.672   0.282
67651W        W31584  32.620  34.023   1.914
67652W        W31585  33.603  29.078  11.069
67653W        W31586  27.642  39.549  13.468
67654W        W31587  33.621  36.936   2.696
67655W        W31588  18.206   6.265   1.228
67656W        W31589  18.205  39.403  12.370
67657W        W31590  15.140   3.711   1.370
67658W        W31591  18.116  36.357  12.356
67659W        W31592  10.297   6.703  12.905
67660W        W31593   8.803  42.940  11.414
67661W        W31594  18.209   3.395   1.274
67662W        W31595  23.651  13.819   2.240
67663W        W31596  13.702   8.703   1.431
67664W        W31597  22.640  43.000  12.891
67665W        W31598  40.817   0.877   1.325
67666W        W31599  18.650   8.794  12.922
67667W        W31600  30.110  43.834  13.804
67668W        W31601  22.102  18.721   4.221
67669W        W31602  43.938  14.655   2.179
67670W        W31603   9.210  22.202  12.973
67671W        W31604  43.897   6.756   1.704
67672W        W31605   7.280  42.892  11.087
67673W        W31606   2.259  14.307  14.804
67674W        W31607  22.152  24.614  12.371
67675W        W31608   2.270  28.551   3.269
67676W        W31609  16.102  23.506  11.533
67677W        W31610   7.793  19.262  13.978
67678W        W31611  13.732   3.761  10.432
67679W        W31612  21.736  14.295  10.484
67680W        W31613   0.252   1.923   2.833
67681W        W31614   2.770  44.889  13.343
67682W        W31615  34.548   4.901  11.876
67683W        W31616  16.700   3.397  12.863
67684W        W31617   8.797  40.012   0.879
67685W        W31618   6.800   2.287  12.340
67686W        W31619  15.327  10.866   3.801
67687W        W31620  11.834   5.282   3.853
67688W        W31621  12.774  24.224   4.606
67689W        W31622  13.110  24.180  12.002
67690W        W31623  23.682  32.030  14.015
67691W        W31624  44.417   4.774  14.489
67692W        W31625  15.704  26.533  13.496
67693W        W31626  20.621  35.932  12.853
67694W        W31627  16.675   4.404   0.369
67695W        W31628  43.950   0.820  11.556
67696W        W31629  21.574  21.586   3.719
67697W        W31630  43.994  39.444  12.835
67698W        W31631   5.802   2.735   3.671
67699W        W31632  23.670   3.278   3.635
67700W        W31633  26.605  40.370   1.444
67701W        W31634  30.088  32.566   2.330
67702W        W31635  20.692  17.715   1.405
67703W        W31636  30.575   2.453  12.939
67704W        W31637  30.988  13.825  12.086
67705W        W31638   5.221  41.396   1.893
67706W        W31639  44.850  10.213  12.390
67707W        W31640  24.656  23.521   2.755
67708W        W31641  14.721   7.405   2.686
67709W        W31642  11.741   4.912   0.407
67710W        W31643  31.902  22.733  11.559
67711W        W31644  13.680  14.833  14.812
67712W        W31645  28.670  27.478   4.607
67713W        W31646  17.242  43.391   4.789
67714W        W31647   3.434   9.822  11.032
67715W        W31648   6.836   2.291   4.161
67716W        W31649  31.023  27.117  13.847
67717W        W31650  36.035  19.731   3.863
67718W        W31651  18.760  42.489  14.375
67719W        W31652   2.741  44.973   1.931
67720W        W31653  25.008  36.376   0.366
67721W        W31654   8.207  38.534  10.945
67722W        W31655  13.673  41.852   2.386
67723W        W31656  39.503  34.104   1.804
67724W        W31657  12.666   3.276  14.826
67725W        W31658   2.815  25.545  12.053
67726W        W31659  32.605   6.734  11.967
67727W        W31660   5.409   8.233   1.858
67728W        W31661  33.532   1.840  12.908
67729W        W31662  43.501  18.254   2.376
67730W        W31663  29.557  38.558  10.428
67731W        W31664  13.742  18.753  11.492
67732W        W31665  36.509  25.656  11.115
67733W        W31666  43.944  32.426  11.930
67734W        W31667  37.449   5.216  13.418
67735W        W31668  31.628  19.558  13.017
67736W        W31669  21.228  31.115   1.738
67737W        W31670  44.288  43.320   2.287
67738W        W31671  44.279   6.836   1.340
67739W        W31672  33.019   1.850  12.920
67740W        W31673   6.750   1.962   0.768
67741W        W31674  25.550  24.694   3.698
67742W        W31675  34.579  16.718   3.812
67743W        W31676   3.783  17.705   1.882
67744W        W31677  25.198  15.324  14.292
67745W        W31678  24.056   9.150   1.916
67746W        W31679   2.437   4.872  13.881
67747W        W31680  22.127  10.719   3.766
67748W        W31681  44.421  41.897   2.237
67749W        W31682  11.344  39.958  14.455
67750W        W31683  11.815  23.532  13.840
67751W        W31684   9.303  21.090  13.349
67752W        W31685  37.086  11.831  12.886
67753W        W31686  43.484  29.530  13.975
67754W        W31687  44.395  32.411   1.926
67755W        W31688   6.785  28.983   0.377
67756W        W31689  29.472  39.326  14.386
67757W        W31690  29.616  26.572  10.103
67758W        W31691   4.324   5.933  11.445
67759W        W31692   3.385   7.209  14.275
67760W        W31693  16.652   3.266   1.212
67761W        W31694  22.654   0.371   0.457
67762W        W31695   2.347  22.219  11.934
67763W        W31696  18.228  22.641   3.231
67764W        W31697  21.708  38.566   4.704
67765W        W31698  34.071  41.823   3.204
67766W        W31699   4.293   7.706  12.911
67767W        W31700   6.271  22.572  11.941
67768W        W31701  10.669  18.070   3.784
67769W        W31702  37.375   6.841  11.007
67770W        W31703  23.071  27.120   2.223
67771W        W31704  38.910  11.665   4.730
67772W        W31705  25.468  39.384  12.863
67773W        W31706   8.217  24.708  11.578
67774W        W31707   8.712  43.786  12.466
67775W        W31708  40.827   7.817   4.335
67776W        W31709  43.396  11.647   3.631
67777W        W31710   9.275   8.695   4.707
67778W        W31711   8.764  24.069  12.466
67779W        W31712  27.996   9.850   2.768
67780W        W31713   1.328  24.057   4.718
67781W        W31714   3.260  10.163  14.297
67782W        W31715  21.587  32.475  11.928
67783W        W31716  29.165  24.080   4.666
67784W        W31717  36.864   5.874  14.859
67785W        W31718  38.921  34.462  11.869
67786W        W31719   6.861  10.796  14.866
67787W        W31720   4.331   5.302  12.875
67788W        W31721  19.715  25.170   0.875
67789W        W31722   2.319  17.227  12.410
67790W        W31723   2.793  33.882  10.952
67791W        W31724  35.096  11.257  13.544
67792W        W31725  24.550  32.455  11.493
67793W        W31726  44.412  10.198  11.984
67794W        W31727   7.780  34.014   1.381
67795W        W31728  38.030  17.772   2.366
67796W        W31729  13.134  35.954  14.492
67797W        W31730  11.363  23.155   3.227
67798W        W31731  28.111  17.090   1.795
67799W        W31732  18.293  35.970   4.166
67800W        W31733  26.004   1.451  10.596
67801W        W31734  27.646  38.822  14.463
67802W        W31735  40.923  19.654   1.303
67803W        W31736  34.079   1.928  11.552
67804W        W31737  10.143  29.919  12.452
67805W        W31738  38.022   0.444   2.273
67806W        W31739  44.443   7.867   4.290
67807W        W31740  30.090   8.794  10.457
67808W        W31741  26.698   6.683   0.802
67809W        W31742  12.315  23.212  13.307
67810W        W31743  22.072  15.781  13.890
67811W        W31744  43.341  28.539  10.915
67812W        W31745  32.400   1.301   4.733
67813W        W31746  37.535  23.012  14.906
67814W        W31747  33.568  36.951   1.854
67815W        W31748  13.640  26.007   1.330
67816W        W31749  26.632   5.689   2.357
67817W        W31750   8.305   6.922  13.847
67818W        W31751  15.749  42.417  14.408
67819W        W31752  21.541  17.686   3.732
67820W        W31753  30.449  22.225   2.241
67821W        W31754  25.121  39.942   3.165
67822W        W31755   6.689  20.546  13.428
67823W        W31756  17.188  26.473  11.906
67824W        W31757  11.858  42.289   1.828
67825W        W31758  41.800  25.106   3.365
67826W        W31759  16.283  10.206  10.025
67827W        W31760   0.870  23.734  14.325
67828W        W31761   3.307  42.394   0.914
67829W        W31762   4.339   3.334  12.874
67830W        W31763  13.641  31.946   4.292
67831W        W31764  41.396  42.333  10.500
67832W        W31765  20.133  39.046   3.647
67833W        W31766  19.126   5.927  10.487
67834W        W31767  22.734  42.456   2.402
67835W        W31768  41.034  23.233  12.023
67836W        W31769   1.316  41.340   2.347
67837W        W31770  10.319  13.349  10.441
67838W        W31771  10.327  35.008   1.362
67839W        W31772  35.933  18.294   3.815
67840W        W31773  17.261  28.127   4.244
67841W        W31774  29.143   4.797  10.494
67842W        W31775  12.792   5.202  13.029
67843W        W31776  11.159  16.610  11.431
67844W        W31777   0.770  44.799   2.365
67845W        W31778  43.771   1.932   0.368
67846W        W31779   3.294  20.041   5.284
67847W        W31780   3.784  37.557  11.969
67848W        W31781  35.478   3.273   2.822
67849W        W31782  35.531  25.036  11.951
67850W        W31783   1.345  22.167   3.274
67851W        W31784  25.674   8.796  10.561
67852W        W31785  23.670  19.692   1.872
67853W        W31786   3.796  25.218   1.273
67854W        W31787  40.484  25.571  10.982
67855W        W31788   3.241  12.182  13.367
67856W        W31789  19.080   5.729  12.879
67857W        W31790  19.724  30.633  12.472
67858W        W31791  11.322   3.302   4.161
67859W        W31792  11.192  12.356  13.343
67860W        W31793  15.083  17.283  12.518
67861W        W31794  33.567  22.170   9.989
67862W        W31795  19.240  16.318  10.564
67863W        W31796  37.027  34.992   0.727
67864W        W31797  20.584  29.639   0.259
67865W        W31798  30.602  12.116   1.913
67866W        W31799  12.832   0.430   3.797
67867W        W31800  13.137  19.718  13.337
67868W        W31801  32.524  33.055  14.407
67869W        W31802  17.777  38.511  14.815
67870W        W31803  27.160   0.898  13.505
67871W        W31804  36.410  20.658  11.468
67872W        W31805  29.485  42.938   3.374
67873W        W31806  12.276  41.852   0.853
67874W        W31807  44.844  10.656  13.794
67875W        W31808  25.628   2.364   0.282
67876W        W31809  12.159  31.580   3.651
67877W        W31810   4.393  22.117  10.597
67878W        W31811  32.001   4.833  12.838
67879W        W31812  18.172  23.541  11.081
67880W        W31813  10.201  24.614   1.931
67881W        W31814  37.913  11.697  12.416
67882W        W31815   5.327   5.229  12.911
67883W        W31816  11.803  22.108  12.025
67884W        W31817   2.791   9.881   3.816
67885W        W31818  12.723  34.096  14.860
67886W        W31819   7.311  12.274   3.166
67887W        W31820  16.251  31.626  13.449
67888W        W31821  23.039  13.161   1.373
67889W        W31822   9.367  13.288  14.365
67890W        W31823  29.594  15.243  14.810
67891W        W31824  21.671   3.394  14.893
67892W        W31825  39.937  38.439  14.978
67893W        W31826  40.372  26.660   4.170
67894W        W31827   5.219  10.762   3.370
67895W        W31828  18.713  24.045  12.826
67896W        W31829  43.488   4.758   1.237
67897W        W31830  10.187  14.612  12.556
67898W        W31831  13.803  12.279  10.505
67899W        W31832  31.923  33.903  11.497
67900W        W31833  29.944  30.997   4.320
67901W        W31834  13.137  21.527  12.836
67902W        W31835  43.919  21.200  10.892
67903W        W31836   0.890  12.244  10.445
67904W        W31837   7.813  21.074  14.930
67905W        W31838  23.646   2.789  13.548
67906W        W31839  32.401  34.481   1.822
67907W        W31840  13.714   4.407  14.787
67908W        W31841  32.469  17.168   4.333
67909W        W31842  37.367  22.210  13.523
67910W        W31843  33.424  26.186   0.280
67911W        W31844  28.575  34.465  12.824
67912W        W31845  34.493   3.381   4.695
67913W        W31846   1.477   6.787  10.517
67914W        W31847   5.385  35.912   3.244
67915W        W31848  39.966  20.106   2.415
67916W        W31849  39.470  13.744   0.340
67917W        W31850   5.847  24.705  13.814
67918W        W31851  21.561  13.302  11.890
67919W        W31852  29.489  10.290  11.419
67920W        W31853   7.876  16.652   1.227
67921W        W31854  31.589  41.481  10.451
67922W        W31855  29.951  38.878   2.776
67923W        W31856  27.970  31.439  11.066
67924W        W31857  27.524  26.083  13.971
67925W        W31858   2.392  33.084   2.822
67926W        W31859  40.980  36.976  12.518
67927W        W31860   6.331  42.371  11.413
67928W        W31861  12.160  24.491  11.080
67929W        W31862  11.750  11.156   4.617
67930W        W31863  40.467   8.391   1.250
67931W        W31864   8.811  33.064  10.537
67932W        W31865  35.015  42.901  10.519
67933W        W31866  21.223  34.458   4.148
67934W        W31867  16.211  35.899   4.637
67935W        W31868  35.516   8.885   2.315
67936W        W31869  41.444  35.064   2.843
67937W        W31870  39.893   6.735  12.873
67938W        W31871  15.274   1.355   1.433
67939W        W31872  40.547   5.820  11.870
67940W        W31873  14.650  40.413   1.238
67941W        W31874  21.713   9.355  14.396
67942W        W31875   3.237  35.930  11.494
67943W        W31876  17.182  32.428   1.377
67944W        W31877   2.318  19.668   2.842
67945W        W31878  23.150  42.964   4.772
67946W        W31879  12.833  28.059  14.395
67947W        W31880  35.099   1.384  11.549
67948W        W31881  13.286  21.131   3.654
67949W        W31882   2.336  18.105  14.031
67950W        W31883  29.919   8.222  14.388
67951W        W31884  30.488  38.944   1.381
67952W        W31885  37.343  26.055  13.820
67953W        W31886  40.350  14.156  12.995
67954W        W31887   0.850  42.880   4.203
67955W        W31888  10.808  31.064  13.307
67956W        W31889  18.259  21.128   4.299
67957W        W31890  23.126  17.764  13.905
67958W        W31891  26.086   9.659   0.372
67959W        W31892  41.038  35.563   3.358
67960W        W31893  42.874  10.261   3.838
67961W        W31894   4.755  44.875  14.783
67962W        W31895  13.250  37.467   1.391
67963W        W31896   4.718  23.999  14.032
67964W        W31897  21.662  37.981  10.439
67965W        W31898  16.650   4.359  14.279
67966W        W31899  17.735  14.233  11.107
67967W        W31900  42.984  26.534   0.357
67968W        W31901  12.360   9.351  10.433
67969W        W31902   9.335   0.974  14.362
67970W        W31903  31.549  30.127  13.404
67971W        W31904  18.216  28.040   2.216
67972W        W31905  25.696  21.116   1.827
67973W        W31906  24.151  15.820  12.534
67974W        W31907  13.173   2.946   0.937
67975W        W31908  15.586   7.694  13.534
67976W        W31909  21.705  16.581  14.514
67977W        W31910  31.001   3.300   0.844
67978W        W31911  39.032  29.997  13.954
67979W        W31912   3.232   8.193   4.691
67980W        W31913  28.047  13.645  14.838
67981W        W31914   2.755  34.591   4.166
67982W        W31915  43.901  21.534   2.823
67983W        W31916  34.382  44.947  14.935
67984W        W31917  13.645  34.532   3.807
67985W        W31918   4.825  41.922  14.442
67986W        W31919  42.395  40.812  14.419
67987W        W31920   0.412  27.478   3.294
67988W        W31921   0.293  11.822  14.401
67989W        W31922   5.928  27.538  10.909
67990W        W31923  44.317  19.601   4.252
67991W        W31924   7.404   1.801   4.231
67992W        W31925  35.042  35.968  10.496
67993W        W31926  25.149  11.809  14.999
67994W        W31927  35.369  42.322  11.429
67995W        W31928   4.721   3.225   1.253
67996W        W31929  12.678   2.846  11.881
67997W        W31930  43.917   9.365  10.545
67998W        W31931  12.195  15.604  13.923
67999W        W31932  36.530   1.254  13.999
68000W        W31933  11.702   6.299   0.737
68001W        W31934  12.695  36.556  10.431
68002W        W31935   5.706   2.734  11.513
68003W        W31936  17.794   4.774   0.313
68004W        W31937   4.439   5.907   4.619
68005W        W31938  41.887  10.666  13.812
68006W        W31939  29.558  42.954  12.066
68007W        W31940  11.710   4.318  13.873
68008W        W31941  21.561  44.789  13.032
68009W        W31942  43.916  29.167   2.896
68010W        W31943  33.986  18.596   3.838
68011W        W31944  36.077  32.477  13.426
68012W        W31945  11.191   5.902   1.847
68013W        W31946  33.018  32.571   0.761
68014W        W31947  36.872  19.046  11.569
68015W        W31948  28.162   3.351  14.316
68016W        W31949   8.674  24.151  11.032
68017W        W31950  29.542   1.784   3.736
68018W        W31951  13.818  34.873  14.377
68019W        W31952  13.671  13.845   4.815
68020W        W31953  25.018  37.921   3.635
68021W        W31954  32.005  38.355   3.313
68022W        W31955  16.666  29.654   0.435
68023W        W31956  13.239  27.032   1.887
68024W        W31957   6.858  10.351   2.844
68025W        W31958   4.331   7.777  10.969
68026W        W31959   7.782   2.777   5.116
68027W        W31960   5.214  36.510   0.460
68028W        W31961  24.124  32.461   4.196
68029W        W31962  11.759  43.360  13.418
68030W        W31963   4.828  21.744   4.250
68031W        W31964  24.503  31.617  13.482
68032W        W31965   5.921  39.987   0.258
68033W        W31966  22.126  30.552  11.507
68034W        W31967  19.771  36.969   3.245
68035W        W31968  21.605  43.867  11.484
68036W        W31969   7.215  19.703  11.120
68037W        W31970  12.627   6.278  12.564
68038W        W31971  24.042  11.790  12.011
68039W        W31972  22.160   0.838   1.860
68040W        W31973   7.865  34.513   1.919
68041W        W31974   5.847  43.947   0.308
68042W        W31975  37.950   7.717   4.674
68043W        W31976  20.744   0.341   4.126
68044W        W31977  20.716  30.471   2.788
68045W        W31978  29.541  22.705   2.220
68046W        W31979   8.844  32.546  14.393
68047W        W31980   4.373  17.077  10.962
68048W        W31981  43.992  19.702   4.652
68049W        W31982  21.664  39.981  11.892
68050W        W31983   0.279  29.049   0.244
68051W        W31984  12.228  21.037  11.896
68052W        W31985  21.144  38.978   4.191
68053W        W31986  23.207   2.895   2.247
68054W        W31987  28.012   2.941  12.968
68055W        W31988  14.658  27.611   4.227
68056W        W31989  38.470  13.738   3.345
68057W        W31990  44.010   1.873   3.828
68058W        W31991  18.637  12.200   3.185
68059W        W31992  34.460  43.995   1.236
68060W        W31993  31.634  26.011  11.408
68061W        W31994  41.932  16.164  11.462
68062W        W31995  33.897  16.141  13.005
68063W        W31996  33.534   6.197  11.559
68064W        W31997  22.199   4.360  10.634
68065W        W31998  32.576  20.530   1.225
68066W        W31999  10.673  19.627   0.926
68067W        W32000  44.406   1.938  12.470
68068W        W32001   5.740  41.335   4.757
68069W        W32002   0.838  31.096   1.920
68070W        W32003   4.263  20.617   0.371
68071W        W32004  25.021  44.762   3.638
68072W        W32005  17.705   4.855  12.341
68073W        W32006  44.426  43.479   3.271
68074W        W32007  38.570  21.658   2.363
68075W        W32008  14.317  12.204  14.431
68076W        W32009   4.232   7.310   0.309
68077W        W32010   1.836  15.700   4.649
68078W        W32011   8.781   6.814  12.923
68079W        W32012  33.451  21.130  12.070
68080W        W32013  36.509  21.052   1.897
68081W        W32014  32.077  34.035   1.281
68082W        W32015  12.347  29.970   3.644
68083W        W32016  10.341  17.629   2.308
68084W        W32017  12.127  43.281   4.313
68085W        W32018  19.715  33.420   3.247
68086W        W32019  12.322  40.908  12.932
68087W        W32020  19.754  28.137  12.361
68088W        W32021  42.453   5.218   1.237
68089W        W32022  21.649  28.613  11.467
68090W        W32023  34.558   1.430   3.755
68091W        W32024  44.321   2.303  13.988
68092W        W32025  28.584  28.119  12.031
68093W        W32026  39.418   1.357  11.536
68094W        W32027  33.893  43.864  14.794
68095W        W32028  20.051  15.260   5.804
68096W        W32029  44.942  31.041   3.780
68097W        W32030   9.172   9.357   0.457
68098W        W32031  30.980   4.875  14.936
68099W        W32032  33.461  15.327   0.895
68100W        W32033  24.620  27.691  13.509
68101W        W32034   0.885  21.107  14.931
68102W        W32035  16.261  32.961   1.260
68103W        W32036  32.066  38.470   4.254
68104W        W32037  38.482  14.104  10.540
68105W        W32038  44.901  21.553  13.498
68106W        W32039  12.219  20.703   0.894
68107W        W32040  37.487  44.884   0.752
68108W        W32041  27.542  29.498  12.510
68109W        W32042  41.349  44.773   0.808
68110W        W32043   5.793  39.951   1.374
68111W        W32044  37.882   9.838  11.459
68112W        W32045   3.378  40.958   4.728
68113W        W32046  26.523  44.756  13.515
68114W        W32047  30.452  16.197   4.776
68115W        W32048  14.620   4.895   5.088
68116W        W32049  11.751  33.381  12.375
68117W        W32050  42.323   8.853   1.806
68118W        W32051  20.756   7.857  13.548
68119W        W32052  18.203  20.225   3.314
68120W        W32053  18.701  12.750   5.146
68121W        W32054  31.636  40.966   1.389
68122W        W32055  37.461  23.640   4.205
68123W        W32056  37.987  44.466  10.416
68124W        W32057   2.452  34.478  14.358
68125W        W32058  29.048   0.838  13.002
68126W        W32059  37.851  29.044  14.280
68127W        W32060  18.629   0.744  11.884
68128W        W32061  21.737  14.192  11.051
68129W        W32062  31.025  34.002   2.722
68130W        W32063  29.025   8.872   1.767
68131W        W32064  32.573  42.381  14.885
68132W        W32065  33.934   4.764   2.308
68133W        W32066  21.748  13.324   2.179
68134W        W32067  39.837  23.200   2.889
68135W        W32068  14.595  34.891  13.987
68136W        W32069   2.294   0.426   3.238
68137W        W32070  26.085   6.206   3.181
68138W        W32071  38.453  39.394  14.930
68139W        W32072  28.995  15.711  10.984
68140W        W32073   5.829  35.990   2.375
68141W        W32074  15.649  11.840   1.328
68142W        W32075  32.394  36.855   1.699
68143W        W32076  14.094  27.545   3.680
68144W        W32077  41.836   2.900  10.627
68145W        W32078  34.946  22.554  13.885
68146W        W32079  17.580  37.877   1.727
68147W        W32080  14.283  30.911  12.403
68148W        W32081  36.509   0.347  14.317
68149W        W32082   7.404  29.492  14.773
68150W        W32083   2.249  25.596   0.952
68151W        W32084  25.175   4.938   2.330
68152W        W32085  33.058   5.929   3.773
68153W        W32086  18.296  21.202   2.211
68154W        W32087   7.252  32.892   1.696
68155W        W32088  23.544  29.924   4.200
68156W        W32089   1.395   9.855  11.456
68157W        W32090  41.870  20.194  13.383
68158W        W32091  40.824   1.299  14.769
68159W        W32092  29.076  29.579  13.865
68160W        W32093  37.369  24.208  14.905
68161W        W32094  24.078  32.895   4.644
68162W        W32095  25.615  14.644  13.816
68163W        W32096   0.801  22.103  10.545
68164W        W32097  35.033  23.613  14.892
68165W        W32098  16.111  10.788  10.914
68166W        W32099  17.289  18.624   4.212
68167W        W32100  26.049  23.708   3.845
68168W        W32101   3.355  13.333   5.788
68169W        W32102  22.028  24.153  13.529
68170W        W32103  14.834  26.129  12.910
68171W        W32104  35.968  44.008  13.877
68172W        W32105  24.129  22.715   2.765
68173W        W32106  25.540  24.709  10.490
68174W        W32107  31.124   8.216   2.695
68175W        W32108   2.268  22.544   0.955
68176W        W32109   3.877  29.101   4.678
68177W        W32110   1.891   4.422   4.262
68178W        W32111  31.430  27.968   2.415
68179W        W32112  18.761   5.712   1.315
68180W        W32113   7.398   4.828   2.312
68181W        W32114  27.081  37.891   1.751
68182W        W32115  39.869  36.087  13.002
68183W        W32116  24.484   2.400  14.949
68184W        W32117   0.901  35.561   4.787
68185W        W32118  22.186   1.815  12.440
68186W        W32119   9.236   4.352   3.835
68187W        W32120  31.940   6.803   3.680
68188W        W32121  30.160  22.101  12.986
68189W        W32122   6.742  16.237  14.854
68190W        W32123  32.014  41.788  13.539
68191W        W32124   2.726  40.461  10.972
68192W        W32125  12.668  19.218  11.436
68193W        W32126  23.066  19.725   3.154
68194W        W32127  21.093   0.861   1.334
68195W        W32128   8.348  23.508   4.152
68196W        W32129   9.158   9.249  12.029
68197W        W32130  22.231  41.365  14.398
68198W        W32131  35.871  33.952   4.796
68199W        W32132   8.888  42.332  12.422
68200W        W32133   8.857  29.640  14.892
68201W        W32134  24.490  10.727   2.726
68202W        W32135  26.555  31.004  12.084
68203W        W32136   4.769  22.563  11.019
68204W        W32137   0.796   9.645   0.333
68205W        W32138  12.855  25.032   0.828
68206W        W32139  38.051  38.456  14.445
68207W        W32140  16.680   8.224   2.303
68208W        W32141   6.749  20.649  13.845
68209W        W32142   6.772  16.600   2.292
68210W        W32143  34.483  13.678   4.246
68211W        W32144  22.738  36.853  13.373
68212W        W32145  40.862  43.951  10.564
68213W        W32146   3.903  18.607   1.235
68214W        W32147  17.696  24.676  12.487
68215W        W32148  16.160  26.564  13.506
68216W        W32149  25.639  29.548   9.949
68217W        W32150  43.475  17.067  14.305
68218W        W32151  27.511   2.896   1.239
68219W        W32152  11.347  41.407   3.386
68220W        W32153  10.661   8.389   3.800
68221W        W32154   7.728  20.220  12.383
68222W        W32155  29.556  35.105   1.442
68223W        W32156  38.339  21.708   4.825
68224W        W32157   8.711  15.723  11.857
68225W        W32158  12.685   0.896  13.919
68226W        W32159  14.782  13.657  14.912
68227W        W32160  40.860   3.292  11.927
68228W        W32161  26.061  36.519  12.423
68229W        W32162  13.713  15.716   2.243
68230W        W32163  38.559   3.916   4.669
68231W        W32164  31.065  10.647   3.753
68232W        W32165  24.651   3.853   2.832
68233W        W32166  23.539   5.340  14.460
68234W        W32167  14.796  10.237  14.321
68235W        W32168  30.930  36.862  11.041
68236W        W32169  29.941  25.651   3.228
68237W        W32170  16.616  25.065  14.345
68238W        W32171  16.579  29.135  12.401
68239W        W32172  18.207   5.402   0.823
68240W        W32173  36.884  24.002   2.895
68241W        W32174  30.487   2.864   3.182
68242W        W32175  32.456  39.926   2.730
68243W        W32176  26.198  39.368  11.415
68244W        W32177  42.442   3.810   4.673
68245W        W32178  32.973   9.157  14.818
68246W        W32179  23.125   0.350   4.793
68247W        W32180   5.420  32.036   1.386
68248W        W32181   9.888   2.739   2.189
68249W        W32182   4.882  26.510  10.465
68250W        W32183  18.582  42.415  14.852
68251W        W32184   9.778   7.713   3.785
68252W        W32185   0.249  43.509   3.803
68253W        W32186  38.326  25.528  13.871
68254W        W32187  28.164   5.306  13.933
68255W        W32188  11.775  44.927   4.819
68256W        W32189   3.720  38.933  10.928
68257W        W32190   6.416  15.297  11.406
68258W        W32191  34.567  13.732   3.320
68259W        W32192   6.810  33.018   4.234
68260W        W32193  42.381  27.125   0.750
68261W        W32194   4.911  35.515   2.250
68262W        W32195  31.597   1.872   0.749
68263W        W32196  38.896  14.129   2.317
68264W        W32197  36.950   0.473  13.041
68265W        W32198  26.683  28.436   3.864
68266W        W32199   3.409  31.123  14.322
68267W        W32200  32.909  20.713   4.752
68268W        W32201  33.122  30.060  11.960
68269W        W32202  42.323  34.002   1.843
68270W        W32203  14.303  23.073  11.557
68271W        W32204   2.900  40.812   4.152
68272W        W32205  14.638  11.259  14.502
68273W        W32206   0.902  11.195  14.283
68274W        W32207  36.369  42.393  10.605
68275W        W32208   6.281   3.913  13.877
68276W        W32209  44.358  43.493  13.957
68277W        W32210  25.131  37.850  13.981
68278W        W32211  24.487  34.116   4.178
68279W        W32212  24.168  32.628  14.769
68280W        W32213  36.497  26.072  12.436
68281W        W32214  15.218  27.997  11.123
68282W        W32215  21.055  37.902   1.329
68283W        W32216  37.869  13.794  10.989
68284W        W32217  25.973  25.185   1.742
68285W        W32218   3.924  11.288   2.666
68286W        W32219  10.252  29.171   2.864
68287W        W32220   7.330  33.558   4.685
68288W        W32221  22.651  42.343   2.883
68289W        W32222  39.436  36.929  10.626
68290W        W32223  17.768  32.978  10.421
68291W        W32224  19.719  25.480  12.980
68292W        W32225  34.923  42.952  14.402
68293W        W32226  20.743   7.382  13.898
68294W        W32227  22.577  25.661  13.882
68295W        W32228  11.312  13.243  14.437
68296W        W32229  22.585  15.215  13.340
68297W        W32230   1.458   0.353  10.995
68298W        W32231   7.411   7.271   3.336
68299W        W32232  43.869  14.597  10.918
68300W        W32233  32.936   4.763   3.329
68301W        W32234  10.745  36.547   0.351
68302W        W32235  36.888  33.952  10.418
68303W        W32236  16.174   1.483  11.055
68304W        W32237  35.409  26.698   2.732
68305W        W32238  37.030  12.793   4.665
68306W        W32239  22.231  22.189  13.465
68307W        W32240  42.032  31.407   1.849
68308W        W32241  25.064  15.708  14.887
68309W        W32242   9.735  14.127   0.873
68310W        W32243  24.596  31.923  14.459
68311W        W32244  14.247  13.105   5.185
68312W        W32245  11.731  31.467  14.279
68313W        W32246  22.213  31.039  14.775
68314W        W32247  27.612  24.628  12.006
68315W        W32248   7.910  30.443  11.378
68316W        W32249  13.330  36.909  14.993
68317W        W32250  27.021   0.426  12.441
68318W        W32251  34.909  42.363  13.795
68319W        W32252  20.183  42.462  14.840
68320W        W32253  14.251  33.893  12.509
68321W        W32254   8.767  28.997   1.378
68322W        W32255  18.165  10.363  14.930
68323W        W32256  37.345  36.490  12.966
68324W        W32257  14.208  30.006   2.809
68325W        W32258   0.777  15.141  13.367
68326W        W32259  44.819  18.625   1.212
68327W        W32260  23.725  13.254  13.850
68328W        W32261  33.386  32.598   4.340
68329W        W32262  39.032  38.054   2.770
68330W        W32263  24.200  37.509  12.903
68331W        W32264   4.777  36.013   2.223
68332W        W32265  34.021  44.919   2.901
68333W        W32266  15.212  24.519  13.911
68334W        W32267  21.206  18.170  11.374
68335W        W32268  15.748  14.266  13.405
68336W        W32269  20.209   0.846   1.234
68337W        W32270  23.189  38.479  14.803
68338W        W32271  16.277  39.064  12.556
68339W        W32272  25.022  25.701  11.527
68340W        W32273   5.352   0.969  10.589
68341W        W32274  11.760  27.692   2.247
68342W        W32275  22.037   2.759  11.076
68343W        W32276  13.280  24.204  14.477
68344W        W32277  35.590  37.480  12.043
68345W        W32278   6.326  12.318   4.791
68346W        W32279  13.631  16.585   1.419
68347W        W32280  13.231  11.333  13.314
68348W        W32281   8.898  35.881   9.960
68349W        W32282  29.948  21.022   1.381
68350W        W32283  23.552  22.534   1.800
68351W        W32284  42.354   9.828   3.749
68352W        W32285   2.411  44.341   3.811
68353W        W32286  21.178   8.815   4.330
68354W        W32287  25.158  39.940   4.265
68355W        W32288  26.208  11.154   3.291
68356W        W32289  38.824   8.161  14.992
68357W        W32290  41.836  13.675   4.824
68358W        W32291  33.879  30.607  11.858
68359W        W32292  24.559  28.140   2.808
68360W        W32293  12.816  18.774   0.318
68361W        W32294  43.960  12.313  13.358
68362W        W32295  29.937  40.807   4.691
68363W        W32296  42.781  11.160   4.749
68364W        W32297  21.612   3.941   0.450
68365W        W32298  24.564  38.367   2.260
68366W        W32299  35.512  41.445  12.414
68367W        W32300  40.881  41.983   0.864
68368W        W32301   8.811  41.014  14.372
68369W        W32302  35.065  17.644   0.277
68370W        W32303  40.013   1.396  13.409
68371W        W32304  16.145  20.173   3.838
68372W        W32305  37.372   9.223   2.725
68373W        W32306  29.074  31.506   3.772
68374W        W32307  26.600  42.315  11.499
68375W        W32308  43.789  34.950  13.946
68376W        W32309  14.221   3.282  10.565
68377W        W32310  43.001  41.339  13.943
68378W        W32311   6.264  33.897  10.937
68379W        W32312   8.312  16.184  12.559
68380W        W32313  28.614  27.047   2.719
68381W        W32314   1.875  19.104  12.494
68382W        W32315  25.709  40.516  14.471
68383W        W32316   9.746  12.243   2.342
68384W        W32317  10.849  15.228  12.391
68385W        W32318   5.334   4.705   4.187
68386W        W32319   5.912  27.481  12.899
68387W        W32320  29.537  37.345  12.434
68388W        W32321  14.276  20.131  13.468
68389W        W32322   9.204  33.947  11.105
68390W        W32323  12.650  39.395  12.361
68391W        W32324  29.660  43.836   0.922
68392W        W32325  26.624  23.165   2.310
68393W        W32326  43.358  21.024   0.368
68394W        W32327  27.060  36.353  11.574
68395W        W32328   8.787   4.417  13.512
68396W        W32329   8.815  14.308   4.287
68397W        W32330  27.003  28.673  14.319
68398W        W32331  32.950  31.425  14.276
68399W        W32332  11.242   3.271  13.308
68400W        W32333  21.566  24.107   2.756
68401W        W32334  34.918  24.997  10.569
68402W        W32335  37.077  29.033   1.916
68403W        W32336  15.657  37.015   2.283
68404W        W32337  12.698  21.149   4.779
68405W        W32338  31.152  23.624  13.947
68406W        W32339  36.020  16.289   1.701
68407W        W32340  31.487  26.029   4.706
68408W        W32341  35.873  24.093   4.278
68409W        W32342  18.195  44.936   3.760
68410W        W32343  34.878   1.930   2.837
68411W        W32344  34.104  25.552  13.007
68412W        W32345   1.930  24.108  13.307
68413W        W32346   0.366  27.006  10.948
68414W        W32347   0.334  32.932   2.293
68415W        W32348  15.097  39.407   1.242
68416W        W32349  26.675  14.790  14.868
68417W        W32350  26.675  22.733   2.185
68418W        W32351   0.423  13.799   1.885
68419W        W32352  12.126  22.097   0.408
68420W        W32353  18.657   6.192   5.094
68421W        W32354  21.580  12.261  10.616
68422W        W32355  33.413  35.011   5.114
68423W        W32356  41.377  40.485  14.918
68424W        W32357  17.252  27.075   0.859
68425W        W32358   9.683  24.994  10.603
68426W        W32359  13.113  19.056  11.918
68427W        W32360  18.167  26.131  12.557
68428W        W32361  35.554  13.707  13.446
68429W        W32362  41.829  30.607  14.331
68430W        W32363   9.201  30.527   0.478
68431W        W32364  42.427  33.107   1.392
68432W        W32365   3.432  19.166   0.288
68433W        W32366  43.465   8.234  14.765
68434W        W32367   0.469  13.131  13.021
68435W        W32368   3.385   5.293  11.999
68436W        W32369  40.913  19.183   2.246
68437W        W32370  30.590   1.810  14.274
68438W        W32371  17.705  28.678  14.903
68439W        W32372   3.936  42.494  13.903
68440W        W32373  12.784  32.414   3.257
68441W        W32374  44.820  11.631  10.617
68442W        W32375  27.053  38.820  11.932
68443W        W32376   4.736   7.782   1.394
68444W        W32377  11.699  25.690  14.279
68445W        W32378  20.121  31.563   0.243
68446W        W32379  11.324  23.683  12.925
68447W        W32380  11.314  15.782   3.833
68448W        W32381   2.966   6.411  11.389
68449W        W32382  29.642  38.339   3.727
68450W        W32383  15.628  14.330   3.737
68451W        W32384  11.714  11.829  12.964
68452W        W32385  34.075  24.618   2.257
68453W        W32386  39.938  26.117  12.370
68454W        W32387   4.416   2.889  12.945
68455W        W32388  32.549   2.942   0.897
68456W        W32389  35.599  18.591   0.334
68457W        W32390   4.852  35.443   4.330
68458W        W32391   2.748  32.116   1.852
68459W        W32392   8.804   5.721  13.889
68460W        W32393   1.241  32.123  14.507
68461W        W32394  21.678  18.645  11.408
68462W        W32395  18.295  19.239  13.811
68463W        W32396   7.746  12.237   3.311
68464W        W32397  43.815  30.151   2.883
68465W        W32398  30.430  34.370  13.795
68466W        W32399   4.214  13.690  13.537
68467W        W32400  12.164  15.146  11.434
68468W        W32401  38.552  17.080  14.868
68469W        W32402  17.084  23.608  14.822
68470W        W32403   8.780  10.332  14.425
68471W        W32404  20.261  33.064  14.912
68472W        W32405  41.862   6.723  10.529
68473W        W32406   3.459  39.880   2.196
68474W        W32407  22.529   9.652  10.495
68475W        W32408  37.842  39.545  14.311
68476W        W32409   0.878  21.659   4.181
68477W        W32410  28.519  12.257   0.906
68478W        W32411  43.855  44.353   3.353
68479W        W32412  16.123  10.189  12.851
68480W        W32413  42.287  36.001   3.715
68481W        W32414  10.813  14.100   0.396
68482W        W32415  38.978  28.128   4.702
68483W        W32416   4.883  22.530  12.380
68484W        W32417  39.358  24.088  13.349
68485W        W32418  29.135   5.883  14.775
68486W        W32419  26.491   2.373  12.441
68487W        W32420  44.364   0.819   4.148
68488W        W32421  31.989  37.422   2.289
68489W        W32422  27.564  26.695   1.865
68490W        W32423  37.428   9.212   1.797
68491W        W32424  29.987   3.422  14.948
68492W        W32425   8.858  39.546  13.055
68493W        W32426  15.584  38.510   4.258
68494W        W32427  21.714  17.777  14.854
68495W        W32428  28.554   6.808  12.945
68496W        W32429   3.885  12.359  10.610
68497W        W32430   8.263  24.092  13.020
68498W        W32431   9.836   5.318   0.749
68499W        W32432   2.394  17.237   3.263
68500W        W32433  36.455  11.352  10.990
68501W        W32434  15.581   4.360   4.131
68502W        W32435  19.083  30.980  13.794
68503W        W32436  26.156  15.099  10.922
68504W        W32437  12.120   9.200  11.401
68505W        W32438  32.536  12.715  13.948
68506W        W32439  30.441   7.407  12.466
68507W        W32440  23.179  28.510  11.599
68508W        W32441  13.770  37.958  11.390
68509W        W32442  19.540  22.568  11.064
68510W        W32443   2.752  42.874  14.513
68511W        W32444  38.966   8.385   0.841
68512W        W32445  37.359  31.561   1.715
68513W        W32446  40.471   6.719  11.374
68514W        W32447  25.012  17.740   1.888
68515W        W32448   5.836  18.715   0.467
68516W        W32449  29.536  31.939   3.831
68517W        W32450  36.855  17.682  14.836
68518W        W32451  23.173  10.658  12.482
68519W        W32452   9.196   2.849   3.330
68520W        W32453   2.872  22.096   1.292
68521W        W32454  42.798  11.181   1.890
68522W        W32455  41.914  21.566   3.355
68523W        W32456  26.650  42.381   5.655
68524W        W32457   5.717  36.399   2.779
68525W        W32458  39.873  33.509   2.679
68526W        W32459  12.693  17.619  14.795
68527W        W32460   5.319   7.306  13.432
68528W        W32461   2.922  15.756   2.759
68529W        W32462  42.332   5.196  10.428
68530W        W32463  35.518  34.010   1.448
68531W        W32464  12.833  37.370   2.802
68532W        W32465  38.445  14.229   2.811
68533W        W32466  43.004  27.467   0.463
68534W        W32467  23.161  33.408   4.631
68535W        W32468   6.908   5.411  12.981
68536W        W32469  38.057   3.903  11.857
68537W        W32470  11.252   4.914  12.861
68538W        W32471  12.673  40.797  10.923
68539W        W32472   6.232  18.124   3.728
68540W        W32473   7.274   6.685   3.862
68541W        W32474  22.693   6.805  11.034
68542W        W32475   2.801   5.821  11.884
68543W        W32476  41.814  14.667  11.906
68544W        W32477  23.640  26.630   5.260
68545W        W32478  12.795  30.913   2.232
68546W        W32479  36.425  28.652  14.878
68547W        W32480  11.751  31.562   3.330
68548W        W32481  19.537  20.116  14.936
68549W        W32482  39.440   7.701  10.461
68550W        W32483   8.884   6.346   2.220
68551W        W32484   4.404  41.913   2.302
68552W        W32485  14.826  35.512  10.904
68553W        W32486   8.879  19.285  10.934
68554W        W32487   6.833  30.144   3.869
68555W        W32488  41.305  26.485   4.761
68556W        W32489  21.233  30.535  12.029
68557W        W32490  40.974  40.416  14.476
68558W        W32491  24.080  11.298  13.355
68559W        W32492  10.791  32.528   4.645
68560W        W32493   6.723  36.998   3.203
68561W        W32494  25.987  24.678   0.781
68562W        W32495  41.446  41.342  13.371
68563W        W32496   2.470  15.231  14.453
68564W        W32497  22.055  13.251  13.969
68565W        W32498  18.611  34.121  12.909
68566W        W32499   1.763  32.926  13.441
68567W        W32500  27.014  44.855   2.830
68568W        W32501  26.048  20.755   1.818
68569W        W32502  42.510  16.078   4.803
68570W        W32503  34.912  23.599  14.342
68571W        W32504  25.692  32.407  12.006
68572W        W32505  21.615  13.712   4.206
68573W        W32506  28.050  40.362  14.922
68574W        W32507   4.915  24.512   3.194
68575W        W32508   8.193  27.579  13.941
68576W        W32509  37.952  27.991   3.267
68577W        W32510  43.869   0.441   0.780
68578W        W32511   8.250  41.352   0.758
68579W        W32512  39.833   6.888  13.931
68580W        W32513  25.036  37.400  14.411
68581W        W32514   8.248  26.030  13.422
68582W        W32515   9.802  39.048   2.786
68583W        W32516   4.817  33.017   2.823
68584W        W32517  18.105  22.606   1.793
68585W        W32518   1.440   8.740   0.313
68586W        W32519  44.961  17.229  10.985
68587W        W32520  30.484  44.821  11.035
68588W        W32521  40.006  19.671   4.307
68589W        W32522  31.419   4.849  11.883
68590W        W32523  15.620   5.332  10.121
68591W        W32524  44.759  16.717   0.309
68592W        W32525   2.393  38.009  12.481
68593W        W32526  25.202   2.279   1.423
68594W        W32527  31.517  10.797  11.442
68595W        W32528  23.635  24.590   0.960
68596W        W32529  33.882   0.281  11.374
68597W        W32530  43.838  16.175   4.711
68598W        W32531   5.271  12.729   4.242
68599W        W32532  38.337  28.157  10.547
68600W        W32533  23.026  23.608  10.498
68601W        W32534  41.890  33.432   0.481
68602W        W32535   9.672  30.576  11.977
68603W        W32536   1.357   8.766   2.199
68604W        W32537  43.357   8.294   3.257
68605W        W32538   6.773   1.952  10.058
68606W        W32539  36.504  33.476  12.381
68607W        W32540  16.669   0.421   3.289
68608W        W32541  21.129  28.962   0.324
68609W        W32542  26.553  42.027  14.014
68610W        W32543   8.392   2.765   1.408
68611W        W32544  23.090  41.038  11.387
68612W        W32545  30.426   6.196  13.889
68613W        W32546   2.243  21.169  12.539
68614W        W32547  30.971   1.400  14.314
68615W        W32548  42.802  35.057  12.535
68616W        W32549  44.455   3.379   3.713
68617W        W32550  37.072   7.718  14.820
68618W        W32551  37.341  35.401   3.844
68619W        W32552  12.299  24.659  14.996
68620W        W32553  23.734  19.728  11.125
68621W        W32554  23.148  14.230  14.488
68622W        W32555  19.575  44.781   4.279
68623W        W32556  25.189  13.162  10.158
68624W        W32557  16.142  33.891  11.995
68625W        W32558  34.949  34.926  13.938
68626W        W32559  18.143  18.781  10.638
68627W        W32560   8.395  40.416   1.272
68628W        W32561   0.977  25.597  13.017
68629W        W32562  12.239  43.373   0.965
68630W        W32563  34.542  23.632   1.776
68631W        W32564  41.793  12.736  10.894
68632W        W32565  11.685  26.614   1.404
68633W        W32566  30.155  17.585  11.589
68634W        W32567  23.667  26.667  12.071
68635W        W32568  14.619  28.561  13.417
68636W        W32569  37.069  16.694   0.365
68637W        W32570   5.200  10.654  11.513
68638W        W32571  22.229  36.006  12.071
68639W        W32572   4.326   0.904   1.748
68640W        W32573  44.999  26.617  13.062
68641W        W32574   9.370  24.701  14.810
68642W        W32575  13.351  28.654  13.544
68643W        W32576  26.084  20.750  12.995
68644W        W32577  17.784   5.764   0.325
68645W        W32578  28.069  12.724   1.229
68646W        W32579  31.588  16.275   2.266
68647W        W32580  17.758  37.513  13.450
68648W        W32581  16.285  17.619   3.676
68649W        W32582  41.400   0.971  13.909
68650W        W32583  20.197  20.540  14.965
68651W        W32584   0.976   6.857   1.356
68652W        W32585   5.438   5.265   1.249
68653W        W32586   5.403  24.001  10.540
68654W        W32587  10.175  29.131  13.046
68655W        W32588   3.241  31.584  14.831
68656W        W32589   5.346  20.567  13.452
68657W        W32590   4.320   0.351  13.933
68658W        W32591   8.334   9.733   4.178
68659W        W32592  11.861  35.379   3.753
68660W        W32593  15.629  41.342  11.569
68661W        W32594  43.304  34.407   3.761
68662W        W32595  23.156  44.501  14.393
68663W        W32596  20.719  26.049   3.146
68664W        W32597  20.230  41.365  11.081
68665W        W32598  23.194  14.134  13.909
68666W        W32599  10.767   2.798   2.306
68667W        W32600  23.015  16.749  13.339
68668W        W32601  22.040  29.928   0.331
68669W        W32602  12.325  36.076  12.019
68670W        W32603  24.144  40.018  14.897
68671W        W32604  20.651  32.077   0.926
68672W        W32605   4.825   8.202  10.622
68673W        W32606  41.859  25.618   2.868
68674W        W32607  16.615  37.400   0.273
68675W        W32608   8.369  40.855  11.931
68676W        W32609   2.788  44.449   2.809
68677W        W32610  21.644  40.361  12.557
68678W        W32611  16.131  43.355   3.707
68679W        W32612  29.984   4.919   3.375
68680W        W32613  18.183  42.007   1.878
68681W        W32614  19.275  25.644   4.716
68682W        W32615  12.621  13.119   0.758
68683W        W32616  43.820  28.160  13.315
68684W        W32617   5.759  22.144   4.292
68685W        W32618  20.580   3.251   1.859
68686W        W32619  28.048  40.008  14.925
68687W        W32620  25.508  14.592  12.963
68688W        W32621  14.272  40.397  11.510
68689W        W32622  17.723   6.792  13.966
68690W        W32623  41.881  17.192  10.466
68691W        W32624  14.650  34.863  14.454
68692W        W32625  41.846  27.632  13.917
68693W        W32626  12.327  20.247   4.833
68694W        W32627  21.722   3.724  12.470
68695W        W32628  27.193  37.030   2.674
68696W        W32629  38.901   8.288  13.791
68697W        W32630  31.964  13.160  10.912
68698W        W32631  22.588  20.629  13.019
68699W        W32632   9.717  44.951   3.782
68700W        W32633  21.173   0.301   1.891
68701W        W32634  36.549  39.948  10.496
68702W        W32635  44.382  19.264   0.938
68703W        W32636   1.288  18.163   0.247
68704W        W32637  43.278   7.729   0.265
68705W        W32638  12.745   7.767   2.897
68706W        W32639   9.329  21.700  12.980
68707W        W32640  38.958  25.491   2.309
68708W        W32641  11.730  25.535  10.437
68709W        W32642  27.674  28.550  13.967
68710W        W32643  41.823   9.767  14.873
68711W        W32644  35.366  14.780  10.441
68712W        W32645  12.214  13.322   3.282
68713W        W32646  35.596   6.378  12.416
68714W        W32647  13.351  43.971   2.818
68715W        W32648  20.611  43.934  13.486
68716W        W32649  40.437   7.249  10.055
68717W        W32650   0.791  14.754  12.826
68718W        W32651  27.078  28.453   1.721
68719W        W32652  26.972  29.561  10.463
68720W        W32653  32.988  20.269   2.797
68721W        W32654  38.887  43.405   4.625
68722W        W32655  22.620  34.560  12.924
68723W        W32656  29.936  38.927  10.524
68724W        W32657  19.146   0.355  11.425
68725W        W32658   1.880  30.129   3.368
68726W        W32659  16.580  30.953  12.899
68727W        W32660  39.972   7.195  11.102
68728W        W32661  32.932  43.465   0.254
68729W        W32662  38.352   9.742   4.264
68730W        W32663   2.419   8.849   0.742
68731W        W32664  22.006  41.859   1.297
68732W        W32665  20.117   5.853   0.761
68733W        W32666   5.871  16.757   3.732
68734W        W32667  19.680  24.054  14.325
68735W        W32668  41.356   0.249  13.469
68736W        W32669  31.143   5.912   1.733
68737W        W32670  33.076  25.159  12.455
68738W        W32671  15.142  25.037   1.425
68739W        W32672  32.436   5.369  13.355
68740W        W32673  20.750   3.427   0.380
68741W        W32674  38.016  26.986  11.991
68742W        W32675  13.112   0.302   2.341
68743W        W32676  17.266  28.026  14.300
68744W        W32677   5.781   3.884   2.272
68745W        W32678  34.104  11.252  11.404
68746W        W32679  13.218  37.453  11.489
68747W        W32680  37.863  36.842  11.030
68748W        W32681  13.835  28.018   3.769
68749W        W32682  11.290  30.527   4.617
68750W        W32683   2.306  37.335   9.939
68751W        W32684  10.359  14.713  14.807
68752W        W32685  27.493  13.300   3.858
68753W        W32686  11.342   2.934   4.286
68754W        W32687   1.760  28.448  14.803
68755W        W32688  10.293   9.874   0.917
68756W        W32689   0.349  26.556   2.721
68757W        W32690  15.282   0.841   3.331
68758W        W32691   9.804   1.277   4.313
68759W        W32692   8.219  30.934   4.231
68760W        W32693  20.035  29.473   0.369
68761W        W32694  44.452   0.408   0.428
68762W        W32695  36.082  25.141  11.574
68763W        W32696   6.878  13.723  11.037
68764W        W32697  23.553  35.956   2.794
68765W        W32698  39.366  36.522  11.583
68766W        W32699  40.811  25.093   4.787
68767W        W32700  10.219  41.806   0.385
68768W        W32701  10.344  12.206  10.890
68769W        W32702  34.497  24.697  12.512
68770W        W32703  12.293  20.178  14.463
68771W        W32704  43.884  31.148   2.889
68772W        W32705   9.806   2.455  10.492
68773W        W32706   9.304  20.077  14.490
68774W        W32707  33.901  32.565  14.402
68775W        W32708  22.239  38.058  14.284
68776W        W32709  26.003  16.235   3.654
68777W        W32710  36.527  32.511  14.887
68778W        W32711  14.829  13.794   3.709
68779W        W32712  35.927  28.594  10.482
68780W        W32713   5.723  19.573   2.280
68781W        W32714  31.103  19.561   0.469
68782W        W32715   8.872  29.483  13.328
68783W        W32716  23.151  12.127   1.781
68784W        W32717  39.327  38.340   1.424
68785W        W32718  36.586  27.466  13.402
68786W        W32719  41.864  27.592  12.463
68787W        W32720  10.142  44.347   1.426
68788W        W32721  16.727  16.602   3.276
68789W        W32722  41.951  22.637  12.005
68790W        W32723  12.707  15.659   1.761
68791W        W32724   9.224   6.187  12.500
68792W        W32725  30.618  16.741  12.864
68793W        W32726  11.739   2.892  14.946
68794W        W32727  44.900  35.853   1.770
68795W        W32728  20.147  32.579  10.471
68796W        W32729  33.877   9.238   0.889
68797W        W32730   2.895   2.926  13.843
68798W        W32731  39.817  37.895   4.819
68799W        W32732  13.326   3.223   3.706
68800W        W32733  16.687  18.651   3.718
68801W        W32734  21.149  28.950   1.267
68802W        W32735  44.940   1.470  13.050
68803W        W32736  34.503  26.022   2.703
68804W        W32737  23.148   8.774  11.992
68805W        W32738   6.205  41.298  12.407
68806W        W32739  14.809  34.980   0.464
68807W        W32740  40.050  44.984   0.245
68808W        W32741  38.476  12.657  13.413
68809W        W32742   2.357  37.945   3.688
68810W        W32743  10.736  38.076   2.895
68811W        W32744  38.847  23.687   3.723
68812W        W32745   4.915  32.545   4.205
68813W        W32746  19.254  12.731   1.791
68814W        W32747  29.004  17.163   1.258
68815W        W32748  20.641   9.223  10.517
68816W        W32749  16.578   6.832   4.349
68817W        W32750  38.876  31.986  13.340
68818W        W32751  41.023  29.059  14.023
68819W        W32752  11.845   8.705  10.085
68820W        W32753  39.050  12.729   3.148
68821W        W32754  16.579  17.700  12.059
68822W        W32755  29.648  33.548   2.253
68823W        W32756  17.738   0.291   3.283
68824W        W32757   1.846  10.656   3.629
68825W        W32758   3.404   0.913   2.750
68826W        W32759  31.153  43.768  13.839
68827W        W32760  19.062  29.989  12.473
68828W        W32761  21.684   9.700  13.981
68829W        W32762  24.218  41.792   4.268
68830W        W32763  35.602  37.904   4.705
68831W        W32764  37.579  18.085   3.720
68832W        W32765   5.700  39.510   3.283
68833W        W32766  22.594  39.545   3.348
68834W        W32767  43.460   8.216   2.854
68835W        W32768  27.973  33.625   3.359
68836W        W32769  10.659  39.000   3.269
68837W        W32770   6.687   7.279   4.235
68838W        W32771  16.120  37.544   1.418
68839W        W32772  18.171  22.631   1.302
68840W        W32773  28.123  31.942   5.176
68841W        W32774  36.067  31.129  14.278
68842W        W32775  10.158   1.756  14.384
68843W        W32776  34.019  41.409  11.905
68844W        W32777  36.581  20.176   2.258
68845W        W32778  28.463  19.080  10.593
68846W        W32779  39.488  42.503  13.489
68847W        W32780  11.865  42.950   0.288
68848W        W32781  41.498  26.601   1.718
68849W        W32782  25.612  19.224   4.807
68850W        W32783  22.022  16.789   4.336
68851W        W32784  41.371  24.227   0.960
68852W        W32785   7.329  41.459  14.004
68853W        W32786  15.718  11.224   4.763
68854W        W32787  26.179   0.779  11.090
68855W        W32788  44.852  35.359   0.846
68856W        W32789  37.859  12.206   1.381
68857W        W32790   4.221  35.575  10.544
68858W        W32791  37.898  11.719  10.474
68859W        W32792  18.765  26.162   3.177
68860W        W32793  27.686  24.052   3.802
68861W        W32794  31.621  16.074  14.773
68862W        W32795   5.310  14.260  12.008
68863W        W32796  37.575   0.759  12.426
68864W        W32797  17.205   9.850   3.664
68865W        W32798   7.345  37.023   4.827
68866W        W32799  19.661  38.048   4.828
68867W        W32800  27.970  32.020  13.545
68868W        W32801  39.537   9.882  10.528
68869W        W32802  44.359  32.563   4.657
68870W        W32803   0.367  15.820  11.950
68871W        W32804  43.821  10.378   0.824
68872W        W32805  28.006  34.898  11.572
68873W        W32806  15.232  40.799   3.289
68874W        W32807  39.443  26.572  11.086
68875W        W32808  21.119  36.869  10.561
68876W        W32809  23.016   7.873   3.772
68877W        W32810  24.490   6.902  11.495
68878W        W32811   3.220  10.274  13.415
68879W        W32812  36.054   5.394  12.389
68880W        W32813  15.164  26.565  13.814
68881W        W32814  43.313  36.422   2.317
68882W        W32815   4.843  27.683   0.368
68883W        W32816  23.221  43.273  14.473
68884W        W32817  18.765  16.305  12.034
68885W        W32818  25.668  37.938   4.761
68886W        W32819  44.356  42.952  12.088
68887W        W32820  15.578  33.397   3.215
68888W        W32821  27.588  28.466   4.350
68889W        W32822  39.827  40.466  11.591
68890W        W32823  36.969   6.723   1.362
68891W        W32824   6.311   4.925  11.548
68892W        W32825  35.491   9.231  10.891
68893W        W32826  34.018  35.477   0.341
68894W        W32827  42.860  14.661  12.357
68895W        W32828  38.065   2.388   3.214
68896W        W32829  15.741  41.825  11.392
68897W        W32830  30.118  25.513   3.800
68898W        W32831  26.089  42.861   3.245
68899W        W32832  17.233  18.294  14.459
68900W        W32833  14.810  17.109  12.348
68901W        W32834   9.183  26.665  13.927
68902W        W32835  24.659   8.865  13.993
68903W        W32836  41.311  40.971  14.816
68904W        W32837  30.060  10.194   1.712
68905W        W32838  22.142  37.082  11.872
68906W        W32839  37.839   7.344  14.002
68907W        W32840  40.460  31.580   2.756
68908W        W32841  42.942  10.683   3.783
68909W        W32842  30.932  10.639  14.400
68910W        W32843  39.060  23.523   0.344
68911W        W32844  35.934  12.733   1.799
68912W        W32845   6.365  14.190  13.356
68913W        W32846   1.450  13.300   4.653
68914W        W32847  40.307   2.864   0.480
68915W        W32848  19.152  36.027  10.514
68916W        W32849  42.360   8.745  11.541
68917W        W32850   9.294  12.732  13.965
68918W        W32851  17.659   4.413  12.512
68919W        W32852  36.003  18.264   2.720
68920W        W32853   0.316  42.525  12.368
68921W        W32854   6.914   3.451   3.262
68922W        W32855   8.197  32.530   2.759
68923W        W32856  10.375   2.751   4.635
68924W        W32857  35.918   2.800  12.448
68925W        W32858   8.240  14.255  12.929
68926W        W32859  28.643   0.345   3.212
68927W        W32860  41.004  22.595  12.000
68928W        W32861  35.366  40.872  12.491
68929W        W32862  11.133   0.419  12.928
68930W        W32863  43.937  43.947   4.631
68931W        W32864  40.878   1.443  13.940
68932W        W32865  24.664  24.646   1.722
68933W        W32866  22.558   1.349  13.397
68934W        W32867  17.074  27.684  11.860
68935W        W32868  25.569  17.208  10.467
68936W        W32869   1.809  37.908   3.201
68937W        W32870  14.182  29.646  10.936
68938W        W32871  43.851  19.624   2.773
68939W        W32872  12.212  26.478   4.776
68940W        W32873  24.992  22.216  13.934
68941W        W32874  24.629  12.745   2.832
68942W        W32875  32.469  19.082  11.024
68943W        W32876   2.946   5.365   3.774
68944W        W32877  26.585  44.885   9.959
68945W        W32878  29.449  34.932  14.422
68946W        W32879  33.073  23.060   2.407
68947W        W32880  37.949   5.207   4.691
68948W        W32881   5.776   3.222   0.854
68949W        W32882  23.736  15.121   2.870
68950W        W32883  23.515  39.421   1.321
68951W        W32884  20.253  44.938  13.811
68952W        W32885  36.004  28.566  13.434
68953W        W32886  31.524   4.742  11.099
68954W        W32887  13.806  32.464  12.396
68955W        W32888  38.910  17.638  11.931
68956W        W32889  29.596  12.815   4.632
68957W        W32890  44.269  41.431   2.418
68958W        W32891   9.663  20.191  14.882
68959W        W32892  27.957  26.533   5.282
68960W        W32893  31.595   6.233   0.908
68961W        W32894  37.426   3.391  12.916
68962W        W32895   0.390  38.411   2.271
68963W        W32896  36.022   5.343   3.636
68964W        W32897  15.765   0.395   0.335
68965W        W32898  13.276   2.358   4.818
68966W        W32899  39.941  37.928   1.747
68967W        W32900  18.559  28.601  13.816
68968W        W32901  37.364  19.273   3.696
68969W        W32902  13.734  19.717  12.451
68970W        W32903  20.744  19.069   2.247
68971W        W32904  18.258  41.031  10.088
68972W        W32905  17.171  40.844   9.955
68973W        W32906  36.545  41.025  12.394
68974W        W32907  27.685  23.629   4.785
68975W        W32908  39.451  14.777   3.769
68976W        W32909  19.770  41.022   2.357
68977W        W32910  19.098  29.015   5.770
68978W        W32911  23.192   6.223  10.024
68979W        W32912   1.966   9.212   2.888
68980W        W32913   2.727  33.585  10.915
68981W        W32914  43.779  15.138   4.615
68982W        W32915   3.882  39.514  12.430
68983W        W32916  34.086  18.108  12.488
68984W        W32917  32.425  31.619   3.266
68985W        W32918  34.081   3.910  14.464
68986W        W32919   8.895   1.896   4.749
68987W        W32920   0.474  13.232   1.360
68988W        W32921  43.418  12.680  12.359
68989W        W32922  41.355  13.191  12.966
68990W        W32923  18.777  34.426   4.316
68991W        W32924   2.797   8.765   2.227
68992W        W32925  43.898  18.774  11.534
68993W        W32926  42.317  40.034  12.492
68994W        W32927   4.445  28.543   4.634
68995W        W32928  15.758  34.108  11.885
68996W        W32929  36.922  43.924  10.406
68997W        W32930  30.908  43.807  11.065
68998W        W32931  40.536  40.010  13.816
68999W        W32932  14.669  30.436   4.346
69000W        W32933  22.074  15.791   4.211
69001W        W32934   6.848   5.426   1.858
69002W        W32935  34.494  11.738   4.153
69003W        W32936   1.475  40.945   0.850
69004W        W32937  24.035  31.617  10.430
69005W        W32938  44.298   6.281   0.342
69006W        W32939  19.095   6.276   4.721
69007W        W32940  13.675  39.023  11.535
69008W        W32941  44.879  17.772   2.261
69009W        W32942  29.566  29.105  11.558
69010W        W32943   6.922  42.383   0.863
69011W        W32944  21.678   9.709  14.279
69012W        W32945  31.411   5.869   0.317
69013W        W32946  11.204  39.317  14.936
69014W        W32947   8.830  20.661  13.795
69015W        W32948  44.386  27.682   1.748
69016W        W32949  10.218   8.159   0.322
69017W        W32950  19.230   2.882  13.313
69018W        W32951   9.837  38.446  13.412
69019W        W32952  43.364  31.041   4.175
69020W        W32953  31.099  24.714   1.439
69021W        W32954  37.348  36.088   0.453
69022W        W32955  12.198  19.641  12.024
69023W        W32956  11.348  27.136  14.986
69024W        W32957   1.925  41.371   3.169
69025W        W32958  32.970  14.339   0.933
69026W        W32959   3.254  30.627   1.272
69027W        W32960   5.291   1.931   0.258
69028W        W32961  15.628  15.824  13.343
69029W        W32962  34.991  35.461   4.115
69030W        W32963  26.113  39.897  10.635
69031W        W32964  33.413  41.921  10.158
69032W        W32965  19.624  39.021  14.781
69033W        W32966  36.474  20.764   0.823
69034W        W32967  33.505  19.723  10.404
69035W        W32968  13.746   5.242  14.370
69036W        W32969  24.523   1.250   4.641
69037W        W32970  15.246  12.312   3.657
69038W        W32971  38.400   4.941  10.595
69039W        W32972   4.256   3.234  14.022
69040W        W32973   7.253  42.022   1.705
69041W        W32974  44.413  11.681  14.884
69042W        W32975   4.401  32.903  12.960
69043W        W32976   9.256  33.443   3.806
69044W        W32977  40.508   0.352   1.740
69045W        W32978  32.974  40.427  11.041
69046W        W32979  14.130  24.519  14.907
69047W        W32980  21.227  41.454   1.835
69048W        W32981  18.108  32.069  10.585
69049W        W32982   8.693  38.545  10.644
69050W        W32983   4.350  44.445   2.401
69051W        W32984  27.080  11.753   4.672
69052W        W32985  35.450  37.478   4.710
69053W        W32986  42.512  42.423  12.995
69054W        W32987  44.402   9.659   1.725
69055W        W32988  36.891   4.769   4.600
69056W        W32989  13.253  13.822   0.379
69057W        W32990  27.036   2.786   2.808
69058W        W32991  37.049  14.250  13.820
69059W        W32992  32.498   5.277  12.066
69060W        W32993   9.277   9.746  12.542
69061W        W32994  16.672  38.535   3.358
69062W        W32995   6.367   2.423   1.387
69063W        W32996  31.062  19.213   3.799
69064W        W32997   4.364  38.831  14.423
69065W        W32998  38.347  13.344  13.510
69066W        W32999  13.350  17.304  14.839
69067W        W33000   3.355  16.288  10.413
69068W        W33001  41.965  12.702   4.668
69069W        W33002  42.363  22.653   3.730
69070W        W33003  29.052  30.501   2.415
69071W        W33004   4.820  11.302   0.291
69072W        W33005  23.692  43.295   1.424
69073W        W33006  21.258  15.823   0.320
69074W        W33007  21.128   1.773   2.782
69075W        W33008  42.013  15.306  11.468
69076W        W33009  12.637  11.228   3.745
69077W        W33010  40.331  33.398   1.213
69078W        W33011   8.682  26.185   2.309
69079W        W33012   4.408  18.105   1.263
69080W        W33013  43.331  23.632   2.184
69081W        W33014  27.572   5.414   2.747
69082W        W33015  23.142   9.732   4.621
69083W        W33016   5.823  24.519   3.341
69084W        W33017  20.603  23.205   2.378
69085W        W33018   1.814  24.139   4.353
69086W        W33019  26.531  42.910   4.178
69087W        W33020  25.697   1.753   2.820
69088W        W33021  32.139  38.049   1.311
69089W        W33022  36.501   9.207   0.808
69090W        W33023  23.164   1.277   4.250
69091W        W33024  42.485  17.584  13.457
69092W        W33025  37.475   8.389   2.727
69093W        W33026  19.749  41.876   3.349
69094W        W33027   1.314  22.623  14.498
69095W        W33028   4.382   1.772   2.743
69096W        W33029  28.938  39.503  12.047
69097W        W33030  17.556  29.468   3.189
69098W        W33031  34.101  28.121  13.427
69099W        W33032  13.729  30.999   3.149
69100W        W33033  35.040  39.035   4.703
69101W        W33034  40.967   5.875  10.584
69102W        W33035  25.612  14.177  11.514
69103W        W33036  25.540  15.766   0.407
69104W        W33037  29.660  26.609   2.840
69105W        W33038  31.140   0.782   0.410
69106W        W33039   3.797  13.623  12.000
69107W        W33040  31.609  34.516   3.234
69108W        W33041  13.628  34.948  10.997
69109W        W33042  16.796  20.762  14.908
69110W        W33043   2.775   2.255   1.222
69111W        W33044   0.345  33.886  12.464
69112W        W33045  26.469  43.349   2.767
69113W        W33046  18.670  42.950   2.338
69114W        W33047  15.211  16.074   4.148
69115W        W33048  14.804   8.339  11.917
69116W        W33049  33.022   3.452   4.288
69117W        W33050  33.933   5.770   3.684
69118W        W33051   8.385   5.892   3.174
69119W        W33052  25.507  10.833  10.998
69120W        W33053   4.868  13.122  14.492
69121W        W33054  26.965  32.422   0.327
69122W        W33055   7.356  13.237  10.427
69123W        W33056  37.423  29.998   0.356
69124W        W33057  11.202  10.271   2.832
69125W        W33058   9.784  24.112   2.886
69126W        W33059  38.916   8.693   3.808
69127W        W33060  19.045  12.836  14.407
69128W        W33061  26.054  11.806  14.442
69129W        W33062  18.125  40.490   4.649
69130W        W33063  30.055   2.433   2.284
69131W        W33064   0.321  33.389   2.363
69132W        W33065  29.651  27.517   1.731
69133W        W33066  31.429  32.399   0.790
69134W        W33067  24.106  43.844  10.495
69135W        W33068  38.871   6.755  14.905
69136W        W33069  28.091  20.648  10.542
69137W        W33070  22.107  22.621   0.766
69138W        W33071  21.757  25.162  11.912
69139W        W33072   8.780  25.571   1.900
69140W        W33073  44.828  39.820   1.831
69141W        W33074  20.632  34.439  10.991
69142W        W33075   9.748  23.134   4.331
69143W        W33076   5.320  22.514   0.391
69144W        W33077  33.566  24.504  12.466
69145W        W33078  36.469   2.325   3.832
69146W        W33079   9.153  22.071  14.764
69147W        W33080  24.096  14.666   4.303
69148W        W33081  34.530  41.923   0.883
69149W        W33082  26.137  26.146   2.262
69150W        W33083  12.645  29.933   0.751
69151W        W33084  41.520  28.497  10.433
69152W        W33085  20.527   8.751  13.461
69153W        W33086  33.987   3.346  12.081
69154W        W33087  29.078  20.104   2.249
69155W        W33088  41.029   1.378  11.515
69156W        W33089  37.528  14.267   3.837
69157W        W33090  11.685  16.224  13.912
69158W        W33091  22.619  11.792   4.795
69159W        W33092  20.237  11.146  10.548
69160W        W33093   8.850  35.394  14.024
69161W        W33094  23.532  33.973  13.398
69162W        W33095  39.046  26.984   1.867
69163W        W33096  37.832  17.219   2.179
69164W        W33097  27.514  29.003   1.399
69165W        W33098  18.154   1.364  11.862
69166W        W33099  14.304  26.176  11.592
69167W        W33100  40.369   8.356  13.332
69168W        W33101  43.858  41.834   3.717
69169W        W33102   7.749  10.688  14.022
69170W        W33103  10.770  42.389  13.414
69171W        W33104  17.121   4.316   0.898
69172W        W33105  19.074  10.779   4.659
69173W        W33106  34.885  24.697   3.278
69174W        W33107  19.620   4.320  14.483
69175W        W33108  29.503  44.354   0.351
69176W        W33109  37.410   0.988   5.200
69177W        W33110  19.610  13.735  12.429
69178W        W33111   3.779  22.057   0.728
69179W        W33112  10.196  11.678   1.354
69180W        W33113  38.399  26.156  11.035
69181W        W33114  13.653  35.890  13.949
69182W        W33115  37.998  34.116   4.276
69183W        W33116  23.624   9.218   3.190
69184W        W33117   3.258  27.688  11.958
69185W        W33118   8.296  34.612   2.742
69186W        W33119  28.470  32.413  11.038
69187W        W33120   8.400  15.594   1.753
69188W        W33121  41.975  39.856  10.938
69189W        W33122   7.387  38.985  11.958
69190W        W33123  16.258   9.647  12.424
69191W        W33124  17.144  16.128   2.875
69192W        W33125  36.365  42.982   4.791
69193W        W33126  31.986  10.794   1.914
69194W        W33127   0.375  42.512   0.265
69195W        W33128  13.833  30.415   0.355
69196W        W33129   7.413  30.569   4.131
69197W        W33130  29.643   2.829  10.578
69198W        W33131  25.523  26.041   0.915
69199W        W33132  11.744   8.318  10.603
69200W        W33133   4.856   8.716   2.184
69201W        W33134  24.508  27.487   1.396
69202W        W33135  12.645  26.470   3.864
69203W        W33136  13.127   8.359   4.817
69204W        W33137  42.397  15.158   4.835
69205W        W33138  31.448  37.380   3.795
69206W        W33139  17.211  10.259   3.783
69207W        W33140  10.211  35.034  11.866
69208W        W33141  34.448  28.167   2.182
69209W        W33142   5.270  41.992   2.895
69210W        W33143  17.744  36.571  11.085
69211W        W33144  27.134  35.033   4.333
69212W        W33145  31.037  37.495   5.208
69213W        W33146  12.746  21.196  13.813
69214W        W33147  13.151   1.763   9.972
69215W        W33148  12.719  17.076  11.894
69216W        W33149   1.952   1.772  11.395
69217W        W33150  22.717  40.311   3.211
69218W        W33151   0.282  44.780  13.863
69219W        W33152  17.704  43.959   3.703
69220W        W33153  30.907  15.722  12.547
69221W        W33154  12.151  31.111  14.948
69222W        W33155  14.225  41.043  13.931
69223W        W33156  10.183  36.546   4.634
69224W        W33157   0.824  11.359  13.349
69225W        W33158  18.285  16.103   2.418
69226W        W33159  39.465   8.852  11.053
69227W        W33160  38.362   4.813   4.196
69228W        W33161  21.681  29.605  13.467
69229W        W33162  31.611  34.503  14.396
69230W        W33163   8.754  35.465  12.530
69231W        W33164  27.058  26.700   0.915
69232W        W33165  38.963  42.888  12.096
69233W        W33166  38.030   9.157  12.949
69234W        W33167   7.184  33.121  12.926
69235W        W33168  17.244   4.255  11.442
69236W        W33169  14.779  24.992  10.066
69237W        W33170  19.182  10.804   2.767
69238W        W33171  31.546  28.970  12.460
69239W        W33172  38.500   7.347   1.871
69240W        W33173  44.968  21.667  14.385
69241W        W33174  35.494  26.199   0.930
69242W        W33175  10.258  13.221   5.131
69243W        W33176  24.160  13.293  11.970
69244W        W33177   7.682  43.788   3.308
69245W        W33178  38.329  25.175   2.225
69246W        W33179  24.481   2.268  12.906
69247W        W33180   7.186  11.226  12.942
69248W        W33181  44.910  44.294   3.238
69249W        W33182   2.394  32.030   3.709
69250W        W33183  41.405  25.673   1.358
69251W        W33184   2.864   0.411  14.499
69252W        W33185  25.143  29.658   1.252
69253W        W33186  21.195  11.331   1.369
69254W        W33187   4.737  32.527  14.386
69255W        W33188  31.906  26.110   1.299
69256W        W33189  38.887  44.472   2.179
69257W        W33190  31.472   3.423  10.959
69258W        W33191   8.283  42.379   3.758
69259W        W33192  18.601   0.788   0.338
69260W        W33193  30.155   1.939   2.887
69261W        W33194  30.597  32.105   0.396
69262W        W33195  36.583  36.943  12.997
69263W        W33196  14.763  32.622   3.247
69264W        W33197   8.763  40.501  12.969
69265W        W33198  33.497   0.484   3.709
69266W        W33199  28.993   1.902  12.515
69267W        W33200   9.385  31.114   0.422
69268W        W33201  13.332  11.779  11.498
69269W        W33202  42.370  43.949   2.684
69270W        W33203  29.450  16.188   1.839
69271W        W33204  10.702   8.880  13.466
69272W        W33205  19.756  22.542  13.493
69273W        W33206  25.579   3.408  11.875
69274W        W33207  30.459  23.082   0.405
69275W        W33208   2.283  43.376  11.091
69276W        W33209  33.619  34.964   3.714
69277W        W33210  18.564  20.154  12.396
69278W        W33211  16.288  39.471   1.219
69279W        W33212   2.343  14.337   2.806
69280W        W33213  33.118  37.062  11.470
69281W        W33214   0.403  40.818   4.245
69282W        W33215  27.954  42.389  11.084
69283W        W33216  32.557  38.905  14.884
69284W        W33217  43.280  21.724  14.370
69285W        W33218  22.572  21.139  12.850
69286W        W33219  23.688  15.209   1.238
69287W        W33220  18.162  40.842   2.222
69288W        W33221  10.834  10.751  13.014
69289W        W33222  20.261   0.757   2.365
69290W        W33223  26.649  19.278   1.225
69291W        W33224  26.563  38.899  14.291
69292W        W33225  28.165  19.079  12.834
69293W        W33226  28.077  18.566   4.297
69294W        W33227   0.965  29.942   1.807
69295W        W33228  11.830  13.755  12.093
69296W        W33229   4.205   1.811  11.543
69297W        W33230  40.023  11.157  14.813
69298W        W33231  40.830  18.163  13.049
69299W        W33232  20.141  19.277  10.493
69300W        W33233  25.647  38.450   1.293
69301W        W33234  25.665  43.851  14.895
69302W        W33235   3.216   8.278   3.314
69303W        W33236  33.951  10.227   1.930
69304W        W33237  35.401  17.664  14.375
69305W        W33238   5.801  33.982   3.371
69306W        W33239   0.377  15.615   4.673
69307W        W33240  10.337  10.248  10.915
69308W        W33241  28.533  27.959  14.467
69309W        W33242   2.286  15.242  11.860
69310W        W33243  14.779  38.480   1.814
69311W        W33244   2.777  37.409  11.457
69312W        W33245  19.153  41.976   2.291
69313W        W33246  15.810  26.674  13.934
69314W        W33247   3.901  10.699   4.662
69315W        W33248  21.533  32.511   1.764
69316W        W33249   2.786  15.255   3.224
69317W        W33250  37.481   1.898   2.360
69318W        W33251  24.016   9.313   2.380
69319W        W33252  38.340  44.772   4.662
69320W        W33253  31.018   6.918   1.745
69321W        W33254  14.790  10.298   0.784
69322W        W33255  39.837   0.272   1.930
69323W        W33256  19.710   4.425  14.986
69324W        W33257  27.595  32.899   0.875
69325W        W33258   7.417  20.727  11.019
69326W        W33259  32.541   9.203  14.028
69327W        W33260  23.064   0.846  11.065
69328W        W33261  23.651  15.719   0.813
69329W        W33262  23.686  30.499  12.520
69330W        W33263  29.939  43.471   1.281
69331W        W33264  31.023   0.942  14.993
69332W        W33265  36.534  33.009   4.669
69333W        W33266  29.468  20.626   3.807
69334W        W33267  42.387  14.833   3.839
69335W        W33268  29.531  21.679   1.813
69336W        W33269   2.853  26.071  10.499
69337W        W33270  24.526  43.452  11.510
69338W        W33271   3.265  40.028   2.882
69339W        W33272  37.554  12.133  12.940
69340W        W33273   9.724   0.910  12.970
69341W        W33274  12.809  35.006  14.917
69342W        W33275  33.031  11.745   1.391
69343W        W33276  31.045   0.261  10.477
69344W        W33277  17.790  24.712   1.351
69345W        W33278  34.979  40.336   2.797
69346W        W33279  18.712  21.158  14.759
69347W        W33280  36.359   6.736  11.072
69348W        W33281  32.628  25.698  11.972
69349W        W33282  28.541  30.154  11.998
69350W        W33283  37.836  41.462   3.826
69351W        W33284   0.947  36.842   1.284
69352W        W33285  37.853  26.501   1.225
69353W        W33286  18.053  36.383   3.853
69354W        W33287  10.682  41.962  11.982
69355W        W33288  14.120  28.653  12.039
69356W        W33289  22.681  23.220  13.953
69357W        W33290   0.315  12.662   3.305
69358W        W33291  14.703   7.281  14.886
69359W        W33292  24.036  41.414  12.912
69360W        W33293  14.272  17.281  13.523
69361W        W33294  34.059  36.426  10.919
69362W        W33295  23.527   6.759   2.800
69363W        W33296  19.756  44.434   5.159
69364W        W33297  34.526   5.416   3.378
69365W        W33298  25.685  30.420   3.831
69366W        W33299   7.858  28.616  14.875
69367W        W33300  26.205  27.977  10.939
69368W        W33301  44.898  28.620  10.542
69369W        W33302  23.669  19.750   2.266
69370W        W33303  21.095   6.754  11.953
69371W        W33304  28.135  37.573   2.293
69372W        W33305   1.361  15.253   3.847
69373W        W33306  14.149  32.998   2.192
69374W        W33307  38.504   7.368  14.970
69375W        W33308  25.181  44.776  14.841
69376W        W33309  29.559  40.490   4.625
69377W        W33310  15.592  15.156   4.797
69378W        W33311  36.589   7.399   0.447
69379W        W33312   8.816  42.526  11.940
69380W        W33313  17.305  39.377   2.290
69381W        W33314  42.837   3.350  14.029
69382W        W33315  41.902  35.536   2.898
69383W        W33316   1.240  25.619   1.379
69384W        W33317  11.231  30.581  10.416
69385W        W33318  13.637  17.160   0.844
69386W        W33319  10.359  19.775   3.754
69387W        W33320  18.174  38.410   2.773
69388W        W33321  33.951  13.841   2.767
69389W        W33322   2.867  38.534  12.442
69390W        W33323   0.343   1.952  11.988
69391W        W33324  14.228  12.768   2.215
69392W        W33325  25.005  32.112  12.926
69393W        W33326  19.248  39.910   2.823
69394W        W33327  13.324  41.455   3.828
69395W        W33328  31.037   9.732   3.867
69396W        W33329  20.573  37.346   4.151
69397W        W33330  35.945  33.910  14.821
69398W        W33331  36.422  25.513  10.424
69399W        W33332  14.312  27.687  10.577
69400W        W33333  23.565   1.815   3.846
69401W        W33334  28.615   1.876  11.535
69402W        W33335   8.847  14.792   4.270
69403W        W33336  32.514   0.257  14.326
69404W        W33337  27.141  34.917   0.449
69405W        W33338  43.296   9.183  11.944
69406W        W33339   1.860   6.693  12.007
69407W        W33340   9.255  21.148  11.871
69408W        W33341  29.067  31.510  10.485
69409W        W33342  17.267  37.362   3.853
69410W        W33343  17.117  33.468  11.904
69411W        W33344  12.642  42.885  14.467
69412W        W33345  18.285   5.726  11.498
69413W        W33346  40.959  38.415  13.844
69414W        W33347   3.808  40.429  13.903
69415W        W33348  26.536   8.895   1.899
69416W        W33349   3.231  33.903  14.772
69417W        W33350   1.912  14.244   1.309
69418W        W33351  16.641  11.731   3.206
69419W        W33352  41.462   7.868  10.954
69420W        W33353  33.039  24.639   0.954
69421W        W33354  38.550  25.607   2.411
69422W        W33355  17.189   1.948   3.151
69423W        W33356  12.261   3.381  10.577
69424W        W33357  33.123  29.983  14.791
69425W        W33358   5.745  28.546  13.531
69426W        W33359  31.994   2.375  14.470
69427W        W33360  34.029  19.137   4.760
69428W        W33361  15.306  38.999   4.652
69429W        W33362  25.581  34.373  13.391
69430W        W33363  13.346  14.232  12.006
69431W        W33364  41.891  21.603   0.481
69432W        W33365  32.085  39.503   4.765
69433W        W33366  41.912  37.560   0.796
69434W        W33367  22.129  29.636   3.323
69435W        W33368   5.211  35.461   2.836
69436W        W33369  21.158  34.891   2.392
69437W        W33370  22.104   4.715   0.322
69438W        W33371  28.505  36.996  13.885
69439W        W33372   7.360  20.592   0.385
69440W        W33373  15.814  19.039  13.929
69441W        W33374   3.929   0.419  11.580
69442W        W33375  25.999  35.889   1.254
69443W        W33376  43.929  37.532  13.896
69444W        W33377  12.784  15.798  13.394
69445W        W33378   6.909  35.488  12.370
69446W        W33379  41.515  33.051  14.933
69447W        W33380   6.282  16.624  12.430
69448W        W33381  13.668  38.453  11.982
69449W        W33382  16.718  21.122   2.224
69450W        W33383  11.297  31.579   2.851
69451W        W33384   9.678   6.235   0.257
69452W        W33385  39.536  35.397  12.001
69453W        W33386  10.256  35.037   2.761
69454W        W33387  13.322  12.248  11.445
69455W        W33388   7.180  26.167   1.293
69456W        W33389  26.090  35.071  12.888
69457W        W33390  31.063   3.863  11.449
69458W        W33391  20.226  28.527  14.862
69459W        W33392  11.293  30.970   3.259
69460W        W33393  19.054   1.884  13.055
69461W        W33394  34.433  40.522   2.340
69462W        W33395   6.207  12.654   1.928
69463W        W33396  27.985  42.897  14.821
69464W        W33397  15.795  13.689  12.030
69465W        W33398   2.879  19.271  13.401
69466W        W33399  11.267   0.414   4.119
69467W        W33400  17.786  26.013  11.902
69468W        W33401  12.164  11.832  12.524
69469W        W33402  13.258  16.679   3.802
69470W        W33403  36.043  18.579  10.577
69471W        W33404  14.227  19.673   1.779
69472W        W33405  25.991   1.842  13.015
69473W        W33406  19.682  39.474   3.256
69474W        W33407   7.766  35.463   4.261
69475W        W33408   9.843  17.746  11.091
69476W        W33409  25.510  22.606   1.323
69477W        W33410  16.190  40.840  13.452
69478W        W33411  44.769   0.423   1.346
69479W        W33412   3.344  12.349   3.772
69480W        W33413  14.281  37.439  10.607
69481W        W33414  44.963  25.553  10.435
69482W        W33415   9.296  37.540  14.280
69483W        W33416  41.444  27.649   3.249
69484W        W33417  35.087  18.686   2.317
69485W        W33418  29.976  34.008   0.907
69486W        W33419  13.301  19.770   3.634
69487W        W33420  14.741   9.825  10.039
69488W        W33421  17.244  13.148   4.172
69489W        W33422  11.349   5.780   0.909
69490W        W33423  33.412  25.965  11.481
69491W        W33424  14.601  14.281  13.796
69492W        W33425   1.735  42.342  13.541
69493W        W33426  14.651   1.738   1.814
69494W        W33427  19.133   8.182  12.907
69495W        W33428  12.132  41.338  11.044
69496W        W33429  33.479  12.622  10.521
69497W        W33430  37.480   4.345   2.830
69498W        W33431  14.682  14.235  13.417
69499W        W33432  23.706  35.465  11.966
69500W        W33433  10.278  26.190   1.861
69501W        W33434  26.456  13.275  12.089
69502W        W33435   2.763  38.011   3.174
69503W        W33436   6.183   6.915  11.916
69504W        W33437  16.647  37.912  12.347
69505W        W33438  40.028  31.626   4.311
69506W        W33439  11.694   4.938   2.809
69507W        W33440  25.051   7.885  12.030
69508W        W33441  40.848  13.350   1.350
69509W        W33442  22.732  18.589  11.529
69510W        W33443  35.996  21.237   2.708
69511W        W33444  29.467  30.556  10.948
69512W        W33445  14.700   6.897  11.491
69513W        W33446  29.589   7.315   0.954
69514W        W33447  21.714  26.472   4.622
69515W        W33448  32.049   8.702  11.434
69516W        W33449  35.880  27.135  13.514
69517W        W33450  11.343  32.481   1.436
69518W        W33451  15.729  41.903  10.553
69519W        W33452  24.103   3.745  12.369
69520W        W33453  43.348  26.577  12.992
69521W        W33454  13.159  15.100  14.892
69522W        W33455  37.974  13.739   4.350
69523W        W33456  20.043  10.151  10.029
69524W        W33457  17.629   3.302   0.895
69525W        W33458  24.707  16.182   2.900
69526W        W33459   2.799  32.893   0.757
69527W        W33460  35.535  32.104  11.869
69528W        W33461  19.630  20.178  11.952
69529W        W33462  24.503   1.891   0.267
69530W        W33463   7.796  18.295   3.707
69531W        W33464  36.582  40.021   1.888
69532W        W33465  34.424  34.115   2.702
69533W        W33466  16.176  26.154  14.443
69534W        W33467  13.700  24.568  14.896
69535W        W33468  35.421   1.319  13.541
69536W        W33469  26.109  43.816  14.401
69537W        W33470  36.051  10.840   1.365
69538W        W33471  25.196   4.440  11.440
69539W        W33472  12.766  43.901   2.697
69540W        W33473   8.866   5.924   2.776
69541W        W33474  16.204  39.382  11.529
69542W        W33475   9.797  15.130  13.930
69543W        W33476   9.883  25.140  12.342
69544W        W33477  31.131   5.274   4.253
69545W        W33478  18.075  26.627  13.909
69546W        W33479  27.177   5.268   4.260
69547W        W33480  13.781  14.179  11.025
69548W        W33481   7.775  31.531  12.356
69549W        W33482  24.150  43.896  13.800
69550W        W33483  41.407  18.289   2.242
69551W        W33484  37.564  21.520   4.619
69552W        W33485  32.591   5.863  12.347
69553W        W33486  14.299  41.806  13.840
69554W        W33487  40.049   2.269   0.811
69555W        W33488  21.675  28.466   4.830
69556W        W33489  21.174   8.379  12.473
69557W        W33490   2.360  18.735  10.636
69558W        W33491  17.750  21.140   1.858
69559W        W33492  26.085  33.539   2.237
69560W        W33493  11.309   6.714   2.261
69561W        W33494  44.306  37.550  14.480
69562W        W33495  42.413  23.236  10.469
69563W        W33496   3.906  21.568  12.417
69564W        W33497  40.478  23.002  12.368
69565W        W33498  30.029  28.560   2.384
69566W        W33499  17.235  24.647  11.904
69567W        W33500   7.251   7.335  14.006
69568W        W33501  15.154   3.386  14.026
69569W        W33502  17.239  30.911   4.143
69570W        W33503  35.530  12.697  13.828
69571W        W33504  24.110  40.341  14.484
69572W        W33505  17.291  37.362   2.732
69573W        W33506  18.544  35.512  12.531
69574W        W33507  19.592  38.863  12.855
69575W        W33508   1.969  39.442   3.819
69576W        W33509   9.186  41.910  10.632
69577W        W33510  27.161   1.933   0.734
69578W        W33511  32.615  13.243   2.847
69579W        W33512  26.573  29.155   3.155
69580W        W33513  22.681  16.756   2.855
69581W        W33514  11.665   8.895   0.885
69582W        W33515  30.500  40.983  14.893
69583W        W33516  17.265  11.669  12.987
69584W        W33517  10.195   8.676   0.773
69585W        W33518  39.440  19.769   0.381
69586W        W33519  20.678   0.262   3.822
69587W        W33520  38.444  19.186  12.092
69588W        W33521  33.615  36.906  13.434
69589W        W33522  43.471   8.256   0.443
69590W        W33523  29.022  42.899  10.441
69591W        W33524  43.019  26.524  10.157
69592W        W33525  12.274   7.301   1.766
69593W        W33526  24.125  28.149   2.205
69594W        W33527  29.098  44.936  12.062
69595W        W33528  26.168  40.855  14.481
69596W        W33529  35.110  27.472  12.429
69597W        W33530  21.642  39.962   1.419
69598W        W33531  41.450  36.034  14.441
69599W        W33532  23.236  16.165   1.866
69600W        W33533   5.879  26.036  11.889
69601W        W33534  33.560  13.772  10.993
69602W        W33535  35.963  44.351   4.643
69603W        W33536   5.737  37.441   0.290
69604W        W33537   3.909  33.568  11.029
69605W        W33538  42.970  22.568  14.983
69606W        W33539  20.754  25.627  12.483
69607W        W33540  29.986   5.745  11.886
69608W        W33541   1.762  33.466  10.561
69609W        W33542  28.958  28.067   4.220
69610W        W33543  17.758  40.465   4.297
69611W        W33544  21.250  16.250   3.699
69612W        W33545  21.719  10.203   1.429
69613W        W33546   6.883   8.794   3.869
69614W        W33547  21.067  40.311   2.888
69615W        W33548  41.828  31.084   2.727
69616W        W33549  39.010  17.718   1.291
69617W        W33550  35.499   8.702  11.912
69618W        W33551  11.730  29.445   3.709
69619W        W33552  10.646  10.692   4.143
69620W        W33553  18.186  39.006  13.005
69621W        W33554  10.779  14.727   4.833
69622W        W33555  42.776  35.457  14.497
69623W        W33556  39.420  39.511  13.538
69624W        W33557  44.368  28.679   4.318
69625W        W33558  35.444  20.136   4.290
69626W        W33559  26.038  16.190  12.906
69627W        W33560  23.587  42.490   0.880
69628W        W33561  29.042  14.720   0.306
69629W        W33562   4.298  29.053   3.265
69630W        W33563  15.772  10.746  13.016
69631W        W33564  16.146  24.524  13.442
69632W        W33565  16.774  36.083   3.161
69633W        W33566  14.686  32.530   1.391
69634W        W33567  40.361  20.737   2.235
69635W        W33568  33.562  38.951   4.143
69636W        W33569  10.633  37.928   3.183
69637W        W33570  15.691  43.982   3.228
69638W        W33571  18.591  10.871   4.125
69639W        W33572  44.283  21.731   2.736
69640W        W33573  31.576  24.208   2.180
69641W        W33574  30.048  22.149  12.520
69642W        W33575  41.842  35.487   3.295
69643W        W33576  38.966  11.327  11.049
69644W        W33577  31.435   8.723   3.168
69645W        W33578  25.159  40.000   4.750
69646W        W33579  23.009   5.284   0.334
69647W        W33580  41.828  12.233  13.815
69648W        W33581  20.260   4.818   4.294
69649W        W33582  22.635  34.064  12.063
69650W        W33583  31.499  21.676  14.924
69651W        W33584  34.378  26.097  14.793
69652W        W33585  16.717   5.201  14.516
69653W        W33586  29.432   8.391  11.537
69654W        W33587  19.580  20.558  11.573
69655W        W33588  40.934  21.240   1.887
69656W        W33589  25.513  41.472   2.405
69657W        W33590  13.245  39.000   3.297
69658W        W33591  12.248   5.767   0.917
69659W        W33592   6.344  32.964   4.643
69660W        W33593   5.793  30.511  13.478
69661W        W33594  42.465   9.154   0.304
69662W        W33595   4.393  11.633   0.333
69663W        W33596  24.489  13.642  13.980
69664W        W33597  24.681  41.473   3.799
69665W        W33598  24.103   4.938   1.363
69666W        W33599  28.598  33.885  10.641
69667W        W33600  10.784  13.268   2.750
69668W        W33601  38.053  29.084  11.561
69669W        W33602  25.518  21.215  10.149
69670W        W33603  32.630  17.720  14.442
69671W        W33604  13.787  28.130   2.190
69672W        W33605  42.881  19.654  11.394
69673W        W33606   9.199  34.598   4.665
69674W        W33607  38.865  38.029  14.510
69675W        W33608  40.053  19.202   1.695
69676W        W33609  26.624  42.907   9.495
69677W        W33610  40.860  11.297   4.763
69678W        W33611  34.987  44.814  13.915
69679W        W33612  14.261  38.861   4.180
69680W        W33613   5.241  29.631   0.406
69681W        W33614  39.957  38.821  10.598
69682W        W33615  40.466  17.065   4.696
69683W        W33616  16.796  17.606   3.666
69684W        W33617  13.758  36.433   1.916
69685W        W33618  43.369  15.599  10.957
69686W        W33619   9.832  20.137   4.693
69687W        W33620   3.351  42.899  12.448
69688W        W33621   3.340  17.070  14.025
69689W        W33622  34.936   8.848  13.389
69690W        W33623  25.639   3.740   4.801
69691W        W33624   5.228  32.897   4.328
69692W        W33625  21.615  21.128   0.355
69693W        W33626   5.222  14.131  13.518
69694W        W33627   8.714   1.899   1.416
69695W        W33628   2.431   5.875  14.457
69696W        W33629  40.866  38.351   0.283
69697W        W33630   5.781  12.337   3.379
69698W        W33631  25.650  39.325  12.522
69699W        W33632  21.062  31.464   4.835
69700W        W33633  25.217  42.802  12.372
69701W        W33634  21.072  38.396  11.937
69702W        W33635  24.169  38.935   2.378
69703W        W33636  25.661  17.096   2.297
69704W        W33637   0.358  11.627   3.824
69705W        W33638  10.273  32.914  14.484
69706W        W33639  18.735  37.056   2.196
69707W        W33640  20.639  42.022  11.915
69708W        W33641  11.163  33.921  10.527
69709W        W33642  22.529   8.748   5.115
69710W        W33643  38.819  34.864   0.407
69711W        W33644   9.381   3.771  14.932
69712W        W33645  12.116  21.105  12.422
69713W        W33646  27.020   8.239   4.816
69714W        W33647  37.988  16.788   1.365
69715W        W33648  22.138  21.713   4.749
69716W        W33649  30.142   3.802   3.827
69717W        W33650  36.437  30.577   2.250
69718W        W33651   6.286  18.657  13.442
69719W        W33652  21.557  23.047   1.363
69720W        W33653  15.643  29.979  14.005
69721W        W33654  44.008  36.557   5.291
69722W        W33655   9.365  22.998  14.966
69723W        W33656   2.874   2.904  13.345
69724W        W33657  17.150  42.908  14.864
69725W        W33658  34.594   2.463  14.887
69726W        W33659  35.022   0.249  14.913
69727W        W33660  38.980  32.060   4.215
69728W        W33661   3.321  20.555  13.930
69729W        W33662  33.014  36.442   2.245
69730W        W33663  17.570   4.268  13.335
69731W        W33664  10.808  21.181   3.797
69732W        W33665  12.831   3.246  12.877
69733W        W33666   3.318  43.355  14.810
69734W        W33667  27.589  29.084   4.251
69735W        W33668  35.018  29.082   1.290
69736W        W33669  16.089  13.713   0.766
69737W        W33670  43.486  40.842   3.255
69738W        W33671   5.433  13.699   3.864
69739W        W33672  24.142  42.449  14.889
69740W        W33673  25.126  37.434   3.752
69741W        W33674   0.761  23.113   4.826
69742W        W33675  15.203  20.618  13.791
69743W        W33676  42.033  27.626  11.945
69744W        W33677  23.651  28.992   4.290
69745W        W33678  18.778  30.638  10.014
69746W        W33679  27.587  14.126  10.940
69747W        W33680  17.161  20.581  12.011
69748W        W33681  38.342  35.589  11.916
69749W        W33682  34.985  33.980  12.561
69750W        W33683   9.263  11.678   0.935
69751W        W33684   3.264  41.477   4.752
69752W        W33685  11.245  38.074  14.946
69753W        W33686  28.026  20.162   1.255
69754W        W33687  40.835  40.364  10.617
69755W        W33688   9.392  19.779  12.063
69756W        W33689  40.992  42.028  10.429
69757W        W33690  13.720   2.284  14.374
69758W        W33691   7.351  39.888   1.381
69759W        W33692  41.825  13.669  12.499
69760W        W33693  11.220   1.958   3.163
69761W        W33694  42.307   3.949  14.959
69762W        W33695   2.930  14.121   3.723
69763W        W33696   7.397  19.613  11.899
69764W        W33697  34.504  32.896   0.453
69765W        W33698  17.172  40.972   4.279
69766W        W33699  17.213  23.520   4.267
69767W        W33700  13.238   9.380   3.856
69768W        W33701   3.434  26.510   1.874
69769W        W33702   5.307  39.355   3.683
69770W        W33703  23.520  21.195  10.501
69771W        W33704   8.196   4.233  11.028
69772W        W33705  17.079   7.882  13.531
69773W        W33706  37.834  30.511   9.922
69774W        W33707  13.816  27.088   3.162
69775W        W33708  39.534   5.806   2.285
69776W        W33709  10.206  18.546   2.818
69777W        W33710  26.567  34.895   2.723
69778W        W33711  40.334  19.243   3.308
69779W        W33712  41.796  29.522  10.574
69780W        W33713  21.598  13.285  13.975
69781W        W33714  23.589   6.851   0.915
69782W        W33715  29.082   1.466  13.376
69783W        W33716  40.988  29.943  13.793
69784W        W33717  24.049  20.546  14.866
69785W        W33718  16.578   8.802  11.009
69786W        W33719   8.893  40.923  11.099
69787W        W33720  21.213  36.912  10.036
69788W        W33721  44.766  15.696  12.560
69789W        W33722  30.000  22.658  12.469
69790W        W33723  23.187  36.006  13.525
69791W        W33724  41.898  37.878  14.002
69792W        W33725   8.333   0.473  12.557
69793W        W33726  28.946  13.706   3.381
69794W        W33727  27.100   3.230   4.644
69795W        W33728   7.843  36.954  12.408
69796W        W33729  16.635  39.048   1.813
69797W        W33730  24.219  19.640   4.653
69798W        W33731  38.830  42.371   4.757
69799W        W33732  11.313  42.468   4.709
69800W        W33733  27.005  15.169  10.466
69801W        W33734   4.288  35.992   2.404
69802W        W33735  36.950  31.487  12.359
69803W        W33736  28.487   3.850  12.519
69804W        W33737  21.115  32.086  10.938
69805W        W33738  39.393  32.112   2.282
69806W        W33739  43.365   0.248   3.681
69807W        W33740  21.067   5.878   1.439
69808W        W33741  10.360  40.819  12.526
69809W        W33742  15.209   8.381  12.015
69810W        W33743   3.769  26.084  10.443
69811W        W33744  12.209   9.758   0.890
69812W        W33745  30.023  23.105  10.914
69813W        W33746  41.342  25.468   0.433
69814W        W33747   7.414   3.898  10.999
69815W        W33748  17.242  40.352   5.103
69816W        W33749  17.200  21.565   3.843
69817W        W33750  33.441   9.890   1.833
69818W        W33751   9.286   7.283   2.221
69819W        W33752   2.270  20.030   3.834
69820W        W33753  36.055  17.274  11.520
69821W        W33754  35.450  13.175  13.336
69822W        W33755  39.821  30.603   0.748
69823W        W33756  27.151  12.677  11.581
69824W        W33757  10.774   5.708   4.634
69825W        W33758  16.732  40.839  10.612
69826W        W33759  21.519  40.014  13.928
69827W        W33760   4.368  31.502  11.089
69828W        W33761  13.640  10.204  13.867
69829W        W33762  12.850  28.010  13.461
69830W        W33763  12.656  26.060  10.959
69831W        W33764  40.876  33.513  10.496
69832W        W33765  17.699   9.337   1.340
69833W        W33766   5.842  11.231  13.847
69834W        W33767  37.457   7.397   2.848
69835W        W33768  22.613   6.384   4.834
69836W        W33769  28.943  23.563   1.796
69837W        W33770  24.049   2.914   4.634
69838W        W33771  37.481  16.667   4.672
69839W        W33772  11.840  12.302   1.298
69840W        W33773  13.304  40.524   3.690
69841W        W33774  13.283  43.307  10.947
69842W        W33775  10.221  36.075   0.858
69843W        W33776  13.215  28.606  10.542
69844W        W33777  24.590  10.281   3.640
69845W        W33778   6.816  37.455   2.398
69846W        W33779  21.217  16.164   0.357
69847W        W33780  29.577  13.193   4.703
69848W        W33781   1.275  31.484   1.262
69849W        W33782  33.390  26.078   1.805
69850W        W33783  37.567  19.143  11.493
69851W        W33784  24.622  33.959  10.979
69852W        W33785  39.019  37.421  10.968
69853W        W33786  10.659   8.375   0.908
69854W        W33787  41.921  29.962  11.073
69855W        W33788  44.482  41.367  14.778
69856W        W33789  44.858  37.468  11.573
69857W        W33790  25.058   5.868   4.140
69858W        W33791  11.333  32.919   4.190
69859W        W33792  17.717  43.514  10.539
69860W        W33793  10.809  21.208  11.989
69861W        W33794  17.582  22.143  10.625
69862W        W33795  22.572  44.501  13.477
69863W        W33796   3.349   2.907  13.051
69864W        W33797  33.877  29.461   2.672
69865W        W33798  15.143  11.818  10.605
69866W        W33799   3.813  39.944  13.023
69867W        W33800  41.984   8.857   5.295
69868W        W33801  23.632  28.933  10.994
69869W        W33802  40.053  14.804  14.823
69870W        W33803  44.400   6.243   5.115
69871W        W33804   4.430   7.883   4.642
69872W        W33805  23.622  23.608   1.824
69873W        W33806  20.103  14.598  12.388
69874W        W33807  25.566  40.998  12.877
69875W        W33808  23.616  44.318   3.648
69876W        W33809  26.625  28.455  10.614
69877W        W33810  32.038  43.009  12.943
69878W        W33811  41.919  35.967   3.187
69879W        W33812  30.048  30.997  12.352
69880W        W33813  29.144  43.988   1.441
69881W        W33814  39.038  39.031  14.298
69882W        W33815  24.007  11.829  12.945
69883W        W33816   9.280   5.333   4.198
69884W        W33817  24.149  35.106   4.691
69885W        W33818  10.670  33.449  13.533
69886W        W33819  30.645   3.259   1.774
69887W        W33820  13.250  23.554  10.917
69888W        W33821  14.770  11.725  11.945
69889W        W33822  26.016  14.658   2.267
69890W        W33823  34.408  26.561  14.958
69891W        W33824  32.053  27.491  12.042
69892W        W33825  35.913  16.806   0.912
69893W        W33826  13.214  33.939   2.286
69894W        W33827   4.315  35.419   4.227
69895W        W33828  19.637  43.853   0.767
69896W        W33829  30.491  12.240  11.372
69897W        W33830  39.828  12.766  12.951
69898W        W33831  23.543   9.305  14.855
69899W        W33832  33.974  19.635   5.136
69900W        W33833  27.658  22.525  13.972
69901W        W33834  21.658  39.903   2.895
69902W        W33835  27.572  11.675   0.771
69903W        W33836   5.759  41.341   1.435
69904W        W33837  41.437   7.175   0.407
69905W        W33838   1.387  44.760   3.724
69906W        W33839  25.010  30.086   3.758
69907W        W33840  21.131  36.484   2.690
69908W        W33841  30.613  10.825   0.815
69909W        W33842   9.864  34.058   0.870
69910W        W33843   9.763  43.293  11.474
69911W        W33844   9.675  32.635  14.897
69912W        W33845  20.070  27.589  13.020
69913W        W33846  23.686  10.302  14.356
69914W        W33847   6.920  35.860   3.364
69915W        W33848   3.894   6.325   1.930
69916W        W33849  10.714  26.593   3.309
69917W        W33850  28.027  33.422  10.495
69918W        W33851  15.669  21.150  14.441
69919W        W33852  11.213  19.752   0.256
69920W        W33853  23.551  22.683   1.365
69921W        W33854  27.667  16.305  10.604
69922W        W33855  28.140  10.779   2.341
69923W        W33856  37.485  15.728  12.942
69924W        W33857   6.299  41.868   4.795
69925W        W33858   2.265  31.634  12.451
69926W        W33859  40.007  40.978  11.013
69927W        W33860  23.702  18.674   1.333
69928W        W33861  40.476  26.962  14.006
69929W        W33862   3.852   9.226   2.863
69930W        W33863  10.680  25.700  10.571
69931W        W33864  11.629  18.668  11.571
69932W        W33865  27.555  35.931   4.782
69933W        W33866  34.503  25.025  14.472
69934W        W33867  33.100  40.317   3.240
69935W        W33868   9.673   8.403   4.349
69936W        W33869  35.892  11.273   3.312
69937W        W33870  44.782  37.851   2.363
69938W        W33871  43.361  25.082   3.217
69939W        W33872  36.405  21.571   3.643
69940W        W33873   4.828   0.250   9.967
69941W        W33874  11.259  41.499   2.777
69942W        W33875  35.548   4.740   3.305
69943W        W33876  24.635  38.989   3.760
69944W        W33877   6.184  22.576   1.771
69945W        W33878   8.841  29.002   3.361
69946W        W33879  30.025  14.637  11.937
69947W        W33880   9.766  29.491  12.009
69948W        W33881  41.786  23.498   0.753
69949W        W33882  20.679   8.384  12.458
69950W        W33883   5.896  22.111  12.483
69951W        W33884  14.788  29.022   0.404
69952W        W33885   0.969  28.584  11.402
69953W        W33886  20.036  24.164   4.335
69954W        W33887  34.588   6.825   0.248
69955W        W33888   9.745   0.925  13.993
69956W        W33889  42.872  39.028  12.896
69957W        W33890  20.577   2.904   4.783
69958W        W33891  20.052   1.374  11.512
69959W        W33892  22.651  32.485   3.768
69960W        W33893   4.808  17.755   1.807
69961W        W33894  41.514  28.567  13.817
69962W        W33895  28.507  36.432   3.178
69963W        W33896   3.253   4.853   3.650
69964W        W33897  43.792  10.651  10.950
69965W        W33898  44.270   6.911  11.966
69966W        W33899  15.265   0.299  10.510
69967W        W33900  26.468   1.301  11.521
69968W        W33901  36.349   6.908  13.397
69969W        W33902  19.599  10.285  11.978
69970W        W33903  11.195  21.695  13.908
69971W        W33904  30.060  23.677  13.514
69972W        W33905   2.445  29.035   4.205
69973W        W33906  28.531  10.358  13.827
69974W        W33907  19.216   9.363  14.388
69975W        W33908  17.169  42.474  11.026
69976W        W33909  29.548  37.401  11.461
69977W        W33910  26.188  37.940   4.831
69978W        W33911  27.501  37.078  12.419
69979W        W33912  23.076   2.365  13.432
69980W        W33913  24.548  42.457  13.531
69981W        W33914  24.530  37.345   2.894
69982W        W33915   5.214  31.932  14.333
69983W        W33916  37.492  42.889  11.451
69984W        W33917  26.667   7.191   4.818
69985W        W33918  10.164  32.946  11.539
69986W        W33919  18.234   3.742   0.756
69987W        W33920   9.166  19.206   0.835
69988W        W33921  30.939  30.045   3.221
69989W        W33922   1.309  27.530  13.877
69990W        W33923  17.667  31.124  13.987
69991W        W33924  13.748  16.176   1.390
69992W        W33925  16.795   1.271  11.421
69993W        W33926  21.123   4.873   0.920
69994W        W33927   6.848  42.350  12.073
69995W        W33928   4.907  34.052   0.844
69996W        W33929   5.898   6.823  11.054
69997W        W33930  15.116  33.127  11.116
69998W        W33931   8.730  41.004   3.653
69999W        W33932  11.738  15.610   3.769
70000W        W33933  41.506  24.028   4.605
70001W        W33934   5.344  40.368   1.770
70002W        W33935  29.978  33.607  14.335
70003W        W33936  23.558  10.255  14.972
70004W        W33937  15.178  24.026  14.281
70005W        W33938  30.940   0.333   4.126
70006W        W33939   6.834  29.993  10.548
70007W        W33940  41.033  25.686  10.501
70008W        W33941   1.476   8.824  14.849
70009W        W33942   3.866  30.004   3.347
70010W        W33943  13.615  38.425  13.924
70011W        W33944  37.558  34.449  12.467
70012W        W33945  21.530  28.606  14.307
70013W        W33946  43.810   1.892  10.964
70014W        W33947   3.458  21.575   3.269
70015W        W33948  43.920  11.229   0.443
70016W        W33949  43.848  19.587  14.831
70017W        W33950  31.020   7.301  13.475
70018W        W33951   7.741   3.448  13.027
70019W        W33952  20.614  39.519  12.566
70020W        W33953   0.885   7.412   4.833
70021W        W33954   3.452  43.360   3.689
70022W        W33955  23.726  29.596  12.015
70023W        W33956  21.061  16.779  10.905
70024W        W33957   3.313  37.336   1.447
70025W        W33958  17.085  13.195  12.390
70026W        W33959  29.509  40.447   1.912
70027W        W33960  33.939  23.518  12.052
70028W        W33961   4.436  14.674   0.361
70029W        W33962  17.298  18.585  10.988
70030W        W33963  32.587  13.724  13.046
70031W        W33964   1.296   0.252  11.929
70032W        W33965  14.334   1.461  11.539
70033W        W33966  43.439  27.598   2.861
70034W        W33967   6.883  36.542   4.288
70035W        W33968  12.750  39.422   0.288
70036W        W33969  44.838  35.084   0.895
70037W        W33970  19.145  22.588  12.446
70038W        W33971   5.397   2.822  14.874
70039W        W33972   2.849   3.352  14.799
70040W        W33973  37.512  29.608   3.341
70041W        W33974   8.290  15.117  11.904
70042W        W33975  15.686  19.112   9.945
70043W        W33976   1.786  26.591   1.450
70044W        W33977   7.763  42.415  13.870
70045W        W33978  37.375  43.360  11.107
70046W        W33979  17.793  32.416   1.901
70047W        W33980   6.720  13.142  12.899
70048W        W33981  35.068  22.585   1.382
70049W        W33982  13.211   5.335  12.469
70050W        W33983   0.400  25.992  14.281
70051W        W33984  13.737  31.019  13.950
70052W        W33985  43.830  32.076  13.350
70053W        W33986  44.944  19.051  12.932
70054W        W33987  16.264  20.605  11.515
70055W        W33988  32.033   3.347   2.349
70056W        W33989   5.392  30.048   3.647
70057W        W33990   1.953  21.688  14.762
70058W        W33991   1.738  32.611   3.787
70059W        W33992  35.904  21.236  12.560
70060W        W33993  36.445  10.337   3.246
70061W        W33994  42.800  25.654  14.509
70062W        W33995  17.745  15.641  14.356
70063W        W33996  29.509  28.653  12.420
70064W        W33997  17.703  19.604   1.306
70065W        W33998  38.924  20.099   5.308
70066W        W33999  32.588  18.282   4.305
70067W        W34000  12.772  12.845   3.685
70068W        W34001  36.545  13.208   1.801
70069W        W34002  36.483  41.866   1.311
70070W        W34003  20.241   4.349  12.911
70071W        W34004  39.504  37.521  11.527
70072W        W34005  29.107   5.740  13.325
70073W        W34006  30.125  17.627   3.661
70074W        W34007  23.692  15.206  13.431
70075W        W34008  10.211  32.017  12.472
70076W        W34009   5.696  18.573  10.629
70077W        W34010  12.730  27.991  12.033
70078W        W34011  41.944   7.277   5.101
70079W        W34012  15.306  22.035   0.862
70080W        W34013  11.355  17.127   0.826
70081W        W34014  15.693  37.474   1.245
70082W        W34015  16.128  30.967  11.463
70083W        W34016  41.510  17.578   0.329
70084W        W34017  33.416   8.720  12.892
70085W        W34018   4.349  11.865   2.736
70086W        W34019  11.653  15.613   5.120
70087W        W34020   3.373  12.800  11.901
70088W        W34021  31.939   3.842   2.816
70089W        W34022  39.376   7.200   1.395
70090W        W34023  40.404  19.084  11.412
70091W        W34024  20.701  12.148   4.658
70092W        W34025  37.833  22.216   4.726
70093W        W34026  20.695  24.618  14.787
70094W        W34027   4.830  24.696   4.628
70095W        W34028  16.213  12.199  11.502
70096W        W34029  10.766  20.149  11.613
70097W        W34030  42.371   2.377  11.426
70098W        W34031  44.964  11.305  13.945
70099W        W34032   2.783  35.951  14.956
70100W        W34033  20.051  40.507   0.335
70101W        W34034  15.310  22.060   1.934
70102W        W34035  32.973  39.960  11.485
70103W        W34036   8.369  15.643  12.907
70104W        W34037   6.321   0.848   2.790
70105W        W34038  41.410  27.121  13.926
70106W        W34039  40.023  38.945   2.393
70107W        W34040  41.336  14.256   2.283
70108W        W34041  40.480  17.064  14.870
70109W        W34042  21.141  27.945   1.859
70110W        W34043  23.663  33.055   3.806
70111W        W34044  21.018  37.379   0.456
70112W        W34045  18.216  31.603   2.292
70113W        W34046  15.264  32.963  11.890
70114W        W34047  22.037  11.728   1.803
70115W        W34048  21.618  25.069  11.498
70116W        W34049  25.605   6.221   3.865
70117W        W34050  27.077  43.344   1.300
70118W        W34051  32.032  37.447   1.409
70119W        W34052   6.895  42.779  14.801
70120W        W34053  33.455   8.670  12.365
70121W        W34054  14.127  12.793  12.520
70122W        W34055  15.323   9.688   0.442
70123W        W34056   0.460  14.141   4.179
70124W        W34057   5.426   8.288  12.569
70125W        W34058  27.174   7.312  14.817
70126W        W34059  43.422  29.966  10.616
70127W        W34060  36.960  23.669  13.413
70128W        W34061   5.429  40.002  12.352
70129W        W34062   2.255  19.636  11.028
70130W        W34063  13.205  40.018  13.330
70131W        W34064   2.460  28.027  12.903
70132W        W34065  14.149  43.360   4.118
70133W        W34066  39.999  26.461  12.450
70134W        W34067  14.301  14.608  10.899
70135W        W34068   7.904   1.436   4.115
70136W        W34069  36.041  22.104  12.908
70137W        W34070   9.394  40.007  13.361
70138W        W34071   4.770  41.804   4.116
70139W        W34072  24.004  27.072  10.982
70140W        W34073  19.271  17.591  11.463
70141W        W34074  14.732  43.471  10.439
70142W        W34075   0.297  42.974   3.778
70143W        W34076  31.442  41.485  13.991
70144W        W34077  22.112  19.280  10.935
70145W        W34078  39.371  37.022   0.270
70146W        W34079  38.468  30.513  11.541
70147W        W34080  16.758  33.039   4.196
70148W        W34081  18.085  19.142  11.425
70149W        W34082  18.090  43.958  12.370
70150W        W34083  15.675   8.339   3.200
70151W        W34084  28.160   5.782  10.906
70152W        W34085   3.287  40.309  14.379
70153W        W34086  30.035   3.338  13.444
70154W        W34087  19.771  40.343  13.381
70155W        W34088  13.793  41.929  10.602
70156W        W34089  39.484  37.054   3.182
70157W        W34090  12.754  34.491   2.702
70158W        W34091  27.653  11.238  13.378
70159W        W34092  16.590  13.703   2.704
70160W        W34093  33.449  26.525  11.562
70161W        W34094  38.858  30.532  10.611
70162W        W34095  41.479  35.860   3.848
70163W        W34096  10.792  41.987  12.903
70164W        W34097  20.680  12.726  11.558
70165W        W34098   9.821  32.551  13.907
70166W        W34099  32.905  37.938  14.791
70167W        W34100  39.498  25.678  14.381
70168W        W34101  19.085  19.162   0.452
70169W        W34102  17.650   4.309   3.336
70170W        W34103   9.844  27.982   1.825
70171W        W34104  40.925   2.866  14.303
70172W        W34105  31.064   0.323   0.447
70173W        W34106  25.983  28.536  13.854
70174W        W34107   6.687  13.324   1.900
70175W        W34108  21.102  30.102   2.319
70176W        W34109  40.904  40.824  10.600
70177W        W34110  16.591  21.095   0.344
70178W        W34111  42.453   8.313   2.272
70179W        W34112  38.847  43.474   2.901
70180W        W34113  25.181   7.771   5.281
70181W        W34114   5.365  19.697   4.676
70182W        W34115  16.585  23.062  14.835
70183W        W34116  43.813   7.855   0.285
70184W        W34117  17.698   7.406   5.094
70185W        W34118  32.086  38.520   1.245
70186W        W34119  13.190  39.436  14.893
70187W        W34120   1.269  10.876  10.528
70188W        W34121  32.621  27.465   4.149
70189W        W34122  20.582   9.865  14.350
70190W        W34123  21.074  36.464  13.536
70191W        W34124  32.513   4.748  13.431
70192W        W34125  12.354  29.923  12.051
70193W        W34126  41.426  22.088  13.810
70194W        W34127  44.878  13.245   4.348
70195W        W34128  11.200  24.542   0.727
70196W        W34129  29.088  22.608   0.743
70197W        W34130   5.412  29.543   4.684
70198W        W34131   6.767  26.538   9.532
70199W        W34132   9.863  30.495  13.448
70200W        W34133  17.741  14.669   2.327
70201W        W34134  10.726   7.197   1.806
70202W        W34135  40.955  22.204   2.219
70203W        W34136   0.953  10.184  12.429
70204W        W34137  41.808  13.260   3.379
70205W        W34138  39.455  11.226   4.825
70206W        W34139  37.388  31.091  13.463
70207W        W34140  15.634  21.643  11.072
70208W        W34141  14.792  20.733   3.682
70209W        W34142  20.124  43.001   2.390
70210W        W34143  30.511  18.771  14.289
70211W        W34144  24.189  43.478   5.638
70212W        W34145  10.151  20.743   4.272
70213W        W34146  25.475  38.935   2.744
70214W        W34147  35.541  38.346  11.094
70215W        W34148  23.560   9.760  13.391
70216W        W34149   7.868  44.760   4.811
70217W        W34150  16.073  29.154  11.409
70218W        W34151   3.383  42.002   1.240
70219W        W34152  38.932  37.949   3.231
70220W        W34153  27.510  27.119  14.878
70221W        W34154  27.173  19.537   0.456
70222W        W34155  35.076   7.708   2.387
70223W        W34156  17.279  41.488  10.541
70224W        W34157   3.268  13.630  14.288
70225W        W34158  41.905  22.663  10.971
70226W        W34159  25.046  36.575   3.831
70227W        W34160  11.241  17.562   3.843
70228W        W34161  40.807  42.396  11.011
70229W        W34162  27.082   3.394   2.245
70230W        W34163   7.738  18.180  13.486
70231W        W34164  31.637  40.947  10.484
70232W        W34165   3.306  41.375   2.245
70233W        W34166   3.449   1.855  12.424
70234W        W34167  25.019   4.871  11.387
70235W        W34168  28.513   4.761   1.243
70236W        W34169  24.538  29.117   4.710
70237W        W34170  36.883  30.575  14.347
70238W        W34171  27.074  38.846  14.448
70239W        W34172  44.846  34.601  13.044
70240W        W34173  15.209  22.525   0.324
70241W        W34174  38.430   2.408  12.020
70242W        W34175  39.384   2.886   4.161
70243W        W34176  18.072  40.879   0.439
70244W        W34177  12.692  24.154   3.191
70245W        W34178   9.298  26.638   0.904
70246W        W34179  12.698  38.390  13.474
70247W        W34180  25.007   0.383   0.430
70248W        W34181  25.505  10.348  13.378
70249W        W34182  31.907  31.060   4.810
70250W        W34183  17.298  36.994   3.216
70251W        W34184  38.492  24.162   1.873
70252W        W34185   4.712  26.541   1.352
70253W        W34186  10.330   5.372   0.826
70254W        W34187   2.901  33.001   1.316
70255W        W34188  34.565  29.930  11.549
70256W        W34189  37.061  43.877  11.475
70257W        W34190  23.560   8.865   9.658
70258W        W34191  37.015  42.928  14.783
70259W        W34192  40.936   4.236   4.648
70260W        W34193   2.723  42.524   2.866
70261W        W34194  38.820  14.600   4.660
70262W        W34195  22.602  15.723   1.871
70263W        W34196   0.955  19.187   2.817
70264W        W34197  30.951  18.144  10.068
70265W        W34198  40.914  39.435  12.824
70266W        W34199  30.987   3.364   4.123
70267W        W34200  23.013  23.736   4.282
70268W        W34201  36.584  38.465   2.705
70269W        W34202   0.972  18.738   5.131
70270W        W34203  19.200  23.029  11.402
70271W        W34204  21.705  43.371  14.472
70272W        W34205  22.700  31.136  13.512
70273W        W34206   2.348  33.481  11.961
70274W        W34207  15.197  20.160   3.295
70275W        W34208  27.145  11.781   2.398
70276W        W34209  22.708  34.587  13.330
70277W        W34210  19.680  29.649  11.611
70278W        W34211   8.767  42.840   0.424
70279W        W34212  26.073  33.089   4.199
70280W        W34213  42.442  40.054  13.530
70281W        W34214  10.240  13.247  12.505
70282W        W34215  13.797  41.995  13.063
70283W        W34216   8.197   6.427  11.964
70284W        W34217  15.102  19.212  13.533
70285W        W34218  24.984   6.295   3.266
70286W        W34219  15.277   6.808  13.338
70287W        W34220  13.814  35.456  10.611
70288W        W34221  42.347  31.104   3.373
70289W        W34222  27.634  30.559  10.987
70290W        W34223  21.658  33.574  12.943
70291W        W34224  36.454   7.773  10.486
70292W        W34225  42.948  16.135   4.741
70293W        W34226  35.560   7.247   3.358
70294W        W34227  12.284  10.336   2.733
70295W        W34228  33.582   6.290  13.855
70296W        W34229  24.084  19.575  13.307
70297W        W34230   1.304  42.354  11.493
70298W        W34231  40.955  22.158  12.882
70299W        W34232  22.607  37.536  12.575
70300W        W34233  26.694   4.228   9.972
70301W        W34234  30.421  40.881  13.482
70302W        W34235  43.317   8.815  12.484
70303W        W34236  37.972  31.431   3.870
70304W        W34237  37.982  40.306  14.495
70305W        W34238  12.227  25.093  11.085
70306W        W34239   4.779   7.254   5.197
70307W        W34240  41.442  31.568   1.341
70308W        W34241  44.297  19.217   5.225
70309W        W34242  28.492  42.518  13.465
70310W        W34243  44.281  10.138   0.818
70311W        W34244   2.868   1.830   0.343
70312W        W34245   3.930  33.113  11.438
70313W        W34246  21.683  23.079   3.734
70314W        W34247  27.476  25.615  10.992
70315W        W34248  11.173  18.159  12.072
70316W        W34249  37.568  41.798  14.442
70317W        W34250  16.215  22.129   1.312
70318W        W34251   1.285  34.091   3.284
70319W        W34252  33.988  37.493  11.431
70320W        W34253  40.475   4.869  10.140
70321W        W34254  15.083  29.032  14.325
70322W        W34255   0.406  22.603  14.363
70323W        W34256  38.423  37.999  10.589
70324W        W34257  27.691   2.457  13.051
70325W        W34258   2.434  29.465   2.701
70326W        W34259  34.874  11.820  12.442
70327W        W34260  34.937  23.081  10.557
70328W        W34261  31.450   3.716   4.814
70329W        W34262  30.465  19.232  11.449
70330W        W34263  24.104  11.297   4.247
70331W        W34264  26.073  26.206   2.865
70332W        W34265  10.266   9.210   3.631
70333W        W34266  22.094  16.591  12.081
70334W        W34267  13.141  28.107   4.118
70335W        W34268   5.426  21.648  10.415
70336W        W34269  30.638  33.586  14.867
70337W        W34270  13.351  29.002  11.085
70338W        W34271  21.666  29.499   4.275
70339W        W34272   0.819  27.045  13.881
70340W        W34273  29.031   2.721   2.796
70341W        W34274  39.825   0.963   4.140
70342W        W34275   8.749  28.989  14.451
70343W        W34276   7.866   5.791   4.677
70344W        W34277  41.404  27.599   0.320
70345W        W34278  34.961   7.729   4.214
70346W        W34279  20.041  32.000  10.636
70347W        W34280  14.693  15.308   4.659
70348W        W34281  15.656  44.808  11.050
70349W        W34282  41.407  18.161  12.432
70350W        W34283  21.619  30.482  14.858
70351W        W34284  44.480  29.047  12.412
70352W        W34285  30.524  41.338   0.286
70353W        W34286   7.899  43.849  11.087
70354W        W34287  37.465  11.326  13.319
70355W        W34288  34.965  15.647  11.999
70356W        W34289  41.475  21.751   3.182
70357W        W34290  35.017  41.393  11.074
70358W        W34291  43.504  12.269   4.121
70359W        W34292  25.471  21.607  11.980
70360W        W34293  30.645  34.037  11.095
70361W        W34294   1.749   7.894   2.224
70362W        W34295  41.850  40.389   1.359
70363W        W34296  13.742   1.374  12.434
70364W        W34297  33.380  24.599   9.993
70365W        W34298  18.152  40.999  12.051
70366W        W34299   5.235  11.181   1.393
70367W        W34300  43.492   2.304  10.595
70368W        W34301  13.218   0.299  14.300
70369W        W34302   1.756   3.405   0.880
70370W        W34303   7.335   2.911  13.416
70371W        W34304  21.128  26.682  11.900
70372W        W34305  25.017  19.536  14.896
70373W        W34306  10.153  12.833   1.898
70374W        W34307  30.949  20.639  14.761
70375W        W34308  44.486  11.129  10.549
70376W        W34309  41.291   5.257   1.367
70377W        W34310  37.021  12.710  10.599
70378W        W34311  24.606  34.433  14.858
70379W        W34312  23.144  21.155  14.988
70380W        W34313   4.723  18.068  14.351
70381W        W34314  44.402   1.811  11.891
70382W        W34315   1.456  13.286  14.337
70383W        W34316  14.752  30.117   1.270
70384W        W34317  21.612   8.667   0.763
70385W        W34318  35.080  26.054  10.608
70386W        W34319  18.722  24.998  10.507
70387W        W34320  10.863  25.661  14.466
70388W        W34321  23.228  17.558   1.401
70389W        W34322  36.356  35.041  11.868
70390W        W34323   2.277  24.150   3.278
70391W        W34324  22.189  16.236  12.019
70392W        W34325  29.510  10.647   2.880
70393W        W34326  21.634   6.731  12.511
70394W        W34327  35.365   1.892  11.908
70395W        W34328  41.027  18.144   2.398
70396W        W34329  26.569  15.298   1.696
70397W        W34330  29.965   3.904   1.712
70398W        W34331  34.609   2.278  10.600
70399W        W34332  10.824  12.744   2.267
70400W        W34333  42.855  35.992   5.692
70401W        W34334  18.272  27.496  13.392
70402W        W34335  17.121  32.978   0.414
70403W        W34336   5.762  25.018  12.961
70404W        W34337  33.522   7.776   4.223
70405W        W34338  38.916  42.452  11.928
70406W        W34339   4.399  39.863  11.003
70407W        W34340  28.465  31.083   2.871
70408W        W34341  10.344  41.320  12.487
70409W        W34342  28.101  36.522  10.612
70410W        W34343  17.251   1.830  12.093
70411W        W34344  39.349  26.616  10.554
70412W        W34345   1.337  12.805  12.342
70413W        W34346  15.689   2.733   4.742
70414W        W34347   4.907  39.541  14.794
70415W        W34348  15.592   5.195   3.667
70416W        W34349  26.186  26.182   3.800
70417W        W34350  13.612  33.010  10.481
70418W        W34351  35.024   8.782   1.442
70419W        W34352  27.581  19.136   0.366
70420W        W34353  35.915   4.834   3.193
70421W        W34354  20.132   4.932  10.077
70422W        W34355  35.495  26.168   0.452
70423W        W34356  18.583   6.851  14.367
70424W        W34357  18.562  23.542  11.858
70425W        W34358  37.452  26.607   4.175
70426W        W34359  18.738  29.067   1.893
70427W        W34360   3.732  24.158  11.101
70428W        W34361   2.963  13.209  10.448
70429W        W34362  29.161   9.755   0.319
70430W        W34363  14.745  40.501   1.709
70431W        W34364   8.878  32.513   0.363
70432W        W34365  10.638  15.665   3.204
70433W        W34366   7.778  22.530  13.861
70434W        W34367  35.442   3.236  13.850
70435W        W34368  27.608  40.918   2.223
70436W        W34369   2.291  11.785  14.502
70437W        W34370  20.532   3.840   0.743
70438W        W34371  20.631  18.229   3.667
70439W        W34372  14.707  28.096  11.053
70440W        W34373  22.024  24.691  11.860
70441W        W34374  10.844  19.273   3.343
70442W        W34375  39.815  37.476   2.297
70443W        W34376   2.428  35.953   9.964
70444W        W34377   4.366  30.600  10.977
70445W        W34378  24.982  34.602  12.402
70446W        W34379  13.188  12.846   2.362
70447W        W34380  28.069  32.992  14.323
70448W        W34381  20.576  15.189  14.973
70449W        W34382  13.819  32.495  10.586
70450W        W34383  41.523  12.802  10.433
70451W        W34384  29.445  33.561   1.764
70452W        W34385  42.490  29.926  11.590
70453W        W34386  13.332  35.957   3.707
70454W        W34387  37.536  17.107  13.882
70455W        W34388  31.466  14.667   3.705
70456W        W34389  29.428  26.143   3.258
70457W        W34390  25.156  10.841  13.349
70458W        W34391  37.558   8.338  11.506
70459W        W34392   4.377  27.644  12.071
70460W        W34393  28.453  40.376  10.935
70461W        W34394  24.022  25.641  11.595
70462W        W34395  23.622  23.984   2.313
70463W        W34396  29.994  36.850  12.550
70464W        W34397   5.809  38.556  11.934
70465W        W34398   6.236  16.211   9.573
70466W        W34399  23.545   0.943   2.770
70467W        W34400  34.391  38.486  12.918
70468W        W34401  10.804  19.729  12.004
70469W        W34402  18.214  10.658  12.558
70470W        W34403  43.019  39.991  12.990
70471W        W34404  21.094  31.537  11.882
70472W        W34405  15.671  43.784  13.423
70473W        W34406   2.765  43.443  13.466
70474W        W34407  19.565  10.857   4.171
70475W        W34408  38.438  24.719   0.391
70476W        W34409   3.846  15.202  12.496
70477W        W34410  37.972  33.531  10.576
70478W        W34411  29.641  43.977  14.009
70479W        W34412  17.672  21.756  12.986
70480W        W34413  27.953  22.064  14.000
70481W        W34414   4.818  16.695  13.038
70482W        W34415  26.998  12.684  12.904
70483W        W34416   7.780  40.401   2.696
70484W        W34417  22.580  13.341   0.373
70485W        W34418  32.573  18.576  10.959
70486W        W34419  29.574  40.350  14.500
70487W        W34420  11.300  18.641   3.767
70488W        W34421  21.525  17.234   1.439
70489W        W34422  24.520  19.589  13.881
70490W        W34423  11.368  43.966   4.134
70491W        W34424  28.024  37.859  11.916
70492W        W34425  25.558  44.285  13.350
70493W        W34426  16.765   3.859  14.460
70494W        W34427  25.598  30.530   2.325
70495W        W34428   8.365  20.114   1.232
70496W        W34429   9.315  36.870  12.070
70497W        W34430   4.288  12.361  14.016
70498W        W34431  40.874  35.484   0.471
70499W        W34432  10.360  27.470  14.974
70500W        W34433  16.771   0.837  12.535
70501W        W34434   2.810  37.498  13.315
70502W        W34435  36.484  16.092  12.029
70503W        W34436  21.096  26.633  10.625
70504W        W34437  43.405   3.451   5.283
70505W        W34438  19.540  30.063  11.027
70506W        W34439  35.529  41.986  11.535
70507W        W34440  20.543  22.134  11.973
70508W        W34441  17.657   0.883   4.775
70509W        W34442  10.772  17.211   0.901
70510W        W34443  21.019  43.837  14.975
70511W        W34444  39.460  30.488   5.166
70512W        W34445  24.637   1.335  13.371
70513W        W34446  34.579  25.710  13.932
70514W        W34447  14.716  17.180  11.388
70515W        W34448   5.792   4.797  10.934
70516W        W34449  30.039  10.783  11.987
70517W        W34450   7.671  32.393  12.399
70518W        W34451  15.324  44.804   4.123
70519W        W34452   9.308  42.861  12.975
70520W        W34453   7.225  29.033  11.917
70521W        W34454  29.425   1.866   0.843
70522W        W34455   0.744   8.780   3.769
70523W        W34456   1.897  15.207   2.288
70524W        W34457  39.554   8.312   0.907
70525W        W34458  17.167  20.590  11.575
70526W        W34459  32.933   0.358  10.619
70527W        W34460  31.428   1.359  13.478
70528W        W34461  31.626   4.910  13.941
70529W        W34462  30.638  42.822   4.708
70530W        W34463  25.166  30.006   2.251
70531W        W34464  27.560  39.046  13.887
70532W        W34465  22.162  28.510  12.555
70533W        W34466  24.089  29.940  11.925
70534W        W34467  29.489  34.929   0.344
70535W        W34468  17.576  40.463  11.860
70536W        W34469   1.894  28.498  13.818
70537W        W34470  25.159  41.894   4.240
70538W        W34471  43.917  44.002   3.271
70539W        W34472  13.263   5.792   1.325
70540W        W34473  38.936   2.230  11.056
70541W        W34474  39.898  16.292  11.021
70542W        W34475  33.475  14.823   4.229
70543W        W34476  35.106  39.504   0.895
70544W        W34477  25.058  20.638  11.541
70545W        W34478   9.806  19.731  12.033
70546W        W34479  18.782  25.150  13.478
70547W        W34480  29.986   9.824  13.943
70548W        W34481  20.161  32.053   5.221
70549W        W34482  42.805  34.943  14.473
70550W        W34483   3.304  26.518  14.969
70551W        W34484  34.931  19.758  11.522
70552W        W34485  22.175  40.476   3.309
70553W        W34486  36.974  26.996  12.555
70554W        W34487  36.389  21.573   0.751
70555W        W34488  25.685  39.835   1.906
70556W        W34489   2.385  10.254  11.458
70557W        W34490  22.555  20.756   4.796
70558W        W34491  36.360  19.160   0.730
70559W        W34492  13.652   5.723   1.240
70560W        W34493  21.138   7.338   3.736
70561W        W34494  14.588  24.087   3.221
70562W        W34495  19.731  40.406   9.946
70563W        W34496  33.612  21.647   4.798
70564W        W34497  22.508  18.233  12.355
70565W        W34498   9.257  41.535   2.756
70566W        W34499  23.169  25.596   2.219
70567W        W34500   4.405  11.693  14.903
70568W        W34501  19.190  26.194  11.985
70569W        W34502  10.262   9.682   5.181
70570W        W34503  10.162  34.402   3.842
70571W        W34504  30.067  28.969   3.806
70572W        W34505  35.856  18.110   0.860
70573W        W34506  41.834  28.548   4.606
70574W        W34507  15.190  37.037  14.962
70575W        W34508   6.713  15.285  13.448
70576W        W34509  37.884  12.640   0.730
70577W        W34510  23.133  39.863   3.733
70578W        W34511  37.067  32.585  13.870
70579W        W34512  21.706  32.619   0.382
70580W        W34513   0.811  28.619   4.342
70581W        W34514  18.558   8.900  13.984
70582W        W34515   2.258  19.677   2.239
70583W        W34516  15.598  16.704   1.733
70584W        W34517  19.648  36.393   2.276
70585W        W34518  32.099   9.353  11.540
70586W        W34519  20.160  29.651  13.334
70587W        W34520  13.830  23.122  12.545
70588W        W34521  30.462   7.731   5.147
70589W        W34522  43.477  17.155  10.459
70590W        W34523  27.626  16.208   0.392
70591W        W34524  43.913  28.121  14.990
70592W        W34525  15.760  30.592  13.003
70593W        W34526   6.287  31.139   1.815
70594W        W34527  32.583  10.725   2.278
70595W        W34528   8.196   3.371   5.586
70596W        W34529  27.982  22.630   3.189
70597W        W34530  12.703  44.852   4.332
70598W        W34531  36.939  34.092  14.871
70599W        W34532  30.955  13.813   3.774
70600W        W34533  30.020  42.016  14.394
70601W        W34534  43.433   7.721   4.751
70602W        W34535   7.245  44.440  10.930
70603W        W34536  16.746   2.284   1.246
70604W        W34537   8.668  14.691   2.352
70605W        W34538  35.881  41.337  12.497
70606W        W34539  18.102  27.580  12.963
70607W        W34540  17.076  22.600  10.588
70608W        W34541  44.371  12.305   0.806
70609W        W34542   9.773  43.782  11.384
70610W        W34543  18.607   2.929   2.749
70611W        W34544  26.009  19.650  10.936
70612W        W34545   2.463  20.545  12.392
70613W        W34546  43.386  22.530  14.900
70614W        W34547   6.711  30.146  11.951
70615W        W34548  15.610  43.388  14.997
70616W        W34549  16.118  28.992   0.826
70617W        W34550  43.455  20.092  12.860
70618W        W34551  20.651  19.540  13.030
70619W        W34552  43.863  20.149  10.920
70620W        W34553   0.796  19.764  13.477
70621W        W34554  37.531  35.388   4.785
70622W        W34555   9.274  23.016  11.053
70623W        W34556  40.543  43.429  11.492
70624W        W34557  12.621  27.165  14.766
70625W        W34558   2.906  38.990  12.418
70626W        W34559   3.747  28.579  12.373
70627W        W34560  18.740  28.438  14.486
70628W        W34561  21.602  30.053   2.387
70629W        W34562  17.573  36.999  13.849
70630W        W34563  25.125  27.943   3.708
70631W        W34564  13.778  11.623   3.228
70632W        W34565   4.212  22.188   0.923
70633W        W34566  22.176   8.773   2.361
70634W        W34567  34.494  30.440  14.010
70635W        W34568  39.498  11.141   2.390
70636W        W34569  18.204  13.664   1.932
70637W        W34570  42.388  27.176  12.463
70638W        W34571   5.335  24.720  14.501
70639W        W34572  21.701  38.553  12.481
70640W        W34573  31.103  39.470   2.858
70641W        W34574  28.090  18.721  14.426
70642W        W34575  43.320  17.666   1.254
70643W        W34576  42.984  42.794  10.887
70644W        W34577   5.706  35.934  11.078
70645W        W34578   2.386  43.486   2.323
70646W        W34579  13.662   5.843  12.390
70647W        W34580  18.151  32.042  11.128
70648W        W34581  20.696  11.367   1.856
70649W        W34582  35.036  34.990   3.773
70650W        W34583  40.512   6.703   2.335
70651W        W34584  28.564  22.062   1.229
70652W        W34585  28.444   5.833  14.897
70653W        W34586  13.292  30.998  13.948
70654W        W34587  19.539  42.419  10.494
70655W        W34588  32.501  20.528  13.989
70656W        W34589  34.908  33.896  13.972
70657W        W34590  36.041  24.037  10.534
70658W        W34591  20.197  33.380   3.188
70659W        W34592   4.868  42.789   0.953
70660W        W34593  26.522  19.231  13.382
70661W        W34594  23.590   0.470   2.183
70662W        W34595  35.900   9.362   1.394
70663W        W34596   2.231  18.558  12.826
70664W        W34597   7.794  11.173   1.904
70665W        W34598  31.967  29.432   5.086
70666W        W34599  19.054  40.424  11.121
70667W        W34600  27.503  35.892  13.837
70668W        W34601   9.886   1.331  12.952
70669W        W34602   6.728  18.261   2.227
70670W        W34603  37.948   5.352  14.464
70671W        W34604   8.715  44.329  11.886
70672W        W34605  42.385  21.731  14.782
70673W        W34606  16.172  25.042   4.126
70674W        W34607   9.777  41.522   1.301
70675W        W34608   9.373  35.471  10.610
70676W        W34609   4.429  25.001  13.493
70677W        W34610  37.437  12.732  13.978
70678W        W34611   1.812  42.300  14.962
70679W        W34612   1.267   9.320   1.437
70680W        W34613  28.540  23.631   2.846
70681W        W34614  34.971   1.741   4.773
70682W        W34615  38.876  27.153   0.766
70683W        W34616   8.705  36.529  13.018
70684W        W34617   8.774  34.029   1.776
70685W        W34618  30.028  24.032   2.265
70686W        W34619  25.553  31.024  10.426
70687W        W34620   2.726  32.590   2.183
70688W        W34621  23.505  31.482  11.087
70689W        W34622  14.226  27.954   5.262
70690W        W34623  37.989  12.831   3.202
70691W        W34624   6.263  23.005   2.801
70692W        W34625  16.684  22.116   4.320
70693W        W34626  31.153   3.303  13.945
70694W        W34627  25.171  12.194  10.644
70695W        W34628  31.407   1.450  13.887
70696W        W34629   2.298  42.963   4.681
70697W        W34630   4.419  43.471  12.851
70698W        W34631  15.255  24.021   1.359
70699W        W34632  41.446   2.916  13.354
70700W        W34633  29.117  28.172  11.081
70701W        W34634   3.453  21.155   0.889
70702W        W34635  27.052  40.504   2.740
70703W        W34636  41.044  33.024   4.271
70704W        W34637  34.472  35.433  14.797
70705W        W34638  32.575   7.202   1.823
70706W        W34639  37.367  36.959   3.861
70707W        W34640  26.135  35.904  14.390
70708W        W34641   9.354  20.229  12.874
70709W        W34642   4.815  41.960   4.806
70710W        W34643  44.421  43.835   4.307
70711W        W34644  43.506  20.122  12.388
70712W        W34645  22.677  33.414  10.481
70713W        W34646  20.724   2.882  14.501
70714W        W34647  42.936  17.564   1.860
70715W        W34648   6.800  18.657   4.807
70716W        W34649  42.995  22.020   1.358
70717W        W34650  25.979   0.427   1.810
70718W        W34651  40.973  27.031  11.960
70719W        W34652  35.569  35.548   1.734
70720W        W34653  11.689  20.568   0.403
70721W        W34654  13.163  32.964  14.497
70722W        W34655  21.168   1.861   3.232
70723W        W34656  32.940  12.658  14.298
70724W        W34657  14.767  42.833   0.734
70725W        W34658  21.040   5.795   0.246
70726W        W34659  34.887  26.183   4.350
70727W        W34660  23.189  21.141   2.206
70728W        W34661  11.764  25.020  14.391
70729W        W34662   3.398  39.943  10.621
70730W        W34663  31.465  24.613  13.041
70731W        W34664   4.759   2.318  14.917
70732W        W34665   7.692  12.193   3.759
70733W        W34666  40.474  37.970  12.093
70734W        W34667  20.043  10.198   2.677
70735W        W34668  20.611   4.939   0.293
70736W        W34669  39.063   2.894   3.219
70737W        W34670  38.821  10.295  12.369
70738W        W34671  25.473   4.270  13.852
70739W        W34672  33.898  21.246  13.839
70740W        W34673  38.913  30.103   2.373
70741W        W34674  36.995  41.016  10.979
70742W        W34675  12.273  39.453   4.272
70743W        W34676  26.676  28.062   3.317
70744W        W34677  37.863  18.768  11.959
70745W        W34678  30.928  40.493  12.858
70746W        W34679  21.022  40.537   1.708
70747W        W34680  22.176  26.082   4.754
70748W        W34681  28.490  29.469   4.619
70749W        W34682  37.483  37.831   1.715
70750W        W34683  22.066  37.908  10.603
70751W        W34684  31.582  30.105   2.339
70752W        W34685  20.086  33.927   2.822
70753W        W34686  40.357  10.324  14.487
70754W        W34687  23.623  31.943   3.228
70755W        W34688  17.248  27.500  11.482
70756W        W34689  16.691   9.191   1.313
70757W        W34690  25.162  32.599   0.368
70758W        W34691  19.565  23.649  14.918
70759W        W34692  38.442  37.452  12.569
70760W        W34693   2.877  39.050  10.524
70761W        W34694   1.307  19.060  13.309
70762W        W34695  34.955  29.576   5.176
70763W        W34696  13.122   0.845  12.026
70764W        W34697  34.420  44.295   4.301
70765W        W34698  16.223  12.302   3.275
70766W        W34699  13.197  30.005  13.442
70767W        W34700   2.898  35.956   1.238
70768W        W34701  15.744  41.938   2.244
70769W        W34702  37.380  29.431  13.875
70770W        W34703  34.386  28.597  10.633
70771W        W34704  15.205  30.457  12.569
70772W        W34705  23.561  39.037  12.943
70773W        W34706  38.437   7.716   0.872
70774W        W34707  23.510  19.084  13.437
70775W        W34708  17.687  32.123  10.591
70776W        W34709  19.705  44.288  10.889
70777W        W34710  31.005  25.078   0.830
70778W        W34711  41.815  30.004  10.478
70779W        W34712  16.248   0.483  13.822
70780W        W34713  44.313  11.163  13.351
70781W        W34714  21.261  43.878   0.892
70782W        W34715  37.839  36.590   0.951
70783W        W34716  33.942  33.900  11.406
70784W        W34717   6.836  32.488  14.786
70785W        W34718  20.228  29.589  10.137
70786W        W34719  10.779   5.238   2.379
70787W        W34720   0.317  19.093   1.715
70788W        W34721  13.187  33.125  13.419
70789W        W34722   5.854   5.408  11.520
70790W        W34723  15.230  19.077   4.132
70791W        W34724   7.820   4.731   5.141
70792W        W34725   8.277  23.540   0.366
70793W        W34726  33.929  41.398   0.789
70794W        W34727  15.604  10.236   3.824
70795W        W34728  33.464  30.571  13.987
70796W        W34729  13.173  26.698   4.189
70797W        W34730  20.660  44.269   1.386
70798W        W34731   4.229   2.378   4.285
70799W        W34732  25.495  12.231   3.729
70800W        W34733  44.892   5.266  12.862
70801W        W34734  38.995   5.257  14.013
70802W        W34735  25.705   5.923   3.844
70803W        W34736  32.044  21.109   4.760
70804W        W34737  38.900   0.265  12.563
70805W        W34738   1.766  39.485  13.909
70806W        W34739  41.900  31.555   0.258
70807W        W34740   8.249   7.291  13.410
70808W        W34741  26.545  28.986  11.984
70809W        W34742   6.424  44.780   2.328
70810W        W34743  34.395  11.221   3.706
70811W        W34744  15.157  30.924  10.565
70812W        W34745  44.336  16.109  14.363
70813W        W34746  32.078   7.247  14.311
70814W        W34747   0.900   7.702   2.415
70815W        W34748   0.333  33.548   4.181
70816W        W34749  25.175  32.394   2.207
70817W        W34750   8.184  15.251   1.786
70818W        W34751  23.597  13.645  14.953
70819W        W34752  26.615  28.511   1.724
70820W        W34753  10.279  10.349  13.993
70821W        W34754  42.999  19.144   3.326
70822W        W34755  13.324  37.965   0.915
70823W        W34756   3.773  37.890  11.993
70824W        W34757  23.660  26.048   1.225
70825W        W34758  13.184   6.917  14.305
70826W        W34759  36.348  22.695   2.278
70827W        W34760  29.096  24.576   2.350
70828W        W34761  17.224  41.876  13.338
70829W        W34762   1.784  25.552  10.473
70830W        W34763  19.131  23.590  14.897
70831W        W34764  39.974  23.188   0.282
70832W        W34765  11.621  24.141   2.392
70833W        W34766  22.092  21.681  11.862
70834W        W34767  30.643  33.025   4.825
70835W        W34768  13.114  37.974   0.331
70836W        W34769  30.922  39.443   0.919
70837W        W34770   3.839  12.693   4.820
70838W        W34771   2.739  12.664   1.794
70839W        W34772  25.164   2.273   4.653
70840W        W34773   1.405  14.753   0.474
70841W        W34774   6.248  37.984  12.918
70842W        W34775   0.374  16.204  14.302
70843W        W34776   6.845   5.900   3.816
70844W        W34777   7.785  41.468   1.907
70845W        W34778  31.944  42.998  13.509
70846W        W34779  14.333  41.399   4.274
70847W        W34780  24.664  38.043  11.586
70848W        W34781  34.601  23.657   3.301
70849W        W34782  37.019  31.439  13.998
70850W        W34783   8.308  12.270   1.211
70851W        W34784  31.631  41.484  13.515
70852W        W34785  30.474   1.859   2.401
70853W        W34786   4.937  27.610   1.699
70854W        W34787  38.841  18.175  14.449
70855W        W34788  40.514  22.227  13.848
70856W        W34789  18.614  31.990  14.413
70857W        W34790  34.486   4.377   0.458
70858W        W34791  29.025  44.942  11.390
70859W        W34792   4.876  24.613   5.762
70860W        W34793   8.886  40.002   2.816
70861W        W34794  34.467   2.420   1.726
70862W        W34795  22.555  12.636  14.389
70863W        W34796  22.654  25.965  14.293
70864W        W34797  14.335  10.188   2.790
70865W        W34798  30.591  37.843   0.450
70866W        W34799  24.690  31.437   3.736
70867W        W34800  12.772  34.392  10.479
70868W        W34801  41.874  32.549  14.324
70869W        W34802  21.204  25.052   0.816
70870W        W34803  42.015   6.891  14.926
70871W        W34804  20.738  30.103   2.892
70872W        W34805  41.532   2.336   4.718
70873W        W34806  15.238   1.799  12.051
70874W        W34807  32.531  20.741  14.884
70875W        W34808   0.318  23.491   2.392
70876W        W34809  20.178  38.358   3.294
70877W        W34810  33.039  23.010   0.824
70878W        W34811   2.843  22.512   0.321
70879W        W34812  37.451  37.401   3.783
70880W        W34813   1.773  29.425   3.270
70881W        W34814  20.219  30.130   1.293
70882W        W34815  23.034   2.876   1.834
70883W        W34816  18.557  28.485   2.855
70884W        W34817  32.572  44.930  14.784
70885W        W34818  43.327  40.966   2.406
70886W        W34819  32.021  10.310   4.141
70887W        W34820   8.836  28.945   0.322
70888W        W34821  40.931  18.230   2.683
70889W        W34822  29.147  43.833   3.710
70890W        W34823  25.147  25.006   1.919
70891W        W34824  12.341  38.050   1.893
70892W        W34825  17.669  10.857   3.706
70893W        W34826  29.065  16.282  14.800
70894W        W34827  38.335  16.777  11.006
70895W        W34828  24.026   6.428   3.842
70896W        W34829  31.982  16.267  11.508
70897W        W34830  33.504  36.037  12.888
70898W        W34831  18.786  35.875   9.985
70899W        W34832  43.007  39.987   5.103
70900W        W34833  32.632  40.852  11.884
70901W        W34834  29.154   3.893  14.434
70902W        W34835  42.408  38.360   0.944
70903W        W34836  13.262  20.049   0.288
70904W        W34837   1.852  44.878  10.524
70905W        W34838   8.738  22.027  12.970
70906W        W34839  29.527  14.594  13.040
70907W        W34840  14.834  33.122   3.740
70908W        W34841  14.764  27.989  14.329
70909W        W34842  43.471  25.107  12.968
70910W        W34843   6.794  29.024  11.992
70911W        W34844  14.218  41.916  11.916
70912W        W34845  35.469  23.699   2.256
70913W        W34846  39.061  18.117  14.907
70914W        W34847  15.175  41.415   2.715
70915W        W34848  37.966  24.536  10.573
70916W        W34849  41.529  43.904  12.947
70917W        W34850  20.572   2.730   0.909
70918W        W34851  10.855   1.750  13.924
70919W        W34852  13.152  17.161   5.266
70920W        W34853   6.771   6.321   3.191
70921W        W34854  21.127  23.059  14.841
70922W        W34855  35.568  40.958   2.185
70923W        W34856  25.192   9.188   4.764
70924W        W34857  39.406  27.690  13.000
70925W        W34858  31.604  13.152   4.666
70926W        W34859  15.158  13.717  10.493
70927W        W34860  35.875  17.659   4.599
70928W        W34861  37.839  42.326  13.993
70929W        W34862  31.619  13.688   1.331
70930W        W34863  15.098  44.857  10.433
70931W        W34864  20.532  26.598   3.279
70932W        W34865   5.339  29.081  11.017
70933W        W34866   2.882  10.251   3.656
70934W        W34867   9.208   1.957  13.870
70935W        W34868  30.155  11.857  10.629
70936W        W34869  40.404  38.916   2.805
70937W        W34870  31.625  35.017   4.675
70938W        W34871  19.723   3.930  14.325
70939W        W34872  13.201  33.961  12.540
70940W        W34873  18.777   1.387   2.822
70941W        W34874   2.244  37.537  10.962
70942W        W34875  24.626  40.957   3.865
70943W        W34876  29.481  32.487  12.436
70944W        W34877  15.228  31.942   4.198
70945W        W34878  25.520   3.726   1.910
70946W        W34879  25.582  33.429  10.053
70947W        W34880   5.216   4.796  14.428
70948W        W34881  14.278  34.488   3.361
70949W        W34882  20.121  23.195  11.408
70950W        W34883   9.214  34.611  12.093
70951W        W34884  41.528   0.922   4.118
70952W        W34885  19.549  24.227  10.912
70953W        W34886  13.649  14.237   0.838
70954W        W34887  34.518  42.473  11.086
70955W        W34888  38.909  20.669  14.946
70956W        W34889  34.048  32.032  11.483
70957W        W34890   5.846  27.068   0.356
70958W        W34891  40.002  34.502   3.161
70959W        W34892  31.059   0.398   3.708
70960W        W34893  21.698  42.965  10.596
70961W        W34894  11.670   5.348   4.732
70962W        W34895  10.200   8.741  13.821
70963W        W34896  43.881  29.515   3.233
70964W        W34897  22.652  35.033  12.453
70965W        W34898  26.966  39.458   1.218
70966W        W34899  25.077  29.455  11.064
70967W        W34900  22.704  26.956   3.656
70968W        W34901  30.522  38.907  11.873
70969W        W34902  33.918   9.801   0.456
70970W        W34903  38.998  32.004  12.057
70971W        W34904  32.418   1.389  12.524
70972W        W34905  25.191   1.455  11.467
70973W        W34906  37.494  21.251   0.777
70974W        W34907  11.319  11.690   1.294
70975W        W34908   9.849   1.752   2.820
70976W        W34909  29.614   5.348   3.676
70977W        W34910  34.966  28.622   4.734
70978W        W34911  43.817  28.448   1.758
70979W        W34912  20.634  32.968   3.178
70980W        W34913   0.899  43.991  13.830
70981W        W34914  16.297  14.235   2.274
70982W        W34915  21.148   1.312   2.276
70983W        W34916  44.895  22.179  10.974
70984W        W34917  13.701  34.389  13.049
70985W        W34918  26.567  23.087   4.759
70986W        W34919  11.248  17.713  12.340
70987W        W34920  14.202   8.356   4.181
70988W        W34921  40.893  40.549   4.157
70989W        W34922  11.291  23.152  11.995
70990W        W34923  44.372  34.578   4.132
70991W        W34924  13.616   7.286   4.152
70992W        W34925   5.922  20.686  14.944
70993W        W34926  25.124  32.499   3.355
70994W        W34927  21.219   5.412   3.278
70995W        W34928   8.336  37.884  12.531
70996W        W34929   4.386  30.113   0.901
70997W        W34930  10.368  34.977   2.209
70998W        W34931  44.773  22.014   1.898
70999W        W34932  18.778  44.307   5.268
71000W        W34933   4.714  11.254  11.475
71001W        W34934  19.057  11.353  12.480
71002W        W34935  18.072  16.177   4.686
71003W        W34936  33.972  12.279  12.872
71004W        W34937  15.676  33.481   2.666
71005W        W34938   0.280  26.472   2.287
71006W        W34939  32.107  26.505   3.218
71007W        W34940  10.771  25.652  14.826
71008W        W34941  29.429   0.842  14.995
71009W        W34942  16.756  10.798   3.677
71010W        W34943  41.525  44.991  12.907
71011W        W34944  32.896  25.163  11.093
71012W        W34945  29.553   0.467  14.428
71013W        W34946  21.548  41.887  12.424
71014W        W34947  15.214  32.126  14.311
71015W        W34948  19.541   1.436   4.601
71016W        W34949  44.778   5.281  10.915
71017W        W34950  16.245  24.529  14.896
71018W        W34951  30.977  43.878   1.327
71019W        W34952  26.109   2.834   3.636
71020W        W34953  15.722   8.400   4.689
71021W        W34954  35.502  32.417  12.499
71022W        W34955  38.923   2.404  14.480
71023W        W34956  16.746  10.264   0.277
71024W        W34957  38.514  10.711  10.900
71025W        W34958  34.037   6.813   0.815
71026W        W34959  26.687   0.438   3.633
71027W        W34960   1.314  26.699   4.751
71028W        W34961  37.019  34.609   3.172
71029W        W34962  14.181  29.519  13.981
71030W        W34963  38.549  23.646   4.240
71031W        W34964  38.008  26.059   0.308
71032W        W34965  22.525  25.555   2.213
71033W        W34966  14.753  42.928   4.344
71034W        W34967  29.132  26.585   1.914
71035W        W34968   3.282  28.064  14.842
71036W        W34969  16.213  37.001  13.870
71037W        W34970  39.862  28.184  14.379
71038W        W34971  19.619  34.033   2.690
71039W        W34972  40.802   2.455  13.978
71040W        W34973  33.418  15.688   2.181
71041W        W34974  17.153  40.900   4.823
71042W        W34975  14.799  13.716   2.767
71043W        W34976  42.381   6.413  13.802
71044W        W34977  35.958  21.748   0.896
71045W        W34978   9.157  24.187   3.167
71046W        W34979  35.058  12.857   2.343
71047W        W34980  37.490  41.349  13.062
71048W        W34981   3.457  19.737  14.975
71049W        W34982   5.744   2.915  14.944
71050W        W34983   6.909  37.412   3.303
71051W        W34984  35.911  29.467   1.225
71052W        W34985  11.745   3.927  12.943
71053W        W34986  22.623  14.717   2.236
71054W        W34987  33.423  35.500  14.936
71055W        W34988  20.169   8.198  11.471
71056W        W34989  30.466  28.153  14.777
71057W        W34990  44.497  25.622  11.608
71058W        W34991  12.254  32.037   4.263
71059W        W34992  37.381  36.044  11.953
71060W        W34993  28.590  20.035   2.831
71061W        W34994  33.419  44.974  14.407
71062W        W34995  35.499  35.412   1.415
71063W        W34996   2.233  40.809   3.168
71064W        W34997  17.612  20.176   9.966
71065W        W34998  19.173  15.675  11.046
71066W        W34999  41.841  13.294  14.898
71067W        W35000  34.432  41.343   4.222
71068W        W35001  33.514  37.581   3.203
71069W        W35002  22.700  27.668  11.098
71070W        W35003   7.763   4.752  12.449
71071W        W35004   7.261  39.921  11.557
71072W        W35005   3.220  29.648   2.810
71073W        W35006  28.953  17.200  14.480
71074W        W35007  21.730  17.100  12.096
71075W        W35008   1.869  35.595  10.977
71076W        W35009  30.059  44.839   3.159
71077W        W35010  43.343  10.694   1.443
71078W        W35011  22.248  24.127  11.885
71079W        W35012  15.093   3.861  11.447
71080W        W35013  20.035   2.468  10.412
71081W        W35014  18.660   8.857   1.346
71082W        W35015  33.971  30.568  13.817
71083W        W35016  29.093   1.320   2.794
71084W        W35017  10.353  39.542  10.935
71085W        W35018  25.056  26.049  11.414
71086W        W35019  41.466   2.744   3.365
71087W        W35020  36.396  24.120  13.492
71088W        W35021  11.163  10.261  11.911
71089W        W35022  35.102  44.802  10.417
71090W        W35023  11.756  40.532  12.865
71091W        W35024  31.971  37.452   9.945
71092W        W35025  39.545  10.837  12.451
71093W        W35026  13.143  34.535   4.279
71094W        W35027  10.244  14.770   1.733
71095W        W35028  12.286  20.129  12.013
71096W        W35029   8.659  35.460   4.692
71097W        W35030  16.601  13.643  11.904
71098W        W35031  34.944   2.371  12.915
71099W        W35032  29.967   9.696  11.385
71100W        W35033  21.141   4.847  12.826
71101W        W35034  10.348  44.795   0.762
71102W        W35035   4.308  44.005  12.569
71103W        W35036  42.435  15.641   0.335
71104W        W35037  31.438  23.500   1.871
71105W        W35038  36.433  13.714   4.691
71106W        W35039  20.685  14.792  10.502
71107W        W35040   1.888  13.603   0.825
71108W        W35041  24.601  32.119   2.900
71109W        W35042   0.429  13.125   1.721
71110W        W35043  36.417  23.493   2.190
71111W        W35044   4.936  25.171   5.221
71112W        W35045  36.951  21.096  10.563
71113W        W35046  21.522   4.840   3.725
71114W        W35047  25.117   7.199   0.329
71115W        W35048  32.074   3.856   1.416
71116W        W35049  26.989  38.955   1.805
71117W        W35050  34.934   9.643   3.302
71118W        W35051  19.537   3.283   1.900
71119W        W35052   1.794  33.532   0.285
71120W        W35053  42.931  17.270   5.204
71121W        W35054   4.710   0.755  13.348
71122W        W35055   3.362  16.188   4.219
71123W        W35056   3.423  38.528  12.975
71124W        W35057   4.291   3.948  11.908
71125W        W35058  42.459  27.560  13.000
71126W        W35059  14.131  10.359  11.602
71127W        W35060   9.385   1.841   0.967
71128W        W35061  15.288  20.089   3.841
71129W        W35062  15.647  22.598   1.783
71130W        W35063   4.914   3.925  11.585
71131W        W35064  29.579  26.690   3.642
71132W        W35065  31.096  20.697   1.372
71133W        W35066   9.869   0.490   1.393
71134W        W35067  10.664  13.679   1.926
71135W        W35068  12.337  18.718   4.141
71136W        W35069   8.791  23.531   3.743
71137W        W35070  36.557  18.059   2.794
71138W        W35071   2.263  37.006  10.488
71139W        W35072   5.835   7.362   4.822
71140W        W35073  42.797   5.715   4.606
71141W        W35074   1.381  42.833  14.515
71142W        W35075  22.589   6.824   4.647
71143W        W35076  17.153   7.269   3.195
71144W        W35077  14.112   0.935  12.424
71145W        W35078  25.997  18.250  12.446
71146W        W35079   4.881  38.846  14.295
71147W        W35080  34.521  41.494   2.723
71148W        W35081   1.812  14.219  12.872
71149W        W35082  27.670  17.165   1.879
71150W        W35083  37.385  14.290  10.948
71151W        W35084   2.730   2.425   3.803
71152W        W35085   4.903   3.258  12.923
71153W        W35086  19.771  26.531   0.441
71154W        W35087  29.068   0.799   0.790
71155W        W35088  24.689  23.556  11.464
71156W        W35089  32.995  17.754  12.424
71157W        W35090  23.121   9.286   1.379
71158W        W35091  28.448  36.942  13.511
71159W        W35092  27.970  36.506   5.086
71160W        W35093  17.279  28.483  14.782
71161W        W35094  42.822  32.402  14.482
71162W        W35095   3.909  32.917  10.625
71163W        W35096   5.426   5.439  14.467
71164W        W35097  13.176  28.622  12.481
71165W        W35098  24.977  14.752   2.707
71166W        W35099  34.462  30.502   2.736
71167W        W35100  37.876   5.237   1.403
71168W        W35101  43.432  34.918   1.868
71169W        W35102  10.687  16.294   4.727
71170W        W35103  12.251  27.030   1.928
71171W        W35104  39.536  30.967  12.968
71172W        W35105  30.611  13.704   2.302
71173W        W35106   9.175  15.587  13.944
71174W        W35107  21.229  42.471  12.035
71175W        W35108   8.885   7.342   4.832
71176W        W35109  18.130  24.146  13.801
71177W        W35110  19.185  17.766  12.073
71178W        W35111  15.638  37.005   4.669
71179W        W35112  32.565  20.675   0.883
71180W        W35113   9.646  42.837  11.468
71181W        W35114  36.097  20.573  10.616
71182W        W35115   2.267  16.225  14.797
71183W        W35116  37.892  42.483   0.812
71184W        W35117  15.780  15.603  12.415
71185W        W35118  22.246   0.335   3.658
71186W        W35119   6.677   3.782  10.994
71187W        W35120  42.359  14.150  10.553
71188W        W35121  17.607  12.856  14.496
71189W        W35122  37.344   8.225  14.023
71190W        W35123  33.909  20.205  13.334
71191W        W35124  25.700  27.615  13.371
71192W        W35125  12.784  32.448   1.762
71193W        W35126  12.726  35.525  13.008
71194W        W35127  15.134  30.521   3.820
71195W        W35128  42.025  23.111   1.227
71196W        W35129  35.980  15.721   0.251
71197W        W35130  30.657  10.805   3.256
71198W        W35131  35.079  11.867  11.394
71199W        W35132  19.671  25.028   5.084
71200W        W35133  25.035  10.274  13.901
71201W        W35134   0.382  41.824   4.328
71202W        W35135  29.551   6.280  12.417
71203W        W35136  19.629  24.542   1.903
71204W        W35137  36.564  21.172  10.895
71205W        W35138   5.318  17.669  12.900
71206W        W35139   2.903  20.703  11.934
71207W        W35140  37.349  37.422   2.733
71208W        W35141  32.890  22.746   1.899
71209W        W35142  11.795  35.418  13.463
71210W        W35143  38.974  23.632  14.009
71211W        W35144  14.234  24.184  12.456
71212W        W35145  27.553  40.414  11.948
71213W        W35146  23.673  38.455   0.308
71214W        W35147  11.179  34.371  13.324
71215W        W35148  32.439  44.970  11.414
71216W        W35149  21.733  21.193  14.459
71217W        W35150  11.166  14.286   3.331
71218W        W35151   1.455  41.403  10.987
71219W        W35152  17.720  13.179  12.491
71220W        W35153   8.835  40.810  13.807
71221W        W35154  22.580  39.389   1.865
71222W        W35155   5.325  26.967   2.835
71223W        W35156  19.733  30.498  14.486
71224W        W35157  17.636   5.194   4.627
71225W        W35158  21.666  17.652   4.824
71226W        W35159  23.129  16.146   0.787
71227W        W35160  31.598  10.659   3.784
71228W        W35161  34.543  38.970  12.025
71229W        W35162  22.078   6.717  11.414
71230W        W35163  30.962   0.457  13.976
71231W        W35164  35.875  42.345  13.421
71232W        W35165  21.042  36.375  10.963
71233W        W35166  19.156  18.225   5.670
71234W        W35167  32.525   4.874  10.125
71235W        W35168   2.726   4.728   0.877
71236W        W35169  32.631  30.032   0.762
71237W        W35170  25.515  30.511   2.726
71238W        W35171  27.048   1.370   3.703
71239W        W35172  31.121  16.776   2.698
71240W        W35173  29.153  36.456   4.819
71241W        W35174  35.987  17.558  13.824
71242W        W35175  22.558  21.575  10.499
71243W        W35176  28.594  10.301  12.901
71244W        W35177  19.730  43.385   2.748
71245W        W35178   4.435  14.747  12.534
71246W        W35179  14.782  34.555   4.760
71247W        W35180  40.514  44.911  13.364
71248W        W35181  35.547  20.750   4.147
71249W        W35182  15.590  21.659  12.474
71250W        W35183  44.429  18.143   2.687
71251W        W35184  18.108   2.920   4.201
71252W        W35185   6.197   0.798  10.899
71253W        W35186  36.549   8.739  12.007
71254W        W35187  22.080  27.055  11.938
71255W        W35188   5.744  11.855  11.978
71256W        W35189   3.716  28.939   4.302
71257W        W35190  10.309  33.577  11.107
71258W        W35191  37.391   4.438  13.523
71259W        W35192  22.153  32.096   1.914
71260W        W35193   3.888  28.967   3.861
71261W        W35194  32.404  38.827  10.640
71262W        W35195  38.851  13.685   4.776
71263W        W35196   1.907   9.176  13.911
71264W        W35197  12.347   8.392  11.987
71265W        W35198  42.776  27.994  12.926
71266W        W35199  24.658  24.534  14.848
71267W        W35200  16.632   7.791   4.785
71268W        W35201  18.282  23.504   4.792
71269W        W35202  16.258  32.436   2.869
71270W        W35203   3.832   5.770   3.192
71271W        W35204  17.140  34.052   2.824
71272W        W35205  13.238  37.926   4.651
71273W        W35206  29.446  27.045   0.832
71274W        W35207  21.700   4.377  11.950
71275W        W35208  13.320  34.104  10.506
71276W        W35209  44.979  17.663  10.504
71277W        W35210  16.309  25.587  10.918
71278W        W35211  18.786   4.297  11.114
71279W        W35212  23.227   4.302  12.470
71280W        W35213   8.221  28.626  11.053
71281W        W35214  21.526  27.122   4.776
71282W        W35215   4.390  34.999  11.579
71283W        W35216  21.243   3.441   4.172
71284W        W35217  38.947  29.082   3.222
71285W        W35218  39.560  26.641  14.460
71286W        W35219  34.495  22.671  13.824
71287W        W35220  19.634   6.287  11.577
71288W        W35221  44.003   9.200  11.021
71289W        W35222  35.937  31.607   0.476
71290W        W35223  44.272  43.363  12.452
71291W        W35224  38.823  35.063  12.915
71292W        W35225  17.650  29.448   0.740
71293W        W35226  20.211  14.110  14.871
71294W        W35227  28.492  34.005  14.464
71295W        W35228  35.073   3.778  10.947
71296W        W35229   8.886  27.467   1.221
71297W        W35230   8.728  31.905  14.025
71298W        W35231  25.687   7.330   1.804
71299W        W35232  41.523  34.958   4.340
71300W        W35233  29.475   8.677  14.427
71301W        W35234   2.280  35.892  10.572
71302W        W35235   9.191   6.404   2.673
71303W        W35236  24.050   2.372   4.655
71304W        W35237  18.722  11.769   3.274
71305W        W35238  10.778  25.082  10.521
71306W        W35239  18.112  38.897   2.667
71307W        W35240  34.610  36.022  11.094
71308W        W35241   5.324  40.317   2.668
71309W        W35242  33.533  19.138   2.756
71310W        W35243  34.953  14.331  11.954
71311W        W35244  16.251   8.675  11.089
71312W        W35245  30.932  39.515   3.639
71313W        W35246  37.062  17.068   4.829
71314W        W35247  44.845  27.059  10.571
71315W        W35248   0.886  15.730  11.498
71316W        W35249   7.754  21.199  11.872
71317W        W35250  34.576  40.811  11.094
71318W        W35251  15.233  24.703  14.363
71319W        W35252  26.592  24.690  13.981
71320W        W35253  27.571  28.661   3.837
71321W        W35254   2.772   2.759  12.838
71322W        W35255   3.229  22.619   2.779
71323W        W35256  30.546  38.059  11.397
71324W        W35257  36.847  28.586  12.929
71325W        W35258  37.877  12.266  11.406
71326W        W35259   5.412  30.139   4.687
71327W        W35260  36.848  30.595  11.939
71328W        W35261  28.150  38.936  12.390
71329W        W35262   3.818  13.641   1.361
71330W        W35263  16.672  34.909  12.937
71331W        W35264  13.135  29.950  14.298
71332W        W35265  17.753   8.404  12.957
71333W        W35266   7.176  18.155   1.316
71334W        W35267  43.838   1.795  14.354
71335W        W35268  27.569  29.965  14.789
71336W        W35269   5.854  31.024  11.488
71337W        W35270  26.505  26.116   3.734
71338W        W35271   1.461  19.759   3.286
71339W        W35272  11.722  28.666  14.777
71340W        W35273  32.068  24.096  12.076
71341W        W35274  10.168  17.288  11.999
71342W        W35275  21.530   8.302  12.563
71343W        W35276  16.575  43.358   0.367
71344W        W35277  44.895   3.344   0.483
71345W        W35278  10.274  37.377   2.797
71346W        W35279   2.300   3.254  10.981
71347W        W35280  39.505  10.231   2.407
71348W        W35281  23.208  25.035  10.888
71349W        W35282  19.623   7.183  12.435
71350W        W35283  44.811   3.303   3.639
71351W        W35284  42.407  43.830   2.310
71352W        W35285  19.189   2.472   4.670
71353W        W35286  30.118  31.119   2.325
71354W        W35287  38.912  34.495  14.935
71355W        W35288  17.196  42.013   2.678
71356W        W35289  23.131  41.396  10.618
71357W        W35290  39.341  37.489   0.256
71358W        W35291  20.181   8.729  14.774
71359W        W35292   0.957   8.676   2.857
71360W        W35293   7.323  29.429   2.346
71361W        W35294   0.453  36.911  14.973
71362W        W35295  40.936   5.809   4.308
71363W        W35296   6.916  23.111   0.266
71364W        W35297  32.993  28.004   3.668
71365W        W35298  31.485  35.906  12.905
71366W        W35299  41.866   3.284   5.322
71367W        W35300   1.394  28.186   0.427
71368W        W35301  12.773   6.744   0.327
71369W        W35302  38.554  38.890   1.816
71370W        W35303  41.993  36.095  11.962
71371W        W35304  10.798  26.001  12.066
71372W        W35305  11.778  27.662   4.731
71373W        W35306  42.006  23.602  12.010
71374W        W35307   7.896  16.656   4.765
71375W        W35308  34.868   9.374   4.335
71376W        W35309  10.278  10.166   0.277
71377W        W35310  39.897  12.736   4.186
71378W        W35311   8.797   3.851  11.475
71379W        W35312  22.595  34.033  13.473
71380W        W35313  32.499  24.171  12.395
71381W        W35314  31.438  16.699   4.684
71382W        W35315  10.223  18.066  14.947
71383W        W35316  26.184  44.906  12.889
71384W        W35317  30.912  41.342   4.236
71385W        W35318  38.924  18.164   9.941
71386W        W35319  37.353   0.427  10.593
71387W        W35320  21.194   7.178   0.332
71388W        W35321   6.238  10.160  11.985
71389W        W35322  18.140  39.414   1.877
71390W        W35323  11.813  11.750   3.310
71391W        W35324  30.463  18.224   4.305
71392W        W35325  16.586   2.916   2.736
71393W        W35326  17.281   4.418   1.231
71394W        W35327  31.568  31.558   0.747
71395W        W35328  42.787   7.348  12.963
71396W        W35329  19.729   4.924  12.508
71397W        W35330  43.292  39.935  12.963
71398W        W35331   9.681  20.134   4.249
71399W        W35332  25.078  34.863   1.835
71400W        W35333  13.752   2.291   0.254
71401W        W35334  30.628  32.936   2.713
71402W        W35335   7.684  21.629  11.465
71403W        W35336   4.766   9.744   2.839
71404W        W35337  31.983  38.048   2.224
71405W        W35338  41.345   7.302  11.964
71406W        W35339  44.939  22.099   4.134
71407W        W35340  34.474  13.242  14.304
71408W        W35341   5.923  20.531  10.889
71409W        W35342  36.463  42.928  14.515
71410W        W35343   4.279   9.196   1.321
71411W        W35344  14.689   0.262  10.953
71412W        W35345  33.913  37.523   0.845
71413W        W35346  38.048  21.568  10.532
71414W        W35347   7.826   2.285   3.183
71415W        W35348  36.965  31.015   2.248
71416W        W35349  33.511  32.410   2.399
71417W        W35350  31.037   5.381   4.648
71418W        W35351  12.626  42.449  14.332
71419W        W35352  42.306   1.250  13.028
71420W        W35353  26.146  31.556  14.361
71421W        W35354  25.632  24.131   3.209
71422W        W35355  22.654   4.834  11.421
71423W        W35356   3.251  32.074  12.963
71424W        W35357  24.623  27.606  12.377
71425W        W35358  31.956  27.190   0.401
71426W        W35359   0.341  35.561   4.708
71427W        W35360  38.490   3.313  10.953
71428W        W35361  29.510   0.927  10.898
71429W        W35362  22.503  20.200   1.379
71430W        W35363  33.514  41.528   1.792
71431W        W35364  32.451  14.328   0.764
71432W        W35365  15.653   4.351  13.325
71433W        W35366   8.863  43.401  13.477
71434W        W35367  13.728  21.654  12.913
71435W        W35368  21.042  29.474   0.474
71436W        W35369   3.742   3.415   1.444
71437W        W35370  34.418  25.115   0.812
71438W        W35371  36.574   1.371   1.223
71439W        W35372  36.061  27.070   4.737
71440W        W35373  26.018  41.465   3.827
71441W        W35374  42.954   2.452   4.337
71442W        W35375  40.024   7.744   2.270
71443W        W35376   6.312  21.522   3.183
71444W        W35377  37.982  22.685  10.944
71445W        W35378  22.244  28.978   9.596
71446W        W35379  11.700  20.569  12.409
71447W        W35380  25.650  15.208   3.310
71448W        W35381  17.761  39.980   3.661
71449W        W35382  32.606  19.536  14.327
71450W        W35383   1.929  36.923  12.053
71451W        W35384  18.588  43.933   0.456
71452W        W35385  44.776   8.830  14.410
71453W        W35386   7.248  30.916  13.473
71454W        W35387  36.891  24.080   4.140
71455W        W35388  12.362  22.603   2.374
71456W        W35389   1.782  32.981   4.749
71457W        W35390  15.168  27.155  11.583
71458W        W35391  32.541  28.472   0.916
71459W        W35392  13.802   5.384   4.706
71460W        W35393  34.615  30.030  12.978
71461W        W35394  33.544   2.394  13.985
71462W        W35395  33.391  31.913   1.834
71463W        W35396  19.247  43.499  12.447
71464W        W35397  12.170   1.827  11.422
71465W        W35398  23.056  38.543  13.049
71466W        W35399  35.000   2.845   2.333
71467W        W35400  41.482  43.021  12.546
71468W        W35401  30.588   9.759   3.318
71469W        W35402  37.391  34.613   2.239
71470W        W35403   4.724  35.964   3.792
71471W        W35404  29.563  21.516  11.930
71472W        W35405  44.834   3.410   4.300
71473W        W35406  16.727   6.908   0.912
71474W        W35407  37.571  33.427   1.719
71475W        W35408   6.251  18.205   3.284
71476W        W35409  12.247  42.779   4.271
71477W        W35410  14.262  18.216  10.124
71478W        W35411  35.079   6.204   0.427
71479W        W35412  40.459  13.308   1.749
71480W        W35413  26.563  16.300   1.744
71481W        W35414   7.695  15.751   4.149
71482W        W35415  18.177  33.888  10.475
71483W        W35416  37.860  29.591   0.452
71484W        W35417  26.001  43.003   1.839
71485W        W35418   1.451  44.011  12.399
71486W        W35419   4.711  25.656   0.951
71487W        W35420  19.649   1.349   0.477
71488W        W35421  34.032  28.090  11.425
71489W        W35422  27.039  34.970  14.821
71490W        W35423  36.494  35.096  13.944
71491W        W35424  36.390   9.740  10.999
71492W        W35425  20.222  37.982   5.244
71493W        W35426   2.912  34.967  10.972
71494W        W35427  31.557  20.601  13.951
71495W        W35428  39.997  36.047   4.151
71496W        W35429  32.432  18.636  11.569
71497W        W35430  14.716   0.325  14.001
71498W        W35431  36.354   0.429   1.273
71499W        W35432   8.846  20.581  11.385
71500W        W35433  14.677  40.911   4.829
71501W        W35434  36.449  14.685   0.811
71502W        W35435  13.687  39.809  11.916
71503W        W35436  30.016   2.243  14.942
71504W        W35437  15.701  23.092  10.492
71505W        W35438  43.355  32.053   0.818
71506W        W35439   2.874  38.398  14.943
71507W        W35440   9.751  41.927  11.402
71508W        W35441  43.997  24.581   1.281
71509W        W35442  26.158  24.176  14.793
71510W        W35443  35.016  28.073  13.968
71511W        W35444  15.290  27.971   2.189
71512W        W35445  36.584   8.340   0.304
71513W        W35446  17.087  42.346  10.454
71514W        W35447  27.001  10.304   2.214
71515W        W35448  31.021  23.074  12.076
71516W        W35449   1.734  10.332  11.026
71517W        W35450  33.484  29.535   3.365
71518W        W35451   1.453  39.049  13.805
71519W        W35452  15.708  19.735   3.754
71520W        W35453  23.544  22.178  14.810
71521W        W35454  26.699  32.612   3.748
71522W        W35455  28.581  28.596   2.722
71523W        W35456   3.226  37.568   0.330
71524W        W35457   3.250  10.146   2.896
71525W        W35458  10.690  15.207  10.642
71526W        W35459  35.591   0.777   2.768
71527W        W35460  29.940   7.772   4.188
71528W        W35461  41.953  31.051   4.182
71529W        W35462   2.848   3.720   2.727
71530W        W35463  24.222  37.445   5.228
71531W        W35464   8.742   2.299  12.442
71532W        W35465  38.912  31.545   1.268
71533W        W35466  15.282  11.677  11.923
71534W        W35467  21.538  26.133   9.948
71535W        W35468  17.159  40.496   3.381
71536W        W35469  35.495  29.082   1.787
71537W        W35470  32.116   5.194  11.044
71538W        W35471  29.456  28.472   4.129
71539W        W35472  10.239  25.530  14.348
71540W        W35473   8.344  16.145  11.945
71541W        W35474  40.983  33.389   4.202
71542W        W35475  20.575  11.718  10.422
71543W        W35476  25.636  20.650  13.403
71544W        W35477   8.336  43.346   2.281
71545W        W35478   5.733  33.951  12.001
71546W        W35479  33.449  24.090   2.683
71547W        W35480  17.217  12.183   1.430
71548W        W35481  26.080  43.419   0.751
71549W        W35482  17.175   9.716  13.019
71550W        W35483  20.704  27.473  11.005
71551W        W35484  29.042  30.418   0.413
71552W        W35485   7.230  37.073  11.411
71553W        W35486  24.599  38.958  14.421
71554W        W35487   9.785  33.120  12.840
71555W        W35488  26.616  38.072   3.738
71556W        W35489  20.052  11.365   1.933
71557W        W35490  36.380  18.666  13.473
71558W        W35491  38.822   4.348   2.870
71559W        W35492   6.284   4.257   3.309
71560W        W35493  20.249   9.206  12.355
71561W        W35494   9.867   4.718   2.664
71562W        W35495  24.212  13.733  12.960
71563W        W35496  41.917  40.542  14.288
71564W        W35497  11.718   8.865   2.803
71565W        W35498   1.242  38.336  12.890
71566W        W35499  13.346  23.174   2.845
71567W        W35500  34.572  34.406   2.322
71568W        W35501   7.889   6.868  10.992
71569W        W35502  41.485  21.523  11.470
71570W        W35503  21.523   8.801   1.857
71571W        W35504  16.628   5.688   2.203
71572W        W35505  10.335   0.914   4.829
71573W        W35506  38.466   7.785   1.342
71574W        W35507  34.403  41.511  14.302
71575W        W35508   4.730  21.163   5.186
71576W        W35509   2.404  12.340  13.419
71577W        W35510  18.189   4.900   0.884
71578W        W35511  26.576  16.189   3.306
71579W        W35512  26.550  36.503  12.065
71580W        W35513  32.124  34.006   4.301
71581W        W35514   7.773  42.412   4.716
71582W        W35515  14.111  22.095   2.834
71583W        W35516  29.999  40.964  10.450
71584W        W35517   8.877  15.166  12.345
71585W        W35518  14.190  26.193   1.281
71586W        W35519  12.124  28.152  11.511
71587W        W35520  31.477  30.018  13.991
71588W        W35521  24.638   2.338   1.268
71589W        W35522  21.711  36.401   3.216
71590W        W35523  19.641  34.580   2.893
71591W        W35524  18.572  36.951   1.925
71592W        W35525   0.435  43.828  11.060
71593W        W35526  43.925  35.549  12.569
71594W        W35527  30.047  25.977  14.021
71595W        W35528  21.756  41.382   4.323
71596W        W35529  27.461  31.941  13.960
71597W        W35530  27.034   6.708   3.377
71598W        W35531  19.739  23.727   3.657
71599W        W35532   7.410  38.389   1.440
71600W        W35533  22.661  43.282  14.450
71601W        W35534  13.330   1.332   1.703
71602W        W35535  40.803  16.308  11.022
71603W        W35536  19.621   1.930   1.222
71604W        W35537   3.810  21.609   1.835
71605W        W35538  31.146  44.917  13.985
71606W        W35539  37.382  12.261   4.796
71607W        W35540  27.148  35.413  13.950
71608W        W35541  40.445   9.660   0.880
71609W        W35542  41.388   5.921   1.406
71610W        W35543  10.285  23.056   3.308
71611W        W35544   1.808   0.768   3.321
71612W        W35545  15.685  42.281   5.087
71613W        W35546  25.964  20.261  14.791
71614W        W35547  31.477   5.708   1.324
71615W        W35548  35.528  38.436  13.936
71616W        W35549   9.765  29.998   4.282
71617W        W35550  39.407  26.976   1.862
71618W        W35551  26.001  41.797  10.137
71619W        W35552  18.678  28.517  11.478
71620W        W35553  44.337  18.253   0.732
71621W        W35554  37.957  42.931   0.424
71622W        W35555   6.308  35.104   4.659
71623W        W35556  36.957  32.912   2.812
71624W        W35557  15.189  22.019  12.463
71625W        W35558  42.958  44.855   0.260
71626W        W35559   3.795  32.455  14.852
71627W        W35560  20.219  12.806  12.529
71628W        W35561  14.763  24.099  14.360
71629W        W35562  17.098  16.749   5.714
71630W        W35563  21.648  23.006   4.704
71631W        W35564  13.780  40.430   0.335
71632W        W35565  22.596  31.606  10.542
71633W        W35566  18.635  29.508   2.767
71634W        W35567   8.856  13.211  12.410
71635W        W35568   7.294  16.576  13.851
71636W        W35569   0.809  10.727  14.826
71637W        W35570   0.865   0.292  13.336
71638W        W35571  40.805  39.909   2.841
71639W        W35572   7.759  32.448   1.257
71640W        W35573  39.061  33.895  14.337
71641W        W35574   2.746  27.530   3.225
71642W        W35575  21.226  30.996   0.446
71643W        W35576  33.489  20.586  10.055
71644W        W35577  18.568  35.923  13.546
71645W        W35578  44.407  19.540  13.352
71646W        W35579  27.006  15.244   2.213
71647W        W35580  14.786   5.195   4.720
71648W        W35581  14.318   0.460   1.807
71649W        W35582   5.206  18.589   2.681
71650W        W35583  26.064   2.422   3.177
71651W        W35584  22.706  23.511   0.324
71652W        W35585   9.861  16.605   2.888
71653W        W35586  33.071   7.310   2.277
71654W        W35587   3.280  10.250   4.244
71655W        W35588  14.709   5.333  12.861
71656W        W35589  36.888   6.809  12.949
71657W        W35590  29.096  32.968   3.197
71658W        W35591  12.746  29.995  12.352
71659W        W35592   3.917  25.041  11.088
71660W        W35593  22.007   1.378   0.775
71661W        W35594  38.423  34.971   3.791
71662W        W35595  36.450   4.889   3.770
71663W        W35596   0.796  26.183  13.889
71664W        W35597  18.760   7.235   4.617
71665W        W35598  20.246  25.616   1.802
71666W        W35599  44.837  23.683   4.245
71667W        W35600  24.128  17.219   2.903
71668W        W35601  35.458  19.222   4.644
71669W        W35602  26.486  44.000  11.596
71670W        W35603  38.075   1.401  12.473
71671W        W35604  35.448  23.558  10.457
71672W        W35605  19.707  43.987   0.417
71673W        W35606  42.440  31.138  14.781
71674W        W35607  31.040  39.033  11.051
71675W        W35608  24.073  16.812  14.356
71676W        W35609  10.754  33.516   0.942
71677W        W35610  35.914   2.294   5.289
71678W        W35611  37.927  10.278   3.268
71679W        W35612  42.944   9.312   2.320
71680W        W35613   8.697  19.156  12.982
71681W        W35614  31.148  23.102  10.926
71682W        W35615  33.566   9.830  13.055
71683W        W35616  29.066  41.858   0.840
71684W        W35617  25.181  28.067   2.732
71685W        W35618   2.777   4.907  12.562
71686W        W35619   8.674  36.361  10.563
71687W        W35620  38.476   4.424   4.115
71688W        W35621  17.763  31.033   1.802
71689W        W35622  40.989  12.127   1.869
71690W        W35623  25.533  43.861  11.375
71691W        W35624  24.698  27.451  14.373
71692W        W35625  12.321  30.432  14.944
71693W        W35626  18.676  37.466   2.307
71694W        W35627  34.372  32.537   2.815
71695W        W35628  26.999  19.215  13.045
71696W        W35629  12.676  39.410  13.345
71697W        W35630  25.512   3.939   2.858
71698W        W35631   2.819   6.726   3.648
71699W        W35632   3.948  20.250   2.344
71700W        W35633  24.038   9.700   0.274
71701W        W35634  13.747  19.601   4.635
71702W        W35635  18.578  30.952   1.310
71703W        W35636   6.197  10.294   1.395
71704W        W35637  23.237  33.476   4.126
71705W        W35638  16.620   9.375   9.541
71706W        W35639  15.190  27.052   1.731
71707W        W35640  12.789  38.419   2.349
71708W        W35641  25.493  31.066   4.806
71709W        W35642  11.255  16.258   2.886
71710W        W35643   3.748   1.298  12.067
71711W        W35644   6.316   0.839  11.479
71712W        W35645  33.968  31.497  13.532
71713W        W35646  44.944  24.119  10.411
71714W        W35647  18.638  43.837   3.776
71715W        W35648  39.330  43.363  10.524
71716W        W35649  38.916  43.328  14.819
71717W        W35650   7.343  24.495   4.172
71718W        W35651  16.260  14.144  14.795
71719W        W35652  15.302  28.961   1.728
71720W        W35653  10.150  19.201  13.818
71721W        W35654   7.732  37.405  12.837
71722W        W35655  42.488  18.266   3.768
71723W        W35656   2.299  28.070  10.067
71724W        W35657  32.437  38.396   0.338
71725W        W35658  23.056  30.431   4.300
71726W        W35659  18.079  31.488   0.295
71727W        W35660  44.837  44.439   2.391
71728W        W35661  10.702  17.121  11.029
71729W        W35662   7.711  34.562  11.051
71730W        W35663  12.184   6.900   2.737
71731W        W35664  40.041  29.568  12.872
71732W        W35665  29.485  15.626   0.326
71733W        W35666  35.081  27.669  13.390
71734W        W35667  24.997  16.275   0.349
71735W        W35668   5.919  27.576   2.181
71736W        W35669   7.391   9.347   0.279
71737W        W35670  10.252  22.637  14.330
71738W        W35671   4.783   8.762   1.431
71739W        W35672  11.158  33.955   4.702
71740W        W35673  37.011   8.856   2.771
71741W        W35674  44.945   6.288  14.790
71742W        W35675  41.873  30.549  13.986
71743W        W35676  41.296   7.830   0.827
71744W        W35677  40.500   6.414  14.877
71745W        W35678  10.662  16.634   0.411
71746W        W35679  28.598  42.963   1.804
71747W        W35680  14.734  23.001  12.487
71748W        W35681  17.206   3.948  14.775
71749W        W35682  15.791  33.570   2.406
71750W        W35683  25.104   8.780   5.153
71751W        W35684   8.677  27.491   0.919
71752W        W35685  31.559  22.624   0.462
71753W        W35686  40.879  11.325   0.883
71754W        W35687  27.591  18.284   4.314
71755W        W35688  41.483  25.478   1.921
71756W        W35689  35.878   3.255  10.944
71757W        W35690   0.402  23.062  14.920
71758W        W35691   4.764   0.360   3.762
71759W        W35692  13.334  42.487  12.003
71760W        W35693  44.477  14.296  11.555
71761W        W35694  17.626   8.277  10.467
71762W        W35695  14.630  30.439  12.533
71763W        W35696   3.219   0.318  12.566
71764W        W35697  21.705  34.592   5.211
71765W        W35698  26.000  30.421  10.915
71766W        W35699   4.274  41.922   2.815
71767W        W35700  24.506  28.620  12.528
71768W        W35701  12.188  41.352  12.357
71769W        W35702   9.375   1.483  10.570
71770W        W35703   1.439  27.519   3.217
71771W        W35704  19.620  32.490   1.272
71772W        W35705   0.810  39.475   3.867
71773W        W35706  37.548  38.866   3.313
71774W        W35707  39.841  22.157   2.397
71775W        W35708  19.666  38.934   3.810
71776W        W35709  34.538  29.523  11.391
71777W        W35710  28.449   0.841   2.219
71778W        W35711   8.335   3.353  12.853
71779W        W35712   5.822  14.250  11.909
71780W        W35713  44.926   2.915  13.048
71781W        W35714  12.626  22.211   0.845
71782W        W35715   7.845  39.848   4.668
71783W        W35716  18.663  38.369  11.050
71784W        W35717  29.588  39.426   4.762
71785W        W35718  36.017  13.719   4.661
71786W        W35719  17.640  39.909  14.890
71787W        W35720  44.419  32.581  10.626
71788W        W35721   0.370  23.025  10.894
71789W        W35722  17.726  12.707   3.673
71790W        W35723   9.824  35.960   3.781
71791W        W35724  10.632  33.954  14.374
71792W        W35725   8.254  42.030   0.771
71793W        W35726   7.376  36.581  12.365
71794W        W35727   1.970  23.583   4.621
71795W        W35728  29.661  20.528  13.351
71796W        W35729  34.021  30.613   4.222
71797W        W35730   9.355  41.523   5.204
71798W        W35731  20.254   9.375   1.725
71799W        W35732  31.488  10.207  11.418
71800W        W35733  43.440   2.773  14.291
71801W        W35734  18.552  17.258  10.967
71802W        W35735   3.946  36.873   3.709
71803W        W35736  38.521  24.526   3.347
71804W        W35737  30.939   4.232  13.399
71805W        W35738  23.157  38.061  13.853
71806W        W35739  32.479  25.510  14.763
71807W        W35740  32.490  28.091   3.719
71808W        W35741  43.429  44.799  13.408
71809W        W35742  36.006  42.507   2.837
71810W        W35743  33.523  30.464  11.565
71811W        W35744  15.784  22.646   2.736
71812W        W35745  11.143  29.486   3.759
71813W        W35746  33.384  10.868  14.802
71814W        W35747   4.828  31.000  12.089
71815W        W35748  26.051  29.073   3.837
71816W        W35749  40.834  39.540   5.755
71817W        W35750  24.542   8.840  11.889
71818W        W35751  12.616   9.185  10.898
71819W        W35752  12.827  32.577  13.416
71820W        W35753  20.710  26.090   4.323
71821W        W35754  20.764  32.920   4.327
71822W        W35755  29.060   8.704   3.319
71823W        W35756  28.174  26.995   0.256
71824W        W35757  19.039  17.559   4.277
71825W        W35758  34.896  44.280  11.380
71826W        W35759  17.218   6.391  13.809
71827W        W35760  27.082  18.665  12.864
71828W        W35761  16.674  44.978  12.400
71829W        W35762  44.369  24.099  12.360
71830W        W35763   5.788  24.093   3.655
71831W        W35764   0.944  15.612  13.054
71832W        W35765  32.474  24.659   3.751
71833W        W35766  20.661   1.410  14.862
71834W        W35767  17.149  43.486   1.831
71835W        W35768  23.116  21.587  11.423
71836W        W35769  17.778  43.396  14.845
71837W        W35770   4.269  31.007   3.355
71838W        W35771  41.838  21.668   1.432
71839W        W35772  40.486  20.224   0.419
71840W        W35773  36.454  11.233   1.863
71841W        W35774  24.024   4.375   3.717
71842W        W35775   1.892  14.261   1.885
71843W        W35776   7.766  32.109  11.423
71844W        W35777   2.830  42.968   0.404
71845W        W35778  37.552  38.332  10.905
71846W        W35779   1.423   0.925  12.362
71847W        W35780  19.608   6.255   0.829
71848W        W35781  11.699  25.150   1.908
71849W        W35782  25.559  32.990   4.715
71850W        W35783  23.027  39.431   0.832
71851W        W35784   6.682  38.453   1.922
71852W        W35785   2.325   7.201  13.522
71853W        W35786  24.019  42.881   2.811
71854W        W35787  26.182   2.454  14.937
71855W        W35788  42.885   8.736   4.167
71856W        W35789  19.189  28.551   3.295
71857W        W35790  19.117  24.000   0.427
71858W        W35791   6.340  19.635  14.373
71859W        W35792  24.512  14.286  12.094
71860W        W35793  27.111  26.102  14.321
71861W        W35794   2.780  23.568  11.433
71862W        W35795  19.223  21.222   4.698
71863W        W35796  17.104   1.365  10.044
71864W        W35797  34.421   1.365   2.257
71865W        W35798   4.804  32.048   0.329
71866W        W35799  43.464  35.867   4.298
71867W        W35800   3.336  11.638   0.823
71868W        W35801  36.962  39.963  10.620
71869W        W35802  44.994   9.369  11.928
71870W        W35803  29.441  18.070   0.895
71871W        W35804  24.188  25.003   5.216
71872W        W35805  33.126  26.037   2.382
71873W        W35806   9.665  12.674   4.663
71874W        W35807  37.042  18.608  13.927
71875W        W35808  42.322  28.551  14.503
71876W        W35809  35.870  42.418  10.452
71877W        W35810  39.352  31.553  14.927
71878W        W35811  22.530  33.555   2.754
71879W        W35812   2.410  39.023  13.499
71880W        W35813  27.115  12.169  13.858
71881W        W35814  21.636  19.543  12.410
71882W        W35815   2.360  10.718  14.889
71883W        W35816  38.414  41.913   0.268
71884W        W35817  11.628  23.693  13.379
71885W        W35818  14.109  18.134   0.436
71886W        W35819  44.407  34.427  12.482
71887W        W35820   3.319   4.430   1.361
71888W        W35821  14.098  43.403   0.935
71889W        W35822  34.535  15.659   2.817
71890W        W35823  24.566  12.733   3.812
71891W        W35824  39.010  13.626  10.491
71892W        W35825  39.324  19.131  12.579
71893W        W35826  20.212  17.672  12.429
71894W        W35827  12.314  34.508  10.959
71895W        W35828   5.288  39.343  11.855
71896W        W35829   1.966   0.808   0.791
71897W        W35830  13.272   4.430   0.933
71898W        W35831  13.837  44.484  12.072
71899W        W35832   8.724  20.688   4.266
71900W        W35833  29.100  44.327   0.403
71901W        W35834  38.997   7.771   1.315
71902W        W35835   3.781  20.158   0.282
71903W        W35836  25.475  16.133   1.336
71904W        W35837   8.784  39.820  11.090
71905W        W35838   2.774  25.577   4.730
71906W        W35839  41.010  42.457   4.190
71907W        W35840  31.606  32.408   0.323
71908W        W35841   0.940  37.427  11.593
71909W        W35842  39.503  41.038   4.200
71910W        W35843  13.331  14.756   2.285
71911W        W35844  27.485  22.164  13.041
71912W        W35845  14.171  36.405  11.487
71913W        W35846  43.883  27.166   0.937
71914W        W35847  39.322   5.268  11.951
71915W        W35848   5.809  37.991  11.610
71916W        W35849  28.932   3.244   3.336
71917W        W35850   3.234  23.494   2.692
71918W        W35851   6.214  14.223   4.807
71919W        W35852  40.862  12.642  11.548
71920W        W35853  36.566  25.057   3.312
71921W        W35854  33.425   2.463   2.361
71922W        W35855  29.426  22.680   3.662
71923W        W35856  19.041  35.013  12.950
71924W        W35857  40.046  38.505  13.883
71925W        W35858   3.282  41.527   2.847
71926W        W35859  43.392  42.998   0.390
71927W        W35860  40.849  42.935   3.829
71928W        W35861  34.515  22.101  13.798
71929W        W35862  23.649   2.295  13.487
71930W        W35863  19.628   8.785  14.770
71931W        W35864  10.341   4.809  12.044
71932W        W35865  29.449  32.090  14.312
71933W        W35866  26.657  16.201   4.156
71934W        W35867  42.403  25.508   1.916
71935W        W35868   9.204  37.904  13.960
71936W        W35869   0.750  15.147  14.440
71937W        W35870  43.397   8.371  12.027
71938W        W35871   9.362   6.312  13.471
71939W        W35872  24.198  10.870  13.908
71940W        W35873  38.041   6.693   3.296
71941W        W35874  37.935  16.221   3.750
71942W        W35875  15.643   2.925  13.916
71943W        W35876   1.874  12.187   2.369
71944W        W35877  41.492   2.746   2.286
71945W        W35878  23.627  13.725   0.789
71946W        W35879  30.619  44.902   0.372
71947W        W35880   3.392  32.393  11.881
71948W        W35881  44.911   2.885   2.817
71949W        W35882  34.935   2.446  14.804
71950W        W35883  15.810  24.042   5.169
71951W        W35884  14.789  37.527  13.943
71952W        W35885  14.827  40.031   4.151
71953W        W35886   2.296   7.244   5.299
71954W        W35887  44.819  32.052   0.791
71955W        W35888  23.063  35.449   0.475
71956W        W35889   7.843  13.637  11.933
71957W        W35890  33.446  26.193   1.304
71958W        W35891  18.676  10.678   2.299
71959W        W35892  35.980  32.123   4.223
71960W        W35893  34.588  32.984  14.447
71961W        W35894  22.550  41.912  13.864
71962W        W35895   7.744   3.409   3.772
71963W        W35896  34.975  16.224  14.833
71964W        W35897   0.896  35.475  13.535
71965W        W35898   1.969  36.385  14.812
71966W        W35899  29.941   2.927  11.066
71967W        W35900  15.805  10.326   1.903
71968W        W35901  31.647   3.327  13.850
71969W        W35902  38.533  40.507  13.001
71970W        W35903  20.189  13.789   2.744
71971W        W35904   6.423  29.659   1.318
71972W        W35905  17.251   6.778  14.322
71973W        W35906  38.491   3.286   4.819
71974W        W35907  21.040   9.362   3.264
71975W        W35908  35.041  24.178  12.369
71976W        W35909   2.422  11.225  13.530
71977W        W35910  43.905   4.855  10.455
71978W        W35911  13.181  34.892  13.350
71979W        W35912   6.421  39.377  12.078
71980W        W35913  13.771  12.197  13.420
71981W        W35914   7.236   6.425  12.024
71982W        W35915  30.443  11.325  10.975
71983W        W35916  25.601  41.825   3.751
71984W        W35917   6.281  22.693   2.878
71985W        W35918  23.992  15.588  14.485
71986W        W35919  24.161  39.412   0.729
71987W        W35920  34.535   0.344   3.761
71988W        W35921  43.417  11.642  11.412
71989W        W35922   8.694  31.948  14.506
71990W        W35923  15.664   6.838   3.295
71991W        W35924  32.413  44.459  14.957
71992W        W35925  25.706  13.213   2.682
71993W        W35926  15.274  22.239  12.901
71994W        W35927  23.699  36.491  12.906
71995W        W35928  26.474  14.690   0.770
71996W        W35929  40.838  16.126   2.828
71997W        W35930   8.242  43.925   4.711
71998W        W35931  36.519   2.413  11.557
71999W        W35932   1.344  34.119  14.980
72000W        W35933  14.727   3.280  13.438
72001W        W35934  40.447  29.943  14.851
72002W        W35935  24.708  42.885   9.942
72003W        W35936   6.261  19.670  11.066
72004W        W35937   2.279   4.400   0.448
72005W        W35938   4.301  28.158  11.512
72006W        W35939  40.946  24.088  12.467
72007W        W35940   2.745  15.166  12.865
72008W        W35941   3.844  34.564  10.485
72009W        W35942  29.465  10.165  13.387
72010W        W35943  26.607  30.514   0.767
72011W        W35944   6.683  10.706  12.450
72012W        W35945  25.592   2.459   1.844
72013W        W35946  32.541  38.926   0.359
72014W        W35947  23.715   8.711  12.840
72015W        W35948  38.345   5.808  14.839
72016W        W35949  27.493  23.155  14.899
72017W        W35950  25.212   5.266   0.464
72018W        W35951  32.615  41.450  10.962
72019W        W35952  44.390   4.241   1.906
72020W        W35953  14.618  10.856  11.547
72021W        W35954   0.816  16.800  13.435
72022W        W35955  19.166  17.186  13.872
72023W        W35956   2.951  31.484  10.982
72024W        W35957  37.546  29.057   0.850
72025W        W35958  17.132  23.105   2.407
72026W        W35959   6.202   1.246  11.606
72027W        W35960  37.948   7.805  10.580
72028W        W35961  32.069  30.652  14.459
72029W        W35962   7.332  26.557   4.607
72030W        W35963  25.069  31.627  13.034
72031W        W35964  39.004  10.694   1.762
72032W        W35965  41.519  15.319  10.546
72033W        W35966  15.153  35.506   1.429
72034W        W35967   4.779  21.136  11.071
72035W        W35968  35.514  31.571  11.119
72036W        W35969  37.391  12.616   3.332
72037W        W35970  22.641  26.619   1.314
72038W        W35971   1.974   9.721  14.442
72039W        W35972  20.149  21.561  13.916
72040W        W35973  42.001  10.668  13.459
72041W        W35974  34.475   0.923   1.721
72042W        W35975  31.147  21.165  11.877
72043W        W35976  16.286  11.200   1.355
72044W        W35977   9.337  30.428   2.310
72045W        W35978   6.310  38.935  13.921
72046W        W35979  37.363   3.793  14.915
72047W        W35980  28.079  35.013  14.460
72048W        W35981  34.911   3.396  10.951
72049W        W35982  11.662   8.308   4.802
72050W        W35983  31.406  28.623  11.042
72051W        W35984   1.364  31.903  12.527
72052W        W35985  20.083  15.719  13.901
72053W        W35986  22.733  28.571   0.438
72054W        W35987  34.957   8.658   5.103
72055W        W35988  32.958   7.812   3.159
72056W        W35989  11.721   4.388  11.102
72057W        W35990  43.270  29.945   4.258
72058W        W35991  27.668  23.151   0.449
72059W        W35992  42.884   7.351   4.269
72060W        W35993  36.504   6.804  14.487
72061W        W35994   4.872  38.329  12.867
72062W        W35995  42.377  13.748   4.730
72063W        W35996   5.375  13.298  12.548
72064W        W35997  34.968  22.638   3.205
72065W        W35998   2.357   2.892   2.348
72066W        W35999  27.038   0.463   3.659
72067W        W36000   0.964   7.198   3.775
72068W        W36001  36.038  38.552   0.421
72069W        W36002  40.827   7.279  14.929
72070W        W36003  10.807  13.751   1.449
72071W        W36004  22.111  29.643  14.893
72072W        W36005  23.728   0.264   0.318
72073W        W36006  29.458  44.292  14.359
72074W        W36007  29.975  17.640   1.765
72075W        W36008  18.141  19.768   0.773
72076W        W36009  16.246  21.534   3.208
72077W        W36010  28.017   5.871   3.371
72078W        W36011   9.194  29.074  14.510
72079W        W36012   2.945  34.865  11.989
72080W        W36013   3.769  13.744  14.775
72081W        W36014  22.507  18.742  11.931
72082W        W36015   9.688  13.769   3.328
72083W        W36016  26.627  20.123  13.052
72084W        W36017  38.480  19.203   3.237
72085W        W36018  19.130  41.338   0.481
72086W        W36019   2.278   3.792  14.400
72087W        W36020  34.455   6.686   0.748
72088W        W36021  13.137   9.235   2.827
72089W        W36022   6.896  38.905   4.735
72090W        W36023   0.492  43.478   3.267
72091W        W36024  10.222  23.572  10.644
72092W        W36025  19.219  24.038  13.010
72093W        W36026  14.627  41.816  13.513
72094W        W36027  33.516  24.203   3.174
72095W        W36028  11.288   2.289  13.992
72096W        W36029  29.549  43.322  13.953
72097W        W36030   1.859  37.455  11.442
72098W        W36031  40.024  34.041   1.362
72099W        W36032   7.688  26.203   3.699
72100W        W36033  23.720  25.627   3.178
72101W        W36034  28.033  12.324   2.366
72102W        W36035  38.923  14.232  14.821
72103W        W36036  19.086  27.963   2.269
72104W        W36037  34.869  25.074   0.453
72105W        W36038  10.641  40.798  11.085
72106W        W36039  16.594   0.486  10.931
72107W        W36040   7.377  39.052   4.261
72108W        W36041  27.480   4.859  12.074
72109W        W36042  33.972  32.950   0.732
72110W        W36043   7.322  31.012   0.431
72111W        W36044   6.759   7.285  13.882
72112W        W36045  34.500   7.891  14.493
72113W        W36046   1.736  37.370   4.685
72114W        W36047  15.766  22.157   1.703
72115W        W36048  22.122  42.796  10.489
72116W        W36049  34.381  12.316  12.481
72117W        W36050  44.493  44.286   0.453
72118W        W36051  19.158  15.224  10.998
72119W        W36052   1.333  14.135  11.864
72120W        W36053  35.444   9.665  11.100
72121W        W36054  23.054   0.356  13.982
72122W        W36055  34.889   8.866   0.307
72123W        W36056  41.929  20.084  14.357
72124W        W36057  35.491  26.063   4.156
72125W        W36058  28.463  34.111  13.363
72126W        W36059  30.025   1.424   1.448
72127W        W36060  29.120  24.977  11.433
72128W        W36061  32.523  13.148  13.339
72129W        W36062   0.751  24.528  10.551
72130W        W36063   6.714   5.394  10.107
72131W        W36064  37.038  10.259  13.902
72132W        W36065  18.726  29.167  12.864
72133W        W36066  42.944   3.421  11.990
72134W        W36067  37.478  13.651  14.408
72135W        W36068  44.766  12.828   4.177
72136W        W36069  32.912  25.675  10.563
72137W        W36070   2.756  31.538  13.811
72138W        W36071   2.744   3.225  12.838
72139W        W36072  31.472   5.815   3.227
72140W        W36073  14.611  41.001   2.729
72141W        W36074  14.317  13.271   2.236
72142W        W36075  26.479  22.061  10.003
72143W        W36076  39.944   3.873   2.225
72144W        W36077  23.113  34.455  11.035
72145W        W36078   7.205  19.113  12.946
72146W        W36079  26.046  23.717   2.885
72147W        W36080  17.249   2.240  13.377
72148W        W36081   7.715  26.194  13.941
72149W        W36082  28.602  16.573   1.864
72150W        W36083  22.134  18.784   0.913
72151W        W36084  38.478   4.701   3.371
72152W        W36085  36.990  37.388  11.538
72153W        W36086  40.333  22.714  12.547
72154W        W36087   6.694  11.318   0.458
72155W        W36088   1.394   5.379   3.721
72156W        W36089  35.375  33.935   3.643
72157W        W36090  14.600  42.948   3.258
72158W        W36091  26.180  19.254   4.636
72159W        W36092  25.650  20.047   4.696
72160W        W36093  16.740  22.201  12.349
72161W        W36094  25.473  21.547   2.237
72162W        W36095  17.151  34.582  14.818
72163W        W36096  41.412  40.509  10.523
72164W        W36097   3.401  33.068  12.486
72165W        W36098  18.128   9.170  14.343
72166W        W36099   0.411   7.359   4.655
72167W        W36100  28.955   5.771   1.259
72168W        W36101  35.540   9.868  14.812
72169W        W36102   0.850  28.017  14.768
72170W        W36103   5.715  13.333   4.280
72171W        W36104  17.584  37.578   1.273
72172W        W36105  12.784  22.571   4.353
72173W        W36106  25.613  16.780   0.391
72174W        W36107  20.183  27.638  14.296
72175W        W36108   3.843  33.933   4.775
72176W        W36109   9.723   0.275   2.851
72177W        W36110  28.445   2.315  11.126
72178W        W36111  27.953  31.027   1.310
72179W        W36112  39.554  18.671  14.023
72180W        W36113  35.075  29.081  10.526
72181W        W36114  11.707  31.025  14.832
72182W        W36115  43.796  31.963   4.751
72183W        W36116  32.616  23.027  12.009
72184W        W36117   7.717  13.165   3.832
72185W        W36118  19.570   3.793  12.938
72186W        W36119  22.616  25.680  12.933
72187W        W36120  22.588  18.218   0.897
72188W        W36121  27.445   0.478   5.275
72189W        W36122   7.840  34.988  12.448
72190W        W36123  41.918  35.595  11.958
72191W        W36124  15.586   9.741   4.657
72192W        W36125  36.589  41.467  12.427
72193W        W36126  41.465  20.588   2.785
72194W        W36127  21.106  22.106  10.643
72195W        W36128   5.267   0.460   4.662
72196W        W36129  42.943   1.352   3.800
72197W        W36130  36.849   6.797   0.763
72198W        W36131   7.796   7.355  14.288
72199W        W36132  34.535   0.881  12.372
72200W        W36133  11.754  18.745  10.042
72201W        W36134  14.201  26.486  11.547
72202W        W36135  35.972  27.101   0.883
72203W        W36136  21.047  24.979   2.316
72204W        W36137  23.735  39.343  11.437
72205W        W36138   0.302  36.441  14.936
72206W        W36139   5.288  22.017  10.495
72207W        W36140   6.802  26.524   2.312
72208W        W36141   0.364   7.393  11.462
72209W        W36142  27.660  40.420  13.880
72210W        W36143   1.330  20.744   2.334
72211W        W36144  20.613  43.331   2.209
72212W        W36145  39.525  19.754   4.157
72213W        W36146  20.165  24.563   9.921
72214W        W36147  38.937  31.980   0.337
72215W        W36148  41.990  21.085   4.181
72216W        W36149  38.969  39.039   5.250
72217W        W36150  20.689   8.164  11.408
72218W        W36151  35.553  11.180  12.972
72219W        W36152  30.949  19.253   4.614
72220W        W36153   0.364  44.456   3.206
72221W        W36154   0.952   3.848   0.778
72222W        W36155  11.812  27.068   3.858
72223W        W36156  15.166  26.534   2.710
72224W        W36157   9.275  27.494  14.851
72225W        W36158  18.295   5.864  12.898
72226W        W36159  36.085   4.421   3.313
72227W        W36160  31.943  34.576   4.251
72228W        W36161  44.991  16.140   3.699
72229W        W36162  16.591  36.846  12.944
72230W        W36163  28.966  26.159   1.705
72231W        W36164  32.443  26.480  10.899
72232W        W36165   2.462  19.114   0.930
72233W        W36166  24.981  19.244   2.283
72234W        W36167   0.450  40.917  10.445
72235W        W36168  12.717   1.920   3.322
72236W        W36169   5.244  32.395   2.676
72237W        W36170  13.290  29.083   3.181
72238W        W36171  15.235  18.239  13.328
72239W        W36172  27.554  38.951   2.358
72240W        W36173  24.054  40.962  13.948
72241W        W36174  40.347  19.735   4.599
72242W        W36175  15.596  39.025  14.380
72243W        W36176  22.723  35.852   1.315
72244W        W36177   1.279  21.083  13.970
72245W        W36178  27.157  20.149   3.845
72246W        W36179   7.217  22.248   5.139
72247W        W36180  27.022  42.436  10.889
72248W        W36181   5.251  36.988   1.834
72249W        W36182  11.798  38.066  11.074
72250W        W36183  18.157  33.459   4.724
72251W        W36184  22.209  17.108   3.168
72252W        W36185   6.758  41.041  12.096
72253W        W36186   4.280  24.036  14.494
72254W        W36187  18.144  29.549  13.354
72255W        W36188  32.914  31.430   0.855
72256W        W36189   2.299  22.629   4.601
72257W        W36190  17.692  33.961  11.002
72258W        W36191  43.407  13.665  10.470
72259W        W36192  41.482  17.105  13.816
72260W        W36193  40.001  31.001  14.462
72261W        W36194  30.540  31.505   3.765
72262W        W36195   5.879  31.413   4.739
72263W        W36196  18.133  39.912  13.317
72264W        W36197  22.670   4.337  12.044
72265W        W36198  44.942   8.833  11.553
72266W        W36199  10.805  28.048  14.316
72267W        W36200   5.880  14.613  12.027
72268W        W36201   9.764  30.444   1.890
72269W        W36202  34.047  28.929  12.971
72270W        W36203  20.140  44.950   1.310
72271W        W36204   9.672   4.351  13.929
72272W        W36205  19.094  12.149   2.193
72273W        W36206  44.464  20.208  14.977
72274W        W36207  28.004  42.524   0.318
72275W        W36208   4.315  29.629  10.483
72276W        W36209  18.286  36.960   1.317
72277W        W36210  42.432  10.699   2.670
72278W        W36211   2.456  40.466  13.046
72279W        W36212  12.227  37.497  13.967
72280W        W36213  11.850  26.032  11.506
72281W        W36214   1.383  15.727  12.886
72282W        W36215   5.832  43.418  13.952
72283W        W36216  42.020   6.189  13.009
72284W        W36217  17.143  36.522  14.391
72285W        W36218   4.407  27.162  12.885
72286W        W36219  39.892  17.262   4.294
72287W        W36220  22.579  19.072   1.775
72288W        W36221  36.524  43.299  11.037
72289W        W36222  16.745  28.150  14.829
72290W        W36223   8.366  36.406   1.854
72291W        W36224  27.968  12.244  14.833
72292W        W36225   2.226  32.635   2.768
72293W        W36226  13.152  14.608   4.192
72294W        W36227  16.681  40.394   0.883
72295W        W36228   0.953  25.570  13.350
72296W        W36229  41.375   3.738   0.461
72297W        W36230  21.684  30.927  10.988
72298W        W36231  13.644  14.267  14.801
72299W        W36232  12.152  14.135  13.931
72300W        W36233  25.520  28.098   5.209
72301W        W36234   7.337  21.057  13.000
72302W        W36235  32.943  20.533  10.490
72303W        W36236  33.403  39.469   2.293
72304W        W36237  29.036  41.985   0.317
72305W        W36238   6.762  19.638   3.750
72306W        W36239  12.157  30.470   1.430
72307W        W36240   6.407  41.376   4.735
72308W        W36241   8.204  28.008   2.398
72309W        W36242  42.982  21.149  13.792
72310W        W36243  19.714  20.226   2.826
72311W        W36244   6.890  36.501  11.861
72312W        W36245  22.659  33.416   2.198
72313W        W36246  21.086  26.208  14.977
72314W        W36247  40.434  40.878  11.041
72315W        W36248   2.268  41.853   4.740
72316W        W36249  28.625  20.691   2.708
72317W        W36250  11.270  17.672  10.522
72318W        W36251  31.943  11.213  10.925
72319W        W36252  21.078  20.686  14.434
72320W        W36253   4.407  36.397   3.330
72321W        W36254  32.584   7.258  12.384
72322W        W36255  26.604  26.106   1.855
72323W        W36256  15.760  31.479   0.939
72324W        W36257  18.207   0.287  12.892
72325W        W36258   8.183  39.546   0.902
72326W        W36259   5.745  39.498  13.817
72327W        W36260   2.862  30.640   1.243
72328W        W36261  29.581  37.444   2.763
72329W        W36262  33.949  13.762   0.926
72330W        W36263   4.723  42.987   4.764
72331W        W36264   3.882  21.152  11.417
72332W        W36265  25.070   7.338  13.846
72333W        W36266  31.128   9.852   0.936
72334W        W36267  20.147  19.754   0.733
72335W        W36268  39.541  12.630   2.228
72336W        W36269   1.251  30.613   1.214
72337W        W36270  18.712   4.703   1.324
72338W        W36271   6.700   5.912   0.919
72339W        W36272  32.564  38.874   1.348
72340W        W36273   7.798  11.715   2.221
72341W        W36274   5.759  12.620   4.252
72342W        W36275  39.856  29.477  10.439
72343W        W36276  27.674  30.968   3.215
72344W        W36277  18.142   4.789  13.415
72345W        W36278  40.859  16.204  12.891
72346W        W36279  26.645  31.603  13.795
72347W        W36280   4.923   8.256   4.764
72348W        W36281  32.627  41.832  13.476
72349W        W36282   8.787  34.488   0.866
72350W        W36283   2.284  34.076  10.412
72351W        W36284   3.420  22.085   2.673
72352W        W36285   0.800  34.044  12.475
72353W        W36286  31.071   9.688   1.248
72354W        W36287   8.236   1.864   2.189
72355W        W36288   9.251   3.343  13.912
72356W        W36289  13.676  20.205   2.757
72357W        W36290  25.616  29.094  14.408
72358W        W36291   5.726  38.393   3.634
72359W        W36292   2.832  43.790  12.945
72360W        W36293  12.761  36.865   3.161
72361W        W36294  16.639  36.588  11.978
72362W        W36295  14.697   1.921  12.442
72363W        W36296   1.817  30.579   1.426
72364W        W36297  39.979  15.262  11.430
72365W        W36298  41.369   0.919   1.291
72366W        W36299  42.789  24.019   1.367
72367W        W36300   1.418  25.025  10.611
72368W        W36301  28.136  29.515   2.347
72369W        W36302  19.575  29.527   3.640
72370W        W36303   5.271  12.816   3.710
72371W        W36304  35.452   8.672   4.775
72372W        W36305  19.570  43.959   2.662
72373W        W36306  41.460  33.589   0.369
72374W        W36307  36.450  17.753   2.413
72375W        W36308  10.875  40.525   3.261
72376W        W36309  11.300  17.582  14.851
72377W        W36310  29.447  39.504  14.817
72378W        W36311  30.041  22.136  14.395
72379W        W36312  44.951  22.643  14.401
72380W        W36313   2.279  25.017  11.095
72381W        W36314  21.641   1.743  10.897
72382W        W36315  33.008   0.922  11.023
72383W        W36316   1.741  39.001  12.900
72384W        W36317  28.625  41.511   1.897
72385W        W36318  22.055  21.695   2.416
72386W        W36319   9.232   0.900   1.245
72387W        W36320  43.867  23.615   0.292
72388W        W36321   6.750  30.454   0.949
72389W        W36322  20.111   5.311  11.509
72390W        W36323  22.702  35.016  14.869
72391W        W36324  13.735   2.916   1.698
72392W        W36325  35.474  38.461  14.381
72393W        W36326  23.698  20.693  13.943
72394W        W36327   1.760  40.027  10.451
72395W        W36328  12.762  29.006  12.579
72396W        W36329  23.009  35.029  11.950
72397W        W36330  43.787  15.781   0.277
72398W        W36331  37.384  34.557  14.817
72399W        W36332  28.007  29.037   2.770
72400W        W36333  19.224  29.000   0.383
72401W        W36334  34.536  44.008  12.964
72402W        W36335  16.149  44.993   2.794
72403W        W36336  24.591  37.492  14.314
72404W        W36337  40.399  35.520  10.405
72405W        W36338  28.144  16.233   2.774
72406W        W36339   8.761  20.587   2.361
72407W        W36340  37.001  35.869   2.688
72408W        W36341   2.920  37.952   2.211
72409W        W36342   3.240  17.684  13.039
72410W        W36343   8.279  17.588  12.503
72411W        W36344   6.697   1.778   2.705
72412W        W36345  36.080  38.036   0.328
72413W        W36346  41.038  35.954  10.156
72414W        W36347  34.053   7.853   1.793
72415W        W36348   2.791  19.770   1.347
72416W        W36349  26.142  37.041  13.378
72417W        W36350  42.416   7.753   2.804
72418W        W36351  38.404  39.373  12.577
72419W        W36352  35.995  14.212   4.262
72420W        W36353  20.680  15.204   1.748
72421W        W36354  14.818  10.671   2.214
72422W        W36355   0.818  28.079   2.397
72423W        W36356  41.992   5.704  11.456
72424W        W36357  27.146  19.710   1.809
72425W        W36358  17.259  26.000  12.923
72426W        W36359  24.570   1.772  12.416
72427W        W36360  33.397   6.748  10.627
72428W        W36361   9.827  25.112  11.047
72429W        W36362  40.897  34.503   0.426
72430W        W36363  35.859   8.344  12.865
72431W        W36364  37.487  34.430  13.331
72432W        W36365  35.963  10.764  14.954
72433W        W36366  20.153  10.195   1.441
72434W        W36367   4.882  10.268  11.610
72435W        W36368   0.743  15.670  13.453
72436W        W36369  40.809  29.640   3.232
72437W        W36370  39.428  33.015  13.046
72438W        W36371  37.925  39.442  13.393
72439W        W36372  31.067  36.850  13.461
72440W        W36373  12.213  31.498  12.455
72441W        W36374   8.394  37.051   2.870
72442W        W36375  22.645   2.416  14.846
72443W        W36376  41.374  28.560  11.011
72444W        W36377   6.394  43.334  12.073
72445W        W36378  40.879  24.598  14.370
72446W        W36379  16.309  22.618   3.341
72447W        W36380  22.627  32.451   4.691
72448W        W36381  20.539  33.906   2.267
72449W        W36382  12.120  24.047  14.348
72450W        W36383  12.783   0.334   2.237
72451W        W36384   4.875  19.071  14.335
72452W        W36385   7.182  32.573   2.385
72453W        W36386  34.902  39.548   3.777
72454W        W36387  10.176   1.285  13.421
72455W        W36388   3.949  31.087  12.988
72456W        W36389  28.936  35.981  12.831
72457W        W36390  14.668   3.370  12.050
72458W        W36391   8.849  15.602   0.953
72459W        W36392  17.213  44.972  11.016
72460W        W36393  23.159  15.638  12.010
72461W        W36394  40.331  39.459   1.722
72462W        W36395  18.167   8.743  11.995
72463W        W36396  33.044  31.625  11.573
72464W        W36397  42.315   1.351  14.950
72465W        W36398   4.768  10.348   4.237
72466W        W36399  26.651   6.684  13.831
72467W        W36400   8.673  15.712   2.676
72468W        W36401  38.383   1.462  11.856
72469W        W36402  31.122  18.203   2.254
72470W        W36403  42.386  17.124   1.215
72471W        W36404  42.312  24.153  14.010
72472W        W36405  21.159  43.365   2.188
72473W        W36406  12.734  40.360  12.379
72474W        W36407  12.171  39.914  12.422
72475W        W36408   1.363   0.396   1.711
72476W        W36409  42.502  25.088  11.090
72477W        W36410   2.436  41.809  11.891
72478W        W36411  20.725   3.752  14.326
72479W        W36412  44.874   6.906  14.830
72480W        W36413  26.695  35.579  14.337
72481W        W36414  20.530  40.957  12.091
72482W        W36415  33.568  22.609   4.784
72483W        W36416  40.522  37.414   3.770
72484W        W36417  43.815   7.257   1.243
72485W        W36418  31.448   7.691   1.390
72486W        W36419  28.992  38.387   2.334
72487W        W36420  39.469  42.973  11.483
72488W        W36421  14.315  32.987  10.553
72489W        W36422  13.798  13.122   3.274
72490W        W36423  29.588  32.468   3.182
72491W        W36424  44.417   4.807  11.862
72492W        W36425  11.834  37.032   4.639
72493W        W36426  14.719  24.142  12.502
72494W        W36427  10.866  10.147   4.661
72495W        W36428  38.063  16.569  12.547
72496W        W36429   8.246  12.234  13.842
72497W        W36430  26.566  27.998  13.484
72498W        W36431  32.422  24.642   2.724
72499W        W36432   8.278  11.814  12.565
72500W        W36433  23.545  11.843   3.246
72501W        W36434   8.289  14.151   2.226
72502W        W36435  34.108  24.030   0.406
72503W        W36436  37.415  38.044  12.067
72504W        W36437  42.452  16.119   2.709
72505W        W36438   0.433  38.472   0.848
72506W        W36439   0.385  36.977   5.749
72507W        W36440   3.433  42.385   4.332
72508W        W36441  19.662  10.160  12.469
72509W        W36442  23.647  24.214  13.539
72510W        W36443  27.533  28.526   3.159
72511W        W36444  35.875   1.319  12.915
72512W        W36445   8.807   6.356   1.428
72513W        W36446  14.649   3.729   3.298
72514W        W36447  42.896  26.991   4.760
72515W        W36448   0.902   3.422  13.836
72516W        W36449  17.602  34.433   3.170
72517W        W36450  42.872   3.873  12.975
72518W        W36451   7.703  28.662  13.862
72519W        W36452  23.683  32.455   0.752
72520W        W36453  27.011  43.993  14.348
72521W        W36454  34.913  27.485  11.880
72522W        W36455  40.033  41.417  14.976
72523W        W36456   1.449  29.099  12.037
72524W        W36457  31.049  22.632   3.307
72525W        W36458  33.530  11.291  11.062
72526W        W36459  37.009  42.480   4.631
72527W        W36460   2.336  22.725   2.900
72528W        W36461   8.841  39.972   3.864
72529W        W36462   4.316  16.201  11.981
72530W        W36463  30.153  31.561  11.416
72531W        W36464   6.301   4.800   2.216
72532W        W36465  43.915   6.800  13.407
72533W        W36466  21.100  15.136  10.619
72534W        W36467  42.016   8.730   3.675
72535W        W36468  41.861   0.401  12.379
72536W        W36469  26.070  41.831   3.312
72537W        W36470  26.152  30.437   4.260
72538W        W36471   2.936  17.664   1.911
72539W        W36472  31.411  21.136   1.440
72540W        W36473  36.929  38.035   2.416
72541W        W36474   3.794  35.487  13.426
72542W        W36475  13.276   2.816   3.164
72543W        W36476  16.658   6.182  13.337
72544W        W36477  31.980   6.350   3.726
72545W        W36478  44.776   2.964   4.731
72546W        W36479   6.400  30.971   2.329
72547W        W36480  38.408  33.541   3.630
72548W        W36481  18.757  39.332  13.430
72549W        W36482  31.030  34.458   1.726
72550W        W36483  37.576  27.481   0.374
72551W        W36484  26.190  22.590  12.035
72552W        W36485  30.587  15.232  10.458
72553W        W36486  25.086  33.528   4.186
72554W        W36487  39.832   2.906  13.440
72555W        W36488   9.663   6.291   4.347
72556W        W36489  33.523  34.061   5.243
72557W        W36490  23.034  17.640   2.248
72558W        W36491  13.267  31.985  14.011
72559W        W36492  25.202  22.105  13.456
72560W        W36493  40.908  35.991   1.831
72561W        W36494   1.362  42.024   4.695
72562W        W36495  38.508  22.610   3.252
72563W        W36496   7.890  39.545  14.895
72564W        W36497  44.373  37.842   3.847
72565W        W36498   6.378  12.275  11.978
72566W        W36499  39.491   2.888  13.954
72567W        W36500  22.094   3.314  10.453
72568W        W36501   2.937  23.096   1.931
72569W        W36502  27.455   3.947  14.426
72570W        W36503   1.462  39.983   4.324
72571W        W36504  17.638  14.283   1.780
72572W        W36505  33.055  23.560  11.107
72573W        W36506  41.001  34.998  13.520
72574W        W36507   8.193  13.665   4.815
72575W        W36508  22.019  37.018   3.203
72576W        W36509  15.631  25.697   1.284
72577W        W36510   5.346  17.119  14.428
72578W        W36511  11.840  19.172  14.364
72579W        W36512  33.580  10.661  10.539
72580W        W36513  16.791  31.622   4.279
72581W        W36514  33.889  24.221   3.687
72582W        W36515  42.292  17.792   4.234
72583W        W36516   0.793  20.749   2.262
72584W        W36517  10.841  36.035  10.632
72585W        W36518   2.866  18.079   1.789
72586W        W36519  44.969   2.453  13.393
72587W        W36520  41.374  21.571   3.823
72588W        W36521   6.919   6.837   4.200
72589W        W36522  43.905  28.105  10.900
72590W        W36523  13.799  32.030  12.970
72591W        W36524  37.574  27.524  14.002
72592W        W36525  24.490  35.585  12.974
72593W        W36526  20.274  30.014  14.766
72594W        W36527  20.668  30.939  13.527
72595W        W36528  38.539  40.864   0.316
72596W        W36529  13.315  21.128   0.285
72597W        W36530   9.350  41.338   1.284
72598W        W36531  13.130  24.718   0.262
72599W        W36532  31.004  32.404  12.033
72600W        W36533  44.362  35.924  13.952
72601W        W36534  43.437   3.309  13.010
72602W        W36535  12.695  23.060   4.326
72603W        W36536  18.760  11.801   2.358
72604W        W36537   7.826   6.326   3.717
72605W        W36538  12.287  21.181  14.479
72606W        W36539  30.565   5.311   4.201
72607W        W36540  36.481  43.821  11.966
72608W        W36541  17.687  27.631  11.996
72609W        W36542  10.301  30.542   0.268
72610W        W36543  19.235  26.607   0.395
72611W        W36544  42.500   6.923  14.409
72612W        W36545   6.883  27.084   5.139
72613W        W36546  19.543  35.951   4.668
72614W        W36547  14.145  23.091  13.418
72615W        W36548   7.667   6.755   1.774
72616W        W36549  27.683  31.036  11.416
72617W        W36550  31.503  44.928   1.439
72618W        W36551  30.499  30.563  13.464
72619W        W36552  34.059  23.102  10.550
72620W        W36553  30.959   7.679   3.845
72621W        W36554   8.206  19.660   2.696
72622W        W36555  41.892  25.975  11.434
72623W        W36556   5.425  11.712   4.649
72624W        W36557  15.214  32.098  14.882
72625W        W36558  33.959  28.012   0.296
72626W        W36559  39.421  15.298  13.916
72627W        W36560   9.818  41.384   0.761
72628W        W36561  26.060  32.937   0.413
72629W        W36562  35.371  40.992   4.133
72630W        W36563  37.357   8.819   2.232
72631W        W36564  44.319   7.911   1.247
72632W        W36565  22.170  21.579  13.918
72633W        W36566  40.857  28.950  12.916
72634W        W36567   5.397  31.472   4.675
72635W        W36568   9.761  40.322   1.450
72636W        W36569  31.457  26.483  12.348
72637W        W36570   9.299   1.812   0.398
72638W        W36571  31.546  33.021  14.018
72639W        W36572   0.426  18.758   3.350
72640W        W36573  10.640  22.237  11.058
72641W        W36574   3.906   5.763  13.467
72642W        W36575  22.183  24.592  10.929
72643W        W36576  38.541  28.538   0.281
72644W        W36577  10.813   9.835   3.229
72645W        W36578   9.724  12.237  12.376
72646W        W36579  28.471  29.448  12.540
72647W        W36580   2.849  15.823  13.904
72648W        W36581   9.371  40.900  12.906
72649W        W36582  33.960   6.349   3.232
72650W        W36583  43.774   5.766  11.014
72651W        W36584  27.537  42.986   1.389
72652W        W36585  27.616  10.840  10.996
72653W        W36586   9.308  11.368  11.593
72654W        W36587  14.788   3.793  12.022
72655W        W36588  35.021   6.239   1.276
72656W        W36589   7.846  39.040   3.305
72657W        W36590  42.957  16.683   9.971
72658W        W36591  43.773  10.149  13.411
72659W        W36592  26.674  41.980   0.366
72660W        W36593  17.284  18.735   3.668
72661W        W36594  19.175  17.586  13.915
72662W        W36595  36.428  33.114  12.013
72663W        W36596  11.675   3.931   1.353
72664W        W36597  22.228  44.394   0.815
72665W        W36598  14.135  19.611   4.119
72666W        W36599   9.809   0.973  12.050
72667W        W36600   0.426   7.848   0.380
72668W        W36601   8.187  35.557  14.484
72669W        W36602  37.441  38.387   3.262
72670W        W36603  32.629  33.070   4.208
72671W        W36604  29.628  44.299  13.984
72672W        W36605  43.003  32.944   0.838
72673W        W36606  15.789   7.795   3.813
72674W        W36607  25.696  15.712  12.448
72675W        W36608  28.086   7.247   4.294
72676W        W36609  34.572  23.183   0.895
72677W        W36610  16.129   4.301   0.931
72678W        W36611  29.627   7.355   3.669
72679W        W36612   4.905  41.915  13.855
72680W        W36613  15.145  35.973   3.164
72681W        W36614  42.406   7.833  13.311
72682W        W36615   6.901  14.795  14.939
72683W        W36616   4.219  33.383  12.498
72684W        W36617  21.552  21.223  13.855
72685W        W36618  18.060  42.005   5.252
72686W        W36619   0.427   1.393   0.318
72687W        W36620   2.382   5.378   2.710
72688W        W36621   8.750  10.156  10.086
72689W        W36622  10.192  41.521   0.942
72690W        W36623  40.312  10.238   0.823
72691W        W36624  22.028  41.844  14.911
72692W        W36625  15.726  23.624   4.280
72693W        W36626   3.307  32.951  10.641
72694W        W36627  42.295  10.722  11.534
72695W        W36628  10.669  38.527  13.406
72696W        W36629  34.459  32.987  14.806
72697W        W36630  30.589  34.044   3.726
72698W        W36631  19.682  15.767   2.860
72699W        W36632  10.138  18.145   0.254
72700W        W36633   2.271  39.437  10.475
72701W        W36634  27.073  31.015  10.495
72702W        W36635  33.530  44.396  12.011
72703W        W36636  26.462   6.905  14.511
72704W        W36637  25.657   2.394  12.844
72705W        W36638  14.716  27.488  13.924
72706W        W36639   5.744  22.518  14.378
72707W        W36640  16.308  15.677   2.330
72708W        W36641  12.749  14.828   2.264
72709W        W36642  22.743  28.441  12.526
72710W        W36643  12.739   7.346   3.185
72711W        W36644  11.182  39.047   0.259
72712W        W36645   0.942  22.549   3.719
72713W        W36646  34.428   7.821   3.215
72714W        W36647  10.767  25.685   1.409
72715W        W36648   8.181  44.852   0.729
72716W        W36649  41.875   8.819   1.214
72717W        W36650   0.879  40.320  13.930
72718W        W36651  12.753  25.126   4.638
72719W        W36652   6.711  31.917   3.274
72720W        W36653   3.253  32.959  13.953
72721W        W36654  27.138  20.633   4.646
72722W        W36655   1.456  26.490   4.320
72723W        W36656  26.141   3.457  11.570
72724W        W36657  24.486  23.116  14.774
72725W        W36658  18.758   1.860  14.942
72726W        W36659   2.261  14.780   2.801
72727W        W36660  29.109  18.173  12.860
72728W        W36661  35.022  25.038   3.198
72729W        W36662   5.364   3.762   1.292
72730W        W36663  21.588   8.674  10.414
72731W        W36664  17.234  42.019  14.943
72732W        W36665  29.436   4.899  11.598
72733W        W36666   4.927  35.394  13.005
72734W        W36667  35.060  33.462  10.151
72735W        W36668  42.430  40.030  13.963
72736W        W36669  19.666   9.796  11.073
72737W        W36670  20.698   8.375   3.845
72738W        W36671  40.535   5.840   1.436
72739W        W36672  35.521   2.869  14.479
72740W        W36673  32.555  38.367   3.329
72741W        W36674  44.459  34.047   1.830
72742W        W36675  29.999  31.429   3.359
72743W        W36676  25.081   1.455   5.224
72744W        W36677  18.120  41.360   9.439
72745W        W36678  21.250  26.525   1.830
72746W        W36679  23.590  10.311   4.214
72747W        W36680  27.104   7.235  13.999
72748W        W36681  44.853   7.676  13.545
72749W        W36682  30.561  42.912   4.116
72750W        W36683   6.889  42.972  12.049
72751W        W36684  41.402  14.335   4.803
72752W        W36685  14.829  19.086   3.682
72753W        W36686  26.971  40.948   2.729
72754W        W36687  21.246   6.886   2.273
72755W        W36688  43.000  25.220  12.575
72756W        W36689  29.980  34.560   4.272
72757W        W36690  23.240   9.395  11.928
72758W        W36691  44.499  30.916  12.085
72759W        W36692  21.175  38.015  13.955
72760W        W36693  41.466  28.652   4.264
72761W        W36694  34.447   8.167   0.331
72762W        W36695   4.287  23.005  12.093
72763W        W36696  41.816  21.101  14.460
72764W        W36697  30.071  42.818  11.387
72765W        W36698  40.468   2.268  14.866
72766W        W36699  43.516   3.738   1.841
72767W        W36700   3.327  14.677   1.275
72768W        W36701  14.669   8.877  12.931
72769W        W36702  44.810   7.776  14.007
72770W        W36703  29.437  36.380   2.341
72771W        W36704  19.148   5.870   2.759
72772W        W36705  39.033  29.060   2.294
72773W        W36706  21.246  30.052   0.332
72774W        W36707   8.299  20.681   3.379
72775W        W36708   7.267  23.568  10.577
72776W        W36709  27.626   6.812   1.332
72777W        W36710   6.787  34.016   3.742
72778W        W36711  15.822  24.185   1.771
72779W        W36712   8.776  18.100   0.962
72780W        W36713  11.776  28.025  12.904
72781W        W36714  16.670  38.050   0.292
72782W        W36715  21.579  38.987   1.333
72783W        W36716  38.973  35.009  11.958
72784W        W36717   0.957  20.600   3.741
72785W        W36718  17.735  10.791   1.338
72786W        W36719  38.992  25.553   2.787
72787W        W36720  21.074  35.502   2.269
72788W        W36721   2.842  40.031   2.707
72789W        W36722  19.553   4.783   3.247
72790W        W36723  11.816  44.327   0.461
72791W        W36724  32.401  21.728   0.338
72792W        W36725  43.857   5.299  14.806
72793W        W36726  39.511  17.634   0.359
72794W        W36727  22.579  22.017  10.442
72795W        W36728  19.743  34.102   0.960
72796W        W36729   6.346  24.634   1.221
72797W        W36730  11.148  44.785   1.704
72798W        W36731  24.621   4.354  14.984
72799W        W36732  43.853  17.163  13.049
72800W        W36733  33.031  11.825   0.288
72801W        W36734  23.605  10.690   0.922
72802W        W36735  27.548  21.256   2.702
72803W        W36736  44.492  40.819   2.853
72804W        W36737  18.693  23.058   3.287
72805W        W36738  18.104  25.032  14.951
72806W        W36739   0.247  20.094  11.503
72807W        W36740  42.912  26.582  11.920
72808W        W36741   8.304  14.711   3.204
72809W        W36742  14.642   0.310   4.610
72810W        W36743  22.713  23.676  11.108
72811W        W36744  18.285  42.950   2.378
72812W        W36745   4.352  12.315   3.278
72813W        W36746  22.080  37.349  14.935
72814W        W36747   5.203   5.739   1.749
72815W        W36748  34.613  21.130   2.194
72816W        W36749  31.007  21.214   4.125
72817W        W36750   2.315  42.849  10.933
72818W        W36751  14.169  33.007   3.341
72819W        W36752   8.872  14.305   0.888
72820W        W36753  36.016  38.888   4.211
72821W        W36754  25.507   4.368   2.290
72822W        W36755  16.767  31.423   2.818
72823W        W36756  32.065   5.886   2.322
72824W        W36757   8.773  11.300   4.755
72825W        W36758  42.782  36.422   0.351
72826W        W36759  32.056   3.819  13.377
72827W        W36760   3.443  24.666  13.919
72828W        W36761  24.696   8.254   4.282
72829W        W36762  33.005  34.591   3.207
72830W        W36763  20.170   5.237  13.416
72831W        W36764  43.503  30.995  13.950
72832W        W36765  28.520  35.458  11.974
72833W        W36766  11.185   7.375  13.927
72834W        W36767  22.645   7.388  14.470
72835W        W36768  39.042   8.240  12.579
72836W        W36769  29.458  40.001  11.937
72837W        W36770  32.559  36.854  14.820
72838W        W36771  44.769  25.204   3.231
72839W        W36772  42.903   0.960  12.544
72840W        W36773   8.325  42.007   2.665
72841W        W36774  10.846  14.140  13.357
72842W        W36775  16.570  23.984   2.291
72843W        W36776   8.780   0.967   4.788
72844W        W36777  10.258   5.312  14.876
72845W        W36778  11.281  35.518   3.237
72846W        W36779  32.000  26.126   4.724
72847W        W36780  15.685  19.059  14.995
72848W        W36781  11.663  35.482   2.281
72849W        W36782   1.284  24.145   3.860
72850W        W36783  22.655  26.676  11.964
72851W        W36784  24.109  12.748  10.015
72852W        W36785  15.749  17.270   1.238
72853W        W36786  10.169  44.932  12.038
72854W        W36787  29.554  40.373   0.841
72855W        W36788  14.660  25.602  11.070
72856W        W36789  36.466  18.628  11.415
72857W        W36790  39.467  34.405   3.219
72858W        W36791   8.839  16.709   2.325
72859W        W36792  41.403  35.507  12.948
72860W        W36793   2.953  40.946  12.893
72861W        W36794  44.484  38.930  11.948
72862W        W36795  28.480   9.724  14.275
72863W        W36796   1.892  41.372   4.761
72864W        W36797   9.358  43.445  10.470
72865W        W36798  41.381  39.471   4.199
72866W        W36799  13.845   2.279  11.550
72867W        W36800   0.921   4.743  11.575
72868W        W36801  28.676  34.006   0.371
72869W        W36802  42.953   0.484  13.022
72870W        W36803  14.825   2.271  12.535
72871W        W36804  13.625   2.880   4.267
72872W        W36805  14.716  30.913  11.015
72873W        W36806  20.120  26.659   0.750
72874W        W36807  12.322  39.413   0.409
72875W        W36808  33.964   1.833  14.420
72876W        W36809  36.486  18.555   0.340
72877W        W36810  18.095  23.694  13.829
72878W        W36811   8.854  44.443  11.381
72879W        W36812  24.015  19.661   2.745
72880W        W36813  21.549  10.838  13.505
72881W        W36814   5.711  27.690   1.351
72882W        W36815   0.365  13.314  13.906
72883W        W36816   2.934  14.325  11.383
72884W        W36817  22.728  18.272  13.813
72885W        W36818   7.679  27.639   3.779
72886W        W36819  27.976  39.532   4.337
72887W        W36820  26.605   0.957   4.118
72888W        W36821  22.202  35.597   1.729
72889W        W36822  24.546   5.868  10.958
72890W        W36823   4.747   5.329   1.883
72891W        W36824  23.660   5.812   2.280
72892W        W36825   7.698   4.825  10.497
72893W        W36826  18.548  30.631   3.768
72894W        W36827  24.705   8.813  11.592
72895W        W36828   0.781   5.435   0.951
72896W        W36829  24.222  31.447  14.321
72897W        W36830   1.316  12.144   4.338
72898W        W36831  39.864  25.087  12.917
72899W        W36832  25.543  17.681  12.929
72900W        W36833   6.193  12.311  12.843
72901W        W36834   5.374  27.604  13.409
72902W        W36835  30.084  12.347   4.239
72903W        W36836  36.992  13.256   3.736
72904W        W36837  18.584  10.822  12.846
72905W        W36838  29.992  43.409  12.367
72906W        W36839  44.282  17.598  12.415
72907W        W36840  26.559   8.224  13.330
72908W        W36841  44.462  20.623   2.278
72909W        W36842  17.219  29.592  13.957
72910W        W36843  12.183  29.059   0.769
72911W        W36844  15.720  33.993  10.955
72912W        W36845   6.771  11.844   2.719
72913W        W36846  22.206  43.371  11.117
72914W        W36847  28.593  38.012  11.399
72915W        W36848  32.980   2.294   1.807
72916W        W36849  15.171   3.904  11.003
72917W        W36850   1.442  36.388   2.773
72918W        W36851   8.340  38.013  10.550
72919W        W36852   9.388  13.744  12.374
72920W        W36853  17.111  12.777  11.866
72921W        W36854  27.526  34.868  14.512
72922W        W36855  35.496  26.034  13.033
72923W        W36856  43.294  37.932  12.567
72924W        W36857  20.048  39.997   0.380
72925W        W36858  31.483  16.720  12.393
72926W        W36859   7.321  11.332   4.182
72927W        W36860  36.042  24.034  11.028
72928W        W36861  26.697   9.188  11.976
72929W        W36862  27.042  17.160   1.723
72930W        W36863  33.971  34.084   0.456
72931W        W36864  25.540  26.603  10.623
72932W        W36865  16.680  23.534  10.604
72933W        W36866  34.511   1.745  14.298
72934W        W36867  33.071  42.416   2.277
72935W        W36868   8.795  35.982   3.652
72936W        W36869  38.043  25.066   2.782
72937W        W36870  36.444  15.087  10.554
72938W        W36871   2.740  44.449  11.916
72939W        W36872  43.818  15.098  10.908
72940W        W36873   4.879  43.817  14.868
72941W        W36874   7.761  13.764   1.229
72942W        W36875  21.254   7.807  12.362
72943W        W36876   0.470   4.325   2.252
72944W        W36877   2.918  30.627   3.835
72945W        W36878   9.788  27.550  11.961
72946W        W36879  34.119  31.055   1.864
72947W        W36880  16.184   4.759  12.505
72948W        W36881  31.406  17.271   4.237
72949W        W36882  16.732  15.742  10.915
72950W        W36883  39.984   1.440  13.026
72951W        W36884   8.655   6.359  13.429
72952W        W36885  26.986  34.586   2.728
72953W        W36886  22.526  21.561  11.911
72954W        W36887  38.986  17.071  13.793
72955W        W36888  19.159   7.372   2.375
72956W        W36889  21.124  32.042   4.613
72957W        W36890  16.079  26.999   3.812
72958W        W36891   6.889  39.955   0.852
72959W        W36892  33.070  27.047  13.407
72960W        W36893  21.225   0.850   0.859
72961W        W36894  43.430  33.552   0.777
72962W        W36895  23.656   3.847   3.383
72963W        W36896   0.746   8.657  12.395
72964W        W36897  36.858   0.775  13.016
72965W        W36898  41.297  28.045   2.701
72966W        W36899  30.920   8.380  11.597
72967W        W36900  41.516  35.078   4.784
72968W        W36901   2.294  42.978  12.833
72969W        W36902  28.041  10.331   4.653
72970W        W36903  12.299   3.795   0.887
72971W        W36904  38.879  24.066   3.812
72972W        W36905   7.801  34.961  13.033
72973W        W36906  43.012  24.163  12.410
72974W        W36907  21.608  14.829   0.864
72975W        W36908  29.654  42.933   2.192
72976W        W36909  23.607  30.916   0.785
72977W        W36910  17.773   6.229   4.197
72978W        W36911   8.276  20.668   1.859
72979W        W36912  25.535  23.207   2.705
72980W        W36913  29.592   2.302   3.708
72981W        W36914  42.510  25.062  11.572
72982W        W36915  22.503  24.500   4.796
72983W        W36916  20.664   0.261  12.434
72984W        W36917  33.430  14.678   2.182
72985W        W36918  13.281  39.412   4.709
72986W        W36919  19.760  17.613   2.853
72987W        W36920  38.890  41.997   3.685
72988W        W36921  13.124  10.371  13.966
72989W        W36922  36.993  33.076  12.047
72990W        W36923   9.351  30.030  14.864
72991W        W36924  27.187   1.431  14.993
72992W        W36925   6.418  19.709   4.652
72993W        W36926  31.984  17.061  13.792
72994W        W36927  27.508  20.600  11.904
72995W        W36928  15.689  37.505   2.883
72996W        W36929  16.570  40.450  12.401
72997W        W36930  40.025  27.680  12.985
72998W        W36931  35.457   8.766   2.900
72999W        W36932  19.658   2.261   2.823
73000W        W36933   3.711   0.855   1.368
73001W        W36934  37.912  36.525   0.471
73002W        W36935  21.689   4.310   4.155
73003W        W36936  23.149   7.867   0.942
73004W        W36937  44.460   8.683  12.077
73005W        W36938   3.731   6.195  14.013
73006W        W36939   1.373  30.971   0.440
73007W        W36940  36.992   5.727   1.402
73008W        W36941  14.098  23.229   0.899
73009W        W36942  36.411   6.426  14.423
73010W        W36943  23.521  15.216  10.640
73011W        W36944  22.229  40.053   0.887
73012W        W36945  26.138  12.777  11.859
73013W        W36946   3.243  38.431   4.772
73014W        W36947  11.709   5.895  11.024
73015W        W36948  16.283   9.670   0.451
73016W        W36949  30.078  20.199  14.899
73017W        W36950  44.901  33.035   3.325
73018W        W36951  31.435  27.152  12.520
73019W        W36952   7.910   0.915  11.920
73020W        W36953  14.180   6.405   2.339
73021W        W36954  33.111  34.403  12.995
73022W        W36955  26.137  42.019  13.976
73023W        W36956   0.788  41.040   1.703
73024W        W36957  31.460  38.899   2.269
73025W        W36958  25.072  22.244  10.630
73026W        W36959  34.890  10.363  13.357
73027W        W36960  24.705   0.330  11.088
73028W        W36961  39.454  18.192   1.795
73029W        W36962   8.321  30.951   2.235
73030W        W36963  26.052  29.051   4.792
73031W        W36964   7.806  33.446   1.905
73032W        W36965  27.967   1.924  13.375
73033W        W36966  20.703  25.529  12.970
73034W        W36967   5.226  16.298  12.397
73035W        W36968   6.398  22.678  11.093
73036W        W36969  28.598  41.906   0.346
73037W        W36970  41.531  38.570  11.461
73038W        W36971  39.907   8.257   2.764
73039W        W36972  24.675   7.840  12.535
73040W        W36973  14.308  26.952  10.434
73041W        W36974   1.916  20.098  11.856
73042W        W36975  32.570  29.506   2.764
73043W        W36976  33.914   5.367  11.115
73044W        W36977  26.154  36.529  14.822
73045W        W36978  38.846  34.935   4.238
73046W        W36979   4.783  37.519   2.297
73047W        W36980   7.777  11.131   2.711
73048W        W36981  23.524  42.002  14.478
73049W        W36982  20.229  14.319  13.348
73050W        W36983  10.227   8.372  12.461
73051W        W36984  24.533  36.008  12.893
73052W        W36985  32.056  35.923  14.886
73053W        W36986  27.137  20.227  10.517
73054W        W36987  19.090  39.465   0.326
73055W        W36988  43.390   9.155   0.859
73056W        W36989  14.327   9.299   4.815
73057W        W36990  30.913  16.117  12.066
73058W        W36991  42.480  28.615  12.418
73059W        W36992  26.097  14.702  14.759
73060W        W36993  30.611  32.048   4.629
73061W        W36994   4.897  32.889   3.711
73062W        W36995   7.368  38.531  13.988
73063W        W36996  14.193  26.112  10.436
73064W        W36997  42.358   4.746  10.561
73065W        W36998  14.252  34.589   2.222
73066W        W36999   2.897  26.701  13.952
73067W        W37000  33.123   3.936   0.757
73068W        W37001   6.372  34.915   5.131
73069W        W37002  20.264  30.546   1.338
73070W        W37003  11.294  16.243  13.818
73071W        W37004  22.208  16.799  12.965
73072W        W37005  19.263   0.440   4.681
73073W        W37006  15.112  36.451   2.771
73074W        W37007   0.866   9.215  13.023
73075W        W37008   7.239  36.428   5.310
73076W        W37009  27.473  35.401   3.803
73077W        W37010   5.417  43.380  10.422
73078W        W37011  35.893  40.455   3.789
73079W        W37012   2.244  44.340  11.003
73080W        W37013  34.017  41.303   2.823
73081W        W37014  44.762  21.740   3.638
73082W        W37015  17.694   4.247   1.875
73083W        W37016  33.921  18.578  10.640
73084W        W37017  28.152  40.502  11.924
73085W        W37018  23.086  36.395  12.379
73086W        W37019  15.152  14.676  10.910
73087W        W37020  28.010   6.233   3.758
73088W        W37021   3.765   9.339   3.837
73089W        W37022  18.591  36.924  13.317
73090W        W37023   5.893   0.397  11.438
73091W        W37024  29.965  33.995   2.759
73092W        W37025  15.306  13.600  11.442
73093W        W37026  23.698  39.829   3.383
73094W        W37027  30.526  30.621  14.329
73095W        W37028  27.446  42.988   3.235
73096W        W37029  37.896  31.530  12.970
73097W        W37030  15.270  30.565   3.149
73098W        W37031  22.647  38.419   1.275
73099W        W37032   6.311  17.783   2.680
73100W        W37033   8.784  21.210  11.585
73101W        W37034  33.999  41.474   4.179
73102W        W37035   0.980  14.229   5.293
73103W        W37036  40.507  44.757   1.711
73104W        W37037  29.436  29.003   0.908
73105W        W37038  15.248   2.354   2.299
73106W        W37039  44.426  44.298  12.576
73107W        W37040  39.324  42.854   1.291
73108W        W37041  29.498  13.705   0.896
73109W        W37042   0.453  19.155   1.414
73110W        W37043  29.968  42.355   0.428
73111W        W37044  38.861  27.964  13.428
73112W        W37045   9.226  10.215  10.031
73113W        W37046  32.084  39.986  10.644
73114W        W37047  27.475   8.189   2.683
73115W        W37048  26.125  19.695  11.950
73116W        W37049  41.889  18.129   1.329
73117W        W37050  19.760  20.580   3.248
73118W        W37051   5.870  27.952   4.276
73119W        W37052  13.672  35.988  11.094
73120W        W37053   5.330   7.357  10.985
73121W        W37054   9.338  28.129  12.474
73122W        W37055   6.235  10.302  11.510
73123W        W37056  28.680  15.329  12.916
73124W        W37057  24.583   8.374   4.689
73125W        W37058  44.381  25.706   1.827
73126W        W37059  28.572  40.945  11.129
73127W        W37060   4.852   6.345   1.797
73128W        W37061  25.103   9.230   0.444
73129W        W37062  34.438  34.111  13.031
73130W        W37063  24.064   3.867   3.834
73131W        W37064  28.942  25.988  11.055
73132W        W37065  44.758  26.623  13.941
73133W        W37066   7.233   1.863   3.745
73134W        W37067  40.379   7.244   2.413
73135W        W37068  19.619  37.052  12.550
73136W        W37069  23.707  42.498   2.345
73137W        W37070   2.825   3.765   1.892
73138W        W37071  42.429  29.106  12.570
73139W        W37072  15.288  32.999   3.688
73140W        W37073   7.237  26.152  14.406
73141W        W37074  17.637  42.516  12.407
73142W        W37075  20.130  20.102   1.905
73143W        W37076   5.264  30.572  13.311
73144W        W37077  42.379  34.552   3.363
73145W        W37078   4.925  35.514   1.442
73146W        W37079  29.087  26.625   4.265
73147W        W37080  38.923  44.857  12.447
73148W        W37081  40.977  41.809   2.396
73149W        W37082   4.734  36.540  12.068
73150W        W37083  29.131  18.592   0.772
73151W        W37084   8.684  36.472   0.926
73152W        W37085  43.417  12.256  13.506
73153W        W37086   2.829  16.665   3.175
73154W        W37087   4.425  24.078   4.208
73155W        W37088   4.764  10.221   1.334
73156W        W37089  39.987  26.575  12.915
73157W        W37090  28.516  30.942   2.191
73158W        W37091   8.185  18.655  12.568
73159W        W37092  21.046  20.644   0.727
73160W        W37093  22.745  35.912   1.788
73161W        W37094  17.565  11.847   2.832
73162W        W37095  30.108   2.300  10.539
73163W        W37096  33.592   0.802  14.371
73164W        W37097   6.826  42.810  14.443
73165W        W37098  42.016  12.186   0.776
73166W        W37099  30.638  30.042   4.598
73167W        W37100   8.790  21.687   2.368
73168W        W37101  36.430  18.161   1.323
73169W        W37102  30.422  13.164  14.780
73170W        W37103  14.173   6.803  12.041
73171W        W37104  44.267  26.659   2.299
73172W        W37105  40.528  37.543  11.395
73173W        W37106   6.886   3.300   2.683
73174W        W37107  40.999  37.861   1.225
73175W        W37108  18.282  34.470  14.292
73176W        W37109   6.845  43.433   0.828
73177W        W37110  12.629  27.674  13.922
73178W        W37111  11.173  44.320  14.998
73179W        W37112  21.196  42.824  14.798
73180W        W37113  32.102  18.264  11.938
73181W        W37114  33.479  44.469   1.363
73182W        W37115  23.652  42.821   5.201
73183W        W37116  28.938  24.607   0.249
73184W        W37117  34.611  38.554   4.613
73185W        W37118   0.309  20.540   4.606
73186W        W37119  12.679   7.231   5.783
73187W        W37120  39.439   3.932  11.058
73188W        W37121   3.848  12.734   3.236
73189W        W37122  24.990  41.946   0.941
73190W        W37123   0.283  31.422  14.389
73191W        W37124  25.150  34.586  13.983
73192W        W37125  14.113  25.118   3.197
73193W        W37126  31.993  44.987  10.911
73194W        W37127  21.557  11.333   1.403
73195W        W37128  12.811  32.530  13.877
73196W        W37129   7.222  35.522   1.752
73197W        W37130   8.696   5.205  13.926
73198W        W37131  33.401  19.611   4.828
73199W        W37132  31.922  11.233   4.183
73200W        W37133  17.199  12.196   1.910
73201W        W37134  42.436   4.361   1.359
73202W        W37135   6.824   3.718  14.447
73203W        W37136  21.049  22.173   1.862
73204W        W37137   2.462   0.365   4.284
73205W        W37138  10.791  29.999   3.837
73206W        W37139  17.761  41.803   0.945
73207W        W37140  37.337  25.618   0.478
73208W        W37141  19.209  44.456  11.115
73209W        W37142  21.116  11.363   0.380
73210W        W37143  19.172  40.941   2.239
73211W        W37144  37.493  26.470  11.427
73212W        W37145  15.683  11.232   2.387
73213W        W37146  13.676  34.471   4.233
73214W        W37147  16.148  18.247  12.897
73215W        W37148  36.971  32.568   0.307
73216W        W37149  18.177  23.138   1.725
73217W        W37150   1.278   0.782  14.490
73218W        W37151  26.568  38.326   0.913
73219W        W37152   8.773  30.925   1.773
73220W        W37153  23.553  14.601  10.889
73221W        W37154   3.903   7.345   4.190
73222W        W37155   0.975  27.578   0.269
73223W        W37156  21.626  10.875  12.914
73224W        W37157   9.218  12.743   3.187
73225W        W37158  44.939  39.368   3.798
73226W        W37159   5.396   7.227  13.862
73227W        W37160  29.511  28.067   3.223
73228W        W37161  22.015   0.805  14.346
73229W        W37162   5.856   7.816  11.519
73230W        W37163  28.483  32.024   0.911
73231W        W37164  25.145   7.393  11.115
73232W        W37165  33.546   2.772   2.296
73233W        W37166  19.717   7.692   0.953
73234W        W37167  15.149   3.277   5.271
73235W        W37168  41.015  30.004  11.594
73236W        W37169  37.891  44.316  13.792
73237W        W37170  14.118   8.381   0.281
73238W        W37171  37.926  44.396   3.832
73239W        W37172  16.704   4.268   1.930
73240W        W37173  34.105  21.652   4.755
73241W        W37174  35.964  23.065  13.834
73242W        W37175  24.085  10.296  10.492
73243W        W37176  37.524  11.720  14.486
73244W        W37177   5.340  10.142   2.262
73245W        W37178  26.089  40.035   0.812
73246W        W37179  43.479  44.860   4.220
73247W        W37180  32.541  39.347  12.036
73248W        W37181  37.993  22.515  13.830
73249W        W37182  29.027   2.781   1.317
73250W        W37183  27.019  23.071  13.420
73251W        W37184  40.986  16.242   3.840
73252W        W37185  35.883  13.640   0.310
73253W        W37186  13.806  21.570  14.958
73254W        W37187  12.677  38.005  10.466
73255W        W37188  20.073  28.650  12.439
73256W        W37189  21.218  18.098  14.906
73257W        W37190  16.148  23.213  11.537
73258W        W37191  22.520  38.998  10.049
73259W        W37192  35.970  39.515   3.697
73260W        W37193  40.486   6.304   4.222
73261W        W37194  24.991   7.906  13.996
73262W        W37195  17.152  40.389  11.566
73263W        W37196  41.449  18.106  11.930
73264W        W37197  11.829   7.694  13.894
73265W        W37198  34.889  33.491   4.145
73266W        W37199  36.043  41.341  14.419
73267W        W37200  39.924   5.224  14.858
73268W        W37201  24.548  19.201  11.944
73269W        W37202  37.392  19.671   4.338
73270W        W37203  40.934   4.842  13.916
73271W        W37204   0.987   4.266  11.405
73272W        W37205  35.017   0.402   3.638
73273W        W37206   0.988   8.821  14.951
73274W        W37207   8.266  35.449  11.925
73275W        W37208  16.581  29.658  10.133
73276W        W37209  35.438  29.084  11.434
73277W        W37210  31.128  24.586   1.730
73278W        W37211  44.421  19.079  14.459
73279W        W37212  10.762   7.744  12.368
73280W        W37213  11.724  12.850  10.969
73281W        W37214  20.754  29.567   4.637
73282W        W37215  22.244   4.330   4.172
73283W        W37216  20.119   8.665   4.613
73284W        W37217  28.953  24.549   4.636
73285W        W37218   9.176  38.065  11.450
73286W        W37219   5.888   5.820  12.847
73287W        W37220  11.707  16.732  11.498
73288W        W37221  25.544  11.207  12.493
73289W        W37222  38.330  30.115  11.377
73290W        W37223  40.032  16.235  14.843
73291W        W37224  20.551  27.111   3.707
73292W        W37225  32.106  14.672   4.772
73293W        W37226   2.387  31.641  13.999
73294W        W37227  18.710  22.708   3.193
73295W        W37228  14.685   1.897   4.788
73296W        W37229  27.179  41.444   2.873
73297W        W37230  19.647  28.180   0.390
73298W        W37231  39.034  32.949   4.267
73299W        W37232   8.345  18.103  12.394
73300W        W37233  26.013  24.007   4.604
73301W        W37234  39.010   2.298  13.326
73302W        W37235   6.307  18.260   5.210
73303W        W37236  10.632  43.462   3.341
73304W        W37237  18.221  38.491  11.918
73305W        W37238  39.463  38.845  13.883
73306W        W37239  33.984  29.548   2.186
73307W        W37240  29.082  37.543  12.984
73308W        W37241   7.708   7.678   2.882
73309W        W37242  14.181  38.483   1.229
73310W        W37243   0.374  13.622  13.309
73311W        W37244  38.875   0.464   2.418
73312W        W37245  40.543  10.776   4.774
73313W        W37246  34.004  41.375  12.856
73314W        W37247  18.779  29.605  12.508
73315W        W37248   7.861  43.424  11.880
73316W        W37249  27.477  18.071   1.332
73317W        W37250  39.002  29.126   4.247
73318W        W37251  10.379   3.848   2.198
73319W        W37252   7.711  24.061   3.259
73320W        W37253  35.969  41.942  13.977
73321W        W37254  33.974  39.032   0.468
73322W        W37255  40.388   4.810   3.686
73323W        W37256  41.825  29.036   0.886
73324W        W37257  43.498  12.276   3.348
73325W        W37258  20.115   3.951   2.288
73326W        W37259   1.788  25.178  12.364
73327W        W37260  18.654  18.545  12.577
73328W        W37261   6.842  16.657  12.389
73329W        W37262  30.545  40.405  11.611
73330W        W37263  14.592  31.514  13.948
73331W        W37264   8.363  32.600   1.342
73332W        W37265  26.523   5.348   0.730
73333W        W37266  30.154  38.026  12.033
73334W        W37267  40.461  11.280  14.815
73335W        W37268  25.012   4.277   0.435
73336W        W37269  29.062  12.329   0.828
73337W        W37270  34.375  26.207  10.611
73338W        W37271  42.890  32.933   4.261
73339W        W37272  31.424  41.011   0.443
73340W        W37273   3.897   1.483  10.453
73341W        W37274   2.729  33.565   4.804
73342W        W37275  19.601  43.434  11.418
73343W        W37276   6.199   2.827  14.032
73344W        W37277  12.356  38.934  14.885
73345W        W37278   8.848  14.331  14.941
73346W        W37279  21.531  11.721   0.766
73347W        W37280  25.054  16.240   4.352
73348W        W37281  34.106  27.529  11.555
73349W        W37282   7.882  24.639   3.368
73350W        W37283   3.248   7.333   2.324
73351W        W37284  16.722  19.537  12.885
73352W        W37285  42.511  43.964  12.858
73353W        W37286  18.623  25.166   0.807
73354W        W37287  20.072  31.490  10.466
73355W        W37288   5.406  19.744  11.056
73356W        W37289  26.012   8.222   1.259
73357W        W37290  12.755   9.362   2.280
73358W        W37291  25.470  11.210  11.094
73359W        W37292   8.814  28.574   1.738
73360W        W37293  28.104   3.446   1.748
73361W        W37294  13.122   0.800  13.343
73362W        W37295  40.952  17.121   3.799
73363W        W37296   2.288   2.929   1.378
73364W        W37297  19.115  31.626  13.968
73365W        W37298  24.696   0.360  12.824
73366W        W37299  26.201  11.719   4.598
73367W        W37300  25.057  41.977  14.382
73368W        W37301  38.534  11.322   2.743
73369W        W37302  29.435  38.902   0.369
73370W        W37303   3.890  17.194  12.570
73371W        W37304  40.908   1.302   0.416
73372W        W37305  38.360   2.838   1.868
73373W        W37306  14.238   1.371   1.269
73374W        W37307   6.348  11.801  14.783
73375W        W37308  14.725   3.402   4.767
73376W        W37309  36.398  29.587   4.286
73377W        W37310   6.707  28.929  11.071
73378W        W37311  44.415   8.369   3.760
73379W        W37312   6.750  21.519   1.824
73380W        W37313  30.593  16.225  12.476
73381W        W37314   7.283  34.992   1.875
73382W        W37315  15.296  25.086   0.292
73383W        W37316  17.278  22.210   4.734
73384W        W37317   3.930  42.815  14.279
73385W        W37318  37.896   0.794   3.751
73386W        W37319  10.676  10.255   9.923
73387W        W37320  18.212   9.328   4.211
73388W        W37321  34.974   6.393   4.185
73389W        W37322  25.596  44.946  13.964
73390W        W37323  12.696  38.058  13.434
73391W        W37324   4.769  25.051  11.974
73392W        W37325   3.903   8.326   3.781
73393W        W37326  27.973   0.875  10.945
73394W        W37327   5.767  29.103  11.554
73395W        W37328  32.945  38.364   4.786
73396W        W37329  38.444   4.776  11.479
73397W        W37330  30.491  17.585   1.405
73398W        W37331  10.872  16.812  14.014
73399W        W37332  33.015   7.180   3.816
73400W        W37333  20.249  38.461  12.865
73401W        W37334  10.358  16.683   2.254
73402W        W37335  32.491   2.842  12.530
73403W        W37336  42.809  21.651   2.754
73404W        W37337  23.697  25.201   0.442
73405W        W37338  10.176  27.032   2.274
73406W        W37339  11.646  34.603   0.243
73407W        W37340  11.237  19.772   4.284
73408W        W37341  43.362  37.952   1.232
73409W        W37342  17.180  22.619   3.311
73410W        W37343  16.759  20.602   4.157
73411W        W37344  13.237  33.380   2.878
73412W        W37345  16.711  27.038   1.923
73413W        W37346  39.989  25.537   0.771
73414W        W37347  44.297  23.562  12.425
73415W        W37348  30.608   9.770  12.536
73416W        W37349  36.562  22.528   1.779
73417W        W37350   5.730  35.984  14.977
73418W        W37351  42.430  24.126   3.151
73419W        W37352  39.355  16.178   3.712
73420W        W37353  28.163  23.120   1.223
73421W        W37354   0.385  44.339  10.444
73422W        W37355  19.604  15.133   2.340
73423W        W37356  42.504  37.883  12.508
73424W        W37357   6.871  16.155   2.779
73425W        W37358  12.157  18.084   2.841
73426W        W37359  13.150   9.280  13.922
73427W        W37360  36.012  44.481  14.388
73428W        W37361  10.180  18.290   1.339
73429W        W37362  13.817  38.068   2.786
73430W        W37363  36.856  26.188  11.084
73431W        W37364  14.200   3.899  10.070
73432W        W37365  17.147  30.147   1.435
73433W        W37366   0.387  20.695  12.032
73434W        W37367   2.312   5.723   1.426
73435W        W37368  23.693   6.729   3.205
73436W        W37369   4.239   4.367  14.384
73437W        W37370  29.547  43.279   2.799
73438W        W37371  13.118  11.660  13.349
73439W        W37372  21.623  44.831   0.433
73440W        W37373  34.433   7.389  14.885
73441W        W37374  18.158  41.918   3.215
73442W        W37375  43.405  39.811  14.300
73443W        W37376   8.291   5.353  14.389
73444W        W37377  35.953   1.864  13.996
73445W        W37378  16.797  18.708  13.812
73446W        W37379  36.455  31.570   2.708
73447W        W37380  43.872  28.579   1.332
73448W        W37381  42.472  15.799  12.486
73449W        W37382  25.651  44.007   3.805
73450W        W37383  32.619  15.241   2.856
73451W        W37384  16.604  36.984  14.409
73452W        W37385  43.343  13.306  11.893
73453W        W37386   2.773  27.168  12.003
73454W        W37387  24.673  36.443   4.689
73455W        W37388  41.491  34.991  11.582
73456W        W37389   9.827  29.043  11.019
73457W        W37390  44.413  39.434  14.455
73458W        W37391   8.724  33.119   2.844
73459W        W37392  32.108  27.605  10.544
73460W        W37393  31.024  16.653   1.734
73461W        W37394  41.923  10.148   5.160
73462W        W37395  32.075  12.313  11.499
73463W        W37396  40.482  40.521   3.342
73464W        W37397  28.110  30.935  14.836
73465W        W37398  18.236   1.847  12.826
73466W        W37399  19.136  23.048  13.875
73467W        W37400  26.500  11.693  11.940
73468W        W37401  21.178  36.879   4.230
73469W        W37402  30.018  39.356  12.506
73470W        W37403  37.417  43.791   4.786
73471W        W37404   9.859  39.857  13.010
73472W        W37405  29.137  31.547   3.151
73473W        W37406  16.297  23.520   4.635
73474W        W37407  30.583   3.461   1.222
73475W        W37408  20.570  10.296  14.383
73476W        W37409  40.386  42.371  14.864
73477W        W37410   7.775  13.730  10.440
73478W        W37411  11.295   1.284   2.217
73479W        W37412   3.294  25.147  13.829
73480W        W37413  33.490  33.507   0.302
73481W        W37414  20.028   9.373  12.965
73482W        W37415  12.817  23.544  11.572
73483W        W37416  41.499  37.971   0.834
73484W        W37417  35.943  41.343  13.017
73485W        W37418  39.907  18.184   1.832
73486W        W37419  31.089  26.535   2.901
73487W        W37420   2.954  35.548   3.163
73488W        W37421   5.372   9.266   0.382
73489W        W37422  32.632  24.652   4.120
73490W        W37423   4.347  29.610   2.358
73491W        W37424  35.982  42.971   3.345
73492W        W37425  21.150  29.040  14.958
73493W        W37426  41.900   0.937   9.997
73494W        W37427   2.467  44.378  10.078
73495W        W37428  17.159  37.390  10.591
73496W        W37429  43.363   6.248   1.702
73497W        W37430   8.217  20.554  12.988
73498W        W37431  22.736  13.128   4.689
73499W        W37432  36.999  23.508   2.249
73500W        W37433   2.801  12.731  10.462
73501W        W37434   9.771  32.609   2.666
73502W        W37435  35.097  26.043  12.858
73503W        W37436  29.632   7.177   3.244
73504W        W37437  36.949  31.467   4.799
73505W        W37438  30.097  15.624  11.952
73506W        W37439   0.317  42.900   4.693
73507W        W37440   9.148   4.286   5.609
73508W        W37441  27.623  13.162   2.300
73509W        W37442  23.119   3.826  12.421
73510W        W37443  18.053  17.299  11.461
73511W        W37444  20.767  41.301   3.764
73512W        W37445  12.747   6.370  14.838
73513W        W37446  33.999   2.835  13.920
73514W        W37447  25.629  10.302  14.889
73515W        W37448  14.266   6.327  13.385
73516W        W37449  40.409  20.061  14.768
73517W        W37450  41.917  15.645  10.477
73518W        W37451  11.372  12.763   2.837
73519W        W37452  37.852  41.821   1.294
73520W        W37453  23.718  22.043  12.561
73521W        W37454   1.239   1.738   1.306
73522W        W37455  36.581  10.660  11.434
73523W        W37456   5.930   2.945   2.315
73524W        W37457  12.250  14.220   3.773
73525W        W37458   7.234  21.110   2.811
73526W        W37459   2.399  12.341  12.507
73527W        W37460   5.437  24.010   1.218
73528W        W37461   6.727  26.130   2.828
73529W        W37462  13.689  11.232   0.939
73530W        W37463  12.255  27.075  10.407
73531W        W37464  23.030  26.602  13.324
73532W        W37465  29.111  36.002  10.565
73533W        W37466   9.776   7.321   1.858
73534W        W37467  15.815  28.123   3.383
73535W        W37468  42.321   4.772  14.465
73536W        W37469  24.525   4.919  12.041
73537W        W37470  39.902  43.929   0.319
73538W        W37471  27.174  17.798   3.643
73539W        W37472  40.524  12.288   3.290
73540W        W37473   0.968  20.214  13.865
73541W        W37474  44.851   1.411  13.537
73542W        W37475  27.671  27.107   1.380
73543W        W37476  23.595  16.674  12.433
73544W        W37477  16.221  34.926   4.688
73545W        W37478  15.693  18.081  10.609
73546W        W37479  21.559   0.924   1.917
73547W        W37480  42.983  28.110   3.680
73548W        W37481  30.517   7.341   2.207
73549W        W37482  39.479  20.166   3.760
73550W        W37483  34.564  13.182   0.469
73551W        W37484   2.786  41.483  12.025
73552W        W37485   7.715  27.051  14.842
73553W        W37486   1.372  10.158  10.413
73554W        W37487  33.054   5.776  13.462
73555W        W37488  22.077  36.914   3.701
73556W        W37489  25.127   8.263  14.841
73557W        W37490  43.971   1.797  12.499
73558W        W37491  11.200  38.348  10.960
73559W        W37492  35.386  35.544   4.720
73560W        W37493  33.034   3.916  12.513
73561W        W37494  32.022  26.053  10.430
73562W        W37495  42.509  27.107  11.003
73563W        W37496   7.183  35.506  14.975
73564W        W37497  15.759  14.638  12.015
73565W        W37498   5.916   1.281  10.109
73566W        W37499  15.699  23.237   1.223
73567W        W37500  31.644   6.912   1.865
73568W        W37501  29.165  23.109   2.865
73569W        W37502  13.162  21.645  13.385
73570W        W37503   5.830   9.300  13.001
73571W        W37504  21.662   3.285   1.415
73572W        W37505   1.372  12.170  11.991
73573W        W37506  34.378  44.922  14.342
73574W        W37507  22.574  37.501  14.887
73575W        W37508  33.006  18.751   4.652
73576W        W37509  11.703  27.978   4.756
73577W        W37510  14.185  35.513  11.112
73578W        W37511  22.621  18.102   3.750
73579W        W37512  30.431  25.643  12.045
73580W        W37513  18.784  13.652   3.846
73581W        W37514  18.199   1.790   0.343
73582W        W37515  22.665  37.964  14.275
73583W        W37516  44.831  18.228   3.371
73584W        W37517  27.477  13.623   0.882
73585W        W37518   9.237  21.606   1.702
73586W        W37519  17.209  21.680   0.940
73587W        W37520  13.192  38.385   2.865
73588W        W37521  11.785  25.674  12.399
73589W        W37522  25.193   5.804  13.861
73590W        W37523   9.298  44.452  10.080
73591W        W37524  39.010  20.272   4.712
73592W        W37525  11.659   2.720  11.939
73593W        W37526   6.898  17.093  13.973
73594W        W37527   4.844  18.572  12.380
73595W        W37528  36.931   5.878  12.389
73596W        W37529  18.279  42.983   1.854
73597W        W37530  13.828  41.430  10.992
73598W        W37531   6.327  43.453  12.938
73599W        W37532  26.002  27.552   4.658
73600W        W37533  37.861  40.003   4.285
73601W        W37534  41.372  34.540   4.272
73602W        W37535  27.186  25.649  12.952
73603W        W37536  18.225  14.750  14.844
73604W        W37537  23.508   9.357  11.560
73605W        W37538   0.982  32.560  11.892
73606W        W37539  27.044  36.081  12.567
73607W        W37540  42.353  32.487  10.533
73608W        W37541  20.241  34.890   3.728
73609W        W37542  33.514  26.594   4.328
73610W        W37543  11.750  15.232  11.002
73611W        W37544  36.898  17.678   2.898
73612W        W37545   3.713  26.961   0.473
73613W        W37546  12.144  10.368  12.573
73614W        W37547  42.025  22.575   2.717
73615W        W37548  28.680  40.941  14.901
73616W        W37549  33.893   1.255  10.901
73617W        W37550   7.760  16.201   1.722
73618W        W37551  35.933  18.575  12.846
73619W        W37552  18.663  20.147   5.273
73620W        W37553  41.893  34.559  14.472
73621W        W37554  19.603   7.338  10.158
73622W        W37555   8.849  41.467  11.986
73623W        W37556  29.429  38.846   1.716
73624W        W37557  41.898  41.871   2.307
73625W        W37558  30.555   7.313   1.845
73626W        W37559  21.748  38.444  10.577
73627W        W37560   4.755   3.808   0.319
73628W        W37561  44.807  35.516   2.386
73629W        W37562  31.615  14.320  13.953
73630W        W37563   7.833  29.444  14.334
73631W        W37564  27.122  32.418  12.393
73632W        W37565  17.074  41.899   0.254
73633W        W37566   5.401  42.479  12.861
73634W        W37567  13.260  44.374  12.071
73635W        W37568   9.322  10.721  12.882
73636W        W37569  11.329  21.697  12.901
73637W        W37570  43.858  37.547   0.262
73638W        W37571  10.787  43.288  14.993
73639W        W37572   4.903  31.050  10.121
73640W        W37573  20.746  22.733   0.249
73641W        W37574  39.903   0.367  13.333
73642W        W37575  41.871   9.695   1.331
73643W        W37576  34.035  24.521   0.396
73644W        W37577  34.578   0.320  11.080
73645W        W37578  10.712   2.760   2.820
73646W        W37579  42.499  11.807   3.630
73647W        W37580   1.377  39.905   1.314
73648W        W37581  21.671  35.518   3.369
73649W        W37582  14.340   4.908  14.506
73650W        W37583  32.469  37.447   0.964
73651W        W37584  30.555  41.843   2.207
73652W        W37585  13.709  10.668  11.482
73653W        W37586  11.372  42.350  13.493
73654W        W37587  16.600  30.499  13.320
73655W        W37588   9.168  23.049  12.914
73656W        W37589  26.517  24.129   0.956
73657W        W37590  34.004   1.421   1.234
73658W        W37591   2.800  24.185  13.865
73659W        W37592   9.837  39.812  14.008
73660W        W37593  42.916  42.966  11.948
73661W        W37594   5.856  38.436  11.006
73662W        W37595   4.331  33.489  14.432
73663W        W37596  22.067  36.841  13.903
73664W        W37597  39.835  27.038  11.030
73665W        W37598  21.553   4.813  13.392
73666W        W37599  20.671  16.685   3.700
73667W        W37600  10.859  15.637   3.840
73668W        W37601  13.111  27.614  12.047
73669W        W37602  40.437   3.340   4.137
73670W        W37603  33.513   6.221  12.550
73671W        W37604  28.959  22.676   3.776
73672W        W37605  36.031  23.187  13.366
73673W        W37606  19.736  21.197   3.760
73674W        W37607  10.226  34.412  10.631
73675W        W37608  12.232  26.150   4.251
73676W        W37609  15.710  38.334   3.248
73677W        W37610  24.082  24.510  11.589
73678W        W37611  39.062  15.207   4.146
73679W        W37612  28.531  11.711  12.417
73680W        W37613  38.553  16.811   1.760
73681W        W37614  26.460  16.773   4.809
73682W        W37615  24.116  17.634   4.165
73683W        W37616  34.578   3.271   4.201
73684W        W37617   0.306  22.655   4.280
73685W        W37618  27.543  20.035  14.783
73686W        W37619  17.112  29.962   0.360
73687W        W37620  27.545  39.034  11.456
73688W        W37621  30.079   6.422   4.836
73689W        W37622  35.039  22.043  13.426
73690W        W37623  42.025  34.029  10.555
73691W        W37624  43.995   4.792  14.408
73692W        W37625   2.387  34.426  10.506
73693W        W37626  15.788   6.837  11.037
73694W        W37627  16.286  16.807  10.965
73695W        W37628  22.685  20.562   4.213
73696W        W37629  42.303   4.894  12.090
73697W        W37630  30.989  44.263   2.370
73698W        W37631  23.724  37.945  13.419
73699W        W37632  24.586  30.621  14.952
73700W        W37633  10.781   0.417   4.125
73701W        W37634  19.761  29.064   0.470
73702W        W37635  10.829  18.098   1.930
73703W        W37636   8.190   6.735  11.061
73704W        W37637  32.546  25.714   3.697
73705W        W37638  43.959  31.922   0.377
73706W        W37639  42.883   5.787  13.021
73707W        W37640  34.467  31.582  13.895
73708W        W37641  16.612  20.202  10.966
73709W        W37642  11.675   1.735   0.360
73710W        W37643  32.100  23.023  10.631
73711W        W37644   9.206  42.310  10.448
73712W        W37645   4.216  21.608   4.223
73713W        W37646  20.657  43.398  14.341
73714W        W37647  30.986  39.458  13.825
73715W        W37648  42.296   5.333  11.987
73716W        W37649  15.151  12.203  12.981
73717W        W37650  14.253  22.150  11.475
73718W        W37651  28.977   8.690  11.432
73719W        W37652  32.554  13.135  11.450
73720W        W37653   7.263   1.434  14.325
73721W        W37654  39.453   9.156  14.316
73722W        W37655   0.315  44.781   4.161
73723W        W37656   8.696  34.881   3.192
73724W        W37657  29.064  13.115  13.447
73725W        W37658   2.390  40.431   5.282
73726W        W37659   5.246  19.560   4.146
73727W        W37660  18.780  42.880  13.320
73728W        W37661  44.766  26.519  14.508
73729W        W37662  29.116  42.926   3.830
73730W        W37663  14.706  42.513  14.841
73731W        W37664  36.987  41.409  12.434
73732W        W37665  14.244  30.555   2.344
73733W        W37666  20.057  44.935  12.862
73734W        W37667  22.015  20.100  11.545
73735W        W37668  43.791  28.513   0.794
73736W        W37669  14.734  23.686   3.262
73737W        W37670  19.071  30.530   4.347
73738W        W37671  40.859  39.325   2.798
73739W        W37672   3.788  40.957   3.196
73740W        W37673  16.713  28.653   5.670
73741W        W37674  18.058  43.336  13.821
73742W        W37675  28.013  11.156   3.665
73743W        W37676  24.630  12.142   0.763
73744W        W37677  35.077  31.596  12.549
73745W        W37678   8.686  11.750   1.330
73746W        W37679   5.727  44.378  14.288
73747W        W37680  44.811  25.499   3.379
73748W        W37681   1.904   2.888  10.462
73749W        W37682  17.628   5.334  12.005
73750W        W37683   8.326  10.776  11.014
73751W        W37684  35.902  14.107   4.638
73752W        W37685  43.838  12.703   4.603
73753W        W37686  37.365  40.511  13.899
73754W        W37687   4.738  40.481  12.009
73755W        W37688  17.115  18.145  13.396
73756W        W37689  36.536  10.756  10.635
73757W        W37690  21.644  24.226  11.006
73758W        W37691  26.005  29.521  10.528
73759W        W37692  25.177  34.427   1.243
73760W        W37693   8.817   2.831  13.369
73761W        W37694  43.840  43.391  13.326
73762W        W37695  24.483  14.788  12.509
73763W        W37696  43.792  32.007  11.554
73764W        W37697  19.077  34.985   0.458
73765W        W37698  28.562  24.205  10.899
73766W        W37699  15.665  42.013  12.500
73767W        W37700  44.933  41.798   4.146
73768W        W37701  21.694  19.541  12.829
73769W        W37702  33.949  20.123   3.778
73770W        W37703  21.682   0.472  12.482
73771W        W37704   2.232  43.305  12.875
73772W        W37705  14.245  32.114   4.639
73773W        W37706  15.587  13.345   4.698
73774W        W37707   4.210   1.946   1.927
73775W        W37708  20.192  39.400  13.356
73776W        W37709  22.625  39.937   0.829
73777W        W37710  35.039  32.446   3.250
73778W        W37711  23.622  12.738  14.383
73779W        W37712  41.427   4.924  13.309
73780W        W37713  22.225  30.132   3.766
73781W        W37714  35.890  25.135  14.771
73782W        W37715  36.465  17.729  14.302
73783W        W37716  29.144  19.150   4.156
73784W        W37717  19.599  26.548   3.177
73785W        W37718  10.188  29.438  11.109
73786W        W37719  23.239   1.410  12.045
73787W        W37720  21.544  20.720  11.589
73788W        W37721  17.788  33.916   0.773
73789W        W37722  11.196  37.372   3.303
73790W        W37723  12.692  25.020   3.307
73791W        W37724  13.785   1.270   3.292
73792W        W37725  25.664  33.112  13.907
73793W        W37726  41.949   9.672  13.944
73794W        W37727  18.051   6.397   2.214
73795W        W37728  42.844  29.035   1.228
73796W        W37729   5.316   0.963  14.504
73797W        W37730   7.301  40.997   2.386
73798W        W37731  31.416  17.779  14.334
73799W        W37732  30.482   3.293  10.987
73800W        W37733  29.050   6.395  12.438
73801W        W37734   8.757  31.637   4.630
73802W        W37735  43.807  42.318   3.834
73803W        W37736  28.628   7.191   2.763
73804W        W37737  19.672  41.907  13.376
73805W        W37738  22.631  43.928   9.962
73806W        W37739  31.555   3.297  11.504
73807W        W37740  12.754   8.317   1.357
73808W        W37741  17.194   7.213   0.246
73809W        W37742  23.193  42.430  14.500
73810W        W37743  25.473  19.127   1.256
73811W        W37744   3.844   1.815   0.858
73812W        W37745  39.483  10.728  14.498
73813W        W37746  35.027  10.845  14.432
73814W        W37747   7.250  29.448  10.949
73815W        W37748  40.826  26.170   0.422
73816W        W37749  24.231  38.482   2.842
73817W        W37750  14.764  23.221   2.337
73818W        W37751  13.339  31.135  11.954
73819W        W37752  42.910  25.694  10.939
73820W        W37753  31.507  11.151  10.620
73821W        W37754   6.385   7.846   2.229
73822W        W37755  40.990  37.341  13.946
73823W        W37756  25.613  12.829   3.698
73824W        W37757  15.796  31.447   4.343
73825W        W37758  37.912  14.651  11.448
73826W        W37759  18.111  14.104  10.611
73827W        W37760  12.777  28.596  11.129
73828W        W37761  16.130   9.238   9.665
73829W        W37762  29.032  25.214  13.998
73830W        W37763   8.688  30.008   3.247
73831W        W37764   1.926  28.560   4.680
73832W        W37765   5.382   1.887  11.398
73833W        W37766  14.169  21.744   1.813
73834W        W37767  38.885  23.011  10.474
73835W        W37768  43.483  43.768  10.636
73836W        W37769  26.689  23.549  11.951
73837W        W37770  42.441  23.520   2.322
73838W        W37771  35.383  40.420  11.110
73839W        W37772  38.987  36.379   4.215
73840W        W37773   6.310   1.304  13.379
73841W        W37774   8.720  35.108  11.475
73842W        W37775  28.667   4.795  12.504
73843W        W37776  44.350   9.842   2.691
73844W        W37777   0.938  39.958  13.450
73845W        W37778  12.191   7.315  10.517
73846W        W37779  18.584  38.964   0.927
73847W        W37780  11.281  16.664  13.538
73848W        W37781  36.446   0.921  10.615
73849W        W37782  20.206  28.187   0.375
73850W        W37783  27.174  28.071  13.528
73851W        W37784  32.627   4.898   4.247
73852W        W37785  36.000  23.567   2.378
73853W        W37786   1.927  36.982   1.820
73854W        W37787  29.125  16.315  12.554
73855W        W37788   1.449  18.559  12.898
73856W        W37789  27.500  28.456  13.330
73857W        W37790  30.131   2.390  14.344
73858W        W37791  11.738  16.157  13.534
73859W        W37792  19.123  25.042   0.309
73860W        W37793  15.712  23.582  14.032
73861W        W37794   3.897  23.613  10.444
73862W        W37795  31.596  22.184   4.253
73863W        W37796  13.335  34.409  14.927
73864W        W37797  42.402  26.096   0.792
73865W        W37798  16.687  16.741   9.927
73866W        W37799  40.310  28.126  12.003
73867W        W37800   4.375  14.661  14.919
73868W        W37801  25.612  29.151   2.404
73869W        W37802  40.369  30.610  10.089
73870W        W37803  19.577  38.897  10.930
73871W        W37804  30.537  43.376   4.660
73872W        W37805  19.758  20.588   4.718
73873W        W37806   3.866  22.692  13.815
73874W        W37807  21.212  31.450  12.852
73875W        W37808  34.970  13.829  13.409
73876W        W37809  19.687   8.338  13.061
73877W        W37810  43.301   8.165  11.425
73878W        W37811  34.602  43.905  13.791
73879W        W37812  27.991  42.511   2.771
73880W        W37813  12.669   9.713  11.021
73881W        W37814  30.106  11.828   1.769
73882W        W37815  19.251  12.173  13.379
73883W        W37816  19.553  28.095  13.490
73884W        W37817  20.602  17.230  12.093
73885W        W37818   6.743  20.145   4.297
73886W        W37819  42.404  38.331   0.399
73887W        W37820   8.246  17.689  11.033
73888W        W37821  15.710   6.754  14.487
73889W        W37822   9.346  13.618   4.785
73890W        W37823  19.547  38.433   2.728
73891W        W37824   8.294  21.103  13.024
73892W        W37825  40.383   1.300   4.296
73893W        W37826   5.259  26.462  14.444
73894W        W37827   8.763  11.648  10.958
73895W        W37828  27.043  43.771   1.344
73896W        W37829  22.197  41.517   2.245
73897W        W37830  44.836  26.198   3.717
73898W        W37831   7.363  13.133   4.354
73899W        W37832  23.108  10.698  14.829
73900W        W37833  20.735  31.136  12.849
73901W        W37834  10.756  30.465  11.491
73902W        W37835   6.249   3.343  10.611
73903W        W37836  36.066  24.665  12.457
73904W        W37837  35.905  33.436   0.891
73905W        W37838  12.342  12.736   4.628
73906W        W37839  43.821  30.910   2.202
73907W        W37840  43.292  25.181   3.776
73908W        W37841  18.191  39.990   2.209
73909W        W37842  27.583   8.279  13.856
73910W        W37843   7.908  23.658  13.906
73911W        W37844  28.969  38.835  11.600
73912W        W37845  32.619  28.556  12.029
73913W        W37846  34.458  30.646  11.867
73914W        W37847  35.935  29.023  14.367
73915W        W37848   1.247  38.888  12.022
73916W        W37849   6.261   9.180  14.990
73917W        W37850  43.940  11.239  11.979
73918W        W37851  36.576  41.486   4.273
73919W        W37852  32.557  34.416  14.927
73920W        W37853  25.011   0.285  12.561
73921W        W37854  18.190  25.475  13.514
73922W        W37855   6.865  23.024   3.778
73923W        W37856  35.892  28.636   4.152
73924W        W37857  18.632  32.437   1.719
73925W        W37858   2.936  34.940  14.994
73926W        W37859  23.584  16.236  12.528
73927W        W37860  39.028  16.090   2.805
73928W        W37861   0.845   2.927   3.793
73929W        W37862  14.177   3.331  14.938
73930W        W37863  19.715   1.434   4.116
73931W        W37864  34.476  19.771   4.284
73932W        W37865  11.137  41.905   0.852
73933W        W37866  37.053  36.497  13.915
73934W        W37867  29.631  40.342  11.412
73935W        W37868   1.478   6.270   4.660
73936W        W37869  36.026   2.918  11.073
73937W        W37870   0.262  42.300  11.919
73938W        W37871  40.368  32.074  13.543
73939W        W37872  31.533   9.250   0.279
73940W        W37873  17.189  18.199   0.802
73941W        W37874  41.360  10.707   1.368
73942W        W37875  22.604  21.029   0.356
73943W        W37876  23.599  43.468  11.401
73944W        W37877   4.393  41.949  13.042
73945W        W37878  37.532   6.229  11.925
73946W        W37879  25.003   3.234  12.960
73947W        W37880  31.099  36.069   3.348
73948W        W37881  29.514   6.351  14.382
73949W        W37882  44.446  28.076   2.875
73950W        W37883  40.441  36.478   0.348
73951W        W37884   2.299  32.105   4.785
73952W        W37885  21.636  22.178  11.051
73953W        W37886  24.223  33.886   4.276
73954W        W37887  42.935  30.924  11.372
73955W        W37888   2.805   4.373   4.650
73956W        W37889   7.875  19.603  12.476
73957W        W37890  17.604  27.062  11.502
73958W        W37891  41.305  10.798  13.422
73959W        W37892  20.153  38.858   4.762
73960W        W37893  29.059  21.679   4.805
73961W        W37894  37.577  25.545  11.946
73962W        W37895   1.419  19.042  14.925
73963W        W37896  43.411  35.058  13.367
73964W        W37897  20.066  31.141  14.874
73965W        W37898  33.003  23.169   4.231
73966W        W37899  22.164   8.848  11.975
73967W        W37900  22.252  27.657  12.428
73968W        W37901  26.009  22.746  14.443
73969W        W37902   1.450  28.493  12.994
73970W        W37903  39.866  34.079   2.755
73971W        W37904  33.587  20.658   4.786
73972W        W37905  17.105  33.393  10.514
73973W        W37906  27.495  34.101   1.214
73974W        W37907   3.874   1.475   0.336
73975W        W37908  33.943  21.207   4.300
73976W        W37909  29.087  41.858   2.266
73977W        W37910  16.166   1.867   3.674
73978W        W37911  11.362   5.257  11.054
73979W        W37912  24.482  31.104  14.873
73980W        W37913  22.172   9.355   4.697
73981W        W37914  29.972   6.756  14.371
73982W        W37915  41.510  41.849   1.301
73983W        W37916  33.435  10.347   5.252
73984W        W37917  27.557   8.160  13.461
73985W        W37918  29.038   9.808   2.269
73986W        W37919  37.425  15.132   3.252
73987W        W37920  14.334   1.838   4.202
73988W        W37921  11.233   7.176   1.359
73989W        W37922  15.317  13.822  13.811
73990W        W37923   2.334  13.724   4.348
73991W        W37924   8.333  33.618  10.899
73992W        W37925   4.895  37.028  12.370
73993W        W37926  20.108  11.708  13.790
73994W        W37927  40.905  33.984  10.968
73995W        W37928  29.076   5.767  10.557
73996W        W37929  27.000  31.079  14.373
73997W        W37930  17.606  14.763   3.695
73998W        W37931  44.334  18.277   3.311
73999W        W37932  15.773  40.892   0.840
74000W        W37933  33.446  18.249  11.077
74001W        W37934  41.980   4.835   5.192
74002W        W37935  32.061  23.070   3.378
74003W        W37936   3.795  11.821  14.832
74004W        W37937  15.753  11.344   1.442
74005W        W37938   7.374  15.713   1.437
74006W        W37939  26.026   0.263  14.417
74007W        W37940  15.654  36.910  14.477
74008W        W37941  35.486  34.573  12.825
74009W        W37942  36.510  39.942  14.847
74010W        W37943  15.225  29.022  14.783
74011W        W37944  42.906  38.464  14.274
74012W        W37945  24.706   2.859  14.491
74013W        W37946  44.902  19.121  12.026
74014W        W37947   5.931  40.455   3.169
74015W        W37948  18.642  23.017  13.479
74016W        W37949  25.036  16.592   4.681
74017W        W37950  26.115   4.902   2.393
74018W        W37951  40.519  32.046  14.794
74019W        W37952   4.220  33.381   4.656
74020W        W37953  32.521  11.240   4.353
74021W        W37954  37.392  18.608   4.291
74022W        W37955  28.624  26.166  12.981
74023W        W37956  43.864  15.261  14.795
74024W        W37957   2.461  17.760   1.262
74025W        W37958  44.363  19.178  12.931
74026W        W37959  34.439  29.573  10.473
74027W        W37960  20.198  37.052  11.963
74028W        W37961  23.010  22.578  12.433
74029W        W37962  40.337  31.597   4.172
74030W        W37963   0.804  25.985  10.963
74031W        W37964  41.947  26.984   3.243
74032W        W37965   4.807  26.477   0.778
74033W        W37966  16.123  26.674   1.933
74034W        W37967  26.696  19.660  10.516
74035W        W37968  16.237   3.296   2.249
74036W        W37969  10.732  27.984  12.342
74037W        W37970  26.513  24.982  11.068
74038W        W37971  39.836   0.823   1.353
74039W        W37972  27.196  32.569   4.747
74040W        W37973  43.421  36.852   2.772
74041W        W37974  22.033   5.834  14.434
74042W        W37975  14.736  34.604  12.418
74043W        W37976  14.223  21.657   3.685
74044W        W37977  22.605  18.072  10.952
74045W        W37978  41.809  23.587  10.406
74046W        W37979  40.910  11.836   4.228
74047W        W37980  23.602  18.677   4.660
74048W        W37981  42.347  15.176  11.378
74049W        W37982   4.247  39.968   2.284
74050W        W37983  23.004  13.663   1.393
74051W        W37984   2.362  19.114  13.042
74052W        W37985  11.193   7.325   3.641
74053W        W37986  16.276   0.821  11.428
74054W        W37987   5.701  11.206  10.556
74055W        W37988   6.883  19.185   2.308
74056W        W37989  28.958  15.212  12.360
74057W        W37990  10.234  29.665   3.186
74058W        W37991   8.162   2.336   0.767
74059W        W37992   0.267  44.983   0.456
74060W        W37993  40.533   0.432  12.072
74061W        W37994  21.173  18.087  10.932
74062W        W37995  19.644  12.621   2.189
74063W        W37996  44.793   7.754  11.858
74064W        W37997  38.978  28.568   1.842
74065W        W37998  26.637   2.273   3.664
74066W        W37999  16.100  10.781   0.829
74067W        W38000  11.235   4.889   4.825
74068W        W38001   9.159   4.830  13.881
74069W        W38002  41.987  40.524  13.509
74070W        W38003   8.655  22.707   3.306
74071W        W38004  10.251  44.914  11.129
74072W        W38005  36.427   3.737  12.417
74073W        W38006  10.730  38.835  10.486
74074W        W38007  40.363   7.282  11.601
74075W        W38008  37.849  31.046  12.548
74076W        W38009   1.971  42.780  13.315
74077W        W38010  16.723   6.250  12.944
74078W        W38011  12.702   8.393   9.999
74079W        W38012  43.923   2.387   3.152
74080W        W38013   4.792  21.662  14.020
74081W        W38014  17.615  12.784  13.849
74082W        W38015  36.050   2.749   4.740
74083W        W38016   6.257  38.383  12.856
74084W        W38017  42.993   3.305   0.928
74085W        W38018  29.969   4.293  11.980
74086W        W38019  41.904  32.464   4.650
74087W        W38020  40.483  24.168  12.872
74088W        W38021  11.367  17.290  14.295
74089W        W38022   0.987  15.636   4.697
74090W        W38023   4.784  28.588  14.846
74091W        W38024  14.114  27.964   3.644
74092W        W38025  32.034  32.438  13.932
74093W        W38026  16.732  35.405  10.441
74094W        W38027  41.386   9.363   3.700
74095W        W38028  29.142  40.503  14.359
74096W        W38029   3.947  42.284   2.744
74097W        W38030   3.718  10.158   2.235
74098W        W38031  17.681  42.015   9.446
74099W        W38032  15.163  33.896  10.964
74100W        W38033  24.146  41.823   0.444
74101W        W38034  34.954  28.994   2.353
74102W        W38035  32.508  17.137   3.766
74103W        W38036  37.383  36.589  11.546
74104W        W38037  31.597  14.625   4.172
74105W        W38038  10.323  29.952   4.769
74106W        W38039  28.187  34.462   1.322
74107W        W38040  18.197  30.593  12.457
74108W        W38041  31.610   4.895  10.428
74109W        W38042  21.690   2.303   4.776
74110W        W38043   6.800  42.981  13.053
74111W        W38044   3.765  28.947  11.523
74112W        W38045  41.967  38.828   4.309
74113W        W38046  35.570  39.989  11.900
74114W        W38047  43.359  15.200   3.377
74115W        W38048  19.248  26.958  11.538
74116W        W38049   4.280   9.217   4.802
74117W        W38050   5.902  21.632  13.883
74118W        W38051  42.354   2.289   1.265
74119W        W38052   0.909  23.098   0.773
74120W        W38053  42.796  28.476   1.326
74121W        W38054  43.290   9.212  13.320
74122W        W38055  28.436  37.883  12.492
74123W        W38056  29.059   2.903   1.840
74124W        W38057  31.132   7.380  11.005
74125W        W38058  13.673  15.140  13.514
74126W        W38059  44.424   7.710   2.817
74127W        W38060   6.270  27.529  13.904
74128W        W38061  30.094  19.052   1.399
74129W        W38062  15.138  40.434   3.852
74130W        W38063  38.439  19.233   2.220
74131W        W38064  38.325  42.878   4.295
74132W        W38065  12.258   8.808   1.297
74133W        W38066  26.550   0.806   9.612
74134W        W38067  34.920  43.900  12.556
74135W        W38068   3.280  17.142  14.358
74136W        W38069  41.855  33.001  13.839
74137W        W38070  23.233  20.235   1.383
74138W        W38071  18.545  32.017  10.897
74139W        W38072  44.329   0.481   1.777
74140W        W38073   3.328  13.767  13.373
74141W        W38074   8.250  25.546  12.448
74142W        W38075  15.815  22.163   2.741
74143W        W38076  38.878   9.151   2.212
74144W        W38077  29.529   2.946  13.431
74145W        W38078  32.593  42.516  12.898
74146W        W38079   8.186  31.598  14.859
74147W        W38080  19.563  16.703  12.944
74148W        W38081   9.380  25.530  13.533
74149W        W38082  24.156  38.908   1.353
74150W        W38083  12.753  42.789  12.570
74151W        W38084  27.988  18.783   9.976
74152W        W38085  17.798  38.950   3.150
74153W        W38086  16.731   4.816  13.901
74154W        W38087   7.822  44.898  14.369
74155W        W38088   1.482  15.757  14.326
74156W        W38089   4.225  18.197   0.817
74157W        W38090   6.335  27.170   1.708
74158W        W38091  37.422  27.940   3.739
74159W        W38092  22.212  31.574  14.469
74160W        W38093  42.296  29.001  13.462
74161W        W38094   1.267   3.389   3.264
74162W        W38095   1.842  15.288  12.557
74163W        W38096  33.904  24.667   4.781
74164W        W38097  41.025  15.616  10.997
74165W        W38098  31.628   3.848   4.311
74166W        W38099  16.270  31.943  10.433
74167W        W38100  19.559   0.856   4.214
74168W        W38101   9.199  11.862   3.313
74169W        W38102  41.931  28.578   2.295
74170W        W38103  13.122   7.353   1.812
74171W        W38104  43.890   5.693  13.420
74172W        W38105  33.526   4.762  11.922
74173W        W38106  15.666  14.215  12.011
74174W        W38107  11.166   1.355   4.823
74175W        W38108   2.775  38.351  12.890
74176W        W38109  27.956  21.025   4.834
74177W        W38110  43.325  22.596   2.789
74178W        W38111   8.896  39.816  14.462
74179W        W38112  11.710  39.943  10.553
74180W        W38113  15.233  27.546  11.010
74181W        W38114  42.872  30.534   3.656
74182W        W38115  23.072   7.905  11.018
74183W        W38116  16.671  36.041   4.241
74184W        W38117  18.645  13.203   1.428
74185W        W38118   3.837  26.161   2.892
74186W        W38119  11.292  29.506  12.869
74187W        W38120  24.170  11.199   0.732
74188W        W38121   6.879  11.202   3.330
74189W        W38122  20.147  40.923  13.018
74190W        W38123  11.270  19.099   2.294
74191W        W38124  12.649  34.085   4.227
74192W        W38125  23.177  15.146   3.289
74193W        W38126  40.991  38.359   5.168
74194W        W38127  36.984   8.661   4.617
74195W        W38128  31.528  42.407  13.907
74196W        W38129  32.893  10.201  10.633
74197W        W38130  16.223  34.519   3.386
74198W        W38131  23.566  31.093  14.789
74199W        W38132   4.441  36.506  14.901
74200W        W38133   5.766  39.429   0.311
74201W        W38134   8.682  30.026   0.738
74202W        W38135  21.176   4.413  10.511
74203W        W38136  16.296  28.136  14.812
74204W        W38137   4.247   5.915   1.920
74205W        W38138  37.452  22.524   2.751
74206W        W38139  19.701  30.119   3.270
74207W        W38140   3.810  21.137  12.490
74208W        W38141   2.388  31.638   4.662
74209W        W38142  43.416  20.627  13.884
74210W        W38143   8.159   4.813  10.427
74211W        W38144   1.396  26.670   1.349
74212W        W38145  36.490  27.195   3.654
74213W        W38146  13.230  13.261  13.527
74214W        W38147  19.776   3.317   2.723
74215W        W38148  16.215  44.268   1.835
74216W        W38149  29.504  25.678   3.794
74217W        W38150   5.873  17.705   0.964
74218W        W38151  21.569   2.917   3.339
74219W        W38152  23.123  23.995   0.863
74220W        W38153  36.850  28.583   3.165
74221W        W38154  30.549  28.025   0.328
74222W        W38155  17.300   4.257  11.945
74223W        W38156  31.943   0.478  12.944
74224W        W38157  25.012  17.743   3.670
74225W        W38158  11.792   2.883  13.411
74226W        W38159  30.110  26.197  10.472
74227W        W38160  25.712  22.689   4.769
74228W        W38161  32.533   1.339  13.819
74229W        W38162  13.189   4.748   5.320
74230W        W38163  29.030  20.230   0.740
74231W        W38164  38.506  40.466  11.479
74232W        W38165  10.693   5.691   4.141
74233W        W38166  10.256  39.548  14.434
74234W        W38167  23.665  38.996  13.807
74235W        W38168  34.075  33.917  13.951
74236W        W38169   0.923  42.850  14.470
74237W        W38170   5.358  40.530   1.247
74238W        W38171  24.624  30.980   0.920
74239W        W38172  17.164   3.859  13.869
74240W        W38173  32.963   1.866   0.427
74241W        W38174  40.019  20.657  11.024
74242W        W38175  38.997  10.311   4.233
74243W        W38176  40.000   4.822  10.940
74244W        W38177   2.293  17.267  11.961
74245W        W38178   4.814  42.297  10.478
74246W        W38179  43.398   4.293   4.176
74247W        W38180  36.936   1.335   2.829
74248W        W38181  22.714  43.002   4.710
74249W        W38182  39.469   6.740   3.668
74250W        W38183  34.417   8.251   4.624
74251W        W38184  20.666  17.705  12.391
74252W        W38185  14.635  30.161  11.923
74253W        W38186   3.306  18.749   0.311
74254W        W38187  41.380   2.435   1.704
74255W        W38188  11.352   2.382   4.259
74256W        W38189  34.516  18.121  11.427
74257W        W38190  17.781  44.847  12.938
74258W        W38191  10.770  26.503  10.440
74259W        W38192  37.854  30.110  13.496
74260W        W38193  29.573  32.411  14.413
74261W        W38194  13.677  26.981   1.805
74262W        W38195  33.405   0.425   0.362
74263W        W38196  31.149  40.806   4.782
74264W        W38197  25.980  14.320  12.535
74265W        W38198  28.146   3.888   0.362
74266W        W38199  38.553  34.588  14.963
74267W        W38200   0.864   4.796   4.331
74268W        W38201  38.359  18.641   1.721
74269W        W38202  29.592   2.392   1.376
74270W        W38203  39.426   8.220   1.330
74271W        W38204   0.367   4.402  10.916
74272W        W38205  21.699  38.041   4.154
74273W        W38206  15.207  11.864  12.969
74274W        W38207   2.939  24.619   0.944
74275W        W38208  33.121  21.148   2.332
74276W        W38209   4.785  17.647  13.898
74277W        W38210  12.804  30.125  14.453
74278W        W38211   7.213  31.902   0.831
74279W        W38212  19.607  10.192   1.274
74280W        W38213  19.766  25.978  13.904
74281W        W38214  11.303  28.678   3.678
74282W        W38215  30.035  21.114  10.516
74283W        W38216  44.482  24.502   2.831
74284W        W38217   7.361  43.452   0.747
74285W        W38218  31.472  10.665  13.040
74286W        W38219   3.446  11.813   3.651
74287W        W38220  24.011  20.613   3.269
74288W        W38221  27.039   6.289  11.418
74289W        W38222  33.127  26.545   1.359
74290W        W38223  28.504  41.001   2.309
74291W        W38224   1.906   1.342  12.836
74292W        W38225  34.107  21.090   1.799
74293W        W38226   4.339  41.972  14.847
74294W        W38227  23.716   1.905  11.061
74295W        W38228  43.513  21.727   0.324
74296W        W38229  21.717   1.468  11.876
74297W        W38230   8.236  17.689  13.805
74298W        W38231  13.627  31.946  10.999
74299W        W38232  13.843   0.406  11.442
74300W        W38233  27.196  23.116  14.448
74301W        W38234  18.699  16.204  14.963
74302W        W38235   6.357  31.922   1.805
74303W        W38236  12.223   5.687   5.256
74304W        W38237  21.574  18.642   2.756
74305W        W38238   9.877  20.097  12.999
74306W        W38239  23.015  15.783  11.008
74307W        W38240  21.261   8.345   2.325
74308W        W38241  44.493  19.093   2.227
74309W        W38242   8.305   9.281  12.546
74310W        W38243  12.759  41.963  11.508
74311W        W38244   4.259  42.524   2.392
74312W        W38245  24.480  30.140  14.899
74313W        W38246  33.581  38.563  11.977
74314W        W38247  30.442  22.110  11.079
74315W        W38248  44.805   8.190  13.405
74316W        W38249  13.782  16.268  12.493
74317W        W38250  32.459  28.631  11.088
74318W        W38251  33.487  25.655   3.687
74319W        W38252   3.760  18.116  11.375
74320W        W38253  18.724  12.748  12.963
74321W        W38254  19.766  15.812   1.338
74322W        W38255  34.433  31.455   3.281
74323W        W38256  40.432   0.474   1.416
74324W        W38257  42.469  42.928   3.698
74325W        W38258  38.513  25.627   4.353
74326W        W38259  41.018  17.654   3.792
74327W        W38260  27.160  43.415  11.565
74328W        W38261  25.001  12.191   1.876
74329W        W38262   5.886  18.696   4.125
74330W        W38263  22.090  39.827  13.925
74331W        W38264   8.730  30.941  14.427
74332W        W38265  40.540  10.139  13.531
74333W        W38266  43.309  40.436   1.416
74334W        W38267  29.574  26.463  13.532
74335W        W38268  36.071  29.996  10.431
74336W        W38269  37.482  39.865  14.293
74337W        W38270  22.012  12.681   4.838
74338W        W38271  36.048  39.952  12.436
74339W        W38272   6.789  12.678  12.462
74340W        W38273  41.019  40.306   3.761
74341W        W38274  18.268  22.182   0.773
74342W        W38275  35.514  21.243   0.938
74343W        W38276  12.775  29.457  14.957
74344W        W38277  26.552  12.648  10.531
74345W        W38278  26.017  37.007  11.927
74346W        W38279   0.777  17.676   3.326
74347W        W38280  15.238  34.480  10.973
74348W        W38281  21.547  32.525  14.308
74349W        W38282  37.985  14.108  13.936
74350W        W38283   5.836  18.612  12.379
74351W        W38284  42.516   2.854  13.319
74352W        W38285  31.010  19.087   3.306
74353W        W38286  38.456  20.266  13.843
74354W        W38287  19.630  33.578  13.503
74355W        W38288  34.421  16.097   4.712
74356W        W38289  13.175   5.927   3.751
74357W        W38290  32.469  31.910  13.928
74358W        W38291  11.785  10.728  14.383
74359W        W38292  22.519  39.813  10.551
74360W        W38293   7.747  26.640  11.597
74361W        W38294  26.463  20.102   0.824
74362W        W38295  31.648   3.751  11.562
74363W        W38296   6.774  31.920  10.544
74364W        W38297  42.959  21.562   4.142
74365W        W38298   5.821  33.914  14.868
74366W        W38299  33.626  29.615   4.187
74367W        W38300  39.553  25.076   1.779
74368W        W38301  15.596  38.404   2.235
74369W        W38302  15.708  30.086  11.950
74370W        W38303  42.438  19.652   2.217
74371W        W38304  35.997   8.336   3.162
74372W        W38305  17.680  37.867  13.043
74373W        W38306   8.328  18.779  11.893
74374W        W38307  40.347  40.490   4.243
74375W        W38308  34.936  37.976  13.975
74376W        W38309  33.552   5.222  10.510
74377W        W38310  15.260  34.605   4.692
74378W        W38311  15.133  17.666  11.612
74379W        W38312  28.466  25.101  13.473
74380W        W38313  31.974   4.813  11.460
74381W        W38314  29.923  29.992   4.308
74382W        W38315  23.523  34.516  12.989
74383W        W38316  34.424  37.469   3.164
74384W        W38317   1.276   6.301   2.856
74385W        W38318  19.266  27.446  12.002
74386W        W38319  24.215  37.534   0.293
74387W        W38320   3.883  15.619  14.353
74388W        W38321   2.273  34.458   4.783
74389W        W38322   0.278  29.508  12.087
74390W        W38323  42.340   0.942   2.891
74391W        W38324  15.229  33.537  13.823
74392W        W38325  19.059  11.702   4.629
74393W        W38326  12.319  23.196   2.340
74394W        W38327  33.591  14.644  14.452
74395W        W38328  25.714  32.004   2.777
74396W        W38329  26.164  18.628  13.972
74397W        W38330  19.280  40.816   1.806
74398W        W38331  30.031  15.823  14.283
74399W        W38332  29.161   3.810   2.767
74400W        W38333  36.456   5.902   1.705
74401W        W38334  11.711   1.465  13.881
74402W        W38335  33.449  13.796   4.212
74403W        W38336  10.657  11.793   2.198
74404W        W38337  23.189   2.857   4.336
74405W        W38338  42.940  31.603   2.831
74406W        W38339   7.364  22.232  12.003
74407W        W38340  42.377  17.100  13.877
74408W        W38341  37.854   5.430   3.337
74409W        W38342  37.571  22.194   2.213
74410W        W38343  40.458  33.897   1.379
74411W        W38344  14.662  26.038  11.540
74412W        W38345  21.230  36.973  11.025
74413W        W38346  44.420  14.293   3.809
74414W        W38347  21.570  24.039  11.511
74415W        W38348  10.226  19.635  10.997
74416W        W38349  15.225  33.004  14.390
74417W        W38350   4.292  31.153  13.517
74418W        W38351  40.935  30.032   0.262
74419W        W38352  43.425   5.787   3.287
74420W        W38353  37.377  11.212  12.486
74421W        W38354  34.521  13.244  12.844
74422W        W38355  17.666  35.520   2.303
74423W        W38356  27.112  28.011   0.852
74424W        W38357  22.671  42.011  13.353
74425W        W38358  27.650  28.150  13.898
74426W        W38359  43.453  13.137  11.595
74427W        W38360  21.521  27.544  11.974
74428W        W38361  34.872  18.704  13.506
74429W        W38362   5.206  39.427   4.784
74430W        W38363   4.404  26.499   4.711
74431W        W38364   6.814   4.259  14.836
74432W        W38365   1.887  36.921   4.173
74433W        W38366  23.593  37.954   1.831
74434W        W38367   5.873  40.404   3.864
74435W        W38368   8.312  11.160  13.985
74436W        W38369  34.592  30.943  12.472
74437W        W38370  16.740   7.202  13.844
74438W        W38371  12.312  41.323   4.838
74439W        W38372  39.507  13.750   1.760
74440W        W38373  36.000  30.046   1.305
74441W        W38374  29.118  21.037   0.944
74442W        W38375  27.546  40.981   3.247
74443W        W38376  29.138  28.663  12.823
74444W        W38377  17.153   9.650   3.178
74445W        W38378  18.179  28.442  11.521
74446W        W38379  17.136  23.076  14.988
74447W        W38380  18.172  15.215  12.966
74448W        W38381  27.083  11.239   4.762
74449W        W38382  20.584   2.367   1.878
74450W        W38383   0.829  28.521   1.407
74451W        W38384  29.517  13.810   3.237
74452W        W38385  40.851  28.029   3.175
74453W        W38386  18.175   4.223   3.729
74454W        W38387  39.397   0.784  12.017
74455W        W38388  38.824  33.959   1.750
74456W        W38389  27.498  44.447  13.910
74457W        W38390  13.788  13.671   1.367
74458W        W38391  36.561  15.582  13.814
74459W        W38392   5.407   0.433  14.981
74460W        W38393  12.621  34.481  12.995
74461W        W38394  44.264   8.792   1.257
74462W        W38395   4.875  36.039  10.460
74463W        W38396  37.894  35.423  12.428
74464W        W38397  30.437  29.952   2.886
74465W        W38398  40.339  31.505  11.979
74466W        W38399  33.526   6.227   3.175
74467W        W38400  10.290   1.830  11.915
74468W        W38401  30.077  18.294  10.409
74469W        W38402  11.825  24.595   1.871
74470W        W38403   1.938  24.686  11.452
74471W        W38404  43.505  26.646  13.897
74472W        W38405  39.911   4.267   3.780
74473W        W38406  42.004   3.432   2.740
74474W        W38407  31.946  40.003  11.473
74475W        W38408  30.005  36.938  12.955
74476W        W38409  44.346   7.785  10.508
74477W        W38410  11.257  13.639   1.239
74478W        W38411  16.310  21.093   0.873
74479W        W38412  10.767  38.419  11.398
74480W        W38413  39.976   8.841  14.490
74481W        W38414   0.471  16.290   2.820
74482W        W38415  41.864  20.593  13.058
74483W        W38416  33.884  31.003   2.768
74484W        W38417   5.833  10.312   1.732
74485W        W38418  25.658  29.558   0.817
74486W        W38419  15.804  25.967   4.754
74487W        W38420   1.907   8.330   3.223
74488W        W38421  13.655  17.278   1.303
74489W        W38422   6.278  20.186   4.160
74490W        W38423  40.814  32.413   3.819
74491W        W38424   3.251   9.680  13.466
74492W        W38425  19.150  30.085   3.146
74493W        W38426  33.906  39.459  14.928
74494W        W38427  18.711  42.026  13.456
74495W        W38428  28.995  44.820   3.177
74496W        W38429   5.933  31.527   1.226
74497W        W38430  10.227  40.512   1.792
74498W        W38431  10.762  24.626   4.794
74499W        W38432  44.885  41.878  12.969
74500W        W38433  23.182  20.094  11.081
74501W        W38434  34.970   3.254  11.516
74502W        W38435  29.615  36.004   4.615
74503W        W38436  27.547  20.535   3.631
74504W        W38437  44.811  17.751  14.813
74505W        W38438  37.005   1.892   4.144
74506W        W38439   8.351   0.854  14.301
74507W        W38440  13.691  37.845  10.412
74508W        W38441  33.539   0.917   4.730
74509W        W38442  20.230   3.774  11.477
74510W        W38443  14.733  35.869   0.334
74511W        W38444   6.214   6.797   2.768
74512W        W38445   9.196  24.721  13.886
74513W        W38446   4.285  22.008   0.403
74514W        W38447  11.368   8.794  14.991
74515W        W38448  27.574  19.533   1.235
74516W        W38449  17.682   4.437   1.416
74517W        W38450  42.950  18.667   3.799
74518W        W38451  41.353  34.961   3.803
74519W        W38452  32.452  43.309  13.491
74520W        W38453  22.644  12.667  13.801
74521W        W38454  23.715  14.693  14.847
74522W        W38455  11.798  21.185   3.154
74523W        W38456  11.745  18.174   9.998
74524W        W38457   0.895   8.206  13.804
74525W        W38458  20.233  14.320  10.949
74526W        W38459  18.213  25.544   3.802
74527W        W38460  36.022  11.763   2.878
74528W        W38461  41.455  11.303  11.920
74529W        W38462   9.161  34.077   2.707
74530W        W38463  19.697   6.355  14.440
74531W        W38464  41.475  16.197  14.953
74532W        W38465  32.468   0.787   1.848
74533W        W38466  34.865  27.500  14.992
74534W        W38467  41.010  30.119  14.990
74535W        W38468  44.898   3.760   2.207
74536W        W38469  25.572  23.493  12.931
74537W        W38470  38.564   3.827  11.011
74538W        W38471  41.881  36.583   0.745
74539W        W38472   0.876   8.787  13.453
74540W        W38473  30.962   9.244  13.806
74541W        W38474  21.568  28.043   5.235
74542W        W38475   3.952  11.146  10.558
74543W        W38476  41.806  41.454  14.762
74544W        W38477  24.515  21.598  14.846
74545W        W38478   1.892   7.832   0.818
74546W        W38479  34.448  29.658  10.955
74547W        W38480   4.426  29.166   2.275
74548W        W38481   7.254  43.364  13.007
74549W        W38482   7.880  36.994  14.811
74550W        W38483  42.899  37.580  10.038
74551W        W38484  13.730  20.201  12.892
74552W        W38485  25.112   1.907   4.208
74553W        W38486  24.225  22.736  12.361
74554W        W38487  17.606   1.935  12.022
74555W        W38488  41.844  10.845  14.859
74556W        W38489  22.619  22.194   0.329
74557W        W38490  30.012   8.228   2.394
74558W        W38491  21.258  14.802  14.448
74559W        W38492  18.733  22.059   4.181
74560W        W38493  22.609  21.711   4.707
74561W        W38494  15.173   3.315  14.806
74562W        W38495  33.978  13.157  12.897
74563W        W38496  24.225  19.644  12.029
74564W        W38497   3.802  34.909   2.280
74565W        W38498   3.925   6.838   4.720
74566W        W38499  34.534  44.989  13.871
74567W        W38500  24.033   2.731   4.185
74568W        W38501  41.987  40.535   2.692
74569W        W38502   3.431   2.466   2.848
74570W        W38503  10.785  30.620  13.393
74571W        W38504  13.635   5.266  13.017
74572W        W38505  38.020  44.934   3.786
74573W        W38506  21.222  12.855  10.891
74574W        W38507   8.346  38.514  12.475
74575W        W38508  25.001  27.556  13.993
74576W        W38509  16.780  25.006  10.422
74577W        W38510  30.518   9.292  11.032
74578W        W38511  30.970  19.622  11.396
74579W        W38512  39.549  16.191   4.782
74580W        W38513  24.110   2.737  11.448
74581W        W38514  22.155   5.401   4.165
74582W        W38515  26.600  26.610  10.123
74583W        W38516  16.254  17.630  12.058
74584W        W38517  40.392   1.882   1.220
74585W        W38518  21.589   2.898   2.847
74586W        W38519  14.767  44.777  14.865
74587W        W38520  11.704  13.175   3.224
74588W        W38521  43.442  32.117   2.249
74589W        W38522  13.636  34.094   0.794
74590W        W38523  38.065  11.783  13.396
74591W        W38524  44.404   9.834   3.246
74592W        W38525  42.882  30.618  14.846
74593W        W38526  44.304   9.185  12.009
74594W        W38527  32.100   4.243  13.881
74595W        W38528  43.803  40.335  13.869
74596W        W38529   6.240   1.959  10.988
74597W        W38530   2.241  16.749   3.299
74598W        W38531  16.665  12.239  12.436
74599W        W38532  10.780  28.138  12.905
74600W        W38533  25.020   2.861   2.202
74601W        W38534  39.369  33.978  11.462
74602W        W38535  18.681  19.241   0.477
74603W        W38536  42.451  34.571  14.831
74604W        W38537  13.280  34.566  13.459
74605W        W38538  24.597   0.252   3.201
74606W        W38539  30.433   5.904   4.710
74607W        W38540  38.493  35.544   4.727
74608W        W38541  19.111  29.966   0.446
74609W        W38542  39.030   8.211  13.444
74610W        W38543  21.232  25.044  10.608
74611W        W38544   3.904  11.326  13.444
74612W        W38545  18.727  16.729  13.346
74613W        W38546  12.638  19.207  11.946
74614W        W38547  18.761  26.558  12.895
74615W        W38548  43.948  26.065   0.815
74616W        W38549   1.334  11.221   3.155
74617W        W38550  19.744  20.115  14.471
74618W        W38551  30.960   9.314  14.299
74619W        W38552  18.220  21.038  12.576
74620W        W38553  43.302   5.904  13.872
74621W        W38554  41.952   2.770   3.372
74622W        W38555   8.806  15.740  14.018
74623W        W38556   3.890   3.724   1.732
74624W        W38557  34.883  36.060  11.517
74625W        W38558  32.991  22.028   1.301
74626W        W38559  32.474  34.002   1.248
74627W        W38560  32.976  32.043  14.815
74628W        W38561  40.941   5.315  11.992
74629W        W38562  23.003  29.967   1.912
74630W        W38563  20.065  26.662   3.862
74631W        W38564  15.628  34.536   0.769
74632W        W38565  23.987  29.010  12.852
74633W        W38566  41.395  10.866   3.263
74634W        W38567  39.962  11.283  12.880
74635W        W38568  17.593  28.448  11.069
74636W        W38569   4.802  32.936   1.910
74637W        W38570  13.133  32.094  11.968
74638W        W38571   4.822   6.738  12.521
74639W        W38572  32.120  30.054   1.347
74640W        W38573  25.122  30.080  10.451
74641W        W38574  44.466  39.319   3.676
74642W        W38575  28.111   4.781   5.296
74643W        W38576  19.608   4.423  13.457
74644W        W38577  10.771  11.757   0.967
74645W        W38578  13.638   9.813   1.719
74646W        W38579  24.020  27.130  11.396
74647W        W38580  18.673   7.763  13.971
74648W        W38581  30.468  12.629  13.321
74649W        W38582  28.087   2.324   3.372
74650W        W38583  36.052  22.047   4.250
74651W        W38584   4.820  16.267   1.826
74652W        W38585  33.095  20.566   1.794
74653W        W38586  39.365  23.657   0.838
74654W        W38587   7.832  37.991  10.951
74655W        W38588  17.706  12.268  14.923
74656W        W38589  34.398  14.330   3.785
74657W        W38590  14.823  39.364  13.824
74658W        W38591  10.147  38.020  11.029
74659W        W38592  42.860  11.684   3.756
74660W        W38593  43.347  20.220  14.466
74661W        W38594   8.812  37.960   2.256
74662W        W38595  38.539  43.341  10.541
74663W        W38596  18.280  21.060   1.218
74664W        W38597  41.875  14.729   3.850
74665W        W38598  27.085   5.204  11.948
74666W        W38599  22.166  10.811   1.790
74667W        W38600  14.321  43.483   1.228
74668W        W38601  25.213   6.214   3.799
74669W        W38602  31.405  20.154  13.814
74670W        W38603  17.113  40.545   1.355
74671W        W38604  26.080  25.549   3.678
74672W        W38605  26.170  11.815  14.011
74673W        W38606   1.241   3.813  14.820
74674W        W38607  10.197  24.719  11.970
74675W        W38608  32.983  41.965  14.962
74676W        W38609   5.410  25.677  13.902
74677W        W38610   6.353   9.240   3.646
74678W        W38611  44.967  38.938   3.766
74679W        W38612  32.010  16.104   3.236
74680W        W38613  16.695  41.330   3.789
74681W        W38614  21.019  11.629  11.527
74682W        W38615   0.971   9.772  14.383
74683W        W38616   0.261   8.677  13.954
74684W        W38617  36.090  12.163   1.395
74685W        W38618   5.830  10.253  12.392
74686W        W38619  36.087  28.124  12.549
74687W        W38620   4.329   9.185   3.633
74688W        W38621  11.243  13.717  10.469
74689W        W38622   8.729  25.964  13.894
74690W        W38623  26.200   5.798   4.802
74691W        W38624  18.250  18.295   0.910
74692W        W38625  15.608  30.470   9.983
74693W        W38626  17.782   0.251  13.501
74694W        W38627  43.337  14.181   5.317
74695W        W38628  17.269  24.049  12.907
74696W        W38629  28.540  15.634  13.018
74697W        W38630  36.586  31.978  14.979
74698W        W38631  36.868  15.639  11.953
74699W        W38632  24.527  32.490   4.761
74700W        W38633   4.277  14.116  10.462
74701W        W38634  33.575  32.013  14.448
74702W        W38635  14.751  20.594   0.956
74703W        W38636   1.435  41.520  13.434
74704W        W38637  23.640  33.463   0.756
74705W        W38638  29.118  17.084  10.535
74706W        W38639   6.308  32.060  12.873
74707W        W38640   4.749  23.228   2.674
74708W        W38641   2.816  15.796  10.440
74709W        W38642  30.055  21.226   4.646
74710W        W38643  38.402  27.531   2.813
74711W        W38644   0.833  44.311  12.546
74712W        W38645  40.336  24.718   0.296
74713W        W38646  42.297   3.399   1.931
74714W        W38647   2.231  40.325   3.177
74715W        W38648  38.348  20.754  10.905
74716W        W38649  38.032   1.392   4.121
74717W        W38650   6.301  12.277   0.329
74718W        W38651  19.058  13.203  11.929
74719W        W38652  12.715  23.162  10.543
74720W        W38653  14.634  22.093   4.212
74721W        W38654  21.531  24.212  10.076
74722W        W38655  44.337  15.122  11.531
74723W        W38656  44.804  28.037   2.325
74724W        W38657  28.674  37.057   1.802
74725W        W38658  44.994   4.803   1.852
74726W        W38659  14.274  41.369  12.943
74727W        W38660  16.710  27.062   2.667
74728W        W38661  21.213  26.700   1.403
74729W        W38662  21.607   4.447  14.826
74730W        W38663   1.945   2.869   3.678
74731W        W38664  13.150   4.883  12.933
74732W        W38665  14.237  42.846  12.053
74733W        W38666  36.466  38.947  13.818
74734W        W38667  15.649  27.964   3.802
74735W        W38668  17.723  29.042  13.014
74736W        W38669  29.536  10.243  12.443
74737W        W38670  38.467  32.970   1.418
74738W        W38671  41.037  21.524  11.989
74739W        W38672  41.878  18.285  10.465
74740W        W38673  22.507   0.967   2.844
74741W        W38674  37.542  11.211   2.784
74742W        W38675   6.837  15.126   3.363
74743W        W38676  20.230   1.338  13.340
74744W        W38677  24.706   9.293  10.632
74745W        W38678   6.795   1.315   0.243
74746W        W38679  41.790   3.743   4.301
74747W        W38680   8.840   6.782   3.292
74748W        W38681  25.653  18.103   0.242
74749W        W38682  14.631  26.655  13.521
74750W        W38683  39.350  11.646   4.792
74751W        W38684  36.489  33.615   4.828
74752W        W38685   4.925  32.544   0.423
74753W        W38686  25.655  40.412   4.828
74754W        W38687  20.738  43.978   4.621
74755W        W38688  29.435  15.173   3.347
74756W        W38689  26.659  36.446  10.605
74757W        W38690  31.113   5.911  10.418
74758W        W38691  35.015   8.301   0.839
74759W        W38692  19.121  29.992  11.469
74760W        W38693  30.960   0.401  10.902
74761W        W38694  34.599  39.472   4.144
74762W        W38695  15.631  30.907  11.604
74763W        W38696  41.988  39.963  14.881
74764W        W38697  39.039  42.453   2.342
74765W        W38698   7.804  35.962  10.934
74766W        W38699  25.015  18.212  13.461
74767W        W38700  21.174  26.020   0.834
74768W        W38701  32.065  27.139  12.910
74769W        W38702  16.101  30.609   0.279
74770W        W38703  11.189  44.336  12.518
74771W        W38704  28.504  32.904   2.753
74772W        W38705  27.183   1.909  14.980
74773W        W38706  19.177  23.511  10.570
74774W        W38707  22.209  23.138  14.354
74775W        W38708  10.263  21.640   3.300
74776W        W38709  33.532   5.875  10.624
74777W        W38710  13.155  39.477   2.408
74778W        W38711  12.656   4.279  10.052
74779W        W38712  41.872   7.835   3.739
74780W        W38713  15.296  21.089   0.858
74781W        W38714  40.974  22.535   3.783
74782W        W38715  20.706   3.450   3.663
74783W        W38716   2.817   6.783   0.399
74784W        W38717  19.754  11.701  12.912
74785W        W38718   4.413  13.831  14.943
74786W        W38719  13.609  34.979   4.123
74787W        W38720  11.129  12.139  10.927
74788W        W38721  16.579   0.908  14.018
74789W        W38722  26.069  23.200   3.857
74790W        W38723  34.459   2.311  12.917
74791W        W38724  17.215  17.759   3.385
74792W        W38725  38.334  43.410   2.888
74793W        W38726  27.520   6.246   2.207
74794W        W38727  17.597   9.328  11.487
74795W        W38728   9.175  24.091   1.408
74796W        W38729  38.825  30.543   2.764
74797W        W38730  27.109  28.964  12.434
74798W        W38731   4.307  35.890   3.713
74799W        W38732  43.959   2.935  14.817
74800W        W38733  17.765   4.330   4.773
74801W        W38734  22.141  13.799  13.819
74802W        W38735  28.956  14.605   3.804
74803W        W38736  17.281  37.069  11.593
74804W        W38737  43.388   1.364  13.020
74805W        W38738  29.575  23.606  10.440
74806W        W38739  24.087   0.302  11.964
74807W        W38740  37.380  19.194  10.641
74808W        W38741  40.798  20.263   0.336
74809W        W38742  36.903  22.211   3.253
74810W        W38743  14.772  36.533   1.283
74811W        W38744   9.797  40.386   4.719
74812W        W38745  21.210  28.541   0.335
74813W        W38746  39.437  10.219   1.271
74814W        W38747   4.714  40.347   0.447
74815W        W38748  37.355  16.216   4.202
74816W        W38749  31.974  41.816   1.857
74817W        W38750  26.463   7.853   0.776
74818W        W38751   0.348  39.054   1.852
74819W        W38752  39.064  32.522   3.868
74820W        W38753  36.432   2.884  11.025
74821W        W38754  28.136  25.700  13.314
74822W        W38755  12.178  34.554   0.903
74823W        W38756  40.489  21.677  10.508
74824W        W38757  42.465  24.708   4.830
74825W        W38758  39.315  28.439  11.408
74826W        W38759  39.420  40.412   0.462
74827W        W38760  37.530  29.065  14.858
74828W        W38761  12.664  14.810   1.900
74829W        W38762  31.634  10.733   2.335
74830W        W38763  33.594  10.643   4.242
74831W        W38764  32.017  17.676  14.440
74832W        W38765  24.502  10.805  12.845
74833W        W38766   9.229  29.650  13.010
74834W        W38767  31.970  24.149   4.169
74835W        W38768   9.375  31.938  14.858
74836W        W38769   8.856  32.977   2.391
74837W        W38770   7.731  37.538  13.912
74838W        W38771  19.697  20.630  10.987
74839W        W38772  23.205  15.100  13.353
74840W        W38773  40.316  28.537   2.216
74841W        W38774  39.918  18.119   4.688
74842W        W38775   7.711   0.255  10.528
74843W        W38776   1.902  27.518  13.840
74844W        W38777  14.686  21.125  10.538
74845W        W38778  30.149  36.846   2.863
74846W        W38779  20.148  29.558   3.812
74847W        W38780  40.801  43.811  14.276
74848W        W38781  32.614  36.513   2.705
74849W        W38782  38.822  25.130   1.709
74850W        W38783  14.602  24.639  13.365
74851W        W38784  43.504  19.550   3.790
74852W        W38785   0.296  33.929   2.745
74853W        W38786  10.160  12.667   1.236
74854W        W38787  10.636  31.560  13.541
74855W        W38788  25.986   9.248  14.394
74856W        W38789   4.761  42.493  14.484
74857W        W38790  15.118   3.869  13.438
74858W        W38791   1.340  26.197   3.729
74859W        W38792  43.426  34.581   3.239
74860W        W38793  26.204  29.922  12.353
74861W        W38794  12.702   0.371  11.102
74862W        W38795  25.478  25.122   1.885
74863W        W38796  10.278  28.531  13.916
74864W        W38797  20.032   7.685  14.467
74865W        W38798   9.668   9.734  13.966
74866W        W38799  26.531  36.085   2.233
74867W        W38800  19.629  40.981   3.280
74868W        W38801  12.762   6.284   4.807
74869W        W38802  36.870  30.050   3.299
74870W        W38803  21.142  36.081  11.959
74871W        W38804   0.922  28.074   0.878
74872W        W38805  20.045  31.931   1.423
74873W        W38806  43.869  13.655  10.507
74874W        W38807  24.714  34.570   0.459
74875W        W38808  32.442  38.564   3.633
74876W        W38809  32.078  12.352   0.733
74877W        W38810  20.727  24.660   2.716
74878W        W38811   5.873  29.983  11.972
74879W        W38812  10.652  26.648  14.296
74880W        W38813  44.900   8.686   0.476
74881W        W38814  18.677   4.734  13.886
74882W        W38815  35.051  42.790   3.678
74883W        W38816   4.411  30.911  11.420
74884W        W38817  33.501  17.796  13.524
74885W        W38818   3.247   8.217  14.396
74886W        W38819  42.032  32.024   9.971
74887W        W38820  33.609  32.132   0.383
74888W        W38821   8.795  18.223  14.928
74889W        W38822  13.201  10.841   2.340
74890W        W38823   2.911  44.894   4.233
74891W        W38824  38.859   1.848   9.935
74892W        W38825  19.746  14.172  13.441
74893W        W38826   6.918  29.484  11.881
74894W        W38827  34.098  10.279   0.371
74895W        W38828  42.424   7.175  11.422
74896W        W38829  41.463  40.317   4.603
74897W        W38830  22.697  43.983   4.602
74898W        W38831  41.029  37.462  10.991
74899W        W38832   8.762  20.051  12.894
74900W        W38833  24.674  41.839  14.378
74901W        W38834  26.159  17.790  10.434
74902W        W38835   6.328   2.917  13.007
74903W        W38836  18.077  29.667  14.825
74904W        W38837  10.368  15.708   0.829
74905W        W38838  14.209  26.153   0.413
74906W        W38839  10.730  29.474  11.523
74907W        W38840   3.953   7.879   3.375
74908W        W38841  43.276  14.637   0.402
74909W        W38842  28.145   1.964  13.024
74910W        W38843  15.696   4.828   3.655
74911W        W38844  25.494  37.006   4.251
74912W        W38845  18.624   1.833   1.698
74913W        W38846   7.758  33.396  10.983
74914W        W38847   6.695  11.292   3.853
74915W        W38848  28.945   2.812  10.985
74916W        W38849  27.529  12.777   3.261
74917W        W38850  26.118  20.134   0.780
74918W        W38851  12.760  27.049   0.458
74919W        W38852   0.860  14.670   2.346
74920W        W38853  20.237  10.851   2.257
74921W        W38854  39.341  10.665   3.720
74922W        W38855  29.964  35.898   0.957
74923W        W38856   2.879  26.507   4.113
74924W        W38857  11.843  44.345  14.860
74925W        W38858   4.359  13.152   1.433
74926W        W38859  30.113  44.863   1.925
74927W        W38860  37.056  43.322   0.388
74928W        W38861  24.119  44.755   0.427
74929W        W38862  24.197   0.285  14.458
74930W        W38863  38.068  10.805   2.699
74931W        W38864   5.245   6.383  11.551
74932W        W38865  26.166   6.290  13.011
74933W        W38866  39.848   2.324  12.381
74934W        W38867  18.208  16.621   5.580
74935W        W38868  15.303  41.992   0.333
74936W        W38869  16.244  44.418  12.432
74937W        W38870  14.209  20.155   4.624
74938W        W38871  40.509  30.965  13.943
74939W        W38872  22.572  24.027   3.830
74940W        W38873  35.576  39.367   1.235
74941W        W38874  31.623  34.416   3.694
74942W        W38875   7.694  40.387  11.492
74943W        W38876  28.596   6.820  10.427
74944W        W38877  39.377   6.300   4.302
74945W        W38878  25.664   9.726  12.833
74946W        W38879   2.344   6.833  13.368
74947W        W38880  31.411  43.423   4.196
74948W        W38881  14.759  37.050  12.862
74949W        W38882  35.963   8.832  13.470
74950W        W38883  20.558  10.252  11.108
74951W        W38884  10.263  36.982   2.839
74952W        W38885  21.717  19.073   1.711
74953W        W38886  43.497  26.002   3.148
74954W        W38887  28.553   4.856   2.270
74955W        W38888  22.066  26.583   1.795
74956W        W38889  18.173  40.906   5.289
74957W        W38890  12.159  25.476   2.677
74958W        W38891  33.937  33.538   4.637
74959W        W38892  11.816  18.129  14.426
74960W        W38893   9.239  39.422   0.414
74961W        W38894   5.769  16.274   4.743
74962W        W38895  25.533  28.063  12.416
74963W        W38896  40.363  42.784   0.422
74964W        W38897  37.554   4.941  12.549
74965W        W38898  25.120  27.630  10.952
74966W        W38899  24.496   5.813   2.286
74967W        W38900   7.356  28.980   0.372
74968W        W38901   5.743  10.652  14.848
74969W        W38902   8.390  26.046  14.479
74970W        W38903  20.064  24.659   4.624
74971W        W38904  36.370  39.506  14.760
74972W        W38905  36.857  14.715  11.875
74973W        W38906  34.083  40.822  11.891
74974W        W38907  38.336   1.355   1.854
74975W        W38908  43.361  23.497  13.944
74976W        W38909  41.437  25.487  14.320
74977W        W38910  31.524   0.312  12.567
74978W        W38911   8.237  23.076  11.970
74979W        W38912  11.733  12.835   4.255
74980W        W38913  39.043   2.263   0.284
74981W        W38914  35.906  31.905   0.430
74982W        W38915  29.656  41.975   0.855
74983W        W38916   7.235  33.457  14.007
74984W        W38917   6.769  35.037  12.371
74985W        W38918  44.988  24.507  12.016
74986W        W38919  13.845   8.678   3.777
74987W        W38920  43.814  26.120  10.960
74988W        W38921  34.595  36.951  13.860
74989W        W38922   9.394  21.020  10.068
74990W        W38923  18.135   7.362   0.828
74991W        W38924   0.855   0.977   2.192
74992W        W38925  42.504  18.787  14.341
74993W        W38926  17.064  11.365   4.342
74994W        W38927  21.037  13.115  11.961
74995W        W38928   0.825  41.383   4.727
74996W        W38929  35.907  26.009   0.288
74997W        W38930   1.477  17.756   2.194
74998W        W38931   2.944  11.724   4.250
74999W        W38932   8.898  44.309  14.305
75000W        W38933   8.711  21.188   2.275
75001W        W38934  39.898  22.182   3.636
75002W        W38935  15.697  30.563   2.729
75003W        W38936   3.359  14.198  11.958
75004W        W38937  42.788   4.766   5.081
75005W        W38938  44.453  19.671  11.986
75006W        W38939   2.735   5.348  12.049
75007W        W38940  43.806  11.354  12.959
75008W        W38941   4.839  40.024  11.043
75009W        W38942  10.766  16.670  11.432
75010W        W38943   6.866  37.968  13.840
75011W        W38944   6.836   1.950   1.435
75012W        W38945  31.989  36.374  14.485
75013W        W38946  24.723  29.062  13.907
75014W        W38947  16.794  34.941  10.599
75015W        W38948  17.786  24.137  13.334
75016W        W38949  27.074  32.406   3.185
75017W        W38950  13.258  14.763  14.352
75018W        W38951  41.894  37.914  12.475
75019W        W38952   7.801  30.093  12.974
75020W        W38953  20.161  34.543   0.336
75021W        W38954   8.223   7.826   2.198
75022W        W38955  21.180  37.367   4.822
75023W        W38956  15.276  29.451   1.361
75024W        W38957  14.328   2.227  13.393
75025W        W38958  36.370  20.595   1.731
75026W        W38959  28.673  44.422  12.887
75027W        W38960  44.268   8.175  14.981
75028W        W38961  20.136  27.594   2.249
75029W        W38962  26.536  29.452   2.825
75030W        W38963  20.632  12.360   3.255
75031W        W38964  38.444   6.393   0.470
75032W        W38965  25.577  34.879  12.357
75033W        W38966  13.225  21.260  12.532
75034W        W38967  43.809  20.747   2.323
75035W        W38968  31.007  27.451   1.239
75036W        W38969  20.044  14.325  11.428
75037W        W38970  44.420   2.780  13.037
75038W        W38971  26.510  15.229   3.248
75039W        W38972  35.572  15.706  14.512
75040W        W38973  34.074  38.875  14.893
75041W        W38974   5.895  29.646   1.763
75042W        W38975  20.631  43.793   0.366
75043W        W38976  26.482  26.649   1.382
75044W        W38977   0.820  33.570  11.990
75045W        W38978  10.338  28.664   2.380
75046W        W38979  22.052  21.034  14.885
75047W        W38980  20.587  11.370   2.752
75048W        W38981  36.447   8.190  13.412
75049W        W38982  23.008  13.743  14.358
75050W        W38983   4.844  28.660   3.730
75051W        W38984   4.442   0.801  12.485
75052W        W38985  10.160  40.481  12.475
75053W        W38986  14.248  41.478  14.857
75054W        W38987  27.615  30.953   2.718
75055W        W38988  11.357  11.306  13.535
75056W        W38989  16.239  39.431   2.331
75057W        W38990  15.606  24.990  13.816
75058W        W38991  44.301  31.538  10.565
75059W        W38992   2.738  37.998   3.736
75060W        W38993  25.649  41.806   4.629
75061W        W38994  23.559  19.653   3.722
75062W        W38995   6.231   5.250   5.260
75063W        W38996  27.575   8.669   0.964
75064W        W38997  41.808  36.873   2.851
75065W        W38998  13.195   5.417  10.117
75066W        W38999  10.845   6.403   3.200
75067W        W39000  27.011  16.742   2.775
75068W        W39001  19.699  37.987   0.455
75069W        W39002   1.477  38.069  14.916
75070W        W39003  38.834  19.240  12.446
75071W        W39004  27.448  16.270  13.894
75072W        W39005  23.117   4.367   3.748
75073W        W39006  39.471  40.885  11.450
75074W        W39007   6.799  32.475   3.717
75075W        W39008  11.347  31.907   0.380
75076W        W39009  11.321  38.073  10.588
75077W        W39010  30.489   6.356  11.557
75078W        W39011  16.193  18.213   0.415
75079W        W39012   3.324  33.413   0.967
75080W        W39013  19.581  29.107   2.391
75081W        W39014  33.525  27.615  14.471
75082W        W39015  43.423   0.948   3.279
75083W        W39016  31.138  22.223  12.845
75084W        W39017  38.559   5.850  13.921
75085W        W39018  13.777   0.979  13.877
75086W        W39019  31.611  38.862  14.499
75087W        W39020  43.505  41.404  11.904
75088W        W39021  20.121  20.739  11.019
75089W        W39022  10.809  28.141  14.938
75090W        W39023   6.402  29.655  14.847
75091W        W39024  36.476   2.815  12.359
75092W        W39025   2.231  23.555  12.951
75093W        W39026  30.482  18.755   2.856
75094W        W39027  41.873  10.829  10.507
75095W        W39028  44.332  38.549  13.854
75096W        W39029   1.320  41.394   4.611
75097W        W39030  23.593   1.785  12.466
75098W        W39031  25.191  28.562  13.508
75099W        W39032  38.425  19.245   0.875
75100W        W39033   4.440  19.548  13.930
75101W        W39034  25.625  44.924  14.463
75102W        W39035  14.239  34.430  14.014
75103W        W39036  11.150  10.805   1.280
75104W        W39037  30.489  33.889   1.776
75105W        W39038  34.056  21.588  12.825
75106W        W39039  27.173   6.246  11.954
75107W        W39040  44.332   3.408  14.993
75108W        W39041  23.516  43.513  10.601
75109W        W39042  31.508   9.186  13.511
75110W        W39043  42.877  38.431  11.382
75111W        W39044  13.748  19.097  11.099
75112W        W39045  22.020  27.036   0.752
75113W        W39046  42.493  39.936  11.117
75114W        W39047  16.781  36.946  13.385
75115W        W39048  34.538  24.622   1.419
75116W        W39049  25.710  14.253  10.636
75117W        W39050  39.058   5.261   1.734
75118W        W39051  42.410  35.943   9.654
75119W        W39052  20.663  22.210   3.642
75120W        W39053  32.489  33.905  13.850
75121W        W39054  25.139   7.729   0.396
75122W        W39055   5.242  32.999   3.637
75123W        W39056  33.915  44.379   4.250
75124W        W39057  12.299   3.755  12.092
75125W        W39058  42.882  36.998   2.894
75126W        W39059  24.714  31.440   4.195
75127W        W39060  28.934  37.507   0.792
75128W        W39061  16.126  43.297  11.867
75129W        W39062  22.619  35.442  13.909
75130W        W39063  36.404  41.467   1.229
75131W        W39064   9.253  32.530   1.805
75132W        W39065  24.534  14.337  10.912
75133W        W39066   4.771  12.640   0.907
75134W        W39067  32.432  37.995   3.329
75135W        W39068   9.815   2.892   2.778
75136W        W39069  23.241  34.993  10.532
75137W        W39070  31.559  23.720   3.721
75138W        W39071  18.194  42.387   1.732
75139W        W39072   9.178  42.794   4.264
75140W        W39073  30.961  10.200  12.866
75141W        W39074  31.108  31.527   0.481
75142W        W39075  42.976  16.316   0.892
75143W        W39076  15.310   8.233   0.334
75144W        W39077  37.960  26.019  10.961
75145W        W39078  31.517   7.872   2.334
75146W        W39079  31.489  13.217   2.415
75147W        W39080  12.195  26.193  12.919
75148W        W39081  15.120  41.940   1.365
75149W        W39082  31.005   5.389   0.475
75150W        W39083  13.720  37.545   9.940
75151W        W39084  14.762  11.713  13.362
75152W        W39085   1.811  41.352   1.375
75153W        W39086  28.584  15.164   1.449
75154W        W39087   4.342  42.963  14.854
75155W        W39088  29.171  19.050  12.341
75156W        W39089   3.449  27.516   4.766
75157W        W39090   8.766  10.790  13.028
75158W        W39091  40.981  34.581  10.415
75159W        W39092  33.902  18.248   0.473
75160W        W39093  14.776  17.197   4.341
75161W        W39094  26.108  37.517  12.059
75162W        W39095  40.830  23.016   3.282
75163W        W39096  32.514   4.915   3.687
75164W        W39097  20.697  11.283   3.751
75165W        W39098  41.946  35.563  11.452
75166W        W39099  33.077   4.255   4.345
75167W        W39100  24.619  28.578  13.847
75168W        W39101  17.745   2.925  10.562
75169W        W39102  25.573  32.120  12.562
75170W        W39103   3.800   7.770   1.297
75171W        W39104  42.027   2.837  11.475
75172W        W39105   0.322  26.668  14.337
75173W        W39106  37.487  41.969  11.922
75174W        W39107   6.763  37.344   0.963
75175W        W39108   2.298  19.259   0.253
75176W        W39109   3.220   9.340  10.937
75177W        W39110  23.722  16.272  13.526
75178W        W39111  29.037   8.195   0.749
75179W        W39112  14.733  13.714   0.815
75180W        W39113  38.922  38.336  10.454
75181W        W39114   5.202  34.096   0.751
75182W        W39115  44.972  41.493  12.900
75183W        W39116   5.826  23.154   4.696
75184W        W39117  16.298  41.342  11.960
75185W        W39118   6.236  38.854   2.301
75186W        W39119  26.002  24.548   1.915
75187W        W39120  20.089  44.905  11.500
75188W        W39121   2.927  32.979  12.979
75189W        W39122   8.385   3.330  11.898
75190W        W39123  17.602   4.922  13.335
75191W        W39124  22.557   2.338   1.780
75192W        W39125  29.973   8.763  12.341
75193W        W39126  13.744  15.163   0.783
75194W        W39127  34.024  26.463   0.930
75195W        W39128  10.260   6.808  13.884
75196W        W39129  34.007  24.517  14.314
75197W        W39130  14.188  39.325   2.892
75198W        W39131  21.518   1.742  12.390
75199W        W39132   4.933  40.373   2.714
75200W        W39133  30.496   4.861   3.739
75201W        W39134  18.269   1.742  14.342
75202W        W39135  27.961  41.875   0.282
75203W        W39136   3.403  15.160  14.893
75204W        W39137   3.342  15.788  10.601
75205W        W39138  26.588  33.894  13.876
75206W        W39139  15.658  12.750   0.937
75207W        W39140  27.113   1.453   1.221
75208W        W39141   3.738  24.625  14.487
75209W        W39142  35.357  14.707   3.356
75210W        W39143  12.322   2.423  14.916
75211W        W39144  19.138  11.302   4.333
75212W        W39145   7.277  10.269   4.839
75213W        W39146  41.026  25.103  11.872
75214W        W39147  35.023  24.501   3.846
75215W        W39148  23.171  34.947  14.433
75216W        W39149  15.607  10.740  13.462
75217W        W39150  16.584  28.584   0.795
75218W        W39151  30.537  14.803   0.476
75219W        W39152  36.405  27.626  10.540
75220W        W39153  25.049  15.298  11.527
75221W        W39154  30.450   9.829  13.524
75222W        W39155  11.713   7.908  11.473
75223W        W39156  39.892  34.402   0.299
75224W        W39157  28.166   8.173   0.921
75225W        W39158  27.987  33.504   5.257
75226W        W39159  19.608  18.058   0.859
75227W        W39160  42.513  20.568   4.220
75228W        W39161  39.996  24.091  12.470
75229W        W39162  13.121  21.126   5.263
75230W        W39163   7.697  16.731  10.602
75231W        W39164  15.173  35.367   3.636
75232W        W39165  31.514  21.652   2.683
75233W        W39166   4.205  11.763   2.252
75234W        W39167   2.365   3.778  13.308
75235W        W39168  31.085  38.825  12.368
75236W        W39169  43.982   6.341   1.368
75237W        W39170  26.174  32.103   1.449
75238W        W39171   2.302  16.260  10.954
75239W        W39172  22.544   1.351   1.392
75240W        W39173  15.661  19.749  14.291
75241W        W39174  12.330   2.272   4.694
75242W        W39175  41.805  15.104   1.397
75243W        W39176  35.530  17.169   1.441
75244W        W39177  35.520   4.911  12.429
75245W        W39178   6.416  30.561   0.368
75246W        W39179  41.008  16.187  14.897
75247W        W39180  10.307  23.581   3.698
75248W        W39181  37.347  10.203   2.198
75249W        W39182  18.597   4.319  11.964
75250W        W39183  38.937  19.285  12.965
75251W        W39184   9.766  15.750   3.344
75252W        W39185  32.994  13.637   3.756
75253W        W39186  31.112  14.207   1.726
75254W        W39187  29.999  25.111   4.709
75255W        W39188  39.378  18.234   4.742
75256W        W39189  19.275  37.079  11.050
75257W        W39190  35.992  17.580  13.456
75258W        W39191  21.214  17.083   2.727
75259W        W39192   0.793  13.244  11.993
75260W        W39193  13.791  14.813   2.415
75261W        W39194  27.953  43.408  12.395
75262W        W39195  36.856   2.405  12.515
75263W        W39196  36.906  19.175  14.852
75264W        W39197  26.976   7.808  13.314
75265W        W39198  27.157  36.039  12.081
75266W        W39199   9.867  40.831  14.389
75267W        W39200  32.947  32.599  12.058
75268W        W39201  18.751  40.361   2.754
75269W        W39202   6.857  26.493  11.993
75270W        W39203  17.735  33.913   2.750
75271W        W39204   3.262  37.005   4.327
75272W        W39205  21.255  19.670  11.006
75273W        W39206  36.429   4.920  12.515
75274W        W39207  16.119  40.421  14.905
75275W        W39208   3.947  17.637  14.300
75276W        W39209  35.602  43.985   0.773
75277W        W39210  37.561   4.730  14.941
75278W        W39211  31.571  37.417  14.025
75279W        W39212  36.348  28.072   0.728
75280W        W39213  36.973  28.038  14.461
75281W        W39214  13.706  39.875   4.187
75282W        W39215  10.640  41.352  13.522
75283W        W39216  19.045  31.401   3.321
75284W        W39217  11.855  27.584  11.998
75285W        W39218  26.168  28.050   2.701
75286W        W39219  29.072   9.269  11.978
75287W        W39220   2.295  36.978   0.967
75288W        W39221  31.132  21.512  12.463
75289W        W39222  41.912   2.352  12.394
75290W        W39223  38.013  43.980  11.934
75291W        W39224  36.910  41.913   3.665
75292W        W39225   6.398  32.628  13.334
75293W        W39226  23.595  18.230  13.010
75294W        W39227  17.609   4.882   1.302
75295W        W39228   5.413   4.313  13.512
75296W        W39229  21.096  43.458  12.509
75297W        W39230  30.016  13.319   1.369
75298W        W39231   9.760  27.946  14.319
75299W        W39232  36.369   2.242   4.622
75300W        W39233  32.936  36.433  13.926
75301W        W39234  26.174  44.830  12.045
75302W        W39235   5.204  43.298   4.750
75303W        W39236   9.192  30.102  14.429
75304W        W39237   6.837  32.514  12.892
75305W        W39238   2.879  40.377   2.376
75306W        W39239   7.275  34.430   0.868
75307W        W39240   5.783  31.949  12.476
75308W        W39241  40.408  13.823  14.339
75309W        W39242  22.736  30.058   0.363
75310W        W39243  16.572  12.684  11.551
75311W        W39244   6.361  33.460  11.856
75312W        W39245   5.699   1.460   2.864
75313W        W39246  42.460   9.881  10.606
75314W        W39247  29.537  12.230   2.337
75315W        W39248  37.388  35.511  12.928
75316W        W39249  41.939  15.322  14.761
75317W        W39250   4.272   4.824   2.299
75318W        W39251  32.942  18.116   0.430
75319W        W39252  11.243  17.603  13.358
75320W        W39253   5.328  12.259  12.843
75321W        W39254  38.342  18.089   2.788
75322W        W39255  22.188  26.110  12.415
75323W        W39256  43.365  44.342   0.449
75324W        W39257   1.356   7.217   1.921
75325W        W39258  32.453  44.390   4.644
75326W        W39259  43.940  17.258  14.999
75327W        W39260  22.028   8.297   0.309
75328W        W39261  15.093  28.583  11.497
75329W        W39262  36.481   1.874  13.503
75330W        W39263  36.900   4.306   2.766
75331W        W39264  28.127  27.533   3.814
75332W        W39265   7.219  26.107  11.542
75333W        W39266  38.524  12.814  12.356
75334W        W39267  22.669  25.120   3.705
75335W        W39268   1.875  35.068   3.775
75336W        W39269  29.513   1.402  10.642
75337W        W39270  13.802  24.062   3.362
75338W        W39271   4.834  11.281   4.678
75339W        W39272  26.118  44.295   2.286
75340W        W39273  26.639  24.071  14.023
75341W        W39274  32.418  19.716   4.269
75342W        W39275  21.710  43.430  12.372
75343W        W39276   0.945  27.120  13.477
75344W        W39277  20.203  40.332  11.116
75345W        W39278  25.568   7.359   4.703
75346W        W39279  39.386  25.200   5.160
75347W        W39280   9.697  42.958   4.279
75348W        W39281  22.575  34.985   1.763
75349W        W39282   2.443  42.365   2.320
75350W        W39283   1.384  42.871   4.116
75351W        W39284   7.890  40.545  13.839
75352W        W39285  18.164  39.410   3.673
75353W        W39286  23.101  38.058  12.886
75354W        W39287   4.933  36.039  12.079
75355W        W39288  32.066  32.442   2.372
75356W        W39289  27.451  33.410   3.338
75357W        W39290  25.095  18.052   4.833
75358W        W39291   2.418  21.588   4.661
75359W        W39292  38.484  16.191  10.532
75360W        W39293  13.291  42.358  11.065
75361W        W39294  17.181  13.327  14.890
75362W        W39295  19.059  29.424   5.151
75363W        W39296  42.343  20.137   4.126
75364W        W39297  18.646  40.520   3.305
75365W        W39298  32.582  38.943  12.083
75366W        W39299  36.507  21.059   4.289
75367W        W39300   6.699  41.474  10.964
75368W        W39301  39.999   0.420  10.619
75369W        W39302  34.912  44.902   1.257
75370W        W39303  29.637  32.395   3.794
75371W        W39304  41.856  31.479   4.704
75372W        W39305  19.222  35.929   4.638
75373W        W39306  17.772   8.776   4.294
75374W        W39307  42.790   0.934  12.828
75375W        W39308  34.426  14.705  14.323
75376W        W39309  33.884  25.542  11.083
75377W        W39310  40.379  33.115   0.846
75378W        W39311   0.977  44.957   4.752
75379W        W39312  22.164   9.749  13.509
75380W        W39313  41.532  23.691  10.908
75381W        W39314  27.010   0.257   5.576
75382W        W39315   2.355   5.883  13.050
75383W        W39316   7.284  24.997  14.442
75384W        W39317  44.876  43.319   0.466
75385W        W39318  40.367   0.424   0.381
75386W        W39319  41.914  28.532  11.898
75387W        W39320  13.283  24.987   1.930
75388W        W39321  10.768  17.177   1.879
75389W        W39322  16.733  40.342   2.226
75390W        W39323  38.927  27.662   4.246
75391W        W39324  21.517   6.685   4.833
75392W        W39325  28.527  22.041   2.325
75393W        W39326  30.615  39.451  13.470
75394W        W39327  14.261   2.279   3.248
75395W        W39328  21.178  37.983  10.003
75396W        W39329   4.344   8.246  14.499
75397W        W39330  29.551  17.073  13.360
75398W        W39331  18.105  15.122   2.838
75399W        W39332  34.441  19.061   3.274
75400W        W39333   7.905  33.466   2.379
75401W        W39334  37.894  29.595  13.413
75402W        W39335   8.739  14.822  11.113
75403W        W39336   4.777   6.231  12.871
75404W        W39337  22.140  17.612   4.822
75405W        W39338  36.352  36.012  12.394
75406W        W39339  33.126  44.890   4.207
75407W        W39340  39.537  18.209  12.433
75408W        W39341  34.878  10.735  10.468
75409W        W39342  29.500   6.758  13.855
75410W        W39343  37.931   6.190  10.109
75411W        W39344   3.772  32.477  10.604
75412W        W39345  40.326   6.326  12.464
75413W        W39346  39.369   8.850   2.754
75414W        W39347  42.820  15.211  14.781
75415W        W39348  39.845  40.410   1.395
75416W        W39349  27.959  14.275  13.811
75417W        W39350  41.421  10.735   4.612
75418W        W39351  32.989  42.977   1.393
75419W        W39352  21.609  33.943  11.535
75420W        W39353  13.269  39.403  10.895
75421W        W39354  41.464  19.267   3.159
75422W        W39355  43.006  35.604   4.186
75423W        W39356  36.463  12.184   2.205
75424W        W39357   6.809   2.348  13.447
75425W        W39358  10.804  16.611  12.500
75426W        W39359   4.824  40.431  13.531
75427W        W39360  23.229   3.222   1.395
75428W        W39361  40.800  30.491  12.547
75429W        W39362  40.997  31.944   0.284
75430W        W39363  43.841  27.493   3.217
75431W        W39364   3.360  30.483  11.127
75432W        W39365  20.752  19.230  13.808
75433W        W39366  36.034  36.065   1.301
75434W        W39367  10.758  41.338  14.490
75435W        W39368  37.915   0.251   4.192
75436W        W39369   7.175  27.486   5.198
75437W        W39370  18.631  32.413  13.419
75438W        W39371  21.549   7.882  11.922
75439W        W39372  19.542  18.292   2.865
75440W        W39373  35.857  41.987   1.859
75441W        W39374   3.906  13.819  14.483
75442W        W39375  16.573  44.461  10.433
75443W        W39376  26.629  24.525   3.197
75444W        W39377  32.540  12.832   2.736
75445W        W39378  23.660  16.154  11.987
75446W        W39379   5.888  13.345   0.830
75447W        W39380  41.531  35.519   1.904
75448W        W39381  15.211   9.222   3.169
75449W        W39382  18.051  29.173   0.424
75450W        W39383  29.588  18.770  10.614
75451W        W39384  31.059  27.151   0.956
75452W        W39385  43.919  27.191   4.612
75453W        W39386  19.541   5.425   4.352
75454W        W39387  40.999  32.419   1.706
75455W        W39388  43.017   6.885   1.867
75456W        W39389  12.841  18.102   0.304
75457W        W39390   1.839  29.985   2.770
75458W        W39391  14.209  38.469  10.948
75459W        W39392  34.490   6.703  14.449
75460W        W39393  24.481  36.947  10.551
75461W        W39394   6.408   2.783   1.448
75462W        W39395  19.124   9.242   4.607
75463W        W39396  42.886  37.376  14.430
75464W        W39397  18.205  12.243  10.898
75465W        W39398  17.585  19.638  14.359
75466W        W39399  16.704   5.885   2.879
75467W        W39400  17.189  16.659   1.404
75468W        W39401  10.290  41.875  13.450
75469W        W39402  14.132   8.864  10.579
75470W        W39403  39.901  42.459  13.995
75471W        W39404  22.109  44.832  12.870
75472W        W39405  39.816  18.095  14.439
75473W        W39406   9.773  27.108  14.485
75474W        W39407  43.797  37.976  14.884
75475W        W39408  19.620  38.952   1.842
75476W        W39409  30.151  27.606   2.894
75477W        W39410  18.664   0.453   1.338
75478W        W39411  11.689  41.441   1.277
75479W        W39412  32.970  32.462  10.644
75480W        W39413  12.233  31.902  11.598
75481W        W39414  34.879  35.077   3.317
75482W        W39415  20.080  23.154   0.950
75483W        W39416  24.532  20.548  12.509
75484W        W39417  24.214  18.713  14.901
75485W        W39418   9.213  36.462  12.931
75486W        W39419  40.516  43.795  14.367
75487W        W39420  28.641  12.836   0.405
75488W        W39421  14.596  31.499  12.470
75489W        W39422   7.365  13.200  11.519
75490W        W39423  15.803  32.544  14.837
75491W        W39424  11.740  22.521  14.453
75492W        W39425  18.276  28.623   0.272
75493W        W39426  10.368  37.898   1.886
75494W        W39427  15.282   1.767   0.310
75495W        W39428  29.099  16.657   1.793
75496W        W39429  27.104  30.952   4.755
75497W        W39430  43.476   4.240  12.865
75498W        W39431  29.002   5.386  11.535
75499W        W39432  42.877  32.405  11.441
75500W        W39433  11.157  17.280  13.828
75501W        W39434  38.059  26.100  11.551
75502W        W39435  37.543  22.650  11.014
75503W        W39436  32.980  17.156   0.260
75504W        W39437  44.915  41.526  13.897
75505W        W39438  36.420   6.771   2.781
75506W        W39439  16.187  42.860   1.935
75507W        W39440  33.940   3.217   1.260
75508W        W39441  39.319  11.786   0.456
75509W        W39442   3.846  20.108   1.828
75510W        W39443   1.280  38.464   4.351
75511W        W39444  31.552  26.526  11.934
75512W        W39445   9.215   5.209  12.828
75513W        W39446  19.202  42.483  10.980
75514W        W39447  13.235  26.536   0.368
75515W        W39448  21.678  26.492   3.659
75516W        W39449  34.043   0.835   4.168
75517W        W39450  17.570  27.060  13.851
75518W        W39451  15.790  39.377  12.427
75519W        W39452  35.563   2.252  13.042
75520W        W39453  32.621  31.607  12.049
75521W        W39454  14.328   4.860   5.288
75522W        W39455   7.273  42.286   1.812
75523W        W39456  20.163  33.078   4.704
75524W        W39457   5.273  20.228   2.187
75525W        W39458   2.834  19.041   3.709
75526W        W39459  12.277  11.215  11.059
75527W        W39460  29.471  15.688   0.761
75528W        W39461  43.971  44.411   4.340
75529W        W39462  31.897  36.464   0.452
75530W        W39463  43.874  22.674   2.864
75531W        W39464  18.644  34.487   2.825
75532W        W39465  12.633  10.727  13.503
75533W        W39466  29.057  24.500  10.440
75534W        W39467  37.976   3.810   4.700
75535W        W39468  30.147  23.101   1.882
75536W        W39469   4.897  18.599   2.198
75537W        W39470  19.219  15.235  13.891
75538W        W39471  26.508  13.154   3.323
75539W        W39472  25.061  40.016  10.432
75540W        W39473  11.709   0.916  11.114
75541W        W39474  44.360  41.424  14.013
75542W        W39475  14.129  43.887  14.926
75543W        W39476  13.726  20.603   2.333
75544W        W39477  18.614  20.672   4.287
75545W        W39478  43.019  11.682   3.282
75546W        W39479   6.838   5.762   3.273
75547W        W39480  38.919  41.838  11.860
75548W        W39481  17.786   5.415   9.586
75549W        W39482   5.216  12.777  12.542
75550W        W39483  32.611   7.316   2.187
75551W        W39484  33.991  13.279  12.487
75552W        W39485  33.968   1.764  10.598
75553W        W39486   7.899   4.935   3.634
75554W        W39487  28.163  40.507  10.893
75555W        W39488   6.897  11.293   1.213
75556W        W39489  40.998  38.413   4.159
75557W        W39490  44.285  17.720  13.420
75558W        W39491  43.275  11.632  13.993
75559W        W39492  23.225  27.003   2.718
75560W        W39493   6.857  36.086  11.481
75561W        W39494   2.883  25.081  14.459
75562W        W39495  20.185  14.627  11.936
75563W        W39496   1.256  12.164  12.484
75564W        W39497  16.077  34.399   1.805
75565W        W39498  22.667  14.814   1.771
75566W        W39499  20.067   2.911   1.308
75567W        W39500  14.682  37.545   0.407
75568W        W39501  26.490  15.294   2.722
75569W        W39502   3.734  17.112  11.467
75570W        W39503  32.119  34.375   0.803
75571W        W39504  38.986   7.195   4.697
75572W        W39505   7.867  15.715  11.573
75573W        W39506  29.438  19.665  12.917
75574W        W39507  36.567  40.878  10.531
75575W        W39508  11.218  21.023   2.872
75576W        W39509  40.436  10.769   2.750
75577W        W39510   0.444  23.178   0.877
75578W        W39511  32.435  24.226   0.777
75579W        W39512   3.829  29.950  10.573
75580W        W39513  39.945  25.495  10.932
75581W        W39514  39.064  33.047  13.830
75582W        W39515  20.207  26.573  12.890
75583W        W39516  21.727  35.564  12.934
75584W        W39517  10.295  41.977   1.847
75585W        W39518  44.454  28.940   1.862
75586W        W39519  28.566  20.585  10.540
75587W        W39520  33.894  29.023   0.408
75588W        W39521  13.646  26.491  11.885
75589W        W39522  22.699  37.477   1.355
75590W        W39523  17.656  37.491   3.366
75591W        W39524  30.438  19.053   2.865
75592W        W39525  25.070   8.870   4.264
75593W        W39526  13.215   9.295  11.952
75594W        W39527   7.861  42.903  13.411
75595W        W39528   4.800  28.979  10.405
75596W        W39529  36.399  17.107   4.113
75597W        W39530  18.113  25.196   1.819
75598W        W39531   1.326  40.931   0.341
75599W        W39532   6.851   5.284  14.945
75600W        W39533  43.302   2.449   3.832
75601W        W39534  30.142  14.657   1.409
75602W        W39535  21.100  43.331  13.364
75603W        W39536  29.480  13.821  14.832
75604W        W39537  28.480  24.994  11.013
75605W        W39538  42.821   9.777  11.469
75606W        W39539  27.544  28.101   2.809
75607W        W39540   7.417   9.363  14.305
75608W        W39541  13.625  16.603  12.548
75609W        W39542  28.660   9.869   4.828
75610W        W39543  38.478  16.652   2.741
75611W        W39544  24.059  12.344   3.743
75612W        W39545  24.020  33.445  13.884
75613W        W39546  33.453   8.314  12.431
75614W        W39547  11.704  43.439   3.668
75615W        W39548  28.965  17.795   2.867
75616W        W39549   6.340  29.159   2.794
75617W        W39550  14.153  20.048  14.367
75618W        W39551  11.744  23.565   1.738
75619W        W39552  20.226  36.572   3.174
75620W        W39553  33.027   9.275   2.239
75621W        W39554  19.720  17.586   0.948
75622W        W39555   7.182  40.017   4.649
75623W        W39556   0.777  36.989  11.005
75624W        W39557   3.354  10.197  11.420
75625W        W39558  41.521  27.666  13.406
75626W        W39559   3.384  15.154   3.698
75627W        W39560   1.833   1.860   3.257
75628W        W39561  23.730  13.799   4.782
75629W        W39562  33.932  28.990   4.349
75630W        W39563  37.359  19.076  13.447
75631W        W39564  41.869  21.615  14.975
75632W        W39565  10.784  10.260  10.540
75633W        W39566  18.090  43.814   0.895
75634W        W39567  22.688  15.628  13.003
75635W        W39568  13.146  35.549  11.599
75636W        W39569  10.183   0.770  10.500
75637W        W39570   3.934  23.516  13.806
75638W        W39571  26.137   3.777  12.352
75639W        W39572   6.840   0.367  10.437
75640W        W39573   4.792  15.110  11.550
75641W        W39574  35.028  27.017  11.509
75642W        W39575  42.861  38.948  10.060
75643W        W39576  44.502   1.391   0.927
75644W        W39577  13.204  27.556  10.527
75645W        W39578  11.244  21.632   2.739
75646W        W39579  16.683  33.385   4.288
75647W        W39580  27.554  38.966   1.782
75648W        W39581  23.728  10.326   0.761
75649W        W39582  33.106  10.716  10.963
75650W        W39583  30.474  25.659  12.514
75651W        W39584  20.163  30.513   2.878
75652W        W39585  23.030  37.458   4.140
75653W        W39586  41.791  29.598   9.948
75654W        W39587  13.813  12.343   1.433
75655W        W39588  26.029   5.896  10.492
75656W        W39589  28.605  15.084   3.732
75657W        W39590  22.052  29.462   0.821
75658W        W39591  33.456   3.880   0.351
75659W        W39592  25.027  18.155   0.444
75660W        W39593  28.028  34.466   0.899
75661W        W39594  37.564   6.802   2.709
75662W        W39595  18.786  37.459   5.182
75663W        W39596  37.510   3.339   0.339
75664W        W39597  24.664  12.139  12.457
75665W        W39598   9.809  36.565  11.044
75666W        W39599  31.522  44.359   4.145
75667W        W39600  11.700  25.087   2.270
75668W        W39601  40.400  23.227  13.892
75669W        W39602  13.318  25.149   3.839
75670W        W39603  34.020  13.651   0.292
75671W        W39604  17.259  36.876  13.994
75672W        W39605   1.918   9.747  12.989
75673W        W39606   4.381  23.557  10.901
75674W        W39607   5.890  20.536  14.001
75675W        W39608  30.143  36.588   4.250
75676W        W39609  31.620  22.618   2.782
75677W        W39610  23.696  24.060   3.691
75678W        W39611  29.063  25.483  14.484
75679W        W39612   0.297  14.170  10.599
75680W        W39613  42.008  17.102  14.990
75681W        W39614   3.816  10.700   4.311
75682W        W39615  27.083  40.043  11.460
75683W        W39616   7.415  35.570  14.296
75684W        W39617  38.076   5.398   1.899
75685W        W39618   0.432  23.729  13.836
75686W        W39619  30.099  41.852  14.902
75687W        W39620  22.200  28.520  14.490
75688W        W39621  43.894  29.088   1.336
75689W        W39622  39.001  13.259   3.853
75690W        W39623  20.644   4.898   4.317
75691W        W39624  37.853  35.883  10.064
75692W        W39625  40.378  37.887   1.428
75693W        W39626  33.462  39.493   3.205
75694W        W39627   5.298  27.987  12.833
75695W        W39628   5.730  23.650  14.968
75696W        W39629  37.576   0.921   3.256
75697W        W39630  20.048  23.551  11.089
75698W        W39631  41.959  28.673   2.896
75699W        W39632  16.764  40.484   1.711
75700W        W39633  17.296  15.155  10.896
75701W        W39634   0.251   6.398  12.044
75702W        W39635  35.393  12.291  14.833
75703W        W39636  13.751  40.511  11.550
75704W        W39637   5.865  27.196   4.751
75705W        W39638  11.693   3.253  12.358
75706W        W39639  17.616  42.928  10.996
75707W        W39640  17.728   8.360  12.345
75708W        W39641  10.673  32.998  12.019
75709W        W39642   6.399  12.211  10.890
75710W        W39643  20.204   0.380   1.385
75711W        W39644  24.230  22.657  11.468
75712W        W39645  31.037  17.075   4.752
75713W        W39646  44.819  29.639  13.869
75714W        W39647  27.520   7.726   4.622
75715W        W39648   5.299  13.657   3.178
75716W        W39649  43.833  12.791  13.064
75717W        W39650  16.203  43.415  13.846
75718W        W39651  33.105   1.328  11.448
75719W        W39652  41.385  26.120   2.879
75720W        W39653  23.082  11.671  14.416
75721W        W39654   0.258  32.503   1.355
75722W        W39655  33.977  14.242   5.177
75723W        W39656  42.839  37.582   0.821
75724W        W39657  25.015   8.877   0.846
75725W        W39658  23.539  39.021  14.878
75726W        W39659  18.602  41.370  10.054
75727W        W39660  12.274   2.849   0.747
75728W        W39661  11.348   3.330   3.161
75729W        W39662  13.827  29.668  13.039
75730W        W39663  34.042  21.540  14.482
75731W        W39664  43.992  12.239  11.934
75732W        W39665  30.658   8.856   4.636
75733W        W39666  26.668   9.660  13.866
75734W        W39667  42.858  29.547   4.300
75735W        W39668  14.628  36.856   0.879
75736W        W39669  32.410   8.711   1.864
75737W        W39670  26.614   6.757  14.873
75738W        W39671  19.756  32.461   1.935
75739W        W39672  30.912   2.900   1.723
75740W        W39673  43.429   5.398   4.300
75741W        W39674  32.971  39.886   4.828
75742W        W39675  15.733  39.955   1.258
75743W        W39676  41.439  39.542  13.417
75744W        W39677  29.519  11.309  11.519
75745W        W39678   5.333   9.178  12.489
75746W        W39679  37.963  22.560   1.902
75747W        W39680  20.582  19.680   2.729
75748W        W39681   1.386  26.068   2.697
75749W        W39682  28.493  26.164  11.024
75750W        W39683  38.979  38.898  14.888
75751W        W39684  43.817  24.204  10.597
75752W        W39685   9.750   8.678   2.320
75753W        W39686  40.939  10.296   0.964
75754W        W39687  14.683   7.252  13.348
75755W        W39688  33.402   4.328  13.819
75756W        W39689  28.044  12.147   4.335
75757W        W39690  38.336  43.321   2.316
75758W        W39691  10.199   4.903   3.648
75759W        W39692  37.920   2.249  12.894
75760W        W39693   0.893  38.041  11.510
75761W        W39694  27.994  34.474  11.049
75762W        W39695  37.460  22.662   0.300
75763W        W39696  13.761  27.162   2.681
75764W        W39697  22.240  26.474   0.365
75765W        W39698  13.344   4.213  12.560
75766W        W39699  14.191  22.131  14.367
75767W        W39700   9.645  24.571   3.330
75768W        W39701   5.743  25.194   0.357
75769W        W39702  16.635  12.329  12.014
75770W        W39703  24.062   1.806  12.532
75771W        W39704   9.668   9.731  14.830
75772W        W39705  31.586  20.046   3.857
75773W        W39706   8.863  12.801  14.397
75774W        W39707   5.794  15.122   4.255
75775W        W39708  20.212  13.831   1.270
75776W        W39709  11.754  38.075   1.933
75777W        W39710   0.846  13.828   1.865
75778W        W39711  21.223  16.172   4.754
75779W        W39712  17.185  36.510  12.415
75780W        W39713  19.103  41.891   2.854
75781W        W39714  21.118   4.854  13.882
75782W        W39715   0.362  44.907  12.438
75783W        W39716  25.036  10.847  14.295
75784W        W39717   3.867  28.600   0.379
75785W        W39718  32.068  11.646   3.768
75786W        W39719   4.945  44.267   1.843
75787W        W39720   9.875  30.605  11.497
75788W        W39721  35.451  30.517  14.854
75789W        W39722  11.845  34.384  14.509
75790W        W39723  13.123  33.498   4.266
75791W        W39724   1.740  38.067  11.860
75792W        W39725  29.969  12.319  12.566
75793W        W39726  22.013  44.473  11.527
75794W        W39727  28.442  39.526  14.775
75795W        W39728  17.717  17.098   1.859
75796W        W39729  14.275  20.629   4.769
75797W        W39730   5.308  33.402   0.858
75798W        W39731  15.183  28.943   4.244
75799W        W39732   4.930  29.040   2.384
75800W        W39733  33.111  13.682  11.438
75801W        W39734  41.384  28.938  12.011
75802W        W39735  28.677  39.950  13.990
75803W        W39736   6.214   2.413   4.647
75804W        W39737  23.735  17.701  12.029
75805W        W39738  38.857   3.947  13.498
75806W        W39739  20.062   9.644  10.466
75807W        W39740  37.485   6.725   1.803
75808W        W39741  44.999  17.245   1.400
75809W        W39742   0.954  18.189   3.701
75810W        W39743   6.864  27.079  13.953
75811W        W39744   6.777   9.377  13.350
75812W        W39745   3.778  42.787  12.567
75813W        W39746  13.151  32.078   0.781
75814W        W39747   5.259   1.774  11.978
75815W        W39748  22.687  29.033   1.906
75816W        W39749  26.096   8.741   9.935
75817W        W39750  16.210  21.580  13.926
75818W        W39751  29.045  39.971  12.373
75819W        W39752  10.265  30.159   1.901
75820W        W39753   6.722   2.793   0.884
75821W        W39754  10.377  41.015   3.328
75822W        W39755  10.642   7.900   3.730
75823W        W39756  36.504  11.624   3.201
75824W        W39757  12.245  18.682   0.446
75825W        W39758  13.320  36.347   3.712
75826W        W39759  12.361  16.242   2.323
75827W        W39760   0.916   8.169   0.287
75828W        W39761  13.316  30.487  12.002
75829W        W39762  24.070  19.159   3.241
75830W        W39763   5.867  32.055   2.252
75831W        W39764   7.849  12.692  11.035
75832W        W39765  33.555  12.308  10.526
75833W        W39766  26.156  19.057  14.827
75834W        W39767   4.828  27.163   4.785
75835W        W39768  30.991  32.466  11.584
75836W        W39769  44.302  21.018   9.930
75837W        W39770  34.565   8.372  13.406
75838W        W39771  27.550  31.970  13.542
75839W        W39772  28.099  22.707   2.358
75840W        W39773   5.932  30.997  12.564
75841W        W39774  27.470  36.936   0.765
75842W        W39775  11.757   2.870   4.247
75843W        W39776  29.169   0.380   1.739
75844W        W39777  29.056  11.638  12.910
75845W        W39778  33.106  32.104  12.037
75846W        W39779  18.706  31.952   2.259
75847W        W39780  29.021  38.967  11.911
75848W        W39781  14.297  11.812   0.247
75849W        W39782  10.872   0.431  10.969
75850W        W39783  34.425  25.020  10.574
75851W        W39784  16.573  42.781   0.327
75852W        W39785  34.602  25.168  11.475
75853W        W39786   0.806  28.177   3.311
75854W        W39787  36.023   5.412   2.407
75855W        W39788   1.876   2.417  10.644
75856W        W39789  37.578  21.718   2.266
75857W        W39790   5.279  30.140  14.870
75858W        W39791  42.386  19.575   3.361
75859W        W39792  16.213   0.479   1.417
75860W        W39793  22.626  12.315  14.862
75861W        W39794  27.552  34.370  13.433
75862W        W39795  44.867  11.282   4.834
75863W        W39796  32.462  41.320  14.864
75864W        W39797   3.889   6.751  11.381
75865W        W39798  35.439  40.978  14.860
75866W        W39799  44.948   1.861  13.917
75867W        W39800  19.557  31.556  11.439
75868W        W39801  42.327  30.603   2.890
75869W        W39802  22.649  13.764  11.961
75870W        W39803  11.365   0.472   0.849
75871W        W39804   3.439  31.924  13.356
75872W        W39805   0.460  19.717  11.562
75873W        W39806   4.744  14.275   0.466
75874W        W39807   2.392   9.149   3.276
75875W        W39808  24.493  43.310   1.823
75876W        W39809  17.700  20.669  10.107
75877W        W39810  16.808  29.585   1.741
75878W        W39811  28.139  42.409  10.468
75879W        W39812  29.162   3.416  10.412
75880W        W39813  28.006  40.473  12.928
75881W        W39814  25.194  37.431  13.437
75882W        W39815  35.916  16.793  11.128
75883W        W39816  41.496  33.121   2.756
75884W        W39817  17.580  15.659  12.996
75885W        W39818  44.504  12.846   0.797
75886W        W39819   2.342  19.543  11.498
75887W        W39820   8.795  26.638  14.500
75888W        W39821  37.557  27.674  14.765
75889W        W39822  43.012  33.877  13.352
75890W        W39823  18.115   5.312  14.903
75891W        W39824  39.926  13.800   0.817
75892W        W39825   4.832  13.844   4.339
75893W        W39826  39.014  11.127  13.339
75894W        W39827  26.162  17.145   4.285
75895W        W39828  22.248  24.153   1.891
75896W        W39829   7.356  33.060   1.429
75897W        W39830  14.318  12.214   0.338
75898W        W39831   3.766  41.852  13.395
75899W        W39832   6.278  18.685  10.411
75900W        W39833  29.501  23.543   1.343
75901W        W39834  15.328  17.131   3.163
75902W        W39835  30.450  33.560   2.415
75903W        W39836  12.849   5.370   2.345
75904W        W39837  38.406  22.082   1.759
75905W        W39838  17.229  33.988   3.307
75906W        W39839  43.509  26.993   4.313
75907W        W39840  11.218  27.459  13.037
75908W        W39841  10.185   1.768  11.005
75909W        W39842  22.634  23.625   3.847
75910W        W39843  41.323  40.818   1.834
75911W        W39844  32.119   9.711  11.891
75912W        W39845  43.997  21.255   4.821
75913W        W39846  16.742  13.191  12.565
75914W        W39847   2.337  17.089  14.000
75915W        W39848  10.368  32.974   3.378
75916W        W39849  29.089   3.296  11.994
75917W        W39850  40.310  29.571  14.309
75918W        W39851  13.609  39.982   0.898
75919W        W39852  34.542  38.021   3.319
75920W        W39853  31.081  13.304  13.546
75921W        W39854  21.632  15.817  10.041
75922W        W39855  16.659  42.282   2.211
75923W        W39856  20.688  15.253  13.054
75924W        W39857  22.033   6.245  14.319
75925W        W39858  10.718  32.081   0.427
75926W        W39859  16.188  33.558   3.653
75927W        W39860  26.552  20.685  11.518
75928W        W39861  34.885  44.903  10.946
75929W        W39862  14.141  23.039   1.289
75930W        W39863  35.945  11.812   3.264
75931W        W39864  14.658  25.522   3.819
75932W        W39865  18.192  36.587   2.754
75933W        W39866  29.453   7.356   2.899
75934W        W39867  39.845  11.720   1.351
75935W        W39868  23.580  40.505   0.784
75936W        W39869  13.323   4.423  14.014
75937W        W39870  21.716  39.560   1.703
75938W        W39871  22.736   6.354   0.461
75939W        W39872   8.280  35.962  11.074
75940W        W39873   6.907  23.984  13.060
75941W        W39874  40.431  12.257  12.358
75942W        W39875  41.962   6.831  13.543
75943W        W39876  17.710   3.869  11.524
75944W        W39877  10.825  35.969   0.796
75945W        W39878   3.842   7.775  14.795
75946W        W39879  35.427  29.589  12.906
75947W        W39880  13.286  33.440   4.626
75948W        W39881  43.801  41.958   1.247
75949W        W39882  21.028  30.542  10.626
75950W        W39883  26.090   0.828   1.241
75951W        W39884  21.693  11.305  12.999
75952W        W39885  14.677  15.784   0.244
75953W        W39886   6.347  44.269  10.581
75954W        W39887  39.479   7.801  12.842
75955W        W39888   9.750  12.626  13.927
75956W        W39889  17.772  20.662   1.872
75957W        W39890  40.497  43.302   3.795
75958W        W39891  43.365   4.853   9.968
75959W        W39892  30.593  25.148   1.334
75960W        W39893  40.923  36.891   0.758
75961W        W39894   8.782  36.406  13.414
75962W        W39895   0.758   1.383   1.746
75963W        W39896  23.619  32.583   2.275
75964W        W39897  14.250  17.750  14.373
75965W        W39898  33.129  18.220   0.958
75966W        W39899   4.886  29.971   1.308
75967W        W39900  10.227  19.180  12.515
75968W        W39901  26.473  41.330  10.115
75969W        W39902   1.798  25.122  11.538
75970W        W39903  20.059  25.970  10.924
75971W        W39904  44.773  31.106   0.272
75972W        W39905  19.277  12.290   4.182
75973W        W39906   0.775  44.387   3.351
75974W        W39907  22.174  13.109   2.387
75975W        W39908   4.768  29.605   2.869
75976W        W39909  30.641  32.607   0.845
75977W        W39910  26.518  11.740  10.595
75978W        W39911  44.330  13.259   1.736
75979W        W39912   8.661  13.810   4.169
75980W        W39913  10.140  25.061  11.008
75981W        W39914  21.026  21.539  12.863
75982W        W39915  11.330   0.454   2.729
75983W        W39916  40.371  28.515   3.782
75984W        W39917  19.092  29.548  10.986
75985W        W39918  28.542  36.842  11.445
75986W        W39919  37.928  33.475  13.349
75987W        W39920  36.509  14.687  12.046
75988W        W39921  13.118  21.634   2.292
75989W        W39922  19.129  33.087   4.298
75990W        W39923  17.281  18.747   1.401
75991W        W39924  36.037  25.970   3.316
75992W        W39925  26.572  23.039   1.405
75993W        W39926   8.334  32.418  10.625
75994W        W39927  41.000  17.104  13.434
75995W        W39928   8.235   9.811  11.385
75996W        W39929  19.623  27.118   4.230
75997W        W39930  26.184  26.203  13.882
75998W        W39931  19.589  31.073  11.054
75999W        W39932   6.345   9.674   1.878
76000W        W39933  31.102   9.373  10.494
76001W        W39934  20.760  43.016  11.579
76002W        W39935  18.727  29.954  11.550
76003W        W39936  32.060  36.877   4.759
76004W        W39937  29.589  13.720   2.894
76005W        W39938  20.533   8.806  10.411
76006W        W39939  25.676  24.616  14.923
76007W        W39940  11.624  10.234  10.565
76008W        W39941  10.199  23.726  11.509
76009W        W39942   6.422   7.820  12.039
76010W        W39943  29.063   2.377  12.048
76011W        W39944  15.126  15.666   3.854
76012W        W39945   9.885  36.396   1.247
76013W        W39946  22.650  40.941  14.916
76014W        W39947  20.034  27.085   2.732
76015W        W39948  29.976  19.606   0.834
76016W        W39949  35.940  23.599   1.926
76017W        W39950  44.382  10.342   4.671
76018W        W39951  27.563  40.999  10.498
76019W        W39952  41.922  30.445  10.542
76020W        W39953  23.639  31.614  12.925
76021W        W39954  24.205  44.332  11.899
76022W        W39955  44.262   5.410  10.418
76023W        W39956  41.460   5.293  10.508
76024W        W39957  35.100  12.644  12.026
76025W        W39958  33.879  34.924  14.787
76026W        W39959  14.180  39.998   2.268
76027W        W39960  26.140  24.525   1.355
76028W        W39961  32.965  40.505  14.000
76029W        W39962  11.215  31.032  11.020
76030W        W39963  29.975   6.347  12.035
76031W        W39964   2.931  16.315  11.959
76032W        W39965  17.659  31.091  14.485
76033W        W39966   5.855  18.163   0.943
76034W        W39967  15.664   4.856  11.601
76035W        W39968  37.864   2.820  11.436
76036W        W39969  38.472  35.060   0.321
76037W        W39970  32.488  10.305  11.601
76038W        W39971  42.352  43.493  13.943
76039W        W39972   1.306  14.770  14.802
76040W        W39973   3.236  24.590  13.000
76041W        W39974  24.005  12.841   0.795
76042W        W39975  14.656  35.464  12.904
76043W        W39976  27.152  11.166   0.351
76044W        W39977   9.189  24.999   1.374
76045W        W39978  12.272  33.079  13.893
76046W        W39979  13.300  18.721   0.272
76047W        W39980   4.884  43.837  11.528
76048W        W39981  40.814  35.544   1.244
76049W        W39982   6.814   6.189   3.631
76050W        W39983  36.955  18.164  10.961
76051W        W39984  20.160  40.911   0.294
76052W        W39985  44.365  12.120  11.101
76053W        W39986  40.463  36.960  10.640
76054W        W39987   0.257  41.028   2.335
76055W        W39988  15.113  16.778   4.295
76056W        W39989  41.506  16.687  14.761
76057W        W39990   5.739   1.271   3.637
76058W        W39991  24.142  39.347   4.139
76059W        W39992  38.364  11.743  14.504
76060W        W39993  10.253  23.122   3.822
76061W        W39994  18.070  32.552  11.926
76062W        W39995  38.007   1.346   1.837
76063W        W39996   3.437  16.649   0.890
76064W        W39997  34.483  16.185   0.824
76065W        W39998  42.796  40.402  13.889
76066W        W39999  21.216   1.802  12.528
76067W        W40000   9.872  40.013  10.564
76068W        W40001  30.467  11.796  14.456
76069W        W40002  11.815  42.963  11.007
76070W        W40003  28.148  27.172   4.138
76071W        W40004  14.673  35.603   1.306
76072W        W40005   1.882  21.020  12.377
76073W        W40006  10.795  43.461   4.196
76074W        W40007  19.060  31.408  11.952
76075W        W40008  30.970  27.531   2.730
76076W        W40009  11.658  38.929   4.213
76077W        W40010  30.141   0.886   1.261
76078W        W40011  35.898  35.026   5.224
76079W        W40012   8.799  42.830  12.501
76080W        W40013   6.841  36.379  13.059
76081W        W40014  17.300  28.942   3.325
76082W        W40015  33.524  17.688  12.351
76083W        W40016  25.202  16.200  14.331
76084W        W40017   4.821  16.766  14.836
76085W        W40018  39.461  28.072  14.375
76086W        W40019  28.450  10.740  12.019
76087W        W40020  18.088  20.583  14.418
76088W        W40021  34.393  11.195   4.782
76089W        W40022   9.390  13.625   0.363
76090W        W40023  20.170  29.594  13.018
76091W        W40024  21.755  28.931   3.373
76092W        W40025  40.893  30.973   0.263
76093W        W40026   8.792   4.299   0.329
76094W        W40027  33.104  22.617   4.238
76095W        W40028  35.422  17.737  12.924
76096W        W40029   1.295  29.445  12.095
76097W        W40030  37.012   6.832  14.798
76098W        W40031  25.654  30.458   0.732
76099W        W40032  44.943  21.067   3.649
76100W        W40033  37.977  41.862   1.916
76101W        W40034  40.849   8.236  14.414
76102W        W40035  28.177  23.599   9.941
76103W        W40036  24.210  41.519   3.306
76104W        W40037   1.243  16.297   0.269
76105W        W40038  30.449  22.249  10.441
76106W        W40039   4.944  14.155  13.038
76107W        W40040  11.189  23.588   4.672
76108W        W40041   7.700  20.541  11.506
76109W        W40042  39.034  31.590   2.411
76110W        W40043   0.276   3.764   3.768
76111W        W40044  23.107   6.902  12.470
76112W        W40045  31.990  32.004  10.953
76113W        W40046  28.583  14.170  12.892
76114W        W40047   5.737   2.863  13.432
76115W        W40048  20.591  18.262   2.310
76116W        W40049  39.507  15.226   4.615
76117W        W40050  35.413  38.876   4.636
76118W        W40051  40.429  26.586  12.865
76119W        W40052  38.344  33.045   3.857
76120W        W40053  14.644  19.541  10.949
76121W        W40054  26.538   8.786  12.916
76122W        W40055  17.094  38.965  10.485
76123W        W40056   1.906   4.372  13.044
76124W        W40057  28.040   5.819  14.384
76125W        W40058  26.690  19.636  13.036
76126W        W40059   9.660  30.629  14.325
76127W        W40060  37.480  11.802  12.848
76128W        W40061   9.849  31.101  12.341
76129W        W40062   5.213  42.343   2.304
76130W        W40063  39.039   6.269  12.962
76131W        W40064  23.093  14.114   0.941
76132W        W40065  27.061  32.886  10.595
76133W        W40066   7.309  41.919   2.311
76134W        W40067  12.308  32.936  13.055
76135W        W40068  31.487  37.913  13.329
76136W        W40069  33.414  34.056   4.197
76137W        W40070  44.483   5.308  14.421
76138W        W40071  19.709   4.323  13.040
76139W        W40072  29.472  19.559  14.341
76140W        W40073  11.635  35.575   4.674
76141W        W40074   0.821   9.837  13.984
76142W        W40075  34.119   2.317   2.335
76143W        W40076   0.358   8.856  10.918
76144W        W40077  43.471  24.600  11.017
76145W        W40078  42.981  35.014  11.995
76146W        W40079  15.213  17.675   5.575
76147W        W40080  31.430  39.819   3.311
76148W        W40081  18.068   6.918   2.715
76149W        W40082  38.849   5.401  14.895
76150W        W40083  25.208  31.912  10.588
76151W        W40084  34.451  44.343  13.526
76152W        W40085   1.817  12.188   5.256
76153W        W40086  14.624  28.532  12.916
76154W        W40087   6.726  37.962   0.460
76155W        W40088   8.714   7.366   0.735
76156W        W40089  41.358  37.086   3.354
76157W        W40090  31.548  32.422  14.924
76158W        W40091  39.009  26.521   5.128
76159W        W40092  25.616   9.377   1.902
76160W        W40093  36.854  19.160   1.368
76161W        W40094   7.810  37.976  13.837
76162W        W40095   1.423  31.472  13.947
76163W        W40096  22.126  41.886  12.037
76164W        W40097  27.536  34.899  12.454
76165W        W40098  16.697  13.301   2.675
76166W        W40099   0.304  38.412  12.048
76167W        W40100  20.674  16.166  13.913
76168W        W40101  21.650  16.782   2.872
76169W        W40102  16.238  15.681   2.871
76170W        W40103  15.132  22.099  13.926
76171W        W40104   3.450  21.720  12.908
76172W        W40105  29.956  19.129   0.375
76173W        W40106  41.927  38.952   4.618
76174W        W40107  32.941   1.891   4.299
76175W        W40108  23.012  41.909   0.913
76176W        W40109  13.293  25.972  10.528
76177W        W40110   0.801   1.941   5.137
76178W        W40111  15.132  39.834  11.431
76179W        W40112  21.721   1.483   4.662
76180W        W40113   1.908  33.877  14.506
76181W        W40114  17.642  16.570  11.961
76182W        W40115  14.720  20.061  14.823
76183W        W40116  33.593  17.236   0.870
76184W        W40117  21.164  38.465  13.963
76185W        W40118   2.750  29.569  12.832
76186W        W40119  22.021  19.191   3.191
76187W        W40120  27.637  10.140  11.416
76188W        W40121  31.112  42.521   2.705
76189W        W40122   6.378  22.175  11.392
76190W        W40123  31.501  30.110  11.876
76191W        W40124   4.304   9.181  10.492
76192W        W40125  20.538  35.057  12.834
76193W        W40126  15.264  44.953   1.291
76194W        W40127  11.320  14.200   2.896
76195W        W40128  29.978  36.964   2.330
76196W        W40129   5.888  33.474   3.780
76197W        W40130  28.002  40.420   2.194
76198W        W40131  41.938  26.508   3.162
76199W        W40132  37.467  10.152   0.838
76200W        W40133  33.570  12.357  12.885
76201W        W40134  37.419  31.433   2.327
76202W        W40135   2.287   1.918  14.969
76203W        W40136  22.671   7.221  12.365
76204W        W40137  37.018   8.693  12.377
76205W        W40138  20.663  20.694   0.446
76206W        W40139  16.644   0.311  13.972
76207W        W40140   8.228   6.249  14.456
76208W        W40141   8.771   0.792  13.862
76209W        W40142   5.363  19.040   2.264
76210W        W40143   2.852  17.594  14.782
76211W        W40144  15.255  27.954   0.900
76212W        W40145  28.064  17.104   4.675
76213W        W40146   1.338   3.369  11.914
76214W        W40147  31.515  11.768   2.871
76215W        W40148  22.228   9.735  10.155
76216W        W40149  18.145   2.753  11.386
76217W        W40150  19.199  41.902  14.477
76218W        W40151   6.858  42.796   3.372
76219W        W40152  43.889  30.063  14.502
76220W        W40153  41.836   1.317  10.458
76221W        W40154  37.339  29.622   1.701
76222W        W40155  31.958  34.384   0.283
76223W        W40156  16.729  30.415  14.437
76224W        W40157  36.485  20.674   4.807
76225W        W40158  39.967  44.802  13.949
76226W        W40159  32.560  14.747  11.484
76227W        W40160   1.288  15.112   1.850
76228W        W40161  15.099  23.233  11.525
76229W        W40162  30.467  12.669  14.005
76230W        W40163   9.724  22.133   3.383
76231W        W40164  41.011  32.067  13.800
76232W        W40165   3.893   1.946   2.238
76233W        W40166  25.503  38.987   0.754
76234W        W40167  37.040  42.011  14.316
76235W        W40168  42.284  24.541   2.222
76236W        W40169  30.015  44.767   0.443
76237W        W40170  31.477  22.207   0.390
76238W        W40171  33.437  16.727   0.917
76239W        W40172  33.963  33.620  12.045
76240W        W40173  21.633  44.903  13.833
76241W        W40174  14.167   2.247   4.347
76242W        W40175  26.486   4.371  10.535
76243W        W40176  42.371  41.861   4.323
76244W        W40177  35.021  15.784   4.310
76245W        W40178  13.650  43.382   0.346
76246W        W40179  43.502  15.717   0.301
76247W        W40180  11.741  18.671  13.342
76248W        W40181  10.215  22.587  14.850
76249W        W40182   8.238   0.824   4.196
76250W        W40183  42.817  22.663   0.950
76251W        W40184   2.289  23.046  12.072
76252W        W40185  11.804  16.090   2.757
76253W        W40186   9.212  18.209  10.063
76254W        W40187   7.813  17.171  14.515
76255W        W40188   6.319  42.820  13.400
76256W        W40189  12.685  27.515   4.798
76257W        W40190  19.557  19.775   0.441
76258W        W40191  28.675  41.810  13.802
76259W        W40192  38.876  40.909  12.555
76260W        W40193  19.271  11.164   0.782
76261W        W40194  10.773   2.935  10.556
76262W        W40195  15.186   9.824   3.677
76263W        W40196  20.667  16.133  13.442
76264W        W40197   8.337  19.267   4.146
76265W        W40198   0.297  14.799   0.785
76266W        W40199  28.680  37.858  10.566
76267W        W40200  28.448  42.969  12.031
76268W        W40201  35.011  42.957   2.709
76269W        W40202  38.964  12.640  10.594
76270W        W40203  30.940  42.431   1.363
76271W        W40204   5.742   3.259  12.863
76272W        W40205  41.450  17.195  12.026
76273W        W40206  36.915  37.428  10.588
76274W        W40207  20.539  13.742   1.305
76275W        W40208  14.249   0.280  11.397
76276W        W40209  37.904  16.717  13.821
76277W        W40210   2.366  12.780   3.263
76278W        W40211  31.540  40.914  12.913
76279W        W40212   4.823  25.540  11.540
76280W        W40213   5.232  18.734  11.435
76281W        W40214   5.313  40.484  11.406
76282W        W40215  25.124   0.489   2.417
76283W        W40216   1.349  21.252   3.780
76284W        W40217   2.468  39.425   0.873
76285W        W40218  13.173   7.687  14.380
76286W        W40219  40.864  34.071  13.430
76287W        W40220  10.728  27.676   4.127
76288W        W40221  18.616  29.135   4.174
76289W        W40222  10.873   5.782  10.552
76290W        W40223  15.806  35.524  11.375
76291W        W40224  19.549  27.610   3.169
76292W        W40225  44.947  39.911  11.075
76293W        W40226  31.116  37.545   0.851
76294W        W40227  32.466  11.196  11.547
76295W        W40228   8.362   5.823   0.897
76296W        W40229  19.629   0.471   1.700
76297W        W40230  32.127  36.575  11.100
76298W        W40231  15.187  41.390  12.843
76299W        W40232  33.098  31.948  10.533
76300W        W40233  24.023  38.028  13.338
76301W        W40234  32.580  11.807   1.225
76302W        W40235  19.672  11.638   3.317
76303W        W40236  14.214   5.826  14.804
76304W        W40237  13.187  30.999  10.562
76305W        W40238  43.895   2.314   0.843
76306W        W40239   4.400  40.514  13.449
76307W        W40240   1.441  30.568   2.208
76308W        W40241   3.732  26.484   5.310
76309W        W40242  29.981  15.201   2.723
76310W        W40243  39.901   3.327   0.967
76311W        W40244  43.325  33.929  13.388
76312W        W40245  41.862  41.463   2.892
76313W        W40246  20.228  39.900  12.092
76314W        W40247  24.036  18.781   2.877
76315W        W40248   0.864  25.074  13.007
76316W        W40249   1.890  31.107   0.755
76317W        W40250  39.511  22.215  11.956
76318W        W40251  34.516  21.205   0.951
76319W        W40252  34.045  43.429   0.479
76320W        W40253  26.999  33.980   3.662
76321W        W40254  39.379   7.781   3.290
76322W        W40255  35.384  26.049  13.359
76323W        W40256   2.321   7.728   4.252
76324W        W40257  27.692  17.262  11.971
76325W        W40258   8.405  26.175   4.666
76326W        W40259   0.854  41.332   1.932
76327W        W40260  28.138  29.551   3.177
76328W        W40261  12.671  38.853  12.559
76329W        W40262  42.900   7.375  14.760
76330W        W40263  30.496  33.623   4.255
76331W        W40264  37.922  31.496   0.848
76332W        W40265  33.392  26.064   4.765
76333W        W40266   0.469   4.748   4.282
76334W        W40267  32.460   1.275   2.411
76335W        W40268   3.777  13.118  10.972
76336W        W40269  25.964  42.823  11.977
76337W        W40270  25.692   4.926  11.495
76338W        W40271  44.376  41.455   4.655
76339W        W40272  44.981  43.387   3.363
76340W        W40273  37.542  21.243   3.304
76341W        W40274  15.121  26.539   3.668
76342W        W40275   2.329  22.121  13.493
76343W        W40276  13.325  42.351   1.735
76344W        W40277  10.219   2.720  14.401
76345W        W40278   9.686  42.296  13.859
76346W        W40279  26.618  14.174  14.798
76347W        W40280  20.632   5.743  12.845
76348W        W40281  25.618  34.427  12.556
76349W        W40282  35.858  24.602   2.787
76350W        W40283  40.346   8.799  11.545
76351W        W40284  33.491  12.674  10.029
76352W        W40285  15.655  20.742  14.506
76353W        W40286  42.365  22.717  12.480
76354W        W40287  15.580  19.230   2.178
76355W        W40288  29.565  38.449   0.287
76356W        W40289  10.714  26.500  13.891
76357W        W40290  39.929  37.344   5.186
76358W        W40291  26.009  25.213   2.885
76359W        W40292  12.821  18.618  14.973
76360W        W40293  39.810  21.189   4.351
76361W        W40294  14.769  29.125   0.877
76362W        W40295  34.438  27.570   3.744
76363W        W40296  44.328  20.149   3.176
76364W        W40297   3.393  12.308  14.761
76365W        W40298  28.645  24.048  13.876
76366W        W40299   6.711  13.672   2.373
76367W        W40300  10.660   5.398  13.973
76368W        W40301  33.025  37.570  13.877
76369NA+    NA+40302  44.310  36.475   3.277
76370NA+    NA+40303  43.408  42.408  13.364
76371NA+    NA+40304  31.116  16.624   4.829
76372NA+    NA+40305   6.682  28.946  12.991
76373NA+    NA+40306  19.109  13.115   3.801
76374NA+    NA+40307  30.493  21.208   3.853
76375NA+    NA+40308  40.899  28.169   1.424
76376NA+    NA+40309  14.135  29.023   1.298
76377NA+    NA+40310  12.354  36.921   4.724
76378NA+    NA+40311  38.844  25.563  11.954
76379NA+    NA+40312  35.968  28.978   4.685
76380NA+    NA+40313   6.833   4.402   3.363
76381NA+    NA+40314  42.341  26.040   1.441
76382NA+    NA+40315  11.720  21.604   1.410
76383NA+    NA+40316  32.502  17.745  13.985
76384NA+    NA+40317  12.758  33.079   2.340
76385NA+    NA+40318  18.279  33.013  13.343
76386NA+    NA+40319  32.515   0.865  11.856
76387NA+    NA+40320   4.357  24.722   3.695
76388NA+    NA+40321  37.475  43.421  13.056
76389NA+    NA+40322  23.551  22.569  14.805
76390NA+    NA+40323  16.077   9.322  12.865
76391NA+    NA+40324  17.108   0.388   2.292
76392NA+    NA+40325   7.683   5.421  13.864
76393NA+    NA+40326   1.804   6.376  11.858
76394NA+    NA+40327  24.725  25.218  14.485
76395NA+    NA+40328  20.579   4.805  12.551
76396NA+    NA+40329  37.570   9.249   2.371
76397NA+    NA+40330  23.636  24.041   4.687
76398NA+    NA+40331  12.214   1.478  12.533
76399NA+    NA+40332  27.037  27.592   2.256
76400NA+    NA+40333  13.128   5.354  13.431
76401NA+    NA+40334  26.130  41.941   2.284
76402NA+    NA+40335  17.218  44.411   5.210
76403NA+    NA+40336  40.938   8.346  11.432
76404NA+    NA+40337  41.853  34.031   1.426
76405NA+    NA+40338  27.523  23.656  14.455
76406NA+    NA+40339  38.423  38.037  14.766
76407NA+    NA+40340  18.235  34.458   4.333
76408NA+    NA+40341  42.956  40.324   4.667
76409NA+    NA+40342  24.157  12.136  10.473
76410NA+    NA+40343  27.071  14.646  14.355
76411NA+    NA+40344  30.460  35.017  14.945
76412NA+    NA+40345  31.524  39.964   0.787
76413NA+    NA+40346  27.035  25.666   0.915
76414NA+    NA+40347  28.098   9.711   3.649
76415NA+    NA+40348  37.911  12.850   2.317
76416NA+    NA+40349  28.445  11.703   1.274
76417NA+    NA+40350  33.497  34.977   2.803
76418NA+    NA+40351  40.305   8.820   4.299
76419NA+    NA+40352  30.626  37.566  12.088
76420NA+    NA+40353  11.807  12.766   0.737
76421NA+    NA+40354  15.279  30.474   0.931
76422NA+    NA+40355   1.326  44.481   3.199
76423NA+    NA+40356  17.791  26.202  12.968
76424NA+    NA+40357  28.474  19.650   4.294
76425NA+    NA+40358  37.343  40.918   0.912
76426NA+    NA+40359   3.889  14.649   3.177
76427NA+    NA+40360   6.295  16.614  13.062
76428NA+    NA+40361  13.280  22.118   3.360
76429NA+    NA+40362  16.753   1.310  14.446
76430NA+    NA+40363  11.855  25.604   2.386
76431NA+    NA+40364   8.693  37.413  11.486
76432NA+    NA+40365  24.499   0.886  12.471
76433NA+    NA+40366  13.188  36.904  11.895
76434NA+    NA+40367  16.296  23.215  11.991
76435NA+    NA+40368  44.297  40.828   3.266
76436NA+    NA+40369  20.741  36.021  14.493
76437NA+    NA+40370  15.144  36.051   0.283
76438NA+    NA+40371  12.191  29.619   2.352
76439NA+    NA+40372  37.489   3.447  10.956
76440NA+    NA+40373   4.772  27.000   3.275
76441NA+    NA+40374  18.762  29.150  13.930
76442NA+    NA+40375  40.837  17.650   0.433
76443NA+    NA+40376  43.348  36.944  12.505
76444NA+    NA+40377  18.554  15.267  11.989
76445NA+    NA+40378  13.677  44.953  13.430
76446NA+    NA+40379  44.810  12.641   2.721
76447NA+    NA+40380  27.633   5.397  13.886
76448NA+    NA+40381   3.737  41.022  13.955
76449NA+    NA+40382   7.253  28.973  13.390
76450NA+    NA+40383  42.928  43.902  10.156
76451NA+    NA+40384  12.829  17.216   3.690
76452NA+    NA+40385  43.940  39.008   3.827
76453NA+    NA+40386   7.285  38.003   1.804
76454NA+    NA+40387  16.293  41.825   4.699
76455NA+    NA+40388  33.128  43.442  13.464
76456NA+    NA+40389  15.712  35.050  10.608
76457NA+    NA+40390  27.952  27.147  12.549
76458NA+    NA+40391   3.853  19.748   5.211
76459NA+    NA+40392  37.855  31.932  10.554
76460NA+    NA+40393  23.117  30.949  10.436
76461NA+    NA+40394  41.387  44.860   2.356
76462NA+    NA+40395  37.561   7.678  10.487
76463NA+    NA+40396  39.841  37.378   2.897
76464NA+    NA+40397  27.447   5.717   4.799
76465NA+    NA+40398   6.749   3.310  11.939
76466NA+    NA+40399  11.198  11.863   3.817
76467NA+    NA+40400  19.109  22.127  10.995
76468NA+    NA+40401  32.390  32.043  11.084
76469NA+    NA+40402   0.920   5.429  13.999
76470NA+    NA+40403  42.348  33.107  12.058
76471NA+    NA+40404  13.630   2.836  12.494
76472NA+    NA+40405  31.534  19.689  11.586
76473NA+    NA+40406  25.000  33.508  10.480
76474NA+    NA+40407  11.850  19.618   0.248
76475NA+    NA+40408  42.340  30.013  13.321
76476NA+    NA+40409  41.792  20.213  12.962
76477NA+    NA+40410  19.629   0.388  13.522
76478NA+    NA+40411  43.869  11.675   3.250
76479NA+    NA+40412  21.610   3.781   0.813
76480NA+    NA+40413  18.289   3.369  12.492
76481NA+    NA+40414  32.948   6.235   0.883
76482NA+    NA+40415  40.883   5.749  11.959
76483NA+    NA+40416  21.670  21.041   2.390
76484NA+    NA+40417  23.157  18.637   3.359
76485NA+    NA+40418  23.640  20.658  14.795
76486NA+    NA+40419  24.579  31.520   0.818
76487NA+    NA+40420  27.179  29.463  11.388
76488NA+    NA+40421  22.705  22.169  11.880
76489NA+    NA+40422  35.393  18.262  10.482
76490NA+    NA+40423   2.349  16.115   1.922
76491NA+    NA+40424  13.320  37.502  14.814
76492NA+    NA+40425   7.248  34.989  11.955
76493NA+    NA+40426  31.646   4.339  12.491
76494NA+    NA+40427  33.067  35.897  10.545
76495NA+    NA+40428  42.500   7.366  12.047
76496NA+    NA+40429   1.969   1.963  13.034
76497NA+    NA+40430  44.389  25.674  10.973
76498NA+    NA+40431  10.784  31.022  11.383
76499NA+    NA+40432   6.305  32.460   2.861
76500NA+    NA+40433   7.755  24.168  13.380
76501NA+    NA+40434  29.535   4.225   4.750
76502NA+    NA+40435   9.395  20.641   2.790
76503NA+    NA+40436  43.770  20.581  13.523
76504NA+    NA+40437   3.780  23.710   4.283
76505NA+    NA+40438  17.689  14.226  12.873
76506NA+    NA+40439   8.762  19.193  11.517
76507NA+    NA+40440  43.423  26.089  12.366
76508NA+    NA+40441  26.552   4.763  10.427
76509NA+    NA+40442  20.057  23.023   4.143
76510NA+    NA+40443  34.370   5.320  14.010
76511NA+    NA+40444  43.878  22.589   1.446
76512NA+    NA+40445  26.121  35.886   2.822
76513NA+    NA+40446  12.149  17.608  13.325
76514NA+    NA+40447  10.791  34.064   1.929
76515NA+    NA+40448  17.702  28.986  10.893
76516NA+    NA+40449  39.320  44.765   1.798
76517NA+    NA+40450  22.250  35.374  12.922
76518NA+    NA+40451  16.628  10.738  14.014
76519NA+    NA+40452  26.005  32.897  13.992
76520NA+    NA+40453  23.490  29.978  10.633
76521NA+    NA+40454   5.889  32.464  11.870
76522NA+    NA+40455  37.010  36.900  11.986
76523NA+    NA+40456  13.325  24.040   2.709
76524NA+    NA+40457   9.768  30.978  12.883
76525NA+    NA+40458  19.155   3.777  12.962
76526NA+    NA+40459  27.011  11.651  13.362
76527NA+    NA+40460   9.261  11.648   0.327
76528NA+    NA+40461  12.293  13.686  12.570
76529NA+    NA+40462  38.934  23.015  14.779
76530NA+    NA+40463  20.195   4.369  14.892
76531NA+    NA+40464  30.940  33.507  14.015
76532NA+    NA+40465  20.715  19.200   1.439
76533NA+    NA+40466  37.007  35.523  13.934
76534NA+    NA+40467  21.671  37.963   2.799
76535NA+    NA+40468  44.960  30.563  12.938
76536NA+    NA+40469   4.222  11.167   4.183
76537NA+    NA+40470   9.168  32.425   0.847
76538NA+    NA+40471   2.741  33.956   1.933
76539NA+    NA+40472  16.271   9.827  10.088
76540NA+    NA+40473  36.044  31.464   1.385
76541NA+    NA+40474  42.885   2.791   4.778
76542NA+    NA+40475  36.507  29.118   1.378
76543NA+    NA+40476  26.556   9.237   0.457
76544NA+    NA+40477  32.981  23.224  12.479
76545NA+    NA+40478  19.614   9.845  10.557
76546NA+    NA+40479  31.402  35.599  11.587
76547NA+    NA+40480  20.614  11.750  14.953
76548NA+    NA+40481   2.789  24.670   0.320
76549NA+    NA+40482  18.770   8.344   4.221
76550NA+    NA+40483  17.787   9.283  14.960
76551NA+    NA+40484  41.995  29.656  11.419
76552NA+    NA+40485  37.574  12.217  10.961
76553NA+    NA+40486  37.490  12.672  12.494
76554NA+    NA+40487  38.842  40.457   0.288
76555NA+    NA+40488  17.765   5.698  10.644
76556NA+    NA+40489   9.728  25.704  13.941
76557NA+    NA+40490  32.626   1.450   1.385
76558NA+    NA+40491  23.599  22.554  12.464
76559NA+    NA+40492  16.636  44.476   2.225
76560NA+    NA+40493  42.492  16.620  13.045
76561NA+    NA+40494  33.480  21.699   4.216
76562NA+    NA+40495  20.590  24.599   0.344
76563NA+    NA+40496  24.015  43.283   4.242
76564NA+    NA+40497  37.375  25.707  14.380
76565NA+    NA+40498  20.226  28.628   1.870
76566NA+    NA+40499  21.580   5.702   2.350
76567NA+    NA+40500  42.843  28.469   0.856
76568NA+    NA+40501  18.066   3.840  13.909
76569NA+    NA+40502  15.808  29.603  13.949
76570NA+    NA+40503  19.204  28.049  11.581
76571NA+    NA+40504   3.367   5.395   0.841
76572NA+    NA+40505  27.188  12.340   3.370
76573NA+    NA+40506  28.442   8.842   3.838
76574NA+    NA+40507   4.259  17.287  14.494
76575NA+    NA+40508  30.561  41.470   3.210
76576NA+    NA+40509   1.935  41.391  14.403
76577NA+    NA+40510  38.988  18.773   3.753
76578NA+    NA+40511  27.175   5.379   3.385
76579NA+    NA+40512   2.923  30.971   4.768
76580NA+    NA+40513  22.242   4.740  14.464
76581NA+    NA+40514   7.291  12.712   0.473
76582NA+    NA+40515  23.727  31.404  13.540
76583NA+    NA+40516  42.922   5.197   1.765
76584NA+    NA+40517   7.773   3.884   1.318
76585NA+    NA+40518  23.669  38.948  12.383
76586NA+    NA+40519  37.523  37.059   2.345
76587NA+    NA+40520  24.184   6.377  12.908
76588NA+    NA+40521  43.935  43.990  14.839
76589NA+    NA+40522  43.328  42.496   0.365
76590NA+    NA+40523  21.546  42.860   0.790
76591NA+    NA+40524  37.866  29.454   3.353
76592NA+    NA+40525  29.147  12.151  13.911
76593NA+    NA+40526   1.330  34.608  13.518
76594NA+    NA+40527  13.309  22.214   2.186
76595NA+    NA+40528  12.139  21.747  11.099
76596NA+    NA+40529  42.847   0.797   1.855
76597NA+    NA+40530  40.015  16.568  11.941
76598NA+    NA+40531   0.882  35.926   3.283
76599NA+    NA+40532  28.140  11.210   0.272
76600NA+    NA+40533  41.362  10.774   1.794
76601NA+    NA+40534  23.726   1.803   4.730
76602NA+    NA+40535   2.372  26.643   2.869
76603NA+    NA+40536  43.401  30.078   1.882
76604NA+    NA+40537   6.374  29.131  13.541
76605NA+    NA+40538  31.089  19.238  13.931
76606NA+    NA+40539  35.534  38.440  14.831
76607NA+    NA+40540  30.909  39.325  12.521
76608NA+    NA+40541  29.438  39.016   3.232
76609NA+    NA+40542  20.606  42.888   4.631
76610NA+    NA+40543  37.984  38.449   2.271
76611NA+    NA+40544   7.858  18.184  12.515
76612NA+    NA+40545  35.035  43.961  13.539
76613NA+    NA+40546  32.628  11.640   3.245
76614NA+    NA+40547  40.402   3.258   4.680
76615NA+    NA+40548  39.529  24.560   4.134
76616NA+    NA+40549  12.769  30.441  13.460
76617NA+    NA+40550  18.258   4.289   4.161
76618NA+    NA+40551  35.564  42.394   4.331
76619NA+    NA+40552  38.364  35.074  11.510
76620NA+    NA+40553  23.037  36.460  13.533
76621NA+    NA+40554   8.745  21.262   4.199
76622NA+    NA+40555  33.973  22.075   2.801
76623NA+    NA+40556  39.456  32.133   1.435
76624NA+    NA+40557  18.788  31.905   4.729
76625NA+    NA+40558  15.715   4.211   1.839
76626NA+    NA+40559  35.538  19.756  12.577
76627NA+    NA+40560   2.863  33.545   1.737
76628NA+    NA+40561  23.611  29.567  11.594
76629NA+    NA+40562  13.657   4.245   4.145
76630NA+    NA+40563  44.468  19.564   3.723
76631NA+    NA+40564  39.515  33.044  12.039
76632NA+    NA+40565  36.998  42.413   2.293
76633NA+    NA+40566  10.240   4.421   4.115
76634NA+    NA+40567   9.296  15.787   4.260
76635NA+    NA+40568   0.804  17.668   3.726
76636NA+    NA+40569  31.553   4.920   4.704
76637NA+    NA+40570  36.364  30.521   0.737
76638NA+    NA+40571  25.043  30.557  12.562
76639NA+    NA+40572  24.559  24.595   0.263
76640NA+    NA+40573  33.409  10.287  14.019
76641NA+    NA+40574  18.642  10.338   4.623
76642NA+    NA+40575  42.497  29.480   0.872
76643NA+    NA+40576   4.822   3.780  13.436
76644NA+    NA+40577   7.397  13.699   2.903
76645NA+    NA+40578   1.425  44.304  11.398
76646NA+    NA+40579  11.282  44.800  13.308
76647NA+    NA+40580  23.569   8.762  13.846
76648NA+    NA+40581  32.553  19.745   1.243
76649NA+    NA+40582  25.159  14.334   1.868
76650NA+    NA+40583  30.956  19.178   4.216
76651NA+    NA+40584  29.575   9.380  13.324
76652NA+    NA+40585  25.649  23.691   3.758
76653NA+    NA+40586  34.087  23.024   1.914
76654NA+    NA+40587  19.585  29.960   4.323
76655NA+    NA+40588  14.118  22.585   3.384
76656NA+    NA+40589   3.282   9.176   1.795
76657NA+    NA+40590  36.545  13.678  11.021
76658NA+    NA+40591  29.558  43.494  14.846
76659NA+    NA+40592  37.969   1.782  13.357
76660NA+    NA+40593  17.635  13.156  13.346
76661NA+    NA+40594   6.403  15.172  10.539
76662NA+    NA+40595  26.626  17.658  12.947
76663NA+    NA+40596   6.423  20.217  14.440
76664NA+    NA+40597  23.058  43.513   3.219
76665NA+    NA+40598   1.766  22.582   0.408
76666NA+    NA+40599   4.298   8.727  11.965
76667NA+    NA+40600  11.287  25.206   0.773
76668NA+    NA+40601   4.700  28.159  11.538
76669NA+    NA+40602   5.690   1.768   5.313
76670NA+    NA+40603  16.187  20.210  12.978
76671NA+    NA+40604  40.992   8.345  10.536
76672NA+    NA+40605  33.975  35.074   1.715
76673NA+    NA+40606   8.751  39.903   3.369
76674NA+    NA+40607  25.027   8.895  11.046
76675NA+    NA+40608  10.181   4.402  10.600
76676NA+    NA+40609  30.062   6.907   2.339
76677NA+    NA+40610  37.555  43.347  12.427
76678NA+    NA+40611  40.486  36.951  11.582
76679NA+    NA+40612  31.997  14.230  11.960
76680NA+    NA+40613   4.916  44.759   0.272
76681NA+    NA+40614  13.261   9.332   2.365
76682NA+    NA+40615  37.878  18.672   0.780
76683NA+    NA+40616   0.426  11.168  11.406
76684NA+    NA+40617  42.416  32.597  13.862
76685NA+    NA+40618  27.152  37.000   2.206
76686NA+    NA+40619  43.776  39.998   2.764
76687NA+    NA+40620  17.715  29.610   2.767
76688NA+    NA+40621  35.374  26.977   0.856
76689NA+    NA+40622  15.697   2.881   3.837
76690NA+    NA+40623  27.550  28.076  11.394
76691NA+    NA+40624  26.081  41.455  11.453
76692NA+    NA+40625  21.757  11.297  11.939
76693NA+    NA+40626   3.376  21.208   3.257
76694NA+    NA+40627  30.107  43.843   1.847
76695NA+    NA+40628  24.178  32.013   1.725
76696NA+    NA+40629  26.561  26.046  12.872
76697NA+    NA+40630  22.597   8.881   2.678
76698NA+    NA+40631  31.436  38.954   4.806
76699NA+    NA+40632  13.767   9.238  12.495
76700NA+    NA+40633   8.816  18.247   1.252
76701NA+    NA+40634  19.057  43.007   2.666
76702NA+    NA+40635  29.104  20.142   3.181
76703NA+    NA+40636  16.750  25.533  14.866
76704NA+    NA+40637  25.593  44.826  11.504
76705NA+    NA+40638   6.753  30.446  11.930
76706NA+    NA+40639  26.578   7.734   2.393
76707NA+    NA+40640  24.069  10.708   2.688
76708NA+    NA+40641  41.428  13.106  10.981
76709NA+    NA+40642  40.430   4.270   1.386
76710NA+    NA+40643  21.621  33.504  13.881
76711NA+    NA+40644  11.756  38.390   0.442
76712NA+    NA+40645  14.664   1.313   3.351
76713NA+    NA+40646  24.111  35.526   4.771
76714NA+    NA+40647  43.810   2.470  10.577
76715NA+    NA+40648   7.843  12.340   1.870
76716NA+    NA+40649   1.439  13.172   4.247
76717NA+    NA+40650  44.818  13.609  11.386
76718NA+    NA+40651  43.780  16.589  11.381
76719NA+    NA+40652   5.346   4.774   9.994
76720NA+    NA+40653  30.948  24.102  12.416
76721NA+    NA+40654  30.125   1.766   3.348
76722NA+    NA+40655  18.182  24.101  14.505
76723NA+    NA+40656  11.671   5.896   1.787
76724NA+    NA+40657  11.304   0.834   0.892
76725NA+    NA+40658  31.581  41.482   0.849
76726NA+    NA+40659  32.545  11.216   0.435
76727NA+    NA+40660  44.912  14.722  11.954
76728NA+    NA+40661   3.947  16.300   0.860
76729NA+    NA+40662  18.695  36.925   3.843
76730NA+    NA+40663  24.686   9.186   1.308
76731NA+    NA+40664  17.279   3.817  14.382
76732NA+    NA+40665  33.595  24.721   1.819
76733NA+    NA+40666  26.019   7.803  10.449
76734NA+    NA+40667  33.473  37.881  11.403
76735NA+    NA+40668  11.165  16.731  10.590
76736NA+    NA+40669  18.566   4.768   0.879
76737NA+    NA+40670  10.659  38.383   2.739
76738NA+    NA+40671  36.352  29.485  11.576
76739NA+    NA+40672   1.733   1.365   4.352
76740NA+    NA+40673  34.021   2.779  14.341
76741NA+    NA+40674  41.911  26.048  14.402
76742NA+    NA+40675  27.499  23.987   1.407
76743NA+    NA+40676  19.042   2.891  13.014
76744NA+    NA+40677   6.752   0.342  11.119
76745NA+    NA+40678  24.696  38.362   4.828
76746NA+    NA+40679  32.951  29.580  13.522
76747NA+    NA+40680  27.108  13.659   0.740
76748NA+    NA+40681  35.473  14.766   2.387
76749NA+    NA+40682  23.731  29.081   2.838
76750NA+    NA+40683  36.091  20.573  11.885
76751NA+    NA+40684   6.227  13.710   0.941
76752NA+    NA+40685  42.411  40.984  10.895
76753NA+    NA+40686  13.728   7.325   0.953
76754NA+    NA+40687  35.036  40.365   1.864
76755NA+    NA+40688  43.389  10.672   4.643
76756NA+    NA+40689   0.979  12.715   1.819
76757NA+    NA+40690  17.675  43.818   1.268
76758NA+    NA+40691  32.079   7.229  13.478
76759NA+    NA+40692  32.558  12.852  11.000
76760NA+    NA+40693  14.125   0.298  14.371
76761NA+    NA+40694  38.852  29.057   1.922
76762NA+    NA+40695   9.773  12.790   2.387
76763NA+    NA+40696  11.319  23.701   1.701
76764NA+    NA+40697  16.306   2.843  11.108
76765NA+    NA+40698  28.498  28.594  14.917
76766NA+    NA+40699  39.815  16.798  12.391
76767NA+    NA+40700  20.030   3.921   1.803
76768NA+    NA+40701  18.210  22.639  10.518
76769NA+    NA+40702  33.000  34.102  12.895
76770NA+    NA+40703  18.694  28.031   3.191
76771NA+    NA+40704  12.748  31.557   3.260
76772NA+    NA+40705  12.669  15.105  10.543
76773NA+    NA+40706  26.528  41.508  12.886
76774NA+    NA+40707   4.870  18.168  13.508
76775NA+    NA+40708  31.514  44.437  13.845
76776NA+    NA+40709  15.694   1.770  11.549
76777NA+    NA+40710  12.337  12.683   0.906
76778NA+    NA+40711  24.177  16.140  14.318
76779NA+    NA+40712  37.405   4.274   3.224
76780NA+    NA+40713   7.366  32.969  12.378
76781NA+    NA+40714  11.278  21.631   4.778
76782NA+    NA+40715  29.663  37.361  11.924
76783NA+    NA+40716  36.980   7.351   4.306
76784NA+    NA+40717  28.604   4.379   3.680
76785NA+    NA+40718   5.858  31.121   1.779
76786NA+    NA+40719  15.741   3.902   0.456
76787NA+    NA+40720  39.422  25.011  10.462
76788NA+    NA+40721  42.001  34.454   3.147
76789NA+    NA+40722  13.724  35.892   3.247
76790NA+    NA+40723  30.048   4.767   2.245
76791NA+    NA+40724  41.361  13.651   1.697
76792NA+    NA+40725  25.088   7.196  11.551
76793NA+    NA+40726  37.045  44.972  11.603
76794NA+    NA+40727  13.230   3.232  12.500
76795NA+    NA+40728  14.211  24.065  13.024
76796NA+    NA+40729  14.312   4.378  13.469
76797NA+    NA+40730  17.613  14.706   1.740
76798NA+    NA+40731  12.610   0.487   2.687
76799NA+    NA+40732  27.998  27.972   1.427
76800NA+    NA+40733   6.401   6.840  14.345
76801NA+    NA+40734   4.881  34.898  14.768
76802NA+    NA+40735  33.887   1.280  11.589
76803NA+    NA+40736  36.035  28.083  14.323
76804NA+    NA+40737   1.344  27.617  10.983
76805NA+    NA+40738  14.253  44.407  12.340
76806NA+    NA+40739  36.998  27.617  10.563
76807NA+    NA+40740  27.161   2.455   5.321
76808NA+    NA+40741  40.371   8.379  13.048
76809NA+    NA+40742  38.514  36.468   3.640
76810NA+    NA+40743  34.990   4.909  10.929
76811NA+    NA+40744  17.742  37.087   5.249
76812NA+    NA+40745  21.049  37.388   1.765
76813NA+    NA+40746  11.660  38.059   0.276
76814NA+    NA+40747  31.597  11.637  14.904
76815NA+    NA+40748  37.924  11.758   4.760
76816NA+    NA+40749  25.634  34.566  10.411
76817NA+    NA+40750   2.770  21.199  11.599
76818NA+    NA+40751  35.518  24.608   0.302
76819NA+    NA+40752  23.690  35.490   1.752
76820NA+    NA+40753  17.783  40.361   5.217
76821NA+    NA+40754  29.071  23.544   3.733
76822NA+    NA+40755  10.710  11.649   1.428
76823NA+    NA+40756  36.390  39.818   3.798
76824NA+    NA+40757  13.210  30.115   3.700
76825NA+    NA+40758  23.215  43.926  10.590
76826NA+    NA+40759   0.890  32.924   2.726
76827NA+    NA+40760  29.445  38.858  12.481
76828NA+    NA+40761  42.311  27.984  14.811
76829NA+    NA+40762  27.615  22.108   1.897
76830NA+    NA+40763  20.161   2.778  13.808
76831NA+    NA+40764  22.659  35.568  11.028
76832NA+    NA+40765  17.134  11.730   0.783
76833NA+    NA+40766  33.468  41.371  14.981
76834NA+    NA+40767  31.604  36.457  10.458
76835NA+    NA+40768  16.104   7.893  14.797
76836NA+    NA+40769  26.207  23.536   2.372
76837NA+    NA+40770  43.936  36.534   1.326
76838NA+    NA+40771  30.454  34.386  14.832
76839NA+    NA+40772  14.302  35.495   0.290
76840NA+    NA+40773   5.836  13.667   3.290
76841NA+    NA+40774  36.957  35.586   4.601
76842NA+    NA+40775  24.517  24.056  12.563
76843NA+    NA+40776  43.432  37.961  14.513
76844NA+    NA+40777  16.269  12.132   0.899
76845NA+    NA+40778  41.002  16.080  10.598
76846NA+    NA+40779  22.673  38.936  13.986
76847NA+    NA+40780  33.007  30.131   4.185
76848NA+    NA+40781  33.979  37.550   3.313
76849NA+    NA+40782  42.426  34.410  14.010
76850NA+    NA+40783  27.685  22.577   4.182
76851NA+    NA+40784  14.188  26.619   2.741
76852NA+    NA+40785  33.889  10.139   2.864
76853NA+    NA+40786  17.193  16.264  11.889
76854NA+    NA+40787  35.554  17.604   0.264
76855NA+    NA+40788  20.608  44.422   4.130
76856NA+    NA+40789  13.119   6.889   0.827
76857NA+    NA+40790  10.203  37.543  13.874
76858NA+    NA+40791   2.817  43.017   3.211
76859NA+    NA+40792  15.650  30.130   0.340
76860NA+    NA+40793  19.075  29.438  14.332
76861NA+    NA+40794  33.891  11.851  13.831
76862NA+    NA+40795  17.718  36.098   1.442
76863NA+    NA+40796  29.958  20.523  14.376
76864NA+    NA+40797  18.758   2.376   0.813
76865NA+    NA+40798  14.302  43.854   2.392
76866NA+    NA+40799  43.301  14.784  13.814
76867NA+    NA+40800  22.019  30.137  11.116
76868NA+    NA+40801   6.825  26.101  10.612
76869NA+    NA+40802  36.842  37.428  14.496
76870NA+    NA+40803  21.615  22.581  14.003
76871NA+    NA+40804  29.608   2.411   5.134
76872NA+    NA+40805  18.724  35.588  14.777
76873NA+    NA+40806  30.479   2.383  10.471
76874NA+    NA+40807  38.886  30.449  10.972
76875NA+    NA+40808  10.289   4.765   1.402
76876NA+    NA+40809  34.584  25.664   2.850
76877NA+    NA+40810   7.701  12.167   4.348
76878NA+    NA+40811  31.069  35.890   5.317
76879NA+    NA+40812   3.740  10.274  12.437
76880NA+    NA+40813  42.375  13.670  11.977
76881NA+    NA+40814  11.156  14.649  11.583
76882NA+    NA+40815  35.463   7.413   0.373
76883NA+    NA+40816  43.864  43.003  12.923
76884NA+    NA+40817   4.400  41.972   3.211
76885NA+    NA+40818   8.287  21.088   2.267
76886NA+    NA+40819   7.685  30.516   0.424
76887NA+    NA+40820  12.829  13.206  12.005
76888NA+    NA+40821  23.045  21.188  11.390
76889NA+    NA+40822  17.090   6.816  12.553
76890NA+    NA+40823  17.663  10.170   2.731
76891NA+    NA+40824   5.929   6.357   1.280
76892NA+    NA+40825  29.108   2.404   1.255
76893NA+    NA+40826  34.424  23.730   4.806
76894NA+    NA+40827   3.418  22.632  13.918
76895NA+    NA+40828  18.056   8.310  11.960
76896NA+    NA+40829  14.208  39.325   3.326
76897NA+    NA+40830   1.290  17.739  14.417
76898NA+    NA+40831  43.010  34.493  14.352
76899NA+    NA+40832  36.068   2.355   1.225
76900NA+    NA+40833  13.346   0.950   1.429
76901NA+    NA+40834  16.219  43.421   2.252
76902NA+    NA+40835  42.418   7.353  14.812
76903NA+    NA+40836   1.254   6.752   2.372
76904NA+    NA+40837  22.530  25.608  10.539
76905NA+    NA+40838  22.162   9.817  12.882
76906NA+    NA+40839   0.966  15.149  12.552
76907NA+    NA+40840  35.510  39.379  12.393
76908NA+    NA+40841  30.653  33.929  12.560
76909NA+    NA+40842  25.054  12.674  11.496
76910NA+    NA+40843  44.466  17.168   0.866
76911NA+    NA+40844  23.535  42.497  14.440
76912NA+    NA+40845  22.736  38.533   1.702
76913NA+    NA+40846  15.671   3.720   1.413
76914NA+    NA+40847   8.303  41.960  14.821
76915NA+    NA+40848  10.223  43.888   0.949
76916NA+    NA+40849  22.231  32.630  12.364
76917NA+    NA+40850  29.568   4.204  12.378
76918NA+    NA+40851  38.064   3.897   1.721
76919NA+    NA+40852  40.368  22.650   3.752
76920NA+    NA+40853  27.944  34.607   2.182
76921NA+    NA+40854  22.544  22.072   1.377
76922NA+    NA+40855  14.250  21.531   0.463
76923NA+    NA+40856   1.870  16.273  13.799
76924NA+    NA+40857  12.827  24.622   2.315
76925NA+    NA+40858  33.953  26.010   4.150
76926NA+    NA+40859  32.120  21.656   3.765
76927NA+    NA+40860  42.450  28.533  11.870
76928NA+    NA+40861   9.708   9.319  12.969
76929NA+    NA+40862  32.442  39.863   3.165
76930NA+    NA+40863   1.242   8.225  14.884
76931NA+    NA+40864  41.880  19.057  13.808
76932NA+    NA+40865  37.956  26.673   0.729
76933NA+    NA+40866  15.769   0.472  11.559
76934NA+    NA+40867   7.286  26.483  10.004
76935NA+    NA+40868   9.848  28.535  11.110
76936NA+    NA+40869  14.665  12.624   1.918
76937NA+    NA+40870  27.657   9.363   0.362
76938NA+    NA+40871  21.231   1.766  13.813
76939NA+    NA+40872  30.615  41.348   1.226
76940NA+    NA+40873  10.351  29.149   2.245
76941NA+    NA+40874  28.157  14.684   4.827
76942NA+    NA+40875  36.929  42.995   2.334
76943NA+    NA+40876  35.079  39.866  10.540
76944NA+    NA+40877  27.686   7.672   2.263
76945NA+    NA+40878   8.332   0.771   3.355
76946NA+    NA+40879  34.075  24.596   1.725
76947NA+    NA+40880   8.260  18.699   3.693
76948NA+    NA+40881   4.789  42.779   2.720
76949NA+    NA+40882  21.511  30.475   4.235
76950NA+    NA+40883   0.950  14.182  11.494
76951NA+    NA+40884  22.560  35.983   4.115
76952NA+    NA+40885  43.825  32.580   4.624
76953NA+    NA+40886  17.577  14.304   3.361
76954NA+    NA+40887  26.506   9.325  12.984
76955NA+    NA+40888   5.284  43.327  14.957
76956NA+    NA+40889  39.918  17.658   0.966
76957NA+    NA+40890  16.573  32.117   2.776
76958NA+    NA+40891  13.709  24.173  13.412
76959NA+    NA+40892  18.645  30.472   5.117
76960NA+    NA+40893   4.268  17.143   5.098
76961NA+    NA+40894   1.881   0.257   0.272
76962NA+    NA+40895  15.582  34.948   4.775
76963NA+    NA+40896  25.601  43.867   4.226
76964NA+    NA+40897  15.096   6.182  14.297
76965NA+    NA+40898  32.091  22.055  12.500
76966NA+    NA+40899   9.233   8.345   3.771
76967NA+    NA+40900   6.878  33.096   3.683
76968NA+    NA+40901  39.447  39.917  10.999
76969NA+    NA+40902   1.394  19.619  13.945
76970NA+    NA+40903  34.416   7.859  13.475
76971NA+    NA+40904  11.655  20.609   1.373
76972NA+    NA+40905  43.851   3.316  14.414
76973NA+    NA+40906   1.271  39.010  12.437
76974NA+    NA+40907  17.129  37.360   3.327
76975NA+    NA+40908   0.751  44.915   0.790
76976NA+    NA+40909  38.485   8.824   1.292
76977NA+    NA+40910  11.149   1.922  13.890
76978NA+    NA+40911  26.654  17.576  11.587
76979NA+    NA+40912  15.302  23.501  14.343
76980NA+    NA+40913  20.745  26.106  14.842
76981NA+    NA+40914  27.565  18.575   1.768
76982NA+    NA+40915  41.987  33.550   5.142
76983NA+    NA+40916  31.132  15.239  13.327
76984NA+    NA+40917  30.584   3.884   4.640
76985NA+    NA+40918  32.619   4.426   0.307
76986NA+    NA+40919  14.830  35.389  13.840
76987NA+    NA+40920  14.145  17.743   0.281
76988NA+    NA+40921  41.027   3.399  12.963
76989NA+    NA+40922  21.141  33.974   4.837
76990NA+    NA+40923   4.838   7.187  10.948
76991NA+    NA+40924  44.423  17.125   4.729
76992NA+    NA+40925  18.738  42.292  10.530
76993NA+    NA+40926  14.194   9.350  11.993
76994NA+    NA+40927  16.713  29.581  10.950
76995NA+    NA+40928  21.564  11.633   0.373
76996NA+    NA+40929   5.399   6.271  11.072
76997NA+    NA+40930  13.637  19.772   0.260
76998NA+    NA+40931  44.980  44.447  13.459
76999NA+    NA+40932  36.961  27.564   2.316
77000NA+    NA+40933  39.516  21.095   4.786
77001NA+    NA+40934  15.687   0.259   4.661
77002NA+    NA+40935  29.938   0.350   0.898
77003NA+    NA+40936  25.092  29.465   3.258
77004NA+    NA+40937   3.923  12.183   0.297
77005NA+    NA+40938  22.512  27.469   9.975
77006NA+    NA+40939  31.535  30.137  10.953
77007NA+    NA+40940   4.255  38.469  13.898
77008NA+    NA+40941  19.750  21.593   4.175
77009NA+    NA+40942  33.616   3.865  10.485
77010NA+    NA+40943  42.952  10.284   4.794
77011NA+    NA+40944   3.262   2.889  13.924
77012NA+    NA+40945   2.754  17.283   0.430
77013NA+    NA+40946  15.688  29.979  11.536
77014NA+    NA+40947   2.771  20.028  10.642
77015NA+    NA+40948  31.446  28.440   1.442
77016NA+    NA+40949  14.702  38.000   2.793
77017NA+    NA+40950   3.327  20.269  10.636
77018NA+    NA+40951  39.000  43.018   2.687
77019NA+    NA+40952  31.559   8.311  11.531
77020NA+    NA+40953   1.293  14.649  13.037
77021NA+    NA+40954  36.548   4.883  12.082
77022NA+    NA+40955  23.145  36.567   1.844
77023NA+    NA+40956  27.603  24.610  10.615
77024NA+    NA+40957  40.902  31.011   1.919
77025NA+    NA+40958   0.900  24.630   0.871
77026NA+    NA+40959  25.091  44.847   1.279
77027NA+    NA+40960  32.064   0.877   3.697
77028NA+    NA+40961  32.131  22.579  10.555
77029NA+    NA+40962  36.570  33.535  12.933
77030NA+    NA+40963  28.942  44.847  12.896
77031NA+    NA+40964  44.415  33.404   1.708
77032NA+    NA+40965  33.449  43.368   3.273
77033NA+    NA+40966  20.561  13.241   2.273
77034NA+    NA+40967  14.254  23.714   1.815
77035NA+    NA+40968  16.762   6.187  10.904
77036NA+    NA+40969   1.433  38.832  13.528
77037NA+    NA+40970   5.221  15.730  10.584
77038NA+    NA+40971   2.751  34.901  12.960
77039NA+    NA+40972  31.609  32.983   1.876
77040NA+    NA+40973  10.140  15.709  12.495
77041NA+    NA+40974  25.565   7.826   1.709
77042NA+    NA+40975  34.889  40.894   4.316
77043NA+    NA+40976  16.073  24.076   3.727
77044NA+    NA+40977   1.449  21.743   4.784
77045NA+    NA+40978  28.511  17.253   3.705
77046NA+    NA+40979  10.647   8.858  11.915
77047NA+    NA+40980   8.872  29.560   1.314
77048NA+    NA+40981   9.669   2.423   0.463
77049NA+    NA+40982  29.107  31.613  11.047
77050NA+    NA+40983  19.118  35.099   3.197
77051NA+    NA+40984  14.722   6.705   1.715
77052NA+    NA+40985  11.698   7.669  13.395
77053NA+    NA+40986  15.587  14.299   1.888
77054NA+    NA+40987  39.342  13.305  11.002
77055NA+    NA+40988  38.374   2.908  14.859
77056NA+    NA+40989   6.748  34.491   3.239
77057NA+    NA+40990  32.509  32.525  13.470
77058NA+    NA+40991   5.883   2.246   3.714
77059NA+    NA+40992   1.315  12.306   3.837
77060NA+    NA+40993   1.344   8.663  13.397
77061NA+    NA+40994  28.122  17.145   1.259
77062NA+    NA+40995   8.729   6.787  13.959
77063NA+    NA+40996  34.033  12.132   2.851
77064NA+    NA+40997  10.289  17.607   0.830
77065NA+    NA+40998   0.287  11.792   0.930
77066NA+    NA+40999   4.916  14.821   1.323
77067NA+    NA+41000   9.715  27.648   3.849
77068NA+    NA+41001  17.119  26.969   3.734
77069NA+    NA+41002  34.409  22.030   1.831
77070NA+    NA+41003  25.080  33.107   4.237
77071NA+    NA+41004  35.870   2.784  14.284
77072NA+    NA+41005  40.441  35.546   0.352
77073NA+    NA+41006  27.617  17.248  10.531
77074NA+    NA+41007  15.129   8.681  12.475
77075NA+    NA+41008  18.171  25.102   0.424
77076NA+    NA+41009  38.398  26.682   4.835
77077NA+    NA+41010  26.059  27.057   1.259
77078NA+    NA+41011  28.653   9.364   0.811
77079NA+    NA+41012  12.743  23.136   2.189
77080NA+    NA+41013  39.557  36.933   1.372
77081NA+    NA+41014   1.460  33.398   3.185
77082NA+    NA+41015  11.145   1.466   3.787
77083NA+    NA+41016   6.825  44.440   3.222
77084NA+    NA+41017  25.564  11.634   3.809
77085NA+    NA+41018  31.538  12.125   2.268
77086NA+    NA+41019  10.287   0.846  14.024
77087NA+    NA+41020  13.341   3.436   2.391
77088NA+    NA+41021  24.709  31.017   3.363
77089NA+    NA+41022  22.251   9.826   4.697
77090NA+    NA+41023   4.895   7.813  13.320
77091NA+    NA+41024   4.713  25.103  10.903
77092NA+    NA+41025  18.565   0.301  12.081
77093NA+    NA+41026  35.374   5.360   3.266
77094NA+    NA+41027  30.937  32.562   2.301
77095NA+    NA+41028  28.124   0.807   2.700
77096NA+    NA+41029   6.392  14.101   2.383
77097NA+    NA+41030  24.009  29.523  13.487
77098NA+    NA+41031  40.823  12.135   3.867
77099NA+    NA+41032  14.663  36.424  12.429
77100NA+    NA+41033  12.669  37.437   4.601
77101NA+    NA+41034   2.321  36.854  13.478
77102NA+    NA+41035  39.022  42.432   0.749
77103NA+    NA+41036  22.665   8.300  11.467
77104NA+    NA+41037  18.121  41.984   3.643
77105NA+    NA+41038  14.185  43.777  13.849
77106NA+    NA+41039  18.197  29.068  14.496
77107NA+    NA+41040  22.197  12.275   2.359
77108NA+    NA+41041  21.531  38.346   2.846
77109NA+    NA+41042   6.424  28.550  12.472
77110NA+    NA+41043  17.689  37.065   9.569
77111NA+    NA+41044  23.531  33.498  12.355
77112NA+    NA+41045  19.703  42.893  10.586
77113NA+    NA+41046   3.398   8.679   2.388
77114NA+    NA+41047  33.933  13.609   3.353
77115NA+    NA+41048  13.678   4.792   4.753
77116NA+    NA+41049  25.572   3.868   3.238
77117NA+    NA+41050  22.014  31.484  11.888
77118NA+    NA+41051  20.568  40.442  14.991
77119NA+    NA+41052  11.823  28.639  11.414
77120NA+    NA+41053   1.735   3.369   1.702
77121NA+    NA+41054   0.461  44.792   0.935
77122NA+    NA+41055  22.205  27.965   1.360
77123NA+    NA+41056  39.371  25.992  13.421
77124NA+    NA+41057  24.629   4.283  10.560
77125NA+    NA+41058  10.216  42.922  10.560
77126NA+    NA+41059  38.368  22.058   0.960
77127NA+    NA+41060  31.076  27.536  11.564
77128NA+    NA+41061  33.488  22.022  12.381
77129NA+    NA+41062  28.959  26.989   1.855
77130NA+    NA+41063   5.265  38.032  13.010
77131NA+    NA+41064  22.231  42.422   1.794
77132NA+    NA+41065  44.412  24.005  12.032
77133NA+    NA+41066  11.254  37.524  11.588
77134NA+    NA+41067  32.549  18.550   1.245
77135NA+    NA+41068  42.463  26.169   4.196
77136NA+    NA+41069  11.662  17.204   0.879
77137NA+    NA+41070  41.789  15.229   4.244
77138NA+    NA+41071  26.690  29.952  10.404
77139NA+    NA+41072  26.077  22.019  14.359
77140NA+    NA+41073  34.075  44.413  11.121
77141NA+    NA+41074  22.505  18.254   3.252
77142NA+    NA+41075  43.785  35.020   3.202
77143NA+    NA+41076   2.446  12.318  12.080
77144NA+    NA+41077  44.307  37.019   1.883
77145NA+    NA+41078   1.318  20.578  10.518
77146NA+    NA+41079  31.496  25.055   2.187
77147NA+    NA+41080  16.132   4.435  10.450
77148NA+    NA+41081   4.699  40.962  10.612
77149NA+    NA+41082  17.556  18.545   0.732
77150NA+    NA+41083  34.968  20.670  13.011
77151NA+    NA+41084   4.732  25.678   0.428
77152NA+    NA+41085   1.742   1.811  11.960
77153NA+    NA+41086  11.696  26.062   3.163
77154NA+    NA+41087  36.058  19.254   2.297
77155NA+    NA+41088   6.324  17.268   3.257
77156NA+    NA+41089  15.315  32.490   4.351
77157NA+    NA+41090  35.478  20.072  11.609
77158NA+    NA+41091  29.599   0.966   3.722
77159NA+    NA+41092   5.269  42.516  13.884
77160NA+    NA+41093  21.190  41.937  12.068
77161NA+    NA+41094  20.169  43.473  14.861
77162NA+    NA+41095  36.971   8.163  12.548
77163NA+    NA+41096  38.450  35.968   3.770
77164NA+    NA+41097  41.961  13.144   0.823
77165NA+    NA+41098   4.222   1.311  12.065
77166NA+    NA+41099  14.717  37.556   4.770
77167NA+    NA+41100  14.304  43.843   4.278
77168NA+    NA+41101   0.445  18.074  11.095
77169NA+    NA+41102  32.957  38.443  14.916
77170NA+    NA+41103  22.740  30.471  10.124
77171NA+    NA+41104  16.079  41.442  11.434
77172NA+    NA+41105  32.104  16.595   4.667
77173NA+    NA+41106  18.654  12.743  12.576
77174NA+    NA+41107  32.041  22.239   1.730
77175NA+    NA+41108   3.438  22.087  12.348
77176NA+    NA+41109  39.060  42.370  14.935
77177NA+    NA+41110  28.053  20.666  13.387
77178NA+    NA+41111  38.834  43.913  10.494
77179NA+    NA+41112  28.930   4.900   3.197
77180NA+    NA+41113   6.804   1.405   3.154
77181NA+    NA+41114  29.122   6.902   4.654
77182NA+    NA+41115  39.367  35.392   2.375
77183NA+    NA+41116  16.316  27.128   1.761
77184NA+    NA+41117  39.350  23.101   0.453
77185NA+    NA+41118  23.564  14.157  11.960
77186NA+    NA+41119   9.649   8.868   0.899
77187NA+    NA+41120  16.716  27.680   0.273
77188NA+    NA+41121  44.361  14.649  13.010
77189NA+    NA+41122  16.765  33.937  13.898
77190NA+    NA+41123  43.356   4.318   3.298
77191NA+    NA+41124   1.900  12.627  12.488
77192NA+    NA+41125  43.816   8.302   2.317
77193NA+    NA+41126   8.402  27.172   4.688
77194NA+    NA+41127   8.816  25.100  12.573
77195NA+    NA+41128  32.953   0.747  13.394
77196NA+    NA+41129  33.574  34.525   3.211
77197NA+    NA+41130  43.933   8.333  13.424
77198NA+    NA+41131   8.877  26.208  12.984
77199NA+    NA+41132  22.554  26.176   4.806
77200NA+    NA+41133   2.750  16.082  14.936
77201NA+    NA+41134  11.230  41.469  14.796
77202NA+    NA+41135   7.279  25.689   0.471
77203NA+    NA+41136  42.391  24.483   2.688
77204NA+    NA+41137  17.234  38.345  10.470
77205NA+    NA+41138  30.093  14.714   0.338
77206NA+    NA+41139  27.129  14.211  11.595
77207NA+    NA+41140  25.161  20.225   1.292
77208NA+    NA+41141  11.687  44.454  14.281
77209NA+    NA+41142  10.372  10.857  14.358
77210NA+    NA+41143  32.068   6.186   3.307
77211NA+    NA+41144  41.807  33.604   2.322
77212NA+    NA+41145   3.373  44.446   2.830
77213NA+    NA+41146  16.659  36.376  12.924
77214NA+    NA+41147  23.734  19.180   3.299
77215NA+    NA+41148  19.211  39.016  13.336
77216NA+    NA+41149  43.817   0.274   2.181
77217NA+    NA+41150  23.233  44.994   0.735
77218NA+    NA+41151  22.554  19.542   2.744
77219NA+    NA+41152  25.104  17.275  13.482
77220NA+    NA+41153  41.819  37.566  12.531
77221NA+    NA+41154   7.293   2.911  14.921
77222NA+    NA+41155   3.261  16.664  12.339
77223NA+    NA+41156  38.505   2.882  12.028
77224NA+    NA+41157  33.521  38.934  13.350
77225NA+    NA+41158  27.479  15.117  12.959
77226NA+    NA+41159  40.352  14.797   2.739
77227NA+    NA+41160  41.521  19.207  12.037
77228NA+    NA+41161  18.762  23.993  12.492
77229NA+    NA+41162  38.897  23.548   4.284
77230NA+    NA+41163  44.861  34.472  11.437
77231NA+    NA+41164  40.414  29.491  11.064
77232NA+    NA+41165   5.254  13.219   2.191
77233NA+    NA+41166  39.353  19.732   3.290
77234NA+    NA+41167   3.723  20.231   0.882
77235NA+    NA+41168  30.124  19.662  14.340
77236NA+    NA+41169  25.623  34.597  11.548
77237NA+    NA+41170   2.901  32.907   3.817
77238NA+    NA+41171  23.052   3.235  14.028
77239NA+    NA+41172  37.048  38.054  11.072
77240NA+    NA+41173  17.685  18.119  13.985
77241NA+    NA+41174  41.793  37.074   2.358
77242NA+    NA+41175  10.218  40.885   0.328
77243NA+    NA+41176  27.582  34.506   1.805
77244NA+    NA+41177  26.490  16.696  10.134
77245NA+    NA+41178  43.972   0.450   1.430
77246NA+    NA+41179  23.051  36.095  12.968
77247NA+    NA+41180  40.024  38.936   4.132
77248NA+    NA+41181  43.987  38.039   3.213
77249NA+    NA+41182  31.558  13.349  13.417
77250NA+    NA+41183  36.031  34.973   1.802
77251NA+    NA+41184   5.433  30.591  10.996
77252NA+    NA+41185  31.910  32.965   3.291
77253NA+    NA+41186  26.677  34.383  14.512
77254NA+    NA+41187   4.249  35.474  13.902
77255NA+    NA+41188  10.168  31.153   3.674
77256NA+    NA+41189  39.382  38.000  10.591
77257NA+    NA+41190  13.325  34.614   3.843
77258NA+    NA+41191  28.617   3.803   3.287
77259NA+    NA+41192   0.836  20.671  11.976
77260NA+    NA+41193  20.111   9.661  12.361
77261NA+    NA+41194  24.716   9.395  11.380
77262NA+    NA+41195  22.668  44.926  14.436
77263NA+    NA+41196  21.749   2.889  13.334
77264NA+    NA+41197  33.487  23.207   1.821
77265NA+    NA+41198  20.585  36.376  10.584
77266NA+    NA+41199  15.230  17.593   4.282
77267NA+    NA+41200   3.297  40.004  12.546
77268NA+    NA+41201  43.379  10.777  12.552
77269NA+    NA+41202  24.525   8.249  14.477
77270NA+    NA+41203  44.973  35.069   1.870
77271NA+    NA+41204  13.771   7.252   5.109
77272NA+    NA+41205  30.973  32.528  13.813
77273NA+    NA+41206  27.088  11.222   0.919
77274NA+    NA+41207  16.771  31.526  10.898
77275NA+    NA+41208  19.678  31.064  14.420
77276NA+    NA+41209  42.363   2.892   3.798
77277NA+    NA+41210  23.159  15.310   2.713
77278NA+    NA+41211  13.239  17.750  13.056
77279NA+    NA+41212  24.024  44.881   5.310
77280NA+    NA+41213  23.044  40.419  11.876
77281NA+    NA+41214  24.666  38.008   3.223
77282NA+    NA+41215  20.749  38.446   0.461
77283NA+    NA+41216   7.179  13.656  14.911
77284NA+    NA+41217  44.777   5.915   0.861
77285NA+    NA+41218   9.241  17.168  12.497
77286NA+    NA+41219   2.852  25.677  13.837
77287NA+    NA+41220  33.900   6.380  12.957
77288NA+    NA+41221   1.376   7.403  11.486
77289NA+    NA+41222   9.689  18.580  12.474
77290NA+    NA+41223  29.048  28.030  13.963
77291NA+    NA+41224  20.698  43.850  11.435
77292NA+    NA+41225  14.774  30.535   1.254
77293NA+    NA+41226   8.375  18.686   3.296
77294NA+    NA+41227  14.217  41.303  12.579
77295NA+    NA+41228  38.998  43.414   1.861
77296NA+    NA+41229  11.319  12.199   1.359
77297NA+    NA+41230   1.752  11.698  10.411
77298NA+    NA+41231  21.636  36.367   0.751
77299NA+    NA+41232   4.252  42.446  11.495
77300NA+    NA+41233  28.451   3.781   2.750
77301NA+    NA+41234   7.308   7.195  11.462
77302NA+    NA+41235   8.884  22.192   3.281
77303NA+    NA+41236  10.874  11.647  12.938
77304NA+    NA+41237  38.444  36.510   2.184
77305NA+    NA+41238   8.821   5.231   0.956
77306NA+    NA+41239  26.624  39.345  14.342
77307NA+    NA+41240  22.246  36.402   1.798
77308NA+    NA+41241   1.364  36.022   0.438
77309NA+    NA+41242  29.520  29.648  12.842
77310NA+    NA+41243  11.297  31.908  14.428
77311NA+    NA+41244   2.269  40.390   3.753
77312NA+    NA+41245  15.627   1.331  14.779
77313NA+    NA+41246   3.951  25.052  12.431
77314NA+    NA+41247  26.154  14.198   0.324
77315NA+    NA+41248  36.898  38.983  13.440
77316NA+    NA+41249   2.885  34.371   3.822
77317NA+    NA+41250  40.488  32.088   4.291
77318NA+    NA+41251  34.878   3.430   3.178
77319NA+    NA+41252  43.491  16.292  11.876
77320NA+    NA+41253  42.281  23.632   4.728
77321NA+    NA+41254  36.050  11.639   0.845
77322NA+    NA+41255   0.881  38.328   2.841
77323NA+    NA+41256  21.558  34.460  13.532
77324NA+    NA+41257  12.720  42.500   1.348
77325NA+    NA+41258  16.694  13.178   2.208
77326NA+    NA+41259  25.713  22.152  13.808
77327NA+    NA+41260  31.446  17.154  14.855
77328NA+    NA+41261   5.889  42.832   1.867
77329NA+    NA+41262   8.172  12.233  11.489
77330NA+    NA+41263  29.644   9.173  14.303
77331NA+    NA+41264  23.548   1.358  14.932
77332NA+    NA+41265  17.165  30.459   5.161
77333NA+    NA+41266  15.234  28.130   3.786
77334NA+    NA+41267  44.379  15.688  11.038
77335NA+    NA+41268  37.917  18.618  10.483
77336NA+    NA+41269  29.114  15.701   1.852
77337NA+    NA+41270  17.760  22.043  14.341
77338NA+    NA+41271   4.900   1.445   1.404
77339NA+    NA+41272  12.118   5.343  10.941
77340NA+    NA+41273  15.167  19.141  14.788
77341NA+    NA+41274  18.297  15.776  14.277
77342NA+    NA+41275   2.378   1.429  12.448
77343NA+    NA+41276  31.556   8.750   4.645
77344NA+    NA+41277  18.233  20.557   2.333
77345NA+    NA+41278  12.764  32.996   1.819
77346NA+    NA+41279  29.972  18.735  11.024
77347NA+    NA+41280  20.178   3.788  12.389
77348NA+    NA+41281   7.375  41.486   1.431
77349NA+    NA+41282  15.260  27.649   3.816
77350NA+    NA+41283  42.879  30.464   0.319
77351NA+    NA+41284   9.860   0.448  12.472
77352NA+    NA+41285  24.503  27.635  11.526
77353NA+    NA+41286  16.309  20.218   4.310
77354NA+    NA+41287  25.669  20.559   3.844
77355NA+    NA+41288  25.583  40.940  13.910
77356NA+    NA+41289  28.178  21.738   1.311
77357NA+    NA+41290  30.991  13.705  12.385
77358NA+    NA+41291  11.254  16.575  13.828
77359NA+    NA+41292  32.600   5.822   1.447
77360NA+    NA+41293  30.427  39.328   1.212
77361NA+    NA+41294  43.358   0.907   2.773
77362NA+    NA+41295  13.690  38.484   3.201
77363NA+    NA+41296   2.845  13.237  14.851
77364NA+    NA+41297  35.424  25.510   1.916
77365NA+    NA+41298  42.020  32.916  13.509
77366NA+    NA+41299  37.535  36.346   3.701
77367NA+    NA+41300   1.872  23.687   4.194
77368NA+    NA+41301  24.529  43.901  12.909
77369NA+    NA+41302  40.910  13.687   0.947
77370NA+    NA+41303  37.019  23.586   1.307
77371NA+    NA+41304  40.857  11.801  11.523
77372NA+    NA+41305  10.726   3.770  10.455
77373NA+    NA+41306  31.092  29.101   3.753
77374NA+    NA+41307   5.907  23.707   3.160
77375NA+    NA+41308  32.960  25.009   1.372
77376NA+    NA+41309  25.118  34.083   1.852
77377NA+    NA+41310  15.150   4.721   3.667
77378NA+    NA+41311   2.458  20.198  13.944
77379NA+    NA+41312   5.709   0.869   2.289
77380NA+    NA+41313  19.637  19.567  11.984
77381NA+    NA+41314  40.823  43.796   4.150
77382NA+    NA+41315  19.733  14.765   3.630
77383NA+    NA+41316  28.085   0.272  10.962
77384NA+    NA+41317  42.901  26.500   5.159
77385NA+    NA+41318  18.731  28.444  13.389
77386NA+    NA+41319  15.819  44.402  11.563
77387NA+    NA+41320  12.123  27.973   0.775
77388NA+    NA+41321  44.758  11.771   3.337
77389NA+    NA+41322  18.106  24.524   2.825
77390NA+    NA+41323   6.878  43.368   3.380
77391NA+    NA+41324   2.944  25.581  13.475
77392NA+    NA+41325  38.388  11.280  12.476
77393NA+    NA+41326   2.867  14.250   0.787
77394NA+    NA+41327   7.240  37.858  14.805
77395NA+    NA+41328   4.303  18.571   2.837
77396NA+    NA+41329  28.649   6.255  14.484
77397NA+    NA+41330  44.355  18.560   1.382
77398NA+    NA+41331  38.927  35.940  12.342
77399NA+    NA+41332  22.164  18.604   0.246
77400NA+    NA+41333  30.915   1.417   3.344
77401NA+    NA+41334  26.066  32.628  11.110
77402NA+    NA+41335  26.651  15.628  13.491
77403NA+    NA+41336  39.376   2.373   3.673
77404NA+    NA+41337  26.183  27.526   2.800
77405NA+    NA+41338  35.896  16.739   0.404
77406NA+    NA+41339   5.774  19.753  13.365
77407NA+    NA+41340  35.385   2.347  11.529
77408NA+    NA+41341   5.332  10.261  13.953
77409NA+    NA+41342  21.057  11.866  13.860
77410NA+    NA+41343  24.105  22.710   4.598
77411NA+    NA+41344  22.513   2.360   2.852
77412NA+    NA+41345  16.305  40.440  10.578
77413NA+    NA+41346   7.845   6.196  13.427
77414NA+    NA+41347  19.152  39.930   0.414
77415NA+    NA+41348  15.270   0.454   4.719
77416NA+    NA+41349  22.027   7.910  13.870
77417NA+    NA+41350   5.699  37.055  12.575
77418NA+    NA+41351  22.676  10.344  13.475
77419NA+    NA+41352  19.284  19.764  11.018
77420NA+    NA+41353  30.028  36.932   1.450
77421NA+    NA+41354  40.539  44.980   0.341
77422NA+    NA+41355  36.862   3.908   0.912
77423NA+    NA+41356  14.225  40.517  10.593
77424NA+    NA+41357   0.794  31.640   4.234
77425NA+    NA+41358  40.939  30.983   1.242
77426NA+    NA+41359  35.471  30.593  10.468
77427NA+    NA+41360  12.203  14.307  11.866
77428NA+    NA+41361  20.605  29.048   0.779
77429NA+    NA+41362  44.934   3.774   1.297
77430NA+    NA+41363  38.344   4.429   2.838
77431NA+    NA+41364  21.609  16.262   3.736
77432NA+    NA+41365  20.087  32.513   4.169
77433NA+    NA+41366   7.805  23.131  10.443
77434NA+    NA+41367  11.653   2.319  11.380
77435NA+    NA+41368  12.687  42.980  12.084
77436NA+    NA+41369  43.354  40.851   0.296
77437NA+    NA+41370  35.421  27.568   2.210
77438NA+    NA+41371  18.100   5.835  11.866
77439NA+    NA+41372  31.037  17.566  13.335
77440NA+    NA+41373  30.929  27.952   0.465
77441NA+    NA+41374  21.031  36.531   1.865
77442NA+    NA+41375   1.237  17.162   0.738
77443NA+    NA+41376  43.937  31.403  13.468
77444NA+    NA+41377   7.682  21.243   1.829
77445NA+    NA+41378   8.376  11.273   2.808
77446NA+    NA+41379  29.036  18.093  12.446
77447NA+    NA+41380  24.583  18.603  13.925
77448NA+    NA+41381  32.028  24.564  13.922
77449NA+    NA+41382   3.322  29.490  13.902
77450NA+    NA+41383  18.720  37.380  11.407
77451NA+    NA+41384  14.820  42.865  14.823
77452NA+    NA+41385   5.822  24.696  12.517
77453NA+    NA+41386   0.354  10.151  12.374
77454NA+    NA+41387  10.779  39.439   4.808
77455NA+    NA+41388   1.302  19.543   0.864
77456NA+    NA+41389  34.927  37.006  13.452
77457NA+    NA+41390   7.353   8.228   2.855
77458NA+    NA+41391  13.131  32.476  14.802
77459NA+    NA+41392  13.122  43.011   1.272
77460NA+    NA+41393  32.930  22.705  11.560
77461NA+    NA+41394  41.448  37.057  13.383
77462NA+    NA+41395   4.911   0.414   1.306
77463NA+    NA+41396  44.993  15.671  11.921
77464NA+    NA+41397  36.492  19.576  14.514
77465NA+    NA+41398  26.641   8.209   4.794
77466NA+    NA+41399  15.821  17.095  12.458
77467NA+    NA+41400  28.058  22.123  14.803
77468NA+    NA+41401  25.682  14.338   0.798
77469NA+    NA+41402  20.237   5.231  13.851
77470NA+    NA+41403  18.183   2.921   0.302
77471NA+    NA+41404  21.546  17.739  12.397
77472NA+    NA+41405  35.902  13.652   1.388
77473NA+    NA+41406   6.188  35.015   1.770
77474NA+    NA+41407   7.709  36.516   3.860
77475NA+    NA+41408  39.417  20.183  14.359
77476NA+    NA+41409  20.190  34.939  13.809
77477NA+    NA+41410  39.539   0.385   1.904
77478NA+    NA+41411   4.917  39.992  14.899
77479NA+    NA+41412  41.871  42.958  10.593
77480NA+    NA+41413   1.912  24.034  12.377
77481NA+    NA+41414  33.062  14.644   4.287
77482NA+    NA+41415  14.710  33.974   2.307
77483NA+    NA+41416  35.977   4.386  10.489
77484NA+    NA+41417  27.117  33.116  13.365
77485NA+    NA+41418  33.997  19.272   3.816
77486NA+    NA+41419  29.524  33.417   4.180
77487NA+    NA+41420  40.357  32.940  14.972
77488NA+    NA+41421  42.790   9.842  13.051
77489NA+    NA+41422  11.134   4.881  14.378
77490NA+    NA+41423  32.090   3.283  11.548
77491NA+    NA+41424  24.589  26.684  14.997
77492NA+    NA+41425  19.198   9.201  12.083
77493NA+    NA+41426  34.084  25.982   0.937
77494NA+    NA+41427  40.862  31.411  12.825
77495NA+    NA+41428  25.475  33.606  11.043
77496NA+    NA+41429  22.555   3.378  13.969
77497NA+    NA+41430   1.901  12.192   3.240
77498NA+    NA+41431  23.651  26.192   2.307
77499NA+    NA+41432  23.537  40.039  11.910
77500NA+    NA+41433  11.862  14.700  10.008
77501NA+    NA+41434  38.453  44.784  12.906
77502NA+    NA+41435  29.134  29.046   0.310
77503NA+    NA+41436  31.492  42.905   1.436
77504NA+    NA+41437  41.513  15.249  12.534
77505NA+    NA+41438  44.943   6.218   3.306
77506NA+    NA+41439   8.311  23.735  11.048
77507NA+    NA+41440  25.542   6.208  10.017
77508NA+    NA+41441  26.483  27.946  11.033
77509NA+    NA+41442  15.604  32.073  13.538
77510NA+    NA+41443   1.788  25.124   4.258
77511NA+    NA+41444  20.551  30.568  12.541
77512NA+    NA+41445  41.508  26.085   1.875
77513NA+    NA+41446   6.333   4.782   3.743
77514NA+    NA+41447   4.794  36.950  12.064
77515NA+    NA+41448  43.465  29.112   1.815
77516NA+    NA+41449   3.945   2.812  14.294
77517NA+    NA+41450  34.386   7.362  14.428
77518NA+    NA+41451  41.321  27.124   2.396
77519NA+    NA+41452  38.520  12.292   3.750
77520NA+    NA+41453  33.885   8.675   2.385
77521NA+    NA+41454   0.273  25.106   4.126
77522NA+    NA+41455  44.387  34.446  10.955
77523NA+    NA+41456  19.275  31.548   2.855
77524NA+    NA+41457   4.703  15.788   0.824
77525NA+    NA+41458  11.827  19.630  12.910
77526NA+    NA+41459  24.517  41.407  13.007
77527NA+    NA+41460  37.562  39.814  14.824
77528NA+    NA+41461  29.640   7.888   4.682
77529NA+    NA+41462  21.617  12.739   5.211
77530NA+    NA+41463  25.652  20.763   1.241
77531NA+    NA+41464  15.137  10.761   2.253
77532NA+    NA+41465  18.721   4.372  11.446
77533NA+    NA+41466   4.871  26.675  12.352
77534NA+    NA+41467  10.835   0.340  13.435
77535NA+    NA+41468  35.101  35.039  12.973
77536NA+    NA+41469  42.500  34.482   0.247
77537NA+    NA+41470   6.359  30.086  12.480
77538NA+    NA+41471  34.499  14.806  12.527
77539NA+    NA+41472  32.610  11.265   1.842
77540NA+    NA+41473  41.973   1.754  11.860
77541NA+    NA+41474  25.180  30.641   4.354
77542NA+    NA+41475  39.405  22.170  14.376
77543NA+    NA+41476  23.660  25.491  13.913
77544NA+    NA+41477  36.868  44.879  12.549
77545NA+    NA+41478   4.392  13.247   2.716
77546NA+    NA+41479  27.574  18.686  12.380
77547NA+    NA+41480  40.907  27.480   1.312
77548NA+    NA+41481   1.330   4.881  12.956
77549NA+    NA+41482  33.910  38.378   1.384
77550NA+    NA+41483   0.893   2.936  10.499
77551NA+    NA+41484  44.426   5.867   4.789
77552NA+    NA+41485  33.381   8.750  13.949
77553NA+    NA+41486  13.274  40.376  11.464
77554NA+    NA+41487  21.177  43.854  14.296
77555NA+    NA+41488  26.527  35.481  14.962
77556NA+    NA+41489  14.817   5.692  14.861
77557NA+    NA+41490   0.934  37.860   2.684
77558NA+    NA+41491   5.368  31.568  14.489
77559NA+    NA+41492   0.306  43.502  14.474
77560NA+    NA+41493   5.306  27.061  12.426
77561NA+    NA+41494  16.256  21.251  10.075
77562NA+    NA+41495   5.313  42.491  14.762
77563NA+    NA+41496   5.881  41.460   3.787
77564NA+    NA+41497  40.816   5.863  11.127
77565NA+    NA+41498  14.122   6.373   4.317
77566NA+    NA+41499   1.900  23.232   4.206
77567NA+    NA+41500  20.561  30.468   1.294
77568NA+    NA+41501  33.132  24.667   2.706
77569NA+    NA+41502  37.927   9.312   3.199
77570NA+    NA+41503  35.952  43.396   2.246
77571NA+    NA+41504  18.281   7.869   5.720
77572NA+    NA+41505  21.748   5.355  10.418
77573NA+    NA+41506  32.626  40.825   2.678
77574NA+    NA+41507   1.474  40.410   3.318
77575NA+    NA+41508   7.872  34.028   4.650
77576NA+    NA+41509  28.078  20.540   0.245
77577NA+    NA+41510   5.354  30.034   3.181
77578NA+    NA+41511  39.039  43.778  12.986
77579NA+    NA+41512  15.682  30.634  11.122
77580NA+    NA+41513   7.382   5.370  11.602
77581NA+    NA+41514  35.582  20.664   1.783
77582NA+    NA+41515  17.739  24.607  13.502
77583NA+    NA+41516  15.203  40.018  13.502
77584NA+    NA+41517  35.451  29.953   2.253
77585NA+    NA+41518  28.609  13.138   3.681
77586NA+    NA+41519  27.109  17.758   2.847
77587NA+    NA+41520  34.039  16.776  11.590
77588NA+    NA+41521  21.585  17.191  14.907
77589NA+    NA+41522   6.895  27.996  10.444
77590NA+    NA+41523  43.909  12.118  11.507
77591NA+    NA+41524  10.155   2.762   3.257
77592NA+    NA+41525  23.167  24.089   2.742
77593NA+    NA+41526  26.126  25.708  12.370
77594NA+    NA+41527  42.311  19.041   4.708
77595NA+    NA+41528  22.026  24.187   2.881
77596NA+    NA+41529  13.823   6.210  13.836
77597NA+    NA+41530   7.279  39.535  12.404
77598NA+    NA+41531  13.155  42.490  12.468
77599NA+    NA+41532   4.403  24.155   1.929
77600NA+    NA+41533   0.391  16.750  11.463
77601NA+    NA+41534  32.394   6.848   2.666
77602NA+    NA+41535  33.555  17.266   5.152
77603NA+    NA+41536   4.438  42.012  13.896
77604NA+    NA+41537  16.795   4.910  11.580
77605NA+    NA+41538  44.426  28.049   3.745
77606NA+    NA+41539   1.327   0.309   0.442
77607NA+    NA+41540  29.949   4.404  13.886
77608NA+    NA+41541  26.595  38.844   4.330
77609NA+    NA+41542  35.539  36.995  12.527
77610NA+    NA+41543   3.246  27.494   9.944
77611NA+    NA+41544  24.981  14.263   4.235
77612NA+    NA+41545   2.276  12.765  10.059
77613NA+    NA+41546  39.376  33.418   3.702
77614NA+    NA+41547  16.648  42.508   3.200
77615NA+    NA+41548   9.198  26.507  12.027
77616NA+    NA+41549  17.748  29.564  11.606
77617NA+    NA+41550  36.385   9.871  11.913
77618NA+    NA+41551  37.552   1.467  14.907
77619NA+    NA+41552   8.855  44.412  12.364
77620NA+    NA+41553  21.677  29.070  14.886
77621NA+    NA+41554   4.349  28.070   1.820
77622NA+    NA+41555  10.233  43.855  12.518
77623NA+    NA+41556  29.962  24.526   1.726
77624NA+    NA+41557  28.503  40.398  14.772
77625NA+    NA+41558  34.103  42.024  14.788
77626NA+    NA+41559   6.236  42.345  12.044
77627NA+    NA+41560  19.106   3.800   1.245
77628NA+    NA+41561  10.346  35.950   4.752
77629NA+    NA+41562  41.338  12.735  14.945
77630NA+    NA+41563  23.205  12.227   0.806
77631NA+    NA+41564  25.984  42.328   0.261
77632NA+    NA+41565  32.520  24.095   3.291
77633NA+    NA+41566  20.167  41.360  13.514
77634NA+    NA+41567   8.215   5.326  11.872
77635NA+    NA+41568   6.405   4.942  13.007
77636NA+    NA+41569  22.559  26.487   1.709
77637NA+    NA+41570  17.800  16.255   3.232
77638NA+    NA+41571  38.360  37.504   0.362
77639NA+    NA+41572  32.087   9.706  10.575
77640NA+    NA+41573  29.544  39.441  11.540
77641NA+    NA+41574   6.738   5.396  10.627
77642NA+    NA+41575   6.892   2.304   0.282
77643NA+    NA+41576  35.891  16.672   4.725
77644NA+    NA+41577   7.680   3.250  14.480
77645NA+    NA+41578  19.065  30.574   4.597
77646NA+    NA+41579  25.627  10.775   1.410
77647NA+    NA+41580  35.981  21.201   2.412
77648NA+    NA+41581  32.588  30.147   1.895
77649NA+    NA+41582  39.013  15.125   3.797
77650NA+    NA+41583  21.090  10.844   2.326
77651NA+    NA+41584  26.069  28.126  10.496
77652NA+    NA+41585   6.687  21.152  12.947
77653NA+    NA+41586  37.482  39.019   4.658
77654NA+    NA+41587  14.295  17.765  13.052
77655NA+    NA+41588   4.877  12.718  11.488
77656NA+    NA+41589  25.075  26.991   2.773
77657NA+    NA+41590  25.495  35.545   0.934
77658NA+    NA+41591  30.546  27.524  13.048
77659NA+    NA+41592  16.700  32.468   1.292
77660NA+    NA+41593  42.342  34.864  12.454
77661NA+    NA+41594  28.180   0.844   1.225
77662NA+    NA+41595  13.316  36.546   0.276
77663NA+    NA+41596  34.863  13.769  10.998
77664NA+    NA+41597   6.339  24.542   1.891
77665NA+    NA+41598  39.001  37.458   4.690
77666NA+    NA+41599  23.010   1.975   3.853
77667NA+    NA+41600  17.105   5.356   3.345
77668NA+    NA+41601  43.921  26.573   0.829
77669NA+    NA+41602  13.661  12.282   2.317
77670NA+    NA+41603  31.440  15.778  11.529
77671NA+    NA+41604  11.851  16.219   1.790
77672NA+    NA+41605  11.726   9.375   0.794
77673NA+    NA+41606  12.179  42.903  14.825
77674NA+    NA+41607  18.168  32.940   0.298
77675NA+    NA+41608   0.336   3.302   1.708
77676NA+    NA+41609  16.175  38.959   2.800
77677NA+    NA+41610  44.383  35.539  13.476
77678NA+    NA+41611  12.662   7.709  11.046
77679NA+    NA+41612  21.600  33.128  12.935
77680NA+    NA+41613  12.787  26.995  13.896
77681NA+    NA+41614  28.651   1.362  10.570
77682NA+    NA+41615   3.825   3.400  10.008
77683NA+    NA+41616  40.369   2.814   4.180
77684NA+    NA+41617   7.308  17.146  11.571
77685NA+    NA+41618   8.313  16.723   4.271
77686NA+    NA+41619  13.313  36.026  13.007
77687NA+    NA+41620  36.966  26.104   1.819
77688NA+    NA+41621  12.360  35.408  14.388
77689NA+    NA+41622  30.597   6.817  13.473
77690NA+    NA+41623   6.326   2.884   3.797
77691NA+    NA+41624   8.286  28.030   4.294
77692NA+    NA+41625  10.826  12.229  14.944
77693NA+    NA+41626  18.174  32.602   1.296
77694NA+    NA+41627  16.626   5.765   0.943
77695NA+    NA+41628  42.386  28.135  12.889
77696NA+    NA+41629  21.158  34.017   1.922
77697NA+    NA+41630  24.058  44.260  13.957
77698NA+    NA+41631  41.819  34.896  10.465
77699NA+    NA+41632  18.216  43.506  11.129
77700NA+    NA+41633  34.889  23.212   1.906
77701NA+    NA+41634  26.184  36.882  14.847
77702NA+    NA+41635  16.220  28.594  13.049
77703NA+    NA+41636   5.400  18.271  11.472
77704NA+    NA+41637  29.045  16.796  13.850
77705NA+    NA+41638  19.669  28.672   1.818
77706NA+    NA+41639  20.692  39.459  14.010
77707NA+    NA+41640  15.238  14.153  14.974
77708NA+    NA+41641  43.435  32.580   1.796
77709NA+    NA+41642  10.319  22.667   4.142
77710NA+    NA+41643  15.274   2.769   1.249
77711NA+    NA+41644   9.273  33.003  11.531
77712NA+    NA+41645  21.732  12.801  13.988
77713NA+    NA+41646  11.666  26.197  12.983
77714NA+    NA+41647  28.460  26.556   9.972
77715NA+    NA+41648   1.319   4.892   4.617
77716NA+    NA+41649  27.132  33.390  14.905
77717NA+    NA+41650  32.927   1.481   0.907
77718NA+    NA+41651   8.791  18.607  13.030
77719NA+    NA+41652  42.816  35.463  10.947
77720NA+    NA+41653  14.621   2.878   3.819
77721NA+    NA+41654  36.000  41.852  11.506
77722NA+    NA+41655  21.514  26.472  13.869
77723NA+    NA+41656  21.109  32.953   3.704
77724NA+    NA+41657  15.248  14.715  14.452
77725NA+    NA+41658  18.285  32.112   4.598
77726NA+    NA+41659  41.856   2.326   3.703
77727NA+    NA+41660  28.012   9.265  14.955
77728NA+    NA+41661  23.240  42.372  13.973
77729NA+    NA+41662   3.778  31.008  13.989
77730NA+    NA+41663   9.740  31.474  11.076
77731NA+    NA+41664  38.496  29.953   1.214
77732NA+    NA+41665  36.348   6.910   3.223
77733NA+    NA+41666  30.648   6.373  10.963
77734NA+    NA+41667  16.628   8.304   3.212
77735NA+    NA+41668  14.728  33.612   9.956
77736NA+    NA+41669  35.452  25.651   3.325
77737NA+    NA+41670  29.978   1.924  10.594
77738NA+    NA+41671  23.076   3.937   2.836
77739NA+    NA+41672  18.727  39.412  11.109
77740NA+    NA+41673   1.737  18.204  10.954
77741NA+    NA+41674  43.861  29.141  11.043
77742NA+    NA+41675  17.260  36.384  13.029
77743NA+    NA+41676   3.308  35.953   1.803
77744NA+    NA+41677  13.709  35.515   0.390
77745NA+    NA+41678   5.307   9.353  11.865
77746NA+    NA+41679  21.591   6.350   3.658
77747NA+    NA+41680   2.845  14.656   4.683
77748NA+    NA+41681   0.395   7.302  11.951
77749NA+    NA+41682   4.381  21.732  12.850
77750NA+    NA+41683  28.003  11.799   0.864
77751NA+    NA+41684  22.063  42.971  11.897
77752NA+    NA+41685  23.498  16.710   0.914
77753NA+    NA+41686  44.411   9.207   1.788
77754NA+    NA+41687  28.660  32.050   1.320
77755NA+    NA+41688  30.514  27.477   2.866
77756NA+    NA+41689  38.862   8.221  14.410
77757NA+    NA+41690  34.503  24.094   0.750
77758NA+    NA+41691  32.040  38.961   5.251
77759NA+    NA+41692  31.490  28.633  10.443
77760NA+    NA+41693  43.969  38.553   1.760
77761NA+    NA+41694  24.490  11.812   0.404
77762NA+    NA+41695   5.753   0.815  12.855
77763NA+    NA+41696  42.423   1.428  12.362
77764NA+    NA+41697   6.312  31.637  12.524
77765NA+    NA+41698  34.467   3.250  13.003
77766NA+    NA+41699  31.938   4.795   1.864
77767NA+    NA+41700   1.442  30.015   2.265
77768NA+    NA+41701  25.694  27.142   4.649
77769NA+    NA+41702   5.438  43.928   1.231
77770NA+    NA+41703  26.982  32.592   0.754
77771NA+    NA+41704   8.354  44.457  14.838
77772NA+    NA+41705  33.389  37.582  10.987
77773NA+    NA+41706  14.147  27.145  14.908
77774NA+    NA+41707   7.747  30.927  12.905
77775NA+    NA+41708  12.291  27.473  10.934
77776NA+    NA+41709  15.102   7.711   1.844
77777NA+    NA+41710   7.666  30.156   4.608
77778NA+    NA+41711  25.068  39.389  12.382
77779NA+    NA+41712  21.035  28.501   1.307
77780NA+    NA+41713   4.886  26.474   4.274
77781NA+    NA+41714  15.111  19.160  11.906
77782NA+    NA+41715  43.980  35.858  10.471
77783NA+    NA+41716  22.057  26.155   2.340
77784NA+    NA+41717  39.015   7.769   1.867
77785NA+    NA+41718  27.038  11.819  13.918
77786NA+    NA+41719  25.204  34.038   4.210
77787NA+    NA+41720  33.620  11.247  10.500
77788NA+    NA+41721   4.857  35.048   5.192
77789NA+    NA+41722  30.045  14.192   3.733
77790NA+    NA+41723  32.029  10.736   0.958
77791NA+    NA+41724  41.308  33.960  14.771
77792NA+    NA+41725  34.535  43.999   4.168
77793NA+    NA+41726  24.632  10.675  11.897
77794NA+    NA+41727  34.507  25.087   3.842
77795NA+    NA+41728   4.817  18.593   1.698
77796NA+    NA+41729  33.465  12.323  13.830
77797NA+    NA+41730   8.756  43.463  12.053
77798NA+    NA+41731  30.030   5.814   0.884
77799NA+    NA+41732  34.418  21.585  10.637
77800NA+    NA+41733  42.901  12.857  13.861
77801NA+    NA+41734   0.470  34.412  11.458
77802NA+    NA+41735  36.936  16.593   1.773
77803NA+    NA+41736  34.604  13.164   2.759
77804NA+    NA+41737  35.005  17.308  11.126
77805NA+    NA+41738  15.266  25.162   4.684
77806NA+    NA+41739  39.514  14.601  12.015
77807NA+    NA+41740   0.338   2.348   2.706
77808NA+    NA+41741  36.970  21.606  12.424
77809NA+    NA+41742  24.094  44.380  13.310
77810NA+    NA+41743  13.223  22.020  11.495
77811NA+    NA+41744  33.562  15.737   0.766
77812NA+    NA+41745  16.232  15.750   3.776
77813NA+    NA+41746  29.644  32.498  12.835
77814NA+    NA+41747   3.907  16.134  11.599
77815NA+    NA+41748  35.519   9.706  14.383
77816NA+    NA+41749   3.276  39.361  14.935
77817NA+    NA+41750   4.900   6.361   2.783
77818NA+    NA+41751  16.119   2.336   2.718
77819NA+    NA+41752  36.957  29.635  13.487
77820NA+    NA+41753  19.214  36.929  10.415
77821NA+    NA+41754  32.519  29.030   2.705
77822NA+    NA+41755  35.055  35.040  10.986
77823NA+    NA+41756  18.742  13.659  13.060
77824NA+    NA+41757  30.460  31.512  13.915
77825NA+    NA+41758  32.526  24.980   2.896
77826NA+    NA+41759  26.538   5.365  12.878
77827NA+    NA+41760   8.809  34.516   2.855
77828NA+    NA+41761  11.194  44.964   2.206
77829NA+    NA+41762  33.043  24.988  13.815
77830NA+    NA+41763  22.701   0.934  13.062
77831NA+    NA+41764  42.904  16.156   1.217
77832NA+    NA+41765   8.219  17.572   3.158
77833NA+    NA+41766  42.922  18.175  13.523
77834NA+    NA+41767  42.494   7.883  12.466
77835NA+    NA+41768  40.395  21.556  11.985
77836NA+    NA+41769  29.964   5.399   1.353
77837NA+    NA+41770  25.515  26.192   4.685
77838NA+    NA+41771  19.712   0.283  11.540
77839NA+    NA+41772  23.688  44.463   1.352
77840NA+    NA+41773  41.511  18.564  12.561
77841NA+    NA+41774  18.248  42.013   4.269
77842NA+    NA+41775  43.444  12.803   3.374
77843NA+    NA+41776  24.056  30.083  13.802
77844NA+    NA+41777   5.368   1.885  13.434
77845NA+    NA+41778  38.064  44.871  12.436
77846NA+    NA+41779   3.322  15.163   0.884
77847NA+    NA+41780  14.695  23.562  14.354
77848NA+    NA+41781   4.715  26.555   2.354
77849NA+    NA+41782  41.318  24.029  13.855
77850NA+    NA+41783  42.378  29.949   4.309
77851NA+    NA+41784  15.119  28.124  14.373
77852NA+    NA+41785   1.966  19.669   2.685
77853NA+    NA+41786  37.067  37.411  11.912
77854NA+    NA+41787  15.745  32.465  14.511
77855NA+    NA+41788  31.038  27.095  14.471
77856NA+    NA+41789  10.703   3.878  12.580
77857NA+    NA+41790  30.085  22.099   3.730
77858NA+    NA+41791  25.037  16.749  11.434
77859NA+    NA+41792  40.338  10.309   4.234
77860NA+    NA+41793   6.892  30.035   1.874
77861NA+    NA+41794  17.631  37.395  10.140
77862NA+    NA+41795  14.226  13.207  13.425
77863NA+    NA+41796  37.943  24.535   4.647
77864NA+    NA+41797  13.828  33.454   4.726
77865NA+    NA+41798  15.293  14.675   1.804
77866NA+    NA+41799  31.498   1.830   4.666
77867NA+    NA+41800  30.062  37.838   2.720
77868NA+    NA+41801  28.493  35.363   2.357
77869NA+    NA+41802  13.625  37.039   1.318
77870NA+    NA+41803  13.649  16.317  13.457
77871NA+    NA+41804  18.189  31.526  12.936
77872NA+    NA+41805  34.889  37.376  10.936
77873NA+    NA+41806  12.693  37.538   4.165
77874NA+    NA+41807   8.860  37.996   0.888
77875NA+    NA+41808   7.347  20.052   2.379
77876NA+    NA+41809  11.840  42.352   0.314
77877NA+    NA+41810  12.622  35.568  11.122
77878NA+    NA+41811  10.334  34.082   4.336
77879NA+    NA+41812  42.424  23.042  12.573
77880NA+    NA+41813  23.017  42.311   1.717
77881NA+    NA+41814  27.049  15.823  12.084
77882NA+    NA+41815  33.569  11.227   3.228
77883NA+    NA+41816   9.715  12.314  10.589
77884NA+    NA+41817   0.389   3.415   3.749
77885NA+    NA+41818  33.495   3.436  12.852
77886NA+    NA+41819  20.176  14.783  10.588
77887NA+    NA+41820  34.120  44.298  10.507
77888NA+    NA+41821  43.406   6.693  10.543
77889NA+    NA+41822  14.240  24.715   2.378
77890NA+    NA+41823  11.320   4.285   3.749
77891NA+    NA+41824  11.309  34.526  12.496
77892NA+    NA+41825  17.764  17.093   4.191
77893NA+    NA+41826  30.134   6.298  14.875
77894NA+    NA+41827  25.012   7.755  14.940
77895NA+    NA+41828  30.615  18.712  12.540
77896NA+    NA+41829  22.022  17.558   0.811
77897NA+    NA+41830   1.920   7.178  11.102
77898NA+    NA+41831  35.370   8.857  13.854
77899NA+    NA+41832  17.265  35.506  12.965
77900NA+    NA+41833  15.607  33.965  14.927
77901NA+    NA+41834  26.530  19.748  11.075
77902NA+    NA+41835  10.751  39.037  13.376
77903NA+    NA+41836   1.436  23.642  13.811
77904NA+    NA+41837  30.442  30.048  14.325
77905NA+    NA+41838  33.502  11.367  11.927
77906NA+    NA+41839  14.225   0.418  13.955
77907NA+    NA+41840  27.035   5.758   3.755
77908NA+    NA+41841  28.167  42.294  13.538
77909NA+    NA+41842   0.920  10.208  10.581
77910NA+    NA+41843  39.036  11.767  13.804
77911NA+    NA+41844  24.495  26.121  10.893
77912NA+    NA+41845  41.538  27.984  13.457
77913NA+    NA+41846   1.890  18.751   1.733
77914NA+    NA+41847  36.090  35.898   4.799
77915NA+    NA+41848  40.358  40.024  12.510
77916NA+    NA+41849   8.741  36.081   0.449
77917NA+    NA+41850  34.585  29.592   1.412
77918NA+    NA+41851  17.695  27.551   2.179
77919NA+    NA+41852  17.756   1.437  12.917
77920NA+    NA+41853  14.712  32.896   2.272
77921NA+    NA+41854  24.169  20.556  10.545
77922NA+    NA+41855  17.742   4.763  13.932
77923NA+    NA+41856  37.028  22.682  13.362
77924NA+    NA+41857  20.083   6.327   4.615
77925NA+    NA+41858  25.472  14.102   4.178
77926NA+    NA+41859  14.323  23.018  13.934
77927NA+    NA+41860  10.169  42.030   3.759
77928NA+    NA+41861  41.406  34.876  10.645
77929NA+    NA+41862  12.797  35.482  13.474
77930NA+    NA+41863  36.395  23.143   2.683
77931NA+    NA+41864  31.544  15.735  14.967
77932NA+    NA+41865   5.725  37.992  12.940
77933NA+    NA+41866   4.290   6.242  13.413
77934NA+    NA+41867   9.663  37.980   0.406
77935NA+    NA+41868   1.427  23.222   1.360
77936NA+    NA+41869  15.618   0.794  14.407
77937NA+    NA+41870   8.654   2.944   3.242
77938NA+    NA+41871  29.502   5.285   4.775
77939NA+    NA+41872  30.921  14.711  13.368
77940NA+    NA+41873   3.729  32.564  12.864
77941NA+    NA+41874   9.791   3.445   2.831
77942NA+    NA+41875  41.438  17.066  12.465
77943NA+    NA+41876   8.669   4.404   3.774
77944NA+    NA+41877  39.832  25.060   5.131
77945NA+    NA+41878  44.487  36.370   1.889
77946NA+    NA+41879  38.554  28.969   1.294
77947NA+    NA+41880   1.396  15.650   0.836
77948NA+    NA+41881  17.125   5.876   1.272
77949NA+    NA+41882  33.999   7.780  14.317
77950NA+    NA+41883  18.126  27.028   3.250
77951NA+    NA+41884  16.072   5.219   4.348
77952NA+    NA+41885  26.571  31.973  14.820
77953NA+    NA+41886   0.762  31.989   1.428
77954NA+    NA+41887   4.721  32.989   0.288
77955NA+    NA+41888  24.195  14.636  11.492
77956NA+    NA+41889   5.430  40.363  12.514
77957NA+    NA+41890  11.258  23.011   2.195
77958NA+    NA+41891  32.897  17.206   1.362
77959NA+    NA+41892  28.950  42.997  14.436
77960NA+    NA+41893  35.951   7.214   0.357
77961NA+    NA+41894   7.861  11.653  12.450
77962NA+    NA+41895   3.794   9.754   2.896
77963NA+    NA+41896   1.390   2.735   4.694
77964NA+    NA+41897  18.654  12.194   4.200
77965NA+    NA+41898  20.127  29.428   0.935
77966NA+    NA+41899  31.404  10.812   1.263
77967NA+    NA+41900  31.104   1.308  10.916
77968NA+    NA+41901  34.950   7.683   2.816
77969NA+    NA+41902   5.915   1.292   1.716
77970NA+    NA+41903  43.925  18.282  11.865
77971NA+    NA+41904  32.557   8.756  10.617
77972NA+    NA+41905  23.996  23.604  12.943
77973NA+    NA+41906  21.659   3.409   3.857
77974NA+    NA+41907   8.875   7.196  13.896
77975NA+    NA+41908  13.219  40.903   1.282
77976NA+    NA+41909  39.933  32.038   3.632
77977NA+    NA+41910   1.295  37.567  14.361
77978NA+    NA+41911  42.916  40.038   1.716
77979NA+    NA+41912  37.954  14.172   4.173
77980NA+    NA+41913  15.087  22.696   2.768
77981NA+    NA+41914  36.480  17.630  12.564
77982NA+    NA+41915  38.346   9.155  14.879
77983NA+    NA+41916  41.868  41.035  11.443
77984NA+    NA+41917  32.989  25.108  12.982
77985NA+    NA+41918  12.159  39.849   2.873
77986NA+    NA+41919  39.013  28.491   4.182
77987NA+    NA+41920  34.881  34.457   2.275
77988NA+    NA+41921   5.847  29.990   0.922
77989NA+    NA+41922  31.898  10.798   2.231
77990NA+    NA+41923  31.601  31.116   4.719
77991NA+    NA+41924  44.473  25.601   4.824
77992NA+    NA+41925  18.285  16.266  13.054
77993NA+    NA+41926  31.423  21.192   4.812
77994NA+    NA+41927  34.100  23.996  11.380
77995NA+    NA+41928  32.111  20.220   5.247
77996NA+    NA+41929  26.139  11.275  14.875
77997NA+    NA+41930   0.964  27.162   0.766
77998NA+    NA+41931   2.454   6.764  10.412
77999NA+    NA+41932  30.019   9.350   2.340
78000NA+    NA+41933  21.549  27.178   2.789
78001NA+    NA+41934  21.108   3.416  11.418
78002NA+    NA+41935  13.833  43.960  13.894
78003NA+    NA+41936  24.606  20.740  13.393
78004NA+    NA+41937  44.994  35.058  13.423
78005NA+    NA+41938   5.198  23.577  11.861
78006NA+    NA+41939  21.218   6.280   5.085
78007NA+    NA+41940   3.796   7.264  11.520
78008NA+    NA+41941  13.310   9.724  11.066
78009NA+    NA+41942  34.873  26.020  14.868
78010NA+    NA+41943   1.846  17.785   0.869
78011NA+    NA+41944  26.469  15.173  11.922
78012NA+    NA+41945  36.575  30.640  12.461
78013NA+    NA+41946  40.854  27.994   0.473
78014NA+    NA+41947  27.196  26.956  12.853
78015NA+    NA+41948  12.266   3.344   2.389
78016NA+    NA+41949   8.833  13.740   1.341
78017NA+    NA+41950   5.228  10.309   9.968
78018NA+    NA+41951  15.615  41.355   4.122
78019NA+    NA+41952  36.903  33.966   0.315
78020NA+    NA+41953  23.029  23.503   3.647
78021NA+    NA+41954   6.879  22.169   2.252
78022NA+    NA+41955   9.756  28.983  14.825
78023NA+    NA+41956  23.175  34.597  13.447
78024NA+    NA+41957  13.838  23.696  11.856
78025NA+    NA+41958   6.340  17.624   0.382
78026NA+    NA+41959  30.069  39.046   4.711
78027NA+    NA+41960  26.028  16.700  11.123
78028NA+    NA+41961  35.378  25.084   4.682
78029NA+    NA+41962  42.973  20.272  13.989
78030NA+    NA+41963  10.355   0.951  12.447
78031NA+    NA+41964  38.924   3.857  12.909
78032NA+    NA+41965  10.875   0.469   3.839
78033NA+    NA+41966  11.230  19.136  11.025
78034NA+    NA+41967   2.725  24.037   3.740
78035NA+    NA+41968  18.075  40.330   1.733
78036NA+    NA+41969  18.077  36.410  11.861
78037NA+    NA+41970  18.673  24.007   2.682
78038NA+    NA+41971  42.331  40.522   4.242
78039NA+    NA+41972  44.364  34.883  11.098
78040NA+    NA+41973  36.475  26.481  12.487
78041NA+    NA+41974  41.403  26.587   5.305
78042NA+    NA+41975  27.001  29.473   0.320
78043NA+    NA+41976  18.051  42.988   0.948
78044NA+    NA+41977   6.415  25.552   0.287
78045NA+    NA+41978   5.689  31.438  13.424
78046NA+    NA+41979   9.697  13.120   0.854
78047NA+    NA+41980  11.155   3.894   1.927
78048NA+    NA+41981  40.878  27.997  12.501
78049NA+    NA+41982  25.173  38.336   3.346
78050NA+    NA+41983  11.165  12.795   4.196
78051NA+    NA+41984  17.230  20.050  13.003
78052NA+    NA+41985  32.038  41.894   4.184
78053NA+    NA+41986  43.324  22.719   3.702
78054NA+    NA+41987  23.654  41.007  11.122
78055NA+    NA+41988   9.741  23.207   3.259
78056NA+    NA+41989  26.007  17.582   2.354
78057NA+    NA+41990  43.443   3.887   2.805
78058NA+    NA+41991  27.593  17.068   4.157
78059NA+    NA+41992   1.447  15.089   3.339
78060NA+    NA+41993   8.802  13.821  13.965
78061NA+    NA+41994  36.999   6.229   0.900
78062NA+    NA+41995  28.069  14.713  12.481
78063NA+    NA+41996  13.795   0.779  12.555
78064NA+    NA+41997   8.317  25.685   5.670
78065NA+    NA+41998  23.179  29.015   2.699
78066NA+    NA+41999  35.108  23.166   2.784
78067NA+    NA+42000   5.363  40.494   3.278
78068NA+    NA+42001  23.554   8.364   3.776
78069NA+    NA+42002  27.632   0.353   4.341
78070NA+    NA+42003  36.079  39.523  13.883
78071NA+    NA+42004   9.359  25.668   2.795
78072NA+    NA+42005  32.472  29.601  10.033
78073NA+    NA+42006  44.431   6.820  12.344
78074NA+    NA+42007  14.747  16.726   3.734
78075NA+    NA+42008  23.004  29.162  13.046
78076NA+    NA+42009  40.324   0.915   1.725
78077NA+    NA+42010  42.526  10.176  13.000
78078NA+    NA+42011  36.552  16.570   2.200
78079NA+    NA+42012  24.543   7.867   3.721
78080NA+    NA+42013  14.287   8.205  12.439
78081NA+    NA+42014  29.524  36.390  14.278
78082NA+    NA+42015  33.937   1.439   2.268
78083NA+    NA+42016  27.559  29.924  11.517
78084NA+    NA+42017  28.179  25.494   0.476
78085NA+    NA+42018  23.190  18.707  12.557
78086NA+    NA+42019   8.804  21.620  10.960
78087NA+    NA+42020  35.016  21.563   3.805
78088NA+    NA+42021  19.125  32.465  10.572
78089NA+    NA+42022   0.441  34.950   3.805
78090NA+    NA+42023  23.012  19.595  12.397
78091NA+    NA+42024   1.886  36.478  11.521
78092NA+    NA+42025  25.034  39.010  14.980
78093NA+    NA+42026  33.907  36.908  12.826
78094NA+    NA+42027   3.411  27.482   1.366
78095NA+    NA+42028  23.224  13.271  10.906
78096NA+    NA+42029   5.375   1.364  13.978
78097NA+    NA+42030  11.212  10.348  11.400
78098NA+    NA+42031  35.586  15.195  11.900
78099NA+    NA+42032  42.490  29.919  14.947
78100NA+    NA+42033  36.550  29.028  10.943
78101NA+    NA+42034  25.688  13.134  10.531
78102NA+    NA+42035  16.213   7.836   4.219
78103NA+    NA+42036   3.936  43.953  10.435
78104NA+    NA+42037  20.717   1.929  14.906
78105NA+    NA+42038   1.957  23.642  11.507
78106NA+    NA+42039  27.067  35.459   1.356
78107NA+    NA+42040   9.758   6.719   4.257
78108NA+    NA+42041  22.617  22.702  12.860
78109NA+    NA+42042   4.272  31.010   0.314
78110NA+    NA+42043  32.406  41.530   1.257
78111NA+    NA+42044  21.606  15.768  12.844
78112NA+    NA+42045   0.753  21.131  12.342
78113NA+    NA+42046  32.115   5.353  13.813
78114NA+    NA+42047  33.497   3.324  13.460
78115NA+    NA+42048  20.174  25.657   3.767
78116NA+    NA+42049  18.067   5.877   3.224
78117NA+    NA+42050  27.988  37.356   9.959
78118NA+    NA+42051  38.034  36.913  12.837
78119NA+    NA+42052  42.853  31.137  10.924
78120NA+    NA+42053  15.249  21.211   4.749
78121NA+    NA+42054  28.158  13.624   2.849
78122NA+    NA+42055  22.725  18.787   2.217
78123NA+    NA+42056  24.708  17.763  12.850
78124NA+    NA+42057  34.413  37.905   2.251
78125NA+    NA+42058  39.376   4.377  10.891
78126NA+    NA+42059   4.755  20.540   2.310
78127NA+    NA+42060  27.979  37.950   4.232
78128NA+    NA+42061  22.044  44.355  13.890
78129NA+    NA+42062  34.462  43.007   4.826
78130NA+    NA+42063   1.258  28.612   2.229
78131NA+    NA+42064  34.532  34.956  13.456
78132NA+    NA+42065   4.822  13.761   1.344
78133NA+    NA+42066   9.298  11.277  12.997
78134NA+    NA+42067  19.542  28.616   3.349
78135NA+    NA+42068  30.590  19.737   4.769
78136NA+    NA+42069  13.292  11.299   3.837
78137NA+    NA+42070  11.762   9.159  11.601
78138NA+    NA+42071  30.053  43.903  12.576
78139NA+    NA+42072  44.775  37.022  10.476
78140NA+    NA+42073  43.835   6.871  12.021
78141NA+    NA+42074  20.087  44.924   1.926
78142NA+    NA+42075  36.926  15.762  12.377
78143NA+    NA+42076  31.590   9.738  11.391
78144NA+    NA+42077  37.380   3.768   1.779
78145NA+    NA+42078  41.436  29.971   3.349
78146NA+    NA+42079  36.005   8.192   3.632
78147NA+    NA+42080   6.331   9.662  11.996
78148NA+    NA+42081  26.960  19.652  10.939
78149NA+    NA+42082  43.917   0.815   4.193
78150NA+    NA+42083  29.946  16.229  14.353
78151NA+    NA+42084  43.970  23.193   1.296
78152NA+    NA+42085  16.797  25.481  13.425
78153NA+    NA+42086  43.967   8.199  14.022
78154NA+    NA+42087  11.252  26.992  11.877
78155NA+    NA+42088  37.346   9.643  13.063
78156NA+    NA+42089  32.634  22.016   1.372
78157NA+    NA+42090  20.710   0.259  11.072
78158NA+    NA+42091  27.504  18.059  10.588
78159NA+    NA+42092  39.351  12.698  14.949
78160NA+    NA+42093  37.001   5.751   2.290
78161NA+    NA+42094  40.008  42.955   4.218
78162NA+    NA+42095   4.775   0.329   5.226
78163NA+    NA+42096  37.518  25.147  12.957
78164NA+    NA+42097   8.345  33.962  12.089
78165NA+    NA+42098  26.590  37.934  10.614
78166NA+    NA+42099   0.424  17.223   4.226
78167NA+    NA+42100  40.421  24.223   2.759
78168NA+    NA+42101  40.017  31.956  11.566
78169NA+    NA+42102  13.166  40.316  10.499
78170NA+    NA+42103  28.509   4.758  14.974
78171NA+    NA+42104  43.899  33.005  10.601
78172NA+    NA+42105  18.272  18.711   3.753
78173NA+    NA+42106   5.282   8.757  11.460
78174NA+    NA+42107  44.443   8.872  11.011
78175NA+    NA+42108  30.037  32.520  10.421
78176NA+    NA+42109  17.578  39.894   5.212
78177NA+    NA+42110  36.378   3.784   3.284
78178NA+    NA+42111  14.610  33.052   3.187
78179NA+    NA+42112  35.493  10.210   0.840
78180NA+    NA+42113  29.578  16.798   4.678
78181NA+    NA+42114  14.793  39.319  12.366
78182NA+    NA+42115  27.501  43.996   3.797
78183NA+    NA+42116  38.048  10.372   1.763
78184NA+    NA+42117  32.052  38.884   4.341
78185NA+    NA+42118  16.249  43.878   0.821
78186NA+    NA+42119  22.711   6.838   4.194
78187NA+    NA+42120  38.906  18.274  10.423
78188NA+    NA+42121  22.736  18.215  11.900
78189NA+    NA+42122  32.944  35.009  12.509
78190NA+    NA+42123  35.588  40.442   4.735
78191NA+    NA+42124  15.253  44.276  11.396
78192NA+    NA+42125   2.416   9.391   0.352
78193NA+    NA+42126   0.464  13.296  12.378
78194NA+    NA+42127  37.888  44.322   0.421
78195NA+    NA+42128  13.227   8.821   4.196
78196NA+    NA+42129  40.509   3.819  14.290
78197CL-    CL-42130  21.741  23.194   0.367
78198CL-    CL-42131  18.626   4.874  14.935
78199CL-    CL-42132  33.494  14.224  14.870
78200CL-    CL-42133  20.705  43.794   4.180
78201CL-    CL-42134   1.403  15.273  13.470
78202CL-    CL-42135  38.973  24.525  11.961
78203CL-    CL-42136  20.094  39.472   2.860
78204CL-    CL-42137  21.625  26.179  14.343
78205CL-    CL-42138   2.906  43.014  13.912
78206CL-    CL-42139   2.451   4.904  12.480
78207CL-    CL-42140  29.646   4.743  14.980
78208CL-    CL-42141  41.412  41.314  11.937
78209CL-    CL-42142  41.445  27.193  12.023
78210CL-    CL-42143  40.974  31.127  12.525
78211CL-    CL-42144  13.227   6.310  11.011
78212CL-    CL-42145  34.083  11.859   2.767
78213CL-    CL-42146  18.265  41.025   3.707
78214CL-    CL-42147  39.912   2.298   2.286
78215CL-    CL-42148  26.033  34.012   2.847
78216CL-    CL-42149  24.552  13.105   3.328
78217CL-    CL-42150  31.468  12.765   0.729
78218CL-    CL-42151   3.878  36.404   2.699
78219CL-    CL-42152  26.119  19.060   3.350
78220CL-    CL-42153  27.589  10.341  12.075
78221CL-    CL-42154   5.313  13.202  14.449
78222CL-    CL-42155  28.163  39.530  14.457
78223CL-    CL-42156   7.796  27.965  12.932
78224CL-    CL-42157  14.184  16.277   2.728
78225CL-    CL-42158  24.522  32.538   0.409
78226CL-    CL-42159  22.719   6.721   3.803
78227CL-    CL-42160  35.903  21.233  11.398
78228CL-    CL-42161  36.442  34.896   0.885
78229CL-    CL-42162  10.651  15.608   1.334
78230CL-    CL-42163  35.871  18.278  11.019
78231CL-    CL-42164  26.071   7.765   2.207
78232CL-    CL-42165  43.780  27.616   1.801
78233CL-    CL-42166   7.794  31.429  13.429
78234CL-    CL-42167  28.137  43.319   9.926
78235CL-    CL-42168  25.065  44.322   0.311
78236CL-    CL-42169  34.429   1.264  12.012
78237CL-    CL-42170  11.769  25.977  14.806
78238CL-    CL-42171  19.734  21.626   2.734
78239CL-    CL-42172   2.325  25.680   3.816
78240CL-    CL-42173  31.907   3.444   9.939
78241CL-    CL-42174  34.526  42.841  13.801
78242CL-    CL-42175  33.101  44.970  13.532
78243CL-    CL-42176   7.338   9.836  12.023
78244CL-    CL-42177  22.173  10.765  14.504
78245CL-    CL-42178   9.886  36.895  11.055
78246CL-    CL-42179  38.955   8.847  12.837
78247CL-    CL-42180  37.979   1.960   1.763
78248CL-    CL-42181   1.302  37.575  12.420
78249CL-    CL-42182  36.358  22.054   2.791
78250CL-    CL-42183   5.214  11.637  14.962
78251CL-    CL-42184  14.162   0.840  13.965
78252CL-    CL-42185  12.817   7.376  13.895
78253CL-    CL-42186   9.238  44.501   0.952
78254CL-    CL-42187   1.405   1.866   0.410
78255CL-    CL-42188   7.406  34.959   2.853
78256CL-    CL-42189  20.755  24.571   1.849
78257CL-    CL-42190  16.135   5.279  14.971
78258CL-    CL-42191  34.866  26.501   1.241
78259CL-    CL-42192  42.978  18.061   2.317
78260CL-    CL-42193  20.569  15.148  13.886
78261CL-    CL-42194  13.237  43.318   3.746
78262CL-    CL-42195   3.327  25.194  12.000
78263CL-    CL-42196  13.135  20.034  13.013
78264CL-    CL-42197  21.024  25.135  13.002
78265CL-    CL-42198  27.651  40.973   2.781
78266CL-    CL-42199  41.454  34.969  12.524
78267CL-    CL-42200  41.841  14.650   2.862
78268CL-    CL-42201   6.762  23.039   3.266
78269CL-    CL-42202  38.370  18.748  13.026
78270CL-    CL-42203  40.830  32.501   3.262
78271CL-    CL-42204  12.293   9.233  13.449
78272CL-    CL-42205  15.778  31.923   0.292
78273CL-    CL-42206  28.113  32.637  14.908
78274CL-    CL-42207   7.860  16.217  13.027
78275CL-    CL-42208  38.350  30.008  13.873
78276CL-    CL-42209   1.967  13.649  11.446
78277CL-    CL-42210   7.868  19.053  10.547
78278CL-    CL-42211  39.514  42.810  13.052
78279CL-    CL-42212  42.941  33.913   4.296
78280CL-    CL-42213  25.676  23.090  12.570
78281CL-    CL-42214  29.064  26.518   3.693
78282CL-    CL-42215   4.259  23.038   2.363
78283CL-    CL-42216   3.754  28.643  14.419
78284CL-    CL-42217  27.484   6.785   4.804
78285CL-    CL-42218  43.475  15.275  12.394
78286CL-    CL-42219   2.915  38.419  14.502
78287CL-    CL-42220  29.545  43.916  12.897
78288CL-    CL-42221  32.985   4.334   0.832
78289CL-    CL-42222   4.427  16.252   1.793
78290CL-    CL-42223  41.300  12.848  14.008
78291CL-    CL-42224  34.075  28.493  12.399
78292CL-    CL-42225  15.670  27.518  14.285
78293CL-    CL-42226   7.187  14.252   2.210
78294CL-    CL-42227  18.625  23.209   4.331
78295CL-    CL-42228   5.267  14.825   5.773
78296CL-    CL-42229  22.068  12.679  11.983
78297CL-    CL-42230   5.324  32.022   0.456
78298CL-    CL-42231   3.950  19.668  13.846
78299CL-    CL-42232  18.226  25.987  12.907
78300CL-    CL-42233  35.449  43.009  14.942
78301CL-    CL-42234  43.771  42.282  13.907
78302CL-    CL-42235  33.380  17.118  13.465
78303CL-    CL-42236  27.124  20.071   4.231
78304CL-    CL-42237   3.415  43.510   5.172
78305CL-    CL-42238  20.729   6.785  14.937
78306CL-    CL-42239  26.547   1.320  12.443
78307CL-    CL-42240  42.012  19.132   4.618
78308CL-    CL-42241  10.139  28.505  14.443
78309CL-    CL-42242  17.700  36.417  12.970
78310CL-    CL-42243  35.094  10.205   0.935
78311CL-    CL-42244  10.797   9.709  10.495
78312CL-    CL-42245  32.577   9.295   1.845
78313CL-    CL-42246  14.831   0.816   3.631
78314CL-    CL-42247  25.215  34.972   5.300
78315CL-    CL-42248  40.406  20.598  13.062
78316CL-    CL-42249   5.784  15.645  11.943
78317CL-    CL-42250  35.009  15.674  11.390
78318CL-    CL-42251  28.018   1.978   4.626
78319CL-    CL-42252  17.613  28.976  10.545
78320CL-    CL-42253   7.788  29.107   0.408
78321CL-    CL-42254  23.637  10.337  10.909
78322CL-    CL-42255  32.967  20.212  14.304
78323CL-    CL-42256   6.707   7.292  14.330
78324CL-    CL-42257  44.458  30.057  10.590
78325CL-    CL-42258  40.049  13.188   4.144
78326CL-    CL-42259  18.674   7.718  12.849
78327CL-    CL-42260  26.029  36.589   3.858
78328CL-    CL-42261  31.063  12.204  10.582
78329CL-    CL-42262  32.477  30.997  13.981
78330CL-    CL-42263   0.853  23.239  11.882
78331CL-    CL-42264  38.351  33.930   1.350
78332CL-    CL-42265   3.715   0.452   3.245
78333CL-    CL-42266  11.757  32.604   3.721
78334CL-    CL-42267  32.905   2.289   4.279
78335CL-    CL-42268  28.526  11.195  10.552
78336CL-    CL-42269  15.277  43.387  11.500
78337CL-    CL-42270  23.055  35.492   1.312
78338CL-    CL-42271  43.998  26.209   1.386
78339CL-    CL-42272  30.927  40.377   0.251
78340CL-    CL-42273  41.846  27.067   4.776
78341CL-    CL-42274  38.342   8.388  10.450
78342CL-    CL-42275   2.353  30.539  13.468
78343CL-    CL-42276   9.781   9.223  10.918
78344CL-    CL-42277   1.267  17.775   0.247
78345CL-    CL-42278  26.004  19.276  13.968
78346CL-    CL-42279   4.762  27.103  13.930
78347CL-    CL-42280   0.846  40.981   0.400
78348CL-    CL-42281  26.991  38.074   1.269
78349CL-    CL-42282   9.678  21.624   1.812
78350CL-    CL-42283  16.731  30.000  13.333
78351CL-    CL-42284  11.217  22.140  13.948
78352CL-    CL-42285  25.663  30.988   1.260
78353CL-    CL-42286  15.578  36.037   3.846
78354CL-    CL-42287  29.646  36.858  11.475
78355CL-    CL-42288   5.688  22.555  12.920
78356CL-    CL-42289  20.053  11.237   3.212
78357CL-    CL-42290   0.859  24.574  13.427
78358CL-    CL-42291  19.602  15.318  10.579
78359CL-    CL-42292   9.829  23.576  12.448
78360CL-    CL-42293  12.305  18.625   4.733
78361CL-    CL-42294   0.294  20.088   1.821
78362CL-    CL-42295  42.841  15.161  13.308
78363CL-    CL-42296  42.477  35.099   4.667
78364CL-    CL-42297  28.530  10.153   0.346
78365CL-    CL-42298   4.751   4.332   0.759
78366CL-    CL-42299   8.269  13.153   0.380
78367CL-    CL-42300  29.560   8.760   4.698
78368CL-    CL-42301  29.121  37.394  13.955
78369CL-    CL-42302  24.497  10.824  14.283
78370CL-    CL-42303  10.338   0.819  12.046
78371CL-    CL-42304  13.765  15.279  12.555
78372CL-    CL-42305  14.761  18.154   0.926
78373CL-    CL-42306  14.111  29.069   3.354
78374CL-    CL-42307   7.273   2.754   0.941
78375CL-    CL-42308  43.289  38.409   2.799
78376CL-    CL-42309  25.559  18.607  13.344
78377CL-    CL-42310  24.097  25.688   0.311
78378CL-    CL-42311   7.330  29.038   4.661
78379CL-    CL-42312  27.636  33.417  11.080
78380CL-    CL-42313  19.729  31.907   2.871
78381CL-    CL-42314  22.510  23.653   4.603
78382CL-    CL-42315  17.801  42.881  12.924
78383CL-    CL-42316  13.138   8.302  10.597
78384CL-    CL-42317  39.327  41.419   1.405
78385CL-    CL-42318   1.259  15.270  14.011
78386CL-    CL-42319  17.789  20.748  14.407
78387CL-    CL-42320   5.836  40.314  14.914
78388CL-    CL-42321  23.514   9.800   4.783
78389CL-    CL-42322  17.275  34.093  14.880
78390CL-    CL-42323  32.449  33.495  14.281
78391CL-    CL-42324  23.152  16.743  10.948
78392CL-    CL-42325  16.716  35.574  12.080
78393CL-    CL-42326  33.605   2.312  13.394
78394CL-    CL-42327  16.583  16.705  12.081
78395CL-    CL-42328  41.989  25.565   4.732
78396CL-    CL-42329  37.037  15.605   4.760
78397CL-    CL-42330  25.105  39.344  10.971
78398CL-    CL-42331  39.034  43.873  14.833
78399CL-    CL-42332  36.531  27.174   2.883
78400CL-    CL-42333  40.387  19.575  12.861
78401CL-    CL-42334  27.163  24.028   0.354
78402CL-    CL-42335  34.601  21.539   4.127
78403CL-    CL-42336  27.071  16.628  12.568
78404CL-    CL-42337  38.420   5.380   0.958
78405CL-    CL-42338  44.460  30.151   5.207
78406CL-    CL-42339  26.073  28.535   1.803
78407CL-    CL-42340  25.700  13.635   3.371
78408CL-    CL-42341  22.082  36.362  13.983
78409CL-    CL-42342   3.909   9.684   0.821
78410CL-    CL-42343   8.889  38.919  14.847
78411CL-    CL-42344  20.694  14.100   2.197
78412CL-    CL-42345  34.049  20.656   2.312
78413CL-    CL-42346  15.807   8.339  10.495
78414CL-    CL-42347  34.569  19.592   1.820
78415CL-    CL-42348  24.161   4.209  11.972
78416CL-    CL-42349  14.290  41.005   4.827
78417CL-    CL-42350   2.413  25.181   3.293
78418CL-    CL-42351  38.500  38.555   3.718
78419CL-    CL-42352  44.342  42.892   1.450
78420CL-    CL-42353  25.974  17.616   3.807
78421CL-    CL-42354  12.807  35.938  11.538
78422CL-    CL-42355  21.549  26.624  12.997
78423CL-    CL-42356   0.906  14.824  10.623
78424CL-    CL-42357  37.937  22.179  13.859
78425CL-    CL-42358   2.778  21.718  13.854
78426CL-    CL-42359  43.447  16.659   3.718
78427CL-    CL-42360   3.718  42.794   2.216
78428CL-    CL-42361  11.296  26.593  10.413
78429CL-    CL-42362   1.451  38.958   2.778
78430CL-    CL-42363   1.941   3.808   1.743
78431CL-    CL-42364  26.962  10.375   3.770
78432CL-    CL-42365  33.100  15.124   3.869
78433CL-    CL-42366   0.491  11.328   3.220
78434CL-    CL-42367  38.933  40.010  14.378
78435CL-    CL-42368  27.188  23.517  12.358
78436CL-    CL-42369  38.980  40.366   4.662
78437CL-    CL-42370   5.296  10.349  11.114
78438CL-    CL-42371  36.543   6.255   4.748
78439CL-    CL-42372  26.032  40.474  13.517
78440CL-    CL-42373   7.347  35.369  10.624
78441CL-    CL-42374   3.288  17.223  11.607
78442CL-    CL-42375  24.699  30.046   4.818
78443CL-    CL-42376  17.063  41.478   4.222
78444CL-    CL-42377  43.466  42.778  14.789
78445CL-    CL-42378  13.129  35.021  14.967
78446CL-    CL-42379   9.799  39.987   2.670
78447CL-    CL-42380  37.863  38.058  12.021
78448CL-    CL-42381  20.602  33.941   0.306
78449CL-    CL-42382  12.657  31.034  13.873
78450CL-    CL-42383   3.858  31.908   0.931
78451CL-    CL-42384  20.189  34.592  11.957
78452CL-    CL-42385  31.981   3.852   0.251
78453CL-    CL-42386   0.901  39.918  10.433
78454CL-    CL-42387   5.698   3.787   1.448
78455CL-    CL-42388  15.811  16.637   2.192
78456CL-    CL-42389  14.238  13.797   4.189
78457CL-    CL-42390  22.658  35.853  13.889
78458CL-    CL-42391   8.227   3.871   1.227
78459CL-    CL-42392  20.056  11.766   2.842
78460CL-    CL-42393  32.580  22.717  12.847
78461CL-    CL-42394  40.014  43.497   2.688
78462CL-    CL-42395  24.222  12.713  14.315
78463CL-    CL-42396  33.473  40.983   3.377
78464CL-    CL-42397  36.503  11.696  10.911
78465CL-    CL-42398  32.494  26.057   3.672
78466CL-    CL-42399  34.505   2.841   1.400
78467CL-    CL-42400   1.799  39.953  14.296
78468CL-    CL-42401  11.776  13.813   0.870
78469CL-    CL-42402  18.056  40.977   4.795
78470CL-    CL-42403  15.260  41.416  12.507
78471CL-    CL-42404  39.987  21.082  10.443
78472CL-    CL-42405  44.830  31.035   4.146
78473CL-    CL-42406  23.561  28.456   0.305
78474CL-    CL-42407  29.961  20.662  13.508
78475CL-    CL-42408  34.975   4.903  13.440
78476CL-    CL-42409  38.001   9.741  10.413
78477CL-    CL-42410  22.577  25.982   4.280
78478CL-    CL-42411  42.950   0.462  11.107
78479CL-    CL-42412  39.420  28.495  14.296
78480CL-    CL-42413  30.504  20.566   3.835
78481CL-    CL-42414  40.982  20.697   3.316
78482CL-    CL-42415   4.288  21.550   0.421
78483CL-    CL-42416  18.151  12.737   1.441
78484CL-    CL-42417  16.224  10.343   4.282
78485CL-    CL-42418  12.623  38.920   4.782
78486CL-    CL-42419  19.199   9.325   3.237
78487CL-    CL-42420  19.738   9.378  14.283
78488CL-    CL-42421  34.876  42.516  13.436
78489CL-    CL-42422  37.001  13.277   0.413
78490CL-    CL-42423  42.017  22.555  13.316
78491CL-    CL-42424  30.108   9.312   1.855
78492CL-    CL-42425   5.902  18.788   1.385
78493CL-    CL-42426   3.853  44.404   1.420
78494CL-    CL-42427  29.988  33.085   1.740
78495CL-    CL-42428  35.436  40.962   3.645
78496CL-    CL-42429   8.833  31.978  13.535
78497CL-    CL-42430  13.266   2.925  12.937
78498CL-    CL-42431   3.308  27.602   2.310
78499CL-    CL-42432  11.625  20.256   0.280
78500CL-    CL-42433   8.373  18.053   1.231
78501CL-    CL-42434  15.233   4.798  14.444
78502CL-    CL-42435  10.260  30.991   0.793
78503CL-    CL-42436  17.148  35.097   5.219
78504CL-    CL-42437   9.211  14.198   1.400
78505CL-    CL-42438   9.344  37.557  12.066
78506CL-    CL-42439   5.919  38.987   2.718
78507CL-    CL-42440  34.611  22.530  11.120
78508CL-    CL-42441  44.848  13.740   4.353
78509CL-    CL-42442  39.369  17.069  12.389
78510CL-    CL-42443  26.979  41.454  10.532
78511CL-    CL-42444  33.486  26.128  12.526
78512CL-    CL-42445  17.665   3.414   4.795
78513CL-    CL-42446  41.414  39.980  14.477
78514CL-    CL-42447   1.759  43.324  12.944
78515CL-    CL-42448  30.087  32.929   4.226
78516CL-    CL-42449  28.665  26.183  13.951
78517CL-    CL-42450  20.636   5.250  12.578
78518CL-    CL-42451   0.840  18.158   0.737
78519CL-    CL-42452  18.181  14.708  13.997
78520CL-    CL-42453  11.168  11.341   3.165
78521CL-    CL-42454   0.280  29.087   4.310
78522CL-    CL-42455  20.599  15.765  13.939
78523CL-    CL-42456  30.934  20.711   3.776
78524CL-    CL-42457  37.509  16.620   2.291
78525CL-    CL-42458  32.960  36.052  10.988
78526CL-    CL-42459  20.071  29.466  13.842
78527CL-    CL-42460  24.552  39.365  12.943
78528CL-    CL-42461  16.642  43.850  11.971
78529CL-    CL-42462  26.627  30.507  10.502
78530CL-    CL-42463  28.134  12.831   0.843
78531CL-    CL-42464  18.703  24.106   3.691
78532CL-    CL-42465   5.301  27.197   4.244
78533CL-    CL-42466   9.365   5.738  11.495
78534CL-    CL-42467  20.089  44.455   1.427
78535CL-    CL-42468  31.045  28.993   1.382
78536CL-    CL-42469  17.633  22.573   2.827
78537CL-    CL-42470  29.537  35.055   4.265
78538CL-    CL-42471   3.724  22.033   3.776
78539CL-    CL-42472  38.447  20.052  11.447
78540CL-    CL-42473   4.718  20.566  11.604
78541CL-    CL-42474  26.645  42.459   1.372
78542CL-    CL-42475  26.538  43.923  14.941
78543CL-    CL-42476  40.035  14.291   3.283
78544CL-    CL-42477  34.897  24.549  14.507
78545CL-    CL-42478  22.690  21.739  13.952
78546CL-    CL-42479   5.775  11.234   3.683
78547CL-    CL-42480   0.396   2.854  14.813
78548CL-    CL-42481  13.115  42.822   2.263
78549CL-    CL-42482  23.632  14.651  12.494
78550CL-    CL-42483   9.722  28.533   1.891
78551CL-    CL-42484  37.898   0.987  12.983
78552CL-    CL-42485   8.251  10.311  12.439
78553CL-    CL-42486  22.160  23.144   1.816
78554CL-    CL-42487   6.328   0.872  12.501
78555CL-    CL-42488  26.592   6.909   1.714
78556CL-    CL-42489   9.326  26.201   4.640
78557CL-    CL-42490  25.542  43.277   3.637
78558CL-    CL-42491   0.818  16.811  14.362
78559CL-    CL-42492   9.330   7.845  14.867
78560CL-    CL-42493  26.465  33.462  14.353
78561CL-    CL-42494   9.188  42.910   3.368
78562CL-    CL-42495  18.646  16.598  11.509
78563CL-    CL-42496  44.318  19.206   4.332
78564CL-    CL-42497   4.764   2.442  11.483
78565CL-    CL-42498  41.293   3.220  10.937
78566CL-    CL-42499  39.957  44.884  12.960
78567CL-    CL-42500  13.778  29.541  10.575
78568CL-    CL-42501  38.442  12.267   1.434
78569CL-    CL-42502  27.087  32.633  14.000
78570CL-    CL-42503  42.400  39.061  12.491
78571CL-    CL-42504   4.777  30.653   2.898
78572CL-    CL-42505  16.275  12.276  11.973
78573CL-    CL-42506  35.385  28.592  13.952
78574CL-    CL-42507  44.837  36.047   0.446
78575CL-    CL-42508  27.078  19.044   4.707
78576CL-    CL-42509   5.760  20.593   4.162
78577CL-    CL-42510   4.233   6.820  10.417
78578CL-    CL-42511  38.895   7.786   2.882
78579CL-    CL-42512  31.927  19.130  11.403
78580CL-    CL-42513  43.394  10.242  12.391
78581CL-    CL-42514   5.294   6.873   1.816
78582CL-    CL-42515  22.724  22.695   2.370
78583CL-    CL-42516   8.325   3.873   0.324
78584CL-    CL-42517  44.802  39.341  12.889
78585CL-    CL-42518  44.921  42.494  12.461
78586CL-    CL-42519  35.395  17.561  10.474
78587CL-    CL-42520  16.573   5.782  10.943
78588CL-    CL-42521  17.271  28.137   2.224
78589CL-    CL-42522  23.107  35.431   4.674
78590CL-    CL-42523  41.518  37.994   2.237
78591CL-    CL-42524   3.343   0.764   3.184
78592CL-    CL-42525  10.151  31.143   0.247
78593CL-    CL-42526   5.795  15.165  12.398
78594CL-    CL-42527  44.897  32.075  14.935
78595CL-    CL-42528  34.995  40.345  14.385
78596CL-    CL-42529  40.453   4.800   5.094
78597CL-    CL-42530  44.297  36.376   2.402
78598CL-    CL-42531  18.226  19.216   9.608
78599CL-    CL-42532  29.118  29.476  12.913
78600CL-    CL-42533  42.478  20.553   3.629
78601CL-    CL-42534   4.807   0.839  12.910
78602CL-    CL-42535  17.098  44.983   0.398
78603CL-    CL-42536   0.330  43.790   0.896
78604CL-    CL-42537  21.223  32.410  12.845
78605CL-    CL-42538  39.879  27.968   0.847
78606CL-    CL-42539  33.019  31.943   3.293
78607CL-    CL-42540  15.298  17.068   4.789
78608CL-    CL-42541   1.470   7.410   0.734
78609CL-    CL-42542  42.993   7.830  11.875
78610CL-    CL-42543  40.022  38.333   4.757
78611CL-    CL-42544   8.771   2.334  13.545
78612CL-    CL-42545  24.006  34.471  12.376
78613CL-    CL-42546  22.162  39.489  14.329
78614CL-    CL-42547  43.421  25.481   3.296
78615CL-    CL-42548  22.554  31.577  11.583
78616CL-    CL-42549  14.779  13.261   0.763
78617CL-    CL-42550  24.204  22.636   4.243
78618CL-    CL-42551  28.018  32.451  13.994
78619CL-    CL-42552  30.908  32.619   1.296
78620CL-    CL-42553  17.697   2.950   2.224
78621CL-    CL-42554  20.241   8.887  11.105
78622CL-    CL-42555  22.045  28.454  11.451
78623CL-    CL-42556  37.513  33.985   0.923
78624CL-    CL-42557  10.168  30.163  14.377
78625CL-    CL-42558  26.129  40.965  14.006
78626CL-    CL-42559  13.742  42.776  11.880
78627CL-    CL-42560  13.702  42.520   2.729
78628CL-    CL-42561  33.948  32.434   1.327
78629CL-    CL-42562  33.090   2.897   4.802
78630CL-    CL-42563  35.604   5.764  12.038
78631CL-    CL-42564  24.573  35.966   4.644
78632CL-    CL-42565  11.672  15.105  12.860
78633CL-    CL-42566  23.574  14.806   4.832
78634CL-    CL-42567  44.897  41.992  14.887
78635CL-    CL-42568   3.803  10.179   2.667
78636CL-    CL-42569   9.215   1.318   4.114
78637CL-    CL-42570  30.569  18.099  14.814
78638CL-    CL-42571   9.341   0.919  13.968
78639CL-    CL-42572  19.045  26.656  12.896
78640CL-    CL-42573  26.472  15.231  12.419
78641CL-    CL-42574   5.785   4.936   0.961
78642CL-    CL-42575  20.086  25.513   0.313
78643CL-    CL-42576  35.392  19.600   1.911
78644CL-    CL-42577  16.566  31.953   3.187
78645CL-    CL-42578  34.470  20.749   4.287
78646CL-    CL-42579  42.940  41.892  13.533
78647CL-    CL-42580  24.631  23.553  12.001
78648CL-    CL-42581   4.269   4.362   0.250
78649CL-    CL-42582   8.250  36.896   1.370
78650CL-    CL-42583  20.666   1.892  11.390
78651CL-    CL-42584  39.521  27.557   3.260
78652CL-    CL-42585   1.824  26.528   2.408
78653CL-    CL-42586  15.260   0.370   3.298
78654CL-    CL-42587  42.381   9.294   4.290
78655CL-    CL-42588   6.716   0.920  10.516
78656CL-    CL-42589   9.218  44.276   3.733
78657CL-    CL-42590   1.330  23.061  14.329
78658CL-    CL-42591  25.065  13.782   2.349
78659CL-    CL-42592  24.518  23.620   4.264
78660CL-    CL-42593  26.010  31.154   3.272
78661CL-    CL-42594   9.753  21.549  12.002
78662CL-    CL-42595  31.084  33.067  13.340
78663CL-    CL-42596  14.736   0.364   0.297
78664CL-    CL-42597  26.569   2.301   9.560
78665CL-    CL-42598   2.272  20.622  11.387
78666CL-    CL-42599  21.592  32.886   0.356
78667CL-    CL-42600  16.095  21.634   2.207
78668CL-    CL-42601  24.578  42.321   5.210
78669CL-    CL-42602   3.750  24.167   3.797
78670CL-    CL-42603  44.887  30.008  12.854
78671CL-    CL-42604  43.303   5.417   2.804
78672CL-    CL-42605  37.363  24.095  12.577
78673CL-    CL-42606  31.896  31.934  12.472
78674CL-    CL-42607   8.238   6.701  14.469
78675CL-    CL-42608  17.211   0.395  10.455
78676CL-    CL-42609  11.221  36.371   3.788
78677CL-    CL-42610  39.020   6.192  14.842
78678CL-    CL-42611  37.856   7.344   5.161
78679CL-    CL-42612  21.743  26.591  14.875
78680CL-    CL-42613   7.177  20.112   5.279
78681CL-    CL-42614  39.425   4.768  10.944
78682CL-    CL-42615  20.561  31.977  13.493
78683CL-    CL-42616  24.111   7.686  11.555
78684CL-    CL-42617  17.161  27.548   2.328
78685CL-    CL-42618  24.158  26.616  10.084
78686CL-    CL-42619   2.890  19.659  12.058
78687CL-    CL-42620  38.840  26.594   4.766
78688CL-    CL-42621  23.054   0.838   0.349
78689CL-    CL-42622  20.274   1.795   4.277
78690CL-    CL-42623  17.261  38.339   4.604
78691CL-    CL-42624  30.919  44.362  14.768
78692CL-    CL-42625   7.773  23.120  13.051
78693CL-    CL-42626  23.050   9.341  13.818
78694CL-    CL-42627  23.649   5.884  12.868
78695CL-    CL-42628   1.305  44.821  12.520
78696CL-    CL-42629  14.239  43.911  12.869
78697CL-    CL-42630  35.387  29.058   4.347
78698CL-    CL-42631  27.607  22.678  12.028
78699CL-    CL-42632  15.635  23.496   0.435
78700CL-    CL-42633  36.901  30.917  13.349
78701CL-    CL-42634  17.620   5.347   3.207
78702CL-    CL-42635  32.455  12.687  14.769
78703CL-    CL-42636   4.799  32.001  14.328
78704CL-    CL-42637   8.320   6.397   1.858
78705CL-    CL-42638  34.379  31.536   2.381
78706CL-    CL-42639   4.826  35.049  10.064
78707CL-    CL-42640   3.241   2.309  10.410
78708CL-    CL-42641  31.441  42.414   2.390
78709CL-    CL-42642  16.741  42.933   2.784
78710CL-    CL-42643   9.694  10.864  13.889
78711CL-    CL-42644  26.513  27.188  13.950
78712CL-    CL-42645  30.052  31.086   0.336
78713CL-    CL-42646  15.275  36.894  13.357
78714CL-    CL-42647  23.150  33.897  12.504
78715CL-    CL-42648  44.980  40.366  13.992
78716CL-    CL-42649  40.967  13.691  14.912
78717CL-    CL-42650  23.569  24.982   0.729
78718CL-    CL-42651  17.593  18.219  11.490
78719CL-    CL-42652   6.274  38.483  10.903
78720CL-    CL-42653  23.583  22.201  13.524
78721CL-    CL-42654  18.560  42.315   0.255
78722CL-    CL-42655   4.326  18.089   3.283
78723CL-    CL-42656   5.931  17.122  12.886
78724CL-    CL-42657  24.981  27.689   4.773
78725CL-    CL-42658  37.484  34.995  13.547
78726CL-    CL-42659  30.494  39.972   2.854
78727CL-    CL-42660  39.548  38.360  13.039
78728CL-    CL-42661  20.544  32.066  11.017
78729CL-    CL-42662  13.331  12.291  11.013
78730CL-    CL-42663  30.929   1.819  14.821
78731CL-    CL-42664  35.899  16.140  10.979
78732CL-    CL-42665   0.784  20.094   0.922
78733CL-    CL-42666  22.123   0.348   4.192
78734CL-    CL-42667   5.695   4.242  13.046
78735CL-    CL-42668   8.776  39.438   0.377
78736CL-    CL-42669  37.411  17.066  12.460
78737CL-    CL-42670  33.068  23.667  13.349
78738CL-    CL-42671  16.633   1.893   4.808
78739CL-    CL-42672  17.607  19.768   2.351
78740CL-    CL-42673   2.888   2.777   3.373
78741CL-    CL-42674  44.313  40.398  14.802
78742CL-    CL-42675   3.433   9.726  10.579
78743CL-    CL-42676  33.614  44.368  14.830
78744CL-    CL-42677  20.222  36.959   0.334
78745CL-    CL-42678   8.814  21.684   3.156
78746CL-    CL-42679  17.557  23.161   4.350
78747CL-    CL-42680  18.565  36.351   3.221
78748CL-    CL-42681  12.652   6.344  11.972
78749CL-    CL-42682  31.492   3.277  12.012
78750CL-    CL-42683  39.941  27.587  12.578
78751CL-    CL-42684  29.530  16.130   0.349
78752CL-    CL-42685  12.121  13.841   1.376
78753CL-    CL-42686  28.606   8.228  13.487
78754CL-    CL-42687  16.099   1.424  10.608
78755CL-    CL-42688   8.352  34.960   2.301
78756CL-    CL-42689   4.300  18.268  11.455
78757CL-    CL-42690  23.067  15.649   0.881
78758CL-    CL-42691   6.215  30.588   2.232
78759CL-    CL-42692  18.761   9.228   0.916
78760CL-    CL-42693   6.381   2.469  13.895
78761CL-    CL-42694  26.500  34.116  10.523
78762CL-    CL-42695  15.253  13.786   1.448
78763CL-    CL-42696   5.251  27.970  14.366
78764CL-    CL-42697   6.904  15.179   1.335
78765CL-    CL-42698  35.858  23.539   4.665
78766CL-    CL-42699  29.669  23.165  14.292
78767CL-    CL-42700  11.148  19.100   0.961
78768CL-    CL-42701  35.921  32.084  12.053
78769CL-    CL-42702  25.635  23.555  11.596
78770CL-    CL-42703  21.173  19.757   5.146
78771CL-    CL-42704   8.785   1.411   4.209
78772CL-    CL-42705  21.696  36.061  13.442
78773CL-    CL-42706  31.506  34.427  10.904
78774CL-    CL-42707   6.379  26.054  12.045
78775CL-    CL-42708  38.916   0.955   3.853
78776CL-    CL-42709  28.121  23.618   0.811
78777CL-    CL-42710  26.106  23.138  10.640
78778CL-    CL-42711  29.956  27.573   1.760
78779CL-    CL-42712   0.325   1.765  11.042
78780CL-    CL-42713   5.818   5.815   1.325
78781CL-    CL-42714  40.034   7.405  12.898
78782CL-    CL-42715  33.110   4.250   3.230
78783CL-    CL-42716   2.470  28.563   2.236
78784CL-    CL-42717  21.517  27.647  12.859
78785CL-    CL-42718  19.250  43.006   1.364
78786CL-    CL-42719   8.289  32.401  12.059
78787CL-    CL-42720  12.843  21.692  11.955
78788CL-    CL-42721  26.047  44.788   0.481
78789CL-    CL-42722  44.843  14.338   4.255
78790CL-    CL-42723   6.777   2.378  12.024
78791CL-    CL-42724  42.985  18.255   4.160
78792CL-    CL-42725   2.428  31.084  12.084
78793CL-    CL-42726  22.613  19.109  10.460
78794CL-    CL-42727  38.385  43.776  11.481
78795CL-    CL-42728  42.946   4.794   2.251
78796CL-    CL-42729   7.738  37.978   0.799
78797CL-    CL-42730   8.860  19.701  12.866
78798CL-    CL-42731  32.612  34.051   2.346
78799CL-    CL-42732  33.063  39.918   2.834
78800CL-    CL-42733  24.693  41.004  12.355
78801CL-    CL-42734  15.318  25.161  12.513
78802CL-    CL-42735   7.665  16.688   9.949
78803CL-    CL-42736  35.970   3.458  12.465
78804CL-    CL-42737  38.446  37.538  13.052
78805CL-    CL-42738   0.870  25.567  10.569
78806CL-    CL-42739  41.800   2.255  11.485
78807CL-    CL-42740  26.990  42.895   4.130
78808CL-    CL-42741  36.516  41.303  10.024
78809CL-    CL-42742  43.940  17.611  13.980
78810CL-    CL-42743   9.178   2.749   2.698
78811CL-    CL-42744  43.930   2.764  10.476
78812CL-    CL-42745  28.529  24.492  14.479
78813CL-    CL-42746  39.341  36.412  14.799
78814CL-    CL-42747  17.307  33.955  11.438
78815CL-    CL-42748  24.659   6.802  12.425
78816CL-    CL-42749  10.714   7.222   3.657
78817CL-    CL-42750  19.141   3.782  11.858
78818CL-    CL-42751  20.264  43.287   2.297
78819CL-    CL-42752  40.546   1.744   2.663
78820CL-    CL-42753  29.120  13.174   2.706
78821CL-    CL-42754  24.059  42.515   2.715
78822CL-    CL-42755  44.850  22.112   1.428
78823CL-    CL-42756  38.056  30.097   2.832
78824CL-    CL-42757   2.282  43.926  13.987
78825CL-    CL-42758  35.508  32.917  11.377
78826CL-    CL-42759   8.199  17.070   3.677
78827CL-    CL-42760  21.630  37.455  10.038
78828CL-    CL-42761   1.802  22.565   4.734
78829CL-    CL-42762  17.775  40.333   3.367
78830CL-    CL-42763  15.709  16.725   4.261
78831CL-    CL-42764  25.102  18.573  12.524
78832CL-    CL-42765  21.685   1.351  14.021
78833CL-    CL-42766  36.500  28.087  12.349
78834CL-    CL-42767  34.938  30.581  11.471
78835CL-    CL-42768  30.524  42.311  14.458
78836CL-    CL-42769  35.411  41.956  13.376
78837CL-    CL-42770  38.872  28.622  12.373
78838CL-    CL-42771  10.872  12.642   3.166
78839CL-    CL-42772  34.864  33.018   3.853
78840CL-    CL-42773  19.055  13.693   0.789
78841CL-    CL-42774  17.656  40.017  14.404
78842CL-    CL-42775  38.524  11.193  14.277
78843CL-    CL-42776  27.165  14.629  12.072
78844CL-    CL-42777  30.058  18.090   0.428
78845CL-    CL-42778  26.505  27.472  10.425
78846CL-    CL-42779  40.380  27.692   1.808
78847CL-    CL-42780  32.547   5.285  12.905
78848CL-    CL-42781  21.167  22.739  14.808
78849CL-    CL-42782  38.922  36.975  11.600
78850CL-    CL-42783  23.598  44.305  13.042
78851CL-    CL-42784   0.353  30.979  10.483
78852CL-    CL-42785  32.951   1.768  11.005
78853CL-    CL-42786  39.921  36.000  13.536
78854CL-    CL-42787  12.157  37.486   0.808
78855CL-    CL-42788   1.291  13.770   0.938
78856CL-    CL-42789   7.840  33.008  10.531
78857CL-    CL-42790   3.883  38.466  14.465
78858CL-    CL-42791  37.485  37.361  10.411
78859CL-    CL-42792  40.045   6.289  13.467
78860CL-    CL-42793   5.903  25.175  13.923
78861CL-    CL-42794   0.904  22.704   5.084
78862CL-    CL-42795  23.665   1.328   4.781
78863CL-    CL-42796  42.320   4.254  11.017
78864CL-    CL-42797   1.956  28.996   2.764
78865CL-    CL-42798  30.509   5.689   2.834
78866CL-    CL-42799  34.369  15.217   4.331
78867CL-    CL-42800  23.117   4.373   2.682
78868CL-    CL-42801  12.724   8.836   0.813
78869CL-    CL-42802  33.882  33.506  14.781
78870CL-    CL-42803  37.423  19.631  12.546
78871CL-    CL-42804   2.737  28.089   3.756
78872CL-    CL-42805  15.139   8.241   1.908
78873CL-    CL-42806  44.848  15.635   2.379
78874CL-    CL-42807  26.984  14.223  12.914
78875CL-    CL-42808   9.809  32.409   2.268
78876CL-    CL-42809  43.324   6.309   1.298
78877CL-    CL-42810   0.375  25.521  11.497
78878CL-    CL-42811  21.621  23.150  11.579
78879CL-    CL-42812  23.076   9.154   4.793
78880CL-    CL-42813   7.307  27.575  11.585
78881CL-    CL-42814  14.203  44.288  10.542
78882CL-    CL-42815  16.177  29.437   3.839
78883CL-    CL-42816  30.981   0.374   4.612
78884CL-    CL-42817  19.185  28.642   1.784
78885CL-    CL-42818  33.544   4.405   3.763
78886CL-    CL-42819  23.051  31.928  14.445
78887CL-    CL-42820  26.999  30.502   3.791
78888CL-    CL-42821  15.761  24.166  14.909
78889CL-    CL-42822   0.782   4.375   1.773
78890CL-    CL-42823   8.899  33.943  14.297
78891CL-    CL-42824  26.181  33.385  11.861
78892CL-    CL-42825  40.496  12.660  10.146
78893CL-    CL-42826  11.669  32.421   1.704
78894CL-    CL-42827  36.893  18.085  14.957
78895CL-    CL-42828  37.530  28.045   4.158
78896CL-    CL-42829   8.858  19.284   4.829
78897CL-    CL-42830  33.589  24.219  10.443
78898CL-    CL-42831   2.365   6.337  12.014
78899CL-    CL-42832  17.570  13.220   3.869
78900CL-    CL-42833  18.563   2.745  11.375
78901CL-    CL-42834   2.343  24.089   0.750
78902CL-    CL-42835   1.247   3.402   0.932
78903CL-    CL-42836  19.738  44.500  13.798
78904CL-    CL-42837  19.757  36.886  11.574
78905CL-    CL-42838  37.063   7.285   4.761
78906CL-    CL-42839   4.814  26.126  14.822
78907CL-    CL-42840   6.306  11.827   1.832
78908CL-    CL-42841  18.159   7.853   5.136
78909CL-    CL-42842   5.424  16.575   3.638
78910CL-    CL-42843   0.844  23.198  14.328
78911CL-    CL-42844  18.565  40.836  10.458
78912CL-    CL-42845   0.972  36.479  14.813
78913CL-    CL-42846  38.873   0.868   3.296
78914CL-    CL-42847   9.346  29.577  13.319
78915CL-    CL-42848   9.216  20.113   3.716
78916CL-    CL-42849   4.788  21.561  13.449
78917CL-    CL-42850  26.188  34.003   1.727
78918CL-    CL-42851  39.811  16.212  13.508
78919CL-    CL-42852  23.086   4.413   0.352
78920CL-    CL-42853  32.983   6.819  12.862
78921CL-    CL-42854  21.035  34.093   3.181
78922CL-    CL-42855  20.249  12.217  13.957
78923CL-    CL-42856  11.857  18.688  11.883
78924CL-    CL-42857  26.663  23.731  14.294
78925CL-    CL-42858   7.184  42.334   3.702
78926CL-    CL-42859  13.311  17.220  11.882
78927CL-    CL-42860  22.216  11.653  10.473
78928CL-    CL-42861  34.538  12.331   0.352
78929CL-    CL-42862   6.799   4.730   4.828
78930CL-    CL-42863   6.678  11.775  10.624
78931CL-    CL-42864  10.869   5.793  12.094
78932CL-    CL-42865   2.768  26.069   4.711
78933CL-    CL-42866  35.975  29.632   4.129
78934CL-    CL-42867  31.601   6.751   3.179
78935CL-    CL-42868  16.795   1.783  11.998
78936CL-    CL-42869  35.032  38.909   3.690
78937CL-    CL-42870  13.661   0.279   1.904
78938CL-    CL-42871  39.464   5.432   2.903
78939CL-    CL-42872  39.549   8.838  12.952
78940CL-    CL-42873  23.146   1.264  13.316
78941CL-    CL-42874  21.165  17.748   1.836
78942CL-    CL-42875  37.543  41.036  14.939
78943CL-    CL-42876  16.679  23.642  13.415
78944CL-    CL-42877  42.841  12.334  10.566
78945CL-    CL-42878  33.395  43.796  14.512
78946CL-    CL-42879  42.319  21.165  14.777
78947CL-    CL-42880  25.629  44.488   2.309
78948CL-    CL-42881  14.339  40.492  14.865
78949CL-    CL-42882  43.914   4.343   1.390
78950CL-    CL-42883  16.251   4.213   3.695
78951CL-    CL-42884   0.281  14.667   1.352
78952CL-    CL-42885  35.079  21.176  13.446
78953CL-    CL-42886  31.531  42.861   0.950
78954CL-    CL-42887  30.150   9.685   1.811
78955CL-    CL-42888  12.664  35.890   2.731
78956CL-    CL-42889  13.216  40.859  11.929
78957CL-    CL-42890  44.899   7.317   0.765
78958CL-    CL-42891  43.390  17.753  10.631
78959CL-    CL-42892   4.207  16.804  12.527
78960CL-    CL-42893   7.840  36.059  12.447
78961CL-    CL-42894   2.817  44.329   3.236
78962CL-    CL-42895   3.363   9.199  10.523
78963CL-    CL-42896  40.906  20.149   2.223
78964CL-    CL-42897  38.968   7.720  11.057
78965CL-    CL-42898  13.838  15.603  12.374
78966CL-    CL-42899  20.722  21.102  12.458
78967CL-    CL-42900   4.309  11.202  10.133
78968CL-    CL-42901  27.159  13.339  12.887
78969CL-    CL-42902  24.018   8.398   1.247
78970CL-    CL-42903  23.716  19.199  13.037
78971CL-    CL-42904  27.189  21.134   2.362
78972CL-    CL-42905  15.149   5.387  12.052
78973CL-    CL-42906  35.006  11.729  12.035
78974CL-    CL-42907   6.373  24.226  14.018
78975CL-    CL-42908  35.415   1.478   3.302
78976CL-    CL-42909  36.399   8.890  12.575
78977CL-    CL-42910  23.659  33.979   3.364
78978CL-    CL-42911  35.898  23.554   2.695
78979CL-    CL-42912  18.571   0.279   2.720
78980CL-    CL-42913  34.046   9.325  11.989
78981CL-    CL-42914  32.028  39.922   2.345
78982CL-    CL-42915  14.110  31.422  11.098
78983CL-    CL-42916  38.856   2.919   3.700
78984CL-    CL-42917   5.736  21.594  11.575
78985CL-    CL-42918   0.440  25.998   0.949
78986CL-    CL-42919  28.067  15.672  14.314
78987CL-    CL-42920  27.486   3.395   2.895
78988CL-    CL-42921  10.278  34.982  11.082
78989CL-    CL-42922   5.307  38.900  10.573
78990CL-    CL-42923  44.287   6.381   4.705
78991CL-    CL-42924  11.335  18.780   0.418
78992CL-    CL-42925  20.217  27.087  13.023
78993CL-    CL-42926  14.798  42.316  10.520
78994CL-    CL-42927  38.820  40.977   1.920
78995CL-    CL-42928  14.792   1.388   2.888
78996CL-    CL-42929  39.879  35.041   0.960
78997CL-    CL-42930  31.001  13.834   0.804
78998CL-    CL-42931  30.151  15.733   0.801
78999CL-    CL-42932  16.697   7.744  10.476
79000CL-    CL-42933   5.930  22.237   1.749
79001CL-    CL-42934   7.882  24.206   2.394
79002CL-    CL-42935  39.970  32.588   2.344
79003CL-    CL-42936  15.714  17.772   9.602
79004CL-    CL-42937  34.965  25.041   4.693
79005CL-    CL-42938  27.665  39.825   4.699
79006CL-    CL-42939   4.892  25.629  14.999
79007CL-    CL-42940  11.314  42.788   3.298
79008CL-    CL-42941  27.592  10.169  12.363
79009CL-    CL-42942   6.858   2.425   0.740
79010CL-    CL-42943  24.596   2.806   0.794
79011CL-    CL-42944  25.522  32.434   0.310
79012CL-    CL-42945  31.082  12.836  10.001
79013CL-    CL-42946  14.589  29.950   0.957
79014CL-    CL-42947  17.172  30.588   0.899
79015CL-    CL-42948   9.301  39.064   0.931
79016CL-    CL-42949  44.877  44.264  13.840
79017CL-    CL-42950   1.248  12.262   1.370
79018CL-    CL-42951   4.841  37.572   0.277
79019CL-    CL-42952  34.438  42.894   4.196
79020CL-    CL-42953  40.905   0.273   3.387
79021CL-    CL-42954  24.220   2.240  13.031
79022CL-    CL-42955  10.850   7.190   4.682
79023CL-    CL-42956  22.529  10.775   3.319
79024CL-    CL-42957  12.153   6.273  11.033
79025CL-    CL-42958  37.017  13.687  11.392
79026CL-    CL-42959  15.675  37.852  11.875
79027CL-    CL-42960  19.757  37.960  13.879
79028CL-    CL-42961  34.508  16.595  13.513
79029CL-    CL-42962  18.128  19.746   1.224
79030CL-    CL-42963  28.137   2.350   2.894
79031CL-    CL-42964  35.882  16.212   1.280
79032CL-    CL-42965   3.215   3.949   4.352
79033CL-    CL-42966  35.435  31.016   3.208
79034CL-    CL-42967  14.655  30.546   2.678
79035CL-    CL-42968  13.606  44.422   3.730
79036CL-    CL-42969  36.452  31.608  14.275
79037CL-    CL-42970  42.985  24.182   2.882
79038CL-    CL-42971   4.794  43.468   4.838
79039CL-    CL-42972  21.651   1.746  12.926
79040CL-    CL-42973  25.493  31.004   2.732
79041CL-    CL-42974  11.796  42.865  12.553
79042CL-    CL-42975   2.260  31.109   1.861
79043CL-    CL-42976   5.425  13.213  10.132
79044CL-    CL-42977   4.830  40.375   1.705
79045CL-    CL-42978  24.184  19.741   3.799
79046CL-    CL-42979  24.178  24.072   9.960
79047CL-    CL-42980  31.916  37.563  13.814
79048CL-    CL-42981  19.632  34.545  10.907
79049CL-    CL-42982   3.433  38.525   3.164
79050CL-    CL-42983  10.205  27.099   4.183
79051CL-    CL-42984  35.388  35.576  13.984
79052CL-    CL-42985   6.677   2.965   3.351
79053CL-    CL-42986  28.492   4.363   3.188
79054CL-    CL-42987  14.833  17.244   5.291
79055CL-    CL-42988   3.730  39.414   3.198
79056CL-    CL-42989   9.310   7.245   3.367
79057CL-    CL-42990  26.686  19.764   1.892
79058CL-    CL-42991   8.722   5.350   3.310
79059CL-    CL-42992   7.882   9.655  14.813
79060CL-    CL-42993  21.077  40.043   3.703
79061CL-    CL-42994   7.392   3.274   3.667
79062CL-    CL-42995  29.977  32.979  14.008
79063CL-    CL-42996  41.805  15.220  10.929
79064CL-    CL-42997   8.397  43.446  13.527
79065CL-    CL-42998  12.272   0.453  13.844
79066CL-    CL-42999  42.430   5.212  14.286
79067CL-    CL-43000   3.841   7.353  12.350
79068CL-    CL-43001  31.984   5.808   2.858
79069CL-    CL-43002   7.355  36.363   4.135
79070CL-    CL-43003   5.337   4.731   3.743
79071CL-    CL-43004  39.383   4.819   2.377
79072CL-    CL-43005  32.396  31.634   0.442
79073CL-    CL-43006  24.117  39.388   4.729
79074CL-    CL-43007  13.188  44.453  14.809
79075CL-    CL-43008  17.784  35.891  12.075
79076CL-    CL-43009  17.760   7.375   0.316
79077CL-    CL-43010  39.555  15.116   3.371
79078CL-    CL-43011  17.220  26.953  12.505
79079CL-    CL-43012   2.814  23.118  13.820
79080CL-    CL-43013   2.260   5.919  14.865
79081CL-    CL-43014  17.095  20.178  11.010
79082CL-    CL-43015  27.038  10.794   2.213
79083CL-    CL-43016   0.319  26.079  12.018
79084CL-    CL-43017  39.482  30.510   3.224
79085CL-    CL-43018   9.680   1.788   1.877
79086CL-    CL-43019   8.786  40.857   3.205
79087CL-    CL-43020  19.143  40.997  13.920
79088CL-    CL-43021  37.847  32.059   1.412
79089CL-    CL-43022  32.403   2.749  14.463
79090CL-    CL-43023  11.278  34.601   4.755
79091CL-    CL-43024  13.339  20.168  10.415
79092CL-    CL-43025  20.122   6.687   0.379
79093CL-    CL-43026  33.977   5.439   1.893
79094CL-    CL-43027  26.022  22.233   3.847
79095CL-    CL-43028  40.488  21.625   4.116
79096CL-    CL-43029  14.323  38.986   2.372
79097CL-    CL-43030  42.330   8.275  11.007
79098CL-    CL-43031  35.916  37.989  13.909
79099CL-    CL-43032  18.183   3.352  11.612
79100CL-    CL-43033  36.010  12.808   0.263
79101CL-    CL-43034   6.819   9.262  11.064
79102CL-    CL-43035  28.083   0.862  14.950
79103CL-    CL-43036  41.400  40.842  12.418
79104CL-    CL-43037  38.965   6.732   2.841
79105CL-    CL-43038  34.892  22.084   0.322
79106CL-    CL-43039  26.056  12.848  14.841
79107CL-    CL-43040   3.399  33.491   2.369
79108CL-    CL-43041  17.654  13.696   2.837
79109CL-    CL-43042  33.448  16.759  14.998
79110CL-    CL-43043  30.155  32.083   4.210
79111CL-    CL-43044  12.134  14.176  14.478
79112CL-    CL-43045  34.564  30.089   0.753
79113CL-    CL-43046   7.701  42.970  12.455
79114CL-    CL-43047  40.915   2.756   3.171
79115CL-    CL-43048  28.561   9.314  14.358
79116CL-    CL-43049   4.915  37.371  10.995
79117CL-    CL-43050  27.131  29.119  10.555
79118CL-    CL-43051   7.749  37.053  11.912
79119CL-    CL-43052   4.822  11.848   3.659
79120CL-    CL-43053  15.591  19.681   2.371
79121CL-    CL-43054  38.442  28.164   1.359
79122CL-    CL-43055  35.508  18.109  11.434
79123CL-    CL-43056   5.875  12.124  13.358
79124CL-    CL-43057  39.456  23.717  13.889
79125CL-    CL-43058  22.150  25.688   3.321
79126CL-    CL-43059  43.943  23.190   4.674
79127CL-    CL-43060  32.095  23.721  13.026
79128CL-    CL-43061  31.635   5.340   3.712
79129CL-    CL-43062  38.331   1.239  14.905
79130CL-    CL-43063  12.629  19.601  11.043
79131CL-    CL-43064  27.969  18.620   0.932
79132CL-    CL-43065  44.991   8.888   2.202
79133CL-    CL-43066  26.538   5.705   3.648
79134CL-    CL-43067   5.780   4.738   1.824
79135CL-    CL-43068  31.011  22.080  13.320
79136CL-    CL-43069  13.744   6.885   1.445
79137CL-    CL-43070   4.392  11.262   1.807
79138CL-    CL-43071  36.590  29.175  12.408
79139CL-    CL-43072  37.972  18.610   2.340
79140CL-    CL-43073  29.425  35.468  10.420
79141CL-    CL-43074  33.114  34.039   1.287
79142CL-    CL-43075  39.933  39.356  10.953
79143CL-    CL-43076   6.369  41.318  12.972
79144CL-    CL-43077  33.965  44.870  13.488
79145CL-    CL-43078  31.526  36.892   1.412
79146CL-    CL-43079   2.819  37.539   1.785
79147CL-    CL-43080  12.754   3.282   3.190
79148CL-    CL-43081  11.829  12.732   3.358
79149CL-    CL-43082  13.663  36.475   3.308
79150CL-    CL-43083  31.968  22.743   2.412
79151CL-    CL-43084  29.453  19.626   4.196
79152CL-    CL-43085   4.904   7.413  14.366
79153CL-    CL-43086  16.178   8.657  13.872
79154CL-    CL-43087  23.597  37.420   4.770
79155CL-    CL-43088   7.909   8.866   2.689
79156CL-    CL-43089   1.335  16.303   1.920
79157CL-    CL-43090  38.989  19.208  11.974
79158CL-    CL-43091  16.212   8.287  13.045
79159CL-    CL-43092  27.687  23.703  12.094
79160CL-    CL-43093  35.492  28.110   2.382
79161CL-    CL-43094  29.649   1.355  11.458
79162CL-    CL-43095  32.969  37.986   0.803
79163CL-    CL-43096  24.662  23.151   2.238
79164CL-    CL-43097   8.229  38.543   4.238
79165CL-    CL-43098  43.321  26.175  11.047
79166CL-    CL-43099  16.276  20.768  10.451
79167CL-    CL-43100  34.871  37.451   2.840
79168CL-    CL-43101  15.274  18.159   1.717
79169CL-    CL-43102   5.782  36.560  13.339
79170CL-    CL-43103   0.953  17.165   0.436
79171CL-    CL-43104  41.876  35.550   0.465
79172CL-    CL-43105  19.214  39.545   1.217
79173CL-    CL-43106   8.664   7.889  12.920
79174CL-    CL-43107  13.829  19.088   3.289
79175CL-    CL-43108  26.507  14.601  11.941
79176CL-    CL-43109  43.358  38.952   2.820
79177CL-    CL-43110   3.344  40.388   4.289
79178CL-    CL-43111  26.017  19.250  14.383
79179CL-    CL-43112  18.779  21.667  13.062
79180CL-    CL-43113  24.509   1.298   1.274
79181CL-    CL-43114  33.618   7.330   0.750
79182CL-    CL-43115   8.693  32.551  14.857
79183CL-    CL-43116  38.027  17.216  14.341
79184CL-    CL-43117  14.278  34.504   0.866
79185CL-    CL-43118  10.657  37.929   1.709
79186CL-    CL-43119  22.213   1.457  10.478
79187CL-    CL-43120  16.766   6.277  11.925
79188CL-    CL-43121  18.639   5.357  12.064
79189CL-    CL-43122  18.103  31.138  12.360
79190CL-    CL-43123  39.480  24.491   1.746
79191CL-    CL-43124  29.161  26.108  11.973
79192CL-    CL-43125  32.478  28.159  11.454
79193CL-    CL-43126  36.062  24.534  10.577
79194CL-    CL-43127  44.430  27.018   2.239
79195CL-    CL-43128  35.082  10.876  12.089
79196CL-    CL-43129  25.708  16.134   4.242
79197CL-    CL-43130  28.994  27.498   0.392
79198CL-    CL-43131  23.201  41.942  13.534
79199CL-    CL-43132  38.878  12.218  13.040
79200CL-    CL-43133  42.935  11.629  11.989
79201CL-    CL-43134   6.404  41.866  12.341
79202CL-    CL-43135  19.256  12.691  10.975
79203CL-    CL-43136   5.397  28.082   0.430
79204CL-    CL-43137  21.610  35.362  14.954
79205CL-    CL-43138  28.020  38.833  14.863
79206CL-    CL-43139   3.320   5.881  14.291
79207CL-    CL-43140  11.726  17.765   0.316
79208CL-    CL-43141   7.900  16.203   2.325
79209CL-    CL-43142   4.839   1.862   1.843
79210CL-    CL-43143  19.266   8.762   5.271
79211CL-    CL-43144  29.972  12.825   1.872
79212CL-    CL-43145  15.117  30.658  10.928
79213CL-    CL-43146  28.157  24.559  12.523
79214CL-    CL-43147   0.778   3.716   4.266
79215CL-    CL-43148  12.729  40.405  11.417
79216CL-    CL-43149  26.034  32.961  14.885
79217CL-    CL-43150  10.735   7.232   0.463
79218CL-    CL-43151  26.659  21.724  11.585
79219CL-    CL-43152  16.640  13.176   3.819
79220CL-    CL-43153  33.426  43.344  11.858
79221CL-    CL-43154  36.544  17.743   4.323
79222CL-    CL-43155  16.788  41.960   0.460
79223CL-    CL-43156  19.094   1.389   4.123
79224CL-    CL-43157  37.986  33.882   3.771
79225CL-    CL-43158  39.322  12.714  14.296
79226CL-    CL-43159  28.521   9.669  14.814
79227CL-    CL-43160  11.757  22.725  11.492
79228CL-    CL-43161   6.323  25.011  14.435
79229CL-    CL-43162  37.891   6.409  10.510
79230CL-    CL-43163   9.691  31.565  12.030
79231CL-    CL-43164  29.007  32.554  10.453
79232CL-    CL-43165   0.976  29.118  11.089
79233CL-    CL-43166  33.426  38.483  11.455
79234CL-    CL-43167  31.091   2.419  10.908
79235CL-    CL-43168  23.210  35.378  13.430
79236CL-    CL-43169  18.269  12.656   1.932
79237CL-    CL-43170  33.551  23.545  13.454
79238CL-    CL-43171   1.799  25.179   3.289
79239CL-    CL-43172  23.013  14.230   4.623
79240CL-    CL-43173  28.029  37.995  13.545
79241CL-    CL-43174  20.734  21.725   0.830
79242CL-    CL-43175  38.539  32.988  14.338
79243CL-    CL-43176  37.489   5.762   3.778
79244CL-    CL-43177  10.678   2.298   4.283
79245CL-    CL-43178  12.303   9.229   4.766
79246CL-    CL-43179  33.944  25.024   2.731
79247CL-    CL-43180  20.656  34.515  13.972
79248CL-    CL-43181  13.139   1.277   0.947
79249CL-    CL-43182  43.503  16.222   3.766
79250CL-    CL-43183  39.827  16.738  11.604
79251CL-    CL-43184  13.624  28.639   2.342
79252CL-    CL-43185  27.980  18.284   1.696
79253CL-    CL-43186  25.636  22.664  14.906
79254CL-    CL-43187  33.449  14.712  14.816
79255CL-    CL-43188  29.613  20.568   4.801
79256CL-    CL-43189  36.089   4.268  13.791
79257CL-    CL-43190  28.528  15.085  11.096
79258CL-    CL-43191  27.450  34.120   0.753
79259CL-    CL-43192  21.210  43.914  12.453
79260CL-    CL-43193   1.936  33.894  10.581
79261CL-    CL-43194   3.752  12.810   3.653
79262CL-    CL-43195  12.642  20.556  12.524
79263CL-    CL-43196  11.674  37.433   5.290
79264CL-    CL-43197   2.857  34.977   4.737
79265CL-    CL-43198  30.165  31.498  10.470
79266CL-    CL-43199  29.468  31.115  12.966
79267CL-    CL-43200  15.104  14.778  12.012
79268CL-    CL-43201   2.315  25.158  10.498
79269CL-    CL-43202  31.497  17.612  13.054
79270CL-    CL-43203   3.374  17.692   2.663
79271CL-    CL-43204   2.392  42.778  10.499
79272CL-    CL-43205  24.176  13.634  14.377
79273CL-    CL-43206  18.656  30.002   2.761
79274CL-    CL-43207   9.808   3.797  13.487
79275CL-    CL-43208  24.602  15.718   0.956
79276CL-    CL-43209  15.650  27.079  12.575
79277CL-    CL-43210  10.155  11.668   3.216
79278CL-    CL-43211   9.764  43.832   2.733
79279CL-    CL-43212  32.601  26.005  11.019
79280CL-    CL-43213  35.510  40.039   0.303
79281CL-    CL-43214   0.331  27.021  13.333
79282CL-    CL-43215  43.309  19.569  10.556
79283CL-    CL-43216   1.479  24.054  14.461
79284CL-    CL-43217  38.559  43.958  13.868
79285CL-    CL-43218  42.935   0.938  10.552
79286CL-    CL-43219   6.846   4.851   3.768
79287CL-    CL-43220  31.959  19.048   1.800
79288CL-    CL-43221  33.093  19.274   3.277
79289CL-    CL-43222  18.599  13.697  14.294
79290CL-    CL-43223  15.184  22.112   1.314
79291CL-    CL-43224  36.532   2.364  10.563
79292CL-    CL-43225  18.206   2.787  14.495
79293CL-    CL-43226  44.436  14.637  11.095
79294CL-    CL-43227   8.805   7.258   1.694
79295CL-    CL-43228  26.151  24.691  14.339
79296CL-    CL-43229  18.596  24.716   0.283
79297CL-    CL-43230  14.655  11.626   3.806
79298CL-    CL-43231  27.472  33.960  13.873
79299CL-    CL-43232   0.315  18.749  14.796
79300CL-    CL-43233  11.359  26.199   4.798
79301CL-    CL-43234  24.636  23.015  10.609
79302CL-    CL-43235  41.528  44.498   3.660
79303CL-    CL-43236  11.161  19.197  13.938
79304CL-    CL-43237  37.430  30.556   3.333
79305CL-    CL-43238  21.573  27.681   2.277
79306CL-    CL-43239  25.623  19.255  11.386
79307CL-    CL-43240   8.752  10.273  13.049
79308CL-    CL-43241  34.533  20.606   0.256
79309CL-    CL-43242  36.441  29.619  10.070
79310CL-    CL-43243  14.808  29.529  12.944
79311CL-    CL-43244  31.020  38.020   0.362
79312CL-    CL-43245   8.345  17.091  11.894
79313CL-    CL-43246  11.349   7.236   4.327
79314CL-    CL-43247  11.735  11.792   4.836
79315CL-    CL-43248   2.472  20.030  11.522
79316CL-    CL-43249  22.200  21.190  12.006
79317CL-    CL-43250   3.802   0.866  13.050
79318CL-    CL-43251  44.986  35.496   3.326
79319CL-    CL-43252  25.138  42.924  10.519
79320CL-    CL-43253  41.942  16.220   3.630
79321CL-    CL-43254   4.357  36.454  13.497
79322CL-    CL-43255  35.088  14.796  14.026
79323CL-    CL-43256  23.626  14.691   3.774
79324CL-    CL-43257  26.693  33.956  11.550
79325CL-    CL-43258  12.831  11.823   0.780
79326CL-    CL-43259  44.796  20.545  12.924
79327CL-    CL-43260  32.959  42.334  14.342
79328CL-    CL-43261   0.967  18.749   3.306
79329CL-    CL-43262  40.882   3.442   4.717
79330CL-    CL-43263   5.231   6.712  10.484
79331CL-    CL-43264  39.808   7.767   1.898
79332CL-    CL-43265  32.985  44.339  11.388
79333CL-    CL-43266   4.868   5.349  11.599
79334CL-    CL-43267  38.462  12.180   4.622
79335CL-    CL-43268   9.840  25.160  11.861
79336CL-    CL-43269  18.160  23.671  14.292
79337CL-    CL-43270  19.066   7.727  12.469
79338CL-    CL-43271  35.558  27.045   4.680
79339CL-    CL-43272  25.164  11.849   0.464
79340CL-    CL-43273   7.235   0.458   4.606
79341CL-    CL-43274  25.964  36.034   2.217
79342CL-    CL-43275  28.571   6.774   2.316
79343CL-    CL-43276  22.622  15.155   3.664
79344CL-    CL-43277  14.640  27.048   2.762
79345CL-    CL-43278  21.078  33.617  11.561
79346CL-    CL-43279   2.363  39.495   1.929
79347CL-    CL-43280  21.084  23.134  10.556
79348CL-    CL-43281   0.874  31.145  11.579
79349CL-    CL-43282  37.445   2.939  10.513
79350CL-    CL-43283  22.098  19.226   2.793
79351CL-    CL-43284  11.651   6.840  11.439
79352CL-    CL-43285  27.049  13.143  14.434
79353CL-    CL-43286  41.498  41.975  13.816
79354CL-    CL-43287   6.751  16.126   0.793
79355CL-    CL-43288  29.081  35.485  13.882
79356CL-    CL-43289  34.457  30.453  14.876
79357CL-    CL-43290  31.614   5.432  10.910
79358CL-    CL-43291   5.256  11.767  10.050
79359CL-    CL-43292  41.458   5.731   3.685
79360CL-    CL-43293  31.515  18.140  13.822
79361CL-    CL-43294   7.843   2.749  12.832
79362CL-    CL-43295   2.307  35.387   3.845
79363CL-    CL-43296  40.879  11.645  12.874
79364CL-    CL-43297  11.241  11.253   3.827
79365CL-    CL-43298  22.246  19.132  13.413
79366CL-    CL-43299  30.077   4.779  12.942
79367CL-    CL-43300   1.463  13.828  14.405
79368CL-    CL-43301  34.074  19.593  13.869
79369CL-    CL-43302  30.038  12.805  12.509
79370CL-    CL-43303   7.237  35.962  11.065
79371CL-    CL-43304  41.398  32.398  12.504
79372CL-    CL-43305  25.064  43.419  13.998
79373CL-    CL-43306   6.866  16.194   3.836
79374CL-    CL-43307  30.452  30.968   2.183
79375CL-    CL-43308   2.470  25.535  11.513
79376CL-    CL-43309   1.786  40.319   0.363
79377CL-    CL-43310   9.306  27.457  13.900
79378CL-    CL-43311   3.460   2.445   2.354
79379CL-    CL-43312  21.061   8.727   3.286
79380CL-    CL-43313  30.920  39.422  12.928
79381CL-    CL-43314  28.629  12.344  10.598
79382CL-    CL-43315  26.081   6.707   1.699
79383CL-    CL-43316  29.984  32.886  12.966
79384CL-    CL-43317   6.246  37.435   2.837
79385CL-    CL-43318  42.814  31.137   0.914
79386CL-    CL-43319  34.904  15.245   0.804
79387CL-    CL-43320  35.901  16.313  14.482
79388CL-    CL-43321  43.512  36.941   4.176
79389CL-    CL-43322  18.652  27.161   3.863
79390CL-    CL-43323  15.735   5.303   0.793
79391CL-    CL-43324  30.451  24.534  11.434
79392CL-    CL-43325  21.063  10.353   1.235
79393CL-    CL-43326  20.060  40.887   2.193
79394CL-    CL-43327   7.332   2.932  10.561
79395CL-    CL-43328  30.415  42.362  14.027
79396CL-    CL-43329  29.440  42.505   0.896
79397CL-    CL-43330  33.040  39.556   1.429
79398CL-    CL-43331   2.254  22.707   1.450
79399CL-    CL-43332  19.600   8.211   2.334
79400CL-    CL-43333  39.036  32.402   4.799
79401CL-    CL-43334  37.933  11.167  13.454
79402CL-    CL-43335  22.202   3.946   2.184
79403CL-    CL-43336  27.617  39.483  10.555
79404CL-    CL-43337  42.001  29.523  10.916
79405CL-    CL-43338  24.680   9.644   1.402
79406CL-    CL-43339  32.074  32.069   0.870
79407CL-    CL-43340  17.306  12.839   2.808
79408CL-    CL-43341   4.705  28.019  14.365
79409CL-    CL-43342  26.657   1.950  12.840
79410CL-    CL-43343   3.791  28.527   1.401
79411CL-    CL-43344  16.669  21.247  12.386
79412CL-    CL-43345  24.122  14.681  10.440
79413CL-    CL-43346  38.940   7.347  12.398
79414CL-    CL-43347  42.943  43.004   3.713
79415CL-    CL-43348  22.127  11.311   2.233
79416CL-    CL-43349   0.976  13.731   0.781
79417CL-    CL-43350   6.354   8.895   1.842
79418CL-    CL-43351  13.777  27.625  11.490
79419CL-    CL-43352  21.547  10.343  11.463
79420CL-    CL-43353  14.159  20.712  11.578
79421CL-    CL-43354  16.789  39.449  11.935
79422CL-    CL-43355   3.283  26.205  11.488
79423CL-    CL-43356  32.112  19.262   3.866
79424CL-    CL-43357  13.211  32.391  14.284
79425CL-    CL-43358  30.545   5.389   3.239
79426CL-    CL-43359  37.452  28.463   1.808
79427CL-    CL-43360  14.298  27.684   4.145
79428CL-    CL-43361   1.909  40.381  10.628
79429CL-    CL-43362  33.029  24.654  12.471
79430CL-    CL-43363  27.978  25.692   2.797
79431CL-    CL-43364  43.771  12.813   3.230
79432CL-    CL-43365  25.030  31.014  14.409
79433CL-    CL-43366   9.366  12.727   4.726
79434CL-    CL-43367  32.461  15.181   4.659
79435CL-    CL-43368  28.976  33.091  14.362
79436CL-    CL-43369  43.980  41.817  10.467
79437CL-    CL-43370  39.907  22.591   3.691
79438CL-    CL-43371  43.874  36.845   2.219
79439CL-    CL-43372  40.029   5.230   4.833
79440CL-    CL-43373  34.114   8.769  14.945
79441CL-    CL-43374   6.421  40.050   1.254
79442CL-    CL-43375  26.657   7.245   2.792
79443CL-    CL-43376  42.971   1.815   3.285
79444CL-    CL-43377  41.354  28.497   0.255
79445CL-    CL-43378  17.198  22.560  14.898
79446CL-    CL-43379   7.172  44.831  10.410
79447CL-    CL-43380  27.607   5.877   3.346
79448CL-    CL-43381  33.898   3.936  14.830
79449CL-    CL-43382  13.749   6.424  11.101
79450CL-    CL-43383  29.152  12.763  13.402
79451CL-    CL-43384  32.894   1.781  13.537
79452CL-    CL-43385  32.516  17.179   0.301
79453CL-    CL-43386  11.649   0.952  11.422
79454CL-    CL-43387  34.963  23.153  12.458
79455CL-    CL-43388  34.055  12.771   3.182
79456CL-    CL-43389  33.965  23.079   4.144
79457CL-    CL-43390   5.911  17.291  14.952
79458CL-    CL-43391   3.864  11.350   5.123
79459CL-    CL-43392  13.833  38.886   2.745
79460CL-    CL-43393  16.185  14.229  13.805
79461CL-    CL-43394   5.377  10.279   1.860
79462CL-    CL-43395  17.271  11.189   3.760
79463CL-    CL-43396  42.863  41.015  12.926
79464CL-    CL-43397  15.250  41.419   2.407
79465CL-    CL-43398   5.216  14.229  11.078
79466CL-    CL-43399  10.245  13.800  13.376
79467CL-    CL-43400  31.983   2.442   4.832
79468CL-    CL-43401  27.639  11.699   1.788
79469CL-    CL-43402  31.035  38.512  10.892
79470CL-    CL-43403  34.072  12.809   2.224
79471CL-    CL-43404  25.491  41.859  14.388
79472CL-    CL-43405  29.961  34.388   2.344
79473CL-    CL-43406  24.575  38.946  13.384
79474CL-    CL-43407   3.307  38.399  13.957
79475CL-    CL-43408  10.233   1.913  12.564
79476CL-    CL-43409  16.095  28.638  13.856
79477CL-    CL-43410   8.760  38.848  12.039
79478CL-    CL-43411  44.448  36.995   4.249
79479CL-    CL-43412  36.026  10.233   0.284
79480CL-    CL-43413  15.109  42.958  13.876
79481CL-    CL-43414  32.989  33.569  11.578
79482CL-    CL-43415  30.146   9.793   2.325
79483CL-    CL-43416  24.632   4.263   2.854
79484CL-    CL-43417  31.485  22.116   0.797
79485CL-    CL-43418  15.705   1.931  11.940
79486CL-    CL-43419  41.040  32.616   2.728
79487CL-    CL-43420  17.293  27.467   3.230
79488CL-    CL-43421   8.686  15.150   0.352
79489CL-    CL-43422  17.785   5.421   1.349
79490CL-    CL-43423  33.915  42.447  10.520
79491CL-    CL-43424  18.081  13.163  12.433
79492CL-    CL-43425  34.099  39.384  10.973
79493CL-    CL-43426  39.025  28.668   1.414
79494CL-    CL-43427  36.898  17.282   4.171
79495CL-    CL-43428  19.102   8.366  10.479
79496CL-    CL-43429  12.314   7.204   0.286
79497CL-    CL-43430  10.648  29.650  11.995
79498CL-    CL-43431   4.339   1.333   4.643
79499CL-    CL-43432  30.615  38.893   2.341
79500CL-    CL-43433  10.706  28.567  14.491
79501CL-    CL-43434  42.915  40.928  14.988
79502CL-    CL-43435   2.873  25.485   1.445
79503CL-    CL-43436   9.710   7.869  10.914
79504CL-    CL-43437  38.869  36.480  12.454
79505CL-    CL-43438  38.924   6.762  11.387
79506CL-    CL-43439  42.388  42.002   3.788
79507CL-    CL-43440   8.199  12.151  14.398
79508CL-    CL-43441  22.693  39.401  13.844
79509CL-    CL-43442  42.970  21.609   0.259
79510CL-    CL-43443  43.421  15.301   2.808
79511CL-    CL-43444  14.139  36.488  12.077
79512CL-    CL-43445  11.274  38.433  11.884
79513CL-    CL-43446  10.655  13.800   4.829
79514CL-    CL-43447  11.685  32.896   0.887
79515CL-    CL-43448  11.772  16.575   2.721
79516CL-    CL-43449  30.922  35.420  11.081
79517CL-    CL-43450  35.470  22.528   1.780
79518CL-    CL-43451   6.186  38.914  11.540
79519CL-    CL-43452   4.258  10.179   0.281
79520CL-    CL-43453  14.630   6.246  14.508
79521CL-    CL-43454  17.755   3.803   4.782
79522CL-    CL-43455  41.400  16.252  13.370
79523CL-    CL-43456  22.725  21.230  10.526
79524CL-    CL-43457  21.756  12.362   3.379
79525CL-    CL-43458  43.934  34.975   0.259
79526CL-    CL-43459  30.926  12.266   0.901
79527CL-    CL-43460  37.410   3.342   4.164
79528CL-    CL-43461  20.204  12.792   3.177
79529CL-    CL-43462  19.573  41.813   1.915
79530CL-    CL-43463  20.738  16.158  14.811
79531CL-    CL-43464  37.851  37.848  14.413
79532CL-    CL-43465  13.608  12.740   3.274
79533CL-    CL-43466  42.807  12.176   2.773
79534CL-    CL-43467   0.392  17.689   3.159
79535CL-    CL-43468   9.730  20.553  12.833
79536CL-    CL-43469  28.968  32.067  12.560
79537CL-    CL-43470   4.925  25.018   4.315
79538CL-    CL-43471  31.420  11.860   3.641
79539CL-    CL-43472   1.283  15.245  14.415
79540CL-    CL-43473   0.797  30.531   0.785
79541CL-    CL-43474   5.724  12.252   3.703
79542CL-    CL-43475  35.529  44.375  11.591
79543CL-    CL-43476  37.941  20.672  14.909
79544CL-    CL-43477  42.424   6.743   0.458
79545CL-    CL-43478  28.647  34.413  11.041
79546CL-    CL-43479  18.650   5.401   2.846
79547CL-    CL-43480  30.077  22.511  13.931
79548CL-    CL-43481  25.647  32.455   4.675
79549CL-    CL-43482  13.151  40.046   3.280
79550CL-    CL-43483   4.736  16.794   0.309
79551CL-    CL-43484  40.330   7.670   0.830
79552CL-    CL-43485   5.717  33.512  13.484
79553CL-    CL-43486  26.612  44.926   2.365
79554CL-    CL-43487  40.386  26.135  12.355
79555CL-    CL-43488  37.870  32.481   4.663
79556CL-    CL-43489  10.297  39.342  11.522
79557CL-    CL-43490  20.587   7.743   3.760
79558CL-    CL-43491  38.440  42.800   0.332
79559CL-    CL-43492  19.645  15.136  14.973
79560CL-    CL-43493  30.458  29.489  14.393
79561CL-    CL-43494  33.413  34.000  13.392
79562CL-    CL-43495  24.572   8.173   1.443
79563CL-    CL-43496  26.702  20.725   1.742
79564CL-    CL-43497  19.546  33.117  12.065
79565CL-    CL-43498  21.593  32.093   0.244
79566CL-    CL-43499  43.903  40.323   3.245
79567CL-    CL-43500  31.526  41.478   2.670
79568CL-    CL-43501  32.115  11.155   0.300
79569CL-    CL-43502  37.052  28.006  14.895
79570CL-    CL-43503  21.196  40.327  12.527
79571CL-    CL-43504   1.370  19.259  14.340
79572CL-    CL-43505  12.754   4.266   0.457
79573CL-    CL-43506  36.545   6.748  14.954
79574CL-    CL-43507  44.465  32.902   2.406
79575CL-    CL-43508   1.279  29.164   1.372
79576CL-    CL-43509  33.548  41.481   0.366
79577CL-    CL-43510  19.697  33.898  12.501
79578CL-    CL-43511  23.139   0.988  10.492
79579CL-    CL-43512  36.027  30.429  12.462
79580CL-    CL-43513   4.348  35.551   2.234
79581CL-    CL-43514  41.318  12.300  12.929
79582CL-    CL-43515  43.950  29.629  12.525
79583CL-    CL-43516  24.124   6.184   2.892
79584CL-    CL-43517  35.036   1.903  11.540
79585CL-    CL-43518  41.364  43.473   0.885
79586CL-    CL-43519  18.195  20.272  12.999
79587CL-    CL-43520  23.659  32.958   1.804
79588CL-    CL-43521   2.432   0.289  11.899
79589CL-    CL-43522  21.689   5.807  12.868
79590CL-    CL-43523  36.094  28.051  11.535
79591CL-    CL-43524  19.145  23.195   2.207
79592CL-    CL-43525   6.843   7.253   0.856
79593CL-    CL-43526   6.271  40.381  11.523
79594CL-    CL-43527   9.347  41.402   4.253
79595CL-    CL-43528  25.965  43.284  14.384
79596CL-    CL-43529  41.299  21.127   2.221
79597CL-    CL-43530  17.061   3.313   4.776
79598CL-    CL-43531  30.420  12.266  14.442
79599CL-    CL-43532   1.797   0.821  14.322
79600CL-    CL-43533  27.970  15.757  11.554
79601CL-    CL-43534  11.359  41.320  11.890
79602CL-    CL-43535  18.778  17.247  12.516
79603CL-    CL-43536   5.751  32.108  12.023
79604CL-    CL-43537  38.897  14.322   1.276
79605CL-    CL-43538  35.034   1.444  12.904
79606CL-    CL-43539   6.398  37.471   2.256
79607CL-    CL-43540  11.793  31.934   2.192
79608CL-    CL-43541  17.070  16.721   3.280
79609CL-    CL-43542  19.157  24.026   4.803
79610CL-    CL-43543  43.507  38.994   1.420
79611CL-    CL-43544  11.317  35.030   1.926
79612CL-    CL-43545  11.154  39.842  12.442
79613CL-    CL-43546  40.871  43.458   0.863
79614CL-    CL-43547  38.333   2.364  11.520
79615CL-    CL-43548  14.226  12.360   1.857
79616CL-    CL-43549  16.293  37.074   3.268
79617CL-    CL-43550  23.995  27.012  12.081
79618CL-    CL-43551   4.867  37.394  10.149
79619CL-    CL-43552   6.710  14.750  12.460
79620CL-    CL-43553  26.092  38.455  11.971
79621CL-    CL-43554   2.281   0.289  12.531
79622CL-    CL-43555  19.277  35.443   3.282
79623CL-    CL-43556  28.991  11.629  14.400
79624CL-    CL-43557  40.391  34.381  11.012
79625CL-    CL-43558  24.190  10.141  13.365
79626CL-    CL-43559  34.396   7.838  12.964
79627CL-    CL-43560   8.395  28.460   4.175
79628CL-    CL-43561   4.344  29.551   3.322
79629CL-    CL-43562  28.556   4.414   0.246
79630CL-    CL-43563  29.026  12.246  12.432
79631CL-    CL-43564  15.612  27.585   4.130
79632CL-    CL-43565  15.667  28.645   3.662
79633CL-    CL-43566  29.544  40.954   1.290
79634CL-    CL-43567  34.453   4.769  12.536
79635CL-    CL-43568  32.893  41.430  14.513
79636CL-    CL-43569  31.469  15.314  14.363
79637CL-    CL-43570  12.194  16.680  12.068
79638CL-    CL-43571  19.194  14.338  12.514
79639CL-    CL-43572  19.596   9.298   4.629
79640CL-    CL-43573  17.751   7.335   2.370
79641CL-    CL-43574  11.678   0.371  14.983
79642CL-    CL-43575   0.405   6.295   4.323
79643CL-    CL-43576  24.210   9.211  10.112
79644CL-    CL-43577  37.534   8.757  12.076
79645CL-    CL-43578  24.109   9.718   1.829
79646CL-    CL-43579  35.913  15.639   0.898
79647CL-    CL-43580  19.090  31.949  12.512
79648CL-    CL-43581  16.646  21.517   3.327
79649CL-    CL-43582  10.258   0.750   1.733
79650CL-    CL-43583  44.782  27.188   2.879
79651CL-    CL-43584  14.773  35.935   2.703
79652CL-    CL-43585   4.346   9.791  10.451
79653CL-    CL-43586   9.181  19.264  11.566
79654CL-    CL-43587  10.770  31.960  11.024
79655CL-    CL-43588   3.874  18.181   1.313
79656CL-    CL-43589  19.110  15.264   4.676
79657CL-    CL-43590  13.771  18.293   4.184
79658CL-    CL-43591   9.225  31.134   1.275
79659CL-    CL-43592  16.587  33.882   1.347
79660CL-    CL-43593  43.322  22.689  11.124
79661CL-    CL-43594  36.004  42.337   0.262
79662CL-    CL-43595   9.721  27.628  11.089
79663CL-    CL-43596   2.774  13.751  11.387
79664CL-    CL-43597  30.454  23.127  13.831
79665CL-    CL-43598  21.734  32.994  13.835
79666CL-    CL-43599  23.041  12.331  13.429
79667CL-    CL-43600   0.825  14.127  12.060
79668CL-    CL-43601  35.087  34.876  12.046
79669CL-    CL-43602  23.195  36.460   4.121
79670CL-    CL-43603  30.563  38.000   4.252
79671CL-    CL-43604   0.273  37.005  11.541
79672CL-    CL-43605  11.334  14.592  13.507
79673CL-    CL-43606  37.508  40.365  12.561
79674CL-    CL-43607  15.150  38.404   5.786
79675CL-    CL-43608  23.194  24.228   2.339
79676CL-    CL-43609  28.003  20.572  11.505
79677CL-    CL-43610  29.593  37.848  12.094
79678CL-    CL-43611   1.250  27.072  12.406
79679CL-    CL-43612  40.312  19.051   0.915
79680CL-    CL-43613   1.891  42.925  12.531
79681CL-    CL-43614  41.389  39.553   1.358
79682CL-    CL-43615  41.347  11.645   1.427
79683CL-    CL-43616  22.113  43.401  11.435
79684CL-    CL-43617  22.207  23.189  11.979
79685CL-    CL-43618  28.167  28.449  14.451
79686CL-    CL-43619   5.402  41.412  14.495
79687CL-    CL-43620   8.863  19.261   1.216
79688CL-    CL-43621  34.604  11.634   0.825
79689CL-    CL-43622   8.772   6.284   4.293
79690CL-    CL-43623  19.640  43.767   2.254
79691CL-    CL-43624  37.993  39.318  12.875
79692CL-    CL-43625  34.403  25.170  14.018
79693CL-    CL-43626   9.825  37.930   1.272
79694CL-    CL-43627  43.981   0.774   0.931
79695CL-    CL-43628  27.964  23.221   4.346
79696CL-    CL-43629   5.734  17.091   4.325
79697CL-    CL-43630  22.143  19.266  14.481
79698CL-    CL-43631   9.381  27.072   1.822
79699CL-    CL-43632  30.544   0.858   0.805
79700CL-    CL-43633  35.910  37.862   3.845
79701CL-    CL-43634  22.563  23.210   0.896
79702CL-    CL-43635  35.042  31.083   2.817
79703CL-    CL-43636  15.610  43.516   2.881
79704CL-    CL-43637  21.607   0.379   4.604
79705CL-    CL-43638  25.215  24.588   0.851
79706CL-    CL-43639  31.530  39.353   3.701
79707CL-    CL-43640  15.667   5.894   4.123
79708CL-    CL-43641   5.898  40.038  13.015
79709CL-    CL-43642   6.426  11.841   4.243
79710CL-    CL-43643   3.841  41.396   5.205
79711CL-    CL-43644  27.512   4.232  13.841
79712CL-    CL-43645  32.396  12.649   2.346
79713CL-    CL-43646  33.484  12.177   1.210
79714CL-    CL-43647   2.919  41.039  14.441
79715CL-    CL-43648   2.962  27.690  10.546
79716CL-    CL-43649  36.372   6.292  13.333
79717CL-    CL-43650  44.262   5.896  11.988
79718CL-    CL-43651  10.834   6.817  14.023
79719CL-    CL-43652   4.254   8.845   0.245
79720CL-    CL-43653  33.127  24.722   1.373
79721CL-    CL-43654  17.196  28.005   3.764
79722CL-    CL-43655  28.634  44.417   1.739
79723CL-    CL-43656   9.694  22.185  11.069
79724CL-    CL-43657  36.039  12.183  13.814
79725CL-    CL-43658   5.757  29.575   4.331
79726CL-    CL-43659  32.515  43.271  12.438
79727CL-    CL-43660   7.795  42.464   3.829
79728CL-    CL-43661  40.017  30.628   4.806
79729CL-    CL-43662  26.580   4.359  13.023
79730CL-    CL-43663   1.366  42.790   0.462
79731CL-    CL-43664  26.617  17.626  13.854
79732CL-    CL-43665  19.609   9.824   3.322
79733CL-    CL-43666   4.717  22.226  10.983
79734CL-    CL-43667   7.417  35.909  10.432
79735CL-    CL-43668  42.373  33.916  13.372
79736CL-    CL-43669  31.647  35.359  10.913
79737CL-    CL-43670  10.814  33.903  13.534
79738CL-    CL-43671  20.250  44.448   3.323
79739CL-    CL-43672  33.904  17.234   3.233
79740CL-    CL-43673  16.215  10.723   1.432
79741CL-    CL-43674  28.138   0.341  11.921
79742CL-    CL-43675  37.373  25.129  11.416
79743CL-    CL-43676  15.292  27.015   3.773
79744CL-    CL-43677  31.901  25.501  14.964
79745CL-    CL-43678   8.800  30.609   3.153
79746CL-    CL-43679  17.073  34.432  11.610
79747CL-    CL-43680  43.952  33.420  12.460
79748CL-    CL-43681  42.443  36.350  11.876
79749CL-    CL-43682   0.437   7.833   0.903
79750CL-    CL-43683  12.351  29.036  12.049
79751CL-    CL-43684  10.284  35.361  11.566
79752CL-    CL-43685  11.707   5.821  12.447
79753CL-    CL-43686  39.418  12.299   0.803
79754CL-    CL-43687  11.663   3.367  11.440
79755CL-    CL-43688   7.677  43.984   2.387
79756CL-    CL-43689  33.529   5.732  12.540
79757CL-    CL-43690  37.837  30.928  11.529
79758CL-    CL-43691  36.042  16.278  13.926
79759CL-    CL-43692   4.314  29.546   4.260
79760CL-    CL-43693  42.432  16.684  11.924
79761CL-    CL-43694  26.520   7.696  13.971
79762CL-    CL-43695  19.638  27.988   2.890
79763CL-    CL-43696  22.131  18.237   1.711
79764CL-    CL-43697   1.263  34.474  11.075
79765CL-    CL-43698  37.399  11.700  14.933
79766CL-    CL-43699  28.564  40.845   0.324
79767CL-    CL-43700  32.983  18.212   4.244
79768CL-    CL-43701  13.836   2.470   1.434
79769CL-    CL-43702  41.007  12.747   3.373
79770CL-    CL-43703  14.184  39.917   1.221
79771CL-    CL-43704  38.562  20.271  10.990
79772CL-    CL-43705  23.559   4.368   2.219
79773CL-    CL-43706  37.967  33.948  12.524
79774CL-    CL-43707   3.865   3.330   2.691
79775CL-    CL-43708  15.316   3.383  12.571
79776CL-    CL-43709   6.780   9.761   2.846
79777CL-    CL-43710  14.212   2.860   1.312
79778CL-    CL-43711  26.981   6.419  10.616
79779CL-    CL-43712   0.337   3.948   2.724
79780CL-    CL-43713  27.129  21.636   1.767
79781CL-    CL-43714  42.940  37.845  13.413
79782CL-    CL-43715  24.599  38.903  12.477
79783CL-    CL-43716   7.829  22.705   4.687
79784CL-    CL-43717  38.420  15.085   3.159
79785CL-    CL-43718  40.541  40.345  12.407
79786CL-    CL-43719   8.400  32.411   4.297
79787CL-    CL-43720   8.877  38.436  13.815
79788CL-    CL-43721  33.438  32.510  14.373
79789CL-    CL-43722  41.791   9.271   0.262
79790CL-    CL-43723   4.803  31.531   4.698
79791CL-    CL-43724  34.030  39.559   3.272
79792CL-    CL-43725  14.095  33.124   0.411
79793CL-    CL-43726  41.985  41.920   0.727
79794CL-    CL-43727  43.873  36.554  10.543
79795CL-    CL-43728  26.103  38.076  10.556
79796CL-    CL-43729  21.097  27.596   0.249
79797CL-    CL-43730  27.065  38.443   3.736
79798CL-    CL-43731  29.955  22.209   3.164
79799CL-    CL-43732   9.289  16.622  12.507
79800CL-    CL-43733  32.069  23.078  12.341
79801CL-    CL-43734   3.765  24.998  11.899
79802CL-    CL-43735  36.536  33.597  14.852
79803CL-    CL-43736   1.347  30.936   4.766
79804CL-    CL-43737   6.915  44.347  12.091
79805CL-    CL-43738  39.856   7.233   3.711
79806CL-    CL-43739  15.803  14.715  11.116
79807CL-    CL-43740  29.423  23.558  14.372
79808CL-    CL-43741  44.922  16.789  12.001
79809CL-    CL-43742   2.921  34.597  11.873
79810CL-    CL-43743  10.139  12.654   3.299
79811CL-    CL-43744  39.382  31.057   2.884
79812CL-    CL-43745  32.419  34.905   3.666
79813CL-    CL-43746  38.861  31.556   3.279
79814CL-    CL-43747  29.101  43.988  12.383
79815CL-    CL-43748  13.708  24.112   4.195
79816CL-    CL-43749  31.012  44.986  10.608
79817CL-    CL-43750   4.233   7.198  10.623
79818CL-    CL-43751  28.628   8.810   1.841
79819CL-    CL-43752  22.578  33.058  13.451
79820CL-    CL-43753  18.207  44.872   1.251
79821CL-    CL-43754  39.329  19.284  11.890
79822CL-    CL-43755  26.578   1.877  11.538
79823CL-    CL-43756   6.904  35.080  13.821
79824CL-    CL-43757  36.967  29.061  10.497
79825CL-    CL-43758  30.496   0.865  14.398
79826CL-    CL-43759  42.865  44.792   1.872
79827CL-    CL-43760  34.453   9.294   2.391
79828CL-    CL-43761  16.123  19.581  13.957
79829CL-    CL-43762  34.094  34.924  11.914
79830CL-    CL-43763  19.715  13.264   4.634
79831CL-    CL-43764   9.796  29.139   4.353
79832CL-    CL-43765  36.510  34.499   2.409
79833CL-    CL-43766   2.913  41.297  14.429
79834CL-    CL-43767  19.565  17.106   3.638
79835CL-    CL-43768  23.729  15.671  11.450
79836CL-    CL-43769  34.607  43.493   4.330
79837CL-    CL-43770  30.623  10.379  10.623
79838CL-    CL-43771  23.061  27.043  12.839
79839CL-    CL-43772   7.306  27.522  14.458
79840CL-    CL-43773   9.285  28.641  14.825
79841CL-    CL-43774  31.146  20.556   2.370
79842CL-    CL-43775   7.762  25.071   1.868
79843CL-    CL-43776  21.152   9.711  10.466
79844CL-    CL-43777  15.807  44.347  12.052
79845CL-    CL-43778  43.318  26.488  10.973
79846CL-    CL-43779  36.490  33.475  13.932
79847CL-    CL-43780  11.176  25.106  11.934
79848CL-    CL-43781  43.512  34.551  10.572
79849CL-    CL-43782  34.109  21.233   0.322
79850CL-    CL-43783  24.116   5.911   5.092
79851CL-    CL-43784   2.404  20.187  14.297
79852CL-    CL-43785  44.403  17.578  10.505
79853CL-    CL-43786  29.105  39.011  10.587
79854CL-    CL-43787  13.747  31.084  13.375
79855CL-    CL-43788  41.808  16.196   2.698
79856CL-    CL-43789   5.915   8.362   4.314
79857CL-    CL-43790   8.726  13.195   1.699
79858CL-    CL-43791  19.249  28.486   2.715
79859CL-    CL-43792  36.877  14.814   4.202
79860CL-    CL-43793  17.286  12.325  11.458
79861CL-    CL-43794  16.660  35.096   2.675
79862CL-    CL-43795  26.069  43.855  11.096
79863CL-    CL-43796   4.889   6.712  11.515
79864CL-    CL-43797  41.487  31.005   3.351
79865CL-    CL-43798   9.176  28.525  13.503
79866CL-    CL-43799  38.540  25.098   3.683
79867CL-    CL-43800  14.741  33.104   4.164
79868CL-    CL-43801  36.049  31.581   3.226
79869CL-    CL-43802  16.206  31.510   4.711
79870CL-    CL-43803   4.351   3.820  10.971
79871CL-    CL-43804   7.705  18.613   0.854
79872CL-    CL-43805   7.316   1.814  10.987
79873CL-    CL-43806  24.124   5.425  11.575
79874CL-    CL-43807  34.894  15.124  11.969
79875CL-    CL-43808  17.708  32.075   3.190
79876CL-    CL-43809  18.623  37.468   0.275
79877CL-    CL-43810   9.219  23.558   3.318
79878CL-    CL-43811  30.065  23.211   4.161
79879CL-    CL-43812  11.313  29.923  13.920
79880CL-    CL-43813  21.710  12.650   2.777
79881CL-    CL-43814  44.388  37.076   3.227
79882CL-    CL-43815   0.376  23.729   0.922
79883CL-    CL-43816   8.226  10.855  12.531
79884CL-    CL-43817  31.145  25.706   0.918
79885CL-    CL-43818  31.518  18.627   0.734
79886CL-    CL-43819  26.536  24.484   4.745
79887CL-    CL-43820   1.318  30.640   0.729
79888CL-    CL-43821  15.240  20.708   4.337
79889CL-    CL-43822  32.130  43.808   4.216
79890CL-    CL-43823   7.760   4.903   2.772
79891CL-    CL-43824  27.482  41.001  13.874
79892CL-    CL-43825   0.767  29.474  14.473
79893CL-    CL-43826  35.051  13.283  11.904
79894CL-    CL-43827  38.331  36.050   1.766
79895CL-    CL-43828  33.436  39.881  13.968
79896CL-    CL-43829  16.607  37.573   4.196
79897CL-    CL-43830  11.333  35.003  11.959
79898CL-    CL-43831  29.044   4.393   3.247
79899CL-    CL-43832  16.737  11.312  13.338
79900CL-    CL-43833  29.579   8.197   2.701
79901CL-    CL-43834   1.314   5.880   0.900
79902CL-    CL-43835   0.369  43.406   0.446
79903CL-    CL-43836  21.524  44.881  14.902
79904CL-    CL-43837  24.165  18.671  13.035
79905CL-    CL-43838   3.743  40.943  12.853
79906CL-    CL-43839  12.648  31.979   2.813
79907CL-    CL-43840   5.318  41.422   4.348
79908CL-    CL-43841  15.242  19.181  11.108
79909CL-    CL-43842  19.587  31.414   0.838
79910CL-    CL-43843  39.033  22.689   4.249
79911CL-    CL-43844  33.942  35.436   2.715
79912CL-    CL-43845   2.928  22.728   1.836
79913CL-    CL-43846  13.299  15.089   1.225
79914CL-    CL-43847  27.949  19.552   5.195
79915CL-    CL-43848  16.787   6.338  14.859
79916CL-    CL-43849  31.068   4.922   1.720
79917CL-    CL-43850  32.633  33.975   4.282
79918CL-    CL-43851  38.431   6.861  11.988
79919CL-    CL-43852   3.863  27.579   2.295
79920CL-    CL-43853  21.642  20.595  11.115
79921CL-    CL-43854  17.641  24.198  13.877
79922CL-    CL-43855  42.366   8.244   3.149
79923CL-    CL-43856  15.754  14.338  14.471
79924CL-    CL-43857  42.367  36.920  13.964
79925CL-    CL-43858  38.894   8.892  14.843
79926CL-    CL-43859  31.923  44.318  13.341
79927CL-    CL-43860  33.512  16.631   3.824
79928CL-    CL-43861  14.724  11.717  11.433
79929CL-    CL-43862  43.876  14.683  13.967
79930CL-    CL-43863   1.403   7.379   1.314
79931CL-    CL-43864  17.152  21.020   4.684
79932CL-    CL-43865  32.401   9.885  10.442
79933CL-    CL-43866  15.318  18.577   9.602
79934CL-    CL-43867  41.917   4.743   1.271
79935CL-    CL-43868  15.639  19.770  11.005
79936CL-    CL-43869  29.971  29.988  14.816
79937CL-    CL-43870  20.616  21.568  14.987
79938CL-    CL-43871  44.843  22.604   1.771
79939CL-    CL-43872  24.026   0.346  10.568
79940CL-    CL-43873  32.456  43.785  13.008
79941CL-    CL-43874  24.498  36.057  14.824
79942CL-    CL-43875  17.164  38.531   2.887
79943CL-    CL-43876  16.113   6.800   0.827
79944CL-    CL-43877   6.388   9.706   2.689
79945CL-    CL-43878  26.569  33.099   0.730
79946CL-    CL-43879   3.422   7.880  12.978
79947CL-    CL-43880  12.191  33.073  10.570
79948CL-    CL-43881  27.067  12.117   0.907
79949CL-    CL-43882   1.751  41.966  12.454
79950CL-    CL-43883  43.880  36.543  13.328
79951CL-    CL-43884  26.078  10.812  14.855
79952CL-    CL-43885   6.678   7.850  10.930
79953CL-    CL-43886  44.332   2.436   2.732
79954CL-    CL-43887   2.468  32.094  13.048
79955CL-    CL-43888  16.228  18.128   0.787
79956CL-    CL-43889  13.627  23.722   3.778
79957CL-    CL-43890   3.917  35.525  13.915
79958CL-    CL-43891   5.282  35.405  14.014
79959CL-    CL-43892  33.469  35.967  13.375
79960CL-    CL-43893  24.513  32.897  12.542
79961CL-    CL-43894   5.408  24.192  10.984
79962CL-    CL-43895   7.257  31.627  11.967
79963CL-    CL-43896   3.793  11.254  11.922
79964CL-    CL-43897  20.159  11.810   3.197
79965CL-    CL-43898  36.938  16.793  12.865
79966CL-    CL-43899  38.470  34.399   0.262
79967CL-    CL-43900  13.695  23.024  14.870
79968CL-    CL-43901  18.135   4.708   2.777
79969CL-    CL-43902  33.502  44.993   1.898
79970CL-    CL-43903  38.033  27.189   0.333
79971CL-    CL-43904  15.584  16.730   0.749
79972CL-    CL-43905  31.535  24.109   4.797
79973CL-    CL-43906  17.601   6.336   0.377
79974CL-    CL-43907  12.825  29.482  11.078
79975CL-    CL-43908  37.345  25.610  11.000
79976CL-    CL-43909  38.513   8.679  11.113
79977CL-    CL-43910  13.780  18.254   0.464
79978CL-    CL-43911  15.677  36.554   1.218
79979CL-    CL-43912   6.796  38.491   3.670
79980CL-    CL-43913  24.603  37.076  14.019
79981CL-    CL-43914   2.280  28.112   1.764
79982CL-    CL-43915  41.841  24.064  11.901
79983CL-    CL-43916  18.210  28.123   3.253
79984CL-    CL-43917   5.712  27.117   0.787
79985CL-    CL-43918   7.293  37.929  13.477
79986CL-    CL-43919  22.190  32.943  11.453
79987CL-    CL-43920   8.720  23.241   5.234
79988CL-    CL-43921  30.025  18.230   4.751
79989CL-    CL-43922  42.786  10.848  12.872
79990CL-    CL-43923  20.069  32.971  13.966
79991CL-    CL-43924  26.627   5.716  13.855
79992CL-    CL-43925  24.490  22.090   3.758
79993CL-    CL-43926  15.680   8.677   3.380
79994CL-    CL-43927  26.161  14.304   2.824
79995CL-    CL-43928  37.888  37.033  13.317
79996CL-    CL-43929  24.058  44.271   3.841
79997CL-    CL-43930  35.443  40.400  12.452
79998CL-    CL-43931  12.123  17.268  12.546
79999CL-    CL-43932  32.138   0.447   0.778
80000CL-    CL-43933   8.712  12.327   1.712
80001CL-    CL-43934   1.765  18.779  10.919
80002CL-    CL-43935  34.957  18.686  14.780
80003CL-    CL-43936  19.234  21.213   4.116
80004CL-    CL-43937  28.592   3.386   4.311
80005CL-    CL-43938  42.365   5.300   3.293
80006CL-    CL-43939   8.769  28.605  13.526
80007CL-    CL-43940   0.441  19.550   4.168
80008CL-    CL-43941  44.843   0.271  14.341
80009CL-    CL-43942  17.656  18.168   3.179
80010CL-    CL-43943  36.974  18.681  13.000
80011CL-    CL-43944  43.405  10.791  13.391
80012CL-    CL-43945  16.581   4.371   9.967
80013CL-    CL-43946  21.696  44.370  14.284
80014CL-    CL-43947  10.794  28.102   1.727
80015CL-    CL-43948   4.870  44.965  12.382
80016CL-    CL-43949  31.152  37.927  13.338
80017CL-    CL-43950  44.340  22.566  10.541
80018CL-    CL-43951  23.614  33.112  11.384
80019CL-    CL-43952  19.129  12.131   4.600
80020CL-    CL-43953  32.918  26.530   4.836
80021CL-    CL-43954  26.147  18.076   2.249
80022CL-    CL-43955  32.885  39.891  13.999
80023CL-    CL-43956  20.214  16.765   5.171
80024CL-    CL-43957  12.252  12.335   1.342
  45.00000  45.00000  15.00000   0.00000   0.00000   0.00000   0.00000   0.00000   0.00000

